Title
43125
    1CHL1    C3    1   2.040   5.857   7.594 -0.3856 -0.3791 -0.0481
    1CHL1    H3    2   2.060   5.960   7.557 -0.7284  0.0222  0.8517
    1CHL1    O3    3   2.041   5.863   7.736 -0.1666 -0.5609  0.1854
    1CHL1   H3'    4   1.952   5.897   7.748 -0.6861 -2.0164  0.6407
    1CHL1    C4    5   1.895   5.825   7.530 -0.3215 -0.0212 -0.7034
    1CHL1   H4A    6   1.863   5.726   7.568 -0.3310 -0.7290 -2.4638
    1CHL1   H4B    7   1.820   5.895   7.573  0.7007  0.6417  0.0480
    1CHL1    C5    8   1.900   5.827   7.379  0.1098 -0.1506  0.1092
    1CHL1    C6    9   1.820   5.907   7.305  0.3356 -0.0944 -0.1575
    1CHL1    H6   10   1.757   5.983   7.353  1.2421 -0.2437  1.3624
    1CHL1    C7   11   1.810   5.907   7.159 -0.0327 -0.0015  0.1853
    1CHL1   H7A   12   1.703   5.905   7.131  0.0176  0.9254 -0.1279
    1CHL1   H7B   13   1.860   6.000   7.122 -0.0916  0.5831  1.5256
    1CHL1    C8   14   1.896   5.793   7.088 -0.4215  0.2381  0.5050
    1CHL1    H8   15   1.838   5.699   7.098  1.0433 -0.8777 -0.8566
    1CHL1   C14   16   1.918   5.818   6.935  0.7329 -0.1829  0.4517
    1CHL1   H14   17   1.969   5.916   6.927 -0.9931  0.6276 -1.4011
    1CHL1   C15   18   1.786   5.844   6.854 -0.4076  0.0096  0.5294
    1CHL1  H15A   19   1.713   5.764   6.879  1.1857 -0.9090  2.5811
    1CHL1  H15B   20   1.744   5.945   6.876 -1.4057 -0.1593 -0.4814
    1CHL1   C16   21   1.839   5.824   6.710  0.0643 -0.0796 -0.0609
    1CHL1  H16A   22   1.772   5.760   6.649 -0.0642  1.5363 -1.6842
    1CHL1  H16B   23   1.849   5.916   6.649  0.2383 -0.2248 -0.2527
    1CHL1   C17   24   1.984   5.768   6.724  0.3773  0.0071  0.3428
    1CHL1   H17   25   2.040   5.864   6.721 -1.0845  0.9423  1.4004
    1CHL1   C13   26   1.998   5.713   6.865 -0.7224  1.0750 -0.4941
    1CHL1   C18   27   1.932   5.569   6.883  0.4956  0.3367  0.7880
    1CHL1  H18A   28   1.984   5.487   6.830 -1.4221 -0.6987  0.4182
    1CHL1  H18B   29   1.936   5.531   6.987 -0.1048  2.5521  1.6935
    1CHL1  H18C   30   1.826   5.569   6.849  0.5620  0.0919  0.5805
    1CHL1   C12   31   2.136   5.723   6.933  0.6008 -0.0485 -0.6774
    1CHL1  H12A   32   2.207   5.652   6.885  1.3484 -0.6199  1.1843
    1CHL1  H12B   33   2.169   5.828   6.914 -0.2409  0.1365 -1.1848
    1CHL1   C11   34   2.135   5.688   7.086  0.4113  0.6265 -0.1789
    1CHL1  H11A   35   2.102   5.582   7.082 -2.1500  1.3697 -0.3580
    1CHL1  H11B   36   2.238   5.696   7.127  0.9582 -2.2051 -0.7889
    1CHL1    C9   37   2.032   5.776   7.164  0.0267  0.7084 -0.0796
    1CHL1    H9   38   2.076   5.878   7.155  0.8811  0.2973 -0.7772
    1CHL1   C10   39   2.011   5.742   7.313 -0.1185  0.4627  0.7951
    1CHL1   C19   40   1.971   5.592   7.335 -0.7440  0.5140  0.0120
    1CHL1  H19A   41   1.876   5.578   7.280 -0.5408 -0.7122 -0.0434
    1CHL1  H19B   42   2.047   5.526   7.288 -0.5951  1.9355 -1.8704
    1CHL1  H19C   43   1.965   5.561   7.442 -0.0403  2.3021  0.6277
    1CHL1    C1   44   2.149   5.758   7.385 -0.4774  0.7351  0.0102
    1CHL1   H1A   45   2.215   5.688   7.328 -3.4426 -0.2333 -2.5211
    1CHL1   H1B   46   2.187   5.856   7.350 -2.2938  1.4821  0.0262
    1CHL1    C2   47   2.156   5.762   7.539  0.1583  0.0954  0.6323
    1CHL1   H2A   48   2.256   5.791   7.579  1.1486 -1.7884 -0.3140
    1CHL1   H2B   49   2.129   5.667   7.590  0.9051 -0.5842 -0.2027
    1CHL1   C20   50   2.030   5.678   6.600 -0.1197 -0.7775 -0.0613
    1CHL1   H20   51   1.973   5.583   6.610 -1.3620 -0.2267 -1.4655
    1CHL1   C21   52   2.178   5.632   6.609 -0.4968  0.1143 -0.2048
    1CHL1  H21A   53   2.191   5.562   6.524  0.5302 -2.4053  1.8815
    1CHL1  H21B   54   2.178   5.573   6.702 -0.1401  2.0056  1.0619
    1CHL1  H21C   55   2.251   5.716   6.617 -0.8843  0.8743 -3.3330
    1CHL1   C22   56   2.004   5.739   6.460  0.1297  0.4071 -0.2603
    1CHL1  H22A   57   1.912   5.801   6.464 -1.6210 -2.0199 -1.1207
    1CHL1  H22B   58   2.095   5.802   6.445  1.0115  0.1707  3.1181
    1CHL1   C23   59   1.983   5.630   6.353  0.6301  0.0391  0.3116
    1CHL1  H23A   60   2.071   5.563   6.353  0.3543 -0.6700 -4.0998
    1CHL1  H23B   61   1.894   5.571   6.382 -0.0409  0.6767 -0.3974
    1CHL1   C24   62   1.959   5.684   6.212  0.7493  0.5213 -0.0815
    1CHL1  H24A   63   1.867   5.746   6.218 -0.8769 -1.8095  0.4566
    1CHL1  H24B   64   2.040   5.758   6.199  1.5155 -0.0288  1.3714
    1CHL1   C25   65   1.939   5.581   6.098  0.5851 -0.2078 -0.4475
    1CHL1   H25   66   1.905   5.647   6.016  2.0189  0.7788 -0.2979
    1CHL1   C26   67   2.063   5.501   6.069  0.2162 -0.0839  0.0241
    1CHL1  H26A   68   2.098   5.436   6.152 -3.0686 -1.2191  0.6618
    1CHL1  H26B   69   2.035   5.434   5.985  0.3322 -0.2125  0.0888
    1CHL1  H26C   70   2.144   5.570   6.035  1.0035 -0.8501  0.3038
    1CHL1   C27   71   1.819   5.484   6.126  0.3432 -0.8856  0.7021
    1CHL1  H27A   72   1.799   5.410   6.046 -0.5625 -0.6817  0.7358
    1CHL1  H27B   73   1.833   5.423   6.218  1.0560 -1.2634  0.3545
    1CHL1  H27C   74   1.725   5.540   6.143 -0.8039 -2.9454  1.5390
    2CHL1    C3   75   2.876   4.657   7.575 -0.2076 -0.5094  0.4468
    2CHL1    H3   76   2.962   4.727   7.581  0.0484 -0.7654 -0.1589
    2CHL1    O3   77   2.846   4.625   7.707  0.1536  0.4285 -0.2144
    2CHL1   H3'   78   2.799   4.541   7.710 -0.3885  0.6870 -1.1203
    2CHL1    C4   79   2.750   4.722   7.510 -0.4735 -0.5029  0.4008
    2CHL1   H4A   80   2.658   4.662   7.527 -0.7257  0.1434  1.4166
    2CHL1   H4B   81   2.733   4.814   7.569  0.7536  0.4913 -0.7378
    2CHL1    C5   82   2.775   4.745   7.362  0.3287 -0.6081  0.6491
    2CHL1    C6   83   2.751   4.870   7.315  0.4555  0.3598 -0.0525
    2CHL1    H6   84   2.711   4.948   7.381 -0.5343  0.7196 -1.0427
    2CHL1    C7   85   2.795   4.906   7.174 -0.0304 -0.3541  0.0208
    2CHL1   H7A   86   2.724   4.976   7.123  1.5633  2.0167  0.8913
    2CHL1   H7B   87   2.893   4.958   7.178  0.5372 -1.2953 -1.1178
    2CHL1    C8   88   2.802   4.777   7.085  0.1153  0.5996  0.0758
    2CHL1    H8   89   2.699   4.736   7.073  0.7571 -1.1344  0.1507
    2CHL1   C14   90   2.851   4.822   6.943 -0.5416  0.4050 -0.4336
    2CHL1   H14   91   2.948   4.874   6.959 -1.4404  1.4823  1.8964
    2CHL1   C15   92   2.780   4.925   6.855 -0.0543 -0.2858 -0.7560
    2CHL1  H15A   93   2.671   4.924   6.876 -0.2290 -2.5219 -1.5534
    2CHL1  H15B   94   2.831   5.019   6.884  0.2348 -0.1778 -1.6074
    2CHL1   C16   95   2.809   4.894   6.708  0.1314 -0.5697 -0.3273
    2CHL1  H16A   96   2.720   4.850   6.660  1.4123 -1.8748 -1.6014
    2CHL1  H16B   97   2.841   4.978   6.643  2.0263  0.2675  1.5458
    2CHL1   C17   98   2.914   4.779   6.719 -0.4376  0.1877 -0.2906
    2CHL1   H17   99   3.007   4.834   6.744  1.0791 -0.7758 -3.3208
    2CHL1   C13  100   2.876   4.705   6.849  0.1853 -0.1631 -0.1700
    2CHL1   C18  101   2.749   4.625   6.821  0.2344  0.6201  1.0024
    2CHL1  H18A  102   2.706   4.574   6.910 -1.7310  0.1769 -0.1523
    2CHL1  H18B  103   2.666   4.677   6.770 -2.8181 -2.1311  2.7419
    2CHL1  H18C  104   2.796   4.545   6.760  2.3773  1.8582  0.9364
    2CHL1   C12  105   2.983   4.615   6.910  0.2342 -0.4371 -0.1551
    2CHL1  H12A  106   3.005   4.527   6.845 -1.8929  0.4609 -2.2535
    2CHL1  H12B  107   3.078   4.672   6.918  0.2448 -0.5285  0.3688
    2CHL1   C11  108   2.941   4.562   7.048 -0.4392 -0.6612  0.0955
    2CHL1  H11A  109   2.866   4.481   7.030  0.0184 -1.5093  1.8629
    2CHL1  H11B  110   3.025   4.518   7.104 -0.3357 -2.4643 -1.3737
    2CHL1    C9  111   2.899   4.676   7.147  0.5859  0.6023  0.3197
    2CHL1    H9  112   2.992   4.732   7.169  0.9273  0.6669 -1.1564
    2CHL1   C10  113   2.838   4.633   7.280 -0.9405 -0.5604 -0.1870
    2CHL1   C19  114   2.731   4.528   7.255 -0.4927 -0.4519  0.3855
    2CHL1  H19A  115   2.660   4.548   7.171  2.4502  1.8793 -1.7628
    2CHL1  H19B  116   2.774   4.428   7.233 -1.0463 -0.0686 -3.1522
    2CHL1  H19C  117   2.677   4.502   7.348  1.4100 -1.0347  1.3662
    2CHL1    C1  118   2.950   4.559   7.359 -0.3882  0.5313 -0.3533
    2CHL1   H1A  119   2.963   4.462   7.307 -2.9051 -1.0751  1.7842
    2CHL1   H1B  120   3.043   4.619   7.357  0.5546 -0.8278  1.0303
    2CHL1    C2  121   2.914   4.530   7.508  0.0380  0.4472  0.0963
    2CHL1   H2A  122   3.005   4.489   7.557 -0.5406 -0.1347  0.7085
    2CHL1   H2B  123   2.828   4.459   7.513  0.6608 -0.2826  0.8023
    2CHL1   C20  124   2.932   4.720   6.581  0.4755 -0.1465  0.1136
    2CHL1   H20  125   2.841   4.668   6.545 -1.2679  1.2135  2.2712
    2CHL1   C21  126   3.051   4.617   6.584 -0.3682  0.0526  0.2397
    2CHL1  H21A  127   3.148   4.667   6.603 -0.3399  0.2079 -0.2930
    2CHL1  H21B  128   3.073   4.565   6.489 -0.7337  0.5632 -0.1306
    2CHL1  H21C  129   3.037   4.542   6.665  2.9183  0.1058  0.9967
    2CHL1   C22  130   2.975   4.825   6.473  0.1979 -0.0374 -0.3413
    2CHL1  H22A  131   2.904   4.910   6.469 -0.2401 -0.4229 -1.1106
    2CHL1  H22B  132   3.076   4.866   6.493 -0.5418  2.7684 -1.7721
    2CHL1   C23  133   2.974   4.773   6.328 -0.2656 -0.4410  0.7221
    2CHL1  H23A  134   3.019   4.858   6.273 -0.9398 -1.2186 -1.1266
    2CHL1  H23B  135   3.060   4.702   6.338  1.3450  0.9547 -1.9795
    2CHL1   C24  136   2.843   4.710   6.277 -0.4859 -0.2798  0.3238
    2CHL1  H24A  137   2.836   4.613   6.330  1.5581  0.2413  1.6689
    2CHL1  H24B  138   2.756   4.775   6.301 -2.0866 -2.0967 -0.2981
    2CHL1   C25  139   2.841   4.692   6.132 -0.3251  0.7109  0.0775
    2CHL1   H25  140   2.911   4.610   6.103 -0.6819  0.9366 -1.5318
    2CHL1   C26  141   2.701   4.637   6.094 -0.6742 -0.6207 -0.6008
    2CHL1  H26A  142   2.716   4.593   5.993 -1.9987 -1.9447 -0.2692
    2CHL1  H26B  143   2.676   4.554   6.164  1.7883 -0.6940  0.2757
    2CHL1  H26C  144   2.620   4.713   6.101 -0.4276 -0.2432 -1.6314
    2CHL1   C27  145   2.879   4.810   6.055  0.3066 -0.1463  0.5191
    2CHL1  H27A  146   2.831   4.902   6.094 -0.1964 -0.2578  0.1702
    2CHL1  H27B  147   2.989   4.824   6.046  0.2062 -0.3339 -1.4358
    2CHL1  H27C  148   2.844   4.801   5.950  0.7360 -0.8229  0.4241
    3CHL1    C3  149   2.933   1.741   7.924  0.6105 -0.1508  0.0045
    3CHL1    H3  150   2.845   1.731   7.857  1.2941  0.5836 -1.0428
    3CHL1    O3  151   2.883   1.753   8.056  0.3225 -0.0491  0.2574
    3CHL1   H3'  152   2.921   1.838   8.079 -2.0156  1.5449 -1.3815
    3CHL1    C4  153   3.023   1.622   7.904 -0.1613  0.3399  0.4425
    3CHL1   H4A  154   3.097   1.631   7.986 -2.0032 -0.9885  2.3515
    3CHL1   H4B  155   2.971   1.527   7.928 -1.1971  0.8372  0.2078
    3CHL1    C5  156   3.083   1.609   7.759  0.3649 -0.5564 -0.2057
    3CHL1    C6  157   3.056   1.507   7.679 -0.2806  0.5730 -0.2463
    3CHL1    H6  158   2.999   1.419   7.713 -1.1852  1.0142 -0.5928
    3CHL1    C7  159   3.119   1.483   7.542 -0.4836 -0.2793 -0.7894
    3CHL1   H7A  160   3.177   1.390   7.527 -0.2121 -0.4971  1.3477
    3CHL1   H7B  161   3.031   1.476   7.474 -1.0099  0.0542 -0.1618
    3CHL1    C8  162   3.209   1.602   7.501 -0.2479  0.6790 -0.2711
    3CHL1    H8  163   3.309   1.566   7.534 -0.9555 -3.0879 -1.6482
    3CHL1   C14  164   3.221   1.602   7.351 -0.1980 -0.8940 -0.3456
    3CHL1   H14  165   3.119   1.626   7.313 -0.1897  0.0874  0.2081
    3CHL1   C15  166   3.250   1.470   7.275 -0.4512 -0.2237  0.3917
    3CHL1  H15A  167   3.324   1.400   7.320  0.8892 -0.0810 -1.4617
    3CHL1  H15B  168   3.155   1.413   7.271  0.0602 -1.0146 -1.6728
    3CHL1   C16  169   3.297   1.510   7.141  0.8556  0.1315  0.0396
    3CHL1  H16A  170   3.395   1.462   7.122  0.6738 -0.1386 -0.2320
    3CHL1  H16B  171   3.222   1.481   7.065 -1.7156  1.3165  1.9806
    3CHL1   C17  172   3.299   1.669   7.149  0.1597 -0.5253 -0.5155
    3CHL1   H17  173   3.198   1.705   7.120  0.5255  0.0970 -1.0501
    3CHL1   C13  174   3.316   1.710   7.298  0.1886 -0.0319 -1.7451
    3CHL1   C18  175   3.460   1.686   7.339 -0.2886  0.3643  0.2905
    3CHL1  H18A  176   3.476   1.700   7.448 -1.0468 -0.8591  0.5726
    3CHL1  H18B  177   3.493   1.581   7.324 -0.1192  0.5598 -0.8320
    3CHL1  H18C  178   3.530   1.761   7.295  1.8699  0.0983  3.0297
    3CHL1   C12  179   3.270   1.848   7.343 -0.6918 -0.3002  0.3708
    3CHL1  H12A  180   3.338   1.932   7.317 -0.4519 -0.5981  0.0225
    3CHL1  H12B  181   3.171   1.865   7.295 -0.1853  0.4069 -0.4610
    3CHL1   C11  182   3.258   1.855   7.492 -0.1206  0.1585  0.4207
    3CHL1  H11A  183   3.358   1.840   7.536  0.4585 -0.1145 -0.9391
    3CHL1  H11B  184   3.227   1.957   7.522 -0.4819  0.7942 -1.8908
    3CHL1    C9  185   3.174   1.739   7.555 -0.5312 -0.2857  0.0475
    3CHL1    H9  186   3.074   1.762   7.513 -1.6101  0.0445  2.5946
    3CHL1   C10  187   3.150   1.734   7.707 -0.0698 -0.3956  0.3522
    3CHL1   C19  188   3.289   1.741   7.776 -0.1374  0.6347 -0.2886
    3CHL1  H19A  189   3.294   1.721   7.886  0.3654  0.2384 -0.3801
    3CHL1  H19B  190   3.352   1.661   7.732 -3.1036 -1.0790 -1.7086
    3CHL1  H19C  191   3.339   1.835   7.742 -1.9128  1.3041 -1.1559
    3CHL1    C1  192   3.074   1.858   7.744  0.1115  0.4130 -0.4803
    3CHL1   H1A  193   3.140   1.947   7.738 -0.7247  0.9852 -1.4343
    3CHL1   H1B  194   2.991   1.880   7.673 -0.1889  0.8049 -0.0147
    3CHL1    C2  195   3.020   1.867   7.891 -0.4390 -0.2525 -0.3627
    3CHL1   H2A  196   2.982   1.971   7.905  2.4647  0.8261  0.1027
    3CHL1   H2B  197   3.106   1.861   7.960 -0.2412 -1.6259 -0.7079
    3CHL1   C20  198   3.388   1.727   7.037  0.6794 -0.3370 -0.2533
    3CHL1   H20  199   3.492   1.692   7.058  1.9845  3.3931  0.1717
    3CHL1   C21  200   3.385   1.881   7.044 -0.2670  0.1216 -0.6724
    3CHL1  H21A  201   3.456   1.911   7.124 -0.3166  0.6847 -0.8310
    3CHL1  H21B  202   3.286   1.931   7.060 -1.4532 -1.8371 -1.4938
    3CHL1  H21C  203   3.440   1.913   6.953  0.3997 -1.8738 -1.0090
    3CHL1   C22  204   3.345   1.680   6.894  0.4470 -0.3811  0.0897
    3CHL1  H22A  205   3.370   1.572   6.889 -0.8036 -0.8119  1.8896
    3CHL1  H22B  206   3.234   1.685   6.892  0.4643  0.5043 -2.8089
    3CHL1   C23  207   3.397   1.745   6.767 -0.4448 -0.0555 -0.5570
    3CHL1  H23A  208   3.363   1.849   6.749 -0.4219 -0.2432 -1.7745
    3CHL1  H23B  209   3.505   1.747   6.794 -0.5858 -0.5583  0.0650
    3CHL1   C24  210   3.387   1.646   6.649  0.0778 -0.2430  0.6048
    3CHL1  H24A  211   3.432   1.546   6.669 -0.2257 -0.5278 -0.0834
    3CHL1  H24B  212   3.281   1.617   6.635  0.0912  0.2160 -0.5356
    3CHL1   C25  213   3.443   1.690   6.508  0.8474  0.4230 -0.5835
    3CHL1   H25  214   3.446   1.602   6.439  2.3892  0.2922 -0.3919
    3CHL1   C26  215   3.364   1.805   6.445 -0.2430  0.4170 -0.8668
    3CHL1  H26A  216   3.259   1.780   6.421 -0.4483  0.7616 -0.3347
    3CHL1  H26B  217   3.359   1.881   6.526  1.0426 -1.5507  1.1636
    3CHL1  H26C  218   3.414   1.848   6.355 -1.5414 -0.7356 -2.1991
    3CHL1   C27  219   3.590   1.739   6.515 -1.2096  0.4068 -0.7147
    3CHL1  H27A  220   3.647   1.649   6.547 -0.4973  1.0569 -0.1124
    3CHL1  H27B  221   3.628   1.766   6.414 -0.6164 -2.8735 -1.5083
    3CHL1  H27C  222   3.594   1.816   6.595 -0.9310 -2.0364  1.7659
    4CHL1    C3  223   2.140   4.770   7.852  0.3415  0.0663  0.4582
    4CHL1    H3  224   2.186   4.669   7.854 -0.2306 -0.2908 -1.8045
    4CHL1    O3  225   2.116   4.813   7.987 -0.2258 -0.3493 -0.3647
    4CHL1   H3'  226   2.038   4.868   7.987 -0.9781 -1.3763  0.3940
    4CHL1    C4  227   2.241   4.872   7.785  0.3344 -0.2663  0.0928
    4CHL1   H4A  228   2.209   4.976   7.808  0.5387  0.3342 -2.0549
    4CHL1   H4B  229   2.337   4.853   7.837  2.0096 -0.6259 -2.8801
    4CHL1    C5  230   2.251   4.858   7.630  0.2485  0.8589  0.1587
    4CHL1    C6  231   2.369   4.847   7.573 -0.1493  0.3503 -0.5815
    4CHL1    H6  232   2.456   4.857   7.639 -1.0912  0.0260  0.7368
    4CHL1    C7  233   2.389   4.816   7.427  0.2009  0.4768 -0.3218
    4CHL1   H7A  234   2.459   4.894   7.390  0.3166  0.2341 -0.6122
    4CHL1   H7B  235   2.424   4.711   7.417 -1.7943 -0.0441 -2.7942
    4CHL1    C8  236   2.267   4.842   7.342  0.2610 -0.1808  0.3627
    4CHL1    H8  237   2.257   4.952   7.332  1.3396 -0.0223  0.8774
    4CHL1   C14  238   2.282   4.789   7.197  0.2813 -0.1680 -0.3549
    4CHL1   H14  239   2.298   4.681   7.213  1.2337  0.0708  0.4047
    4CHL1   C15  240   2.397   4.839   7.117 -0.6406  0.2906 -0.4524
    4CHL1  H15A  241   2.399   4.950   7.111 -0.9218  0.2545 -1.4496
    4CHL1  H15B  242   2.495   4.803   7.157 -1.5734 -1.5550  0.2819
    4CHL1   C16  243   2.376   4.789   6.967  0.3654 -0.2202  0.4064
    4CHL1  H16A  244   2.397   4.874   6.899  0.3700  1.1071  2.0082
    4CHL1  H16B  245   2.442   4.701   6.954  0.1150 -0.1303 -1.8797
    4CHL1   C17  246   2.222   4.747   6.970 -0.0545 -0.0397  0.2067
    4CHL1   H17  247   2.228   4.637   6.972  0.1757 -0.0462 -0.4262
    4CHL1   C13  248   2.165   4.799   7.105 -0.2937 -0.2117 -0.2804
    4CHL1   C18  249   2.111   4.940   7.077  0.2014 -0.0857 -0.5479
    4CHL1  H18A  250   2.094   4.998   7.171 -2.6526 -3.0513  0.9789
    4CHL1  H18B  251   2.190   4.999   7.026  0.5907  1.4607  1.6916
    4CHL1  H18C  252   2.017   4.944   7.018  0.2170  0.9316 -0.5137
    4CHL1   C12  253   2.064   4.706   7.171 -0.1560 -0.3248  0.0275
    4CHL1  H12A  254   1.968   4.705   7.115 -0.3693  0.6355  0.3590
    4CHL1  H12B  255   2.110   4.605   7.162  1.9552  0.6978 -1.6662
    4CHL1   C11  256   2.028   4.765   7.309 -0.6951  0.4313 -0.1482
    4CHL1  H11A  257   1.985   4.867   7.307  1.3201  1.3272 -1.1785
    4CHL1  H11B  258   1.962   4.689   7.356  1.0481  0.8106  3.1946
    4CHL1    C9  259   2.149   4.769   7.409  0.2654  0.0524  0.3231
    4CHL1    H9  260   2.186   4.665   7.427  2.8498  0.7275 -0.5907
    4CHL1   C10  261   2.120   4.829   7.554  0.8041  0.4439 -0.6275
    4CHL1   C19  262   2.045   4.969   7.548  0.5019 -0.7402 -0.7362
    4CHL1  H19A  263   1.937   4.950   7.526 -0.1906  1.4455  0.4231
    4CHL1  H19B  264   2.050   5.012   7.650  3.5143  1.4982 -1.6822
    4CHL1  H19C  265   2.089   5.051   7.486 -0.4843  1.8703  1.7719
    4CHL1    C1  266   2.035   4.724   7.625 -0.0324  0.6754 -0.1364
    4CHL1   H1A  267   1.940   4.715   7.569  1.1616  1.1655 -2.3953
    4CHL1   H1B  268   2.076   4.621   7.617  1.7082  1.4240 -1.4310
    4CHL1    C2  269   2.005   4.763   7.774 -0.4694  0.4118  0.1116
    4CHL1   H2A  270   1.928   4.692   7.812 -1.3117  0.2427 -1.7979
    4CHL1   H2B  271   1.954   4.861   7.777 -1.8103 -0.2844  2.4773
    4CHL1   C20  272   2.137   4.765   6.842 -0.2979 -0.5260  0.3340
    4CHL1   H20  273   2.099   4.870   6.835  2.4006  0.6066  1.1563
    4CHL1   C21  274   2.015   4.666   6.840 -0.3713 -0.3449 -0.4733
    4CHL1  H21A  275   1.966   4.672   6.740 -1.2908  0.1049 -0.0106
    4CHL1  H21B  276   1.932   4.684   6.912  0.0907  0.7486 -0.1914
    4CHL1  H21C  277   2.044   4.559   6.854 -0.9482 -0.5415 -0.7458
    4CHL1   C22  278   2.222   4.742   6.713 -0.5331 -0.8734  0.1700
    4CHL1  H22A  279   2.329   4.774   6.721 -0.0121 -1.6666 -2.4903
    4CHL1  H22B  280   2.226   4.632   6.697 -0.6835 -1.4035  3.2390
    4CHL1   C23  281   2.160   4.798   6.585 -1.2697 -0.3176  1.0387
    4CHL1  H23A  282   2.052   4.773   6.589 -1.8154  1.9014  1.7693
    4CHL1  H23B  283   2.168   4.909   6.582 -0.5272 -0.3995 -0.7244
    4CHL1   C24  284   2.237   4.740   6.465  0.2955 -0.2424  0.4441
    4CHL1  H24A  285   2.336   4.792   6.458  0.5455 -0.8448 -0.9173
    4CHL1  H24B  286   2.243   4.629   6.470 -0.2054 -0.2947 -0.0267
    4CHL1   C25  287   2.148   4.760   6.339 -0.3109 -0.6277 -0.2200
    4CHL1   H25  288   2.119   4.867   6.331 -0.3297 -0.4634  1.5903
    4CHL1   C26  289   2.229   4.725   6.214  0.2124  0.2834  0.0406
    4CHL1  H26A  290   2.260   4.618   6.220  0.1856 -0.2178 -4.6194
    4CHL1  H26B  291   2.168   4.732   6.121 -2.2464 -1.8206  1.3974
    4CHL1  H26C  292   2.325   4.781   6.204  1.0122 -1.1402 -0.7552
    4CHL1   C27  293   2.018   4.679   6.342  0.5936  0.5455 -0.2475
    4CHL1  H27A  294   1.970   4.712   6.247 -2.3096 -1.6642  0.3339
    4CHL1  H27B  295   2.035   4.569   6.342  1.5174  0.6743 -0.8270
    4CHL1  H27C  296   1.951   4.716   6.422  0.8348  1.0283 -0.2599
    5CHL1    C3  297   1.412   5.777   7.460 -1.0288  0.2077 -0.5872
    5CHL1    H3  298   1.457   5.873   7.427  0.6172 -1.3216 -3.1284
    5CHL1    O3  299   1.395   5.783   7.602 -0.7083 -0.6985 -0.4928
    5CHL1   H3'  300   1.389   5.689   7.619 -1.2471 -0.2682  2.0278
    5CHL1    C4  301   1.280   5.756   7.381 -0.1166  0.2864  0.2665
    5CHL1   H4A  302   1.230   5.661   7.411 -1.8149  0.7384 -0.9625
    5CHL1   H4B  303   1.213   5.839   7.412 -2.4393 -0.8885 -1.3322
    5CHL1    C5  304   1.299   5.748   7.229 -0.4304 -0.6939  0.6632
    5CHL1    C6  305   1.246   5.839   7.140  0.3272 -0.1332 -0.2235
    5CHL1    H6  306   1.183   5.923   7.171  1.6288  0.1980  1.7126
    5CHL1    C7  307   1.246   5.817   6.987 -0.3143  0.7709 -0.1583
    5CHL1   H7A  308   1.141   5.823   6.949  0.1323 -3.8057 -2.7719
    5CHL1   H7B  309   1.314   5.893   6.943 -0.7454  0.6343 -1.1026
    5CHL1    C8  310   1.306   5.681   6.949  0.0559  0.5954  0.5839
    5CHL1    H8  311   1.227   5.604   6.965  0.8204 -1.1239 -2.9423
    5CHL1   C14  312   1.341   5.680   6.799 -0.2119 -0.5545 -0.2586
    5CHL1   H14  313   1.411   5.764   6.781  0.1222 -0.5763  0.8408
    5CHL1   C15  314   1.226   5.714   6.702  0.0410  0.2046  0.1498
    5CHL1  H15A  315   1.141   5.649   6.733 -1.2380  0.5572 -2.3675
    5CHL1  H15B  316   1.184   5.815   6.718 -0.7458 -0.2886  1.3151
    5CHL1   C16  317   1.285   5.677   6.564 -0.1438 -0.0229 -0.0500
    5CHL1  H16A  318   1.206   5.609   6.526 -0.5560  0.8480 -0.7786
    5CHL1  H16B  319   1.285   5.764   6.495 -3.1420  0.4972  0.4483
    5CHL1   C17  320   1.417   5.596   6.597  0.3214  1.4693  0.2985
    5CHL1   H17  321   1.501   5.666   6.578  2.7500 -0.9547  1.4399
    5CHL1   C13  322   1.402   5.551   6.750 -0.4321 -0.2899  0.7125
    5CHL1   C18  323   1.303   5.431   6.763 -0.1955 -1.0745  0.3024
    5CHL1  H18A  324   1.229   5.430   6.681 -2.7921  0.4802  2.4423
    5CHL1  H18B  325   1.360   5.336   6.750  3.1848  0.8868 -0.4188
    5CHL1  H18C  326   1.249   5.436   6.860 -1.3272 -1.4631 -0.2926
    5CHL1   C12  327   1.530   5.528   6.825 -0.2378  0.1697 -0.0089
    5CHL1  H12A  328   1.564   5.425   6.804  1.2656  0.6154  0.0990
    5CHL1  H12B  329   1.612   5.601   6.807  0.4422 -0.2715  1.1490
    5CHL1   C11  330   1.506   5.527   6.976  0.3736  0.4587  0.3288
    5CHL1  H11A  331   1.452   5.435   7.005 -0.3955  0.0568 -2.1610
    5CHL1  H11B  332   1.602   5.520   7.032 -1.2236 -3.5397  3.0859
    5CHL1    C9  333   1.427   5.645   7.036  0.0037  0.8830  0.0526
    5CHL1    H9  334   1.500   5.726   7.015  1.1134 -0.3065 -0.8877
    5CHL1   C10  335   1.395   5.640   7.186  0.2179 -0.2368 -0.3921
    5CHL1   C19  336   1.354   5.494   7.224  0.3487 -0.7625 -0.0467
    5CHL1  H19A  337   1.325   5.484   7.331 -1.9662  0.1552 -0.5463
    5CHL1  H19B  338   1.264   5.467   7.165 -0.0907  0.5162  0.0040
    5CHL1  H19C  339   1.440   5.424   7.217  0.3632 -1.1562  2.7368
    5CHL1    C1  340   1.529   5.674   7.262 -0.7984  0.8399  0.3706
    5CHL1   H1A  341   1.608   5.600   7.237  2.3590  3.0579  2.8870
    5CHL1   H1B  342   1.560   5.777   7.233 -0.9765  0.5167 -1.0648
    5CHL1    C2  343   1.524   5.673   7.412  1.0277 -0.2469  0.4386
    5CHL1   H2A  344   1.625   5.695   7.454  1.4927 -3.0539  0.9793
    5CHL1   H2B  345   1.497   5.572   7.450 -0.3528  0.1446  0.5810
    5CHL1   C20  346   1.434   5.474   6.494 -0.2481  0.2980 -0.4075
    5CHL1   H20  347   1.341   5.415   6.502  0.0835 -0.1397  0.3157
    5CHL1   C21  348   1.556   5.391   6.539  0.6551 -0.2209 -0.3010
    5CHL1  H21A  349   1.634   5.457   6.581 -3.5959  2.6032  4.3913
    5CHL1  H21B  350   1.591   5.336   6.449 -1.1429  0.2356 -1.3433
    5CHL1  H21C  351   1.520   5.329   6.624 -3.1852 -0.3209 -1.7566
    5CHL1   C22  352   1.442   5.516   6.344 -0.5433 -0.2512 -0.2997
    5CHL1  H22A  353   1.374   5.602   6.328 -1.1399 -0.5833  0.4304
    5CHL1  H22B  354   1.545   5.552   6.322 -1.0411  1.0475 -0.6250
    5CHL1   C23  355   1.404   5.403   6.241 -0.0152  0.1367  0.0667
    5CHL1  H23A  356   1.475   5.319   6.255 -1.3431 -0.9460  0.4885
    5CHL1  H23B  357   1.309   5.354   6.271  0.3820 -1.3697 -1.0450
    5CHL1   C24  358   1.418   5.442   6.090 -0.8816  0.2989  0.4114
    5CHL1  H24A  359   1.349   5.528   6.075  0.3437  1.4732  1.3087
    5CHL1  H24B  360   1.521   5.477   6.068 -1.9660  1.4880 -3.7493
    5CHL1   C25  361   1.386   5.323   6.002 -0.8994 -0.4710  0.6491
    5CHL1   H25  362   1.445   5.235   6.034  0.3499  1.2094  3.2634
    5CHL1   C26  363   1.234   5.291   6.012 -0.2922 -0.3310 -0.7370
    5CHL1  H26A  364   1.204   5.309   6.117  2.9550  2.6469 -0.1281
    5CHL1  H26B  365   1.188   5.369   5.948  0.7770 -0.5471 -1.8142
    5CHL1  H26C  366   1.200   5.189   5.982  1.8131 -1.4413  0.3778
    5CHL1   C27  367   1.430   5.358   5.855  0.0867  0.0988 -0.0142
    5CHL1  H27A  368   1.466   5.262   5.814  2.0530 -0.2226  2.2171
    5CHL1  H27B  369   1.345   5.404   5.800 -0.6161 -1.8223 -0.5947
    5CHL1  H27C  370   1.522   5.420   5.850  1.7826 -1.9041  3.1309
    6CHL1    C3  371   0.809   1.758   7.984 -0.1496 -0.3135 -0.1831
    6CHL1    H3  372   0.735   1.675   7.978  0.2853 -0.6160 -2.0942
    6CHL1    O3  373   0.850   1.760   8.116 -0.2892  0.1795 -0.1487
    6CHL1   H3'  374   0.837   1.670   8.147 -0.3812  0.1641 -0.2301
    6CHL1    C4  375   0.938   1.742   7.896  0.1639  0.1894 -0.0157
    6CHL1   H4A  376   1.024   1.807   7.923  0.7286  0.5650 -2.4845
    6CHL1   H4B  377   0.977   1.640   7.917  2.6236  1.1612  0.5554
    6CHL1    C5  378   0.903   1.764   7.747 -0.3098 -0.1746 -0.8458
    6CHL1    C6  379   0.946   1.674   7.660  0.2048  0.3775  0.2263
    6CHL1    H6  380   0.987   1.577   7.691 -1.5963  0.1547  2.1845
    6CHL1    C7  381   0.936   1.694   7.509  0.5515  0.3205 -0.1111
    6CHL1   H7A  382   1.033   1.673   7.459  0.6958 -1.2763  0.7751
    6CHL1   H7B  383   0.866   1.617   7.472 -2.1309  2.4915  0.1405
    6CHL1    C8  384   0.883   1.839   7.470  0.7888  0.2732 -0.2999
    6CHL1    H8  385   0.965   1.912   7.476 -0.5452  1.7249  1.0667
    6CHL1   C14  386   0.838   1.842   7.319  0.0577 -0.0745  0.1145
    6CHL1   H14  387   0.747   1.778   7.322  0.2679 -0.5787 -2.5347
    6CHL1   C15  388   0.928   1.792   7.215 -0.4696 -0.3016  0.0151
    6CHL1  H15A  389   1.031   1.834   7.220 -1.2877  1.6807  1.3562
    6CHL1  H15B  390   0.923   1.681   7.215 -2.5569 -0.2617  1.5274
    6CHL1   C16  391   0.860   1.842   7.085 -0.5347 -0.2172 -0.2675
    6CHL1  H16A  392   0.934   1.864   7.004  0.6976 -0.8696  0.6371
    6CHL1  H16B  393   0.797   1.758   7.050 -0.0005 -0.4714 -0.6360
    6CHL1   C17  394   0.774   1.960   7.119  0.7343  0.3565 -0.9605
    6CHL1   H17  395   0.670   1.926   7.102  0.4570  1.7181 -2.1756
    6CHL1   C13  396   0.793   1.984   7.274 -0.0121 -0.2269  0.0721
    6CHL1   C18  397   0.921   2.078   7.282  0.5556 -0.5404  0.1033
    6CHL1  H18A  398   0.964   2.096   7.383 -0.2792 -1.8215  0.7267
    6CHL1  H18B  399   0.997   2.039   7.212  2.2852 -0.4199  1.8234
    6CHL1  H18C  400   0.889   2.182   7.260  0.8211  0.0259  2.1869
    6CHL1   C12  401   0.674   2.028   7.361 -0.5663  0.0462 -0.4508
    6CHL1  H12A  402   0.648   2.132   7.335  0.4864  0.7236  1.0339
    6CHL1  H12B  403   0.587   1.960   7.348 -0.8990  0.2700  0.5188
    6CHL1   C11  404   0.719   2.023   7.515 -0.8589 -0.8290 -0.6532
    6CHL1  H11A  405   0.797   2.102   7.523 -0.2859 -1.5434  1.4678
    6CHL1  H11B  406   0.632   2.056   7.575  1.1692  1.3167  1.3466
    6CHL1    C9  407   0.779   1.892   7.569  0.5086 -0.6500  0.1388
    6CHL1    H9  408   0.690   1.825   7.574 -0.1597  0.2207  0.1934
    6CHL1   C10  409   0.834   1.904   7.713  0.4895  0.4130  0.7006
    6CHL1   C19  410   0.930   2.020   7.728  0.8460  0.1959 -0.5695
    6CHL1  H19A  411   0.993   2.016   7.819  1.0597 -2.6430 -0.7328
    6CHL1  H19B  412   0.990   2.029   7.634 -1.8688 -1.5696 -2.6279
    6CHL1  H19C  413   0.868   2.110   7.743  0.2104 -0.3583  0.1530
    6CHL1    C1  414   0.715   1.922   7.810 -0.1151  0.2019  0.2693
    6CHL1   H1A  415   0.658   2.017   7.797 -0.0627  0.4158  1.4917
    6CHL1   H1B  416   0.640   1.845   7.778  0.9583 -0.1696 -1.5384
    6CHL1    C2  417   0.754   1.896   7.958 -0.0611 -0.1269  0.2284
    6CHL1   H2A  418   0.660   1.894   8.018 -2.2956 -1.4437 -3.0170
    6CHL1   H2B  419   0.824   1.974   7.994  1.1152 -0.7692 -0.6173
    6CHL1   C20  420   0.780   2.083   7.022 -0.5641  0.0747  0.0791
    6CHL1   H20  421   0.870   2.143   7.044 -1.2830  0.6709  1.4818
    6CHL1   C21  422   0.667   2.190   7.039 -1.3098 -0.6271  0.0445
    6CHL1  H21A  423   0.678   2.232   7.141 -0.2681 -1.2412  0.1999
    6CHL1  H21B  424   0.572   2.142   7.008  0.7967 -3.6308 -2.3702
    6CHL1  H21C  425   0.690   2.285   6.988 -1.4679  0.0358  1.1667
    6CHL1   C22  426   0.796   2.045   6.871 -0.4166  0.5189 -0.1786
    6CHL1  H22A  427   0.885   1.979   6.860 -0.4655  0.0037  1.9804
    6CHL1  H22B  428   0.719   1.971   6.839  0.6241 -1.7593  2.2219
    6CHL1   C23  429   0.788   2.162   6.771  0.1429  0.5575 -0.1265
    6CHL1  H23A  430   0.685   2.199   6.787 -0.2793 -0.1953 -0.9844
    6CHL1  H23B  431   0.863   2.236   6.806 -1.3672  0.7585  3.0454
    6CHL1   C24  432   0.808   2.110   6.626  0.0593 -0.1053 -0.6605
    6CHL1  H24A  433   0.918   2.102   6.610 -0.2459 -3.6757 -1.7763
    6CHL1  H24B  434   0.775   2.004   6.621 -1.2504  0.3128 -1.4758
    6CHL1   C25  435   0.749   2.206   6.513 -0.4474 -0.5508 -0.2230
    6CHL1   H25  436   0.803   2.302   6.513 -4.0106  1.6263 -0.1878
    6CHL1   C26  437   0.772   2.136   6.382  0.4607  0.1702  0.0067
    6CHL1  H26A  438   0.735   2.192   6.294 -0.2259 -2.4833 -1.4885
    6CHL1  H26B  439   0.878   2.133   6.351  0.5934  2.2323  0.1291
    6CHL1  H26C  440   0.728   2.034   6.378  1.4310 -0.3263  1.3654
    6CHL1   C27  441   0.601   2.239   6.526 -0.1377 -0.3633  0.1837
    6CHL1  H27A  442   0.530   2.156   6.509 -1.1033  0.7061 -1.2139
    6CHL1  H27B  443   0.577   2.295   6.619  1.7406 -0.3886  0.7390
    6CHL1  H27C  444   0.565   2.311   6.450 -2.6577 -1.6560  0.0594
    7CHL1    C3  445   1.312   1.782   7.792 -0.3651  0.2292 -0.0196
    7CHL1    H3  446   1.221   1.723   7.769  1.3616 -1.9709 -1.6309
    7CHL1    O3  447   1.344   1.784   7.928  0.2588  0.1904  0.0322
    7CHL1   H3'  448   1.359   1.876   7.948 -0.6944  0.4495 -0.3980
    7CHL1    C4  449   1.421   1.726   7.707  0.0678  0.7741 -0.1768
    7CHL1   H4A  450   1.514   1.778   7.737  0.7147 -0.3064 -0.2397
    7CHL1   H4B  451   1.442   1.622   7.739 -0.1872  0.8845  0.3707
    7CHL1    C5  452   1.414   1.730   7.560  0.3132  0.1813 -0.2902
    7CHL1    C6  453   1.434   1.625   7.478 -0.4027  0.0956  0.1355
    7CHL1    H6  454   1.452   1.521   7.510 -0.1390 -0.4932 -1.8045
    7CHL1    C7  455   1.441   1.631   7.326 -0.2735 -0.2778 -0.1620
    7CHL1   H7A  456   1.530   1.578   7.285 -0.2771  0.3334 -0.9861
    7CHL1   H7B  457   1.348   1.583   7.288 -0.4658  0.1594 -0.2487
    7CHL1    C8  458   1.441   1.781   7.270  0.3393 -0.1697 -0.2300
    7CHL1    H8  459   1.545   1.812   7.295  0.1300 -1.2456  2.1987
    7CHL1   C14  460   1.405   1.773   7.118  0.1360  0.4206  0.3352
    7CHL1   H14  461   1.304   1.726   7.120 -0.5734  1.8848  1.6427
    7CHL1   C15  462   1.507   1.707   7.019  0.1064  0.8837  1.0740
    7CHL1  H15A  463   1.605   1.737   7.061 -0.2386  0.8044  1.9758
    7CHL1  H15B  464   1.508   1.596   7.028 -1.2850  0.8399  0.9352
    7CHL1   C16  465   1.461   1.756   6.886  0.3435 -0.0018  0.1507
    7CHL1  H16A  466   1.546   1.790   6.823 -0.1833 -3.3712 -2.6941
    7CHL1  H16B  467   1.411   1.675   6.829 -2.0189  2.4445 -1.4298
    7CHL1   C17  468   1.353   1.864   6.916 -0.0487 -0.0209  0.4200
    7CHL1   H17  469   1.261   1.802   6.910 -1.1803  1.4217  1.9523
    7CHL1   C13  470   1.386   1.910   7.055 -0.3990 -0.2119 -0.2351
    7CHL1   C18  471   1.520   1.990   7.057 -0.3086 -0.9503 -0.1491
    7CHL1  H18A  472   1.584   1.953   6.974  0.1487  0.7923 -0.6033
    7CHL1  H18B  473   1.494   2.096   7.039 -0.6481 -0.7414  1.4046
    7CHL1  H18C  474   1.580   1.993   7.151  0.9373  1.9067 -0.9532
    7CHL1   C12  475   1.280   1.990   7.129  0.3498 -0.3800 -0.5101
    7CHL1  H12A  476   1.274   2.099   7.111  0.9592 -0.0328  1.2015
    7CHL1  H12B  477   1.174   1.958   7.119  0.0673  0.4579 -0.2937
    7CHL1   C11  478   1.318   1.998   7.283  0.0090 -0.3142  0.8124
    7CHL1  H11A  479   1.405   2.067   7.295 -0.3511  0.4727 -0.7443
    7CHL1  H11B  480   1.230   2.045   7.332 -0.9856 -2.2459  0.9589
    7CHL1    C9  481   1.346   1.865   7.351 -0.3247  0.3084 -0.1763
    7CHL1    H9  482   1.250   1.809   7.352 -1.4877  2.2353  0.1877
    7CHL1   C10  483   1.388   1.872   7.501  0.0196  0.2631 -0.1622
    7CHL1   C19  484   1.514   1.961   7.514 -0.2895  0.0628  0.0822
    7CHL1  H19A  485   1.529   1.989   7.621  0.6142 -1.5411  0.4110
    7CHL1  H19B  486   1.603   1.910   7.472  0.4841  0.2455  1.4471
    7CHL1  H19C  487   1.503   2.063   7.473 -1.4254  0.6994  1.8451
    7CHL1    C1  488   1.275   1.933   7.589  0.7411  0.0304  1.0231
    7CHL1   H1A  489   1.278   2.042   7.565  0.2317  0.1433  1.4362
    7CHL1   H1B  490   1.184   1.877   7.559  1.5712 -1.0579  0.4595
    7CHL1    C2  491   1.291   1.921   7.739 -0.4936  0.5059  0.0424
    7CHL1   H2A  492   1.200   1.955   7.792 -0.2117  1.5355 -0.1152
    7CHL1   H2B  493   1.374   1.988   7.770 -0.0258 -0.1051  0.1328
    7CHL1   C20  494   1.336   1.968   6.812 -0.5656  0.1671  0.3996
    7CHL1   H20  495   1.410   2.049   6.831  1.4190 -0.7239 -2.6806
    7CHL1   C21  496   1.188   2.017   6.822 -0.0728  0.4062 -0.2597
    7CHL1  H21A  497   1.169   2.095   6.745  2.5127  0.9892 -0.4241
    7CHL1  H21B  498   1.178   2.077   6.916  2.9936  1.0885 -0.2575
    7CHL1  H21C  499   1.109   1.939   6.822 -0.2163  0.5469  0.2033
    7CHL1   C22  500   1.365   1.923   6.667  0.1020 -0.5522  0.2199
    7CHL1  H22A  501   1.475   1.912   6.656  0.0686 -0.2730 -0.4595
    7CHL1  H22B  502   1.321   1.827   6.634 -0.9039 -0.0085 -0.0709
    7CHL1   C23  503   1.322   2.033   6.569 -0.1640  0.3445 -0.0927
    7CHL1  H23A  504   1.214   2.053   6.557  0.0596  1.4781 -0.2743
    7CHL1  H23B  505   1.378   2.123   6.602 -0.2288  0.5559 -0.5522
    7CHL1   C24  506   1.383   1.995   6.434  0.3247  0.0691  0.3601
    7CHL1  H24A  507   1.491   1.979   6.449  0.1061 -3.0265 -0.7201
    7CHL1  H24B  508   1.337   1.902   6.394  0.3399  0.6128 -0.9791
    7CHL1   C25  509   1.354   2.095   6.324  0.8331  0.0008  0.4176
    7CHL1   H25  510   1.386   2.198   6.351  0.2396 -0.0582  1.3892
    7CHL1   C26  511   1.412   2.063   6.184  0.1045 -0.1397 -0.1646
    7CHL1  H26A  512   1.523   2.072   6.186  0.2378 -1.7155  0.9962
    7CHL1  H26B  513   1.378   1.959   6.166  1.9285 -0.5867 -1.2743
    7CHL1  H26C  514   1.368   2.134   6.110 -0.0043 -0.1953 -0.1524
    7CHL1   C27  515   1.203   2.117   6.316 -0.0415 -0.0835  0.1141
    7CHL1  H27A  516   1.165   2.170   6.226 -0.4965  1.1849  1.0222
    7CHL1  H27B  517   1.145   2.023   6.308 -3.2023  1.7306  0.2741
    7CHL1  H27C  518   1.158   2.180   6.395  0.2267  1.2978 -0.7986
    8CHL1    C3  519   1.743   4.298   7.631 -0.0116 -0.1871  0.1769
    8CHL1    H3  520   1.639   4.260   7.639 -0.3037  0.8780  1.9493
    8CHL1    O3  521   1.792   4.314   7.765  0.4259 -0.1619 -0.8168
    8CHL1   H3'  522   1.882   4.280   7.776  0.9903  1.7002  1.0363
    8CHL1    C4  523   1.841   4.204   7.558  0.0273 -0.1068  0.0916
    8CHL1   H4A  524   1.941   4.250   7.562 -0.4545  1.0483 -0.5786
    8CHL1   H4B  525   1.856   4.105   7.607 -1.8250 -1.3627 -1.6984
    8CHL1    C5  526   1.798   4.197   7.415  0.2110 -0.3808 -0.3904
    8CHL1    C6  527   1.764   4.080   7.364  0.2871 -0.1172  0.0970
    8CHL1    H6  528   1.764   3.984   7.418  0.7572 -1.4703 -2.1631
    8CHL1    C7  529   1.709   4.066   7.228  0.3298 -0.1574 -0.7954
    8CHL1   H7A  530   1.731   3.966   7.183  1.0918 -1.2276  1.7963
    8CHL1   H7B  531   1.600   4.084   7.229  0.4505  0.5756 -0.1399
    8CHL1    C8  532   1.747   4.179   7.131 -0.7518  0.2012  0.2562
    8CHL1    H8  533   1.853   4.159   7.107 -0.7743 -0.3218  0.5780
    8CHL1   C14  534   1.674   4.172   6.998  0.0973  0.5880  0.1993
    8CHL1   H14  535   1.565   4.189   7.013 -0.1116  0.1578 -0.7468
    8CHL1   C15  536   1.675   4.040   6.916  0.0075  0.8202  0.6875
    8CHL1  H15A  537   1.775   3.997   6.939  1.7266  3.3087 -1.5175
    8CHL1  H15B  538   1.605   3.968   6.965  3.4831 -1.2480  3.1119
    8CHL1   C16  539   1.643   4.083   6.766 -0.1034  0.2647 -0.5026
    8CHL1  H16A  540   1.714   4.028   6.700  0.1699  0.6376 -0.5233
    8CHL1  H16B  541   1.545   4.034   6.751 -0.8658  1.7478 -0.5487
    8CHL1   C17  542   1.631   4.236   6.771  0.1504 -0.0324 -0.0723
    8CHL1   H17  543   1.528   4.257   6.807  0.3614 -0.4048  0.7715
    8CHL1   C13  544   1.715   4.277   6.893  0.2730  0.2315  0.3471
    8CHL1   C18  545   1.864   4.266   6.857 -0.2284  0.7291 -0.0235
    8CHL1  H18A  546   1.899   4.333   6.775  1.8550  0.0895  0.2947
    8CHL1  H18B  547   1.932   4.292   6.941 -2.2402  1.7879  1.3766
    8CHL1  H18C  548   1.876   4.159   6.830 -0.1870  0.9177 -0.7605
    8CHL1   C12  549   1.683   4.411   6.961  0.6589 -0.3855 -0.0767
    8CHL1  H12A  550   1.697   4.494   6.889  1.3555 -0.2847  0.1718
    8CHL1  H12B  551   1.574   4.413   6.982  0.6117  1.8860 -0.2433
    8CHL1   C11  552   1.768   4.432   7.092 -0.0117  0.4034 -0.0409
    8CHL1  H11A  553   1.875   4.425   7.065  0.2345  2.4053  0.3004
    8CHL1  H11B  554   1.757   4.534   7.136  0.7141  0.3863  0.1908
    8CHL1    C9  555   1.735   4.318   7.196 -0.5796  0.1577 -0.3109
    8CHL1    H9  556   1.625   4.317   7.212 -0.4307  0.2758  0.8325
    8CHL1   C10  557   1.798   4.326   7.334 -0.2265  0.5983 -0.0174
    8CHL1   C19  558   1.944   4.379   7.327 -0.0697  0.1704  0.3221
    8CHL1  H19A  559   2.007   4.331   7.249  2.0105  1.2785  1.2290
    8CHL1  H19B  560   1.956   4.487   7.302  0.6776  0.6388  2.4920
    8CHL1  H19C  561   2.003   4.385   7.421  0.1793  0.7338  0.1399
    8CHL1    C1  562   1.713   4.430   7.413 -0.6000 -0.3461  0.6784
    8CHL1   H1A  563   1.735   4.531   7.373 -0.7582  0.4292  2.4197
    8CHL1   H1B  564   1.606   4.406   7.397 -0.8454  0.8503  0.4283
    8CHL1    C2  565   1.748   4.433   7.563  0.2474 -0.0826  0.2909
    8CHL1   H2A  566   1.679   4.506   7.611  0.5506  0.6872 -0.4193
    8CHL1   H2B  567   1.852   4.469   7.577  0.6034 -0.7200 -0.6745
    8CHL1   C20  568   1.668   4.309   6.645 -0.5137 -0.5815 -0.4155
    8CHL1   H20  569   1.715   4.407   6.667 -0.5336 -0.2828 -1.5964
    8CHL1   C21  570   1.534   4.336   6.572 -0.1960  0.0959 -0.0927
    8CHL1  H21A  571   1.469   4.405   6.629  1.2865  0.2311  1.5213
    8CHL1  H21B  572   1.485   4.239   6.548  1.5169 -0.6628 -0.6898
    8CHL1  H21C  573   1.561   4.378   6.473  0.6644  0.7045  0.3892
    8CHL1   C22  574   1.760   4.223   6.547  0.1474 -0.4398  0.0859
    8CHL1  H22A  575   1.845   4.180   6.603 -1.7502 -1.5722  2.2598
    8CHL1  H22B  576   1.702   4.137   6.508  1.3342 -0.1884 -2.4863
    8CHL1   C23  577   1.817   4.310   6.437  0.6396 -0.7068  0.3020
    8CHL1  H23A  578   1.807   4.418   6.460  0.9012 -0.7087  0.4273
    8CHL1  H23B  579   1.927   4.297   6.427  1.0250  1.7047  0.9634
    8CHL1   C24  580   1.766   4.279   6.299  0.7392  0.1213 -0.2344
    8CHL1  H24A  581   1.795   4.174   6.275  1.1500  0.1868 -0.0337
    8CHL1  H24B  582   1.656   4.283   6.315  0.5602  1.5522 -1.6031
    8CHL1   C25  583   1.806   4.371   6.181 -0.0970  0.5496 -0.0927
    8CHL1   H25  584   1.917   4.372   6.170 -0.1784  0.7130 -1.0379
    8CHL1   C26  585   1.755   4.301   6.056 -0.5732  0.1145 -0.5509
    8CHL1  H26A  586   1.786   4.350   5.961 -2.7042  1.4138 -0.6353
    8CHL1  H26B  587   1.792   4.196   6.051  1.7480  0.6006  2.8277
    8CHL1  H26C  588   1.644   4.302   6.068 -0.3666  2.0221  1.9162
    8CHL1   C27  589   1.747   4.511   6.194 -0.2493 -0.0530 -0.2120
    8CHL1  H27A  590   1.638   4.510   6.175 -0.2562 -0.1940 -0.1703
    8CHL1  H27B  591   1.752   4.548   6.298  0.3795  1.3690 -0.7283
    8CHL1  H27C  592   1.803   4.577   6.125  1.5561  0.1002  1.3261
    9CHL1    C3  593   3.286   3.096   7.570  0.2027  0.6666 -0.4914
    9CHL1    H3  594   3.188   3.049   7.546  2.1146 -2.8692 -2.0169
    9CHL1    O3  595   3.325   3.036   7.697  0.3731 -0.3684  0.4724
    9CHL1   H3'  596   3.411   3.079   7.704 -0.5791  2.4843 -2.5943
    9CHL1    C4  597   3.379   3.057   7.456 -0.9803  0.1069 -0.0025
    9CHL1   H4A  598   3.478   3.098   7.486 -1.5276  1.4353  0.0556
    9CHL1   H4B  599   3.385   2.946   7.456 -0.3776  0.1338  0.4193
    9CHL1    C5  600   3.337   3.112   7.323  0.0747  0.1431 -0.2489
    9CHL1    C6  601   3.316   3.038   7.215 -0.2344  0.0663  0.5459
    9CHL1    H6  602   3.342   2.931   7.220  1.4570  0.4587  0.6498
    9CHL1    C7  603   3.287   3.080   7.073 -0.0872  0.4857  0.2060
    9CHL1   H7A  604   3.340   3.031   6.989 -0.9947 -1.1944  0.5650
    9CHL1   H7B  605   3.180   3.055   7.061 -0.1126  0.8165 -0.3005
    9CHL1    C8  606   3.310   3.227   7.056 -0.2817 -0.6510 -0.1433
    9CHL1    H8  607   3.419   3.232   7.033 -0.3821 -0.2250 -0.5481
    9CHL1   C14  608   3.246   3.286   6.928 -0.5146 -1.2200 -0.2852
    9CHL1   H14  609   3.138   3.278   6.951 -0.6093  1.0871  0.3964
    9CHL1   C15  610   3.285   3.217   6.791  0.3580 -0.2470  0.6695
    9CHL1  H15A  611   3.394   3.193   6.785  0.5101  0.5973 -0.5841
    9CHL1  H15B  612   3.222   3.126   6.792  0.8680 -0.5976  1.3071
    9CHL1   C16  613   3.248   3.316   6.688 -0.4498 -0.9995 -0.9122
    9CHL1  H16A  614   3.341   3.349   6.638  1.1450 -0.8420  1.9456
    9CHL1  H16B  615   3.170   3.274   6.621  0.0649 -1.0980 -1.4533
    9CHL1   C17  616   3.201   3.449   6.769 -0.4359  0.1401 -0.2067
    9CHL1   H17  617   3.091   3.432   6.780 -0.4921  0.9685  0.6797
    9CHL1   C13  618   3.268   3.438   6.909  0.4169  0.0096  0.2635
    9CHL1   C18  619   3.414   3.472   6.883  0.0957 -0.1919  0.0696
    9CHL1  H18A  620   3.482   3.442   6.966  2.7315  0.9656 -1.5460
    9CHL1  H18B  621   3.454   3.425   6.790 -0.9867 -0.6641 -0.1719
    9CHL1  H18C  622   3.418   3.583   6.881 -0.2324 -0.1473  1.1118
    9CHL1   C12  623   3.221   3.513   7.033  0.5628 -0.2654  0.3456
    9CHL1  H12A  624   3.232   3.622   7.014 -2.1089 -0.3758 -2.6814
    9CHL1  H12B  625   3.115   3.485   7.047  0.9276 -1.7855  0.2392
    9CHL1   C11  626   3.280   3.468   7.163 -1.0971 -0.2578  0.6597
    9CHL1  H11A  627   3.389   3.490   7.164 -0.6999 -1.9884 -0.6795
    9CHL1  H11B  628   3.234   3.528   7.244 -2.2824  0.5421 -0.5702
    9CHL1    C9  629   3.266   3.305   7.181 -0.0919  0.4782 -0.7620
    9CHL1    H9  630   3.158   3.280   7.191  0.0915  0.0835  0.2696
    9CHL1   C10  631   3.311   3.260   7.324  0.1659  0.5439 -0.3673
    9CHL1   C19  632   3.455   3.319   7.336 -0.9876  0.1961  0.0936
    9CHL1  H19A  633   3.445   3.424   7.371 -2.1424  0.1599 -0.0882
    9CHL1  H19B  634   3.525   3.279   7.412  0.3375  0.4782 -0.9440
    9CHL1  H19C  635   3.514   3.304   7.243 -0.1751 -2.9417  1.0060
    9CHL1    C1  636   3.226   3.310   7.449  0.3821  0.3972  0.1476
    9CHL1   H1A  637   3.230   3.421   7.448  1.5403  0.3703 -0.0059
    9CHL1   H1B  638   3.124   3.272   7.430  0.7544  0.0713 -1.3589
    9CHL1    C2  639   3.273   3.250   7.578  0.1911  0.5074  0.3962
    9CHL1   H2A  640   3.200   3.276   7.658 -2.5266 -2.5374 -0.8793
    9CHL1   H2B  641   3.371   3.294   7.607  1.3784 -1.8101  0.1436
    9CHL1   C20  642   3.211   3.585   6.692  0.0149 -0.2044 -0.1289
    9CHL1   H20  643   3.320   3.608   6.689 -0.2041  0.9079  0.2266
    9CHL1   C21  644   3.144   3.710   6.773 -0.4678 -0.1106 -0.3011
    9CHL1  H21A  645   3.040   3.681   6.802 -0.1028  0.8117  2.1668
    9CHL1  H21B  646   3.148   3.798   6.704  2.0641  1.0147  1.1584
    9CHL1  H21C  647   3.210   3.732   6.859 -0.2016  2.2382 -1.0242
    9CHL1   C22  648   3.174   3.579   6.543  0.3693  0.2969  0.3367
    9CHL1  H22A  649   3.204   3.673   6.492 -2.1288  1.1304  0.2417
    9CHL1  H22B  650   3.226   3.490   6.501  0.5167  0.3714  0.3641
    9CHL1   C23  651   3.024   3.564   6.515  0.5009 -0.4394 -0.3288
    9CHL1  H23A  652   2.972   3.518   6.601 -2.1925  0.4061 -1.4033
    9CHL1  H23B  653   2.988   3.670   6.516  3.4870  0.7420 -2.3451
    9CHL1   C24  654   2.981   3.496   6.379 -0.2544 -0.2640  0.2049
    9CHL1  H24A  655   3.054   3.518   6.299 -0.1630 -4.9474 -1.2727
    9CHL1  H24B  656   2.997   3.387   6.391  0.8451 -0.3635 -1.8439
    9CHL1   C25  657   2.830   3.515   6.346 -0.7606  0.4118  0.5742
    9CHL1   H25  658   2.783   3.528   6.446 -0.8492  1.9088  0.3659
    9CHL1   C26  659   2.813   3.649   6.266 -0.1398 -0.0573 -0.3436
    9CHL1  H26A  660   2.848   3.737   6.324 -1.5490 -0.0278  0.4981
    9CHL1  H26B  661   2.884   3.631   6.183  0.9478 -2.3203  0.9714
    9CHL1  H26C  662   2.708   3.651   6.230  0.4913 -0.5787 -2.2809
    9CHL1   C27  663   2.770   3.395   6.258 -0.4524  0.0693 -0.0740
    9CHL1  H27A  664   2.822   3.387   6.160 -2.8686 -1.7357 -1.3199
    9CHL1  H27B  665   2.794   3.306   6.319  0.8727 -0.5619 -1.4505
    9CHL1  H27C  666   2.659   3.395   6.247 -0.6560 -1.3241  1.6342
   10CHL1    C3  667   2.320   4.315   7.665 -0.0933  0.9819  0.3339
   10CHL1    H3  668   2.214   4.344   7.683 -0.3975  0.1927 -0.1502
   10CHL1    O3  669   2.385   4.309   7.788 -0.1559 -0.3909  0.1807
   10CHL1   H3'  670   2.323   4.277   7.854 -0.9019  1.6931  0.5429
   10CHL1    C4  671   2.336   4.178   7.596 -0.3000  0.0481  0.9038
   10CHL1   H4A  672   2.442   4.151   7.611 -0.5101 -0.3057  1.8111
   10CHL1   H4B  673   2.291   4.097   7.656  0.3744 -1.5200 -0.6383
   10CHL1    C5  674   2.294   4.175   7.450 -0.0973  0.0586  0.3633
   10CHL1    C6  675   2.201   4.093   7.405  0.1269  0.2243  0.1958
   10CHL1    H6  676   2.155   4.020   7.473  0.9813 -0.4283  0.0821
   10CHL1    C7  677   2.163   4.079   7.256  0.5070  0.5976 -0.9706
   10CHL1   H7A  678   2.153   3.975   7.218  0.5521  1.0500 -2.2823
   10CHL1   H7B  679   2.069   4.136   7.243  2.6887  4.4633 -1.3885
   10CHL1    C8  680   2.279   4.143   7.171  0.3294 -0.0834  0.3700
   10CHL1    H8  681   2.369   4.079   7.181 -0.5294 -1.2793  0.7102
   10CHL1   C14  682   2.227   4.148   7.028  0.3791 -0.4537 -0.3787
   10CHL1   H14  683   2.135   4.209   7.023  0.1561 -0.8930 -2.2653
   10CHL1   C15  684   2.182   4.007   6.969  1.1946 -0.3684 -0.1491
   10CHL1  H15A  685   2.259   3.929   6.988 -1.2717 -3.0666 -0.6050
   10CHL1  H15B  686   2.098   3.969   7.031  0.6894  2.5011  1.1023
   10CHL1   C16  687   2.159   4.044   6.816  0.3790 -0.3449 -0.2003
   10CHL1  H16A  688   2.208   3.971   6.748  1.8960  1.3621 -0.9968
   10CHL1  H16B  689   2.053   4.036   6.784  0.5627 -0.6402 -0.7422
   10CHL1   C17  690   2.229   4.185   6.794 -0.0756  0.2725  0.0425
   10CHL1   H17  691   2.149   4.261   6.785  0.3749  0.7363 -0.1132
   10CHL1   C13  692   2.311   4.220   6.924 -0.4987  0.1667  0.7678
   10CHL1   C18  693   2.452   4.147   6.921  0.3355 -0.0723 -0.3883
   10CHL1  H18A  694   2.433   4.042   6.891  0.3197  0.3305 -1.8748
   10CHL1  H18B  695   2.524   4.199   6.854  0.4797  2.0938  1.3288
   10CHL1  H18C  696   2.500   4.151   7.021 -2.6211 -0.4503  1.1762
   10CHL1   C12  697   2.327   4.360   6.973  0.4974  0.0660  0.0946
   10CHL1  H12A  698   2.383   4.423   6.901  1.6545  1.0807  1.8091
   10CHL1  H12B  699   2.225   4.403   6.976  0.1305 -0.4703 -2.5789
   10CHL1   C11  700   2.385   4.369   7.110  0.3922 -0.0366 -0.3080
   10CHL1  H11A  701   2.490   4.332   7.108  0.5586  0.3947 -2.7672
   10CHL1  H11B  702   2.386   4.471   7.154 -1.0135 -0.6737  1.3119
   10CHL1    C9  703   2.314   4.281   7.219 -0.5115 -0.0788  0.0841
   10CHL1    H9  704   2.217   4.334   7.224  0.0028  1.3367 -2.8299
   10CHL1   C10  705   2.370   4.281   7.363  0.4901 -0.8583  0.1391
   10CHL1   C19  706   2.520   4.236   7.369  0.5054 -0.3168 -0.3490
   10CHL1  H19A  707   2.528   4.135   7.323  0.4884 -1.1868  1.4748
   10CHL1  H19B  708   2.589   4.305   7.317 -1.0147  0.7995 -0.9496
   10CHL1  H19C  709   2.551   4.213   7.473  0.3123 -1.8053 -0.5896
   10CHL1    C1  710   2.346   4.422   7.439  0.1796 -1.0007 -0.2157
   10CHL1   H1A  711   2.404   4.499   7.383  0.5481 -0.4665  0.8731
   10CHL1   H1B  712   2.241   4.457   7.437 -0.0431 -1.0485  3.6943
   10CHL1    C2  713   2.388   4.419   7.587  0.1379  0.4222  0.0734
   10CHL1   H2A  714   2.371   4.514   7.641 -0.0138  0.1804  0.4564
   10CHL1   H2B  715   2.498   4.403   7.576  0.0971 -0.8848  1.2882
   10CHL1   C20  716   2.295   4.204   6.653 -0.0021  0.6069 -0.9332
   10CHL1   H20  717   2.365   4.119   6.643 -1.8759 -1.2733  0.8449
   10CHL1   C21  718   2.389   4.328   6.643 -0.1785  0.1611  0.3479
   10CHL1  H21A  719   2.336   4.425   6.653 -1.3153 -0.3067 -0.8987
   10CHL1  H21B  720   2.435   4.324   6.542 -0.6126 -3.2734  0.1995
   10CHL1  H21C  721   2.476   4.319   6.712  1.2729  0.6798 -1.3468
   10CHL1   C22  722   2.195   4.205   6.539 -0.1910 -0.2258 -0.1141
   10CHL1  H22A  723   2.125   4.119   6.542  0.6426 -0.9795  4.2275
   10CHL1  H22B  724   2.140   4.301   6.546  1.7318  0.9255 -0.1180
   10CHL1   C23  725   2.258   4.203   6.401  0.0982 -0.0227 -0.6350
   10CHL1  H23A  726   2.319   4.295   6.390 -0.2132  0.4848  1.4739
   10CHL1  H23B  727   2.325   4.115   6.410  2.7887  2.1308  4.0582
   10CHL1   C24  728   2.149   4.196   6.290 -0.1417 -0.5394  0.2735
   10CHL1  H24A  729   2.071   4.128   6.330 -0.7355 -0.8008 -1.2587
   10CHL1  H24B  730   2.109   4.299   6.281 -0.2840 -0.4122  1.9646
   10CHL1   C25  731   2.191   4.136   6.160 -0.1545  0.5196 -0.4161
   10CHL1   H25  732   2.242   4.039   6.179  0.2704  0.3045 -2.4114
   10CHL1   C26  733   2.079   4.101   6.061  1.1406  0.9072  0.0787
   10CHL1  H26A  734   2.113   4.050   5.968 -2.2811  1.3638 -1.5720
   10CHL1  H26B  735   2.029   4.022   6.121  1.4519  1.9470  1.7537
   10CHL1  H26C  736   2.006   4.177   6.028 -1.5554 -2.4904 -2.5875
   10CHL1   C27  737   2.298   4.218   6.092  0.5210  0.0981 -0.3724
   10CHL1  H27A  738   2.377   4.250   6.163 -1.2531  3.2481  0.3886
   10CHL1  H27B  739   2.347   4.157   6.014  0.3168 -0.7400  0.1476
   10CHL1  H27C  740   2.251   4.310   6.050 -0.0055 -0.0568 -0.1321
   11CHL1    C3  741   1.119   3.159   7.781  0.1779 -0.6115  0.6591
   11CHL1    H3  742   1.039   3.084   7.764  1.1462 -1.8082  1.2293
   11CHL1    O3  743   1.150   3.155   7.921  0.1329 -0.5261  0.6205
   11CHL1   H3'  744   1.062   3.153   7.959  0.6631 -1.9371  1.8988
   11CHL1    C4  745   1.248   3.142   7.698  0.1261  0.0328  0.2322
   11CHL1   H4A  746   1.313   3.227   7.725 -1.8393  1.4736  0.6416
   11CHL1   H4B  747   1.299   3.050   7.734  1.9120  1.5701  1.8329
   11CHL1    C5  748   1.212   3.141   7.549  0.0839 -0.1208 -0.1515
   11CHL1    C6  749   1.238   3.033   7.471  0.0241 -0.0458  0.4018
   11CHL1    H6  750   1.285   2.944   7.515  1.8687  0.0443 -1.2344
   11CHL1    C7  751   1.216   3.031   7.322 -0.1980 -0.3969  0.7271
   11CHL1   H7A  752   1.290   2.971   7.265  1.0981  0.9832  0.8957
   11CHL1   H7B  753   1.121   2.977   7.302 -0.8207  0.5799  1.0007
   11CHL1    C8  754   1.193   3.169   7.261  0.1091 -0.9645  0.4087
   11CHL1    H8  755   1.290   3.224   7.259 -0.9963  1.1112 -1.5285
   11CHL1   C14  756   1.142   3.162   7.109  0.0542  0.1752 -0.6601
   11CHL1   H14  757   1.038   3.123   7.118  0.5775 -0.7778  2.7064
   11CHL1   C15  758   1.214   3.075   7.009 -0.2751  0.1604  0.8421
   11CHL1  H15A  759   1.325   3.074   7.016 -0.1547  0.3453 -0.6927
   11CHL1  H15B  760   1.175   2.971   7.017  2.4702 -0.8273  3.3046
   11CHL1   C16  761   1.174   3.133   6.869 -0.3245 -0.6770  0.2095
   11CHL1  H16A  762   1.264   3.170   6.815  0.6591 -0.7669  1.7532
   11CHL1  H16B  763   1.118   3.061   6.806 -0.8610 -0.6781  0.6804
   11CHL1   C17  764   1.092   3.264   6.897  0.1920  0.5321  0.1400
   11CHL1   H17  765   0.989   3.223   6.903  0.7593 -0.7707  1.8366
   11CHL1   C13  766   1.134   3.300   7.042  0.3148 -0.1679 -0.6006
   11CHL1   C18  767   1.274   3.368   7.039 -0.0156 -0.7240  0.4372
   11CHL1  H18A  768   1.304   3.405   7.139  0.1492  0.0150  0.1186
   11CHL1  H18B  769   1.348   3.302   6.987 -2.8767 -2.0605 -2.3227
   11CHL1  H18C  770   1.281   3.461   6.979  1.5452 -0.2258  1.3455
   11CHL1   C12  771   1.041   3.384   7.134  0.7538 -0.5520  0.1054
   11CHL1  H12A  772   1.014   3.484   7.093 -0.0657 -0.5113  0.7358
   11CHL1  H12B  773   0.947   3.325   7.132  0.1623  0.2603  1.9707
   11CHL1   C11  774   1.082   3.396   7.281  0.4959  0.9562  0.2900
   11CHL1  H11A  775   1.178   3.451   7.282  1.5623 -0.6756  3.6873
   11CHL1  H11B  776   1.022   3.462   7.347  0.3859 -0.4119  1.6372
   11CHL1    C9  777   1.107   3.257   7.348  0.2348 -0.4871  1.1425
   11CHL1    H9  778   1.012   3.199   7.350  1.4516 -2.7993 -1.3580
   11CHL1   C10  779   1.159   3.273   7.496 -0.4349 -0.5211  0.3802
   11CHL1   C19  780   1.266   3.384   7.511  0.2095  0.0119  0.0150
   11CHL1  H19A  781   1.215   3.482   7.496  0.4289 -0.2073 -2.6240
   11CHL1  H19B  782   1.312   3.374   7.611 -1.8633 -0.2220  0.9955
   11CHL1  H19C  783   1.338   3.369   7.427 -1.2078  1.1797 -1.4945
   11CHL1    C1  784   1.038   3.317   7.590  0.0242 -0.0957 -0.3307
   11CHL1   H1A  785   1.011   3.425   7.591 -0.8118 -0.3043  0.2444
   11CHL1   H1B  786   0.949   3.257   7.563 -0.0413 -0.3780  0.4792
   11CHL1    C2  787   1.065   3.296   7.743  0.0564 -0.2680  0.5173
   11CHL1   H2A  788   0.969   3.320   7.793  0.6706  1.8446  0.7528
   11CHL1   H2B  789   1.138   3.375   7.771 -0.7949  0.4942  0.6246
   11CHL1   C20  790   1.101   3.365   6.786 -0.0358 -0.6956  0.3712
   11CHL1   H20  791   1.207   3.384   6.757 -0.3244 -1.7149 -1.5176
   11CHL1   C21  792   1.019   3.493   6.831 -0.7989  0.1766 -0.3483
   11CHL1  H21A  793   1.071   3.539   6.918 -0.8096  0.2252 -0.3674
   11CHL1  H21B  794   0.916   3.466   6.863  0.1833 -0.7703  2.3030
   11CHL1  H21C  795   1.022   3.578   6.760  0.1843  1.1780  0.8410
   11CHL1   C22  796   1.039   3.312   6.653 -0.2694  0.3024  0.5144
   11CHL1  H22A  797   1.108   3.234   6.615 -0.6462  0.8713 -1.4272
   11CHL1  H22B  798   0.948   3.250   6.667 -1.2688  1.2232 -1.4640
   11CHL1   C23  799   1.005   3.406   6.538 -0.4876  0.1319  0.0248
   11CHL1  H23A  800   0.944   3.345   6.469 -0.4732 -1.5414  1.4038
   11CHL1  H23B  801   0.939   3.488   6.572 -0.1423  0.2711  0.3785
   11CHL1   C24  802   1.122   3.475   6.467 -0.6643  1.0433  0.4797
   11CHL1  H24A  803   1.148   3.566   6.524  0.0056  1.2596 -0.1579
   11CHL1  H24B  804   1.212   3.409   6.471  0.2668  2.3296  1.6474
   11CHL1   C25  805   1.102   3.511   6.317  0.2969 -0.8693  0.1325
   11CHL1   H25  806   1.081   3.410   6.275  1.9635 -1.8407  1.5188
   11CHL1   C26  807   0.982   3.603   6.306 -0.1703 -0.6885  0.7069
   11CHL1  H26A  808   0.994   3.689   6.376 -0.1438  1.5191 -1.8544
   11CHL1  H26B  809   0.971   3.647   6.204 -2.3258 -2.7119 -0.0317
   11CHL1  H26C  810   0.886   3.550   6.328 -1.3747  1.0877  0.0022
   11CHL1   C27  811   1.231   3.558   6.258  0.0359  0.7631 -0.2949
   11CHL1  H27A  812   1.224   3.585   6.151 -0.6120 -1.3051 -0.8331
   11CHL1  H27B  813   1.256   3.641   6.328  0.6890 -0.4867  1.0085
   11CHL1  H27C  814   1.316   3.487   6.263 -0.2364  0.3518 -1.2822
   12CHL1    C3  815   6.529   0.657   7.865  0.3708 -0.4366  0.7601
   12CHL1    H3  816   6.585   0.751   7.886  0.7785 -0.5829  0.3410
   12CHL1    O3  817   6.502   0.594   7.989  0.3718  0.3664 -0.2230
   12CHL1   H3'  818   6.457   0.517   7.953  1.1905  0.3978 -1.3629
   12CHL1    C4  819   6.397   0.695   7.794  0.6808 -0.8342 -0.0923
   12CHL1   H4A  820   6.319   0.619   7.815 -0.2979 -0.3619 -1.7972
   12CHL1   H4B  821   6.365   0.778   7.860  2.8228 -1.2471  1.5912
   12CHL1    C5  822   6.413   0.735   7.650  0.1050  1.0154  0.4917
   12CHL1    C6  823   6.361   0.849   7.600 -0.3053 -0.7418 -0.6217
   12CHL1    H6  824   6.302   0.912   7.668  1.2679 -0.7758  0.8374
   12CHL1    C7  825   6.365   0.879   7.452  0.5898  0.3952  0.6016
   12CHL1   H7A  826   6.274   0.933   7.419  1.8426  2.3219  0.1349
   12CHL1   H7B  827   6.451   0.943   7.425  0.9971 -1.0250 -1.6713
   12CHL1    C8  828   6.388   0.758   7.360 -0.3275  0.2734  0.1397
   12CHL1    H8  829   6.307   0.682   7.360  1.5042 -1.9900 -3.7809
   12CHL1   C14  830   6.411   0.811   7.219  0.3477  0.3490  0.6478
   12CHL1   H14  831   6.510   0.857   7.238 -0.2719  1.2849  1.7301
   12CHL1   C15  832   6.318   0.909   7.149 -0.5214 -0.8324  0.7900
   12CHL1  H15A  833   6.210   0.886   7.163 -0.6976 -0.0807  0.7346
   12CHL1  H15B  834   6.332   1.013   7.185 -3.3146  0.3362 -1.1356
   12CHL1   C16  835   6.358   0.891   6.997 -0.9228  0.2537 -0.5703
   12CHL1  H16A  836   6.266   0.869   6.937 -0.8137 -2.2111  0.0782
   12CHL1  H16B  837   6.414   0.971   6.944  1.5642 -2.7866 -2.9156
   12CHL1   C17  838   6.456   0.767   6.984 -0.4161  0.6226 -0.9879
   12CHL1   H17  839   6.558   0.807   6.967  0.2159 -1.3206 -2.1921
   12CHL1   C13  840   6.438   0.695   7.119 -0.6246 -0.6346  0.0199
   12CHL1   C18  841   6.307   0.609   7.112 -0.9989  0.0863 -0.1515
   12CHL1  H18A  842   6.219   0.678   7.110  0.1124  1.5902  0.6057
   12CHL1  H18B  843   6.306   0.554   7.016  0.7475 -0.5889  0.1909
   12CHL1  H18C  844   6.305   0.536   7.195  2.0210  0.3116  0.2348
   12CHL1   C12  845   6.566   0.620   7.164 -0.4758 -0.2060 -0.0874
   12CHL1  H12A  846   6.583   0.540   7.089 -3.3213  1.1783 -2.4285
   12CHL1  H12B  847   6.648   0.695   7.164  0.5123 -1.2580  0.2685
   12CHL1   C11  848   6.542   0.560   7.306  0.1178 -0.3022 -0.0736
   12CHL1  H11A  849   6.464   0.480   7.299 -1.4583  0.8781  2.5028
   12CHL1  H11B  850   6.631   0.513   7.353 -1.0766 -1.6282  0.9780
   12CHL1    C9  851   6.505   0.677   7.411  0.7036  0.2522  1.0061
   12CHL1    H9  852   6.588   0.752   7.414  0.4930  0.4909  0.8807
   12CHL1   C10  853   6.483   0.630   7.562 -0.1208  0.4281  0.0077
   12CHL1   C19  854   6.397   0.499   7.561  0.0356 -0.8650 -0.2832
   12CHL1  H19A  855   6.307   0.511   7.497  0.1216 -1.0573 -0.4438
   12CHL1  H19B  856   6.449   0.411   7.517 -0.0439 -2.1160  2.0079
   12CHL1  H19C  857   6.374   0.470   7.665  3.5544  2.4167  1.6464
   12CHL1    C1  858   6.625   0.603   7.619  0.0331  0.3748  0.8783
   12CHL1   H1A  859   6.677   0.528   7.557  1.6861  1.3721  0.9989
   12CHL1   H1B  860   6.687   0.694   7.603 -0.7423  0.6525 -0.8082
   12CHL1    C2  861   6.613   0.565   7.772  0.2973 -0.4822  0.0124
   12CHL1   H2A  862   6.715   0.571   7.815  1.1628 -0.0661 -2.0174
   12CHL1   H2B  863   6.585   0.459   7.788 -0.0529  0.0092  3.3929
   12CHL1   C20  864   6.424   0.702   6.843  0.3735  0.2037  0.1379
   12CHL1   H20  865   6.317   0.676   6.842  0.3288  0.3973 -0.5809
   12CHL1   C21  866   6.508   0.576   6.823 -0.2748 -0.2615 -0.2855
   12CHL1  H21A  867   6.515   0.519   6.728  5.4740 -3.1431  1.3675
   12CHL1  H21B  868   6.489   0.497   6.899  2.5924 -1.7706 -0.9759
   12CHL1  H21C  869   6.615   0.599   6.846 -0.1775 -1.0135  0.0361
   12CHL1   C22  870   6.453   0.802   6.726 -0.4552  0.9935 -0.3893
   12CHL1  H22A  871   6.408   0.902   6.742  0.7817  1.4832  0.0833
   12CHL1  H22B  872   6.563   0.817   6.725  0.1374 -2.4021  0.8493
   12CHL1   C23  873   6.404   0.751   6.593 -0.6022  0.5079 -0.3016
   12CHL1  H23A  874   6.440   0.650   6.565 -0.0747  0.9218 -1.1457
   12CHL1  H23B  875   6.295   0.731   6.597 -0.6019  0.4908 -0.3841
   12CHL1   C24  876   6.440   0.836   6.466  0.2288  0.2466  0.6730
   12CHL1  H24A  877   6.399   0.938   6.473 -1.9320 -0.6269  1.6176
   12CHL1  H24B  878   6.551   0.841   6.465  0.1837  1.9503 -1.2950
   12CHL1   C25  879   6.384   0.763   6.339  0.5519  0.0155 -0.5287
   12CHL1   H25  880   6.274   0.757   6.350  0.5128  0.5900 -0.6026
   12CHL1   C26  881   6.399   0.863   6.222 -0.5070 -0.1649 -0.1494
   12CHL1  H26A  882   6.504   0.894   6.207 -0.9308  0.9271 -1.0213
   12CHL1  H26B  883   6.371   0.803   6.133 -0.8137 -0.1088 -0.0934
   12CHL1  H26C  884   6.334   0.952   6.234  0.2390  0.4294 -0.4414
   12CHL1   C27  885   6.430   0.624   6.300  0.0074 -0.3637  0.2611
   12CHL1  H27A  886   6.405   0.553   6.381  0.1331 -1.3632 -0.5551
   12CHL1  H27B  887   6.371   0.598   6.209 -1.6448  2.6872  0.3192
   12CHL1  H27C  888   6.537   0.627   6.270 -0.7880 -1.7299 -3.3056
   13CHL1    C3  889   4.474   2.426   4.526 -0.4930  0.4499  0.4452
   13CHL1    H3  890   4.496   2.317   4.526 -0.0007  0.5432  0.8931
   13CHL1    O3  891   4.489   2.486   4.399  0.1129 -0.1835  0.0021
   13CHL1   H3'  892   4.435   2.565   4.395  1.4125  0.6968 -1.2450
   13CHL1    C4  893   4.339   2.470   4.600 -0.5691  0.0487  0.0951
   13CHL1   H4A  894   4.337   2.580   4.583 -0.5915  0.2379  1.2873
   13CHL1   H4B  895   4.261   2.432   4.531  0.6612  0.7158 -1.7550
   13CHL1    C5  896   4.320   2.434   4.745  0.5476 -0.6040 -0.3787
   13CHL1    C6  897   4.212   2.369   4.782 -0.3078  1.0258  0.0526
   13CHL1    H6  898   4.131   2.346   4.712 -0.2699  3.1692 -0.7811
   13CHL1    C7  899   4.193   2.325   4.930  0.0686  0.5091  0.3452
   13CHL1   H7A  900   4.085   2.337   4.955 -0.7853 -0.5669 -2.4611
   13CHL1   H7B  901   4.216   2.217   4.936  3.2869  1.0474 -0.4374
   13CHL1    C8  902   4.284   2.401   5.027  0.8984  0.0874 -0.1781
   13CHL1    H8  903   4.228   2.497   5.036  0.6239  0.0014 -0.9055
   13CHL1   C14  904   4.283   2.336   5.168 -0.5352  0.1111  0.2760
   13CHL1   H14  905   4.331   2.236   5.161 -0.7787  0.0724 -1.4636
   13CHL1   C15  906   4.145   2.311   5.227  0.6564 -0.5198 -0.5414
   13CHL1  H15A  907   4.076   2.387   5.185  1.6788  1.5750  1.3572
   13CHL1  H15B  908   4.105   2.209   5.206 -0.1383 -0.2813 -0.2341
   13CHL1   C16  909   4.158   2.336   5.376  0.3336  0.3352  0.0603
   13CHL1  H16A  910   4.112   2.426   5.421  0.2688 -1.7602  4.7023
   13CHL1  H16B  911   4.115   2.248   5.428  0.1308  0.5521  0.2585
   13CHL1   C17  912   4.307   2.342   5.396 -0.2016  0.3209 -0.2818
   13CHL1   H17  913   4.344   2.238   5.382  0.4274  0.7817 -2.3601
   13CHL1   C13  914   4.360   2.412   5.273 -0.4734 -0.3724 -0.2289
   13CHL1   C18  915   4.317   2.559   5.271 -0.0542  0.3346 -0.5619
   13CHL1  H18A  916   4.207   2.564   5.286  0.0308 -2.5271  1.8538
   13CHL1  H18B  917   4.367   2.608   5.357  1.9141 -2.0729 -0.2385
   13CHL1  H18C  918   4.342   2.619   5.180 -1.7248 -0.2754 -1.4811
   13CHL1   C12  919   4.510   2.397   5.231 -0.6930 -0.0748 -0.1948
   13CHL1  H12A  920   4.586   2.456   5.287 -0.0955  1.8028 -2.8131
   13CHL1  H12B  921   4.532   2.290   5.249 -2.8223 -0.5656 -0.1693
   13CHL1   C11  922   4.534   2.446   5.084  0.1627  0.1691  0.5156
   13CHL1  H11A  923   4.542   2.557   5.084  0.0676  0.1790  1.1130
   13CHL1  H11B  924   4.634   2.412   5.049 -0.1868 -0.4328  0.0844
   13CHL1    C9  925   4.428   2.408   4.980 -0.1837 -0.1716 -0.0571
   13CHL1    H9  926   4.448   2.300   4.964 -1.2448 -1.1647  4.0507
   13CHL1   C10  927   4.438   2.475   4.840 -0.3127  0.2307 -0.7093
   13CHL1   C19  928   4.426   2.626   4.854  0.3033  1.3193 -0.2723
   13CHL1  H19A  929   4.506   2.664   4.921  0.6144 -1.3305  0.9972
   13CHL1  H19B  930   4.427   2.678   4.756 -1.6733  1.2604 -0.3657
   13CHL1  H19C  931   4.328   2.651   4.902 -0.0775  0.5127 -0.6035
   13CHL1    C1  932   4.567   2.432   4.765  0.0639 -0.0076  0.1413
   13CHL1   H1A  933   4.652   2.465   4.830  0.6743  1.2276 -1.2235
   13CHL1   H1B  934   4.573   2.321   4.762  0.6273  0.0152  0.2633
   13CHL1    C2  935   4.584   2.479   4.621 -0.3179  0.2812 -0.6239
   13CHL1   H2A  936   4.684   2.454   4.578 -1.1349 -0.0687 -2.4198
   13CHL1   H2B  937   4.577   2.590   4.617  0.8024  0.3340 -1.8530
   13CHL1   C20  938   4.355   2.387   5.538  0.2043 -0.1605 -0.1474
   13CHL1   H20  939   4.333   2.496   5.538 -1.0969 -0.3855  1.5424
   13CHL1   C21  940   4.512   2.375   5.546  0.1321 -0.0571 -0.4223
   13CHL1  H21A  941   4.552   2.390   5.649  0.3453  0.6476 -0.6014
   13CHL1  H21B  942   4.572   2.445   5.483  0.9142 -0.7753 -0.5033
   13CHL1  H21C  943   4.543   2.271   5.520  0.4737 -0.0877  0.0856
   13CHL1   C22  944   4.283   2.315   5.649  0.1365 -0.0472 -0.2102
   13CHL1  H22A  945   4.175   2.297   5.629 -0.1365 -0.0660  1.1613
   13CHL1  H22B  946   4.324   2.216   5.678  0.8330 -0.1839 -1.5777
   13CHL1   C23  947   4.283   2.400   5.777  0.2030  0.1672  0.0968
   13CHL1  H23A  948   4.384   2.416   5.818  0.7796 -1.4774 -0.5909
   13CHL1  H23B  949   4.247   2.499   5.742 -1.1963 -0.7337 -1.1964
   13CHL1   C24  950   4.181   2.357   5.886 -0.2843 -0.1181 -0.3962
   13CHL1  H24A  951   4.094   2.305   5.840 -0.2687 -0.2443 -0.2851
   13CHL1  H24B  952   4.239   2.273   5.931 -1.4667 -0.8158 -0.1281
   13CHL1   C25  953   4.158   2.468   5.995  0.4594  0.8516 -0.2954
   13CHL1   H25  954   4.123   2.561   5.944  3.2794  1.3269 -1.5388
   13CHL1   C26  955   4.044   2.433   6.090  0.1286  0.3305  0.4284
   13CHL1  H26A  956   4.026   2.519   6.158  0.7904  0.4167  0.4989
   13CHL1  H26B  957   3.953   2.414   6.030  1.6227  1.3890 -2.3383
   13CHL1  H26C  958   4.059   2.348   6.160 -1.4476  0.7230  1.2938
   13CHL1   C27  959   4.284   2.511   6.061 -0.0038 -0.0854  0.3632
   13CHL1  H27A  960   4.374   2.524   5.997 -0.1040 -0.2867  0.1786
   13CHL1  H27B  961   4.270   2.602   6.123 -2.0108 -1.8576  2.6989
   13CHL1  H27C  962   4.327   2.436   6.132 -0.1769 -0.9908 -0.4618
   14CHL1    C3  963   6.338   6.525   7.769 -0.0215  0.3344  0.3892
   14CHL1    H3  964   6.323   6.635   7.780 -1.0627  0.5924 -2.6274
   14CHL1    O3  965   6.357   6.458   7.897  0.0103 -0.6298  0.5069
   14CHL1   H3'  966   6.404   6.375   7.888  0.1137 -0.5269  0.0757
   14CHL1    C4  967   6.220   6.464   7.697 -0.1960  0.1437  0.0300
   14CHL1   H4A  968   6.210   6.353   7.705  0.3796  0.0861 -0.0084
   14CHL1   H4B  969   6.130   6.494   7.755 -0.9692 -0.9590 -0.5636
   14CHL1    C5  970   6.201   6.525   7.560 -0.4449 -0.0350 -0.9383
   14CHL1    C6  971   6.089   6.592   7.524 -0.3612 -1.1669 -0.0214
   14CHL1    H6  972   6.005   6.602   7.595  1.7047  1.2763  2.2595
   14CHL1    C7  973   6.067   6.649   7.385  0.4879 -0.6770  0.3959
   14CHL1   H7A  974   5.961   6.652   7.353  1.1164  2.0844 -1.8306
   14CHL1   H7B  975   6.095   6.755   7.403  1.1449 -0.4749 -1.6110
   14CHL1    C8  976   6.162   6.585   7.279  0.7866 -0.1856  0.3378
   14CHL1    H8  977   6.124   6.482   7.262  0.0336  0.5858 -3.7492
   14CHL1   C14  978   6.149   6.666   7.146 -0.2378 -0.3063  0.8130
   14CHL1   H14  979   6.184   6.770   7.163 -1.1221  0.2623 -0.7244
   14CHL1   C15  980   6.008   6.682   7.068 -0.5969  0.1794 -0.0239
   14CHL1  H15A  981   5.958   6.585   7.053  1.2354 -0.6701 -0.9060
   14CHL1  H15B  982   5.936   6.757   7.108 -3.3984 -0.7073 -3.0398
   14CHL1   C16  983   6.056   6.726   6.923  0.7459  0.7590  0.0907
   14CHL1  H16A  984   5.998   6.665   6.850  0.7630 -0.0220  0.7087
   14CHL1  H16B  985   6.026   6.831   6.907  0.5386  0.7538  0.4331
   14CHL1   C17  986   6.200   6.706   6.915  0.2748  0.5890  1.2905
   14CHL1   H17  987   6.242   6.808   6.934  1.2046  0.2759  0.9668
   14CHL1   C13  988   6.245   6.616   7.033 -0.1565  0.0042  0.1427
   14CHL1   C18  989   6.220   6.463   6.983  0.6129 -0.8469  0.8744
   14CHL1  H18A  990   6.219   6.401   7.075  0.2590 -0.8176  0.8897
   14CHL1  H18B  991   6.127   6.464   6.922 -0.8204 -0.0448  2.9763
   14CHL1  H18C  992   6.309   6.442   6.920 -0.0896  1.7516 -1.1946
   14CHL1   C12  993   6.388   6.632   7.084 -0.3956  1.0296 -0.5596
   14CHL1  H12A  994   6.466   6.588   7.018  0.3522  0.8964  0.3929
   14CHL1  H12B  995   6.405   6.741   7.093 -2.2720  1.3911 -0.9851
   14CHL1   C11  996   6.404   6.554   7.215  0.6775 -0.3028 -0.0807
   14CHL1  H11A  997   6.391   6.446   7.193  3.2113 -0.8720  0.8266
   14CHL1  H11B  998   6.507   6.565   7.254  0.9019 -0.4670 -0.6061
   14CHL1    C9  999   6.302   6.592   7.327  0.1879 -0.2831 -0.0937
   14CHL1    H9 1000   6.311   6.699   7.355 -0.1228 -1.0795  3.6690
   14CHL1   C10 1001   6.322   6.513   7.465 -0.1185 -0.0246 -0.0547
   14CHL1   C19 1002   6.362   6.362   7.427  0.2627  0.0254  0.6797
   14CHL1  H19A 1003   6.461   6.363   7.378  0.5850 -0.1188  1.3219
   14CHL1  H19B 1004   6.365   6.298   7.517 -0.9560 -2.6044 -1.0294
   14CHL1  H19C 1005   6.283   6.343   7.351  0.4194 -0.1178  0.5541
   14CHL1    C1 1006   6.442   6.573   7.546 -0.0294  0.4353 -1.0130
   14CHL1   H1A 1007   6.534   6.567   7.484 -0.4106 -0.7610 -1.4875
   14CHL1   H1B 1008   6.428   6.681   7.570  0.7424 -0.0474  2.1247
   14CHL1    C2 1009   6.462   6.515   7.685  0.6212 -0.4695 -0.7503
   14CHL1   H2A 1010   6.545   6.573   7.731 -0.1785  1.2513 -1.3753
   14CHL1   H2B 1011   6.487   6.407   7.690 -0.4957 -0.7157 -0.1313
   14CHL1   C20 1012   6.249   6.675   6.769  0.3696 -0.0857 -0.0180
   14CHL1   H20 1013   6.246   6.567   6.743 -0.5502 -0.2648  0.7681
   14CHL1   C21 1014   6.399   6.701   6.770 -0.8859  0.5343 -0.3944
   14CHL1  H21A 1015   6.460   6.618   6.813 -1.9415 -0.6315 -1.0663
   14CHL1  H21B 1016   6.422   6.799   6.816  0.8830  0.6094 -1.3684
   14CHL1  H21C 1017   6.441   6.706   6.668  0.8575  0.3388  0.2736
   14CHL1   C22 1018   6.179   6.760   6.656 -0.0176  0.0665  0.8588
   14CHL1  H22A 1019   6.116   6.844   6.692 -1.4678  0.0673 -1.4961
   14CHL1  H22B 1020   6.259   6.807   6.596  0.7305  0.6867  2.2979
   14CHL1   C23 1021   6.090   6.681   6.556  0.0151 -0.4051 -0.0728
   14CHL1  H23A 1022   6.003   6.648   6.617  2.0881 -0.7917  2.9294
   14CHL1  H23B 1023   6.047   6.750   6.480 -0.3521 -1.7127 -1.0788
   14CHL1   C24 1024   6.148   6.567   6.479  0.1684 -0.2484  0.3784
   14CHL1  H24A 1025   6.195   6.496   6.551  3.1986  0.9592 -0.2448
   14CHL1  H24B 1026   6.067   6.512   6.426  0.0956  0.2743 -0.0630
   14CHL1   C25 1027   6.250   6.587   6.368 -0.2289  0.6137  0.1492
   14CHL1   H25 1028   6.342   6.627   6.416 -0.1237  2.8645 -1.7640
   14CHL1   C26 1029   6.280   6.446   6.307 -0.2452  0.4365 -0.1888
   14CHL1  H26A 1030   6.192   6.393   6.262 -0.5521 -0.1066  1.0105
   14CHL1  H26B 1031   6.339   6.466   6.215 -1.9781  1.5830 -1.1116
   14CHL1  H26C 1032   6.332   6.381   6.381  0.3443  1.4979  0.3446
   14CHL1   C27 1033   6.207   6.683   6.264  0.0132  0.2121 -0.8978
   14CHL1  H27A 1034   6.154   6.770   6.308 -0.9885 -1.3696  1.2002
   14CHL1  H27B 1035   6.294   6.722   6.206 -0.7919  0.0438 -2.2666
   14CHL1  H27C 1036   6.127   6.636   6.202  0.1823 -0.4380 -0.6369
   15CHL1    C3 1037   1.520   4.910   7.666 -0.0287  0.5130  0.0192
   15CHL1    H3 1038   1.567   5.011   7.660  1.4785 -0.1127  0.6595
   15CHL1    O3 1039   1.480   4.878   7.800 -0.6586 -0.1854 -0.5536
   15CHL1   H3' 1040   1.445   4.788   7.798 -3.2367  0.7445 -0.6284
   15CHL1    C4 1041   1.389   4.916   7.582 -0.5575 -0.3722 -1.1798
   15CHL1   H4A 1042   1.337   4.822   7.610  1.2055 -0.7781  1.0619
   15CHL1   H4B 1043   1.329   4.999   7.624 -0.7036 -0.0308 -2.0470
   15CHL1    C5 1044   1.403   4.928   7.434 -0.3703 -0.3374 -0.5331
   15CHL1    C6 1045   1.332   5.021   7.369  0.1923  0.5472 -0.5147
   15CHL1    H6 1046   1.259   5.076   7.430  0.3864 -1.3643  1.5982
   15CHL1    C7 1047   1.340   5.026   7.223  0.1865  0.7672  0.7036
   15CHL1   H7A 1048   1.234   5.029   7.188  0.8012 -2.1890 -1.9824
   15CHL1   H7B 1049   1.392   5.119   7.192  0.9971 -0.4143 -1.8312
   15CHL1    C8 1050   1.406   4.907   7.151 -0.6547 -0.9460 -0.0516
   15CHL1    H8 1051   1.336   4.822   7.142 -1.1743 -0.5667  0.3316
   15CHL1   C14 1052   1.443   4.951   7.010  0.2770  0.2459 -0.1098
   15CHL1   H14 1053   1.510   5.038   7.029  0.4856  0.0514  0.0463
   15CHL1   C15 1054   1.340   5.015   6.919 -0.6548  0.3854 -0.0048
   15CHL1  H15A 1055   1.241   4.965   6.914 -0.9876  1.1375 -2.1479
   15CHL1  H15B 1056   1.325   5.120   6.951 -2.3114  0.8915 -2.1802
   15CHL1   C16 1057   1.403   5.010   6.782  0.6643 -0.4874 -0.0897
   15CHL1  H16A 1058   1.330   4.961   6.714  1.1937 -0.8759 -0.3791
   15CHL1  H16B 1059   1.429   5.110   6.740  2.8002 -2.7652 -4.9726
   15CHL1   C17 1060   1.536   4.927   6.794  0.2256  0.5485 -0.5059
   15CHL1   H17 1061   1.622   4.994   6.813  0.1179  0.9509 -1.3996
   15CHL1   C13 1062   1.518   4.846   6.926 -0.0450 -0.0017 -0.9392
   15CHL1   C18 1063   1.436   4.720   6.906 -0.4565  0.1806  0.2170
   15CHL1  H18A 1064   1.339   4.740   6.857 -1.1768  0.5152  1.7277
   15CHL1  H18B 1065   1.500   4.647   6.852  0.0374  2.0168 -1.7824
   15CHL1  H18C 1066   1.404   4.664   6.997  0.2393 -0.5666  0.0240
   15CHL1   C12 1067   1.646   4.818   7.012  0.2757 -0.5437  0.7793
   15CHL1  H12A 1068   1.711   4.744   6.962  0.2374  1.0050 -1.7343
   15CHL1  H12B 1069   1.715   4.905   7.014  0.4714 -0.7047  1.1632
   15CHL1   C11 1070   1.624   4.765   7.161  0.8726 -0.0369  0.2804
   15CHL1  H11A 1071   1.572   4.669   7.142 -0.4210  1.1580 -3.1646
   15CHL1  H11B 1072   1.729   4.764   7.198  1.5000 -1.4653 -1.3685
   15CHL1    C9 1073   1.535   4.870   7.234 -0.0008  0.3619  0.3545
   15CHL1    H9 1074   1.596   4.962   7.229  2.6326 -1.3222 -0.3106
   15CHL1   C10 1075   1.510   4.832   7.374  0.0484  0.2300  0.2299
   15CHL1   C19 1076   1.444   4.692   7.383 -0.1725  0.9112  0.4000
   15CHL1  H19A 1077   1.419   4.653   7.484 -1.1556 -1.0759 -0.5762
   15CHL1  H19B 1078   1.349   4.695   7.325  0.0974  2.1519 -0.0188
   15CHL1  H19C 1079   1.516   4.616   7.346 -2.6372 -0.1417 -2.6386
   15CHL1    C1 1080   1.642   4.823   7.452  0.4812  0.4684 -0.3911
   15CHL1   H1A 1081   1.699   4.739   7.407 -0.9917 -1.6673  1.5551
   15CHL1   H1B 1082   1.698   4.918   7.436 -0.6661  1.1443 -0.5435
   15CHL1    C2 1083   1.618   4.809   7.607 -0.8848 -0.4932  0.1307
   15CHL1   H2A 1084   1.716   4.822   7.658 -1.8615  0.9955  1.7006
   15CHL1   H2B 1085   1.586   4.705   7.629 -0.6639 -0.6015 -0.0488
   15CHL1   C20 1086   1.577   4.865   6.659 -0.8785 -0.1130 -0.2106
   15CHL1   H20 1087   1.511   4.788   6.614 -1.2251  0.4174 -0.6378
   15CHL1   C21 1088   1.714   4.791   6.681 -0.2844 -0.8667  0.2179
   15CHL1  H21A 1089   1.767   4.748   6.594  0.1471 -2.1334  1.0845
   15CHL1  H21B 1090   1.707   4.706   6.752  0.2191 -1.0664  0.0326
   15CHL1  H21C 1091   1.777   4.871   6.726 -1.4940 -0.3119  0.9623
   15CHL1   C22 1092   1.598   4.976   6.558  0.0523 -0.0227  0.4127
   15CHL1  H22A 1093   1.504   5.034   6.548  1.1960  1.5598 -2.2240
   15CHL1  H22B 1094   1.677   5.044   6.598  0.0927  0.1930 -0.0295
   15CHL1   C23 1095   1.643   4.926   6.425  0.1689  0.2324  0.8932
   15CHL1  H23A 1096   1.743   4.879   6.432 -0.4585 -1.3051  0.0819
   15CHL1  H23B 1097   1.582   4.841   6.388 -0.8717  0.5989  1.7309
   15CHL1   C24 1098   1.650   5.027   6.306 -0.8145 -0.8758 -0.6280
   15CHL1  H24A 1099   1.545   5.061   6.297 -1.1718 -2.3262 -2.6363
   15CHL1  H24B 1100   1.701   5.120   6.340 -0.6912 -0.9591 -0.5835
   15CHL1   C25 1101   1.702   4.972   6.174 -0.1779  0.0658 -0.2949
   15CHL1   H25 1102   1.802   4.931   6.201  0.9153  1.6890 -1.6385
   15CHL1   C26 1103   1.613   4.863   6.117 -0.3249  0.5583  0.1191
   15CHL1  H26A 1104   1.518   4.894   6.069 -1.3600 -1.8610  0.4552
   15CHL1  H26B 1105   1.672   4.807   6.042 -1.6655 -0.6940 -0.0366
   15CHL1  H26C 1106   1.588   4.782   6.189  1.2068  0.1618  0.2292
   15CHL1   C27 1107   1.718   5.087   6.073 -0.0464 -1.6068  0.0911
   15CHL1  H27A 1108   1.808   5.148   6.096 -0.1671 -0.8834 -1.2607
   15CHL1  H27B 1109   1.748   5.050   5.973 -2.7062 -0.7721 -1.0985
   15CHL1  H27C 1110   1.630   5.154   6.067 -0.2729 -1.5331  2.9921
   16CHL1    C3 1111   4.693   4.165   7.446  0.3705 -0.3176 -0.9240
   16CHL1    H3 1112   4.679   4.056   7.458 -0.5001 -0.1704 -0.5525
   16CHL1    O3 1113   4.686   4.212   7.578  0.0989  0.0986 -0.1627
   16CHL1   H3' 1114   4.684   4.307   7.562 -1.0513 -0.0855 -1.3640
   16CHL1    C4 1115   4.836   4.195   7.403 -0.3643  0.0410 -0.1571
   16CHL1   H4A 1116   4.857   4.304   7.409  1.1834 -0.1070 -1.7870
   16CHL1   H4B 1117   4.911   4.151   7.472 -1.0683 -2.6319 -0.9609
   16CHL1    C5 1118   4.853   4.167   7.254 -0.0217  0.4913  0.3021
   16CHL1    C6 1119   4.962   4.095   7.207  0.2783 -0.1069  0.8825
   16CHL1    H6 1120   5.042   4.059   7.273 -0.4797 -2.2562  0.7111
   16CHL1    C7 1121   4.988   4.059   7.063 -0.1377 -0.0632  0.5033
   16CHL1   H7A 1122   5.089   4.099   7.039  0.3412 -0.7078  1.3630
   16CHL1   H7B 1123   4.991   3.948   7.056 -3.6983 -0.2504  0.2291
   16CHL1    C8 1124   4.900   4.133   6.965  0.8881  0.3474  1.0333
   16CHL1    H8 1125   4.949   4.229   6.937  0.5837  0.3184  0.3822
   16CHL1   C14 1126   4.887   4.050   6.835 -0.3091 -0.2043 -0.5867
   16CHL1   H14 1127   4.841   3.954   6.869  2.1247 -1.0140  0.6506
   16CHL1   C15 1128   5.020   3.993   6.766  0.6334 -0.3886  0.1665
   16CHL1  H15A 1129   5.099   4.071   6.776 -0.2905  0.3174  2.8088
   16CHL1  H15B 1130   5.044   3.894   6.809 -1.0578 -0.3858  1.2291
   16CHL1   C16 1131   4.981   3.979   6.617 -0.1715 -0.2414  0.3168
   16CHL1  H16A 1132   5.036   4.059   6.564 -1.3935  2.0028  2.2041
   16CHL1  H16B 1133   4.999   3.877   6.577 -1.3733 -1.0899  1.7901
   16CHL1   C17 1134   4.829   4.007   6.617 -0.7156 -0.0225  0.8036
   16CHL1   H17 1135   4.779   3.914   6.655  1.2027  0.1748  4.1521
   16CHL1   C13 1136   4.803   4.112   6.724  0.0251  0.0205  0.2574
   16CHL1   C18 1137   4.868   4.250   6.686  0.3035  0.2628 -0.2309
   16CHL1  H18A 1138   4.861   4.316   6.774 -2.6303  0.9950 -0.8877
   16CHL1  H18B 1139   4.974   4.241   6.657  0.2126  0.1561 -0.5363
   16CHL1  H18C 1140   4.805   4.303   6.610 -2.3935 -0.1732  1.5450
   16CHL1   C12 1141   4.658   4.131   6.777 -0.3587 -0.0224  0.5310
   16CHL1  H12A 1142   4.599   4.183   6.699 -0.0726 -3.2834 -2.0666
   16CHL1  H12B 1143   4.620   4.027   6.783  1.4466 -0.8564 -1.1774
   16CHL1   C11 1144   4.661   4.212   6.907 -0.2157  0.5528  0.0093
   16CHL1  H11A 1145   4.687   4.320   6.899  1.2639  0.2491  0.5087
   16CHL1  H11B 1146   4.556   4.214   6.943 -0.4253 -0.2953 -0.5199
   16CHL1    C9 1147   4.752   4.149   7.018  0.2497 -0.0175 -0.7942
   16CHL1    H9 1148   4.713   4.046   7.033  0.1593 -0.2991 -2.6922
   16CHL1   C10 1149   4.743   4.220   7.162  0.3864  0.1532  0.1925
   16CHL1   C19 1150   4.787   4.368   7.153  0.1008  0.7950  0.1639
   16CHL1  H19A 1151   4.898   4.378   7.148  0.2264  0.1602  1.3013
   16CHL1  H19B 1152   4.750   4.417   7.061  2.2980  0.4538 -0.9896
   16CHL1  H19C 1153   4.738   4.419   7.238 -1.3733 -0.7334  0.2859
   16CHL1    C1 1154   4.599   4.194   7.222  0.0008  0.3323  1.2006
   16CHL1   H1A 1155   4.528   4.248   7.156 -0.2437 -0.0048  1.1784
   16CHL1   H1B 1156   4.578   4.088   7.196  1.9740  0.4507 -1.2246
   16CHL1    C2 1157   4.579   4.227   7.365 -0.0208  0.0205  0.2091
   16CHL1   H2A 1158   4.493   4.168   7.403  1.2402 -0.3595  2.6981
   16CHL1   H2B 1159   4.558   4.335   7.380 -2.0771 -0.3980  0.7244
   16CHL1   C20 1160   4.784   4.037   6.465 -0.5485 -0.5606 -0.7835
   16CHL1   H20 1161   4.826   4.135   6.431 -0.5278 -1.3379 -3.2101
   16CHL1   C21 1162   4.625   4.045   6.456  0.9208  0.1840 -0.5216
   16CHL1  H21A 1163   4.585   4.007   6.360 -0.1424  2.4631 -1.0495
   16CHL1  H21B 1164   4.600   4.153   6.472  1.4033  0.0437  1.4985
   16CHL1  H21C 1165   4.576   3.994   6.541 -2.1877  2.6185 -0.6750
   16CHL1   C22 1166   4.848   3.942   6.364  0.2547  1.4806  0.4640
   16CHL1  H22A 1167   4.957   3.931   6.345 -0.1909 -0.8169 -1.1579
   16CHL1  H22B 1168   4.817   3.838   6.386 -1.6978  0.7381 -4.5223
   16CHL1   C23 1169   4.806   3.967   6.219 -0.6420 -0.1047 -0.3327
   16CHL1  H23A 1170   4.698   3.946   6.209 -0.7458  0.2986 -0.0689
   16CHL1  H23B 1171   4.823   4.074   6.196  0.7550  0.1469  1.6062
   16CHL1   C24 1172   4.889   3.897   6.107  0.2401  0.7322 -0.2307
   16CHL1  H24A 1173   4.998   3.917   6.112  0.9760 -2.4892 -1.0682
   16CHL1  H24B 1174   4.871   3.791   6.135 -0.6573  1.1964  1.0600
   16CHL1   C25 1175   4.841   3.934   5.966 -0.8263 -0.3980 -0.3267
   16CHL1   H25 1176   4.839   4.045   5.958 -1.2010 -0.4279 -0.6686
   16CHL1   C26 1177   4.937   3.883   5.850 -0.0164  0.2180 -0.1417
   16CHL1  H26A 1178   4.920   3.774   5.856  1.2469 -0.1022 -1.5560
   16CHL1  H26B 1179   4.895   3.924   5.756  0.3033 -1.6951 -1.1703
   16CHL1  H26C 1180   5.044   3.900   5.876 -0.2513  1.1145  0.2583
   16CHL1   C27 1181   4.698   3.887   5.932  0.2854 -0.1448  0.3346
   16CHL1  H27A 1182   4.629   3.916   6.014  0.7720  1.0666  0.3301
   16CHL1  H27B 1183   4.675   3.928   5.832  1.5573 -1.1082 -0.3871
   16CHL1  H27C 1184   4.707   3.776   5.925 -3.5096 -0.5655  0.4776
   17CHL1    C3 1185   5.672   6.850   7.822  0.1171 -0.0318 -0.1563
   17CHL1    H3 1186   5.779   6.837   7.796  0.6903  0.6641  1.7448
   17CHL1    O3 1187   5.665   6.843   7.962  0.0620  0.7302  0.2055
   17CHL1   H3' 1188   5.573   6.820   7.971  0.1221  0.0803 -0.6671
   17CHL1    C4 1189   5.627   6.985   7.761 -0.0271 -0.1731  0.0551
   17CHL1   H4A 1190   5.520   7.007   7.780  0.5503  3.9684 -0.5078
   17CHL1   H4B 1191   5.680   7.069   7.811  0.0761  0.6708 -1.4310
   17CHL1    C5 1192   5.636   6.990   7.614 -0.5105 -0.9965  0.0729
   17CHL1    C6 1193   5.707   7.082   7.548 -0.5869  0.5620  0.0550
   17CHL1    H6 1194   5.766   7.154   7.606  2.2772 -1.5611  0.0305
   17CHL1    C7 1195   5.719   7.089   7.397  0.0672 -0.5714 -0.4520
   17CHL1   H7A 1196   5.687   7.194   7.380 -0.0728 -0.4034  0.7372
   17CHL1   H7B 1197   5.823   7.091   7.357 -0.1648 -1.0045 -1.0915
   17CHL1    C8 1198   5.625   6.993   7.319  0.2286 -0.6864 -0.6498
   17CHL1    H8 1199   5.526   7.044   7.319  0.3450 -0.4440  0.0355
   17CHL1   C14 1200   5.675   6.986   7.178 -0.4290 -0.1021 -0.7853
   17CHL1   H14 1201   5.777   6.942   7.183 -0.7513 -0.8109 -0.2903
   17CHL1   C15 1202   5.692   7.115   7.102  0.7086  0.1418 -0.4723
   17CHL1  H15A 1203   5.613   7.188   7.128  1.7806  0.6007  1.6858
   17CHL1  H15B 1204   5.789   7.150   7.144  1.1064 -0.8147 -0.5584
   17CHL1   C16 1205   5.697   7.077   6.954  0.3134  0.3887 -0.1024
   17CHL1  H16A 1206   5.606   7.124   6.911  0.7408  1.1957 -0.1431
   17CHL1  H16B 1207   5.776   7.113   6.884  1.8705 -0.5859  1.1080
   17CHL1   C17 1208   5.671   6.923   6.945 -0.5570 -0.4811 -0.2923
   17CHL1   H17 1209   5.773   6.879   6.951 -1.4785 -2.7225 -0.1782
   17CHL1   C13 1210   5.608   6.892   7.086  0.8700  0.7481 -0.6240
   17CHL1   C18 1211   5.457   6.924   7.078 -0.7495 -0.4156  0.3162
   17CHL1  H18A 1212   5.402   6.838   7.035 -1.9109  0.6200 -0.3350
   17CHL1  H18B 1213   5.416   6.936   7.181 -0.8355 -0.4676  0.2874
   17CHL1  H18C 1214   5.436   7.017   7.021  0.4178 -1.0244 -1.1837
   17CHL1   C12 1215   5.620   6.755   7.152 -0.6707  0.5616  0.1274
   17CHL1  H12A 1216   5.577   6.674   7.090  1.1290 -0.2266 -0.1631
   17CHL1  H12B 1217   5.726   6.724   7.169 -0.4433  1.4618  0.3851
   17CHL1   C11 1218   5.553   6.748   7.291 -0.4876  0.4192 -0.2638
   17CHL1  H11A 1219   5.443   6.759   7.278 -0.8723  0.7708  2.5891
   17CHL1  H11B 1220   5.565   6.649   7.340 -0.4678  1.1920  1.3637
   17CHL1    C9 1221   5.622   6.850   7.385 -0.2151 -0.8400 -0.8538
   17CHL1    H9 1222   5.727   6.816   7.395 -0.1005  0.0356  1.5050
   17CHL1   C10 1223   5.573   6.872   7.539  0.0102  0.2077  0.0956
   17CHL1   C19 1224   5.412   6.879   7.528  0.6918  0.2011 -0.0260
   17CHL1  H19A 1225   5.372   6.966   7.471  1.1575  0.4309 -0.0002
   17CHL1  H19B 1226   5.361   6.784   7.498 -2.7539  1.2292  2.0004
   17CHL1  H19C 1227   5.382   6.903   7.632  1.9889 -0.8546  0.6131
   17CHL1    C1 1228   5.610   6.736   7.604  0.0488  0.1726 -0.2810
   17CHL1   H1A 1229   5.541   6.663   7.556  1.4123 -0.9619 -0.5745
   17CHL1   H1B 1230   5.718   6.714   7.589  0.3496  1.0960  0.4622
   17CHL1    C2 1231   5.591   6.736   7.758  0.6404  0.4124  0.1522
   17CHL1   H2A 1232   5.613   6.638   7.805  1.5139  1.0096  1.0320
   17CHL1   H2B 1233   5.484   6.753   7.781  0.1571 -0.9587 -0.9705
   17CHL1   C20 1234   5.603   6.874   6.819  0.0904 -0.2467  1.0189
   17CHL1   H20 1235   5.500   6.912   6.798  0.8135 -0.4691 -4.2209
   17CHL1   C21 1236   5.582   6.719   6.828 -0.1820  0.6008 -0.2815
   17CHL1  H21A 1237   5.555   6.675   6.729 -1.0020  0.3417  0.0494
   17CHL1  H21B 1238   5.495   6.705   6.896  0.0171  0.1778 -0.1086
   17CHL1  H21C 1239   5.667   6.656   6.861 -2.6596 -2.0581  1.5110
   17CHL1   C22 1240   5.689   6.901   6.688  0.6408  0.1999  0.8772
   17CHL1  H22A 1241   5.732   7.004   6.688 -1.7727  1.2922 -0.3034
   17CHL1  H22B 1242   5.774   6.830   6.698 -2.0725 -3.2507  1.5842
   17CHL1   C23 1243   5.626   6.883   6.548 -0.6212 -0.0647 -0.3554
   17CHL1  H23A 1244   5.581   6.782   6.536  1.7959 -1.5534  2.0461
   17CHL1  H23B 1245   5.548   6.962   6.542  0.7702  1.5112  1.2955
   17CHL1   C24 1246   5.734   6.915   6.444 -0.9682 -0.1553 -0.0543
   17CHL1  H24A 1247   5.758   7.023   6.456  3.1278 -0.8260 -0.8584
   17CHL1  H24B 1248   5.832   6.874   6.474 -0.5045 -0.5628 -1.9814
   17CHL1   C25 1249   5.701   6.882   6.295 -0.8091 -0.5789  0.1615
   17CHL1   H25 1250   5.778   6.931   6.232 -1.2648 -0.0156  0.0345
   17CHL1   C26 1251   5.708   6.724   6.278  0.3027 -0.0045 -0.7956
   17CHL1  H26A 1252   5.730   6.693   6.174 -0.4690  1.4346 -1.4138
   17CHL1  H26B 1253   5.787   6.685   6.346 -0.3627 -1.6990 -0.9227
   17CHL1  H26C 1254   5.607   6.684   6.305  0.5009 -0.1486 -0.2518
   17CHL1   C27 1255   5.559   6.932   6.260  0.0350  0.2637 -0.1816
   17CHL1  H27A 1256   5.526   6.903   6.158 -0.2071 -0.3280  0.0557
   17CHL1  H27B 1257   5.482   6.899   6.332 -0.0525  3.9299  1.6107
   17CHL1  H27C 1258   5.562   7.043   6.258  0.1601  0.3082 -3.4473
   18CHL1    C3 1259   0.742   1.298   7.977  0.4117 -0.6882  0.6372
   18CHL1    H3 1260   0.670   1.383   7.984 -1.3305 -2.1838  2.1390
   18CHL1    O3 1261   0.773   1.264   8.110 -0.4153  0.5935 -0.4146
   18CHL1   H3' 1262   0.841   1.198   8.097  1.6069  2.5572 -0.4949
   18CHL1    C4 1263   0.658   1.187   7.914  0.6596  0.1552 -0.0258
   18CHL1   H4A 1264   0.729   1.102   7.922  1.4234  0.5990 -1.6129
   18CHL1   H4B 1265   0.573   1.169   7.983  0.0974  3.0477  0.2037
   18CHL1    C5 1266   0.640   1.200   7.761  0.5613 -0.2439 -1.1448
   18CHL1    C6 1267   0.513   1.178   7.715 -0.5744  0.3583 -0.8664
   18CHL1    H6 1268   0.426   1.153   7.777 -0.9475  1.0117 -1.1141
   18CHL1    C7 1269   0.475   1.186   7.575 -0.0556  0.1510  0.2378
   18CHL1   H7A 1270   0.427   1.089   7.547  2.4487 -1.0399 -0.2297
   18CHL1   H7B 1271   0.403   1.269   7.556  0.7856  0.5286 -1.5280
   18CHL1    C8 1272   0.597   1.185   7.477  0.2314 -0.5626  0.1046
   18CHL1    H8 1273   0.638   1.084   7.460  1.7550  0.2253 -1.1738
   18CHL1   C14 1274   0.551   1.238   7.340  0.6219  0.5318  0.6317
   18CHL1   H14 1275   0.503   1.333   7.373  0.0320  0.0212  1.3016
   18CHL1   C15 1276   0.430   1.179   7.259  0.0630 -0.2678 -0.9475
   18CHL1  H15A 1277   0.441   1.071   7.283 -0.5370  0.0694  1.0147
   18CHL1  H15B 1278   0.328   1.203   7.297  0.3598 -0.5576  0.0601
   18CHL1   C16 1279   0.464   1.219   7.114  0.0459 -0.0291  0.5512
   18CHL1  H16A 1280   0.485   1.131   7.049  1.4850  1.3585 -0.9504
   18CHL1  H16B 1281   0.378   1.271   7.068  1.0124  0.7002 -0.4891
   18CHL1   C17 1282   0.584   1.319   7.126 -0.0361 -0.9828 -0.2781
   18CHL1   H17 1283   0.545   1.412   7.173  1.3421 -0.5037 -0.0313
   18CHL1   C13 1284   0.668   1.267   7.242 -0.2091 -0.2645  0.3610
   18CHL1   C18 1285   0.738   1.140   7.188 -0.7073 -0.0052  0.0320
   18CHL1  H18A 1286   0.786   1.091   7.276  1.0378 -0.2307 -1.0015
   18CHL1  H18B 1287   0.662   1.072   7.144 -1.7658  1.8763 -1.1588
   18CHL1  H18C 1288   0.817   1.161   7.113 -0.5962 -1.1059 -0.1827
   18CHL1   C12 1289   0.764   1.367   7.313  0.2570 -0.6337 -0.0030
   18CHL1  H12A 1290   0.853   1.402   7.257  0.1008  0.8507  0.6284
   18CHL1  H12B 1291   0.713   1.460   7.346  3.6547  1.4881 -0.3153
   18CHL1   C11 1292   0.827   1.310   7.439  0.9328  0.1373  0.4286
   18CHL1  H11A 1293   0.886   1.218   7.417 -0.6793 -0.7702 -0.3634
   18CHL1  H11B 1294   0.884   1.388   7.493 -1.7638  2.3849  0.2580
   18CHL1    C9 1295   0.711   1.273   7.538  0.1006 -0.4273 -0.9685
   18CHL1    H9 1296   0.661   1.372   7.549  1.8509  0.5152 -1.1112
   18CHL1   C10 1297   0.760   1.232   7.672  0.7556  0.5726  0.0974
   18CHL1   C19 1298   0.850   1.103   7.661  0.7645 -0.2118 -0.7087
   18CHL1  H19A 1299   0.944   1.125   7.607  1.8318 -1.0602  0.7020
   18CHL1  H19B 1300   0.887   1.062   7.758  0.0272  1.4475  0.3221
   18CHL1  H19C 1301   0.803   1.026   7.596 -1.7182 -0.8647  1.6598
   18CHL1    C1 1302   0.839   1.350   7.736 -0.6702  0.1026 -0.7535
   18CHL1   H1A 1303   0.934   1.383   7.689 -0.2149  2.0639  1.3188
   18CHL1   H1B 1304   0.762   1.430   7.727 -1.1359 -0.1642  0.6518
   18CHL1    C2 1305   0.864   1.336   7.891 -0.4814  0.5002 -0.1877
   18CHL1   H2A 1306   0.911   1.430   7.927  0.6785  1.1968 -3.2201
   18CHL1   H2B 1307   0.941   1.257   7.910 -0.5417  0.6520  0.7658
   18CHL1   C20 1308   0.660   1.356   6.996  0.0188 -0.7218  0.4783
   18CHL1   H20 1309   0.763   1.373   7.035 -1.1964  3.2157  2.5074
   18CHL1   C21 1310   0.620   1.494   6.953 -0.8052  0.1118 -0.5200
   18CHL1  H21A 1311   0.517   1.481   6.911 -0.4653 -0.7364 -1.1297
   18CHL1  H21B 1312   0.692   1.534   6.879  1.4530 -0.9147  0.9940
   18CHL1  H21C 1313   0.616   1.564   7.039 -0.3607 -1.8829  1.1912
   18CHL1   C22 1314   0.662   1.247   6.885  0.2547 -0.1037  0.0426
   18CHL1  H22A 1315   0.674   1.148   6.932 -0.0134  0.2222  0.8145
   18CHL1  H22B 1316   0.564   1.252   6.832 -1.8718  2.1835  3.7399
   18CHL1   C23 1317   0.781   1.269   6.792  0.2377  0.0392 -0.8620
   18CHL1  H23A 1318   0.770   1.372   6.753 -0.0421  0.1264 -0.5661
   18CHL1  H23B 1319   0.862   1.259   6.867 -2.4308 -1.2901  2.1079
   18CHL1   C24 1320   0.791   1.159   6.683 -0.6114 -0.1264 -0.2282
   18CHL1  H24A 1321   0.816   1.063   6.732  1.6614  0.6736  0.3226
   18CHL1  H24B 1322   0.691   1.144   6.636 -0.3005 -0.6325 -0.7476
   18CHL1   C25 1323   0.900   1.195   6.582  0.0645 -0.3788 -0.1486
   18CHL1   H25 1324   0.853   1.269   6.512  0.7262  0.4368  0.2538
   18CHL1   C26 1325   1.030   1.258   6.644  0.0469  1.0241  0.5937
   18CHL1  H26A 1326   1.013   1.367   6.658  1.8193  1.4554 -0.3879
   18CHL1  H26B 1327   1.044   1.201   6.738  0.5532  2.5329  1.4682
   18CHL1  H26C 1328   1.112   1.236   6.572 -0.0727  1.7032  0.2387
   18CHL1   C27 1329   0.926   1.075   6.487  0.2419  0.4490  0.3943
   18CHL1  H27A 1330   1.013   1.097   6.421  1.5965  0.3342  2.0618
   18CHL1  H27B 1331   0.964   0.993   6.552 -0.8938  0.4640  1.1125
   18CHL1  H27C 1332   0.833   1.036   6.440  0.5584  1.9706 -1.6393
   19CHL1    C3 1333   0.124   1.025   7.879 -0.0145 -0.4233 -0.2781
   19CHL1    H3 1334   0.234   1.035   7.867  0.0916 -0.4302  0.5900
   19CHL1    O3 1335   0.089   1.001   8.010 -0.3745 -0.4942 -0.3899
   19CHL1   H3' 1336  -0.006   0.985   8.010 -0.8163  1.8360 -1.0802
   19CHL1    C4 1337   0.046   1.148   7.834  0.5662  0.3549 -0.1471
   19CHL1   H4A 1338  -0.054   1.160   7.881  1.5534  1.5067  1.8125
   19CHL1   H4B 1339   0.095   1.235   7.883  1.5534 -1.5944  2.5425
   19CHL1    C5 1340   0.045   1.177   7.684 -0.6418 -0.2367 -0.9966
   19CHL1    C6 1341   0.069   1.299   7.628 -0.3940  0.0279 -0.3572
   19CHL1    H6 1342   0.107   1.385   7.685 -0.8869 -0.2684  0.4456
   19CHL1    C7 1343   0.056   1.313   7.482 -0.4498 -0.1123 -0.2092
   19CHL1   H7A 1344   0.017   1.415   7.458  0.6994  0.0592 -1.4652
   19CHL1   H7B 1345   0.157   1.318   7.436 -0.5955 -0.0530 -0.5301
   19CHL1    C8 1346  -0.021   1.211   7.403 -0.0333  0.6005 -0.6114
   19CHL1    H8 1347  -0.128   1.222   7.430 -0.2169 -3.1304  0.9367
   19CHL1   C14 1348   0.014   1.222   7.258  0.2695  0.4309  0.3225
   19CHL1   H14 1349   0.124   1.213   7.247  0.7928  3.0373  2.4517
   19CHL1   C15 1350  -0.018   1.356   7.181  0.2106 -0.1851  0.4040
   19CHL1  H15A 1351  -0.126   1.372   7.202 -0.1233  0.1290 -1.4488
   19CHL1  H15B 1352   0.034   1.447   7.218 -0.0327  1.0270 -2.0148
   19CHL1   C16 1353  -0.003   1.326   7.034  0.1098  0.7427  1.1794
   19CHL1  H16A 1354  -0.099   1.359   6.991 -1.4636 -0.5137  3.4662
   19CHL1  H16B 1355   0.085   1.378   6.992  0.7211 -0.7516  0.5332
   19CHL1   C17 1356   0.009   1.165   7.021 -0.2063 -0.5717 -0.2758
   19CHL1   H17 1357   0.118   1.139   7.023  0.2265  0.9463  3.3428
   19CHL1   C13 1358  -0.036   1.113   7.160  0.8818 -0.3869  0.6712
   19CHL1   C18 1359  -0.190   1.103   7.168 -0.9062 -0.1800 -0.7133
   19CHL1  H18A 1360  -0.231   1.025   7.100  0.5966 -1.4503 -0.2200
   19CHL1  H18B 1361  -0.218   1.085   7.274  0.5660 -2.3013 -0.6225
   19CHL1  H18C 1362  -0.245   1.194   7.136  1.3078  1.3378 -0.3781
   19CHL1   C12 1363   0.034   0.980   7.212  0.0054 -0.0543  0.4879
   19CHL1  H12A 1364   0.010   0.893   7.148 -1.6578  1.2883 -0.8199
   19CHL1  H12B 1365   0.142   1.006   7.212 -0.8760  4.3414  0.3530
   19CHL1   C11 1366  -0.011   0.960   7.358 -0.0772 -0.1997 -0.0873
   19CHL1  H11A 1367  -0.122   0.969   7.363 -0.0883  2.4373 -2.2967
   19CHL1  H11B 1368   0.020   0.859   7.393 -1.6391 -0.1255  1.6753
   19CHL1    C9 1369   0.031   1.079   7.449  0.2593 -0.4604 -0.4550
   19CHL1    H9 1370   0.141   1.077   7.438  0.7408  0.5635  2.9551
   19CHL1   C10 1371   0.008   1.052   7.604 -0.7344  0.8268  0.1390
   19CHL1   C19 1372  -0.148   1.044   7.637 -0.0090  0.5615  0.0438
   19CHL1  H19A 1373  -0.199   1.141   7.619  0.7457  1.3125  1.7046
   19CHL1  H19B 1374  -0.206   0.972   7.575  0.5775  1.3551 -1.4635
   19CHL1  H19C 1375  -0.172   1.014   7.741 -0.0487 -0.5587 -0.2770
   19CHL1    C1 1376   0.088   0.930   7.648  0.0147  0.5785 -0.6739
   19CHL1   H1A 1377   0.065   0.834   7.598  1.9604 -1.1138  1.4538
   19CHL1   H1B 1378   0.195   0.956   7.632  0.9617 -0.4019  3.0268
   19CHL1    C2 1379   0.074   0.906   7.803 -0.9706  0.3287  0.1934
   19CHL1   H2A 1380   0.130   0.811   7.819 -1.8681 -0.0861  0.9689
   19CHL1   H2B 1381  -0.027   0.868   7.831 -0.2410 -0.9304  1.2165
   19CHL1   C20 1382  -0.056   1.106   6.890 -0.0910 -0.1261 -0.0895
   19CHL1   H20 1383  -0.166   1.117   6.898  0.1340  2.6077  0.3363
   19CHL1   C21 1384  -0.011   0.965   6.859  0.5346  0.6678 -0.3398
   19CHL1  H21A 1385  -0.031   0.897   6.945  1.5337 -0.5542 -1.0446
   19CHL1  H21B 1386   0.097   0.962   6.835  0.4091  0.2491 -0.8539
   19CHL1  H21C 1387  -0.067   0.933   6.769 -0.4824  0.3736  0.3712
   19CHL1   C22 1388  -0.028   1.193   6.765 -0.4409  0.3753 -0.3061
   19CHL1  H22A 1389  -0.081   1.146   6.680  0.5259 -2.0161  0.3295
   19CHL1  H22B 1390  -0.085   1.284   6.792 -0.3547  0.1034  0.8531
   19CHL1   C23 1391   0.119   1.211   6.737 -0.1148 -0.1358  0.6336
   19CHL1  H23A 1392   0.184   1.261   6.812  3.0159  0.9400 -2.4848
   19CHL1  H23B 1393   0.172   1.115   6.717  1.7142  1.1594 -1.2225
   19CHL1   C24 1394   0.138   1.280   6.594 -0.2134  0.0859 -0.1626
   19CHL1  H24A 1395   0.104   1.207   6.518  0.7178  0.3254 -0.8255
   19CHL1  H24B 1396   0.077   1.372   6.581 -0.9252 -0.1889  1.1019
   19CHL1   C25 1397   0.278   1.320   6.559  0.2845 -0.0634  0.0616
   19CHL1   H25 1398   0.258   1.385   6.471  0.1955 -1.6496 -1.1494
   19CHL1   C26 1399   0.350   1.407   6.661 -0.5045  0.3931 -0.0516
   19CHL1  H26A 1400   0.392   1.346   6.744  1.4038 -0.3349 -1.4574
   19CHL1  H26B 1401   0.436   1.454   6.609  2.3372 -2.5952  1.5829
   19CHL1  H26C 1402   0.284   1.485   6.704  0.0567  0.2872  1.0465
   19CHL1   C27 1403   0.369   1.211   6.507  0.0382 -0.4721  0.0460
   19CHL1  H27A 1404   0.397   1.148   6.595 -0.8902 -1.2312 -0.1776
   19CHL1  H27B 1405   0.325   1.142   6.432 -2.0853  1.6791 -0.7746
   19CHL1  H27C 1406   0.464   1.251   6.464 -0.7106 -0.1179 -1.3385
   20CHL1    C3 1407   5.218   1.300   8.069 -0.1275 -0.4100 -0.4976
   20CHL1    H3 1408   5.240   1.193   8.091  1.4527  0.1840  0.9834
   20CHL1    O3 1409   5.197   1.381   8.187  0.3978 -0.3828 -0.1788
   20CHL1   H3' 1410   5.224   1.469   8.162  0.8911  0.3756  2.6562
   20CHL1    C4 1411   5.338   1.358   7.989 -0.6827 -0.2140 -0.0766
   20CHL1   H4A 1412   5.339   1.468   7.978  0.3950 -0.2231 -0.1809
   20CHL1   H4B 1413   5.429   1.331   8.048 -0.6889 -1.1173 -0.4595
   20CHL1    C5 1414   5.355   1.306   7.851 -0.4382 -0.1884 -0.0556
   20CHL1    C6 1415   5.477   1.255   7.809 -0.5727 -0.4677  0.2741
   20CHL1    H6 1416   5.556   1.285   7.880 -1.6793 -2.0812  2.2798
   20CHL1    C7 1417   5.510   1.196   7.677  0.0196 -0.3824 -1.3513
   20CHL1   H7A 1418   5.604   1.246   7.646  0.7297 -0.8098  0.0385
   20CHL1   H7B 1419   5.525   1.087   7.691 -3.1777 -0.7596 -0.0300
   20CHL1    C8 1420   5.394   1.233   7.577 -0.2430 -0.9046 -0.6513
   20CHL1    H8 1421   5.408   1.340   7.552 -0.2168 -0.9989 -1.0438
   20CHL1   C14 1422   5.411   1.136   7.463  0.6901  1.0492  0.4167
   20CHL1   H14 1423   5.394   1.035   7.505 -1.6438  1.9148  1.7752
   20CHL1   C15 1424   5.554   1.122   7.399  0.2486  0.6254  0.8390
   20CHL1  H15A 1425   5.595   1.223   7.378  1.5176 -0.3398 -1.8168
   20CHL1  H15B 1426   5.616   1.060   7.466  0.6794  0.2801  0.1341
   20CHL1   C16 1427   5.526   1.051   7.266 -0.0920  0.4929  0.2449
   20CHL1  H16A 1428   5.562   1.117   7.183  0.6474 -0.1373  0.0511
   20CHL1  H16B 1429   5.583   0.956   7.259 -1.1203 -0.0123 -4.3588
   20CHL1   C17 1430   5.371   1.040   7.254 -0.4010  0.7156  0.1402
   20CHL1   H17 1431   5.342   0.942   7.296 -0.1065  1.0517  1.1592
   20CHL1   C13 1432   5.310   1.143   7.350  0.0970  0.1131  0.5571
   20CHL1   C18 1433   5.312   1.278   7.278 -0.1342  0.2015  0.7073
   20CHL1  H18A 1434   5.413   1.288   7.233  0.1667 -2.6561  0.5495
   20CHL1  H18B 1435   5.240   1.271   7.194  0.1116 -0.0653  0.5170
   20CHL1  H18C 1436   5.286   1.356   7.353 -2.1675  0.3670 -0.1189
   20CHL1   C12 1437   5.178   1.110   7.407 -0.4168 -0.3510  0.1142
   20CHL1  H12A 1438   5.098   1.123   7.331  0.4537  3.4255 -0.3899
   20CHL1  H12B 1439   5.175   1.004   7.439 -0.9373 -0.6147 -0.7661
   20CHL1   C11 1440   5.142   1.207   7.532 -0.4838  0.1858 -0.6981
   20CHL1  H11A 1441   5.128   1.312   7.499  0.1536  1.2341  2.1336
   20CHL1  H11B 1442   5.050   1.172   7.584  0.4714 -1.9287 -0.2937
   20CHL1    C9 1443   5.250   1.205   7.646 -0.4257 -0.1662  0.5079
   20CHL1    H9 1444   5.274   1.106   7.689  1.7337  0.1242  0.0810
   20CHL1   C10 1445   5.230   1.295   7.768 -0.2246  0.1742  0.0547
   20CHL1   C19 1446   5.182   1.429   7.718 -0.5910 -0.1295 -0.4905
   20CHL1  H19A 1447   5.077   1.426   7.683 -0.7749 -1.1338  0.1124
   20CHL1  H19B 1448   5.183   1.505   7.799 -0.2774  1.4627 -1.9389
   20CHL1  H19C 1449   5.256   1.462   7.642  1.9732 -0.2494  1.7798
   20CHL1    C1 1450   5.120   1.221   7.849  0.2075  0.6823 -0.5288
   20CHL1   H1A 1451   5.029   1.209   7.787  0.1181 -1.8266  0.0137
   20CHL1   H1B 1452   5.150   1.116   7.869 -0.9032  0.6829  1.3422
   20CHL1    C2 1453   5.097   1.298   7.981 -0.7019 -0.2061  0.1918
   20CHL1   H2A 1454   5.027   1.242   8.047  1.2468 -0.7751  1.9074
   20CHL1   H2B 1455   5.050   1.397   7.961 -2.5368 -1.4280 -2.0313
   20CHL1   C20 1456   5.325   1.034   7.104 -0.4767  0.1174 -0.3549
   20CHL1   H20 1457   5.348   1.127   7.049 -0.9667  0.1265 -0.5493
   20CHL1   C21 1458   5.172   1.024   7.097  0.4937  0.5152  0.2570
   20CHL1  H21A 1459   5.138   1.012   6.992  0.1159 -1.3220  0.5542
   20CHL1  H21B 1460   5.129   1.121   7.130  1.1851  0.6629  0.7449
   20CHL1  H21C 1461   5.134   0.942   7.163  0.2029  1.5315  1.3758
   20CHL1   C22 1462   5.397   0.914   7.031  0.7971 -0.5078 -0.0028
   20CHL1  H22A 1463   5.506   0.934   7.028  1.1340 -2.1692  0.5890
   20CHL1  H22B 1464   5.383   0.821   7.090  1.6093  0.8436  2.5001
   20CHL1   C23 1465   5.360   0.882   6.883  0.5722  0.1145  0.3345
   20CHL1  H23A 1466   5.412   0.787   6.856 -0.9852 -0.3303 -1.2829
   20CHL1  H23B 1467   5.253   0.856   6.866  0.5857  0.0086  0.4036
   20CHL1   C24 1468   5.406   1.001   6.789 -0.0352 -0.2501 -0.5273
   20CHL1  H24A 1469   5.367   1.099   6.823  1.6055  0.3006 -0.1513
   20CHL1  H24B 1470   5.513   1.027   6.804 -1.0192  4.0711  0.2934
   20CHL1   C25 1471   5.379   0.978   6.641 -0.3509  1.1106 -0.0627
   20CHL1   H25 1472   5.287   0.917   6.627  1.0268 -1.3477  1.0843
   20CHL1   C26 1473   5.361   1.107   6.562  0.3726 -0.0504  0.2599
   20CHL1  H26A 1474   5.276   1.172   6.591 -0.7153 -0.8084 -1.1181
   20CHL1  H26B 1475   5.451   1.172   6.571 -0.2733  1.1419 -1.3137
   20CHL1  H26C 1476   5.365   1.105   6.451 -1.0871  5.0781 -0.1442
   20CHL1   C27 1477   5.487   0.894   6.562  0.2394  0.5990 -0.3369
   20CHL1  H27A 1478   5.581   0.953   6.555 -0.1116  1.1472 -0.5244
   20CHL1  H27B 1479   5.508   0.805   6.625 -0.3831 -0.2328 -1.2897
   20CHL1  H27C 1480   5.454   0.858   6.463 -0.6562 -1.2346  0.5767
   21CHL1    C3 1481   2.719   2.777   7.914  0.3999 -0.4377 -0.4608
   21CHL1    H3 1482   2.820   2.741   7.882  1.6983 -1.3148  3.8873
   21CHL1    O3 1483   2.726   2.772   8.054 -0.4350 -0.0238  0.1676
   21CHL1   H3' 1484   2.652   2.820   8.090 -0.3848  1.7475 -1.9004
   21CHL1    C4 1485   2.708   2.925   7.877  0.3131  0.1728  0.2488
   21CHL1   H4A 1486   2.613   2.969   7.914 -1.0273 -0.0151 -2.6908
   21CHL1   H4B 1487   2.787   2.989   7.923  0.6333  1.1182 -1.5358
   21CHL1    C5 1488   2.717   2.928   7.723 -0.0645  0.5786  0.6125
   21CHL1    C6 1489   2.821   2.990   7.663  0.7146 -0.1309 -0.6885
   21CHL1    H6 1490   2.892   3.056   7.715  0.1878  1.7222 -2.2104
   21CHL1    C7 1491   2.841   3.003   7.516  0.2691  0.0222 -0.0848
   21CHL1   H7A 1492   2.860   3.112   7.501 -0.5458  0.2900  0.7241
   21CHL1   H7B 1493   2.935   2.952   7.487  0.5317 -1.8545  3.4306
   21CHL1    C8 1494   2.717   2.959   7.443 -0.0271 -0.8113 -0.3396
   21CHL1    H8 1495   2.642   3.038   7.462  0.6100 -0.4386  0.7104
   21CHL1   C14 1496   2.748   2.947   7.292  0.3387 -0.0208  0.0273
   21CHL1   H14 1497   2.810   2.856   7.283  0.2394  0.0457 -1.6509
   21CHL1   C15 1498   2.837   3.054   7.212  0.9107 -0.3571 -0.2634
   21CHL1  H15A 1499   2.777   3.144   7.238 -1.1030 -1.5337 -0.6316
   21CHL1  H15B 1500   2.941   3.065   7.250  0.0992  0.8539  1.7839
   21CHL1   C16 1501   2.812   3.025   7.068 -0.4706  0.4854 -0.3221
   21CHL1  H16A 1502   2.770   3.119   7.026 -0.1179  0.5991 -0.4188
   21CHL1  H16B 1503   2.910   2.998   7.023 -0.5354  0.4493 -0.4435
   21CHL1   C17 1504   2.700   2.911   7.064 -0.6989 -1.2200  0.4909
   21CHL1   H17 1505   2.745   2.810   7.054 -1.9043 -1.6304 -1.0817
   21CHL1   C13 1506   2.627   2.918   7.201 -0.2114 -0.1626 -0.0050
   21CHL1   C18 1507   2.515   3.027   7.213 -0.2084  0.8446 -0.1187
   21CHL1  H18A 1508   2.553   3.121   7.169  3.6921 -1.0026 -1.1647
   21CHL1  H18B 1509   2.424   2.997   7.158 -1.6001  2.3627  1.2591
   21CHL1  H18C 1510   2.491   3.042   7.320  0.5179 -2.0373  0.5549
   21CHL1   C12 1511   2.572   2.783   7.255  0.7245 -0.4740  0.0598
   21CHL1  H12A 1512   2.478   2.757   7.202 -0.7485  2.6869  0.9108
   21CHL1  H12B 1513   2.645   2.701   7.238  0.4597 -0.2333 -2.7026
   21CHL1   C11 1514   2.530   2.785   7.411 -0.4045 -0.3875  0.6312
   21CHL1  H11A 1515   2.442   2.852   7.417  0.9285  1.4056  1.1558
   21CHL1  H11B 1516   2.496   2.684   7.443 -0.5839 -0.5294  0.0025
   21CHL1    C9 1517   2.648   2.829   7.498 -0.3289  0.5366  0.3332
   21CHL1    H9 1518   2.731   2.758   7.482  0.6493  1.2650  1.9559
   21CHL1   C10 1519   2.611   2.835   7.647  0.3804 -0.6607  0.4122
   21CHL1   C19 1520   2.464   2.901   7.666  0.5248 -0.3234  0.0664
   21CHL1  H19A 1521   2.386   2.834   7.624  0.8052 -0.9419  0.5095
   21CHL1  H19B 1522   2.440   2.931   7.770 -0.1008  0.7415 -0.3748
   21CHL1  H19C 1523   2.462   3.001   7.618 -0.7284 -0.0215  0.7212
   21CHL1    C1 1524   2.606   2.690   7.712 -0.5593 -0.0796 -0.2920
   21CHL1   H1A 1525   2.506   2.651   7.683 -1.4050  0.1721  2.0771
   21CHL1   H1B 1526   2.683   2.619   7.675 -1.0844 -0.4664 -0.6506
   21CHL1    C2 1527   2.606   2.686   7.868 -0.6132  0.6141  0.0116
   21CHL1   H2A 1528   2.624   2.579   7.891 -3.5822  0.0319  0.0672
   21CHL1   H2B 1529   2.507   2.715   7.911 -0.4153  0.0594  0.8861
   21CHL1   C20 1530   2.616   2.927   6.933 -0.2549 -0.0222 -0.4230
   21CHL1   H20 1531   2.564   3.022   6.958 -1.2301 -0.7020  0.1661
   21CHL1   C21 1532   2.498   2.825   6.920  0.4837 -0.0642 -0.2477
   21CHL1  H21A 1533   2.549   2.726   6.932  0.3365 -0.1768 -0.5478
   21CHL1  H21B 1534   2.440   2.845   6.828  0.6940 -0.6697 -0.5158
   21CHL1  H21C 1535   2.424   2.848   7.000 -0.1441 -2.3786 -0.0685
   21CHL1   C22 1536   2.694   2.938   6.797  0.8276  0.1969 -0.2121
   21CHL1  H22A 1537   2.616   2.949   6.719 -0.3963 -1.3232  0.7404
   21CHL1  H22B 1538   2.743   3.038   6.804  0.6390  0.2007  1.5419
   21CHL1   C23 1539   2.794   2.829   6.762 -0.1438  0.5605 -0.0151
   21CHL1  H23A 1540   2.880   2.826   6.831 -0.6791 -0.1215  0.6405
   21CHL1  H23B 1541   2.740   2.733   6.779 -0.4744  1.0660  2.1158
   21CHL1   C24 1542   2.835   2.829   6.614 -0.4146 -0.1380  0.4120
   21CHL1  H24A 1543   2.736   2.827   6.565  0.8441 -1.3120 -2.3290
   21CHL1  H24B 1544   2.881   2.924   6.578 -2.4469  0.5783 -0.3933
   21CHL1   C25 1545   2.930   2.712   6.573  0.4728  0.5723 -0.4668
   21CHL1   H25 1546   2.872   2.624   6.608 -0.2476  1.7240  1.3586
   21CHL1   C26 1547   2.934   2.709   6.417 -0.0147  0.3263 -0.2087
   21CHL1  H26A 1548   2.979   2.800   6.372  1.1950 -0.5141 -0.7377
   21CHL1  H26B 1549   2.998   2.622   6.391 -1.2479 -0.6061 -0.2348
   21CHL1  H26C 1550   2.832   2.694   6.375 -0.3776 -1.1530  1.0861
   21CHL1   C27 1551   3.073   2.716   6.636 -0.4299 -0.0260 -0.1688
   21CHL1  H27A 1552   3.078   2.653   6.727 -1.2519  0.3601  0.1526
   21CHL1  H27B 1553   3.138   2.678   6.554 -0.9550 -1.2966 -0.0262
   21CHL1  H27C 1554   3.096   2.822   6.662  0.1030 -0.1257 -0.2425
   22CHL1    C3 1555   4.579   0.394   7.643 -0.0004  1.2279  0.3158
   22CHL1    H3 1556   4.591   0.286   7.617  0.2746  1.3034  0.1258
   22CHL1    O3 1557   4.615   0.412   7.780  0.4896  0.3187 -0.2236
   22CHL1   H3' 1558   4.587   0.503   7.792 -0.7120 -0.0141 -0.3579
   22CHL1    C4 1559   4.654   0.483   7.551  0.0192 -0.4116 -0.3481
   22CHL1   H4A 1560   4.639   0.587   7.589  1.3356 -0.5364  0.5787
   22CHL1   H4B 1561   4.760   0.466   7.578  0.3435  0.4535 -1.0203
   22CHL1    C5 1562   4.623   0.476   7.405 -0.0036 -0.5317  0.8845
   22CHL1    C6 1563   4.714   0.458   7.305 -0.1346  1.2503  1.0848
   22CHL1    H6 1564   4.820   0.458   7.335 -0.3707  1.2632  1.9440
   22CHL1    C7 1565   4.686   0.472   7.160  0.1741  0.5069 -0.0668
   22CHL1   H7A 1566   4.751   0.551   7.117  0.4688 -0.0812 -0.7209
   22CHL1   H7B 1567   4.692   0.374   7.109  0.5049 -0.3848  1.6226
   22CHL1    C8 1568   4.534   0.520   7.131  0.1194 -0.9678  0.8010
   22CHL1    H8 1569   4.539   0.631   7.136 -0.2148 -0.6871 -2.6406
   22CHL1   C14 1570   4.493   0.470   6.996 -0.0144  0.3467  0.5395
   22CHL1   H14 1571   4.488   0.360   7.012  0.0890  0.5925  2.4643
   22CHL1   C15 1572   4.598   0.497   6.876  0.3230 -0.2951 -0.2308
   22CHL1  H15A 1573   4.638   0.601   6.883  0.3547 -0.1746 -1.8605
   22CHL1  H15B 1574   4.681   0.423   6.885 -0.1473 -0.6091  2.3265
   22CHL1   C16 1575   4.500   0.487   6.750 -0.3234 -0.4783 -0.9196
   22CHL1  H16A 1576   4.511   0.585   6.697  0.9768  0.9671  1.8324
   22CHL1  H16B 1577   4.536   0.404   6.685  1.2539 -1.6361  1.3143
   22CHL1   C17 1578   4.352   0.467   6.805 -0.1813  0.8082  0.0628
   22CHL1   H17 1579   4.332   0.358   6.811  0.0889  0.6765 -1.1067
   22CHL1   C13 1580   4.362   0.525   6.947  0.4915 -0.5059  0.0033
   22CHL1   C18 1581   4.374   0.679   6.930  0.4003 -0.0084 -1.3102
   22CHL1  H18A 1582   4.397   0.727   7.028 -1.1646 -1.6679 -0.0434
   22CHL1  H18B 1583   4.451   0.716   6.860  0.2852  0.0288 -1.4170
   22CHL1  H18C 1584   4.280   0.725   6.892 -1.4587 -1.9599  0.5578
   22CHL1   C12 1585   4.251   0.486   7.045 -0.1020  0.2700 -0.2049
   22CHL1  H12A 1586   4.153   0.527   7.013  1.6662  2.7251 -3.0036
   22CHL1  H12B 1587   4.244   0.375   7.036 -0.2393  0.3662 -1.3774
   22CHL1   C11 1588   4.286   0.533   7.187  0.0519  0.0713 -0.0587
   22CHL1  H11A 1589   4.282   0.644   7.191  0.0514  0.0427  1.4934
   22CHL1  H11B 1590   4.213   0.480   7.253 -0.5091 -0.3430 -0.9963
   22CHL1    C9 1591   4.428   0.480   7.233  0.2926  0.6564  0.0900
   22CHL1    H9 1592   4.428   0.369   7.230  1.8899  0.5611  1.7266
   22CHL1   C10 1593   4.468   0.507   7.380 -0.1409  0.2740  0.4173
   22CHL1   C19 1594   4.441   0.660   7.415  0.3320 -0.2500 -0.2634
   22CHL1  H19A 1595   4.331   0.678   7.408  0.4241  1.3011  1.5228
   22CHL1  H19B 1596   4.470   0.684   7.519 -1.0928 -1.0869  0.3574
   22CHL1  H19C 1597   4.492   0.732   7.347  0.9444  0.6273  1.0998
   22CHL1    C1 1598   4.385   0.414   7.475  0.3464 -0.0641 -1.2968
   22CHL1   H1A 1599   4.282   0.454   7.467  0.0859 -0.5688 -0.5638
   22CHL1   H1B 1600   4.373   0.311   7.435 -2.6622 -0.3928  0.2070
   22CHL1    C2 1601   4.425   0.418   7.625  0.1220  0.7818 -0.8882
   22CHL1   H2A 1602   4.368   0.346   7.686  1.3842 -0.3671 -1.0257
   22CHL1   H2B 1603   4.406   0.521   7.662 -1.6370  0.2114 -0.1273
   22CHL1   C20 1604   4.249   0.532   6.703 -0.4116  0.3050  0.0053
   22CHL1   H20 1605   4.248   0.641   6.723 -1.8645  0.1562  0.9627
   22CHL1   C21 1606   4.104   0.493   6.733  0.0799 -0.5374 -0.4725
   22CHL1  H21A 1607   4.063   0.533   6.828 -0.5255 -1.4868 -0.3128
   22CHL1  H21B 1608   4.095   0.383   6.748  0.4321 -0.6495 -1.0661
   22CHL1  H21C 1609   4.046   0.532   6.647 -0.5530 -1.2432 -0.3811
   22CHL1   C22 1610   4.281   0.493   6.559 -0.3572 -0.1514 -0.7328
   22CHL1  H22A 1611   4.210   0.547   6.494 -2.7659 -1.8460  0.3209
   22CHL1  H22B 1612   4.389   0.514   6.543  0.1010 -2.8652 -1.8420
   22CHL1   C23 1613   4.257   0.343   6.525 -0.2194 -0.2830  0.8667
   22CHL1  H23A 1614   4.327   0.289   6.592  0.5387 -0.1166  0.2276
   22CHL1  H23B 1615   4.154   0.308   6.543 -0.6063  0.4239  0.1282
   22CHL1   C24 1616   4.286   0.320   6.384 -0.2363 -0.1121  0.1802
   22CHL1  H24A 1617   4.196   0.365   6.338  0.2288  0.0503 -0.5865
   22CHL1  H24B 1618   4.373   0.376   6.343  2.5764 -1.2358  4.0121
   22CHL1   C25 1619   4.318   0.174   6.345  0.8575 -0.5066  1.0705
   22CHL1   H25 1620   4.407   0.141   6.403  1.3233  1.3434  1.4961
   22CHL1   C26 1621   4.209   0.070   6.370 -0.7884 -0.0288 -0.7515
   22CHL1  H26A 1622   4.127   0.076   6.295 -1.5292 -0.1872  0.0362
   22CHL1  H26B 1623   4.254  -0.031   6.376  1.3652  0.9776  1.7046
   22CHL1  H26C 1624   4.172   0.090   6.473 -2.1787 -0.8376 -1.0640
   22CHL1   C27 1625   4.348   0.169   6.189  0.4292 -0.3255  0.1206
   22CHL1  H27A 1626   4.276   0.229   6.130  1.1281  0.1329 -0.2793
   22CHL1  H27B 1627   4.454   0.194   6.166  0.8158 -2.4374 -0.6637
   22CHL1  H27C 1628   4.350   0.065   6.149 -2.8182  0.0767 -1.3456
   23CHL1    C3 1629   5.858   4.230   7.310  0.1118 -0.3292  0.2280
   23CHL1    H3 1630   5.902   4.132   7.338 -1.1466 -0.7430  0.8548
   23CHL1    O3 1631   5.810   4.293   7.425  0.0470 -0.4421  0.7281
   23CHL1   H3' 1632   5.751   4.237   7.477 -1.0716  0.4962  0.5240
   23CHL1    C4 1633   5.954   4.324   7.241  0.8341 -0.5705  0.3776
   23CHL1   H4A 1634   5.903   4.421   7.227  0.5038 -0.6297  1.1265
   23CHL1   H4B 1635   6.036   4.345   7.312 -0.1066  1.7315  0.8537
   23CHL1    C5 1636   6.006   4.295   7.103 -0.1234  0.4611  0.8810
   23CHL1    C6 1637   6.137   4.293   7.076 -0.3833 -0.8117  0.2612
   23CHL1    H6 1638   6.208   4.313   7.158  0.1015 -0.3533 -0.2618
   23CHL1    C7 1639   6.202   4.253   6.946 -0.3598  0.3634 -0.1797
   23CHL1   H7A 1640   6.295   4.312   6.931  0.0574  0.5120  2.4716
   23CHL1   H7B 1641   6.240   4.150   6.959 -0.4297  0.3514 -0.0690
   23CHL1    C8 1642   6.092   4.256   6.831  0.6286 -0.0744 -0.0783
   23CHL1    H8 1643   6.074   4.363   6.805 -0.7181 -0.0161  1.0057
   23CHL1   C14 1644   6.151   4.185   6.711  0.2427 -0.4304 -0.7797
   23CHL1   H14 1645   6.167   4.078   6.736  0.5448 -0.6676 -1.9569
   23CHL1   C15 1646   6.288   4.231   6.660  0.1373 -0.1799  0.4465
   23CHL1  H15A 1647   6.285   4.342   6.649 -0.3371 -0.3563 -1.7276
   23CHL1  H15B 1648   6.373   4.208   6.728  0.2784  0.3818  0.4690
   23CHL1   C16 1649   6.303   4.162   6.520 -0.3327 -0.4671  0.5103
   23CHL1  H16A 1650   6.330   4.234   6.441  0.0053 -0.2101  0.8552
   23CHL1  H16B 1651   6.388   4.091   6.531 -0.5925 -0.3987  4.6128
   23CHL1   C17 1652   6.160   4.102   6.486 -0.4701 -0.2978 -0.2293
   23CHL1   H17 1653   6.164   3.999   6.529 -0.3858  0.0312  0.5739
   23CHL1   C13 1654   6.062   4.179   6.586  0.4592  0.3967 -0.3423
   23CHL1   C18 1655   6.035   4.314   6.519  0.1626 -0.2749  0.4618
   23CHL1  H18A 1656   5.988   4.393   6.582  1.3097 -1.6212  3.2163
   23CHL1  H18B 1657   6.126   4.357   6.472  0.8269 -0.3449  1.6330
   23CHL1  H18C 1658   5.978   4.297   6.426  1.6828  0.2417 -0.5990
   23CHL1   C12 1659   5.934   4.107   6.629 -0.4416  0.3544 -0.0968
   23CHL1  H12A 1660   5.860   4.109   6.546 -1.2235 -0.7923  0.5438
   23CHL1  H12B 1661   5.948   3.998   6.650  2.7360  0.9844  1.6736
   23CHL1   C11 1662   5.868   4.170   6.749  0.8265 -0.5730  0.9786
   23CHL1  H11A 1663   5.841   4.273   6.714  1.5651 -1.2710 -1.9880
   23CHL1  H11B 1664   5.773   4.126   6.786 -0.1710  1.9337  1.5947
   23CHL1    C9 1665   5.958   4.186   6.868 -0.1056 -0.1564  0.2086
   23CHL1    H9 1666   5.991   4.082   6.890  1.1350 -0.2609 -1.8356
   23CHL1   C10 1667   5.897   4.246   6.996  0.2668  0.0658 -1.2442
   23CHL1   C19 1668   5.811   4.366   6.965  0.3364  0.2609  0.3182
   23CHL1  H19A 1669   5.863   4.440   6.899 -1.3670  2.0341  0.8556
   23CHL1  H19B 1670   5.730   4.320   6.905  0.5106 -0.7193  0.8233
   23CHL1  H19C 1671   5.776   4.421   7.055 -0.0792  0.8004 -0.1637
   23CHL1    C1 1672   5.799   4.139   7.074  0.4058 -0.7481 -0.4709
   23CHL1   H1A 1673   5.712   4.102   7.015 -0.2177  0.5033 -0.3865
   23CHL1   H1B 1674   5.862   4.056   7.110  2.7774  0.6246 -1.2686
   23CHL1    C2 1675   5.741   4.194   7.214 -0.4834 -0.0260  0.1150
   23CHL1   H2A 1676   5.668   4.119   7.251 -2.8235  2.0690  0.0086
   23CHL1   H2B 1677   5.678   4.284   7.199 -0.5944 -0.2520 -0.8369
   23CHL1   C20 1678   6.134   4.092   6.337  0.1077  0.4884 -0.9791
   23CHL1   H20 1679   6.125   4.190   6.286  0.2035  1.0760  0.0979
   23CHL1   C21 1680   6.008   4.011   6.313 -0.2857  0.0589 -0.3529
   23CHL1  H21A 1681   6.024   3.910   6.357 -1.6764  1.3281  3.5139
   23CHL1  H21B 1682   5.997   3.986   6.205 -1.1867  0.6993 -0.4291
   23CHL1  H21C 1683   5.913   4.055   6.352 -0.2201 -1.5490  1.7927
   23CHL1   C22 1684   6.255   4.024   6.274  0.1789  0.6773  0.0574
   23CHL1  H22A 1685   6.351   4.075   6.299 -1.1778  2.1996  2.6384
   23CHL1  H22B 1686   6.277   3.922   6.311 -0.0891  1.0077  1.1997
   23CHL1   C23 1687   6.252   4.025   6.118 -0.0446  0.0700 -0.1898
   23CHL1  H23A 1688   6.162   3.973   6.078  0.9910 -1.1297 -1.0296
   23CHL1  H23B 1689   6.251   4.126   6.074  1.8121 -0.6588 -2.0439
   23CHL1   C24 1690   6.374   3.959   6.038 -0.0174 -0.4407 -0.1656
   23CHL1  H24A 1691   6.374   4.009   5.939  0.2429  1.6327  0.8127
   23CHL1  H24B 1692   6.463   3.993   6.095  0.4348 -0.9665 -0.5575
   23CHL1   C25 1693   6.372   3.807   6.043  0.7447  0.7401  0.1915
   23CHL1   H25 1694   6.371   3.791   6.153 -1.7197  2.4993  0.5135
   23CHL1   C26 1695   6.245   3.743   5.984 -0.1221 -0.5103 -0.4427
   23CHL1  H26A 1696   6.252   3.633   5.971  2.2326 -0.2750 -1.7014
   23CHL1  H26B 1697   6.157   3.779   6.041  0.7877  1.0195  0.0470
   23CHL1  H26C 1698   6.230   3.787   5.883 -0.9758  0.3277  0.0279
   23CHL1   C27 1699   6.497   3.743   5.988  0.0851  0.1190  0.2907
   23CHL1  H27A 1700   6.508   3.787   5.887 -0.2737  0.6931  0.4983
   23CHL1  H27B 1701   6.592   3.780   6.033 -0.3849  0.3468  1.1123
   23CHL1  H27C 1702   6.492   3.632   5.980 -0.4098  0.2340 -1.3276
   24CHL1    C3 1703   5.509   0.767   7.708 -0.1966 -0.1912 -0.4485
   24CHL1    H3 1704   5.513   0.868   7.663 -0.9586 -0.1799 -0.5009
   24CHL1    O3 1705   5.550   0.774   7.845  0.1988 -0.0389 -0.1776
   24CHL1   H3' 1706   5.538   0.684   7.878 -1.4008  0.7372  1.5297
   24CHL1    C4 1707   5.361   0.714   7.703 -0.3115  0.6639  0.5137
   24CHL1   H4A 1708   5.356   0.635   7.780  0.7673  0.0943  0.0181
   24CHL1   H4B 1709   5.300   0.797   7.745 -2.4618 -0.8014  0.4183
   24CHL1    C5 1710   5.303   0.675   7.569 -0.0102 -0.0516  0.0573
   24CHL1    C6 1711   5.181   0.719   7.535 -0.0227 -0.0966 -0.3035
   24CHL1    H6 1712   5.127   0.790   7.598 -1.4086 -1.9261  0.6861
   24CHL1    C7 1713   5.123   0.681   7.404  0.1209  0.0520 -0.1062
   24CHL1   H7A 1714   5.021   0.641   7.422 -0.3627  1.4659  0.4640
   24CHL1   H7B 1715   5.114   0.770   7.338 -0.5612 -1.0934 -1.6023
   24CHL1    C8 1716   5.199   0.579   7.318  0.0277 -0.3378  0.3958
   24CHL1    H8 1717   5.167   0.479   7.353  0.0756 -0.2725  0.6259
   24CHL1   C14 1718   5.163   0.606   7.169 -0.3787  0.1735 -0.1903
   24CHL1   H14 1719   5.208   0.700   7.130  1.5238 -0.3622  0.6081
   24CHL1   C15 1720   5.018   0.610   7.128  0.8479  0.0798 -0.7971
   24CHL1  H15A 1721   4.971   0.538   7.199  2.1287  0.5091  0.5655
   24CHL1  H15B 1722   4.971   0.707   7.156  1.4401 -0.2904  1.8125
   24CHL1   C16 1723   5.009   0.564   6.982  0.1496  0.2472 -0.5763
   24CHL1  H16A 1724   4.926   0.490   6.981 -0.9490  1.2007  3.4807
   24CHL1  H16B 1725   4.989   0.654   6.919  1.7902  1.4411  0.5311
   24CHL1   C17 1726   5.154   0.528   6.945 -0.3279 -0.1694 -0.9394
   24CHL1   H17 1727   5.193   0.627   6.911 -1.2516  0.9389  1.0421
   24CHL1   C13 1728   5.220   0.496   7.084  0.1260  0.3191  0.2350
   24CHL1   C18 1729   5.178   0.356   7.129  0.2238 -0.4877 -0.2703
   24CHL1  H18A 1730   5.231   0.314   7.218  0.7559 -1.2778 -0.9495
   24CHL1  H18B 1731   5.067   0.345   7.128  0.3645 -2.5850 -2.0086
   24CHL1  H18C 1732   5.215   0.288   7.049 -0.3047  0.2532 -1.1634
   24CHL1   C12 1733   5.376   0.508   7.093 -0.0160 -0.4211  0.5306
   24CHL1  H12A 1734   5.415   0.431   7.023 -0.3022  0.4520 -0.6229
   24CHL1  H12B 1735   5.417   0.602   7.050  0.0808  0.0457  1.6227
   24CHL1   C11 1736   5.427   0.503   7.240 -0.1343 -0.3723  0.2084
   24CHL1  H11A 1737   5.414   0.404   7.288  1.1042  0.8034  3.2332
   24CHL1  H11B 1738   5.533   0.538   7.239 -0.5757  1.1473  1.8126
   24CHL1    C9 1739   5.351   0.604   7.331 -0.2160 -0.1525  1.1321
   24CHL1    H9 1740   5.373   0.706   7.292 -1.2523 -0.0446  0.8084
   24CHL1   C10 1741   5.396   0.601   7.479  0.3446  0.4185  0.4134
   24CHL1   C19 1742   5.385   0.455   7.533  0.3867  0.3936 -0.3122
   24CHL1  H19A 1743   5.284   0.412   7.515 -0.1595  1.2746  0.5059
   24CHL1  H19B 1744   5.470   0.402   7.487  1.0606  0.2332  1.0518
   24CHL1  H19C 1745   5.396   0.455   7.644 -2.3012  0.3152  0.0426
   24CHL1    C1 1746   5.544   0.649   7.494  0.7499 -0.0372 -0.0766
   24CHL1   H1A 1747   5.604   0.574   7.438  0.0575 -0.3136 -0.4670
   24CHL1   H1B 1748   5.570   0.745   7.445 -1.3470  0.4823 -0.2794
   24CHL1    C2 1749   5.599   0.667   7.636  0.5961 -0.1273  0.8585
   24CHL1   H2A 1750   5.699   0.714   7.649  0.7011 -0.8959  3.5732
   24CHL1   H2B 1751   5.593   0.574   7.697  0.9216 -0.3934  0.4911
   24CHL1   C20 1752   5.162   0.422   6.832 -0.2494 -0.3435 -0.0445
   24CHL1   H20 1753   5.250   0.355   6.833 -0.6677 -0.9352 -1.0190
   24CHL1   C21 1754   5.167   0.505   6.700 -0.1638 -0.1713 -0.3900
   24CHL1  H21A 1755   5.155   0.435   6.615 -1.9915  0.2212 -0.5104
   24CHL1  H21B 1756   5.267   0.552   6.701 -0.3276  0.2845 -2.0167
   24CHL1  H21C 1757   5.095   0.591   6.700 -0.0499 -0.0725 -0.7262
   24CHL1   C22 1758   5.037   0.325   6.829  0.3086  0.5140  0.6331
   24CHL1  H22A 1759   5.000   0.287   6.927  0.2755  0.4494  0.5958
   24CHL1  H22B 1760   4.964   0.397   6.788  0.7505  0.0501 -1.0615
   24CHL1   C23 1761   5.039   0.204   6.733  0.2949  0.6531  0.0454
   24CHL1  H23A 1762   4.943   0.151   6.721  0.5071  0.5471 -1.3590
   24CHL1  H23B 1763   5.075   0.233   6.632 -0.9218  0.0161 -0.5859
   24CHL1   C24 1764   5.140   0.090   6.791  0.3803  0.1279  0.9147
   24CHL1  H24A 1765   5.242   0.134   6.797 -0.0915  1.6794 -1.1990
   24CHL1  H24B 1766   5.109   0.073   6.896  0.6965  2.6715  1.5024
   24CHL1   C25 1767   5.147  -0.037   6.698  0.4769  0.2534  0.8899
   24CHL1   H25 1768   5.047  -0.066   6.658  1.1693 -0.6485 -0.2467
   24CHL1   C26 1769   5.220   0.004   6.578  0.1354  0.0503  0.4065
   24CHL1  H26A 1770   5.231  -0.082   6.509 -0.0218  1.0504 -0.9119
   24CHL1  H26B 1771   5.162   0.087   6.533  1.4290  0.5076 -0.5006
   24CHL1  H26C 1772   5.319   0.042   6.612 -0.4193  1.5437  0.4534
   24CHL1   C27 1773   5.204  -0.150   6.781 -0.3387  0.4324  0.3261
   24CHL1  H27A 1774   5.308  -0.129   6.811  0.6632 -1.0608 -1.8462
   24CHL1  H27B 1775   5.149  -0.163   6.877  1.8464 -0.2466  1.5574
   24CHL1  H27C 1776   5.227  -0.244   6.726  1.5903 -1.0199  3.3297
   25CHL1    C3 1777   6.013   4.824   4.393 -0.6548  0.6371 -0.2428
   25CHL1    H3 1778   5.946   4.744   4.432  0.2238  0.1335  0.2673
   25CHL1    O3 1779   6.024   4.810   4.252 -0.9460  0.3142  0.4807
   25CHL1   H3' 1780   6.104   4.855   4.225 -2.8334  3.0634 -1.0831
   25CHL1    C4 1781   5.965   4.960   4.433 -0.2378 -0.1504 -0.9041
   25CHL1   H4A 1782   6.033   5.034   4.388 -0.9769  0.9687 -0.2410
   25CHL1   H4B 1783   5.863   4.986   4.397 -1.3247 -2.2502  0.4545
   25CHL1    C5 1784   5.977   4.989   4.585  0.3243 -0.4527  0.0506
   25CHL1    C6 1785   5.871   5.045   4.650 -0.0172 -0.1607 -0.3089
   25CHL1    H6 1786   5.770   5.059   4.607 -0.4501 -0.5916  0.5479
   25CHL1    C7 1787   5.866   5.066   4.793  0.2411 -0.2693 -0.5259
   25CHL1   H7A 1788   5.804   5.158   4.803 -0.6154 -0.3171 -3.9513
   25CHL1   H7B 1789   5.815   4.978   4.839  0.3753 -0.2343 -0.3088
   25CHL1    C8 1790   6.003   5.061   4.863 -0.4927 -0.0387 -0.1019
   25CHL1    H8 1791   6.050   5.156   4.830  2.3835 -0.9512  1.0031
   25CHL1   C14 1792   5.994   5.048   5.016 -0.1779  0.8215  1.0953
   25CHL1   H14 1793   5.936   4.954   5.028 -1.0181  1.1847 -0.0081
   25CHL1   C15 1794   5.900   5.147   5.093  0.5015 -0.1917  0.0943
   25CHL1  H15A 1795   5.939   5.239   5.045 -0.0576 -0.6179 -1.2213
   25CHL1  H15B 1796   5.792   5.122   5.089  0.5461 -0.2137 -1.1015
   25CHL1   C16 1797   5.959   5.138   5.244  0.3003  0.9416 -0.2757
   25CHL1  H16A 1798   6.007   5.234   5.273  3.6015 -1.0211  1.2034
   25CHL1  H16B 1799   5.877   5.101   5.310  1.4695  0.5719  1.0048
   25CHL1   C17 1800   6.065   5.024   5.239 -0.6178 -0.2324  0.3649
   25CHL1   H17 1801   5.999   4.934   5.238  0.3708 -0.9877 -0.6916
   25CHL1   C13 1802   6.126   5.024   5.099  0.3325 -0.2788 -0.0041
   25CHL1   C18 1803   6.230   5.139   5.088 -0.1437  0.0216  0.5317
   25CHL1  H18A 1804   6.207   5.235   5.139 -0.6865 -0.2866  0.8769
   25CHL1  H18B 1805   6.331   5.104   5.118 -0.3113 -0.5916  0.3865
   25CHL1  H18C 1806   6.252   5.171   4.984 -0.8144  1.2122  0.7373
   25CHL1   C12 1807   6.186   4.893   5.050  0.4339 -0.0768  0.1592
   25CHL1  H12A 1808   6.288   4.871   5.087  0.0423  1.0824  2.0765
   25CHL1  H12B 1809   6.113   4.810   5.059 -1.6991  1.3175 -2.4973
   25CHL1   C11 1810   6.215   4.911   4.899  0.8998  0.1623  0.0969
   25CHL1  H11A 1811   6.293   4.988   4.879  0.8722  0.3334  0.6337
   25CHL1  H11B 1812   6.252   4.817   4.851  0.2019 -1.6069  2.7901
   25CHL1    C9 1813   6.086   4.940   4.814 -0.7392 -1.0251  1.4089
   25CHL1    H9 1814   6.021   4.852   4.827 -2.2522 -0.0645  0.6452
   25CHL1   C10 1815   6.119   4.951   4.661 -0.3556  0.4575  0.9080
   25CHL1   C19 1816   6.220   5.062   4.638  0.2052  0.0910  0.1836
   25CHL1  H19A 1817   6.212   5.092   4.531 -0.8803  0.9770  0.5003
   25CHL1  H19B 1818   6.193   5.154   4.693  1.5341  0.9015 -0.4638
   25CHL1  H19C 1819   6.328   5.041   4.653  0.4339 -0.5827 -1.9304
   25CHL1    C1 1820   6.158   4.813   4.603  0.3414  0.3410 -0.2518
   25CHL1   H1A 1821   6.252   4.777   4.650 -2.9010 -1.0926  6.4584
   25CHL1   H1B 1822   6.076   4.741   4.628 -0.7089  1.7317  0.4467
   25CHL1    C2 1823   6.156   4.810   4.453  0.8974 -0.0827  0.6604
   25CHL1   H2A 1824   6.200   4.713   4.421 -1.4456 -1.5013  1.4717
   25CHL1   H2B 1825   6.210   4.895   4.406  1.0865 -1.6692 -2.1941
   25CHL1   C20 1826   6.162   5.011   5.359  0.3096  0.9194 -0.0354
   25CHL1   H20 1827   6.253   4.960   5.320  0.0245  0.4909 -0.1487
   25CHL1   C21 1828   6.085   4.930   5.473 -0.4540  0.3020  0.9209
   25CHL1  H21A 1829   6.158   4.920   5.555 -0.8523  0.7485  1.3361
   25CHL1  H21B 1830   6.078   4.825   5.438 -2.1773  0.3340  1.0888
   25CHL1  H21C 1831   5.995   4.985   5.506 -1.1686  0.4472 -1.0973
   25CHL1   C22 1832   6.215   5.141   5.414  0.4143 -0.3574 -0.3561
   25CHL1  H22A 1833   6.262   5.203   5.336 -0.2384  0.4733 -0.1026
   25CHL1  H22B 1834   6.121   5.176   5.461 -0.3525  0.9446 -2.7049
   25CHL1   C23 1835   6.318   5.123   5.529  0.1921 -0.2819  0.0789
   25CHL1  H23A 1836   6.276   5.067   5.614  0.1467  0.6253  0.6674
   25CHL1  H23B 1837   6.401   5.067   5.482 -0.5908  0.7142 -2.7133
   25CHL1   C24 1838   6.361   5.255   5.585  0.5664 -0.2329  0.6813
   25CHL1  H24A 1839   6.367   5.316   5.492 -1.1027 -0.0672  0.6501
   25CHL1  H24B 1840   6.271   5.302   5.631  0.5711 -1.6168  2.1928
   25CHL1   C25 1841   6.474   5.258   5.687  0.1354  1.0287  0.3022
   25CHL1   H25 1842   6.555   5.208   5.630 -1.0883  0.8350 -1.3375
   25CHL1   C26 1843   6.511   5.410   5.724  0.4297  0.4610  0.6033
   25CHL1  H26A 1844   6.605   5.410   5.784 -0.7716 -0.2866  2.5997
   25CHL1  H26B 1845   6.526   5.467   5.630 -1.7210  1.2568  0.6722
   25CHL1  H26C 1846   6.430   5.459   5.783  0.9730  0.1364  1.6445
   25CHL1   C27 1847   6.453   5.181   5.819  0.6842 -0.3579 -0.1909
   25CHL1  H27A 1848   6.547   5.177   5.878 -0.4035 -0.0763  1.6820
   25CHL1  H27B 1849   6.380   5.230   5.888  0.6461  0.2494 -0.6552
   25CHL1  H27C 1850   6.423   5.075   5.805  0.7216 -0.3736 -0.1528
   26CHL1    C3 1851   0.231   6.786   7.564 -0.4609  0.2075 -0.1849
   26CHL1    H3 1852   0.325   6.842   7.544 -0.3444  0.0390 -0.1193
   26CHL1    O3 1853   0.194   6.805   7.705 -0.7906 -0.0651  0.3650
   26CHL1   H3' 1854   0.279   6.790   7.748 -1.6778 -1.8218  1.6569
   26CHL1    C4 1855   0.127   6.840   7.461  0.6073 -0.2406  0.3062
   26CHL1   H4A 1856   0.028   6.792   7.476 -1.6677  3.7747 -0.3386
   26CHL1   H4B 1857   0.111   6.945   7.495  0.3218  0.0708 -0.7790
   26CHL1    C5 1858   0.162   6.820   7.315 -0.0363  0.3367 -0.1789
   26CHL1    C6 1859   0.182   6.927   7.239  1.1695 -0.1940 -0.3622
   26CHL1    H6 1860   0.168   7.028   7.282  1.0822 -0.3377 -0.0512
   26CHL1    C7 1861   0.192   6.915   7.091  0.2357 -0.6262  0.6371
   26CHL1   H7A 1862   0.115   6.983   7.049  0.8499 -0.2836  0.0349
   26CHL1   H7B 1863   0.298   6.936   7.063  0.4744 -2.5273  0.0210
   26CHL1    C8 1864   0.165   6.775   7.038  0.4682  0.1694 -0.5489
   26CHL1    H8 1865   0.054   6.764   7.035  0.3891 -0.0193  1.6431
   26CHL1   C14 1866   0.226   6.767   6.896  0.4183 -0.2753 -1.1423
   26CHL1   H14 1867   0.336   6.782   6.895  0.2480  1.2314  0.0571
   26CHL1   C15 1868   0.185   6.879   6.799  0.7719  0.2073  0.1424
   26CHL1  H15A 1869   0.074   6.892   6.806  0.5330 -1.5397  0.0440
   26CHL1  H15B 1870   0.238   6.976   6.806 -3.1875  2.8105 -1.7315
   26CHL1   C16 1871   0.208   6.816   6.665  0.0611 -0.1360  0.4069
   26CHL1  H16A 1872   0.110   6.813   6.613 -0.8479  2.0703  1.8480
   26CHL1  H16B 1873   0.278   6.876   6.603  0.6241  0.4269  1.5575
   26CHL1   C17 1874   0.254   6.673   6.691 -0.2907  0.6305  0.2954
   26CHL1   H17 1875   0.362   6.672   6.716 -0.3824 -0.8674  0.7002
   26CHL1   C13 1876   0.195   6.639   6.826 -0.7612  0.0087  0.3655
   26CHL1   C18 1877   0.046   6.616   6.807 -0.2290 -0.5369  0.3315
   26CHL1  H18A 1878  -0.007   6.700   6.758 -2.2919 -1.1610  1.3598
   26CHL1  H18B 1879   0.031   6.519   6.754  1.0863 -0.6799  0.1982
   26CHL1  H18C 1880   0.008   6.601   6.910  0.3646  1.7575  0.9408
   26CHL1   C12 1881   0.265   6.530   6.914  0.7322  0.4024  1.3047
   26CHL1  H12A 1882   0.250   6.427   6.875 -2.4793  1.0395  0.5131
   26CHL1  H12B 1883   0.375   6.540   6.909  0.7104  0.0385 -1.0534
   26CHL1   C11 1884   0.209   6.526   7.056 -0.2047 -0.6469  0.1612
   26CHL1  H11A 1885   0.102   6.499   7.043 -0.5169  1.1815 -1.5926
   26CHL1  H11B 1886   0.266   6.445   7.107 -0.1364  0.0997  1.3059
   26CHL1    C9 1887   0.226   6.661   7.126 -0.8355  0.0373  0.6254
   26CHL1    H9 1888   0.336   6.680   7.131 -0.9821  1.4285 -0.5545
   26CHL1   C10 1889   0.167   6.676   7.273 -0.5753 -0.0532  0.2345
   26CHL1   C19 1890   0.026   6.604   7.272  0.5342  0.0059  0.0090
   26CHL1  H19A 1891  -0.022   6.606   7.372  0.8606 -0.5665  0.1799
   26CHL1  H19B 1892  -0.034   6.663   7.200  0.1295  0.5358  0.7685
   26CHL1  H19C 1893   0.033   6.501   7.232 -2.3481 -0.4291  0.4312
   26CHL1    C1 1894   0.264   6.611   7.374 -0.5776  0.4501 -0.2358
   26CHL1   H1A 1895   0.266   6.502   7.355 -0.7648  0.3372  0.3769
   26CHL1   H1B 1896   0.367   6.649   7.353 -0.6364  1.1297  0.6778
   26CHL1    C2 1897   0.247   6.638   7.528 -0.0329 -0.1534  0.0393
   26CHL1   H2A 1898   0.324   6.584   7.586 -2.6581 -3.6242  0.5905
   26CHL1   H2B 1899   0.152   6.586   7.549 -1.1720  1.9389  0.3555
   26CHL1   C20 1900   0.225   6.579   6.570  0.1196 -0.1154  0.9022
   26CHL1   H20 1901   0.116   6.585   6.550  0.6774 -0.2373 -2.8590
   26CHL1   C21 1902   0.265   6.434   6.597 -0.7753  1.1077 -0.3440
   26CHL1  H21A 1903   0.190   6.393   6.668  1.2872  0.8503  1.8101
   26CHL1  H21B 1904   0.367   6.430   6.642 -0.0315  2.1003 -1.8348
   26CHL1  H21C 1905   0.281   6.379   6.502  1.5794  0.4987  0.3456
   26CHL1   C22 1906   0.284   6.637   6.437  0.8810 -0.0492  0.2965
   26CHL1  H22A 1907   0.259   6.550   6.373 -2.0220 -0.7803  2.2689
   26CHL1  H22B 1908   0.230   6.729   6.405  1.0112  0.2787  1.0161
   26CHL1   C23 1909   0.436   6.672   6.444 -0.4202  0.4106 -0.3206
   26CHL1  H23A 1910   0.445   6.747   6.525 -1.3641 -0.6738  0.8434
   26CHL1  H23B 1911   0.491   6.580   6.472  1.9446  2.2293  1.4051
   26CHL1   C24 1912   0.488   6.719   6.307 -0.6897  0.0145  0.2643
   26CHL1  H24A 1913   0.447   6.662   6.221 -0.5188 -2.2473  1.6092
   26CHL1  H24B 1914   0.453   6.824   6.294  0.3020  0.7618  3.0591
   26CHL1   C25 1915   0.641   6.720   6.297 -0.9049  0.6117  0.0882
   26CHL1   H25 1916   0.686   6.626   6.337  1.6653  1.4368 -0.6665
   26CHL1   C26 1917   0.682   6.738   6.151  0.1427 -0.3766  0.4747
   26CHL1  H26A 1918   0.791   6.759   6.152  0.2493 -0.9399  0.9635
   26CHL1  H26B 1919   0.661   6.649   6.088 -1.8366  0.7426 -0.5539
   26CHL1  H26C 1920   0.625   6.823   6.108 -2.0481 -1.8381  0.3361
   26CHL1   C27 1921   0.711   6.829   6.377 -0.2840  0.3021 -0.2150
   26CHL1  H27A 1922   0.693   6.814   6.486 -1.4396 -0.1138 -0.4559
   26CHL1  H27B 1923   0.820   6.813   6.359 -0.0232  0.3761  1.1478
   26CHL1  H27C 1924   0.692   6.931   6.337  0.6236 -0.2162 -2.0616
   27CHL1    C3 1925   3.871   2.655   7.608  0.3167  0.0639 -0.3242
   27CHL1    H3 1926   3.951   2.591   7.567 -0.5764 -1.5036  0.2688
   27CHL1    O3 1927   3.850   2.632   7.746  0.1672 -0.1017 -0.2054
   27CHL1   H3' 1928   3.756   2.631   7.762  0.5410  1.1762  2.6380
   27CHL1    C4 1929   3.918   2.798   7.579 -0.2580 -0.0447 -0.0306
   27CHL1   H4A 1930   3.853   2.869   7.636  1.5773  1.6575  0.0504
   27CHL1   H4B 1931   4.019   2.795   7.625 -0.3086 -0.8658  0.0352
   27CHL1    C5 1932   3.926   2.843   7.433 -0.1003 -0.8555 -0.1928
   27CHL1    C6 1933   4.042   2.899   7.387  0.5535 -0.5113  0.9942
   27CHL1    H6 1934   4.124   2.915   7.458  0.7494 -0.9342  0.8646
   27CHL1    C7 1935   4.046   2.956   7.243 -0.6582 -1.0007 -0.2831
   27CHL1   H7A 1936   4.108   3.048   7.242 -0.5627 -1.0487 -2.3622
   27CHL1   H7B 1937   4.115   2.884   7.193  0.1777 -0.5773  0.2210
   27CHL1    C8 1938   3.905   2.967   7.176 -0.1028  0.4377  0.7428
   27CHL1    H8 1939   3.853   3.054   7.221  0.5954  0.7411  0.9682
   27CHL1   C14 1940   3.917   2.978   7.023  0.4377  0.1086  0.3689
   27CHL1   H14 1941   3.958   2.879   6.992 -0.5231 -0.3564  0.5413
   27CHL1   C15 1942   4.010   3.090   6.974 -0.7723  0.0861 -0.4206
   27CHL1  H15A 1943   3.998   3.184   7.033  0.6577 -1.1683  2.0569
   27CHL1  H15B 1944   4.115   3.055   6.985 -1.1236 -1.1829 -0.9986
   27CHL1   C16 1945   3.974   3.100   6.825 -0.6406 -0.4205 -0.0409
   27CHL1  H16A 1946   3.942   3.204   6.803  0.9800  0.1588  0.1518
   27CHL1  H16B 1947   4.054   3.057   6.761 -1.8329 -0.7452 -1.3675
   27CHL1   C17 1948   3.847   3.011   6.799  0.1236 -0.4853 -0.2085
   27CHL1   H17 1949   3.882   2.912   6.762  0.6189 -0.0795 -0.8376
   27CHL1   C13 1950   3.789   2.988   6.937  0.6848 -0.1004 -0.7434
   27CHL1   C18 1951   3.706   3.114   6.983 -0.6984  0.0492 -0.3829
   27CHL1  H18A 1952   3.609   3.110   6.929 -0.8454  0.3066 -0.1413
   27CHL1  H18B 1953   3.674   3.106   7.090 -0.4952 -2.6531 -0.4467
   27CHL1  H18C 1954   3.756   3.212   6.969 -0.2996 -0.0686  0.1666
   27CHL1   C12 1955   3.720   2.855   6.956  0.0469 -0.1622  0.6575
   27CHL1  H12A 1956   3.623   2.856   6.903 -0.2540 -0.9358  1.1838
   27CHL1  H12B 1957   3.780   2.775   6.909  0.3607  0.8813 -0.7852
   27CHL1   C11 1958   3.700   2.832   7.115  0.4203 -0.0242  0.9817
   27CHL1  H11A 1959   3.637   2.917   7.149  1.7126  1.4381 -0.1329
   27CHL1  H11B 1960   3.646   2.735   7.126 -1.2450  0.6144 -0.9119
   27CHL1    C9 1961   3.824   2.836   7.198  0.1482  0.3508 -0.7768
   27CHL1    H9 1962   3.883   2.748   7.164  0.0380  1.3554 -3.8369
   27CHL1   C10 1963   3.794   2.810   7.351 -0.2509 -0.7952  0.4380
   27CHL1   C19 1964   3.678   2.892   7.402 -0.3604 -0.1391 -0.2613
   27CHL1  H19A 1965   3.591   2.890   7.333  0.0847  0.8289 -0.8721
   27CHL1  H19B 1966   3.648   2.858   7.503  1.0710  2.5886  1.2072
   27CHL1  H19C 1967   3.695   3.001   7.416  0.6625 -0.2882 -0.2733
   27CHL1    C1 1968   3.762   2.658   7.375 -0.2536 -0.5860 -0.4228
   27CHL1   H1A 1969   3.671   2.624   7.322  0.2819 -0.2630 -1.5787
   27CHL1   H1B 1970   3.847   2.602   7.329 -0.9727 -2.5923  0.5811
   27CHL1    C2 1971   3.750   2.620   7.527  0.1605  0.6570  0.4266
   27CHL1   H2A 1972   3.732   2.511   7.533  0.5641  0.5168 -0.5887
   27CHL1   H2B 1973   3.659   2.666   7.571 -0.7237 -0.3964 -0.2423
   27CHL1   C20 1974   3.753   3.064   6.692  0.2345  0.1162 -0.5058
   27CHL1   H20 1975   3.705   3.159   6.727 -1.5714 -0.8024 -0.3473
   27CHL1   C21 1976   3.635   2.975   6.664  0.6361  0.2556  0.0409
   27CHL1  H21A 1977   3.582   3.008   6.572 -0.4375 -0.3116  0.4349
   27CHL1  H21B 1978   3.566   2.983   6.751 -0.1052 -2.5332 -0.1918
   27CHL1  H21C 1979   3.651   2.865   6.661  1.7020  0.4004  0.0308
   27CHL1   C22 1980   3.823   3.101   6.561 -0.1004 -0.6353  0.2080
   27CHL1  H22A 1981   3.742   3.126   6.490  0.9334 -0.2676 -0.8728
   27CHL1  H22B 1982   3.889   3.189   6.577 -0.2612 -0.9668  3.3971
   27CHL1   C23 1983   3.900   2.987   6.494  0.4746  0.1149 -0.2018
   27CHL1  H23A 1984   3.976   2.945   6.563 -0.8011 -0.1481  1.0872
   27CHL1  H23B 1985   3.842   2.894   6.481  3.2995 -2.1346  1.8398
   27CHL1   C24 1986   3.970   3.024   6.365 -0.5128  0.0746  0.0871
   27CHL1  H24A 1987   3.898   3.054   6.287  0.2569 -0.2526 -0.7600
   27CHL1  H24B 1988   4.039   3.106   6.393 -0.4919 -0.1029  0.5792
   27CHL1   C25 1989   4.056   2.910   6.299 -0.6564 -0.1942  0.1821
   27CHL1   H25 1990   3.991   2.821   6.287  0.6637 -1.4245  1.5558
   27CHL1   C26 1991   4.090   2.940   6.157  0.5944  0.0928  0.5348
   27CHL1  H26A 1992   4.142   2.859   6.103  1.7258  0.9523  0.3103
   27CHL1  H26B 1993   3.998   2.960   6.097  0.7164  1.1097  0.6567
   27CHL1  H26C 1994   4.152   3.033   6.156  3.1237 -1.5043 -0.8922
   27CHL1   C27 1995   4.179   2.878   6.378  0.0389  0.4074 -0.0907
   27CHL1  H27A 1996   4.229   2.970   6.415 -0.3186 -0.0394  1.5587
   27CHL1  H27B 1997   4.150   2.827   6.472  2.1331  0.1744  0.4883
   27CHL1  H27C 1998   4.251   2.816   6.320 -0.3709  0.6251 -0.8383
   28CHL1    C3 1999   5.109   2.922   7.695 -0.4505  0.4677 -0.1971
   28CHL1    H3 2000   5.159   2.834   7.648  0.6825  1.8996 -1.8120
   28CHL1    O3 2001   5.110   2.935   7.838 -0.3742  0.1545 -0.7628
   28CHL1   H3' 2002   5.200   2.919   7.866 -0.6828 -0.3041  0.0080
   28CHL1    C4 2003   5.173   3.049   7.629 -0.7230 -0.1484  0.3780
   28CHL1   H4A 2004   5.142   3.143   7.681 -0.2516  0.8252 -1.0412
   28CHL1   H4B 2005   5.280   3.042   7.659 -0.4225 -0.0687 -0.6580
   28CHL1    C5 2006   5.154   3.076   7.483 -0.3526  0.0675 -0.8259
   28CHL1    C6 2007   5.262   3.082   7.407 -0.2000  0.3236 -0.4675
   28CHL1    H6 2008   5.357   3.073   7.462 -0.7738  1.7656  0.8438
   28CHL1    C7 2009   5.246   3.108   7.257  0.4679  0.3488 -0.3036
   28CHL1   H7A 2010   5.318   3.187   7.225  1.3389 -0.0831  0.5274
   28CHL1   H7B 2011   5.286   3.017   7.207  2.2929  0.4879  0.7723
   28CHL1    C8 2012   5.098   3.149   7.215  0.7067  0.1973  0.8757
   28CHL1    H8 2013   5.084   3.257   7.233  0.0336  0.0366  1.3362
   28CHL1   C14 2014   5.081   3.122   7.065  0.1629 -0.2941  0.8257
   28CHL1   H14 2015   5.085   3.011   7.061  0.2195 -0.2580 -1.7458
   28CHL1   C15 2016   5.201   3.167   6.973  0.3621  0.1463  0.4929
   28CHL1  H15A 2017   5.232   3.267   7.013  0.7139  0.6678 -1.0041
   28CHL1  H15B 2018   5.287   3.097   6.967  0.2725  0.0759 -0.0186
   28CHL1   C16 2019   5.129   3.172   6.836 -0.1506  0.0329  0.0507
   28CHL1  H16A 2020   5.138   3.275   6.795 -0.9330 -0.5568 -1.7333
   28CHL1  H16B 2021   5.180   3.101   6.768 -0.6044 -1.9729  1.7093
   28CHL1   C17 2022   4.976   3.123   6.862  0.4469  0.5824 -0.8355
   28CHL1   H17 2023   4.983   3.012   6.854  1.1983  0.5638 -0.0744
   28CHL1   C13 2024   4.942   3.159   7.008 -0.3040  0.2980  0.3006
   28CHL1   C18 2025   4.914   3.309   7.011  0.6144 -0.3341 -0.3954
   28CHL1  H18A 2026   4.929   3.359   7.109 -0.0391 -0.8662 -0.0151
   28CHL1  H18B 2027   4.984   3.367   6.947  1.8319 -0.3011  0.9271
   28CHL1  H18C 2028   4.809   3.318   6.975  0.5845 -0.6969 -0.4048
   28CHL1   C12 2029   4.824   3.084   7.079  0.1250 -0.0631 -0.4024
   28CHL1  H12A 2030   4.731   3.136   7.047  0.9730  2.1728  0.5314
   28CHL1  H12B 2031   4.828   2.976   7.057  2.6822  0.2839 -2.1210
   28CHL1   C11 2032   4.845   3.103   7.230  0.0578  0.4040 -1.1201
   28CHL1  H11A 2033   4.822   3.210   7.247 -1.2158  0.4740 -3.1026
   28CHL1  H11B 2034   4.763   3.053   7.286  0.0671  2.0116  0.4380
   28CHL1    C9 2035   4.990   3.068   7.286  0.3911  0.1997  0.3777
   28CHL1    H9 2036   5.006   2.963   7.252  0.7330  0.4468 -0.2314
   28CHL1   C10 2037   5.006   3.067   7.438 -0.2662 -0.4230 -0.2003
   28CHL1   C19 2038   4.929   3.181   7.493 -0.0092  0.8351  0.7558
   28CHL1  H19A 2039   4.930   3.196   7.604  0.5746  5.1346  0.3547
   28CHL1  H19B 2040   4.952   3.281   7.451  0.8820  0.3503  0.0771
   28CHL1  H19C 2041   4.822   3.169   7.466  0.4177  1.1723 -1.2115
   28CHL1    C1 2042   4.940   2.933   7.496 -0.0201 -0.0534 -0.4164
   28CHL1   H1A 2043   4.829   2.927   7.486  0.1329 -1.8538 -1.4102
   28CHL1   H1B 2044   4.980   2.850   7.434  0.4477  0.0616 -0.2683
   28CHL1    C2 2045   4.961   2.902   7.649  0.0901 -0.0691  0.4490
   28CHL1   H2A 2046   4.939   2.796   7.677  1.1005 -0.5981 -0.6923
   28CHL1   H2B 2047   4.903   2.977   7.707 -0.6704 -1.4969  1.6267
   28CHL1   C20 2048   4.874   3.165   6.749 -0.2002  0.1795  0.1808
   28CHL1   H20 2049   4.875   3.276   6.747 -0.4940  0.1733 -0.5674
   28CHL1   C21 2050   4.732   3.124   6.761 -0.0751 -0.0627  0.4987
   28CHL1  H21A 2051   4.750   3.017   6.782  2.2994 -0.2356 -1.7831
   28CHL1  H21B 2052   4.674   3.147   6.669 -0.2150  1.6979  0.9878
   28CHL1  H21C 2053   4.681   3.190   6.834  1.2548  0.2512  1.1753
   28CHL1   C22 2054   4.922   3.123   6.600  0.3975  0.5454  0.7989
   28CHL1  H22A 2055   4.856   3.166   6.522  0.3271 -0.8409  0.0613
   28CHL1  H22B 2056   5.021   3.173   6.585  2.1059 -3.0387 -1.3302
   28CHL1   C23 2057   4.957   2.972   6.580 -0.2906 -0.1975 -0.0209
   28CHL1  H23A 2058   5.048   2.940   6.634 -0.0967 -2.7626 -1.7051
   28CHL1  H23B 2059   4.873   2.914   6.626 -2.7833 -0.5330 -4.4272
   28CHL1   C24 2060   4.963   2.944   6.431  0.6445 -0.3252  0.2167
   28CHL1  H24A 2061   4.862   2.969   6.391  0.1774  2.8780  2.9472
   28CHL1  H24B 2062   5.042   3.001   6.380  1.3008 -0.7812  0.7078
   28CHL1   C25 2063   4.983   2.791   6.398 -0.2975 -0.5140 -0.8045
   28CHL1   H25 2064   4.888   2.739   6.422 -1.8507  1.5885 -1.9421
   28CHL1   C26 2065   5.003   2.780   6.251 -0.5242  0.6138  0.2734
   28CHL1  H26A 2066   4.912   2.818   6.200 -1.4032 -0.5415  0.9424
   28CHL1  H26B 2067   5.081   2.851   6.215  0.2155 -1.0216 -1.5091
   28CHL1  H26C 2068   5.022   2.675   6.221  0.7461  0.7557  0.5017
   28CHL1   C27 2069   5.098   2.732   6.468 -0.0332 -0.2909 -0.3259
   28CHL1  H27A 2070   5.185   2.801   6.477  1.5327 -2.3571  1.1002
   28CHL1  H27B 2071   5.066   2.706   6.571  0.2155  1.1980  0.1602
   28CHL1  H27C 2072   5.136   2.639   6.422  2.6494 -0.8835  2.7173
   29CHL1    C3 2073   4.704   5.740   4.378 -0.4316 -0.0024 -0.0415
   29CHL1    H3 2074   4.633   5.824   4.393  0.4020  1.1495 -2.1302
   29CHL1    O3 2075   4.745   5.715   4.245 -0.3021  0.0503  0.0899
   29CHL1   H3' 2076   4.809   5.785   4.226 -0.1385 -0.2229 -0.3782
   29CHL1    C4 2077   4.829   5.745   4.466  0.2215  0.2724  0.2073
   29CHL1   H4A 2078   4.894   5.658   4.445 -3.3248 -3.5728  3.4022
   29CHL1   H4B 2079   4.880   5.838   4.432 -0.8389  0.7413 -0.1559
   29CHL1    C5 2080   4.814   5.748   4.619 -0.1948  0.2328  0.8992
   29CHL1    C6 2081   4.859   5.849   4.693  0.8119  0.4863 -0.0761
   29CHL1    H6 2082   4.903   5.942   4.654  1.6181 -0.0124 -0.3794
   29CHL1    C7 2083   4.849   5.839   4.845 -0.4765 -0.7107  1.0602
   29CHL1   H7A 2084   4.943   5.886   4.881  0.3004 -1.3691 -0.0690
   29CHL1   H7B 2085   4.766   5.910   4.869 -0.3773 -0.1090 -0.3065
   29CHL1    C8 2086   4.816   5.695   4.893  0.4346  0.4755 -0.1343
   29CHL1    H8 2087   4.903   5.626   4.881  0.7674  0.4181  2.0617
   29CHL1   C14 2088   4.771   5.700   5.042 -0.1114 -0.3408 -0.2671
   29CHL1   H14 2089   4.689   5.773   5.028  0.0651 -0.2470 -0.8217
   29CHL1   C15 2090   4.875   5.751   5.142  1.1658 -0.3066  0.1867
   29CHL1  H15A 2091   4.974   5.700   5.143  1.0115 -0.6067  0.7157
   29CHL1  H15B 2092   4.876   5.862   5.147 -1.0624 -0.3038  2.2471
   29CHL1   C16 2093   4.815   5.700   5.278  0.0946 -0.5767 -0.4263
   29CHL1  H16A 2094   4.881   5.617   5.309  0.5999 -0.0731 -0.1350
   29CHL1  H16B 2095   4.807   5.765   5.367  0.0136  0.4304 -1.1408
   29CHL1   C17 2096   4.686   5.619   5.246  0.0900 -0.3941  0.3204
   29CHL1   H17 2097   4.597   5.686   5.247 -0.2639 -0.7765  3.0480
   29CHL1   C13 2098   4.705   5.572   5.096 -0.1680  0.0464 -0.9392
   29CHL1   C18 2099   4.805   5.458   5.092  0.4762 -0.3061 -0.5111
   29CHL1  H18A 2100   4.748   5.378   5.142 -0.3877  1.7600  1.9914
   29CHL1  H18B 2101   4.839   5.443   4.987 -0.3564  1.1389 -1.0200
   29CHL1  H18C 2102   4.897   5.484   5.149 -1.0695  0.0761  1.9064
   29CHL1   C12 2103   4.570   5.557   5.018  0.2577 -0.2769 -0.5393
   29CHL1  H12A 2104   4.516   5.463   5.043  0.2850 -0.6678 -1.8850
   29CHL1  H12B 2105   4.514   5.651   5.038 -0.9636 -1.0543 -0.2396
   29CHL1   C11 2106   4.597   5.544   4.872  0.0285  0.1592  0.5696
   29CHL1  H11A 2107   4.648   5.446   4.860 -1.5487 -0.5271 -0.8933
   29CHL1  H11B 2108   4.500   5.536   4.819  0.0463 -3.1496  0.8596
   29CHL1    C9 2109   4.689   5.656   4.808  0.2644 -0.0645 -0.1413
   29CHL1    H9 2110   4.616   5.738   4.828  1.1903  0.2937  2.0845
   29CHL1   C10 2111   4.731   5.634   4.663 -0.0242 -0.1584 -1.0316
   29CHL1   C19 2112   4.809   5.502   4.653  0.1368  0.2138 -0.5705
   29CHL1  H19A 2113   4.756   5.412   4.691 -1.7402  2.2657  2.0464
   29CHL1  H19B 2114   4.829   5.471   4.548  1.8045 -0.4706 -0.0900
   29CHL1  H19C 2115   4.910   5.501   4.699  0.8870 -0.5110 -2.1310
   29CHL1    C1 2116   4.605   5.618   4.574 -0.0334  0.0150  0.4897
   29CHL1   H1A 2117   4.544   5.532   4.608  1.8247 -1.1930  0.9050
   29CHL1   H1B 2118   4.535   5.705   4.582  1.4256  1.2318  0.4274
   29CHL1    C2 2119   4.623   5.614   4.419 -0.2542 -0.0889 -0.0966
   29CHL1   H2A 2120   4.524   5.610   4.368 -0.7109 -0.9882  0.8193
   29CHL1   H2B 2121   4.679   5.520   4.399  0.1523  0.4306 -1.4632
   29CHL1   C20 2122   4.664   5.513   5.356  1.3490  0.3791  0.3724
   29CHL1   H20 2123   4.745   5.436   5.354  0.6443 -0.3656 -0.2793
   29CHL1   C21 2124   4.537   5.420   5.324 -0.0085 -0.6261  0.6799
   29CHL1  H21A 2125   4.515   5.356   5.411 -0.1442  0.1389  1.2197
   29CHL1  H21B 2126   4.547   5.359   5.231  1.1585 -1.8042  1.5522
   29CHL1  H21C 2127   4.446   5.484   5.312 -0.7923 -1.9448 -0.7562
   29CHL1   C22 2128   4.654   5.569   5.499 -0.2616 -0.0173 -0.5126
   29CHL1  H22A 2129   4.753   5.613   5.525 -1.0700  1.3420  0.3555
   29CHL1  H22B 2130   4.586   5.656   5.504  1.3527  1.2716 -0.0919
   29CHL1   C23 2131   4.624   5.477   5.617 -0.1980  0.4715  0.8810
   29CHL1  H23A 2132   4.528   5.422   5.609  0.8751 -1.3783  0.1534
   29CHL1  H23B 2133   4.709   5.408   5.639  0.7246  0.0873 -3.0953
   29CHL1   C24 2134   4.615   5.578   5.737 -0.0500 -0.5408 -0.0047
   29CHL1  H24A 2135   4.704   5.642   5.719 -0.6136 -0.0361 -1.0941
   29CHL1  H24B 2136   4.523   5.638   5.723  0.4888  0.1313 -0.7827
   29CHL1   C25 2137   4.615   5.523   5.877  0.6599 -0.0685  0.9375
   29CHL1   H25 2138   4.721   5.498   5.899  1.1790  1.9829  0.9256
   29CHL1   C26 2139   4.575   5.618   5.984  0.5066  0.8488  0.3837
   29CHL1  H26A 2140   4.594   5.561   6.078  1.4446 -1.0473 -0.8899
   29CHL1  H26B 2141   4.626   5.717   5.985 -0.3946  1.3437 -0.5303
   29CHL1  H26C 2142   4.466   5.638   5.978  0.5129  1.0895  0.9791
   29CHL1   C27 2143   4.525   5.395   5.885 -0.5115 -0.0906  0.0474
   29CHL1  H27A 2144   4.549   5.357   5.987 -1.7093  1.6021  1.0045
   29CHL1  H27B 2145   4.421   5.433   5.886 -0.5345 -0.1472 -0.1263
   29CHL1  H27C 2146   4.545   5.324   5.802 -1.0654 -0.3261  0.1099
   30CHL1    C3 2147   3.518   6.200   4.671  0.4059  0.0713 -0.6932
   30CHL1    H3 2148   3.439   6.271   4.703  0.1364  0.0253 -1.2417
   30CHL1    O3 2149   3.527   6.211   4.529  0.3743 -0.8051  0.1772
   30CHL1   H3' 2150   3.596   6.146   4.515  0.3237 -0.8346  0.0658
   30CHL1    C4 2151   3.657   6.239   4.741 -0.2033  0.1610  0.3785
   30CHL1   H4A 2152   3.742   6.181   4.700 -0.8992 -0.9095  0.3855
   30CHL1   H4B 2153   3.676   6.341   4.701 -2.8614  0.7827  0.4845
   30CHL1    C5 2154   3.644   6.243   4.891 -0.2794 -0.3190 -0.1116
   30CHL1    C6 2155   3.672   6.349   4.965  0.2219 -0.4174  0.3149
   30CHL1    H6 2156   3.713   6.440   4.919 -1.5368 -1.1020 -2.9131
   30CHL1    C7 2157   3.658   6.368   5.110  0.0250 -0.0473 -0.0077
   30CHL1   H7A 2158   3.747   6.425   5.144 -0.4043 -0.2861  1.6168
   30CHL1   H7B 2159   3.559   6.414   5.129  0.0042 -0.5378  1.1445
   30CHL1    C8 2160   3.658   6.224   5.171  0.2746 -0.4857  0.3797
   30CHL1    H8 2161   3.757   6.173   5.165 -0.3044 -1.8128  1.6010
   30CHL1   C14 2162   3.623   6.234   5.321 -0.2686 -0.1114  0.1770
   30CHL1   H14 2163   3.527   6.289   5.325  0.6543  1.6737 -0.9760
   30CHL1   C15 2164   3.717   6.316   5.413 -0.4589  0.0777  0.1393
   30CHL1  H15A 2165   3.824   6.310   5.383 -0.6723  0.3672 -0.7188
   30CHL1  H15B 2166   3.698   6.425   5.404 -1.1921 -0.0532  0.0120
   30CHL1   C16 2167   3.693   6.258   5.556 -0.1303  0.5887  0.3821
   30CHL1  H16A 2168   3.788   6.229   5.607 -0.3180 -0.5118  0.1229
   30CHL1  H16B 2169   3.636   6.332   5.618  0.2386  4.0016 -2.9825
   30CHL1   C17 2170   3.588   6.140   5.538  0.3087 -0.3045  0.3468
   30CHL1   H17 2171   3.486   6.182   5.552  0.0058 -1.2475  1.0745
   30CHL1   C13 2172   3.597   6.100   5.385  0.7536  0.5841  0.3861
   30CHL1   C18 2173   3.724   6.006   5.368 -0.2102 -0.4814 -0.1791
   30CHL1  H18A 2174   3.819   6.062   5.379  0.1140 -0.7082 -1.5493
   30CHL1  H18B 2175   3.726   5.911   5.426 -3.2321 -0.8856 -0.5681
   30CHL1  H18C 2176   3.733   5.976   5.261  2.8231 -0.9156  0.0921
   30CHL1   C12 2177   3.472   6.045   5.322  0.6267 -0.4460  0.7982
   30CHL1  H12A 2178   3.433   5.949   5.362 -1.8323  1.3280  3.1275
   30CHL1  H12B 2179   3.385   6.115   5.332  0.1489 -0.7004 -1.1175
   30CHL1   C11 2180   3.489   6.025   5.170 -0.1231 -0.2619  0.5598
   30CHL1  H11A 2181   3.556   5.936   5.165 -1.3444 -1.4219  3.0872
   30CHL1  H11B 2182   3.387   5.992   5.138  0.7788  0.1689 -3.2334
   30CHL1    C9 2183   3.546   6.145   5.096 -0.0073  0.4823 -0.1299
   30CHL1    H9 2184   3.465   6.220   5.089 -0.2526  0.2112 -0.2278
   30CHL1   C10 2185   3.585   6.113   4.952 -0.1184  0.2684  0.0888
   30CHL1   C19 2186   3.691   6.002   4.950 -0.7122  0.4447 -0.4954
   30CHL1  H19A 2187   3.784   6.033   5.003 -1.7374  0.0675  1.6377
   30CHL1  H19B 2188   3.653   5.910   5.000  0.6624  0.3099  0.3503
   30CHL1  H19C 2189   3.717   5.978   4.845 -0.4331  1.1807 -0.6000
   30CHL1    C1 2190   3.460   6.065   4.872 -0.5622  0.0855 -0.4376
   30CHL1   H1A 2191   3.448   5.959   4.903 -0.5542  0.4921  1.0075
   30CHL1   H1B 2192   3.370   6.128   4.890 -1.3504 -1.2927  0.6948
   30CHL1    C2 2193   3.470   6.063   4.717 -0.1598 -0.0908 -0.6504
   30CHL1   H2A 2194   3.379   6.044   4.656 -0.2849  0.1801 -0.5480
   30CHL1   H2B 2195   3.547   5.989   4.687 -0.4268 -1.6906  2.2287
   30CHL1   C20 2196   3.609   6.018   5.630  0.1645 -0.5979 -0.3763
   30CHL1   H20 2197   3.708   5.966   5.630 -0.6438 -2.2319 -1.6280
   30CHL1   C21 2198   3.500   5.908   5.603  0.0322  0.0691 -0.2677
   30CHL1  H21A 2199   3.523   5.834   5.523  0.9862  0.8721 -0.7514
   30CHL1  H21B 2200   3.406   5.958   5.574 -0.1886 -0.5196 -0.5857
   30CHL1  H21C 2201   3.469   5.848   5.691 -1.3891  0.0460 -0.7662
   30CHL1   C22 2202   3.584   6.075   5.775 -0.5592  0.4339  0.3365
   30CHL1  H22A 2203   3.644   6.167   5.788  0.1511 -0.0589  0.6328
   30CHL1  H22B 2204   3.480   6.112   5.777 -0.8265  0.0013 -2.0867
   30CHL1   C23 2205   3.608   5.974   5.887  0.5799  0.0784 -0.0026
   30CHL1  H23A 2206   3.525   5.900   5.884  1.3382 -0.7846 -0.1706
   30CHL1  H23B 2207   3.700   5.914   5.868 -0.3053 -0.6732 -2.3761
   30CHL1   C24 2208   3.620   6.042   6.021  0.0607  0.2335  0.7016
   30CHL1  H24A 2209   3.657   5.968   6.096  0.5278  3.1993  3.6324
   30CHL1  H24B 2210   3.699   6.119   6.013 -0.8691  0.9895 -2.2224
   30CHL1   C25 2211   3.492   6.109   6.072 -1.0629  0.3861  0.6403
   30CHL1   H25 2212   3.474   6.194   6.002  1.3702 -0.4477 -1.1245
   30CHL1   C26 2213   3.366   6.019   6.063  0.0526  0.4512  0.4372
   30CHL1  H26A 2214   3.270   6.070   6.086 -0.2042 -0.8304  2.4308
   30CHL1  H26B 2215   3.353   5.987   5.958  1.1760 -0.1027  0.4483
   30CHL1  H26C 2216   3.367   5.925   6.123  0.7663 -0.6247 -1.1882
   30CHL1   C27 2217   3.516   6.164   6.212  1.4034  0.1205  0.1526
   30CHL1  H27A 2218   3.611   6.222   6.206  2.8787 -2.3135 -1.4636
   30CHL1  H27B 2219   3.429   6.220   6.251 -0.2265 -2.2166  0.0624
   30CHL1  H27C 2220   3.531   6.079   6.282 -2.5401 -0.1654  0.8929
   31CHL1    C3 2221   4.522   1.144   4.840  0.7408 -0.5081 -0.1345
   31CHL1    H3 2222   4.523   1.255   4.838 -0.5382 -0.3277  3.0094
   31CHL1    O3 2223   4.559   1.092   4.713 -0.3516 -0.1601 -0.0059
   31CHL1   H3' 2224   4.503   1.148   4.659 -1.1195 -0.7268  0.1950
   31CHL1    C4 2225   4.617   1.088   4.955 -0.1444  0.9173  0.3712
   31CHL1   H4A 2226   4.615   0.977   4.954  1.3203  0.8816  0.1518
   31CHL1   H4B 2227   4.721   1.114   4.928 -0.1228  0.7679  0.3119
   31CHL1    C5 2228   4.577   1.123   5.095  0.1484  0.4057  0.3204
   31CHL1    C6 2229   4.656   1.185   5.174  0.2459 -1.0797 -0.2727
   31CHL1    H6 2230   4.758   1.221   5.152  0.2822  0.7497  2.4079
   31CHL1    C7 2231   4.623   1.215   5.316 -0.2158  0.1143  0.7898
   31CHL1   H7A 2232   4.710   1.185   5.378  0.3339 -0.2591 -0.1276
   31CHL1   H7B 2233   4.613   1.325   5.307 -2.3138  0.0169  1.5401
   31CHL1    C8 2234   4.489   1.148   5.362  0.1173  0.8420  0.3166
   31CHL1    H8 2235   4.512   1.041   5.380  0.1986  0.3290 -2.3655
   31CHL1   C14 2236   4.438   1.212   5.483  0.2286  0.2296  0.2437
   31CHL1   H14 2237   4.435   1.314   5.441  3.1269 -0.4533 -1.9410
   31CHL1   C15 2238   4.539   1.224   5.599  0.2721  0.7900 -0.7936
   31CHL1  H15A 2239   4.588   1.124   5.606 -1.3116  0.0696  0.9634
   31CHL1  H15B 2240   4.618   1.302   5.587 -1.0202  2.7068  2.0894
   31CHL1   C16 2241   4.446   1.239   5.720  0.0567 -0.1236 -0.4073
   31CHL1  H16A 2242   4.473   1.159   5.792 -1.4136 -1.5954 -1.4271
   31CHL1  H16B 2243   4.472   1.340   5.758  1.8686 -0.3239 -1.0136
   31CHL1   C17 2244   4.300   1.237   5.664 -1.2154 -0.1041 -0.1460
   31CHL1   H17 2245   4.284   1.343   5.634  2.4055  1.2220  1.9037
   31CHL1   C13 2246   4.310   1.159   5.535  0.6080 -0.1243 -0.2015
   31CHL1   C18 2247   4.311   1.011   5.569 -0.0876 -0.1258  0.4941
   31CHL1  H18A 2248   4.361   0.987   5.665 -0.5356 -2.3234  0.2359
   31CHL1  H18B 2249   4.206   0.973   5.574 -0.4822  0.3409 -2.3162
   31CHL1  H18C 2250   4.361   0.944   5.496 -0.9395 -0.8813  0.5743
   31CHL1   C12 2251   4.211   1.194   5.423  0.1176 -0.5543 -0.0652
   31CHL1  H12A 2252   4.107   1.160   5.442  0.2105 -1.6704 -1.3602
   31CHL1  H12B 2253   4.208   1.304   5.406 -0.5583 -0.9514 -3.1072
   31CHL1   C11 2254   4.248   1.123   5.298 -0.0338 -0.9659  0.5161
   31CHL1  H11A 2255   4.233   1.015   5.320  1.3790 -1.1596  0.5664
   31CHL1  H11B 2256   4.176   1.164   5.224  0.3754 -0.2344  0.5133
   31CHL1    C9 2257   4.384   1.156   5.251  0.6827 -0.3476 -0.9888
   31CHL1    H9 2258   4.389   1.266   5.239  0.1330 -0.2633 -0.4784
   31CHL1   C10 2259   4.426   1.087   5.119 -0.5170  0.0540 -0.0426
   31CHL1   C19 2260   4.413   0.931   5.143 -0.1972  0.4230 -0.0548
   31CHL1  H19A 2261   4.436   0.885   5.045  0.5599  1.5240 -0.4179
   31CHL1  H19B 2262   4.486   0.894   5.218 -0.5082  1.1205  0.6059
   31CHL1  H19C 2263   4.308   0.905   5.168 -0.7213 -0.5376 -2.8538
   31CHL1    C1 2264   4.328   1.116   5.004 -0.0968 -0.0549 -0.6407
   31CHL1   H1A 2265   4.228   1.071   5.022  0.4486 -1.7726 -1.6029
   31CHL1   H1B 2266   4.326   1.227   4.999 -0.3827  0.0507  1.1763
   31CHL1    C2 2267   4.385   1.082   4.862 -0.4689  0.3428 -0.4011
   31CHL1   H2A 2268   4.315   1.128   4.789  0.2840 -0.4419 -1.6451
   31CHL1   H2B 2269   4.383   0.971   4.858 -2.9740  0.2768  0.3836
   31CHL1   C20 2270   4.208   1.191   5.783 -0.2744  0.1945  0.5375
   31CHL1   H20 2271   4.221   1.085   5.813 -0.1622 -0.3756 -1.3682
   31CHL1   C21 2272   4.062   1.201   5.727 -0.2682  0.1966  0.3319
   31CHL1  H21A 2273   4.052   1.309   5.704  0.4428  0.1873 -0.0476
   31CHL1  H21B 2274   3.992   1.170   5.809 -0.2527 -1.4273 -0.2298
   31CHL1  H21C 2275   4.061   1.131   5.642  2.4995  2.0907 -1.4164
   31CHL1   C22 2276   4.224   1.285   5.906 -0.1926  0.7239 -0.2452
   31CHL1  H22A 2277   4.330   1.299   5.939 -1.0464  3.8733  1.5155
   31CHL1  H22B 2278   4.189   1.388   5.887  3.2583  3.1324  4.3785
   31CHL1   C23 2279   4.148   1.243   6.034  0.4112  0.1812  0.6818
   31CHL1  H23A 2280   4.040   1.244   6.009  0.5563  1.1299  0.0407
   31CHL1  H23B 2281   4.176   1.139   6.063  1.7967 -0.3144 -2.0571
   31CHL1   C24 2282   4.182   1.342   6.143  0.2339  1.0537 -0.0231
   31CHL1  H24A 2283   4.293   1.343   6.147  0.1977  1.3836  1.8624
   31CHL1  H24B 2284   4.144   1.443   6.118 -3.3501 -0.1917 -0.1971
   31CHL1   C25 2285   4.131   1.296   6.286 -0.2208 -0.0275  0.1778
   31CHL1   H25 2286   4.150   1.188   6.300 -0.6059 -0.0573  0.4751
   31CHL1   C26 2287   4.201   1.368   6.397  0.0804  0.9505 -1.3024
   31CHL1  H26A 2288   4.175   1.348   6.503 -0.3111 -0.7192 -1.6860
   31CHL1  H26B 2289   4.310   1.351   6.385  0.6116  3.0387  0.0191
   31CHL1  H26C 2290   4.182   1.478   6.391 -1.3805  0.8773  0.9358
   31CHL1   C27 2291   3.979   1.325   6.272  0.1643 -0.4112  0.4204
   31CHL1  H27A 2292   3.939   1.268   6.186  0.5745  0.5500 -0.4445
   31CHL1  H27B 2293   3.933   1.285   6.365 -1.2614  0.5279  0.1485
   31CHL1  H27C 2294   3.958   1.433   6.253 -0.1077 -0.4366  0.5712
   32CHL1    C3 2295   6.166   1.836   7.944  0.3298 -0.2819 -0.5771
   32CHL1    H3 2296   6.192   1.941   7.921  1.7821 -0.2301  1.1035
   32CHL1    O3 2297   6.173   1.827   8.084 -0.1752  0.2404 -0.1702
   32CHL1   H3' 2298   6.125   1.747   8.105 -2.0544  1.0808 -1.0937
   32CHL1    C4 2299   6.016   1.806   7.909 -0.2948 -0.1231 -0.2029
   32CHL1   H4A 2300   6.000   1.699   7.936 -0.3844 -0.4632 -1.5084
   32CHL1   H4B 2301   5.963   1.885   7.966  1.0741  0.8854 -0.2778
   32CHL1    C5 2302   5.996   1.827   7.756  0.5165  0.7013  0.3264
   32CHL1    C6 2303   5.908   1.920   7.706  0.1831  0.0005  0.3212
   32CHL1    H6 2304   5.845   1.982   7.773 -2.1720 -1.2933 -0.5734
   32CHL1    C7 2305   5.885   1.943   7.560 -0.0182  0.2606  0.6946
   32CHL1   H7A 2306   5.777   1.959   7.541  0.3878  1.1263 -1.0349
   32CHL1   H7B 2307   5.941   2.030   7.520 -3.0108  0.9033 -2.5733
   32CHL1    C8 2308   5.938   1.820   7.474 -0.4506  0.1328  0.2351
   32CHL1    H8 2309   5.860   1.741   7.480  1.0505 -1.4254  0.0891
   32CHL1   C14 2310   5.946   1.851   7.328 -1.4014 -0.9904  0.2508
   32CHL1   H14 2311   6.028   1.924   7.311 -0.5863 -2.1291 -1.0587
   32CHL1   C15 2312   5.830   1.935   7.263 -0.1042 -0.7084 -0.2546
   32CHL1  H15A 2313   5.730   1.893   7.285 -0.2199 -1.5406 -2.1786
   32CHL1  H15B 2314   5.838   2.041   7.296  1.5725 -0.9824  0.2994
   32CHL1   C16 2315   5.859   1.915   7.115  0.8071 -0.7473 -0.2498
   32CHL1  H16A 2316   5.775   1.875   7.055 -1.6791  2.2666  0.8828
   32CHL1  H16B 2317   5.892   2.017   7.084  0.9486  0.3340  3.0567
   32CHL1   C17 2318   5.979   1.816   7.096  0.4379 -0.1677  0.5252
   32CHL1   H17 2319   6.078   1.867   7.102 -0.7336  2.0627  3.5886
   32CHL1   C13 2320   5.986   1.744   7.227 -0.3004  0.8549  0.1749
   32CHL1   C18 2321   5.885   1.636   7.239 -0.5843  0.2376  0.8447
   32CHL1  H18A 2322   5.872   1.596   7.342 -1.7769  4.1633  2.4101
   32CHL1  H18B 2323   5.789   1.677   7.201  0.9659  1.0690 -2.5710
   32CHL1  H18C 2324   5.920   1.551   7.176  0.2519  2.2786 -1.6478
   32CHL1   C12 2325   6.127   1.701   7.273  0.2114  0.3960  0.0084
   32CHL1  H12A 2326   6.150   1.613   7.210 -3.0600 -0.6775  0.1291
   32CHL1  H12B 2327   6.194   1.789   7.259 -1.5049  1.7074 -0.3163
   32CHL1   C11 2328   6.136   1.662   7.415  0.1779 -0.0217 -0.1630
   32CHL1  H11A 2329   6.083   1.566   7.424  1.2665 -0.5049  1.5386
   32CHL1  H11B 2330   6.240   1.633   7.443  1.1799  1.7667 -1.7458
   32CHL1    C9 2331   6.076   1.767   7.516 -0.5871 -0.3177 -0.3659
   32CHL1    H9 2332   6.146   1.853   7.509 -0.1038 -0.6968 -0.1820
   32CHL1   C10 2333   6.084   1.729   7.671 -0.0415  0.4332  0.5827
   32CHL1   C19 2334   6.045   1.579   7.690  1.0860 -1.0398 -0.0911
   32CHL1  H19A 2335   6.122   1.514   7.644  0.1724 -0.9188 -1.8560
   32CHL1  H19B 2336   6.031   1.549   7.796  0.0044 -0.6825 -0.1121
   32CHL1  H19C 2337   5.946   1.564   7.643  0.1446 -0.5327  1.6165
   32CHL1    C1 2338   6.234   1.755   7.718  0.0610  0.2535 -0.3574
   32CHL1   H1A 2339   6.292   1.676   7.665 -0.9193 -1.7097  1.3624
   32CHL1   H1B 2340   6.264   1.856   7.682 -0.5932 -0.1916 -2.2887
   32CHL1    C2 2341   6.250   1.733   7.868  0.6041  0.4769  0.6276
   32CHL1   H2A 2342   6.352   1.753   7.907  2.0147 -5.0684  0.5200
   32CHL1   H2B 2343   6.212   1.634   7.903  0.1449  0.3855 -0.1202
   32CHL1   C20 2344   5.974   1.736   6.960 -0.0100 -0.7055  0.4547
   32CHL1   H20 2345   5.879   1.680   6.950 -1.2924  0.9819  2.5113
   32CHL1   C21 2346   6.087   1.629   6.947 -0.1127 -0.4024  0.1196
   32CHL1  H21A 2347   6.072   1.557   7.029 -0.1943 -2.2230 -1.4254
   32CHL1  H21B 2348   6.186   1.677   6.963  0.5340 -1.8519  0.5702
   32CHL1  H21C 2349   6.091   1.567   6.854  0.0508 -3.9278  2.3052
   32CHL1   C22 2350   5.980   1.840   6.848 -0.0826  0.2915  0.1354
   32CHL1  H22A 2351   5.924   1.933   6.871 -0.4106 -0.0747  0.8628
   32CHL1  H22B 2352   6.087   1.869   6.844 -0.0344 -0.0245 -1.4847
   32CHL1   C23 2353   5.947   1.798   6.705  0.6402 -0.2533  0.6487
   32CHL1  H23A 2354   6.033   1.735   6.673  1.3527  0.6797  0.7060
   32CHL1  H23B 2355   5.863   1.725   6.708  1.7586 -1.6748 -0.7969
   32CHL1   C24 2356   5.910   1.915   6.612  0.0927 -0.4297 -0.3067
   32CHL1  H24A 2357   5.804   1.946   6.625 -0.2415 -1.3955 -0.5612
   32CHL1  H24B 2358   5.981   1.998   6.630  0.4088 -1.1815  2.3502
   32CHL1   C25 2359   5.938   1.880   6.467 -0.2176  0.2191  0.3460
   32CHL1   H25 2360   6.038   1.838   6.446 -0.8566 -0.5811 -1.2779
   32CHL1   C26 2361   5.837   1.781   6.409 -0.7467  0.2006 -0.3664
   32CHL1  H26A 2362   5.820   1.691   6.473  3.2143 -0.2578  0.2742
   32CHL1  H26B 2363   5.743   1.839   6.408 -0.0958  1.2603 -1.0928
   32CHL1  H26C 2364   5.864   1.748   6.307  0.3468 -2.5834  0.7203
   32CHL1   C27 2365   5.930   2.005   6.381  0.2382  0.2660  0.2321
   32CHL1  H27A 2366   5.948   1.981   6.274  0.9426  0.9645  0.1794
   32CHL1  H27B 2367   5.831   2.053   6.393 -0.0296 -0.1023 -0.4816
   32CHL1  H27C 2368   6.014   2.072   6.411  0.4220 -0.7174  2.0960
   33CHL1    C3 2369   0.048   4.238   4.247  0.0106 -0.5188 -0.0835
   33CHL1    H3 2370   0.093   4.142   4.278 -0.0792 -0.6546 -0.3688
   33CHL1    O3 2371   0.020   4.220   4.108 -0.0369  0.2937 -0.7098
   33CHL1   H3' 2372  -0.044   4.149   4.097  1.2781 -1.0863  0.1248
   33CHL1    C4 2373  -0.084   4.274   4.322 -0.4151 -0.5177  0.1300
   33CHL1   H4A 2374  -0.123   4.364   4.270  0.9064  0.1762  0.2930
   33CHL1   H4B 2375  -0.144   4.181   4.311  0.2270 -1.0010  0.5742
   33CHL1    C5 2376  -0.058   4.292   4.471 -0.6875  0.0641  0.9857
   33CHL1    C6 2377  -0.126   4.220   4.559  0.5818  0.2077 -0.0067
   33CHL1    H6 2378  -0.204   4.148   4.532  0.5234 -0.1560  1.0603
   33CHL1    C7 2379  -0.101   4.228   4.706 -0.0837 -0.3632 -0.0366
   33CHL1   H7A 2380  -0.199   4.233   4.758  0.3468  0.4291  0.7109
   33CHL1   H7B 2381  -0.066   4.129   4.744  1.0681  0.4383  1.0462
   33CHL1    C8 2382  -0.010   4.346   4.751 -0.2095 -0.0603  0.5905
   33CHL1    H8 2383  -0.077   4.435   4.752 -1.8246 -1.2374  0.6543
   33CHL1   C14 2384   0.043   4.332   4.895  0.0327 -0.3901  0.4280
   33CHL1   H14 2385   0.124   4.258   4.876  2.4305  2.6062 -2.1841
   33CHL1   C15 2386  -0.047   4.296   5.014 -0.1798  0.3382  0.4474
   33CHL1  H15A 2387  -0.148   4.337   4.993 -0.5154  0.1245  1.5706
   33CHL1  H15B 2388  -0.058   4.186   5.009 -0.8896  0.4529 -2.4238
   33CHL1   C16 2389   0.024   4.358   5.133 -0.4048  0.2371 -0.6165
   33CHL1  H16A 2390  -0.041   4.430   5.187  2.2102  0.9462  1.7514
   33CHL1  H16B 2391   0.039   4.276   5.206 -0.6133  0.9778  0.2707
   33CHL1   C17 2392   0.161   4.413   5.084  0.1699  0.0082 -0.0911
   33CHL1   H17 2393   0.233   4.328   5.083  1.1020  0.7801 -0.3568
   33CHL1   C13 2394   0.134   4.456   4.941  0.4235 -0.6282 -0.3279
   33CHL1   C18 2395   0.051   4.593   4.932 -0.2066 -0.1526  0.1923
   33CHL1  H18A 2396   0.111   4.675   4.979 -2.7209  1.3636  0.9499
   33CHL1  H18B 2397   0.027   4.621   4.828  1.5458  2.4793  0.3759
   33CHL1  H18C 2398  -0.041   4.577   4.992  0.3879 -0.0988  1.1567
   33CHL1   C12 2399   0.253   4.464   4.844 -0.5155 -0.1695  0.3078
   33CHL1  H12A 2400   0.332   4.536   4.875  0.7924 -0.4614 -2.0976
   33CHL1  H12B 2401   0.289   4.359   4.850  1.3627  0.3353 -1.2015
   33CHL1   C11 2402   0.214   4.487   4.695  0.4574  0.3174  0.1448
   33CHL1  H11A 2403   0.180   4.591   4.675 -1.3200 -0.6945 -2.8395
   33CHL1  H11B 2404   0.304   4.475   4.630 -0.5733  1.5769 -1.6271
   33CHL1    C9 2405   0.109   4.373   4.655  0.1167 -0.5487 -0.2225
   33CHL1    H9 2406   0.170   4.281   4.658  0.6790 -0.1700  0.2134
   33CHL1   C10 2407   0.061   4.389   4.508 -0.5401 -0.1115 -0.6353
   33CHL1   C19 2408   0.011   4.533   4.490  0.4506  0.0581  0.5491
   33CHL1  H19A 2409  -0.049   4.549   4.397 -0.5282  2.0077  1.4636
   33CHL1  H19B 2410  -0.051   4.565   4.576  1.9236  0.3443  1.5315
   33CHL1  H19C 2411   0.103   4.594   4.477  0.9374 -0.9834 -1.3456
   33CHL1    C1 2412   0.184   4.360   4.410  0.4359  0.6611  0.2638
   33CHL1   H1A 2413   0.274   4.424   4.422  0.5289  1.3528 -3.1925
   33CHL1   H1B 2414   0.230   4.264   4.441 -0.3778  0.4387  0.8052
   33CHL1    C2 2415   0.149   4.351   4.260  0.0379 -0.1232 -0.6057
   33CHL1   H2A 2416   0.240   4.331   4.199  1.0659 -0.7434  1.0507
   33CHL1   H2B 2417   0.111   4.449   4.224  1.7628  0.8533  0.0796
   33CHL1   C20 2418   0.227   4.508   5.187  0.0475 -0.5451 -0.4768
   33CHL1   H20 2419   0.167   4.600   5.173 -1.2347 -0.9983  1.5309
   33CHL1   C21 2420   0.377   4.526   5.156 -0.8066 -0.1053 -0.8073
   33CHL1  H21A 2421   0.419   4.428   5.127 -1.7907 -0.5999 -0.5788
   33CHL1  H21B 2422   0.429   4.556   5.249 -0.5814 -0.1353 -0.9220
   33CHL1  H21C 2423   0.412   4.603   5.083 -1.0188  0.5426 -0.2424
   33CHL1   C22 2424   0.216   4.462   5.338  0.6134  0.4542 -0.3942
   33CHL1  H22A 2425   0.117   4.422   5.369  1.8639  0.9512  5.2682
   33CHL1  H22B 2426   0.276   4.370   5.356  1.3460  1.3318  2.0072
   33CHL1   C23 2427   0.253   4.566   5.447 -0.5021 -0.3508 -0.3465
   33CHL1  H23A 2428   0.364   4.575   5.451 -0.5610  1.2064 -1.3835
   33CHL1  H23B 2429   0.206   4.662   5.419 -2.6201 -1.1023  0.4042
   33CHL1   C24 2430   0.211   4.525   5.586 -0.8252  0.0107  0.1254
   33CHL1  H24A 2431   0.100   4.529   5.596 -0.9971 -1.3911 -0.9642
   33CHL1  H24B 2432   0.239   4.418   5.592 -0.5360  0.0734 -0.1280
   33CHL1   C25 2433   0.308   4.590   5.693  0.3136  0.9319  0.6188
   33CHL1   H25 2434   0.413   4.571   5.661 -0.2303  2.2681 -2.2077
   33CHL1   C26 2435   0.279   4.737   5.716  0.1142  0.3928  0.5599
   33CHL1  H26A 2436   0.177   4.737   5.760 -0.4819 -1.5754 -0.6668
   33CHL1  H26B 2437   0.357   4.782   5.780  1.3969 -2.4347  1.1377
   33CHL1  H26C 2438   0.275   4.799   5.624  0.4807  2.0642  1.6366
   33CHL1   C27 2439   0.300   4.500   5.815  0.0136  0.2837 -0.2772
   33CHL1  H27A 2440   0.300   4.391   5.793  0.2082  0.0317  0.8801
   33CHL1  H27B 2441   0.382   4.526   5.886 -0.7008  1.3774  0.1802
   33CHL1  H27C 2442   0.207   4.525   5.871  1.2349  0.3801  1.8476
   34CHL1    C3 2443   0.005   0.270   4.760 -0.1206 -0.2065 -0.3447
   34CHL1    H3 2444   0.002   0.159   4.761  0.0146 -0.2354  2.4350
   34CHL1    O3 2445   0.035   0.317   4.630  0.2979  0.4324 -0.4782
   34CHL1   H3' 2446   0.121   0.286   4.600 -0.5901  0.8297 -3.8742
   34CHL1    C4 2447  -0.139   0.315   4.800 -0.2574  0.4193 -0.9073
   34CHL1   H4A 2448  -0.155   0.424   4.793  0.2232  0.5442 -0.2069
   34CHL1   H4B 2449  -0.214   0.280   4.726 -1.4621  1.1442 -0.0611
   34CHL1    C5 2450  -0.180   0.288   4.941 -0.2954  0.4609  0.0977
   34CHL1    C6 2451  -0.293   0.221   4.978  0.2896 -0.1808  0.1705
   34CHL1    H6 2452  -0.371   0.190   4.907 -0.5192  1.7859  0.1658
   34CHL1    C7 2453  -0.328   0.175   5.116  0.6116 -0.1763 -0.0017
   34CHL1   H7A 2454  -0.429   0.208   5.147  1.2088 -0.0445  1.9863
   34CHL1   H7B 2455  -0.317   0.064   5.119 -1.3129 -0.4082 -0.5191
   34CHL1    C8 2456  -0.239   0.227   5.226  0.2602 -0.7385 -0.2647
   34CHL1    H8 2457  -0.260   0.334   5.249  0.8688  0.0683 -3.0185
   34CHL1   C14 2458  -0.260   0.148   5.357 -0.7238 -0.1879 -0.4227
   34CHL1   H14 2459  -0.215   0.047   5.344 -0.8645 -0.3509  0.3228
   34CHL1   C15 2460  -0.403   0.118   5.417  0.3186  0.6019  0.0400
   34CHL1  H15A 2461  -0.452   0.218   5.414  1.6453  1.2585 -0.6587
   34CHL1  H15B 2462  -0.456   0.038   5.362  0.0097  0.6115  0.3241
   34CHL1   C16 2463  -0.373   0.069   5.563 -0.4877 -0.2197 -0.0017
   34CHL1  H16A 2464  -0.427   0.141   5.628  0.5342  2.0049 -1.4607
   34CHL1  H16B 2465  -0.406  -0.034   5.586 -0.1636 -0.5283 -0.8583
   34CHL1   C17 2466  -0.222   0.088   5.580 -0.1969  0.8976  0.7375
   34CHL1   H17 2467  -0.182  -0.013   5.556  0.1912  1.2634 -0.2225
   34CHL1   C13 2468  -0.177   0.199   5.474  0.5623  1.1109 -0.8217
   34CHL1   C18 2469  -0.215   0.336   5.526  0.1269 -0.5010  0.1143
   34CHL1  H18A 2470  -0.323   0.340   5.551  0.4154 -2.3627  2.0077
   34CHL1  H18B 2471  -0.159   0.358   5.620  0.1000 -0.5261  0.1363
   34CHL1  H18C 2472  -0.184   0.413   5.453 -1.2119 -0.8785 -0.8932
   34CHL1   C12 2473  -0.028   0.187   5.433  0.2654 -0.2921  0.2775
   34CHL1  H12A 2474   0.038   0.219   5.516  0.2793  0.7023 -0.0949
   34CHL1  H12B 2475  -0.012   0.078   5.421 -0.8149 -1.0164  4.1306
   34CHL1   C11 2476   0.005   0.271   5.302  0.4816  0.5897  0.5911
   34CHL1  H11A 2477  -0.009   0.378   5.330  1.2064  0.5321  1.1900
   34CHL1  H11B 2478   0.111   0.256   5.270  0.1910 -0.6517  0.1260
   34CHL1    C9 2479  -0.096   0.227   5.183 -0.1776  0.1613 -0.5759
   34CHL1    H9 2480  -0.064   0.124   5.156 -2.3516 -0.5439 -0.6711
   34CHL1   C10 2481  -0.071   0.305   5.048  0.2700  0.1717 -0.1334
   34CHL1   C19 2482  -0.082   0.457   5.066 -0.2430  0.1359  0.2958
   34CHL1  H19A 2483  -0.002   0.490   5.136 -1.1300  0.8842  0.9685
   34CHL1  H19B 2484  -0.075   0.524   4.978  2.1336  2.7836  2.3046
   34CHL1  H19C 2485  -0.179   0.477   5.117 -1.0829 -1.1506 -0.7248
   34CHL1    C1 2486   0.075   0.268   5.004 -0.2064 -1.1401  0.3881
   34CHL1   H1A 2487   0.148   0.322   5.067  1.1576  2.9530 -4.1085
   34CHL1   H1B 2488   0.081   0.157   5.006  2.2235 -1.2323 -2.9820
   34CHL1    C2 2489   0.108   0.319   4.861 -0.0993  0.2062 -0.4595
   34CHL1   H2A 2490   0.213   0.287   4.842  1.0416  1.9366  2.2682
   34CHL1   H2B 2491   0.106   0.430   4.852 -1.9922  0.0878 -2.1649
   34CHL1   C20 2492  -0.181   0.097   5.730  0.1792 -0.5019 -0.0810
   34CHL1   H20 2493  -0.231   0.189   5.769 -0.8884 -1.5635  1.1568
   34CHL1   C21 2494  -0.026   0.107   5.749  0.6573 -1.1987  0.9436
   34CHL1  H21A 2495   0.010   0.201   5.702 -3.1642  0.1249  0.3081
   34CHL1  H21B 2496   0.017   0.014   5.704  1.0902 -0.3001 -0.5848
   34CHL1  H21C 2497   0.005   0.112   5.855 -0.2212 -3.1980  1.3447
   34CHL1   C22 2498  -0.228  -0.031   5.801 -0.1364 -0.4201  0.5121
   34CHL1  H22A 2499  -0.338  -0.033   5.789 -0.1219 -0.9364  0.4362
   34CHL1  H22B 2500  -0.182  -0.123   5.759  2.3016  0.4871  1.0505
   34CHL1   C23 2501  -0.198  -0.030   5.953  1.5479  0.2408  0.2436
   34CHL1  H23A 2502  -0.092  -0.018   5.984  1.4203  2.8865 -0.1345
   34CHL1  H23B 2503  -0.263   0.052   5.989  0.3748  0.1569 -1.5782
   34CHL1   C24 2504  -0.234  -0.160   6.022 -0.1678  0.4848 -0.5899
   34CHL1  H24A 2505  -0.270  -0.142   6.125 -1.3625  2.8897 -1.3407
   34CHL1  H24B 2506  -0.315  -0.198   5.956  0.0939 -0.2607 -0.4885
   34CHL1   C25 2507  -0.120  -0.262   6.003 -0.7094  0.2578 -0.2176
   34CHL1   H25 2508  -0.093  -0.268   5.895 -1.2027  1.6638 -0.4427
   34CHL1   C26 2509   0.009  -0.239   6.095  0.1409  0.2549  0.5023
   34CHL1  H26A 2510   0.055  -0.145   6.058 -0.0339 -0.6324 -2.1656
   34CHL1  H26B 2511  -0.009  -0.231   6.204 -1.1189  0.0414  0.3216
   34CHL1  H26C 2512   0.072  -0.330   6.081  1.4382  1.1504  0.4267
   34CHL1   C27 2513  -0.181  -0.400   6.049 -0.5812  0.0837 -0.0347
   34CHL1  H27A 2514  -0.099  -0.474   6.041 -0.3948  0.3935 -1.2193
   34CHL1  H27B 2515  -0.210  -0.391   6.156  0.6844 -0.5970  0.3976
   34CHL1  H27C 2516  -0.263  -0.424   5.978 -1.3298  2.1937  0.0438
   35CHL1    C3 2517   2.138   6.526   4.489 -0.9413  0.3024 -0.1374
   35CHL1    H3 2518   2.217   6.452   4.516 -1.6270  0.4293  2.4548
   35CHL1    O3 2519   2.126   6.536   4.355 -0.3879  1.0913 -0.0884
   35CHL1   H3' 2520   2.172   6.616   4.326  0.0240  0.3756 -1.5001
   35CHL1    C4 2521   2.014   6.468   4.552  0.0811 -0.9481  0.1247
   35CHL1   H4A 2522   1.927   6.532   4.525 -0.4741 -1.0916  1.4699
   35CHL1   H4B 2523   1.994   6.371   4.502 -0.2410 -0.2756 -1.0888
   35CHL1    C5 2524   2.023   6.458   4.703  0.0683 -0.2253 -0.2071
   35CHL1    C6 2525   2.017   6.336   4.761  0.4816 -0.9880 -0.0570
   35CHL1    H6 2526   1.996   6.245   4.704  1.6079 -0.1752 -1.8691
   35CHL1    C7 2527   2.026   6.308   4.911  0.2151  0.9934  0.2063
   35CHL1   H7A 2528   1.943   6.239   4.939  0.5049  0.3093 -0.5658
   35CHL1   H7B 2529   2.126   6.261   4.927 -0.6864 -1.8139 -1.6332
   35CHL1    C8 2530   2.013   6.443   4.990  0.1001 -0.6988  0.6106
   35CHL1    H8 2531   1.909   6.481   4.985  0.6229  0.8442  0.9958
   35CHL1   C14 2532   2.056   6.415   5.135  0.5967  0.4550 -0.0057
   35CHL1   H14 2533   2.156   6.367   5.137  0.9555  1.1506 -0.8484
   35CHL1   C15 2534   1.958   6.318   5.217  0.4096  0.6082  0.4030
   35CHL1  H15A 2535   1.855   6.329   5.179  0.7326  0.7631 -0.4439
   35CHL1  H15B 2536   1.989   6.212   5.200  0.8943  0.7096  0.6274
   35CHL1   C16 2537   1.996   6.347   5.370  0.6483  0.5124  0.6786
   35CHL1  H16A 2538   1.903   6.365   5.428  0.6863  1.5547  0.4327
   35CHL1  H16B 2539   2.048   6.263   5.420 -1.6777 -1.5085 -0.0625
   35CHL1   C17 2540   2.086   6.481   5.369  0.1691 -0.3443  0.6548
   35CHL1   H17 2541   2.191   6.446   5.360  0.6858  1.2198  0.2293
   35CHL1   C13 2542   2.063   6.540   5.225  0.1443  0.4477  0.3924
   35CHL1   C18 2543   1.920   6.616   5.235 -0.8492 -0.6723  1.1527
   35CHL1  H18A 2544   1.925   6.717   5.281 -1.1729 -0.0214 -0.1938
   35CHL1  H18B 2545   1.898   6.637   5.129 -0.4778 -1.0466  1.0010
   35CHL1  H18C 2546   1.839   6.554   5.280 -2.2058 -0.6898 -1.1938
   35CHL1   C12 2547   2.163   6.631   5.160  0.0323  0.3511  0.3248
   35CHL1  H12A 2548   2.156   6.728   5.213 -1.8008 -0.8991  2.5722
   35CHL1  H12B 2549   2.269   6.599   5.168  0.0934  0.3686 -0.3753
   35CHL1   C11 2550   2.127   6.668   5.020 -0.5182 -0.5582 -0.2073
   35CHL1  H11A 2551   2.037   6.732   5.016 -0.5924 -0.6301  0.3009
   35CHL1  H11B 2552   2.210   6.731   4.981  1.0098 -0.3255  3.0875
   35CHL1    C9 2553   2.108   6.546   4.923 -0.3923  0.5053 -0.1428
   35CHL1    H9 2554   2.207   6.496   4.918 -0.2184  0.8219  0.0819
   35CHL1   C10 2555   2.067   6.583   4.778  0.0582 -0.4357 -0.6307
   35CHL1   C19 2556   1.940   6.679   4.778  0.3886  0.5871  0.1225
   35CHL1  H19A 2557   1.964   6.778   4.822  0.0117  1.7555 -2.2074
   35CHL1  H19B 2558   1.907   6.691   4.673 -0.9258  1.4297  0.6227
   35CHL1  H19C 2559   1.856   6.637   4.838  0.4252  0.4924  0.1077
   35CHL1    C1 2560   2.190   6.642   4.706 -0.3869 -0.4542 -0.1290
   35CHL1   H1A 2561   2.221   6.741   4.746  0.0695  0.6971 -3.0888
   35CHL1   H1B 2562   2.280   6.577   4.707  1.5535  2.0566 -0.5131
   35CHL1    C2 2563   2.168   6.669   4.553  0.1594 -0.0758 -0.1881
   35CHL1   H2A 2564   2.257   6.715   4.505  0.7681  0.2446  1.1781
   35CHL1   H2B 2565   2.086   6.741   4.532 -0.0590 -0.3063 -0.1320
   35CHL1   C20 2566   2.051   6.570   5.492 -0.5906  0.1137 -0.4594
   35CHL1   H20 2567   1.949   6.614   5.490 -1.2548 -1.3319  0.4141
   35CHL1   C21 2568   2.150   6.680   5.505 -0.2027  0.1296  0.3537
   35CHL1  H21A 2569   2.138   6.729   5.604 -0.9212 -0.0415  0.3505
   35CHL1  H21B 2570   2.123   6.749   5.422 -2.5210 -0.6470  0.4009
   35CHL1  H21C 2571   2.252   6.641   5.485 -1.5171 -2.2433 -2.5291
   35CHL1   C22 2572   2.054   6.482   5.622 -0.5911 -0.5880  0.6369
   35CHL1  H22A 2573   2.030   6.548   5.708 -3.2658 -1.6903  0.8311
   35CHL1  H22B 2574   1.969   6.411   5.614  0.0808 -1.1625 -2.9491
   35CHL1   C23 2575   2.194   6.419   5.636 -0.3688 -0.5199  0.3338
   35CHL1  H23A 2576   2.220   6.369   5.540 -0.8456  0.3368 -0.2536
   35CHL1  H23B 2577   2.268   6.499   5.654 -0.3718 -0.7458  1.4660
   35CHL1   C24 2578   2.191   6.318   5.750  0.1259 -0.2108  0.4332
   35CHL1  H24A 2579   2.151   6.355   5.846 -1.0010 -2.5282  0.9365
   35CHL1  H24B 2580   2.132   6.231   5.714  1.7863 -0.2013 -2.6820
   35CHL1   C25 2581   2.331   6.259   5.763 -0.0683  0.1095  0.2662
   35CHL1   H25 2582   2.408   6.339   5.765 -0.7357  0.7909 -0.5161
   35CHL1   C26 2583   2.342   6.178   5.891 -0.2153 -0.1192 -0.1416
   35CHL1  H26A 2584   2.335   6.248   5.977 -1.5371  0.4416 -0.6875
   35CHL1  H26B 2585   2.276   6.091   5.906 -0.3369  0.0439  0.2879
   35CHL1  H26C 2586   2.442   6.131   5.898 -0.6354 -0.9339  0.3901
   35CHL1   C27 2587   2.361   6.168   5.640  0.5259 -0.2860 -0.0218
   35CHL1  H27A 2588   2.467   6.135   5.644  1.2067  1.4636 -1.7807
   35CHL1  H27B 2589   2.289   6.084   5.644 -2.6193  2.1873 -0.1720
   35CHL1  H27C 2590   2.341   6.228   5.549  1.9076 -0.4543 -0.4614
   36CHL1    C3 2591   4.099   1.880   4.446  0.6845  0.8235  0.6404
   36CHL1    H3 2592   4.187   1.824   4.484  1.0142 -0.0544 -1.2871
   36CHL1    O3 2593   4.099   1.890   4.300  0.1685 -0.6296 -0.1268
   36CHL1   H3' 2594   4.106   1.801   4.263  0.3718 -0.9434  0.6471
   36CHL1    C4 2595   3.969   1.802   4.485  0.3680  0.3369  0.2185
   36CHL1   H4A 2596   3.886   1.850   4.429 -0.7530 -0.3101  1.2714
   36CHL1   H4B 2597   3.976   1.695   4.455 -0.1728  0.2387  0.4262
   36CHL1    C5 2598   3.921   1.811   4.631 -0.4986  0.7937 -0.2134
   36CHL1    C6 2599   3.905   1.693   4.705  0.0648 -0.9669 -0.8954
   36CHL1    H6 2600   3.916   1.603   4.644  1.5894  1.0277 -3.8358
   36CHL1    C7 2601   3.863   1.691   4.847  0.2760 -0.6981 -0.2687
   36CHL1   H7A 2602   3.777   1.621   4.853  0.2376 -0.5667  1.0879
   36CHL1   H7B 2603   3.944   1.645   4.907  0.3998 -0.4508 -0.2439
   36CHL1    C8 2604   3.826   1.837   4.901 -0.1679 -0.2274 -0.2252
   36CHL1    H8 2605   3.726   1.865   4.860 -0.6465 -0.4687  0.7425
   36CHL1   C14 2606   3.822   1.839   5.051  0.0742  0.2058  0.0982
   36CHL1   H14 2607   3.924   1.828   5.092 -0.5675 -1.7728  1.3038
   36CHL1   C15 2608   3.747   1.728   5.117 -0.0938  0.2780 -0.0764
   36CHL1  H15A 2609   3.640   1.707   5.092 -0.4700  0.7514  1.0597
   36CHL1  H15B 2610   3.790   1.625   5.119  0.2120  0.4113  1.2521
   36CHL1   C16 2611   3.740   1.786   5.262  0.1219  0.7044 -0.3920
   36CHL1  H16A 2612   3.644   1.774   5.317  1.2291  1.3988  1.8177
   36CHL1  H16B 2613   3.821   1.732   5.316  2.1698  0.9724 -2.9682
   36CHL1   C17 2614   3.788   1.930   5.264 -0.5035  0.0457 -0.5436
   36CHL1   H17 2615   3.894   1.928   5.296 -0.7092 -3.5339  0.3372
   36CHL1   C13 2616   3.780   1.971   5.115 -0.2202  0.1133  0.4112
   36CHL1   C18 2617   3.642   2.003   5.063  0.8829  0.3230 -0.1090
   36CHL1  H18A 2618   3.571   1.917   5.068  0.9748  0.2084 -0.7218
   36CHL1  H18B 2619   3.605   2.090   5.120  0.1026  1.0239 -1.6337
   36CHL1  H18C 2620   3.639   2.033   4.957 -0.7407  2.1337  0.3993
   36CHL1   C12 2621   3.892   2.078   5.076  0.6250 -0.1567  0.3642
   36CHL1  H12A 2622   3.884   2.181   5.117  1.6775  0.1398 -0.1354
   36CHL1  H12B 2623   3.991   2.040   5.108 -0.3841 -0.7715  3.0068
   36CHL1   C11 2624   3.894   2.090   4.920  0.5565 -0.1016 -0.1658
   36CHL1  H11A 2625   3.798   2.142   4.901  1.5686  2.3443  0.9339
   36CHL1  H11B 2626   3.978   2.159   4.898  0.7249 -0.8750 -2.1951
   36CHL1    C9 2627   3.913   1.949   4.850 -0.0820 -0.5679 -0.1028
   36CHL1    H9 2628   4.012   1.911   4.884 -1.4587 -2.3298  2.2574
   36CHL1   C10 2629   3.929   1.950   4.695  1.1046 -0.1737 -0.5725
   36CHL1   C19 2630   3.807   2.031   4.645  0.3458 -0.1017  0.4276
   36CHL1  H19A 2631   3.816   2.138   4.671  1.9902 -0.3340  0.9045
   36CHL1  H19B 2632   3.799   2.033   4.535 -1.5249  0.4109  0.5365
   36CHL1  H19C 2633   3.705   1.996   4.675  0.2686 -1.2015 -1.0232
   36CHL1    C1 2634   4.052   2.036   4.657  0.1017  0.1275 -0.1329
   36CHL1   H1A 2635   4.031   2.141   4.685 -0.2077 -0.9033  4.1529
   36CHL1   H1B 2636   4.131   2.010   4.731 -0.3052 -0.8206 -0.0245
   36CHL1    C2 2637   4.099   2.024   4.506  0.7017 -0.2308  0.6415
   36CHL1   H2A 2638   4.191   2.085   4.497  1.3983 -1.5537 -2.5036
   36CHL1   H2B 2639   4.031   2.075   4.434  1.4265 -0.5748 -0.3071
   36CHL1   C20 2640   3.710   2.006   5.372  0.3280  0.1913 -0.5883
   36CHL1   H20 2641   3.602   2.003   5.348 -0.4153  0.8553  2.2652
   36CHL1   C21 2642   3.769   2.149   5.385 -0.5023 -1.2235  0.2990
   36CHL1  H21A 2643   3.772   2.197   5.285 -1.1129 -0.4648  0.6317
   36CHL1  H21B 2644   3.876   2.151   5.418 -0.4348  0.4131  0.0907
   36CHL1  H21C 2645   3.707   2.211   5.453 -1.0655  0.2386 -1.4789
   36CHL1   C22 2646   3.711   1.951   5.520  0.4392 -0.4600 -0.1758
   36CHL1  H22A 2647   3.684   1.844   5.518 -0.7955 -0.1636 -0.5270
   36CHL1  H22B 2648   3.811   1.956   5.567  0.3128  1.5850  0.0031
   36CHL1   C23 2649   3.617   2.017   5.619  0.0129 -0.7840 -0.1323
   36CHL1  H23A 2650   3.533   2.070   5.568 -0.0931 -0.2267  0.6107
   36CHL1  H23B 2651   3.569   1.938   5.679  1.5047  0.0689  2.3131
   36CHL1   C24 2652   3.691   2.106   5.726  0.2372  0.4165 -0.1043
   36CHL1  H24A 2653   3.773   2.057   5.782  0.9487  2.3947  0.6597
   36CHL1  H24B 2654   3.738   2.190   5.670 -0.9486  1.9741  1.1387
   36CHL1   C25 2655   3.599   2.162   5.832  0.0439  0.2691  0.1568
   36CHL1   H25 2656   3.532   2.221   5.766  0.1084  0.3061  0.1247
   36CHL1   C26 2657   3.521   2.055   5.922  0.2995 -0.5033 -0.0141
   36CHL1  H26A 2658   3.480   1.972   5.861  1.2457 -0.1752 -1.1291
   36CHL1  H26B 2659   3.586   2.004   5.997  0.0979 -1.4583 -0.4740
   36CHL1  H26C 2660   3.441   2.111   5.975 -0.9424  0.1800 -2.4620
   36CHL1   C27 2661   3.681   2.271   5.907  0.4330 -0.8056 -0.4682
   36CHL1  H27A 2662   3.753   2.225   5.979 -0.6888 -0.8104  0.6917
   36CHL1  H27B 2663   3.739   2.337   5.838  1.0653 -0.4474  0.3821
   36CHL1  H27C 2664   3.609   2.337   5.960 -0.7439 -1.7429 -0.8661
   37CHL1    C3 2665   5.177   0.377   4.545 -0.2106 -1.0823  0.0490
   37CHL1    H3 2666   5.099   0.301   4.564  0.2828 -1.5859  0.0950
   37CHL1    O3 2667   5.170   0.404   4.405  0.3620 -0.1231 -0.1376
   37CHL1   H3' 2668   5.212   0.488   4.387 -0.1772 -0.0318 -1.0425
   37CHL1    C4 2669   5.143   0.511   4.623 -0.3535 -0.1670  0.0237
   37CHL1   H4A 2670   5.215   0.590   4.595 -0.1835  0.5723  2.3413
   37CHL1   H4B 2671   5.045   0.546   4.583 -0.0608 -0.1467 -0.6929
   37CHL1    C5 2672   5.142   0.486   4.772 -0.7970  0.1899  0.5696
   37CHL1    C6 2673   5.030   0.508   4.839  0.2417 -0.1485 -0.0132
   37CHL1    H6 2674   4.937   0.539   4.789 -1.2975 -1.4400  1.9143
   37CHL1    C7 2675   5.020   0.484   4.986 -0.6366  0.1190  0.1438
   37CHL1   H7A 2676   4.975   0.579   5.020 -2.2370  0.0317 -1.5456
   37CHL1   H7B 2677   4.944   0.407   5.012  0.9748 -1.2560  0.9532
   37CHL1    C8 2678   5.160   0.467   5.056  0.0530  0.2863  0.4390
   37CHL1    H8 2679   5.213   0.565   5.054 -0.0071  0.3685 -2.7925
   37CHL1   C14 2680   5.138   0.431   5.196  0.1434  0.0285 -0.4967
   37CHL1   H14 2681   5.101   0.326   5.193 -0.3407  0.1342  1.0109
   37CHL1   C15 2682   5.038   0.501   5.285  0.2762  0.5570  0.1183
   37CHL1  H15A 2683   5.044   0.612   5.279 -3.1626  0.9163  1.1542
   37CHL1  H15B 2684   4.936   0.465   5.260  0.5260  0.9426 -1.5740
   37CHL1   C16 2685   5.068   0.442   5.427  0.2680 -0.0228  0.3795
   37CHL1  H16A 2686   5.066   0.522   5.505 -2.1305 -2.6213  3.2606
   37CHL1  H16B 2687   4.987   0.369   5.450 -0.9999  0.5175 -1.9860
   37CHL1   C17 2688   5.206   0.369   5.418  1.0216  0.4234 -0.7412
   37CHL1   H17 2689   5.184   0.260   5.421  3.0489 -0.0183  0.6135
   37CHL1   C13 2690   5.272   0.415   5.278 -0.2375  0.8108 -0.3295
   37CHL1   C18 2691   5.347   0.542   5.283 -0.0107  0.5337  0.1893
   37CHL1  H18A 2692   5.375   0.584   5.185 -0.4396 -0.0471 -0.1871
   37CHL1  H18B 2693   5.278   0.608   5.340  0.7142  0.2278  1.4670
   37CHL1  H18C 2694   5.436   0.542   5.349  1.9022 -1.1013 -2.2260
   37CHL1   C12 2695   5.357   0.305   5.216  0.1197  0.9310  0.1362
   37CHL1  H12A 2696   5.453   0.295   5.271 -0.1567  0.5098  0.5476
   37CHL1  H12B 2697   5.305   0.207   5.225 -0.6369  0.9806 -2.6975
   37CHL1   C11 2698   5.378   0.336   5.062 -0.1337  0.0172  0.2274
   37CHL1  H11A 2699   5.446   0.424   5.057 -0.4866  0.2396 -0.7974
   37CHL1  H11B 2700   5.426   0.249   5.014  0.6706  0.6973 -0.2201
   37CHL1    C9 2701   5.246   0.368   4.982  0.5292 -0.6980  0.5106
   37CHL1    H9 2702   5.185   0.276   4.991  1.3250 -1.0934  2.3670
   37CHL1   C10 2703   5.271   0.417   4.832  0.3411 -0.2390 -0.4458
   37CHL1   C19 2704   5.386   0.525   4.819 -0.3653  0.3024 -0.2447
   37CHL1  H19A 2705   5.367   0.620   4.873 -2.3529  0.3638 -0.9710
   37CHL1  H19B 2706   5.478   0.479   4.860 -1.6771 -0.8400  1.5517
   37CHL1  H19C 2707   5.407   0.553   4.713  0.1571 -1.7050 -0.7165
   37CHL1    C1 2708   5.316   0.295   4.750 -0.5904  0.6330 -0.4409
   37CHL1   H1A 2709   5.417   0.256   4.772 -0.4828  0.7845 -0.6633
   37CHL1   H1B 2710   5.250   0.209   4.773 -0.7508  0.2610 -2.1131
   37CHL1    C2 2711   5.311   0.324   4.595  0.4120  0.0491  0.0661
   37CHL1   H2A 2712   5.353   0.233   4.546  1.2045 -0.3581  1.4382
   37CHL1   H2B 2713   5.383   0.403   4.563 -0.3560 -0.2268 -2.5385
   37CHL1   C20 2714   5.290   0.387   5.545 -0.1415  0.0724  0.1298
   37CHL1   H20 2715   5.292   0.497   5.559 -2.2598  0.2413 -0.6096
   37CHL1   C21 2716   5.433   0.328   5.541  0.4143  0.1450  0.1500
   37CHL1  H21A 2717   5.483   0.375   5.453  0.8243 -1.1132 -0.3089
   37CHL1  H21B 2718   5.435   0.217   5.534  0.2713  0.0615  1.3253
   37CHL1  H21C 2719   5.494   0.349   5.632 -0.0630 -1.0722  0.7637
   37CHL1   C22 2720   5.210   0.322   5.663  0.0704  0.0719 -0.0520
   37CHL1  H22A 2721   5.104   0.357   5.663  0.8024  2.5719 -1.8422
   37CHL1  H22B 2722   5.200   0.212   5.655 -1.3183 -0.0657  2.5303
   37CHL1   C23 2723   5.266   0.350   5.802 -0.6687 -0.7092  0.3108
   37CHL1  H23A 2724   5.373   0.319   5.807 -0.4684  0.0936  2.9021
   37CHL1  H23B 2725   5.259   0.460   5.819  0.9356 -0.8047  1.9112
   37CHL1   C24 2726   5.205   0.278   5.919 -0.0199  0.3400  1.0684
   37CHL1  H24A 2727   5.102   0.319   5.926 -0.8000 -1.2501 -0.2250
   37CHL1  H24B 2728   5.184   0.171   5.897 -1.7737  1.1644 -1.9289
   37CHL1   C25 2729   5.285   0.283   6.052 -0.8833  0.4409  0.3954
   37CHL1   H25 2730   5.368   0.211   6.039 -1.1824  0.0357  0.6940
   37CHL1   C26 2731   5.335   0.410   6.103  0.2974 -0.1452 -0.1626
   37CHL1  H26A 2732   5.410   0.393   6.182 -2.0560  2.4431  2.8608
   37CHL1  H26B 2733   5.384   0.476   6.028 -0.1652  1.1165  0.6258
   37CHL1  H26C 2734   5.246   0.455   6.152 -0.1083 -1.0743 -0.0113
   37CHL1   C27 2735   5.209   0.210   6.165 -0.0312 -0.0160 -0.1257
   37CHL1  H27A 2736   5.162   0.121   6.118  0.9494 -0.1110 -0.9736
   37CHL1  H27B 2737   5.274   0.183   6.250 -2.4682 -0.5861  1.6875
   37CHL1  H27C 2738   5.129   0.284   6.188 -1.6958 -1.9839  0.7563
   38CHL1    C3 2739   0.382   6.419   4.406  0.0914 -0.3129 -0.5027
   38CHL1    H3 2740   0.326   6.510   4.437 -0.1110 -0.6377  0.0928
   38CHL1    O3 2741   0.373   6.429   4.268 -0.7344  0.2026 -0.4966
   38CHL1   H3' 2742   0.385   6.338   4.240 -3.0674  0.1533 -1.5421
   38CHL1    C4 2743   0.525   6.422   4.455  0.0851 -0.1863 -0.0606
   38CHL1   H4A 2744   0.574   6.339   4.400 -3.0509 -0.9276 -1.9791
   38CHL1   H4B 2745   0.576   6.510   4.409 -0.6501 -1.3574 -3.3682
   38CHL1    C5 2746   0.536   6.406   4.605  0.1025  0.8241  0.0480
   38CHL1    C6 2747   0.607   6.505   4.679  0.3836  0.2209  0.8757
   38CHL1    H6 2748   0.661   6.589   4.632  4.4502 -1.5659  1.9458
   38CHL1    C7 2749   0.636   6.494   4.826 -0.0104  1.0018 -0.1724
   38CHL1   H7A 2750   0.746   6.484   4.839  0.0674 -1.7091 -1.9540
   38CHL1   H7B 2751   0.584   6.576   4.880  0.0252  1.4085 -0.7463
   38CHL1    C8 2752   0.582   6.361   4.893  0.3950 -0.5141 -0.7828
   38CHL1    H8 2753   0.657   6.280   4.882 -0.7217 -1.8374  0.7861
   38CHL1   C14 2754   0.550   6.380   5.048  0.2109 -0.0861  0.8161
   38CHL1   H14 2755   0.456   6.439   5.053  0.4397  0.2825  0.7973
   38CHL1   C15 2756   0.647   6.456   5.131  0.5054  0.5108 -0.8159
   38CHL1  H15A 2757   0.744   6.420   5.090 -1.1025 -0.7477 -3.8908
   38CHL1  H15B 2758   0.649   6.565   5.115 -3.1063  0.7824 -0.1691
   38CHL1   C16 2759   0.605   6.423   5.277 -0.7799 -0.1095  0.7355
   38CHL1  H16A 2760   0.695   6.401   5.339  0.3503  0.4096 -0.6641
   38CHL1  H16B 2761   0.554   6.518   5.304 -0.4196  0.3626 -0.1876
   38CHL1   C17 2762   0.504   6.310   5.277  1.0543  0.3183 -0.4732
   38CHL1   H17 2763   0.405   6.362   5.281  0.8429 -0.1379  1.5967
   38CHL1   C13 2764   0.515   6.255   5.133  0.8824  0.5149  0.4938
   38CHL1   C18 2765   0.637   6.156   5.127  0.3105  0.1952 -0.4028
   38CHL1  H18A 2766   0.731   6.202   5.165  1.8358 -1.0166 -2.5154
   38CHL1  H18B 2767   0.610   6.066   5.187 -0.6090  1.1008  0.6081
   38CHL1  H18C 2768   0.665   6.129   5.023  0.7938 -0.9377  0.0092
   38CHL1   C12 2769   0.388   6.193   5.063 -0.5930  0.1451  0.6168
   38CHL1  H12A 2770   0.362   6.096   5.109  1.4769 -0.3467  0.8521
   38CHL1  H12B 2771   0.300   6.260   5.061 -0.5391  0.2167 -1.2215
   38CHL1   C11 2772   0.413   6.179   4.908  0.2978 -0.1580  0.0127
   38CHL1  H11A 2773   0.492   6.104   4.886 -0.0690 -0.6559  0.3692
   38CHL1  H11B 2774   0.325   6.136   4.855  0.2781  1.5901 -1.4757
   38CHL1    C9 2775   0.448   6.308   4.833  0.3495 -0.0398  0.3686
   38CHL1    H9 2776   0.370   6.386   4.847  1.7414  1.6564 -0.8553
   38CHL1   C10 2777   0.458   6.292   4.673 -0.0189  0.8696 -0.3932
   38CHL1   C19 2778   0.542   6.166   4.635  0.3908 -0.4409 -0.2297
   38CHL1  H19A 2779   0.483   6.078   4.670 -1.5896  0.1930 -1.7868
   38CHL1  H19B 2780   0.548   6.154   4.525  0.8970  0.5867 -0.3247
   38CHL1  H19C 2781   0.642   6.164   4.683 -0.2252 -2.9623  1.1541
   38CHL1    C1 2782   0.312   6.288   4.616  0.1647  0.0115  0.2018
   38CHL1   H1A 2783   0.255   6.199   4.649  0.7154 -0.5789 -0.3926
   38CHL1   H1B 2784   0.260   6.367   4.673 -2.4983 -2.5850  1.6213
   38CHL1    C2 2785   0.310   6.294   4.464  0.4760  0.6364 -0.6311
   38CHL1   H2A 2786   0.205   6.316   4.432 -0.2745 -0.0075  1.2485
   38CHL1   H2B 2787   0.339   6.196   4.421  1.3590  0.5516  0.1329
   38CHL1   C20 2788   0.510   6.215   5.399  0.0285  0.1258 -0.1017
   38CHL1   H20 2789   0.605   6.157   5.395 -0.6537 -1.0227 -0.1295
   38CHL1   C21 2790   0.392   6.116   5.393  0.0224 -0.3289  0.3655
   38CHL1  H21A 2791   0.301   6.176   5.375  0.8809  0.7890 -0.3806
   38CHL1  H21B 2792   0.375   6.054   5.484  0.6741 -0.5947  0.3083
   38CHL1  H21C 2793   0.416   6.044   5.311 -1.7027  1.0555 -1.4379
   38CHL1   C22 2794   0.515   6.281   5.537 -0.1364 -0.6463 -0.1748
   38CHL1  H22A 2795   0.601   6.351   5.531  0.7259 -1.7427 -1.1359
   38CHL1  H22B 2796   0.420   6.335   5.557  0.6720  0.0364  2.0195
   38CHL1   C23 2797   0.551   6.190   5.653 -0.0532  0.8587 -0.2841
   38CHL1  H23A 2798   0.478   6.109   5.674 -1.1581  2.0112  0.4656
   38CHL1  H23B 2799   0.642   6.130   5.630 -1.3822 -1.1186 -0.7146
   38CHL1   C24 2800   0.570   6.267   5.782  0.3649 -1.0657  0.5384
   38CHL1  H24A 2801   0.659   6.332   5.793 -1.0154  0.7791  1.3807
   38CHL1  H24B 2802   0.483   6.336   5.779  0.9648 -0.0122  3.8113
   38CHL1   C25 2803   0.572   6.190   5.911 -0.5991  0.0983 -0.1282
   38CHL1   H25 2804   0.466   6.164   5.933 -0.4599 -0.8306 -0.4711
   38CHL1   C26 2805   0.669   6.065   5.894  0.2972 -0.2223 -0.0654
   38CHL1  H26A 2806   0.768   6.087   5.849  1.0752 -3.4419 -0.1798
   38CHL1  H26B 2807   0.672   6.025   5.997 -1.3308  3.0875  1.4230
   38CHL1  H26C 2808   0.630   5.976   5.840 -0.2695 -0.2668  0.4065
   38CHL1   C27 2809   0.616   6.278   6.026 -0.3231 -0.0592 -0.3554
   38CHL1  H27A 2810   0.554   6.370   6.032 -0.4718 -0.1919  0.1709
   38CHL1  H27B 2811   0.605   6.225   6.123  1.6811 -1.0983 -0.6439
   38CHL1  H27C 2812   0.719   6.317   6.014 -0.5848  0.8027  0.1559
   39CHL1    C3 2813   1.695   0.734   4.503 -0.5397  0.7806 -0.3408
   39CHL1    H3 2814   1.736   0.836   4.522  0.4385  0.2611  0.4184
   39CHL1    O3 2815   1.717   0.696   4.373  0.2243  0.0138  0.9447
   39CHL1   H3' 2816   1.701   0.602   4.371  2.2034 -0.3396  0.3285
   39CHL1    C4 2817   1.765   0.633   4.593  0.5867 -0.3557 -0.4086
   39CHL1   H4A 2818   1.737   0.526   4.581 -0.2304 -0.0264 -1.5537
   39CHL1   H4B 2819   1.874   0.633   4.573  0.8735 -1.7367  0.9619
   39CHL1    C5 2820   1.738   0.666   4.738  0.1439  1.0548 -0.1044
   39CHL1    C6 2821   1.839   0.691   4.825  0.2363 -0.5556 -0.7473
   39CHL1    H6 2822   1.944   0.700   4.794  0.3464  1.2508  0.0043
   39CHL1    C7 2823   1.822   0.723   4.968  0.1914  0.5633 -0.2897
   39CHL1   H7A 2824   1.893   0.663   5.029 -1.6272  0.5970  2.0234
   39CHL1   H7B 2825   1.839   0.832   4.984 -1.5469  0.8093  0.0955
   39CHL1    C8 2826   1.675   0.685   5.023  0.6653 -0.4353 -0.2704
   39CHL1    H8 2827   1.664   0.575   5.033 -0.6043 -0.3726 -0.8230
   39CHL1   C14 2828   1.651   0.740   5.167  0.4606  0.1018  0.2219
   39CHL1   H14 2829   1.665   0.851   5.163  1.4723  0.0142  0.8845
   39CHL1   C15 2830   1.746   0.700   5.281  0.2687 -0.3771  0.2525
   39CHL1  H15A 2831   1.777   0.594   5.285 -1.4106 -0.9926 -1.2157
   39CHL1  H15B 2832   1.838   0.759   5.264  0.3317  0.1489  2.1878
   39CHL1   C16 2833   1.671   0.743   5.407 -0.6354  0.1583 -0.5489
   39CHL1  H16A 2834   1.678   0.673   5.493 -2.2940  1.8852  1.0662
   39CHL1  H16B 2835   1.721   0.833   5.449 -2.6481 -0.0750  2.6863
   39CHL1   C17 2836   1.523   0.783   5.367 -0.2657 -0.2714  1.1247
   39CHL1   H17 2837   1.539   0.893   5.366 -2.0207  0.0125  1.4645
   39CHL1   C13 2838   1.507   0.725   5.221 -0.3667 -0.1851 -0.0255
   39CHL1   C18 2839   1.479   0.569   5.233 -0.9160  0.4110  0.0652
   39CHL1  H18A 2840   1.495   0.517   5.136  2.7864 -0.3937  0.9550
   39CHL1  H18B 2841   1.545   0.517   5.305 -0.0997 -0.3129 -1.1851
   39CHL1  H18C 2842   1.374   0.552   5.264 -0.1622 -2.0803  1.5224
   39CHL1   C12 2843   1.408   0.787   5.123  0.1527  0.1156 -0.2209
   39CHL1  H12A 2844   1.303   0.763   5.150 -0.3219 -0.7665 -2.5945
   39CHL1  H12B 2845   1.428   0.897   5.127  0.8701 -0.0196  0.0431
   39CHL1   C11 2846   1.433   0.728   4.985 -0.1475  0.8975  0.5640
   39CHL1  H11A 2847   1.400   0.621   4.990  1.0181  0.5407  0.8325
   39CHL1  H11B 2848   1.353   0.771   4.921  0.7826 -0.4647 -1.6330
   39CHL1    C9 2849   1.574   0.736   4.923  0.2821  0.1793  0.2114
   39CHL1    H9 2850   1.593   0.845   4.915  1.0248 -0.0575 -2.4040
   39CHL1   C10 2851   1.594   0.678   4.782  0.6704 -0.3133  0.5967
   39CHL1   C19 2852   1.523   0.542   4.777  0.1540  0.1756  0.2686
   39CHL1  H19A 2853   1.542   0.498   4.677  0.4424 -1.4208  0.9888
   39CHL1  H19B 2854   1.554   0.464   4.850 -1.5885  0.3738  1.2625
   39CHL1  H19C 2855   1.414   0.560   4.780  0.3521  1.3223  1.7391
   39CHL1    C1 2856   1.529   0.783   4.681  0.1111  0.5420  0.1239
   39CHL1   H1A 2857   1.420   0.792   4.702 -0.0908 -0.4803 -0.4592
   39CHL1   H1B 2858   1.571   0.886   4.691  1.7062 -0.0533 -0.1631
   39CHL1    C2 2859   1.547   0.739   4.536 -0.4234 -0.4726 -0.1392
   39CHL1   H2A 2860   1.498   0.819   4.477 -0.7852 -0.8469 -0.3486
   39CHL1   H2B 2861   1.492   0.647   4.508 -1.6233  0.9336 -2.7903
   39CHL1   C20 2862   1.418   0.751   5.477  0.3276 -0.2605  0.5776
   39CHL1   H20 2863   1.405   0.641   5.480 -1.6998 -0.0927 -0.5121
   39CHL1   C21 2864   1.274   0.809   5.434  0.0845 -0.6492 -0.6188
   39CHL1  H21A 2865   1.235   0.764   5.341 -4.8443  1.1740  0.2104
   39CHL1  H21B 2866   1.267   0.920   5.437 -4.0734 -0.7375  1.8352
   39CHL1  H21C 2867   1.207   0.789   5.521  0.4322  1.8164  0.3243
   39CHL1   C22 2868   1.456   0.803   5.614 -0.6017 -0.3631  0.0737
   39CHL1  H22A 2869   1.566   0.799   5.621 -0.4850  0.7105 -0.9537
   39CHL1  H22B 2870   1.412   0.902   5.637  0.4553  0.2835 -0.6512
   39CHL1   C23 2871   1.411   0.704   5.728 -0.1283 -0.6200  0.0185
   39CHL1  H23A 2872   1.301   0.693   5.718 -0.9483  2.0525  3.8699
   39CHL1  H23B 2873   1.461   0.607   5.708 -0.3164 -0.8086  0.4637
   39CHL1   C24 2874   1.436   0.775   5.865  0.2086 -0.4658 -0.7533
   39CHL1  H24A 2875   1.545   0.791   5.874 -0.2295  1.9932  2.0191
   39CHL1  H24B 2876   1.388   0.876   5.863 -0.9371 -0.9602  0.3732
   39CHL1   C25 2877   1.383   0.697   5.990  0.8543  0.0398 -0.4561
   39CHL1   H25 2878   1.273   0.688   5.982  0.8703  0.2185 -0.9043
   39CHL1   C26 2879   1.445   0.559   6.001 -0.2616 -0.3195  0.8293
   39CHL1  H26A 2880   1.412   0.501   5.911  0.6457 -1.6642  1.3342
   39CHL1  H26B 2881   1.555   0.569   6.000 -0.3827  1.2259 -0.5315
   39CHL1  H26C 2882   1.416   0.513   6.098 -0.0348  0.2890  1.1893
   39CHL1   C27 2883   1.396   0.787   6.115  0.6578 -0.0344  0.0770
   39CHL1  H27A 2884   1.496   0.835   6.123 -0.1566  2.0253 -1.1730
   39CHL1  H27B 2885   1.325   0.872   6.115  0.3572 -0.2846  0.0195
   39CHL1  H27C 2886   1.385   0.732   6.211  1.5775  0.5623  0.5463
   40CHL1    C3 2887   6.809   5.503   4.250 -0.5718 -0.0493 -0.7232
   40CHL1    H3 2888   6.699   5.509   4.264 -0.4815  2.1628 -0.6770
   40CHL1    O3 2889   6.854   5.540   4.122 -0.3017 -0.1815  0.3725
   40CHL1   H3' 2890   6.821   5.473   4.063  1.2319  0.6514 -1.5656
   40CHL1    C4 2891   6.868   5.609   4.351 -0.2998 -0.6347 -0.3213
   40CHL1   H4A 2892   6.979   5.607   4.355 -0.2269  0.3643 -1.2579
   40CHL1   H4B 2893   6.831   5.708   4.318 -1.0168 -1.0716 -0.8755
   40CHL1    C5 2894   6.818   5.587   4.492 -0.4557 -0.0764  0.2800
   40CHL1    C6 2895   6.750   5.675   4.563 -0.4004 -0.9183 -0.0206
   40CHL1    H6 2896   6.725   5.766   4.506  1.1030 -0.4051  0.0715
   40CHL1    C7 2897   6.716   5.661   4.705  1.0673  0.2161 -0.6724
   40CHL1   H7A 2898   6.748   5.747   4.768 -0.5784  0.0982  0.3640
   40CHL1   H7B 2899   6.606   5.655   4.705  1.0750  0.0221 -0.3796
   40CHL1    C8 2900   6.781   5.543   4.775  0.0067 -0.1191 -0.4333
   40CHL1    H8 2901   6.889   5.558   4.796  0.6947 -1.0556 -2.9938
   40CHL1   C14 2902   6.710   5.502   4.904 -0.3783  0.8022 -0.0188
   40CHL1   H14 2903   6.604   5.481   4.878 -0.6910  1.0920  1.0186
   40CHL1   C15 2904   6.684   5.613   5.003  0.3735  0.1077 -0.2543
   40CHL1  H15A 2905   6.777   5.674   5.009  0.0109  0.8647 -1.8766
   40CHL1  H15B 2906   6.605   5.687   4.980  2.2168  1.9881 -0.8361
   40CHL1   C16 2907   6.676   5.546   5.139 -0.1551  0.6807  0.4404
   40CHL1  H16A 2908   6.763   5.574   5.203  0.1295  3.3868 -0.9937
   40CHL1  H16B 2909   6.600   5.583   5.210  0.0950 -2.1084  2.3271
   40CHL1   C17 2910   6.680   5.397   5.112 -0.8931  0.2885 -0.8972
   40CHL1   H17 2911   6.576   5.374   5.080 -0.7390  0.8696 -1.8670
   40CHL1   C13 2912   6.768   5.383   4.982  0.7552 -0.0855 -0.1292
   40CHL1   C18 2913   6.914   5.410   5.021 -0.1125 -0.0971 -0.6164
   40CHL1  H18A 2914   6.984   5.404   4.935 -1.0324 -1.8461 -1.3126
   40CHL1  H18B 2915   6.927   5.512   5.061 -0.4903 -0.8423  1.5569
   40CHL1  H18C 2916   6.944   5.343   5.104 -1.6752  0.4047  0.4017
   40CHL1   C12 2917   6.755   5.260   4.892 -0.3927 -0.0709 -0.0122
   40CHL1  H12A 2918   6.801   5.173   4.945  1.8977  1.3217  0.4255
   40CHL1  H12B 2919   6.648   5.238   4.870 -1.3344  1.9711  2.0944
   40CHL1   C11 2920   6.825   5.283   4.747  0.8953  0.1581  0.1888
   40CHL1  H11A 2921   6.933   5.285   4.771  0.2708  2.0231  3.5299
   40CHL1  H11B 2922   6.790   5.209   4.673  0.3597  0.4704  0.1249
   40CHL1    C9 2923   6.784   5.421   4.680  0.5082  0.4934  0.4344
   40CHL1    H9 2924   6.679   5.396   4.654  0.3782  0.5346  0.8955
   40CHL1   C10 2925   6.856   5.448   4.548  0.1053  0.1365 -0.1332
   40CHL1   C19 2926   7.015   5.440   4.573  0.2904  0.3163  0.1316
   40CHL1  H19A 2927   7.052   5.524   4.635  1.4127  1.5002 -2.0369
   40CHL1  H19B 2928   7.040   5.339   4.612 -2.9915 -1.0102 -0.7911
   40CHL1  H19C 2929   7.063   5.464   4.476 -0.8897 -1.9555 -1.1122
   40CHL1    C1 2930   6.815   5.338   4.444  0.1685 -0.6214 -0.8224
   40CHL1   H1A 2931   6.871   5.247   4.477  1.1656  0.7740  1.5793
   40CHL1   H1B 2932   6.705   5.332   4.461  0.3193 -2.1553 -0.2253
   40CHL1    C2 2933   6.858   5.367   4.295 -0.0107  0.9412 -0.3282
   40CHL1   H2A 2934   6.816   5.286   4.232  1.9004 -1.0517  0.8062
   40CHL1   H2B 2935   6.961   5.346   4.260 -0.3873  0.7736 -1.3694
   40CHL1   C20 2936   6.720   5.300   5.219 -0.3149 -0.3709 -0.3834
   40CHL1   H20 2937   6.796   5.228   5.182  0.0818 -0.4341  0.5183
   40CHL1   C21 2938   6.593   5.238   5.274  0.3516  0.8373 -0.0274
   40CHL1  H21A 2939   6.535   5.190   5.192 -3.7534  2.2981  1.7189
   40CHL1  H21B 2940   6.517   5.301   5.325  0.2784  0.1050  0.7954
   40CHL1  H21C 2941   6.614   5.153   5.342 -1.0496  0.6736  0.2293
   40CHL1   C22 2942   6.793   5.365   5.337 -0.0173  0.1757  0.5744
   40CHL1  H22A 2943   6.873   5.433   5.301 -1.1658  2.0670  1.4152
   40CHL1  H22B 2944   6.724   5.432   5.393  0.7363  1.2088  0.3109
   40CHL1   C23 2945   6.849   5.277   5.445 -0.1115  0.0580 -0.4696
   40CHL1  H23A 2946   6.772   5.209   5.488 -0.8429  1.0832 -0.1324
   40CHL1  H23B 2947   6.928   5.213   5.399  0.0157 -0.0284 -0.1346
   40CHL1   C24 2948   6.907   5.353   5.566 -0.0366 -0.0995  0.7037
   40CHL1  H24A 2949   6.993   5.415   5.533  0.7240 -1.4416  0.0711
   40CHL1  H24B 2950   6.826   5.417   5.607  0.6111  1.1254  0.1316
   40CHL1   C25 2951   6.985   5.269   5.667 -0.0300 -0.6211  0.4617
   40CHL1   H25 2952   7.021   5.335   5.749 -0.6549 -1.1818  1.2044
   40CHL1   C26 2953   6.899   5.168   5.743  0.7396 -0.0352  0.2143
   40CHL1  H26A 2954   6.805   5.213   5.781 -1.1585 -2.1547 -1.7366
   40CHL1  H26B 2955   6.873   5.087   5.673 -0.4941 -0.1403  0.7766
   40CHL1  H26C 2956   6.950   5.115   5.827 -0.5937  0.8046  1.6000
   40CHL1   C27 2957   7.110   5.215   5.600  0.5696 -0.4667  0.0223
   40CHL1  H27A 2958   7.100   5.160   5.504  0.9284  0.4207 -0.5278
   40CHL1  H27B 2959   7.179   5.295   5.566  0.2000 -1.0633 -2.3388
   40CHL1  H27C 2960   7.165   5.146   5.668 -0.3374 -0.5634  0.6691
   41CHL1    C3 2961   2.155   1.511   4.485  0.2124 -0.7857  0.0033
   41CHL1    H3 2962   2.161   1.401   4.503 -0.1168 -1.0968 -1.6182
   41CHL1    O3 2963   2.151   1.534   4.346  0.0874 -0.2277  0.2222
   41CHL1   H3' 2964   2.148   1.629   4.329  1.6241  0.2055  2.0143
   41CHL1    C4 2965   2.026   1.575   4.547 -0.3924  0.3193  0.3291
   41CHL1   H4A 2966   2.015   1.676   4.502 -1.8590 -1.5336 -4.0092
   41CHL1   H4B 2967   1.935   1.522   4.510 -1.9793  2.6405  0.6713
   41CHL1    C5 2968   2.030   1.581   4.699 -0.0862 -0.0252  0.4912
   41CHL1    C6 2969   1.920   1.543   4.770  0.0790  0.3748  0.2317
   41CHL1    H6 2970   1.828   1.506   4.724  0.5037 -0.1646 -0.1918
   41CHL1    C7 2971   1.922   1.546   4.917  0.4639  0.0699  0.5031
   41CHL1   H7A 2972   1.838   1.610   4.952  0.1286  0.6694 -1.2787
   41CHL1   H7B 2973   1.901   1.442   4.948 -1.2758  0.1614 -0.2641
   41CHL1    C8 2974   2.042   1.608   4.986 -0.8122  0.3321 -1.5263
   41CHL1    H8 2975   2.016   1.716   4.993 -0.9015  0.2131  1.9388
   41CHL1   C14 2976   2.050   1.561   5.139  0.0970 -0.4003 -0.2955
   41CHL1   H14 2977   2.068   1.451   5.143  3.5848  0.0121 -1.1800
   41CHL1   C15 2978   1.933   1.587   5.226  0.2642  0.1635 -0.3196
   41CHL1  H15A 2979   1.913   1.696   5.220  0.0783  0.3847  2.6273
   41CHL1  H15B 2980   1.834   1.538   5.234 -1.4589  2.8076 -3.3468
   41CHL1   C16 2981   1.993   1.572   5.371 -0.2992 -0.0291  0.1423
   41CHL1  H16A 2982   1.948   1.643   5.443  0.2934  0.7486 -0.2442
   41CHL1  H16B 2983   1.951   1.471   5.391  1.2401 -1.1639 -1.9147
   41CHL1   C17 2984   2.147   1.565   5.362  0.4071  0.0898  0.1684
   41CHL1   H17 2985   2.180   1.459   5.353  0.4312  0.1635 -0.7079
   41CHL1   C13 2986   2.173   1.619   5.218 -0.0692  0.6699  0.4260
   41CHL1   C18 2987   2.169   1.776   5.218  0.1101  0.0835  0.0300
   41CHL1  H18A 2988   2.267   1.810   5.258  0.1394 -0.2346  0.2208
   41CHL1  H18B 2989   2.152   1.819   5.116 -2.0759  0.0041  0.3184
   41CHL1  H18C 2990   2.083   1.824   5.269 -1.0897 -0.1318 -1.7125
   41CHL1   C12 2991   2.304   1.577   5.149 -0.3086  0.2363  0.6850
   41CHL1  H12A 2992   2.399   1.606   5.199 -0.2280 -0.0090  0.6747
   41CHL1  H12B 2993   2.309   1.466   5.146 -1.7226  0.1606 -1.3567
   41CHL1   C11 2994   2.300   1.619   4.998 -0.5360 -0.7887  0.2434
   41CHL1  H11A 2995   2.307   1.730   4.994 -1.8031 -0.6757  0.7934
   41CHL1  H11B 2996   2.399   1.585   4.961  1.1640  0.4468  3.2582
   41CHL1    C9 2997   2.174   1.582   4.917  0.1385  0.6062  0.2864
   41CHL1    H9 2998   2.173   1.471   4.915  1.3728  0.5899 -0.3236
   41CHL1   C10 2999   2.169   1.627   4.764 -0.5028  0.7750 -0.3988
   41CHL1   C19 3000   2.192   1.783   4.768 -0.5641 -0.2562  0.6739
   41CHL1  H19A 3001   2.289   1.813   4.814 -1.3285  1.8521  1.0135
   41CHL1  H19B 3002   2.171   1.832   4.671  1.5987 -1.4354 -0.4500
   41CHL1  H19C 3003   2.120   1.831   4.838 -1.1353 -0.3023  0.1264
   41CHL1    C1 3004   2.287   1.551   4.690  0.2156 -0.7143 -0.2770
   41CHL1   H1A 3005   2.377   1.601   4.731 -0.4456  0.4121 -0.1570
   41CHL1   H1B 3006   2.298   1.447   4.725  0.4628 -0.8382 -0.7140
   41CHL1    C2 3007   2.277   1.579   4.544  0.0527 -0.3782  0.6936
   41CHL1   H2A 3008   2.369   1.548   4.491  0.0282 -1.0667  1.0342
   41CHL1   H2B 3009   2.257   1.687   4.528 -2.8057 -0.7691  0.9689
   41CHL1   C20 3010   2.219   1.626   5.485 -0.1271 -0.1711  0.3297
   41CHL1   H20 3011   2.185   1.731   5.497 -1.4835 -0.4523 -0.7766
   41CHL1   C21 3012   2.366   1.621   5.460 -0.7698 -0.3687 -0.5458
   41CHL1  H21A 3013   2.389   1.708   5.396  1.8895 -2.1103 -2.1473
   41CHL1  H21B 3014   2.408   1.530   5.412  0.3071  1.1608 -2.6797
   41CHL1  H21C 3015   2.428   1.637   5.551 -2.7915  3.2070  0.4071
   41CHL1   C22 3016   2.183   1.545   5.612 -0.6797  0.0137 -1.0288
   41CHL1  H22A 3017   2.245   1.586   5.695 -2.1425  0.2771 -0.0264
   41CHL1  H22B 3018   2.079   1.562   5.647 -0.6497 -0.2089 -0.8208
   41CHL1   C23 3019   2.222   1.396   5.601 -0.2503 -0.3828  0.3981
   41CHL1  H23A 3020   2.161   1.352   5.520 -3.1242  1.0246  1.6182
   41CHL1  H23B 3021   2.330   1.387   5.578  0.6244 -0.3973  3.8884
   41CHL1   C24 3022   2.198   1.313   5.733  0.2220 -0.4168  0.2123
   41CHL1  H24A 3023   2.088   1.317   5.752  0.2547  1.7716  0.2521
   41CHL1  H24B 3024   2.224   1.207   5.712 -0.1491 -0.4351 -0.1764
   41CHL1   C25 3025   2.281   1.362   5.852 -0.4355  0.1713 -0.3595
   41CHL1   H25 3026   2.261   1.470   5.872 -0.6490  0.0616  0.0296
   41CHL1   C26 3027   2.236   1.275   5.973  0.8052  0.5004 -0.2265
   41CHL1  H26A 3028   2.126   1.277   5.986  0.7393  0.3789 -0.7652
   41CHL1  H26B 3029   2.252   1.170   5.940 -1.1376 -0.0855  0.5524
   41CHL1  H26C 3030   2.283   1.305   6.069 -2.1384 -0.3151  1.5895
   41CHL1   C27 3031   2.432   1.342   5.830 -0.2396  0.2283  0.1058
   41CHL1  H27A 3032   2.471   1.395   5.741  1.5924  0.1331  0.8086
   41CHL1  H27B 3033   2.465   1.389   5.925  0.9607 -0.4664  0.0517
   41CHL1  H27C 3034   2.458   1.236   5.811 -0.3714  0.3255 -0.6444
   42CHL1    C3 3035   1.681   4.512   4.299  0.3967 -0.0631 -0.1349
   42CHL1    H3 3036   1.760   4.443   4.334  1.3063  1.5961  1.2717
   42CHL1    O3 3037   1.658   4.485   4.155 -0.6187 -0.5711 -0.4752
   42CHL1   H3' 3038   1.622   4.397   4.147  1.1000 -1.3281 -0.4201
   42CHL1    C4 3039   1.554   4.475   4.381  0.5398  1.0681 -0.1802
   42CHL1   H4A 3040   1.464   4.534   4.351  1.2099  3.3066  1.9029
   42CHL1   H4B 3041   1.533   4.367   4.366  0.5612  0.8233  1.3733
   42CHL1    C5 3042   1.579   4.510   4.529  0.3987  0.6441 -0.0005
   42CHL1    C6 3043   1.561   4.417   4.624 -0.0073  0.4767  0.0527
   42CHL1    H6 3044   1.528   4.312   4.612  1.2538 -0.2919  2.5010
   42CHL1    C7 3045   1.572   4.439   4.770 -0.1528 -0.6483 -0.3748
   42CHL1   H7A 3046   1.485   4.389   4.818  0.5158 -1.0556  0.4457
   42CHL1   H7B 3047   1.664   4.385   4.802  0.8355  0.5642 -1.0904
   42CHL1    C8 3048   1.587   4.592   4.813  0.7824 -0.3828  0.2112
   42CHL1    H8 3049   1.483   4.629   4.801  1.2445  1.2959  1.0650
   42CHL1   C14 3050   1.642   4.624   4.957  1.0776  0.5875  0.9610
   42CHL1   H14 3051   1.747   4.591   4.971  0.6116 -0.1982  3.0135
   42CHL1   C15 3052   1.571   4.556   5.076 -0.1619  0.3675 -0.8570
   42CHL1  H15A 3053   1.465   4.584   5.063  0.2700  2.8930  0.5001
   42CHL1  H15B 3054   1.577   4.445   5.075  1.5180  0.4371 -1.2644
   42CHL1   C16 3055   1.609   4.637   5.198  0.6128  0.4185 -0.3678
   42CHL1  H16A 3056   1.517   4.668   5.252  1.5330 -0.9473  2.1668
   42CHL1  H16B 3057   1.670   4.577   5.268  0.4412  0.8128  0.1248
   42CHL1   C17 3058   1.702   4.749   5.147  0.1814 -0.3997  0.3293
   42CHL1   H17 3059   1.802   4.699   5.146 -1.1293 -3.1828  0.1967
   42CHL1   C13 3060   1.654   4.767   5.000  0.4034 -0.6039 -0.0230
   42CHL1   C18 3061   1.517   4.839   5.005 -0.3012  0.4118  0.2174
   42CHL1  H18A 3062   1.479   4.852   4.902  0.9224  1.4333 -0.1326
   42CHL1  H18B 3063   1.435   4.788   5.059  1.2520 -2.1056  0.3316
   42CHL1  H18C 3064   1.532   4.940   5.051  0.2939  1.4229 -2.0296
   42CHL1   C12 3065   1.752   4.837   4.901  0.4238  0.4781  0.6963
   42CHL1  H12A 3066   1.766   4.945   4.922 -1.2313  1.0096 -0.7550
   42CHL1  H12B 3067   1.850   4.784   4.901  0.5747  0.7407  1.5373
   42CHL1   C11 3068   1.704   4.816   4.752  0.0822  0.1015 -0.3479
   42CHL1  H11A 3069   1.614   4.876   4.729 -1.9740 -2.8980 -0.6606
   42CHL1  H11B 3070   1.778   4.854   4.678 -0.1983  0.3180 -0.5194
   42CHL1    C9 3071   1.677   4.664   4.710 -0.2689 -0.3508 -0.2622
   42CHL1    H9 3072   1.776   4.614   4.720  0.4263  1.1052  0.4361
   42CHL1   C10 3073   1.631   4.646   4.563 -0.3025  0.0251 -0.4728
   42CHL1   C19 3074   1.525   4.757   4.537 -0.3829  0.4200 -0.0188
   42CHL1  H19A 3075   1.471   4.735   4.442  1.6547 -3.2190 -0.5037
   42CHL1  H19B 3076   1.446   4.771   4.614 -0.5066 -0.2076 -0.0272
   42CHL1  H19C 3077   1.577   4.849   4.503  2.8541 -2.1748 -2.7670
   42CHL1    C1 3078   1.761   4.666   4.480 -0.5715  0.6864  0.5540
   42CHL1   H1A 3079   1.793   4.769   4.507 -2.2861  1.0463  1.2811
   42CHL1   H1B 3080   1.843   4.595   4.504 -2.2368 -0.8959  1.7623
   42CHL1    C2 3081   1.742   4.646   4.324 -0.0736 -0.5415  0.0682
   42CHL1   H2A 3082   1.841   4.654   4.276  1.2652  1.4541  2.8531
   42CHL1   H2B 3083   1.686   4.737   4.292 -0.1575  0.2635  2.2805
   42CHL1   C20 3084   1.715   4.871   5.243 -0.4912 -0.0616  0.0574
   42CHL1   H20 3085   1.616   4.921   5.253 -0.2202  0.6671 -0.8299
   42CHL1   C21 3086   1.822   4.973   5.192 -0.4182  0.0813  0.6011
   42CHL1  H21A 3087   1.798   5.015   5.092 -3.7324 -1.1987  0.7179
   42CHL1  H21B 3088   1.916   4.917   5.175 -0.9513 -0.4817 -0.5845
   42CHL1  H21C 3089   1.842   5.059   5.260  0.9827  0.3862 -0.1641
   42CHL1   C22 3090   1.759   4.821   5.378 -0.5662  0.1714  0.4675
   42CHL1  H22A 3091   1.726   4.904   5.444 -2.4615 -2.1584  2.6464
   42CHL1  H22B 3092   1.691   4.743   5.419 -0.0123 -0.5625  0.0147
   42CHL1   C23 3093   1.907   4.773   5.403  0.6254  0.8287  0.1013
   42CHL1  H23A 3094   1.933   4.708   5.318 -0.6597 -1.7465  1.5596
   42CHL1  H23B 3095   1.976   4.860   5.399  2.6780 -0.6566  1.1475
   42CHL1   C24 3096   1.926   4.690   5.522 -0.6351  0.3168 -0.1294
   42CHL1  H24A 3097   1.866   4.598   5.504  1.8851 -1.3360 -0.5323
   42CHL1  H24B 3098   2.033   4.663   5.533 -0.1724  1.0056 -2.3212
   42CHL1   C25 3099   1.887   4.763   5.652 -0.3411 -0.1106 -0.5096
   42CHL1   H25 3100   1.781   4.795   5.656 -0.3317 -0.1515  0.2788
   42CHL1   C26 3101   1.913   4.683   5.783  0.0783  0.6438 -0.0450
   42CHL1  H26A 3102   1.863   4.585   5.773  1.8466 -0.2068 -0.9612
   42CHL1  H26B 3103   2.023   4.669   5.799  0.0070 -0.2632 -0.3327
   42CHL1  H26C 3104   1.873   4.730   5.876 -0.0996  2.2400 -0.8939
   42CHL1   C27 3105   1.969   4.892   5.667  0.0963 -0.0819 -0.1546
   42CHL1  H27A 3106   1.954   4.972   5.591  1.1332  0.0839 -0.1997
   42CHL1  H27B 3107   1.953   4.949   5.761  0.9867  0.3958 -0.2886
   42CHL1  H27C 3108   2.078   4.872   5.658  0.3395  1.1803 -0.1522
   43CHL1    C3 3109   2.762   4.957   4.561  0.4769  0.0905 -0.1944
   43CHL1    H3 3110   2.820   5.048   4.589 -0.5963  0.8251 -0.2920
   43CHL1    O3 3111   2.734   4.956   4.424 -0.2438 -0.1597  0.1962
   43CHL1   H3' 3112   2.812   4.996   4.384 -0.1326 -2.0096 -1.5341
   43CHL1    C4 3113   2.849   4.840   4.595  0.8981  0.1282 -0.0210
   43CHL1   H4A 3114   2.806   4.744   4.559 -0.6505  1.1252 -0.9547
   43CHL1   H4B 3115   2.941   4.847   4.533  0.3863 -1.9809 -1.0993
   43CHL1    C5 3116   2.881   4.847   4.739  0.1280  0.3428  0.2206
   43CHL1    C6 3117   3.004   4.861   4.790 -0.6679  0.1606  1.1736
   43CHL1    H6 3118   3.083   4.856   4.713 -2.1042 -1.8057 -0.2748
   43CHL1    C7 3119   3.051   4.860   4.931 -0.4756 -0.4290 -0.4753
   43CHL1   H7A 3120   3.133   4.787   4.947  2.3443  3.0374  2.4658
   43CHL1   H7B 3121   3.084   4.959   4.968  1.4747 -1.3484  0.3554
   43CHL1    C8 3122   2.929   4.816   5.023 -0.1598  0.2692 -0.0810
   43CHL1    H8 3123   2.911   4.707   5.011  1.7423 -0.1754  0.7594
   43CHL1   C14 3124   2.960   4.845   5.174  0.3245  0.3372 -0.1663
   43CHL1   H14 3125   2.952   4.955   5.188 -0.3249  0.2763 -0.0298
   43CHL1   C15 3126   3.086   4.784   5.234 -0.1424  0.0647  0.4283
   43CHL1  H15A 3127   3.116   4.682   5.203 -0.1257 -0.2443  1.4294
   43CHL1  H15B 3128   3.166   4.859   5.220 -1.6332  1.4766 -1.0107
   43CHL1   C16 3129   3.054   4.772   5.383  0.1883  0.3936  0.1222
   43CHL1  H16A 3130   3.051   4.668   5.421  2.7403  1.3356  3.2849
   43CHL1  H16B 3131   3.123   4.818   5.457 -0.4987  0.5633  0.6694
   43CHL1   C17 3132   2.913   4.831   5.396 -0.0924  0.3628 -0.3842
   43CHL1   H17 3133   2.924   4.942   5.406  2.7306  0.0208  1.4036
   43CHL1   C13 3134   2.838   4.805   5.268  0.4676  0.3007 -0.1362
   43CHL1   C18 3135   2.802   4.654   5.256  0.4305 -0.2985  0.3530
   43CHL1  H18A 3136   2.891   4.601   5.296  1.0223 -0.8835 -1.6153
   43CHL1  H18B 3137   2.715   4.623   5.318 -0.1205  1.2643  0.4164
   43CHL1  H18C 3138   2.796   4.629   5.148  1.2933 -0.8194  0.4193
   43CHL1   C12 3139   2.716   4.898   5.242 -0.4359  0.6199  0.5346
   43CHL1  H12A 3140   2.633   4.863   5.307  0.6996 -1.7402  0.8178
   43CHL1  H12B 3141   2.760   4.997   5.264  1.2004  0.0841 -0.1981
   43CHL1   C11 3142   2.683   4.878   5.095  0.1485 -0.4143  0.9522
   43CHL1  H11A 3143   2.639   4.777   5.081  0.8964 -0.7196  0.7836
   43CHL1  H11B 3144   2.609   4.957   5.072 -0.2430 -0.9859  0.2039
   43CHL1    C9 3145   2.802   4.894   4.986 -0.1760  0.0614 -0.2817
   43CHL1    H9 3146   2.832   5.000   4.976 -2.9148  0.8221 -1.3628
   43CHL1   C10 3147   2.759   4.848   4.839 -0.4781  0.4775 -0.3474
   43CHL1   C19 3148   2.694   4.708   4.828 -0.2622 -0.7423  0.0175
   43CHL1  H19A 3149   2.766   4.632   4.865  0.1074 -0.5223 -0.2507
   43CHL1  H19B 3150   2.595   4.706   4.879 -0.3660 -1.9455 -0.1956
   43CHL1  H19C 3151   2.676   4.680   4.722  1.6819  0.1765 -0.5908
   43CHL1    C1 3152   2.656   4.951   4.786  0.0066  0.2298 -0.1268
   43CHL1   H1A 3153   2.562   4.927   4.841 -0.1698  1.9225  0.3609
   43CHL1   H1B 3154   2.693   5.051   4.817 -1.3100  0.2653  1.4929
   43CHL1    C2 3155   2.631   4.952   4.636 -0.2092  0.5333 -0.1225
   43CHL1   H2A 3156   2.560   5.032   4.605 -1.1768 -0.5251 -0.7198
   43CHL1   H2B 3157   2.574   4.860   4.609 -1.3198  1.4071 -0.8875
   43CHL1   C20 3158   2.841   4.790   5.520 -0.3885 -0.2927 -0.1116
   43CHL1   H20 3159   2.733   4.800   5.494 -0.1061  0.6081 -1.0236
   43CHL1   C21 3160   2.869   4.889   5.633  0.1150  0.2615 -0.0607
   43CHL1  H21A 3161   2.793   4.876   5.713  1.0332 -3.3244  0.4148
   43CHL1  H21B 3162   2.870   4.994   5.597 -0.2544 -0.4430 -2.2797
   43CHL1  H21C 3163   2.968   4.868   5.679  0.4911 -0.2512 -1.0540
   43CHL1   C22 3164   2.859   4.652   5.582 -0.3572  0.3521  0.0376
   43CHL1  H22A 3165   2.848   4.583   5.496  1.2280  1.5208 -1.1634
   43CHL1  H22B 3166   2.964   4.639   5.616 -0.1246 -2.4827 -1.4724
   43CHL1   C23 3167   2.755   4.627   5.699  0.1025  0.1886  0.1642
   43CHL1  H23A 3168   2.793   4.673   5.793 -0.4817 -0.9847  1.0038
   43CHL1  H23B 3169   2.661   4.679   5.672 -0.5865 -0.3603  1.3935
   43CHL1   C24 3170   2.732   4.472   5.724  0.4071  0.7169 -0.9086
   43CHL1  H24A 3171   2.679   4.468   5.821 -1.6267 -0.2461 -1.9896
   43CHL1  H24B 3172   2.661   4.430   5.649  1.2691 -0.6784 -0.9953
   43CHL1   C25 3173   2.851   4.376   5.747  0.7647 -0.1409  0.4339
   43CHL1   H25 3174   2.897   4.372   5.646 -2.1550 -0.4265 -1.0171
   43CHL1   C26 3175   2.946   4.433   5.850 -0.0266 -0.1888 -0.4014
   43CHL1  H26A 3176   2.915   4.413   5.955  1.5866 -0.0959  0.1250
   43CHL1  H26B 3177   3.047   4.389   5.833  1.6408  3.1690  0.0475
   43CHL1  H26C 3178   2.967   4.541   5.834  1.3587 -0.4252 -0.3276
   43CHL1   C27 3179   2.807   4.237   5.776 -0.1917  0.1709  0.2553
   43CHL1  H27A 3180   2.890   4.172   5.742  2.8610  3.0700  1.6056
   43CHL1  H27B 3181   2.774   4.237   5.882  1.6024  1.3082  0.8498
   43CHL1  H27C 3182   2.708   4.224   5.726 -1.6842  1.8093  2.5431
   44CHL1    C3 3183   4.851   2.892   4.530 -0.2613  0.0351 -0.4382
   44CHL1    H3 3184   4.760   2.957   4.533 -0.6570 -0.5402  1.3060
   44CHL1    O3 3185   4.890   2.876   4.394 -0.4136 -0.2069 -1.0717
   44CHL1   H3' 3186   4.978   2.915   4.389 -0.3727  0.1044  0.8990
   44CHL1    C4 3187   4.975   2.946   4.604 -0.5471  0.3464  0.0256
   44CHL1   H4A 3188   5.055   2.870   4.595 -0.7965  0.2467 -1.7751
   44CHL1   H4B 3189   5.020   3.034   4.553  2.6255 -1.0889  0.1007
   44CHL1    C5 3190   4.938   2.980   4.745  0.5764 -0.4648  0.1836
   44CHL1    C6 3191   4.965   3.097   4.806  0.3557  0.3676 -0.9388
   44CHL1    H6 3192   5.016   3.179   4.754 -0.5888  1.2193 -0.5594
   44CHL1    C7 3193   4.941   3.114   4.954 -0.3823 -0.5940 -0.0374
   44CHL1   H7A 3194   5.032   3.160   4.998 -1.4767  2.0733 -0.3328
   44CHL1   H7B 3195   4.857   3.185   4.970 -0.1850 -0.4229  0.2514
   44CHL1    C8 3196   4.913   2.989   5.031  0.1609  0.3790 -0.4030
   44CHL1    H8 3197   5.009   2.936   5.048 -0.7411 -0.6963  1.6988
   44CHL1   C14 3198   4.853   3.028   5.165 -0.0708  0.0832  0.1973
   44CHL1   H14 3199   4.760   3.085   5.140  0.2163  1.1505  1.4489
   44CHL1   C15 3200   4.937   3.131   5.245  0.8196  0.7518  0.3551
   44CHL1  H15A 3201   5.045   3.104   5.241  0.2932 -1.3445 -0.9459
   44CHL1  H15B 3202   4.931   3.235   5.204  3.4085  0.9496  0.2793
   44CHL1   C16 3203   4.870   3.129   5.388 -0.9212  0.1984  0.2945
   44CHL1  H16A 3204   4.953   3.113   5.461  1.9275  0.9712 -2.5146
   44CHL1  H16B 3205   4.809   3.218   5.413 -0.9566  1.0333 -2.4051
   44CHL1   C17 3206   4.777   3.000   5.387 -0.2381 -0.5056 -0.1792
   44CHL1   H17 3207   4.675   3.040   5.366  1.3702  3.7917 -0.7468
   44CHL1   C13 3208   4.828   2.917   5.264 -0.0981  0.6442 -0.0275
   44CHL1   C18 3209   4.960   2.854   5.305  0.7179  0.6295 -0.5262
   44CHL1  H18A 3210   5.025   2.919   5.368  1.5575  1.5929 -2.3138
   44CHL1  H18B 3211   4.926   2.763   5.358 -1.7291  0.7544 -1.7371
   44CHL1  H18C 3212   5.008   2.818   5.212  0.2631 -4.2297  0.8489
   44CHL1   C12 3213   4.737   2.809   5.195 -0.4865 -0.2283  0.2126
   44CHL1  H12A 3214   4.742   2.722   5.264 -0.3128 -0.3613  0.0329
   44CHL1  H12B 3215   4.636   2.855   5.195  0.5659  2.2331 -0.7136
   44CHL1   C11 3216   4.774   2.767   5.053  0.6774 -0.8154  0.0621
   44CHL1  H11A 3217   4.853   2.694   5.076  0.6074 -1.0839 -0.5324
   44CHL1  H11B 3218   4.693   2.705   5.010  0.4055 -3.4950  3.9213
   44CHL1    C9 3219   4.817   2.888   4.956 -0.1800  0.3014 -0.5079
   44CHL1    H9 3220   4.720   2.941   4.940 -1.0973 -0.3427  2.3798
   44CHL1   C10 3221   4.875   2.852   4.813  0.0461  0.6434  0.2769
   44CHL1   C19 3222   4.998   2.760   4.840 -0.3873 -0.3595  0.4356
   44CHL1  H19A 3223   4.958   2.673   4.895 -3.5610 -0.5410 -1.8793
   44CHL1  H19B 3224   5.049   2.717   4.751 -2.5118 -0.4116 -0.8365
   44CHL1  H19C 3225   5.077   2.816   4.895 -1.0493  1.0560 -0.0156
   44CHL1    C1 3226   4.765   2.771   4.726  0.4430  0.1181  0.6889
   44CHL1   H1A 3227   4.729   2.679   4.776 -1.4769 -0.0508 -0.8345
   44CHL1   H1B 3228   4.681   2.844   4.718  2.0775  1.8858 -1.4742
   44CHL1    C2 3229   4.805   2.750   4.581 -0.1669 -0.5985  0.4584
   44CHL1   H2A 3230   4.716   2.719   4.522 -1.4313  3.3181  0.0281
   44CHL1   H2B 3231   4.896   2.688   4.565  1.9935  2.5445 -0.3720
   44CHL1   C20 3232   4.773   2.939   5.526  0.1493 -0.3070  0.6472
   44CHL1   H20 3233   4.877   2.905   5.548  0.4246 -0.8329 -1.3278
   44CHL1   C21 3234   4.679   2.813   5.516 -0.9396 -0.3873 -0.2261
   44CHL1  H21A 3235   4.585   2.820   5.456  0.1552 -1.2239 -2.1318
   44CHL1  H21B 3236   4.653   2.768   5.614 -1.6457  0.4152 -0.0372
   44CHL1  H21C 3237   4.740   2.735   5.465  1.2685  0.1980  1.3833
   44CHL1   C22 3238   4.740   3.037   5.642  0.6216 -0.5649 -1.1295
   44CHL1  H22A 3239   4.820   3.114   5.654 -1.2674  1.1770  1.0616
   44CHL1  H22B 3240   4.646   3.088   5.613  0.0493  0.3907  2.0077
   44CHL1   C23 3241   4.711   2.972   5.775  0.0796 -0.4639  0.2074
   44CHL1  H23A 3242   4.616   2.916   5.760  0.4055 -0.7040 -1.0492
   44CHL1  H23B 3243   4.794   2.911   5.815  1.5372  2.0910  1.2924
   44CHL1   C24 3244   4.693   3.081   5.882  0.4795  0.0156 -0.5981
   44CHL1  H24A 3245   4.779   3.151   5.885  0.3309  0.3033 -2.1890
   44CHL1  H24B 3246   4.604   3.146   5.866 -1.1364 -2.2603 -1.3085
   44CHL1   C25 3247   4.689   3.018   6.031 -0.3212 -0.0460 -0.1208
   44CHL1   H25 3248   4.791   2.975   6.038  1.1604  3.2813  1.4223
   44CHL1   C26 3249   4.673   3.125   6.139  0.2332  0.1167  0.0423
   44CHL1  H26A 3250   4.751   3.204   6.134  0.4200 -0.0257  0.6375
   44CHL1  H26B 3251   4.578   3.175   6.110 -0.5743 -1.6275 -0.4909
   44CHL1  H26C 3252   4.674   3.083   6.241 -0.3854 -1.1113 -0.4413
   44CHL1   C27 3253   4.579   2.909   6.050 -0.0858 -0.3862 -1.0182
   44CHL1  H27A 3254   4.593   2.824   5.980 -1.5611 -1.6249  0.1355
   44CHL1  H27B 3255   4.581   2.866   6.152  0.5271  1.5436 -0.1644
   44CHL1  H27C 3256   4.479   2.951   6.029 -0.4976 -0.0735  1.2930
   45CHL1    C3 3257   0.546   2.792   4.760  0.0592 -0.0522 -0.3713
   45CHL1    H3 3258   0.628   2.725   4.793  0.3033  0.4291  0.0131
   45CHL1    O3 3259   0.571   2.843   4.631  0.4008 -0.2901  0.3929
   45CHL1   H3' 3260   0.500   2.898   4.596  0.6589 -0.5019 -0.4863
   45CHL1    C4 3261   0.412   2.703   4.760  0.0603 -0.3661 -0.0380
   45CHL1   H4A 3262   0.338   2.778   4.726  0.9405  0.8982  0.7642
   45CHL1   H4B 3263   0.413   2.621   4.685  0.6982  0.2235 -0.6941
   45CHL1    C5 3264   0.376   2.650   4.904  0.1375 -0.0967  0.2771
   45CHL1    C6 3265   0.363   2.515   4.934  0.5060  0.3968 -1.0604
   45CHL1    H6 3266   0.385   2.440   4.856 -0.3582 -0.0978 -0.8450
   45CHL1    C7 3267   0.325   2.466   5.074  0.4200 -0.2122 -0.1902
   45CHL1   H7A 3268   0.265   2.375   5.054  1.9286 -1.0309 -1.2090
   45CHL1   H7B 3269   0.420   2.435   5.123  0.5791  1.1831  0.4361
   45CHL1    C8 3270   0.270   2.583   5.164 -0.1454 -0.4229 -0.0791
   45CHL1    H8 3271   0.168   2.616   5.135 -0.8492 -0.9001  1.7038
   45CHL1   C14 3272   0.266   2.534   5.310 -0.3223  0.1662  0.5001
   45CHL1   H14 3273   0.373   2.512   5.332 -0.0879  0.1265 -0.6278
   45CHL1   C15 3274   0.180   2.415   5.350 -0.2197  0.5498 -0.1947
   45CHL1  H15A 3275   0.074   2.404   5.317 -0.8299 -0.3895  1.9407
   45CHL1  H15B 3276   0.232   2.326   5.309  1.8577  1.4263  0.4116
   45CHL1   C16 3277   0.180   2.420   5.498 -0.0049 -0.2639 -0.0194
   45CHL1  H16A 3278   0.080   2.391   5.536  0.8498 -0.9355  1.8245
   45CHL1  H16B 3279   0.254   2.347   5.539  0.9672  1.0131  0.5826
   45CHL1   C17 3280   0.229   2.558   5.548 -0.0074 -0.2793  0.1708
   45CHL1   H17 3281   0.337   2.544   5.570  0.7977  2.0965 -1.8321
   45CHL1   C13 3282   0.225   2.637   5.412 -0.5212 -0.2970  0.1321
   45CHL1   C18 3283   0.078   2.676   5.386 -0.5119 -0.3214  0.6743
   45CHL1  H18A 3284   0.058   2.764   5.451  1.1278  2.4155 -2.2884
   45CHL1  H18B 3285   0.059   2.720   5.286 -1.2275 -0.4018  0.7703
   45CHL1  H18C 3286   0.003   2.597   5.409 -0.2138 -0.2787  1.8485
   45CHL1   C12 3287   0.317   2.761   5.415 -0.8436  0.6971  0.1161
   45CHL1  H12A 3288   0.301   2.846   5.485  1.0375  0.9612  0.2893
   45CHL1  H12B 3289   0.419   2.726   5.440 -1.1437 -0.9234 -0.8024
   45CHL1   C11 3290   0.331   2.813   5.265  0.6512  0.0150 -0.1208
   45CHL1  H11A 3291   0.236   2.868   5.247  1.7553  1.4075 -2.1744
   45CHL1  H11B 3292   0.409   2.892   5.270 -1.2311  1.8610  1.7311
   45CHL1    C9 3293   0.360   2.705   5.153 -0.3334  0.5421 -0.2672
   45CHL1    H9 3294   0.462   2.662   5.163 -0.3338  0.1766 -1.7276
   45CHL1   C10 3295   0.370   2.756   5.009  0.7376 -0.7348 -0.6522
   45CHL1   C19 3296   0.246   2.851   4.985  0.1490  0.0458 -0.7957
   45CHL1  H19A 3297   0.151   2.802   5.018 -0.2471 -1.0243 -3.3331
   45CHL1  H19B 3298   0.265   2.937   5.052  3.8653  0.4659 -2.1803
   45CHL1  H19C 3299   0.235   2.901   4.887 -2.7874 -3.5858 -2.6119
   45CHL1    C1 3300   0.502   2.837   5.001  0.4242  0.1957 -0.1552
   45CHL1   H1A 3301   0.500   2.917   5.077  3.2407  0.7779 -0.5831
   45CHL1   H1B 3302   0.588   2.772   5.029 -1.7681 -2.1160  1.7365
   45CHL1    C2 3303   0.535   2.903   4.864  0.1420 -0.4161  0.0821
   45CHL1   H2A 3304   0.617   2.974   4.886  0.8029 -0.6530 -1.4726
   45CHL1   H2B 3305   0.445   2.960   4.832 -0.5149 -1.3185  0.2843
   45CHL1   C20 3306   0.169   2.614   5.678 -0.3921 -0.0158 -0.8016
   45CHL1   H20 3307   0.059   2.607   5.667 -0.4659  0.7470 -0.5865
   45CHL1   C21 3308   0.206   2.757   5.717 -0.4677  0.7333 -0.2646
   45CHL1  H21A 3309   0.159   2.784   5.814  3.5094  0.7374  1.8580
   45CHL1  H21B 3310   0.170   2.832   5.644 -1.5590  1.9602  1.4699
   45CHL1  H21C 3311   0.314   2.778   5.734 -0.6406  2.6396 -1.2486
   45CHL1   C22 3312   0.198   2.528   5.804 -0.1912  0.8155  0.2263
   45CHL1  H22A 3313   0.140   2.570   5.889  1.4416  0.0654  1.7503
   45CHL1  H22B 3314   0.158   2.428   5.778  2.3920  0.4549 -3.0046
   45CHL1   C23 3315   0.343   2.520   5.852  0.7049 -0.1484 -0.5472
   45CHL1  H23A 3316   0.399   2.467   5.773  0.3864  0.1842 -1.0023
   45CHL1  H23B 3317   0.390   2.617   5.878  0.0924 -0.5770  2.5472
   45CHL1   C24 3318   0.352   2.447   5.989 -0.2878  0.7643 -0.5037
   45CHL1  H24A 3319   0.300   2.512   6.062 -0.7901  1.1118 -1.1560
   45CHL1  H24B 3320   0.299   2.349   5.997  0.4650  0.3319 -0.7254
   45CHL1   C25 3321   0.513   2.433   6.021  0.4857 -0.2893  0.8167
   45CHL1   H25 3322   0.561   2.531   6.003  0.2938 -0.3327  0.0310
   45CHL1   C26 3323   0.543   2.411   6.176 -0.0411  0.1507 -0.1743
   45CHL1  H26A 3324   0.649   2.427   6.204 -0.4053  2.2961  0.1305
   45CHL1  H26B 3325   0.473   2.483   6.223  0.3751 -0.2318  1.0787
   45CHL1  H26C 3326   0.503   2.309   6.192 -2.4339  1.0075 -0.2430
   45CHL1   C27 3327   0.570   2.326   5.932  0.8397  0.5269  0.2344
   45CHL1  H27A 3328   0.522   2.230   5.958 -2.1767  2.0448  0.7792
   45CHL1  H27B 3329   0.547   2.352   5.826 -1.1297 -0.7252  0.2878
   45CHL1  H27C 3330   0.680   2.330   5.946  0.8626  1.3711 -0.0795
   46CHL1    C3 3331   3.356   1.950   4.586  0.5617 -0.4617  0.2963
   46CHL1    H3 3332   3.453   1.915   4.626  0.4404 -0.8722  0.2364
   46CHL1    O3 3333   3.353   1.946   4.438  0.3767 -0.2475 -0.4120
   46CHL1   H3' 3334   3.271   1.992   4.418  1.4166  1.8051 -0.3033
   46CHL1    C4 3335   3.241   1.871   4.641  0.5102  0.0070 -0.2242
   46CHL1   H4A 3336   3.148   1.907   4.593 -1.0858  0.9844  3.3238
   46CHL1   H4B 3337   3.248   1.765   4.610  2.0025  0.1599 -0.5061
   46CHL1    C5 3338   3.224   1.887   4.787 -1.0120 -0.1427  0.4135
   46CHL1    C6 3339   3.214   1.774   4.855 -0.6856  0.5235  0.1560
   46CHL1    H6 3340   3.220   1.675   4.807 -1.5326 -0.3985  1.8591
   46CHL1    C7 3341   3.205   1.777   5.009  0.5917 -0.1129  0.8866
   46CHL1   H7A 3342   3.145   1.694   5.052  1.2646 -1.1143 -0.0528
   46CHL1   H7B 3343   3.307   1.761   5.050  0.3072  0.6518  1.9287
   46CHL1    C8 3344   3.160   1.912   5.074  0.8162  0.1819 -0.4131
   46CHL1    H8 3345   3.051   1.923   5.060  0.7758 -0.9831 -1.1281
   46CHL1   C14 3346   3.193   1.918   5.226 -1.0700 -0.0143  0.4913
   46CHL1   H14 3347   3.304   1.916   5.229 -0.7224  1.2536 -4.2394
   46CHL1   C15 3348   3.124   1.812   5.311 -0.0074 -0.1150 -0.2417
   46CHL1  H15A 3349   3.014   1.829   5.304 -0.1723  0.0295  1.9380
   46CHL1  H15B 3350   3.144   1.706   5.282  1.4429  0.6460 -2.1878
   46CHL1   C16 3351   3.168   1.858   5.454 -0.2976 -0.6069  0.3782
   46CHL1  H16A 3352   3.092   1.835   5.532 -0.1251 -0.3190  0.6299
   46CHL1  H16B 3353   3.268   1.816   5.477  0.9644  1.3898 -1.1235
   46CHL1   C17 3354   3.200   2.016   5.439 -0.6776  0.1746  0.9247
   46CHL1   H17 3355   3.311   2.019   5.451 -0.1225 -1.0014 -2.6812
   46CHL1   C13 3356   3.163   2.054   5.290 -0.4535 -0.5264  0.5532
   46CHL1   C18 3357   3.011   2.080   5.286  0.3017  0.4636 -0.2922
   46CHL1  H18A 3358   2.997   2.188   5.307  3.1533  0.5963  1.4996
   46CHL1  H18B 3359   2.966   2.050   5.189 -1.5024  2.0916 -0.0036
   46CHL1  H18C 3360   2.968   2.021   5.370  1.8177 -0.2349  0.0271
   46CHL1   C12 3361   3.244   2.160   5.213  0.3565 -0.6916 -0.3252
   46CHL1  H12A 3362   3.218   2.252   5.269 -0.0637 -1.8047  1.3847
   46CHL1  H12B 3363   3.352   2.144   5.234  0.3001 -0.4944  0.1253
   46CHL1   C11 3364   3.217   2.164   5.066  0.2591 -0.3315  0.2957
   46CHL1  H11A 3365   3.108   2.185   5.052  0.7832  2.7532  0.2011
   46CHL1  H11B 3366   3.265   2.249   5.013 -3.2167  0.3313 -2.1708
   46CHL1    C9 3367   3.238   2.024   5.004  0.2183 -0.2365 -0.3872
   46CHL1    H9 3368   3.346   2.003   5.022  0.5686 -0.0111 -2.0658
   46CHL1   C10 3369   3.224   2.032   4.849 -0.6329  0.2602  0.0525
   46CHL1   C19 3370   3.087   2.103   4.809  0.0584 -0.6443  0.3668
   46CHL1  H19A 3371   3.071   2.204   4.854 -0.6408 -1.1606  1.3085
   46CHL1  H19B 3372   3.064   2.119   4.701 -3.3443 -1.1285  0.9277
   46CHL1  H19C 3373   3.003   2.035   4.833  0.0076 -0.8501 -0.3757
   46CHL1    C1 3374   3.345   2.104   4.781 -0.1147 -0.2336  0.0147
   46CHL1   H1A 3375   3.341   2.211   4.807  0.2369  0.2861 -1.9281
   46CHL1   H1B 3376   3.435   2.062   4.832 -0.6729  1.3259  2.4146
   46CHL1    C2 3377   3.350   2.093   4.622 -0.5465 -0.6380  0.2759
   46CHL1   H2A 3378   3.440   2.148   4.589 -2.2338  1.7633 -0.5478
   46CHL1   H2B 3379   3.262   2.137   4.571  0.9957  0.4371 -1.5826
   46CHL1   C20 3380   3.151   2.103   5.553 -0.4373 -0.2133 -1.2516
   46CHL1   H20 3381   3.041   2.110   5.552 -0.3396  1.4968 -2.0273
   46CHL1   C21 3382   3.200   2.252   5.553 -0.0158 -0.9344  0.3975
   46CHL1  H21A 3383   3.162   2.308   5.465 -0.4358 -1.2450  0.3795
   46CHL1  H21B 3384   3.311   2.252   5.545 -0.0670 -1.2968 -0.4404
   46CHL1  H21C 3385   3.168   2.297   5.650  0.3071 -0.8481  0.4643
   46CHL1   C22 3386   3.198   2.051   5.699  0.0658  0.2093  0.4701
   46CHL1  H22A 3387   3.222   1.943   5.690 -1.4395 -0.0398 -1.2211
   46CHL1  H22B 3388   3.283   2.116   5.730  0.4689  0.6527 -1.4086
   46CHL1   C23 3389   3.085   2.067   5.798  0.1226 -0.4624  0.0047
   46CHL1  H23A 3390   3.035   2.163   5.773  0.0000 -0.4877  0.1498
   46CHL1  H23B 3391   2.999   1.997   5.786 -1.1911  1.0951 -0.1139
   46CHL1   C24 3392   3.112   2.059   5.949  0.0547 -0.5260  0.3042
   46CHL1  H24A 3393   3.184   2.136   5.984 -0.8764 -0.3943  1.9996
   46CHL1  H24B 3394   3.023   2.085   6.009 -0.6595  0.9779 -1.3176
   46CHL1   C25 3395   3.166   1.926   5.999 -0.3759 -0.5583  0.3914
   46CHL1   H25 3396   3.260   1.904   5.944  0.2666  2.1820  0.2875
   46CHL1   C26 3397   3.201   1.934   6.149  0.2906 -0.1610  0.1183
   46CHL1  H26A 3398   3.238   1.835   6.182  1.1577 -0.1102 -0.6779
   46CHL1  H26B 3399   3.287   2.004   6.155  0.7317 -0.4326 -2.1924
   46CHL1  H26C 3400   3.111   1.966   6.207  0.3259 -1.2783  0.8123
   46CHL1   C27 3401   3.073   1.807   5.989  0.0636 -0.0068  0.1759
   46CHL1  H27A 3402   3.019   1.798   5.892 -0.0425 -1.4196  0.3391
   46CHL1  H27B 3403   3.129   1.712   6.006 -0.0016  0.0059  0.4645
   46CHL1  H27C 3404   2.979   1.817   6.047 -0.5228  1.3018 -0.9555
   47CHL1    C3 3405   1.225   2.319   7.683 -0.4141 -0.2620  0.4177
   47CHL1    H3 3406   1.200   2.214   7.657 -0.5789  0.1423 -1.1414
   47CHL1    O3 3407   1.245   2.331   7.821 -0.2136  0.2043  0.6231
   47CHL1   H3' 3408   1.338   2.354   7.827 -0.4085  1.9147 -1.6384
   47CHL1    C4 3409   1.352   2.371   7.606  0.1376  0.2895 -0.3171
   47CHL1   H4A 3410   1.389   2.464   7.653 -0.4765  1.3786 -1.9053
   47CHL1   H4B 3411   1.428   2.290   7.618 -0.5455 -0.7301 -2.3899
   47CHL1    C5 3412   1.324   2.397   7.455 -0.3861 -0.4887  0.1519
   47CHL1    C6 3413   1.409   2.352   7.364 -0.5716 -0.6169 -0.0073
   47CHL1    H6 3414   1.499   2.295   7.389 -0.7158 -0.9605 -0.2652
   47CHL1    C7 3415   1.395   2.361   7.216 -0.4868 -0.9445 -0.5530
   47CHL1   H7A 3416   1.484   2.392   7.156  1.2587  0.9254  2.7231
   47CHL1   H7B 3417   1.378   2.253   7.196  2.7837 -1.9491  1.3037
   47CHL1    C8 3418   1.275   2.451   7.170 -0.5297  0.0730  0.0343
   47CHL1    H8 3419   1.311   2.556   7.167  0.6778 -0.3024  0.5405
   47CHL1   C14 3420   1.241   2.402   7.030  0.2591  0.3509 -0.0894
   47CHL1   H14 3421   1.201   2.298   7.036 -1.7011  1.1359  2.3563
   47CHL1   C15 3422   1.345   2.386   6.919  0.0583 -0.0443  1.0058
   47CHL1  H15A 3423   1.404   2.480   6.909 -0.3554 -0.0031 -3.9640
   47CHL1  H15B 3424   1.411   2.297   6.917  0.1896  0.0351 -1.2694
   47CHL1   C16 3425   1.255   2.383   6.790 -0.2192 -0.5295 -0.3341
   47CHL1  H16A 3426   1.314   2.449   6.723 -0.8678 -0.2215 -0.6181
   47CHL1  H16B 3427   1.239   2.283   6.745  0.3412  0.0541 -1.8942
   47CHL1   C17 3428   1.112   2.431   6.822  0.3877  0.4586 -0.7678
   47CHL1   H17 3429   1.050   2.339   6.817 -1.0019  1.3177 -0.0445
   47CHL1   C13 3430   1.121   2.484   6.967  0.3279 -0.0815 -0.9615
   47CHL1   C18 3431   1.164   2.639   6.954  0.4952  0.3911  0.1936
   47CHL1  H18A 3432   1.080   2.690   6.901  0.6801  0.2113 -0.2829
   47CHL1  H18B 3433   1.204   2.672   7.051 -0.2838 -0.8167  0.9634
   47CHL1  H18C 3434   1.246   2.642   6.879  1.3172 -0.2609  1.0555
   47CHL1   C12 3435   1.001   2.461   7.068 -0.4152  0.2801  0.1220
   47CHL1  H12A 3436   0.911   2.506   7.020 -0.5864 -0.8260 -0.6122
   47CHL1  H12B 3437   0.983   2.353   7.082  1.2502 -0.1279 -0.7508
   47CHL1   C11 3438   1.032   2.512   7.206 -0.4191 -0.2315  0.5151
   47CHL1  H11A 3439   1.041   2.622   7.198  1.2795 -0.2955  1.1087
   47CHL1  H11B 3440   0.941   2.491   7.267 -1.0443  0.1994 -0.2542
   47CHL1    C9 3441   1.155   2.434   7.266 -0.5462  0.2088  0.0712
   47CHL1    H9 3442   1.126   2.327   7.256  0.5877 -0.0318 -0.8489
   47CHL1   C10 3443   1.195   2.465   7.410 -0.3228 -0.5819  0.6712
   47CHL1   C19 3444   1.224   2.620   7.427 -0.3097  0.0982  0.5173
   47CHL1  H19A 3445   1.201   2.648   7.532 -2.9774 -1.0215  0.3192
   47CHL1  H19B 3446   1.320   2.653   7.383 -1.3235  2.5875 -0.0097
   47CHL1  H19C 3447   1.160   2.685   7.364  1.2537  1.1976  0.0254
   47CHL1    C1 3448   1.076   2.422   7.506  0.5343  0.5702 -0.1765
   47CHL1   H1A 3449   0.996   2.498   7.494 -1.9947 -1.9901 -0.4193
   47CHL1   H1B 3450   1.037   2.322   7.477  1.0824  0.2348  0.2096
   47CHL1    C2 3451   1.105   2.409   7.651  0.3931 -0.2387  0.5318
   47CHL1   H2A 3452   1.015   2.376   7.709  0.2857  2.1038  1.8056
   47CHL1   H2B 3453   1.134   2.509   7.688  1.8705 -0.2856 -0.4285
   47CHL1   C20 3454   1.055   2.525   6.709 -1.0660  0.3950 -0.4196
   47CHL1   H20 3455   1.124   2.610   6.690 -2.9817  1.5527 -2.5741
   47CHL1   C21 3456   0.911   2.567   6.745  0.0893 -0.2032 -0.2940
   47CHL1  H21A 3457   0.912   2.632   6.836 -0.5043 -0.0741 -0.3750
   47CHL1  H21B 3458   0.848   2.479   6.770 -1.0270  0.8624  0.7609
   47CHL1  H21C 3459   0.862   2.630   6.668 -2.0028  0.6447  1.5997
   47CHL1   C22 3460   1.060   2.452   6.572  0.3404 -0.7174 -0.6156
   47CHL1  H22A 3461   1.164   2.415   6.558 -0.0369 -1.2552 -2.2816
   47CHL1  H22B 3462   0.985   2.371   6.558  0.5186 -0.9135 -0.4482
   47CHL1   C23 3463   1.041   2.550   6.453 -0.1334  0.0397 -0.0477
   47CHL1  H23A 3464   0.932   2.568   6.440 -0.1975  0.2108  0.6396
   47CHL1  H23B 3465   1.089   2.642   6.492  0.1441 -0.1765  0.1264
   47CHL1   C24 3466   1.100   2.493   6.319  0.2428  0.3107 -0.1483
   47CHL1  H24A 3467   1.206   2.466   6.333  0.4666  0.6353 -1.1267
   47CHL1  H24B 3468   1.041   2.402   6.293 -3.2649  2.0167  1.1485
   47CHL1   C25 3469   1.100   2.593   6.192 -0.2106 -0.4394 -0.5210
   47CHL1   H25 3470   1.124   2.695   6.230  3.1527 -0.8126 -1.3008
   47CHL1   C26 3471   1.213   2.552   6.099 -0.3072  0.0355  0.1474
   47CHL1  H26A 3472   1.222   2.626   6.016 -2.6899  0.7961  0.4893
   47CHL1  H26B 3473   1.307   2.555   6.158  1.3098  0.4381 -2.2916
   47CHL1  H26C 3474   1.200   2.447   6.063  1.4629  0.1079 -0.8133
   47CHL1   C27 3475   0.961   2.595   6.135  0.1573  0.3066 -0.2743
   47CHL1  H27A 3476   0.935   2.488   6.125  3.3224 -0.6787  0.7177
   47CHL1  H27B 3477   0.879   2.653   6.182 -0.3400 -2.3262  2.4223
   47CHL1  H27C 3478   0.970   2.624   6.028  0.3418 -0.4638 -0.4737
   48CHL1    C3 3479   0.253   3.860   4.495  0.0838  0.3448  0.2541
   48CHL1    H3 3480   0.347   3.912   4.467 -0.7620  2.2069  0.6635
   48CHL1    O3 3481   0.181   3.830   4.380 -0.1312 -0.3826  0.3925
   48CHL1   H3' 3482   0.244   3.842   4.308  0.9539 -1.3037  1.1589
   48CHL1    C4 3483   0.283   3.733   4.571  0.3534  0.7213 -0.6278
   48CHL1   H4A 3484   0.185   3.682   4.586  1.4881 -1.9670 -1.6418
   48CHL1   H4B 3485   0.346   3.666   4.509 -1.4690 -2.2944  0.5582
   48CHL1    C5 3486   0.339   3.757   4.712 -0.0892 -0.6458 -0.3764
   48CHL1    C6 3487   0.441   3.693   4.764  0.4017 -0.7234 -0.6714
   48CHL1    H6 3488   0.497   3.628   4.694 -0.7631 -2.0342 -0.4382
   48CHL1    C7 3489   0.489   3.704   4.902 -0.6684  0.9167 -0.3653
   48CHL1   H7A 3490   0.534   3.609   4.936  2.7521  2.1043 -1.2140
   48CHL1   H7B 3491   0.575   3.774   4.905 -2.2354  3.0069  4.0310
   48CHL1    C8 3492   0.389   3.770   5.004  0.7803  0.0870  0.1681
   48CHL1    H8 3493   0.317   3.691   5.034  0.8245  0.6139  1.7378
   48CHL1   C14 3494   0.452   3.813   5.136  0.7471 -0.0945 -0.0649
   48CHL1   H14 3495   0.533   3.887   5.117  1.2437 -0.9297 -1.2615
   48CHL1   C15 3496   0.520   3.700   5.217 -0.3578 -0.1084  0.0240
   48CHL1  H15A 3497   0.463   3.605   5.210  2.1533 -1.6759 -0.3239
   48CHL1  H15B 3498   0.624   3.674   5.189 -0.8300 -0.0536 -1.9178
   48CHL1   C16 3499   0.514   3.754   5.363  0.4537  0.0629  0.4608
   48CHL1  H16A 3500   0.457   3.673   5.414  0.6985  0.0236  0.6770
   48CHL1  H16B 3501   0.610   3.763   5.419  0.1547 -2.2168  1.4431
   48CHL1   C17 3502   0.431   3.890   5.357  0.7994  0.0835 -0.1535
   48CHL1   H17 3503   0.503   3.972   5.339  1.5585 -0.9572 -2.1306
   48CHL1   C13 3504   0.346   3.869   5.236  0.4556  0.4137  0.4300
   48CHL1   C18 3505   0.233   3.771   5.273  0.1860  0.2154  0.0763
   48CHL1  H18A 3506   0.154   3.802   5.346 -2.8863 -3.2987 -1.4081
   48CHL1  H18B 3507   0.172   3.743   5.184  1.1610 -0.8192 -0.2835
   48CHL1  H18C 3508   0.286   3.677   5.301 -0.1620 -1.5708 -4.4582
   48CHL1   C12 3509   0.290   3.999   5.178  0.3223 -0.0394  0.2774
   48CHL1  H12A 3510   0.211   4.037   5.246 -1.8312 -2.3130 -0.8058
   48CHL1  H12B 3511   0.372   4.071   5.158 -1.9003  2.2651 -1.2979
   48CHL1   C11 3512   0.226   3.969   5.040 -0.1644 -0.2507 -0.1345
   48CHL1  H11A 3513   0.134   3.907   5.052  1.5375 -3.2648 -1.6196
   48CHL1  H11B 3514   0.199   4.072   5.006  1.4400  1.2648  2.8223
   48CHL1    C9 3515   0.326   3.893   4.938  0.3097  0.0982 -0.0245
   48CHL1    H9 3516   0.412   3.962   4.928 -0.9025  1.8551  1.1891
   48CHL1   C10 3517   0.255   3.858   4.798 -0.3129 -0.4536 -0.6952
   48CHL1   C19 3518   0.123   3.787   4.845 -0.3033  0.5481 -0.9599
   48CHL1  H19A 3519   0.038   3.847   4.883  0.1136  0.1895  0.6397
   48CHL1  H19B 3520   0.070   3.735   4.763 -0.2207  1.4208 -1.5754
   48CHL1  H19C 3521   0.151   3.708   4.919 -0.0469  1.8417  0.3687
   48CHL1    C1 3522   0.209   3.980   4.713 -0.5049 -0.7740 -0.2852
   48CHL1   H1A 3523   0.135   4.033   4.776  0.9573  0.0701  0.7675
   48CHL1   H1B 3524   0.287   4.054   4.686 -0.1639 -1.6829 -1.9798
   48CHL1    C2 3525   0.147   3.942   4.578  0.3321 -0.3235  0.5414
   48CHL1   H2A 3526   0.118   4.038   4.529  1.3072 -0.9217 -1.3322
   48CHL1   H2B 3527   0.054   3.884   4.592 -1.4678  1.0743 -3.8225
   48CHL1   C20 3528   0.357   3.929   5.490 -0.3545 -0.0142  0.1698
   48CHL1   H20 3529   0.257   3.880   5.498 -2.2960  3.5599  0.0945
   48CHL1   C21 3530   0.324   4.074   5.494  0.2219 -0.1220 -0.2294
   48CHL1  H21A 3531   0.241   4.091   5.423  0.4016 -1.1026 -0.6890
   48CHL1  H21B 3532   0.400   4.154   5.479 -1.4418  2.5940  3.8802
   48CHL1  H21C 3533   0.281   4.103   5.592  0.4870  0.1060 -0.1788
   48CHL1   C22 3534   0.423   3.885   5.618  0.5700  0.2200 -0.0834
   48CHL1  H22A 3535   0.346   3.902   5.696  0.9772  2.2625 -0.0822
   48CHL1  H22B 3536   0.444   3.776   5.613  0.1205  0.1354 -0.1974
   48CHL1   C23 3537   0.551   3.970   5.661  0.2894  0.3772 -0.0013
   48CHL1  H23A 3538   0.627   3.953   5.581 -0.7687  0.2320 -0.9924
   48CHL1  H23B 3539   0.536   4.080   5.655  1.6768  0.5273 -1.2489
   48CHL1   C24 3540   0.603   3.926   5.797  0.5047 -0.3463 -0.2913
   48CHL1  H24A 3541   0.576   3.820   5.817 -0.4958 -0.0268  0.1270
   48CHL1  H24B 3542   0.714   3.927   5.791  0.5731  3.9655 -1.4271
   48CHL1   C25 3543   0.559   4.031   5.909  0.8060  0.3020  0.4879
   48CHL1   H25 3544   0.595   4.131   5.875 -2.0216  0.8889 -1.0447
   48CHL1   C26 3545   0.411   4.038   5.919  0.7178 -0.1346 -0.2934
   48CHL1  H26A 3546   0.364   3.941   5.947  0.6510  0.3550  1.4003
   48CHL1  H26B 3547   0.390   4.110   6.001  0.4318 -0.9118  0.3384
   48CHL1  H26C 3548   0.368   4.074   5.824 -1.0250 -1.7280 -0.1747
   48CHL1   C27 3549   0.613   3.999   6.049 -0.3972 -0.0400  0.8926
   48CHL1  H27A 3550   0.609   3.889   6.060  1.1680 -0.8405 -4.2404
   48CHL1  H27B 3551   0.721   4.018   6.067 -0.2187  0.3096 -0.4467
   48CHL1  H27C 3552   0.562   4.057   6.129 -0.4112  0.6444  0.3954
   49CHL1    C3 3553   1.031   1.100   4.292 -0.9915 -0.4675 -0.3280
   49CHL1    H3 3554   1.141   1.109   4.282 -0.9638 -1.9028 -1.7035
   49CHL1    O3 3555   0.989   1.052   4.166 -0.8618  1.1472 -0.1888
   49CHL1   H3' 3556   0.984   0.956   4.162 -1.4170  1.1598  0.0487
   49CHL1    C4 3557   1.012   0.995   4.398 -0.6502 -0.7791 -0.6740
   49CHL1   H4A 3558   0.911   0.949   4.385 -1.5608  0.4040  1.6405
   49CHL1   H4B 3559   1.083   0.916   4.366 -0.0150 -1.2739  1.7752
   49CHL1    C5 3560   1.036   1.042   4.544 -0.5748 -0.1013  0.1123
   49CHL1    C6 3561   1.122   0.985   4.631  0.4976 -0.1131  1.2852
   49CHL1    H6 3562   1.162   0.888   4.597 -0.5892 -0.1353  0.0063
   49CHL1    C7 3563   1.156   1.016   4.775  1.0221  0.2085 -0.3581
   49CHL1   H7A 3564   1.137   0.927   4.839  1.0214 -0.1721 -0.8798
   49CHL1   H7B 3565   1.260   1.052   4.793  1.1855 -0.7781  0.8447
   49CHL1    C8 3566   1.052   1.114   4.820 -0.0566 -0.4764 -0.3690
   49CHL1    H8 3567   0.957   1.059   4.837  0.3549 -1.4505 -1.1107
   49CHL1   C14 3568   1.104   1.171   4.956 -0.1220  0.1215 -0.0548
   49CHL1   H14 3569   1.196   1.222   4.921 -0.5342  0.0599 -1.2948
   49CHL1   C15 3570   1.148   1.073   5.068  0.1343 -0.2212 -0.0348
   49CHL1  H15A 3571   1.057   1.010   5.065  0.9263 -1.4087 -3.7081
   49CHL1  H15B 3572   1.238   1.013   5.040 -0.3154 -1.6544  1.3843
   49CHL1   C16 3573   1.168   1.171   5.187 -0.2247  0.3025  1.0672
   49CHL1  H16A 3574   1.120   1.133   5.280 -1.4331  3.2461  1.7448
   49CHL1  H16B 3575   1.274   1.194   5.207 -0.0543  0.3240  0.1740
   49CHL1   C17 3576   1.095   1.310   5.156  0.7354 -0.0963  0.1318
   49CHL1   H17 3577   1.176   1.383   5.132 -0.2996  1.8714  2.1890
   49CHL1   C13 3578   1.011   1.273   5.026  0.4387  0.0376  0.4228
   49CHL1   C18 3579   0.874   1.207   5.055  0.0919  0.5172 -0.3351
   49CHL1  H18A 3580   0.824   1.171   4.963 -1.6816  0.8970  0.4493
   49CHL1  H18B 3581   0.879   1.124   5.129  1.0721  1.3861  0.6181
   49CHL1  H18C 3582   0.799   1.275   5.100  0.5846  1.4435 -0.8711
   49CHL1   C12 3583   0.991   1.387   4.923  0.1329  0.4918  0.3182
   49CHL1  H12A 3584   0.922   1.465   4.961  1.6335  1.7113  0.6318
   49CHL1  H12B 3585   1.086   1.442   4.906 -0.1211  0.6415 -0.6987
   49CHL1   C11 3586   0.938   1.343   4.783 -0.2331  0.1247  0.0752
   49CHL1  H11A 3587   0.827   1.343   4.793 -0.2680 -0.1644 -0.3113
   49CHL1  H11B 3588   0.971   1.430   4.721 -0.2933  0.3073  0.2961
   49CHL1    C9 3589   1.010   1.222   4.719  0.3336  0.7122  0.4149
   49CHL1    H9 3590   1.107   1.274   4.700  1.2846 -1.0063  0.3636
   49CHL1   C10 3591   0.968   1.171   4.578  0.0101 -0.7090  0.2642
   49CHL1   C19 3592   0.814   1.139   4.597  0.2131 -0.0099  0.4420
   49CHL1  H19A 3593   0.777   1.078   4.511 -0.6009  1.0530  0.0041
   49CHL1  H19B 3594   0.802   1.083   4.692 -0.3447 -0.6061  0.0370
   49CHL1  H19C 3595   0.743   1.224   4.607  2.1841  1.6764  0.5815
   49CHL1    C1 3596   0.996   1.279   4.468 -0.2254  0.3271  0.6692
   49CHL1   H1A 3597   0.935   1.368   4.496  0.1865 -0.1211  3.2370
   49CHL1   H1B 3598   1.101   1.313   4.468 -0.3273  0.9902 -2.5082
   49CHL1    C2 3599   0.956   1.227   4.329  0.2398  0.4932  0.2503
   49CHL1   H2A 3600   0.979   1.304   4.252 -1.6124 -1.8704 -2.8940
   49CHL1   H2B 3601   0.848   1.202   4.327  0.2745  0.3730 -0.8662
   49CHL1   C20 3602   1.012   1.360   5.275 -0.3695  0.2026 -0.0070
   49CHL1   H20 3603   0.925   1.292   5.276 -1.7733  1.8330 -2.0106
   49CHL1   C21 3604   0.965   1.505   5.243  0.1797  0.0616 -0.7637
   49CHL1  H21A 3605   0.874   1.501   5.180 -1.3767 -1.8434  1.4094
   49CHL1  H21B 3606   1.051   1.551   5.191  2.0422 -1.1833  1.0445
   49CHL1  H21C 3607   0.932   1.562   5.333 -1.1841 -0.4363 -0.9252
   49CHL1   C22 3608   1.089   1.360   5.413 -0.1102 -0.2008 -0.1821
   49CHL1  H22A 3609   1.131   1.259   5.434  2.0543  0.9610  1.3386
   49CHL1  H22B 3610   1.179   1.424   5.404 -0.4321  0.1502 -1.0858
   49CHL1   C23 3611   1.019   1.398   5.549  0.2469 -0.4482  0.6012
   49CHL1  H23A 3612   0.958   1.487   5.521  1.2106 -0.1023 -0.5060
   49CHL1  H23B 3613   0.954   1.311   5.571 -0.0631 -1.0985 -2.4521
   49CHL1   C24 3614   1.109   1.435   5.661  0.5283 -0.0862  0.0688
   49CHL1  H24A 3615   1.150   1.336   5.692 -0.1262 -0.6127 -0.7209
   49CHL1  H24B 3616   1.193   1.500   5.629  2.5374 -2.7989 -0.5670
   49CHL1   C25 3617   1.036   1.491   5.778  0.4493  0.6375 -0.0505
   49CHL1   H25 3618   0.969   1.571   5.740 -0.5882 -0.0764  0.2374
   49CHL1   C26 3619   0.948   1.393   5.866 -0.3384  0.6053 -0.2678
   49CHL1  H26A 3620   1.011   1.327   5.929  1.1253  1.4102 -0.8552
   49CHL1  H26B 3621   0.886   1.460   5.928  0.0051 -0.1233  0.8929
   49CHL1  H26C 3622   0.906   1.317   5.796  1.1397  0.5758 -1.1618
   49CHL1   C27 3623   1.138   1.554   5.883 -0.0651 -1.1109  0.5197
   49CHL1  H27A 3624   1.096   1.588   5.979  0.8194 -0.3716  0.6568
   49CHL1  H27B 3625   1.211   1.475   5.912  1.3346  0.8871  2.7324
   49CHL1  H27C 3626   1.194   1.642   5.845 -0.5652  0.0176  2.2969
   50CHL1    C3 3627   6.426   1.254   4.632 -0.9203 -0.5820 -0.1550
   50CHL1    H3 3628   6.451   1.357   4.666  0.2919 -0.4346 -1.4233
   50CHL1    O3 3629   6.484   1.218   4.507  0.0226 -0.6807 -0.2609
   50CHL1   H3' 3630   6.578   1.219   4.528 -0.2792  1.7218  1.3684
   50CHL1    C4 3631   6.476   1.154   4.736  0.8295 -0.2882  0.0547
   50CHL1   H4A 3632   6.447   1.053   4.701  4.4614 -0.6615 -2.4490
   50CHL1   H4B 3633   6.587   1.150   4.741  0.8426 -0.8610 -0.6593
   50CHL1    C5 3634   6.411   1.170   4.877  0.8521 -0.0291  0.3807
   50CHL1    C6 3635   6.479   1.181   4.987 -0.8737 -0.1977 -0.4083
   50CHL1    H6 3636   6.589   1.176   4.987 -0.8485 -0.6232 -2.7990
   50CHL1    C7 3637   6.422   1.195   5.128 -0.0110  0.3510 -0.1746
   50CHL1   H7A 3638   6.473   1.128   5.201 -1.8886 -0.0221  0.8606
   50CHL1   H7B 3639   6.454   1.298   5.155  0.0139  0.4390 -0.5281
   50CHL1    C8 3640   6.270   1.171   5.131  1.2134  0.4651  0.5295
   50CHL1    H8 3641   6.242   1.064   5.129  1.2945  0.4426  0.5885
   50CHL1   C14 3642   6.205   1.242   5.249 -0.9763  0.0721 -0.8499
   50CHL1   H14 3643   6.211   1.349   5.220  0.7987 -0.2869 -1.9705
   50CHL1   C15 3644   6.272   1.229   5.387 -0.2845  0.8963 -0.0466
   50CHL1  H15A 3645   6.301   1.122   5.400 -2.7573  0.4716  3.3876
   50CHL1  H15B 3646   6.359   1.298   5.381 -0.0448  0.4993 -2.0562
   50CHL1   C16 3647   6.162   1.262   5.483 -0.6154  0.4874 -1.1465
   50CHL1  H16A 3648   6.144   1.179   5.555 -1.8536  1.4157 -0.3355
   50CHL1  H16B 3649   6.177   1.352   5.547  0.1311 -0.9317  0.7876
   50CHL1   C17 3650   6.030   1.286   5.404 -0.3535 -0.0426  0.9007
   50CHL1   H17 3651   6.026   1.392   5.374 -1.1602 -0.6621 -1.3304
   50CHL1   C13 3652   6.059   1.212   5.268 -0.2343  0.0280  0.2764
   50CHL1   C18 3653   6.038   1.065   5.295  0.4012  0.3029  0.6276
   50CHL1  H18A 3654   6.093   1.026   5.383  1.2853  0.3995  0.1313
   50CHL1  H18B 3655   5.929   1.046   5.302  0.5617 -0.0182  4.0944
   50CHL1  H18C 3656   6.057   1.003   5.204  0.8162  2.6881 -1.0006
   50CHL1   C12 3657   5.983   1.261   5.146 -0.2976  0.7268 -0.0753
   50CHL1  H12A 3658   5.875   1.238   5.151 -0.3090  0.7625 -0.1541
   50CHL1  H12B 3659   5.984   1.372   5.159 -1.9328  0.9631 -1.5692
   50CHL1   C11 3660   6.046   1.216   5.015 -0.0949  0.7267  0.1917
   50CHL1  H11A 3661   6.023   1.108   5.014 -2.7644  1.2278  0.0506
   50CHL1  H11B 3662   6.006   1.277   4.931  3.0588  0.0228 -1.9670
   50CHL1    C9 3663   6.204   1.238   5.007  0.0100  0.2600  0.1925
   50CHL1    H9 3664   6.222   1.347   5.015  0.6916  0.1020  0.9854
   50CHL1   C10 3665   6.255   1.175   4.874  0.2942 -0.9088  0.1550
   50CHL1   C19 3666   6.198   1.042   4.851 -0.2454  0.1295 -0.3322
   50CHL1  H19A 3667   6.097   1.052   4.806 -0.7765 -3.6209 -0.3076
   50CHL1  H19B 3668   6.263   0.991   4.777  0.0381  0.3588 -0.2454
   50CHL1  H19C 3669   6.199   0.974   4.939  1.1029 -0.6749 -0.9375
   50CHL1    C1 3670   6.211   1.275   4.759  0.5416 -0.1413  0.1999
   50CHL1   H1A 3671   6.103   1.259   4.739  0.1810  1.4927  0.7184
   50CHL1   H1B 3672   6.234   1.380   4.785  2.7162 -0.6939  0.7151
   50CHL1    C2 3673   6.278   1.245   4.621 -0.0909  0.5187  0.2280
   50CHL1   H2A 3674   6.255   1.315   4.538  3.7630  1.1362 -0.5079
   50CHL1   H2B 3675   6.250   1.146   4.579 -1.0730  1.0278 -0.3705
   50CHL1   C20 3676   5.910   1.241   5.489  0.0965  0.0262  0.1347
   50CHL1   H20 3677   5.912   1.130   5.495  1.4919 -0.0104 -0.6431
   50CHL1   C21 3678   5.782   1.284   5.415  0.5111 -0.2048 -0.2546
   50CHL1  H21A 3679   5.778   1.391   5.385 -1.1167 -0.5835 -1.5430
   50CHL1  H21B 3680   5.693   1.253   5.474 -1.2360 -1.1300 -3.1944
   50CHL1  H21C 3681   5.780   1.229   5.319 -1.5129 -1.4167  0.4268
   50CHL1   C22 3682   5.909   1.312   5.630  0.4880  0.6160  0.4361
   50CHL1  H22A 3683   6.002   1.283   5.684  0.1029  0.3175  0.9434
   50CHL1  H22B 3684   5.910   1.422   5.615  0.0732  0.1571 -4.5021
   50CHL1   C23 3685   5.797   1.269   5.727  0.3986 -0.3718  0.3832
   50CHL1  H23A 3686   5.701   1.296   5.679 -0.2010  0.9218  2.2058
   50CHL1  H23B 3687   5.795   1.158   5.732  1.0793 -0.5536 -2.0489
   50CHL1   C24 3688   5.808   1.324   5.861  0.6853 -0.3444 -0.0365
   50CHL1  H24A 3689   5.738   1.269   5.927 -1.8905  2.0358 -0.5950
   50CHL1  H24B 3690   5.910   1.295   5.894  0.5837 -0.6674 -0.0046
   50CHL1   C25 3691   5.786   1.474   5.886 -0.0347  0.2193  0.2991
   50CHL1   H25 3692   5.865   1.535   5.837 -0.1829  0.5523  0.4752
   50CHL1   C26 3693   5.659   1.518   5.821  0.4106 -0.4806  0.7288
   50CHL1  H26A 3694   5.578   1.468   5.877  1.3008 -1.9600  0.7536
   50CHL1  H26B 3695   5.657   1.629   5.821 -2.8582 -0.4012  3.5475
   50CHL1  H26C 3696   5.659   1.492   5.713 -2.3150 -0.2456  0.6106
   50CHL1   C27 3697   5.783   1.499   6.036 -0.0642  0.1644  0.7863
   50CHL1  H27A 3698   5.753   1.604   6.057 -1.8073 -0.0640 -0.3930
   50CHL1  H27B 3699   5.714   1.429   6.088  0.3565 -0.8893 -0.0470
   50CHL1  H27C 3700   5.890   1.480   6.059 -0.1393  0.4509  1.3992
   51CHL1    C3 3701   1.287   1.552   4.320  0.6873 -0.1482  0.6316
   51CHL1    H3 3702   1.267   1.456   4.373 -1.9469 -0.9672 -1.6031
   51CHL1    O3 3703   1.309   1.519   4.184  0.9318  0.5433 -0.2784
   51CHL1   H3' 3704   1.404   1.524   4.173  1.6329 -1.4591  3.2174
   51CHL1    C4 3705   1.159   1.642   4.336 -0.6008 -0.3364  0.4701
   51CHL1   H4A 3706   1.175   1.725   4.264 -0.0548 -0.5730  0.3114
   51CHL1   H4B 3707   1.067   1.600   4.290 -0.7337  1.4133 -0.9727
   51CHL1    C5 3708   1.138   1.689   4.482 -0.7124 -0.5325  0.4349
   51CHL1    C6 3709   1.023   1.680   4.541 -0.0723  0.3422  0.6133
   51CHL1    H6 3710   0.946   1.631   4.480 -0.2755  0.2190  0.9645
   51CHL1    C7 3711   0.987   1.746   4.666  0.3405  0.2590  0.4536
   51CHL1   H7A 3712   0.891   1.795   4.637 -1.4228 -1.8991  2.2608
   51CHL1   H7B 3713   0.976   1.664   4.740 -0.0518 -1.3299 -1.2889
   51CHL1    C8 3714   1.082   1.857   4.714  0.4181  0.3116  0.1920
   51CHL1    H8 3715   1.075   1.947   4.648  0.6187 -0.1511 -0.4659
   51CHL1   C14 3716   1.053   1.900   4.857 -0.7443  0.1579  0.2451
   51CHL1   H14 3717   1.062   1.808   4.919 -2.7046 -0.6199 -0.5386
   51CHL1   C15 3718   0.911   1.955   4.886 -0.0555  0.0465  0.1767
   51CHL1  H15A 3719   0.889   2.032   4.809  2.6996  1.4102  0.6572
   51CHL1  H15B 3720   0.830   1.878   4.893 -0.7699  0.6526 -1.0335
   51CHL1   C16 3721   0.929   2.023   5.019 -0.6713 -0.0565  0.2724
   51CHL1  H16A 3722   0.871   2.117   5.008 -1.6369 -0.7081 -0.4627
   51CHL1  H16B 3723   0.887   1.960   5.101  1.7234 -0.7075  1.0768
   51CHL1   C17 3724   1.086   2.040   5.039 -0.0252 -0.2041 -0.2881
   51CHL1   H17 3725   1.118   1.963   5.112  3.5406  1.2410 -0.1051
   51CHL1   C13 3726   1.150   2.000   4.906  0.1676  0.4069  0.2859
   51CHL1   C18 3727   1.157   2.120   4.817 -0.2064 -0.1922 -0.5134
   51CHL1  H18A 3728   1.202   2.098   4.718  0.9026 -1.0558  0.1470
   51CHL1  H18B 3729   1.058   2.170   4.813 -0.6732 -1.1937 -2.0229
   51CHL1  H18C 3730   1.234   2.182   4.866  2.0222 -2.1882 -1.2928
   51CHL1   C12 3731   1.288   1.927   4.916  0.2204  0.0065 -0.0220
   51CHL1  H12A 3732   1.366   1.992   4.961  1.0639 -2.6030  2.5946
   51CHL1  H12B 3733   1.279   1.845   4.990  1.0303  0.5237  0.6652
   51CHL1   C11 3734   1.329   1.879   4.775 -0.5768 -0.2089  0.2824
   51CHL1  H11A 3735   1.355   1.966   4.710 -0.0526  0.6290  1.5748
   51CHL1  H11B 3736   1.415   1.809   4.781  0.8379  1.0324 -2.9621
   51CHL1    C9 3737   1.224   1.799   4.698  0.5891 -0.0693  0.3411
   51CHL1    H9 3738   1.219   1.699   4.745 -0.7822 -0.8134 -1.2782
   51CHL1   C10 3739   1.260   1.764   4.547 -0.6848  0.3488  0.5242
   51CHL1   C19 3740   1.283   1.893   4.463 -0.5848 -0.2359 -0.1480
   51CHL1  H19A 3741   1.190   1.951   4.445  0.4382  1.4400 -0.2763
   51CHL1  H19B 3742   1.360   1.960   4.508 -1.0014 -1.0987  1.9600
   51CHL1  H19C 3743   1.313   1.873   4.358  2.0048  1.0227  0.2700
   51CHL1    C1 3744   1.391   1.673   4.531 -0.0619 -0.4516  0.3748
   51CHL1   H1A 3745   1.487   1.718   4.564 -0.2479 -0.7896  1.4069
   51CHL1   H1B 3746   1.384   1.580   4.591  0.6443  0.3436  1.7326
   51CHL1    C2 3747   1.403   1.626   4.384 -0.4876 -0.1161 -0.3046
   51CHL1   H2A 3748   1.493   1.561   4.380 -0.2545  0.0937  1.2021
   51CHL1   H2B 3749   1.427   1.712   4.317  0.0093 -0.0285 -0.0172
   51CHL1   C20 3750   1.123   2.168   5.113 -0.0675  0.0454  0.1991
   51CHL1   H20 3751   1.110   2.259   5.051  1.2407 -0.0851 -0.3072
   51CHL1   C21 3752   1.272   2.157   5.156 -0.1200 -1.1332 -0.1115
   51CHL1  H21A 3753   1.302   2.241   5.223  0.3178 -0.6104 -0.9431
   51CHL1  H21B 3754   1.326   2.156   5.059  1.0757  0.0659  0.5066
   51CHL1  H21C 3755   1.291   2.060   5.205  2.0027  0.3676  2.2804
   51CHL1   C22 3756   1.034   2.186   5.238 -0.1152 -0.1128 -0.0315
   51CHL1  H22A 3757   1.036   2.296   5.253 -1.1140 -0.0317 -0.3778
   51CHL1  H22B 3758   0.927   2.172   5.212 -0.3067 -2.0086  1.5450
   51CHL1   C23 3759   1.084   2.131   5.375 -0.5428  0.1012 -0.2558
   51CHL1  H23A 3760   1.105   2.024   5.353 -1.3764 -0.5478  1.8063
   51CHL1  H23B 3761   1.178   2.184   5.403 -0.5239 -0.4036  0.6797
   51CHL1   C24 3762   0.983   2.158   5.488  0.8126  0.0638  0.0292
   51CHL1  H24A 3763   0.991   2.267   5.505 -0.2246  0.1059  0.2911
   51CHL1  H24B 3764   0.884   2.135   5.445  1.6399 -2.7843 -0.5960
   51CHL1   C25 3765   1.010   2.085   5.628  0.1149 -0.3074  0.1835
   51CHL1   H25 3766   1.104   2.119   5.676 -1.5689  2.7852  1.6169
   51CHL1   C26 3767   0.899   2.115   5.725  0.5604  0.4392  0.3056
   51CHL1  H26A 3768   0.804   2.073   5.685  0.6909  0.3702  0.0608
   51CHL1  H26B 3769   0.938   2.080   5.823  0.3917 -1.4180 -0.2495
   51CHL1  H26C 3770   0.887   2.225   5.737 -2.0531  0.3426 -0.7759
   51CHL1   C27 3771   1.012   1.935   5.603  0.4258  0.0863 -0.1736
   51CHL1  H27A 3772   0.910   1.899   5.580  1.1334 -1.9349 -0.3299
   51CHL1  H27B 3773   1.072   1.917   5.512  0.3054 -1.7525  0.0786
   51CHL1  H27C 3774   1.057   1.875   5.686  3.3375 -0.8928 -2.3063
   52CHL1    C3 3775   4.289   1.604   4.691  0.2360 -0.0972 -0.3923
   52CHL1    H3 3776   4.182   1.625   4.669 -0.4715 -1.5722  1.4032
   52CHL1    O3 3777   4.350   1.559   4.566  0.4423 -0.8047 -0.2502
   52CHL1   H3' 3778   4.282   1.539   4.501 -0.0308 -1.5202  0.4329
   52CHL1    C4 3779   4.364   1.725   4.753  0.5276  0.0784  0.0527
   52CHL1   H4A 3780   4.473   1.704   4.747  0.9030  1.4191  1.6012
   52CHL1   H4B 3781   4.352   1.814   4.688  1.4230  0.0992 -0.0950
   52CHL1    C5 3782   4.325   1.757   4.898  0.3698  0.1719 -0.7493
   52CHL1    C6 3783   4.303   1.885   4.943  0.8198 -0.0761  0.1095
   52CHL1    H6 3784   4.309   1.966   4.868 -1.8779  0.0463 -0.0723
   52CHL1    C7 3785   4.270   1.916   5.084 -0.2235 -0.3453 -0.3113
   52CHL1   H7A 3786   4.330   2.008   5.102 -2.4443  1.4471 -1.5146
   52CHL1   H7B 3787   4.161   1.937   5.091  0.2066  2.1402 -0.1326
   52CHL1    C8 3788   4.298   1.809   5.185  0.2436  0.2484 -0.8068
   52CHL1    H8 3789   4.404   1.799   5.218 -0.3709 -3.5254  0.4908
   52CHL1   C14 3790   4.222   1.829   5.314 -0.5688 -0.1944  0.7251
   52CHL1   H14 3791   4.115   1.835   5.286 -0.0348  0.9062 -1.2976
   52CHL1   C15 3792   4.240   1.972   5.381 -0.4804 -0.1189  0.2714
   52CHL1  H15A 3793   4.346   1.994   5.408 -0.0707 -1.1112 -0.4881
   52CHL1  H15B 3794   4.190   2.054   5.326  0.1711 -0.7993 -1.4155
   52CHL1   C16 3795   4.168   1.949   5.514 -0.0401  0.8433  0.0749
   52CHL1  H16A 3796   4.240   1.967   5.597  0.0963  1.1131 -0.1008
   52CHL1  H16B 3797   4.086   2.021   5.535 -0.0519  1.3011 -1.3870
   52CHL1   C17 3798   4.135   1.797   5.530 -0.5388  0.5575 -0.1953
   52CHL1   H17 3799   4.033   1.775   5.494 -0.3608 -1.6761  0.5428
   52CHL1   C13 3800   4.232   1.727   5.429  0.0359  0.3393  0.8447
   52CHL1   C18 3801   4.368   1.713   5.489 -0.6620 -0.1010  0.6961
   52CHL1  H18A 3802   4.439   1.662   5.421 -0.0150 -1.1630  2.1186
   52CHL1  H18B 3803   4.419   1.810   5.509  1.7342 -0.6575 -2.0121
   52CHL1  H18C 3804   4.355   1.646   5.577 -0.5344 -0.8770  0.1368
   52CHL1   C12 3805   4.192   1.590   5.370  0.5854 -0.4367 -0.3048
   52CHL1  H12A 3806   4.216   1.519   5.452  0.1675 -1.1665 -0.8069
   52CHL1  H12B 3807   4.087   1.577   5.338  0.7231  1.9784 -1.9898
   52CHL1   C11 3808   4.273   1.557   5.241  0.2585  0.9653 -0.0968
   52CHL1  H11A 3809   4.380   1.550   5.269  1.2240 -0.4096 -3.5999
   52CHL1  H11B 3810   4.244   1.457   5.203 -3.3868  1.2330  1.5864
   52CHL1    C9 3811   4.255   1.671   5.134  0.0126 -0.5613  0.1189
   52CHL1    H9 3812   4.147   1.678   5.111  0.1816 -2.1192 -1.3084
   52CHL1   C10 3813   4.321   1.636   4.991  0.7525 -0.5980 -0.1491
   52CHL1   C19 3814   4.463   1.584   5.017  0.0551  0.5495 -0.4297
   52CHL1  H19A 3815   4.464   1.477   5.048  0.2950  0.6981  0.0944
   52CHL1  H19B 3816   4.514   1.586   4.919  0.0824  0.0416 -0.4270
   52CHL1  H19C 3817   4.517   1.644   5.094 -0.2223  0.8823 -0.4907
   52CHL1    C1 3818   4.230   1.525   4.924 -0.5749 -0.3866 -0.1501
   52CHL1   H1A 3819   4.220   1.430   4.980 -1.1262  0.1858  0.7374
   52CHL1   H1B 3820   4.129   1.565   4.899  0.2768 -0.1012 -3.7418
   52CHL1    C2 3821   4.286   1.483   4.783  0.2552  0.2835  0.6337
   52CHL1   H2A 3822   4.232   1.393   4.744 -0.1309  0.5405  0.5695
   52CHL1   H2B 3823   4.391   1.447   4.793  0.0755 -0.2340  0.7208
   52CHL1   C20 3824   4.140   1.755   5.675 -0.3122 -0.4720 -0.0327
   52CHL1   H20 3825   4.240   1.773   5.720 -0.5441 -0.4054  0.4595
   52CHL1   C21 3826   4.116   1.606   5.692  0.5093  0.6447  0.4784
   52CHL1  H21A 3827   4.019   1.589   5.641 -1.7299  3.6260  3.2945
   52CHL1  H21B 3828   4.106   1.586   5.801  0.9905  2.9731  1.0194
   52CHL1  H21C 3829   4.199   1.538   5.662  0.5069 -1.0677  3.8873
   52CHL1   C22 3830   4.030   1.832   5.753  0.2476  0.4007 -0.3053
   52CHL1  H22A 3831   4.047   1.942   5.748 -2.4646  0.8846 -0.4481
   52CHL1  H22B 3832   3.924   1.816   5.721 -0.2400  1.3332  0.7796
   52CHL1   C23 3833   4.036   1.812   5.905  0.6306  0.0390  0.1317
   52CHL1  H23A 3834   4.009   1.709   5.937  2.7567  0.4386  3.7683
   52CHL1  H23B 3835   4.143   1.833   5.926  0.0201  0.9620  2.7872
   52CHL1   C24 3836   3.959   1.903   5.989  0.7455 -0.9308 -0.5068
   52CHL1  H24A 3837   3.970   2.007   5.949  0.4232 -0.1457  1.3434
   52CHL1  H24B 3838   3.850   1.892   5.973  0.2524  2.5875 -0.3156
   52CHL1   C25 3839   4.000   1.903   6.141 -0.5712 -0.3820 -0.6090
   52CHL1   H25 3840   3.929   1.972   6.192  0.0656 -0.4212  0.3599
   52CHL1   C26 3841   3.965   1.766   6.211 -0.3286 -0.6938  0.2409
   52CHL1  H26A 3842   4.029   1.687   6.166  0.1949  1.2647 -2.7264
   52CHL1  H26B 3843   3.986   1.777   6.319 -0.6450  1.3516  0.1325
   52CHL1  H26C 3844   3.856   1.751   6.192 -0.3154  0.5917 -1.0305
   52CHL1   C27 3845   4.147   1.960   6.166  0.9128 -0.0579  0.0834
   52CHL1  H27A 3846   4.149   1.993   6.272 -0.8438 -0.4428  0.2545
   52CHL1  H27B 3847   4.224   1.885   6.138  0.4389 -0.4211 -0.2645
   52CHL1  H27C 3848   4.140   2.055   6.108 -0.5943 -0.7706 -0.9733
   53CHL1    C3 3849   1.377   2.201   4.325 -0.0752  0.1887 -0.0045
   53CHL1    H3 3850   1.310   2.124   4.371  0.9730 -1.4320 -1.0776
   53CHL1    O3 3851   1.376   2.154   4.194  0.1905  0.2699  0.0976
   53CHL1   H3' 3852   1.459   2.182   4.156  0.1866  1.5610  0.9977
   53CHL1    C4 3853   1.326   2.342   4.326  0.5010 -0.0788  0.2506
   53CHL1   H4A 3854   1.386   2.408   4.259  0.3000 -2.4077 -2.3643
   53CHL1   H4B 3855   1.223   2.348   4.284  0.2323  0.1690  0.9268
   53CHL1    C5 3856   1.325   2.380   4.473 -0.6386 -0.5189 -0.8565
   53CHL1    C6 3857   1.212   2.427   4.533 -0.0337 -0.1925 -0.0894
   53CHL1    H6 3858   1.117   2.430   4.477 -1.5761  0.4679  2.4089
   53CHL1    C7 3859   1.211   2.480   4.676  0.1660  0.1686 -0.5192
   53CHL1   H7A 3860   1.150   2.572   4.690  1.1621  0.5347  1.8075
   53CHL1   H7B 3861   1.151   2.408   4.736  0.7341  2.0979  2.6013
   53CHL1    C8 3862   1.355   2.501   4.743  0.1428  0.5031 -0.1265
   53CHL1    H8 3863   1.397   2.594   4.700  0.3234  0.8564  0.8030
   53CHL1   C14 3864   1.354   2.508   4.890  0.2652  0.1941 -0.7114
   53CHL1   H14 3865   1.316   2.415   4.938  1.2359  1.0003  1.7998
   53CHL1   C15 3866   1.252   2.612   4.951 -0.3858 -0.0246  0.6739
   53CHL1  H15A 3867   1.271   2.706   4.895 -2.2801  0.2165  0.3681
   53CHL1  H15B 3868   1.147   2.577   4.941 -0.6569  1.0180 -0.2772
   53CHL1   C16 3869   1.304   2.629   5.094 -0.3389  0.6362 -0.1034
   53CHL1  H16A 3870   1.303   2.736   5.123 -0.0228 -0.0848  2.8575
   53CHL1  H16B 3871   1.229   2.568   5.150 -1.3546 -0.0429 -2.1017
   53CHL1   C17 3872   1.439   2.550   5.106 -0.7378  0.2370  0.4641
   53CHL1   H17 3873   1.424   2.444   5.138  0.7853 -0.7531 -1.8377
   53CHL1   C13 3874   1.490   2.531   4.963 -0.4591 -0.2039 -0.4535
   53CHL1   C18 3875   1.556   2.658   4.909 -0.4597 -0.2459 -0.4433
   53CHL1  H18A 3876   1.489   2.747   4.915 -0.8877 -0.5430 -0.7686
   53CHL1  H18B 3877   1.652   2.680   4.961 -0.4956 -0.2081 -0.3918
   53CHL1  H18C 3878   1.580   2.641   4.802 -1.0216 -1.2417 -0.4193
   53CHL1   C12 3879   1.583   2.406   4.929 -0.1644 -0.5137  0.4233
   53CHL1  H12A 3880   1.686   2.431   4.961 -0.6540  1.0733  0.8082
   53CHL1  H12B 3881   1.559   2.316   4.990 -1.1260  1.2385  2.7919
   53CHL1   C11 3882   1.590   2.374   4.779  0.0313  0.3180 -0.7360
   53CHL1  H11A 3883   1.651   2.455   4.733  0.5525  1.1398  1.2633
   53CHL1  H11B 3884   1.629   2.273   4.754  0.9360  0.8405 -1.4699
   53CHL1    C9 3885   1.451   2.384   4.700  0.4292  0.4087 -0.1985
   53CHL1    H9 3886   1.392   2.297   4.735 -1.6326  1.4720 -0.8718
   53CHL1   C10 3887   1.462   2.359   4.548 -0.2065 -0.6215  0.9703
   53CHL1   C19 3888   1.565   2.468   4.485 -1.0971 -0.2878  0.7391
   53CHL1  H19A 3889   1.516   2.567   4.494  1.0579  1.1362 -1.8901
   53CHL1  H19B 3890   1.668   2.465   4.526 -0.0216 -0.2000 -1.7950
   53CHL1  H19C 3891   1.585   2.446   4.378 -4.7314 -0.9748  0.0538
   53CHL1    C1 3892   1.515   2.212   4.530 -0.1512 -0.4530 -0.2295
   53CHL1   H1A 3893   1.622   2.201   4.558 -0.0695 -0.5752 -0.5954
   53CHL1   H1B 3894   1.460   2.134   4.588  0.5166 -0.0395  0.9943
   53CHL1    C2 3895   1.517   2.172   4.385  0.4184 -0.3572  0.3360
   53CHL1   H2A 3896   1.545   2.065   4.378  0.6982 -0.3852  1.6273
   53CHL1   H2B 3897   1.588   2.237   4.330 -1.3949  1.4147 -0.0174
   53CHL1   C20 3898   1.540   2.625   5.205 -0.2790  0.9543  0.1746
   53CHL1   H20 3899   1.575   2.714   5.149 -2.0696  1.2947 -0.4713
   53CHL1   C21 3900   1.663   2.531   5.236 -0.5705 -0.3793 -0.2145
   53CHL1  H21A 3901   1.718   2.481   5.153  0.3473 -0.6125  0.5218
   53CHL1  H21B 3902   1.635   2.440   5.294  2.3944  0.0069  2.0440
   53CHL1  H21C 3903   1.736   2.589   5.295 -1.0152  0.2177 -0.2440
   53CHL1   C22 3904   1.468   2.671   5.336 -0.1394  0.0366  0.0816
   53CHL1  H22A 3905   1.545   2.725   5.396  1.0385 -1.2304 -0.2227
   53CHL1  H22B 3906   1.380   2.737   5.319  0.0661  0.3302  0.1366
   53CHL1   C23 3907   1.418   2.550   5.416  0.7302  0.8222  0.0680
   53CHL1  H23A 3908   1.374   2.476   5.346  1.6005 -0.2406  0.6179
   53CHL1  H23B 3909   1.503   2.511   5.475  0.3091 -0.2507 -0.0190
   53CHL1   C24 3910   1.304   2.581   5.519  0.2368  0.2194  0.3587
   53CHL1  H24A 3911   1.335   2.659   5.591 -0.8687  1.1969 -0.1921
   53CHL1  H24B 3912   1.229   2.637   5.459  0.6312  1.6824  1.1894
   53CHL1   C25 3913   1.231   2.459   5.576 -0.3280 -0.1300  0.6158
   53CHL1   H25 3914   1.189   2.407   5.488  0.1860 -0.2396  0.4288
   53CHL1   C26 3915   1.325   2.365   5.651  0.0491 -0.0870 -0.0830
   53CHL1  H26A 3916   1.267   2.311   5.730  0.4408  1.8034  1.5893
   53CHL1  H26B 3917   1.362   2.282   5.587  1.1047 -0.2987  0.7729
   53CHL1  H26C 3918   1.406   2.418   5.706  1.2609 -2.8041  0.9741
   53CHL1   C27 3919   1.112   2.505   5.663 -0.0040 -0.4346 -0.1265
   53CHL1  H27A 3920   1.030   2.431   5.678 -3.3603  2.7435 -1.0538
   53CHL1  H27B 3921   1.144   2.557   5.756 -1.5400  1.4597 -0.5865
   53CHL1  H27C 3922   1.050   2.577   5.606  0.7840 -0.6686 -1.3187
   54CHL1    C3 3923   6.493   2.344   4.834 -0.0591  0.6738  0.5371
   54CHL1    H3 3924   6.386   2.319   4.850  0.1713 -0.9223 -0.2662
   54CHL1    O3 3925   6.527   2.322   4.699 -0.1856 -0.3366  0.0341
   54CHL1   H3' 3926   6.469   2.380   4.649 -1.0174 -0.7587  0.4814
   54CHL1    C4 3927   6.506   2.487   4.874  0.0806 -0.3919 -0.6255
   54CHL1   H4A 3928   6.607   2.527   4.856  0.7814 -1.0601  1.4576
   54CHL1   H4B 3929   6.433   2.544   4.813  0.3904  0.3963 -0.2702
   54CHL1    C5 3930   6.466   2.502   5.018 -0.7371  0.8946 -0.0171
   54CHL1    C6 3931   6.367   2.585   5.057 -0.2937 -0.1868 -0.0721
   54CHL1    H6 3932   6.312   2.638   4.978 -2.0637  3.4474  3.2600
   54CHL1    C7 3933   6.322   2.622   5.196 -0.5060  0.1841  0.9324
   54CHL1   H7A 3934   6.310   2.732   5.207 -0.5923  0.1216  1.4733
   54CHL1   H7B 3935   6.223   2.576   5.215 -0.2128 -0.8061  0.1308
   54CHL1    C8 3936   6.432   2.571   5.299  0.0921 -0.0872  0.6107
   54CHL1    H8 3937   6.522   2.635   5.289 -0.2264  0.2425 -0.1816
   54CHL1   C14 3938   6.372   2.571   5.436 -0.5444 -0.1979 -0.7963
   54CHL1   H14 3939   6.293   2.494   5.424  1.1418 -1.7551 -2.8844
   54CHL1   C15 3940   6.313   2.703   5.492  0.0684 -0.6267  0.5892
   54CHL1  H15A 3941   6.371   2.797   5.478  0.1582 -0.7832 -0.1587
   54CHL1  H15B 3942   6.208   2.715   5.457  0.1359 -0.8493  0.2972
   54CHL1   C16 3943   6.311   2.674   5.643 -0.2991  0.5599 -0.0042
   54CHL1  H16A 3944   6.339   2.762   5.703 -0.6170  0.5579  0.1505
   54CHL1  H16B 3945   6.208   2.648   5.677 -0.1807 -0.9816 -0.7216
   54CHL1   C17 3946   6.396   2.544   5.670 -0.3506  0.6108 -0.1371
   54CHL1   H17 3947   6.327   2.458   5.651 -0.0073  0.2725  0.1345
   54CHL1   C13 3948   6.477   2.527   5.536 -0.0039  0.2488 -0.7406
   54CHL1   C18 3949   6.596   2.617   5.537 -0.3148  0.3681 -0.2702
   54CHL1  H18A 3950   6.674   2.586   5.610  0.0874  2.0978  0.0824
   54CHL1  H18B 3951   6.642   2.605   5.436 -2.3639  1.9255 -1.4695
   54CHL1  H18C 3952   6.565   2.720   5.564 -0.2404  0.5491 -0.8550
   54CHL1   C12 3953   6.517   2.383   5.514  0.4119  0.0049  0.2319
   54CHL1  H12A 3954   6.584   2.338   5.590  1.9774  1.3317 -0.3004
   54CHL1  H12B 3955   6.420   2.330   5.515 -0.1806  1.0558  1.6581
   54CHL1   C11 3956   6.569   2.359   5.366 -0.5208 -0.1744  0.1176
   54CHL1  H11A 3957   6.672   2.402   5.371 -1.3223  1.8723  0.1164
   54CHL1  H11B 3958   6.568   2.251   5.342  1.5405  0.0148 -1.0237
   54CHL1    C9 3959   6.479   2.431   5.262 -0.1521 -0.0564  0.5041
   54CHL1    H9 3960   6.385   2.371   5.263  0.2637 -0.7158  0.7391
   54CHL1   C10 3961   6.544   2.419   5.116  0.0574 -0.2684 -0.3371
   54CHL1   C19 3962   6.688   2.473   5.118 -0.8759  0.4193 -0.0123
   54CHL1  H19A 3963   6.681   2.578   5.153 -1.4830  0.3284  0.1665
   54CHL1  H19B 3964   6.756   2.425   5.191  0.3347  0.4777 -1.0760
   54CHL1  H19C 3965   6.732   2.474   5.016 -1.6296  0.7178 -0.3437
   54CHL1    C1 3966   6.534   2.271   5.067  0.2443  0.0388  0.1214
   54CHL1   H1A 3967   6.589   2.196   5.128  0.9429 -0.1330 -0.6878
   54CHL1   H1B 3968   6.429   2.237   5.061  0.5763 -1.0680  0.3460
   54CHL1    C2 3969   6.585   2.260   4.921  0.6740  0.8470  0.5688
   54CHL1   H2A 3970   6.600   2.156   4.883  0.0079  1.0345 -0.2379
   54CHL1   H2B 3971   6.683   2.304   4.892  0.8942 -1.0755 -2.0336
   54CHL1   C20 3972   6.474   2.525   5.803  0.0441 -0.1639 -0.3631
   54CHL1   H20 3973   6.551   2.446   5.797  0.2903  0.1191 -1.0667
   54CHL1   C21 3974   6.363   2.466   5.891 -0.1018 -0.4272 -0.9384
   54CHL1  H21A 3975   6.405   2.451   5.993  0.1068  0.0902 -0.9458
   54CHL1  H21B 3976   6.328   2.367   5.855  1.1372 -1.1972 -0.0638
   54CHL1  H21C 3977   6.278   2.538   5.890 -0.3485 -0.6709  0.2962
   54CHL1   C22 3978   6.539   2.650   5.868  0.2806  0.1399  0.0365
   54CHL1  H22A 3979   6.604   2.705   5.797  1.6846  0.4761  1.5338
   54CHL1  H22B 3980   6.458   2.716   5.905 -0.0322 -1.0965  1.6960
   54CHL1   C23 3981   6.625   2.621   5.991 -0.1451  0.2476 -0.8011
   54CHL1  H23A 3982   6.565   2.586   6.078 -0.4559  2.2901 -0.1246
   54CHL1  H23B 3983   6.691   2.537   5.960  1.4451  0.8612  0.7358
   54CHL1   C24 3984   6.695   2.752   6.026 -0.1873  0.0086  0.0292
   54CHL1  H24A 3985   6.758   2.785   5.940  1.6914  4.6692  2.7830
   54CHL1  H24B 3986   6.627   2.837   6.049 -0.4162  0.5533 -2.3976
   54CHL1   C25 3987   6.797   2.737   6.141  1.1624 -0.0487 -0.3366
   54CHL1   H25 3988   6.837   2.634   6.138 -0.2728 -0.6123 -1.9328
   54CHL1   C26 3989   6.906   2.836   6.135  0.5177  0.2543 -0.3244
   54CHL1  H26A 3990   6.971   2.833   6.225 -1.9953  0.8557  1.5857
   54CHL1  H26B 3991   6.961   2.821   6.039  1.9746 -1.7966  0.7603
   54CHL1  H26C 3992   6.861   2.938   6.135 -3.0068 -1.1636 -0.7072
   54CHL1   C27 3993   6.719   2.733   6.280 -0.1461  1.3612  0.3415
   54CHL1  H27A 3994   6.667   2.635   6.287 -0.2308  1.1595 -2.2923
   54CHL1  H27B 3995   6.792   2.733   6.364  0.8784 -2.0556 -0.4232
   54CHL1  H27C 3996   6.641   2.813   6.283 -1.9908 -0.3465 -0.1418
   55CHL1    C3 3997   3.262   4.414   4.354 -0.0071 -0.4520  0.3548
   55CHL1    H3 3998   3.346   4.340   4.353 -1.5152 -2.3939  3.2891
   55CHL1    O3 3999   3.248   4.469   4.222 -0.2657 -0.1493 -0.8811
   55CHL1   H3' 4000   3.192   4.544   4.239  0.2751  0.0432  0.1668
   55CHL1    C4 4001   3.128   4.351   4.382 -0.3846 -0.3885  0.0113
   55CHL1   H4A 4002   3.053   4.418   4.334  0.2140 -0.7920 -1.5335
   55CHL1   H4B 4003   3.118   4.258   4.323  0.8843 -0.8948  0.5782
   55CHL1    C5 4004   3.096   4.311   4.527 -0.2965  0.8273 -0.2103
   55CHL1    C6 4005   3.034   4.190   4.547 -0.2469 -0.1080 -0.0735
   55CHL1    H6 4006   3.015   4.124   4.461 -0.4196 -2.0168  1.3722
   55CHL1    C7 4007   2.987   4.139   4.683 -0.0154 -0.1946  0.0032
   55CHL1   H7A 4008   2.879   4.115   4.675  0.6327 -3.0499 -1.4753
   55CHL1   H7B 4009   3.035   4.042   4.708 -0.4179 -0.1652  0.9481
   55CHL1    C8 4010   3.013   4.248   4.800 -0.3295  0.7358 -0.6012
   55CHL1    H8 4011   2.924   4.314   4.789 -2.7166 -2.3174 -1.0841
   55CHL1   C14 4012   3.005   4.178   4.934  0.0953  0.3117 -0.5974
   55CHL1   H14 4013   3.099   4.119   4.936  0.9867  1.7153 -0.3103
   55CHL1   C15 4014   2.889   4.086   4.974  0.1772 -0.5986  0.5048
   55CHL1  H15A 4015   2.795   4.131   4.937  0.4037 -2.3983 -2.7419
   55CHL1  H15B 4016   2.905   3.988   4.923  1.1531  0.6430 -1.7710
   55CHL1   C16 4017   2.888   4.077   5.124 -0.1549  0.0050  0.0631
   55CHL1  H16A 4018   2.790   4.104   5.167  0.2691 -0.6211  1.4928
   55CHL1  H16B 4019   2.919   3.975   5.158 -0.5320 -0.0491  0.2460
   55CHL1   C17 4020   3.001   4.178   5.174 -0.3165  0.1838 -0.2618
   55CHL1   H17 4021   3.095   4.120   5.187  0.7762  1.9311 -0.0687
   55CHL1   C13 4022   3.017   4.276   5.058 -0.1755  0.1406 -0.8544
   55CHL1   C18 4023   2.903   4.376   5.053  0.5419 -0.0390 -0.0238
   55CHL1  H18A 4024   2.798   4.339   5.058 -0.8980  3.5968 -0.0338
   55CHL1  H18B 4025   2.918   4.449   5.135 -2.6568  0.1395  0.5320
   55CHL1  H18C 4026   2.893   4.439   4.962 -2.5945  0.5445  0.5982
   55CHL1   C12 4027   3.149   4.355   5.045 -0.0066  0.4099  0.0188
   55CHL1  H12A 4028   3.169   4.426   5.128  1.3467  1.4688 -1.1629
   55CHL1  H12B 4029   3.234   4.282   5.050 -1.0396 -0.8434 -0.1310
   55CHL1   C11 4030   3.162   4.426   4.905 -0.0324  1.0355  0.0848
   55CHL1  H11A 4031   3.094   4.513   4.900 -1.5470 -0.1561 -1.1743
   55CHL1  H11B 4032   3.269   4.454   4.899  0.5117 -1.1770 -2.4553
   55CHL1    C9 4033   3.139   4.333   4.780  0.4494 -0.6818 -0.0955
   55CHL1    H9 4034   3.219   4.256   4.786  1.9661  0.9169  1.9829
   55CHL1   C10 4035   3.142   4.406   4.638  0.3511  1.1340 -0.3554
   55CHL1   C19 4036   3.048   4.525   4.652  0.3269 -0.6102  0.1147
   55CHL1  H19A 4037   3.037   4.562   4.548 -1.3079  0.3641  0.5964
   55CHL1  H19B 4038   2.951   4.500   4.699 -0.2698 -1.1425 -1.3581
   55CHL1  H19C 4039   3.092   4.605   4.715  1.2690 -2.6670  2.2234
   55CHL1    C1 4040   3.288   4.450   4.611  0.3575 -0.6613  0.0996
   55CHL1   H1A 4041   3.321   4.519   4.691  1.7810 -0.6514 -0.4748
   55CHL1   H1B 4042   3.354   4.361   4.622  0.0153 -0.7149  2.0803
   55CHL1    C2 4043   3.302   4.515   4.469 -0.1851 -0.2575  0.1646
   55CHL1   H2A 4044   3.407   4.549   4.461  0.0124 -0.7578  0.5442
   55CHL1   H2B 4045   3.234   4.603   4.466  1.6894  1.2482  0.4171
   55CHL1   C20 4046   2.973   4.240   5.312 -0.6131 -0.0891  0.0156
   55CHL1   H20 4047   2.886   4.307   5.295 -0.0476  0.9964  1.2280
   55CHL1   C21 4048   3.092   4.314   5.379 -0.6588  0.1078 -0.3433
   55CHL1  H21A 4049   3.078   4.416   5.336  1.7067  1.3239  1.4987
   55CHL1  H21B 4050   3.190   4.278   5.343  0.1393  2.5021 -0.7489
   55CHL1  H21C 4051   3.088   4.322   5.490  5.4707 -0.9001  0.2759
   55CHL1   C22 4052   2.920   4.142   5.418 -0.2720 -0.8403  0.4863
   55CHL1  H22A 4053   2.892   4.194   5.512  0.6445  1.3075 -0.3584
   55CHL1  H22B 4054   2.827   4.106   5.368  0.5414 -1.8287 -0.3725
   55CHL1   C23 4055   2.999   4.019   5.464 -0.5130 -0.3319 -0.4971
   55CHL1  H23A 4056   3.036   3.961   5.377 -0.8235 -0.9956 -0.1966
   55CHL1  H23B 4057   3.088   4.062   5.516  0.1642  1.1059 -2.7278
   55CHL1   C24 4058   2.929   3.921   5.555 -0.0734  0.0138 -0.2231
   55CHL1  H24A 4059   2.987   3.829   5.580  0.5668  0.0757 -1.4216
   55CHL1  H24B 4060   2.931   3.971   5.654  0.5066  0.8293 -0.6359
   55CHL1   C25 4061   2.786   3.874   5.524  0.9069 -0.4008  0.1461
   55CHL1   H25 4062   2.730   3.964   5.492 -0.6822 -1.2730  0.3582
   55CHL1   C26 4063   2.784   3.772   5.412 -0.1595 -0.4136 -0.2534
   55CHL1  H26A 4064   2.848   3.684   5.434  1.2042  0.4709 -0.4939
   55CHL1  H26B 4065   2.679   3.743   5.390  0.6546 -1.7653 -2.6960
   55CHL1  H26C 4066   2.826   3.815   5.319  1.1998  1.4028  1.1023
   55CHL1   C27 4067   2.717   3.814   5.649  0.0906 -1.0088  0.7869
   55CHL1  H27A 4068   2.779   3.742   5.707  0.6933 -0.0376  1.3820
   55CHL1  H27B 4069   2.676   3.895   5.714  2.2704  1.7939 -1.0565
   55CHL1  H27C 4070   2.627   3.758   5.615 -0.3691 -1.3470  2.4968
   56CHL1    C3 4071   3.993   2.632   4.603 -0.1892  0.2086 -0.1106
   56CHL1    H3 4072   4.049   2.537   4.613  1.4720  1.1613  0.0322
   56CHL1    O3 4073   3.998   2.665   4.467  0.2098  0.4765  0.0447
   56CHL1   H3' 4074   3.945   2.745   4.464 -0.1744  0.2638  1.0458
   56CHL1    C4 4075   3.846   2.604   4.639  0.1884 -0.2671  0.7031
   56CHL1   H4A 4076   3.777   2.679   4.596 -1.0482 -2.2240 -0.9054
   56CHL1   H4B 4077   3.811   2.518   4.579  0.3225  0.7910 -0.9483
   56CHL1    C5 4078   3.826   2.588   4.791  0.3969 -0.5302  0.0894
   56CHL1    C6 4079   3.763   2.484   4.838  0.0648  0.0088  0.3911
   56CHL1    H6 4080   3.724   2.415   4.762  1.3780 -0.2339 -0.0826
   56CHL1    C7 4081   3.728   2.471   4.982 -0.5169 -0.3645 -0.0743
   56CHL1   H7A 4082   3.624   2.433   4.993 -1.0165  0.9824 -0.0046
   56CHL1   H7B 4083   3.796   2.397   5.029 -1.2018 -0.1394  1.3046
   56CHL1    C8 4084   3.750   2.608   5.069  0.7671 -0.0267  0.1437
   56CHL1    H8 4085   3.671   2.678   5.033 -0.6964 -0.9511  1.4258
   56CHL1   C14 4086   3.749   2.588   5.224  0.2175 -0.7007  0.5490
   56CHL1   H14 4087   3.832   2.518   5.249  0.0662 -0.3700  2.0574
   56CHL1   C15 4088   3.634   2.513   5.282  0.5970  0.4185  0.1667
   56CHL1  H15A 4089   3.530   2.535   5.249 -0.4049 -2.7652  0.7481
   56CHL1  H15B 4090   3.642   2.403   5.266  0.0467  0.3419  0.4037
   56CHL1   C16 4091   3.648   2.539   5.434 -0.2286  0.9285  0.5680
   56CHL1  H16A 4092   3.557   2.573   5.487  0.4938  1.5140  1.4777
   56CHL1  H16B 4093   3.683   2.445   5.484  0.8761  1.0498  0.0590
   56CHL1   C17 4094   3.762   2.641   5.452  0.2541  0.5083 -0.7175
   56CHL1   H17 4095   3.859   2.586   5.453 -0.2447 -0.3917  0.8823
   56CHL1   C13 4096   3.775   2.710   5.309  0.4909  0.0898 -0.5796
   56CHL1   C18 4097   3.662   2.814   5.290  0.0534 -0.4325 -0.2839
   56CHL1  H18A 4098   3.680   2.869   5.195  1.1913  0.7616  0.5834
   56CHL1  H18B 4099   3.560   2.770   5.298  0.3301 -0.7713  1.9496
   56CHL1  H18C 4100   3.659   2.894   5.367  0.0716  0.6452 -1.3859
   56CHL1   C12 4101   3.914   2.766   5.265  0.0886  0.5893 -0.1991
   56CHL1  H12A 4102   3.939   2.862   5.314 -0.7619  1.2216 -0.9642
   56CHL1  H12B 4103   3.982   2.680   5.285 -3.0037 -1.9572  0.1723
   56CHL1   C11 4104   3.929   2.792   5.115  0.1767  0.3348  0.1084
   56CHL1  H11A 4105   3.868   2.882   5.091 -2.3881 -1.1889  0.5608
   56CHL1  H11B 4106   4.038   2.811   5.117 -0.2357  3.0126  0.6201
   56CHL1    C9 4107   3.885   2.672   5.028 -0.5199 -0.3508  0.3562
   56CHL1    H9 4108   3.960   2.596   5.060 -1.3293 -0.9625  0.8548
   56CHL1   C10 4109   3.894   2.698   4.876 -0.3963 -0.5455 -0.1135
   56CHL1   C19 4110   3.818   2.821   4.836  0.2047  0.0797  0.6021
   56CHL1  H19A 4111   3.712   2.807   4.865 -0.6294  0.7864 -1.8241
   56CHL1  H19B 4112   3.868   2.910   4.880 -0.4193  1.3120 -1.0850
   56CHL1  H19C 4113   3.823   2.840   4.727 -1.9292  0.8419  0.5884
   56CHL1    C1 4114   4.047   2.717   4.843  0.3551  0.5561 -0.9528
   56CHL1   H1A 4115   4.086   2.807   4.894  1.0997  1.0197 -2.3120
   56CHL1   H1B 4116   4.115   2.634   4.874  0.7424  0.7557 -1.2621
   56CHL1    C2 4117   4.064   2.739   4.685  0.7660  0.1725 -0.8918
   56CHL1   H2A 4118   4.172   2.734   4.657  0.8632 -3.0770 -0.3846
   56CHL1   H2B 4119   4.030   2.841   4.660 -0.7442  0.1145  0.7250
   56CHL1   C20 4120   3.752   2.719   5.586 -0.1091  0.4113  0.3633
   56CHL1   H20 4121   3.656   2.773   5.592 -0.2141  0.3555 -0.6139
   56CHL1   C21 4122   3.858   2.833   5.582  0.1153  0.1998 -0.4849
   56CHL1  H21A 4123   3.844   2.892   5.489  0.5634  1.7602  0.4060
   56CHL1  H21B 4124   3.965   2.802   5.579  0.0391 -0.3942  1.5328
   56CHL1  H21C 4125   3.840   2.894   5.673 -2.1565 -3.5368  1.8697
   56CHL1   C22 4126   3.772   2.632   5.712 -0.3048  0.0973  0.1471
   56CHL1  H22A 4127   3.697   2.550   5.706  1.3392 -1.6743  1.9712
   56CHL1  H22B 4128   3.869   2.578   5.720 -0.8441 -0.8389  0.5953
   56CHL1   C23 4129   3.740   2.710   5.849 -0.5891 -0.0357  0.3382
   56CHL1  H23A 4130   3.825   2.778   5.871  0.3279 -0.2890 -2.0784
   56CHL1  H23B 4131   3.648   2.770   5.834  0.6577  2.2714  1.3461
   56CHL1   C24 4132   3.711   2.632   5.972  0.3861 -0.1681  0.5587
   56CHL1  H24A 4133   3.607   2.596   5.986 -0.8676  3.0133  0.1891
   56CHL1  H24B 4134   3.771   2.538   5.963  0.7915  0.2524 -2.3219
   56CHL1   C25 4135   3.733   2.704   6.111  0.8869 -0.2521  0.2072
   56CHL1   H25 4136   3.836   2.742   6.123  0.4079  0.6257  1.8188
   56CHL1   C26 4137   3.652   2.829   6.137  0.7356  0.1728  0.2581
   56CHL1  H26A 4138   3.543   2.813   6.156  0.1879  3.3273  0.3108
   56CHL1  H26B 4139   3.696   2.883   6.224  0.6695  1.7286 -0.6381
   56CHL1  H26C 4140   3.646   2.899   6.051  1.5581  0.6777  0.5991
   56CHL1   C27 4141   3.709   2.609   6.226 -0.4147  0.4299  0.8095
   56CHL1  H27A 4142   3.607   2.564   6.226 -0.4754  0.5536  0.0777
   56CHL1  H27B 4143   3.782   2.526   6.212 -3.8708 -2.5041 -2.0749
   56CHL1  H27C 4144   3.733   2.655   6.324  0.6249 -0.4739  1.0017
   57SAPC     N 4145   5.145   3.395   8.725  0.5478  0.1498  0.1770
   57SAPC   C12 4146   5.161   3.451   8.586  0.2457  0.1895  0.2629
   57SAPC  H12A 4147   5.186   3.371   8.518 -1.5474  0.5606 -0.9028
   57SAPC  H12B 4148   5.239   3.525   8.578  0.3397  0.0100 -0.5905
   57SAPC   C13 4149   5.097   3.496   8.832  0.0307 -0.3500 -0.2844
   57SAPC  H13A 4150   5.003   3.543   8.810  0.2090  0.3574  0.4224
   57SAPC  H13B 4151   5.093   3.446   8.928  0.2661 -2.5458 -1.3560
   57SAPC  H13C 4152   5.172   3.574   8.835 -0.9369  0.5587  1.5749
   57SAPC   C14 4153   5.049   3.278   8.736  0.1360 -0.1142  0.3651
   57SAPC  H14A 4154   5.039   3.246   8.839 -0.6480  0.6297  0.5287
   57SAPC  H14B 4155   4.950   3.311   8.707  0.6275  0.6466 -0.4650
   57SAPC  H14C 4156   5.074   3.200   8.666 -2.2362  0.0028 -0.7373
   57SAPC   C15 4157   5.286   3.346   8.768 -0.2239 -0.0766 -0.4531
   57SAPC  H15A 4158   5.275   3.283   8.855 -1.7909 -1.2873 -1.4642
   57SAPC  H15B 4159   5.326   3.282   8.691  0.1938 -1.5950  0.9800
   57SAPC  H15C 4160   5.358   3.424   8.784  0.1520 -0.2388 -1.3171
   57SAPC   C11 4161   5.032   3.506   8.524 -0.4720 -0.4453 -0.2394
   57SAPC  H11A 4162   5.054   3.571   8.437  0.5060  1.5925  1.4322
   57SAPC  H11B 4163   4.979   3.564   8.603 -2.2607  3.1401 -3.7802
   57SAPC     P 4164   4.925   3.342   8.337  0.2865  0.0663  0.5366
   57SAPC   O13 4165   4.970   3.202   8.335  0.0718  0.0174  0.1449
   57SAPC   O14 4166   4.783   3.364   8.303 -0.5222  0.1161  0.3515
   57SAPC   O12 4167   4.953   3.395   8.486  0.4209  0.5691  0.0699
   57SAPC   O11 4168   5.011   3.434   8.246 -0.6169  0.1948 -0.7171
   57SAPC    C1 4169   5.139   3.393   8.200  0.3267 -0.1066 -0.0565
   57SAPC    HA 4170   5.206   3.481   8.206  2.4131 -1.5808 -0.7335
   57SAPC    HB 4171   5.191   3.308   8.248  1.9175 -0.5451 -2.3724
   57SAPC    C2 4172   5.127   3.349   8.054 -0.0553 -0.7507  0.9098
   57SAPC    HS 4173   5.092   3.444   8.007 -1.0086 -1.1856  0.7340
   57SAPC   O21 4174   5.020   3.249   8.048  0.3888 -0.1371 -0.5098
   57SAPC   C21 4175   4.946   3.254   7.937 -0.6693 -0.3441 -0.5956
   57SAPC   O22 4176   4.952   3.342   7.850 -0.0397 -0.2169 -0.7714
   57SAPC   C22 4177   4.834   3.149   7.949  0.2897  0.0763  0.0857
   57SAPC   H2R 4178   4.883   3.049   7.940 -2.7004 -1.5000  0.0386
   57SAPC   H2S 4179   4.795   3.153   8.053  0.7706 -0.6435  0.2984
   57SAPC    C3 4180   5.256   3.305   7.980  0.0611 -0.8120  0.0925
   57SAPC    HX 4181   5.287   3.209   8.028 -0.7659 -1.6908 -1.0673
   57SAPC    HY 4182   5.320   3.391   8.009 -2.8019  2.2663 -1.9797
   57SAPC   O31 4183   5.254   3.296   7.833  0.4464  0.1772  0.1135
   57SAPC   C31 4184   5.253   3.419   7.768 -0.0408  0.6499 -0.2229
   57SAPC   O32 4185   5.240   3.527   7.821 -0.2459 -0.0801  0.4968
   57SAPC   C32 4186   5.284   3.409   7.622 -0.3278 -0.3283 -0.0298
   57SAPC   H2X 4187   5.236   3.315   7.586  0.3603 -0.1888 -1.3488
   57SAPC   H2Y 4188   5.390   3.376   7.620 -0.8602 -2.2648 -2.1475
   57SAPC   C23 4189   4.716   3.168   7.854  0.8640  0.5576  0.1860
   57SAPC   H3R 4190   4.757   3.153   7.752  1.6297  0.6759  0.4722
   57SAPC   H3S 4191   4.674   3.270   7.868  0.7950  0.2799  2.3915
   57SAPC   C24 4192   4.595   3.077   7.876  0.3941  0.2255  0.4053
   57SAPC   H4R 4193   4.511   3.115   7.814  0.3079 -1.1396 -0.3458
   57SAPC   H4S 4194   4.561   3.088   7.981 -1.1526 -0.7164  0.0388
   57SAPC   C25 4195   4.623   2.930   7.853  0.5717 -0.1145 -0.4688
   57SAPC   H5R 4196   4.685   2.877   7.926 -0.2947  1.0330  1.1824
   57SAPC   C26 4197   4.582   2.857   7.753  0.5103  0.5100  0.1013
   57SAPC   H6R 4198   4.590   2.748   7.768 -0.3011  0.4942  0.5047
   57SAPC   C27 4199   4.489   2.896   7.641 -0.1769  0.0265 -0.9191
   57SAPC   H7R 4200   4.545   2.971   7.580 -0.0469  0.1372 -0.6667
   57SAPC   H7S 4201   4.400   2.944   7.689  0.2380 -1.6203  1.7009
   57SAPC   C28 4202   4.429   2.786   7.566  0.7783 -0.4696  0.3432
   57SAPC   H8R 4203   4.403   2.695   7.622 -1.9651 -0.3007 -0.5298
   57SAPC   C29 4204   4.394   2.780   7.435  0.3675 -1.0760 -0.4251
   57SAPC   H9R 4205   4.350   2.688   7.393 -1.4003 -0.8510  0.8359
   57SAPC  C210 4206   4.421   2.888   7.333 -1.4777 -0.1270 -0.3645
   57SAPC  H10R 4207   4.458   2.976   7.389  1.8376 -1.4231 -0.3525
   57SAPC  H10S 4208   4.327   2.928   7.288 -2.1765 -1.5378 -0.2195
   57SAPC  C211 4209   4.531   2.847   7.235  0.2639 -0.7797  0.0404
   57SAPC  H11R 4210   4.622   2.820   7.290 -0.8475 -2.6608  1.0888
   57SAPC  C212 4211   4.516   2.837   7.101  0.2109  0.8227  0.4071
   57SAPC  H12R 4212   4.605   2.830   7.036  0.0154  0.3802  0.1879
   57SAPC  C213 4213   4.395   2.876   7.017 -0.0073 -0.2259 -0.1244
   57SAPC  H13R 4214   4.302   2.857   7.075 -0.6084 -0.6640 -1.2087
   57SAPC  H13S 4215   4.382   2.800   6.937 -0.9890 -1.0884  0.8296
   57SAPC  C214 4216   4.417   3.009   6.953 -0.4945 -0.3284 -0.1924
   57SAPC  H14R 4217   4.442   3.088   7.025  1.6419 -0.1579 -1.0280
   57SAPC  C215 4218   4.418   3.044   6.819 -0.4015 -0.2869 -0.1048
   57SAPC  H15R 4219   4.450   3.144   6.789 -0.0614 -0.9224 -2.0364
   57SAPC  C216 4220   4.386   2.943   6.705 -0.1535 -0.1682  0.2290
   57SAPC  H16R 4221   4.348   3.005   6.621  1.8825  0.8564 -0.0052
   57SAPC  H16S 4222   4.299   2.877   6.726 -1.8320  0.3237 -4.0838
   57SAPC  C217 4223   4.502   2.865   6.654  0.2669 -0.2025  0.5701
   57SAPC  H17R 4224   4.548   2.818   6.744  1.1583 -0.2560  0.0996
   57SAPC  H17S 4225   4.584   2.925   6.610  0.3881 -0.7509  0.0361
   57SAPC  C218 4226   4.472   2.746   6.557  0.4930 -1.2388  0.0732
   57SAPC  H18R 4227   4.411   2.785   6.473 -3.3350 -2.2007  2.1075
   57SAPC  H18S 4228   4.402   2.673   6.604 -2.6914  2.3149  1.4143
   57SAPC  C219 4229   4.600   2.686   6.505  0.1327 -0.0205 -0.0317
   57SAPC  H19R 4230   4.662   2.651   6.590  1.0607  0.0432 -0.6534
   57SAPC  H19S 4231   4.649   2.751   6.428  0.2392 -0.4640 -0.3392
   57SAPC  C220 4232   4.564   2.557   6.430  0.0775 -0.5880  0.8564
   57SAPC  H20R 4233   4.505   2.588   6.342 -0.3796  0.8374  1.6320
   57SAPC  H20S 4234   4.509   2.491   6.499 -1.3268  0.2044  0.5237
   57SAPC  H20T 4235   4.652   2.503   6.390  0.2463 -0.6192  1.2663
   57SAPC   C33 4236   5.257   3.538   7.539  0.5710 -0.2853  0.1011
   57SAPC   H3X 4237   5.307   3.629   7.577  0.1329 -0.5902  1.4611
   57SAPC   H3Y 4238   5.146   3.548   7.533  0.5203 -1.4175 -1.4777
   57SAPC   C34 4239   5.312   3.523   7.398 -1.0138  0.2621 -0.7323
   57SAPC   H4X 4240   5.289   3.421   7.361  1.9282 -1.1614  0.9798
   57SAPC   H4Y 4241   5.423   3.525   7.407 -1.1470 -0.6580  1.8423
   57SAPC   C35 4242   5.267   3.638   7.305 -0.1715  0.3454 -0.0274
   57SAPC   H5X 4243   5.342   3.714   7.277 -2.6658  2.3237 -1.8329
   57SAPC   H5Y 4244   5.174   3.686   7.344 -0.7698  1.5236 -2.6724
   57SAPC   C36 4245   5.220   3.577   7.175 -0.0828  0.7512 -1.1069
   57SAPC   H6X 4246   5.130   3.514   7.195  0.4739  0.4563  0.7494
   57SAPC   H6Y 4247   5.292   3.503   7.132 -1.1295 -1.5718  0.8521
   57SAPC   C37 4248   5.195   3.692   7.076  0.9353  0.0887  0.1589
   57SAPC   H7X 4249   5.291   3.748   7.069  1.9873 -1.7894 -1.6455
   57SAPC   H7Y 4250   5.113   3.751   7.123  0.6792 -0.7956  0.8550
   57SAPC   C38 4251   5.139   3.644   6.941  0.3018  0.0498  0.0698
   57SAPC   H8X 4252   5.062   3.713   6.902  0.5860  0.8871  0.9429
   57SAPC   H8Y 4253   5.080   3.555   6.973  1.3430 -0.6961 -0.0114
   57SAPC   C39 4254   5.246   3.602   6.841 -0.8149 -0.3002 -0.1103
   57SAPC   H9X 4255   5.283   3.505   6.881 -1.7770 -0.3734  0.6363
   57SAPC   H9Y 4256   5.319   3.685   6.840 -1.0663 -0.0777 -0.3442
   57SAPC  C310 4257   5.190   3.572   6.705 -0.2146 -0.2888  0.4975
   57SAPC  H10X 4258   5.130   3.660   6.673  0.4817  0.4337  1.1308
   57SAPC  H10Y 4259   5.139   3.474   6.693 -2.7991  1.2183 -2.1414
   57SAPC  C311 4260   5.295   3.575   6.586  0.6295 -0.0311 -0.0414
   57SAPC  H11X 4261   5.358   3.484   6.594 -0.5990 -0.9266 -0.2140
   57SAPC  H11Y 4262   5.359   3.666   6.586  0.7285 -0.0612 -1.9329
   57SAPC  C312 4263   5.234   3.556   6.444 -0.2356  0.0006  0.5692
   57SAPC  H12X 4264   5.154   3.479   6.455 -0.4106  0.1353  0.2532
   57SAPC  H12Y 4265   5.316   3.507   6.387 -0.5527 -0.6345  0.6494
   57SAPC  C313 4266   5.172   3.684   6.386 -0.4207  0.2973  0.4505
   57SAPC  H13X 4267   5.137   3.746   6.471 -2.7382  2.9289 -2.1961
   57SAPC  H13Y 4268   5.090   3.657   6.316 -1.6890  2.9937  0.7805
   57SAPC  C314 4269   5.268   3.757   6.295 -0.2103 -0.0778 -0.1016
   57SAPC  H14X 4270   5.365   3.790   6.339 -0.4988  0.5216  0.0968
   57SAPC  H14Y 4271   5.219   3.856   6.283  0.7266  0.6938  2.0143
   57SAPC  C315 4272   5.292   3.708   6.151 -0.3534  0.7964  0.2628
   57SAPC  H15X 4273   5.200   3.714   6.090  0.4017 -2.4089 -1.4167
   57SAPC  H15Y 4274   5.316   3.599   6.151  0.8062  1.0290 -1.1409
   57SAPC  C316 4275   5.415   3.783   6.094 -1.1237  0.6098 -0.5506
   57SAPC  H16X 4276   5.499   3.758   6.163 -3.1958 -1.2063  1.5169
   57SAPC  H16Y 4277   5.402   3.894   6.088 -0.4999  0.9598  2.5507
   57SAPC  C317 4278   5.448   3.727   5.952  0.8710  0.1091 -0.7000
   57SAPC  H17X 4279   5.366   3.745   5.880 -0.1872 -1.2471  0.1102
   57SAPC  H17Y 4280   5.448   3.616   5.961 -2.3584  0.1439  1.1901
   57SAPC  C318 4281   5.583   3.790   5.912  0.5308 -0.1149  0.4210
   57SAPC  H18X 4282   5.587   3.901   5.923 -1.4958 -0.0197  0.6894
   57SAPC  H18Y 4283   5.615   3.765   5.809 -1.2850  2.7252 -0.9695
   57SAPC  H18Z 4284   5.666   3.745   5.970  0.3532 -0.8031  0.1476
   58SAPC     N 4285   0.362   1.686   8.630  0.7357  0.4599 -0.0397
   58SAPC   C12 4286   0.317   1.783   8.525  0.1427  0.4718 -0.5588
   58SAPC  H12A 4287   0.400   1.795   8.458  0.5528 -0.5609 -0.2489
   58SAPC  H12B 4288   0.291   1.878   8.572 -1.3809  0.7779 -1.9439
   58SAPC   C13 4289   0.485   1.748   8.683 -0.6655  0.4800 -0.2925
   58SAPC  H13A 4290   0.473   1.852   8.711 -1.3916  0.7183 -1.4363
   58SAPC  H13B 4291   0.528   1.705   8.772  0.6092 -0.1262 -1.1550
   58SAPC  H13C 4292   0.568   1.740   8.614 -0.1710  1.2823  0.1953
   58SAPC   C14 4293   0.254   1.660   8.735 -0.3056 -0.1210  0.5776
   58SAPC  H14A 4294   0.291   1.594   8.812 -1.0756  0.9979  1.9539
   58SAPC  H14B 4295   0.205   1.743   8.783 -0.8029 -1.1852  1.9838
   58SAPC  H14C 4296   0.176   1.603   8.686  1.6761 -0.4401 -2.4896
   58SAPC   C15 4297   0.399   1.552   8.565  0.1552  0.9469 -0.0762
   58SAPC  H15A 4298   0.443   1.487   8.639 -1.9938 -2.7603 -1.7759
   58SAPC  H15B 4299   0.315   1.497   8.525  0.8766  0.6004 -1.1739
   58SAPC  H15C 4300   0.465   1.567   8.481 -0.8484  0.7381 -0.9300
   58SAPC   C11 4301   0.206   1.748   8.422  0.5290 -0.5917 -0.2737
   58SAPC  H11A 4302   0.225   1.645   8.386 -0.9966 -0.7668 -0.6386
   58SAPC  H11B 4303   0.225   1.826   8.345 -2.3232 -0.1030 -0.6059
   58SAPC     P 4304   0.019   1.904   8.507 -0.3703  0.2581 -0.2669
   58SAPC   O13 4305  -0.101   1.878   8.586 -0.2112 -0.1342  0.0274
   58SAPC   O14 4306   0.117   1.995   8.569 -0.0689 -0.4149  0.5385
   58SAPC   O12 4307   0.083   1.759   8.494 -0.1894  0.7217  0.1115
   58SAPC   O11 4308  -0.020   1.938   8.352 -0.5890 -0.5414  0.0652
   58SAPC    C1 4309  -0.092   1.857   8.266 -0.6888 -0.0420 -0.5792
   58SAPC    HA 4310  -0.042   1.758   8.258  0.6525  0.5036  0.6286
   58SAPC    HB 4311  -0.192   1.835   8.310 -0.1943 -2.1043 -0.3756
   58SAPC    C2 4312  -0.120   1.944   8.138 -0.1889  0.7302 -0.2877
   58SAPC    HS 4313  -0.184   1.880   8.074  1.0740 -0.4966 -0.3576
   58SAPC   O21 4314  -0.001   1.991   8.080  0.2747  0.7466 -0.2792
   58SAPC   C21 4315   0.069   1.890   8.039 -0.0099 -0.2960  0.2353
   58SAPC   O22 4316   0.029   1.775   8.020  0.0923  0.8735  0.1019
   58SAPC   C22 4317   0.213   1.938   8.036 -0.0179  0.0841 -0.0597
   58SAPC   H2R 4318   0.217   2.028   8.102 -1.9927  0.3105 -0.2018
   58SAPC   H2S 4319   0.268   1.848   8.073  2.4131  0.4565 -2.4917
   58SAPC    C3 4320  -0.209   2.072   8.164  0.0856 -0.4190  0.1779
   58SAPC    HX 4321  -0.156   2.143   8.231 -0.1873 -0.0735  0.0352
   58SAPC    HY 4322  -0.300   2.058   8.227 -0.5032  1.2541 -0.2471
   58SAPC   O31 4323  -0.246   2.153   8.048  0.1670  0.3905  0.0150
   58SAPC   C31 4324  -0.354   2.106   7.980 -0.0972  0.0882  0.2449
   58SAPC   O32 4325  -0.423   2.017   8.014  0.2774 -0.3882  0.2289
   58SAPC   C32 4326  -0.359   2.187   7.851  0.5971 -0.1831  0.2643
   58SAPC   H2X 4327  -0.268   2.249   7.839 -0.6520  2.0913  1.8011
   58SAPC   H2Y 4328  -0.436   2.264   7.874 -0.5732 -1.3832  0.4857
   58SAPC   C23 4329   0.261   1.955   7.885 -0.3283  0.1724 -0.6907
   58SAPC   H3R 4330   0.248   1.865   7.821 -0.1805  0.0318 -0.5215
   58SAPC   H3S 4331   0.371   1.964   7.889 -0.2228 -1.2172  0.2235
   58SAPC   C24 4332   0.202   2.079   7.820  0.1678 -0.4947  0.0742
   58SAPC   H4R 4333   0.247   2.165   7.875 -2.2296  1.8123 -1.3422
   58SAPC   H4S 4334   0.092   2.092   7.830  0.1596 -0.4893 -0.0197
   58SAPC   C25 4335   0.236   2.102   7.675  0.3375  0.6740  0.6097
   58SAPC   H5R 4336   0.338   2.142   7.661  0.3522  0.1781 -0.8809
   58SAPC   C26 4337   0.158   2.070   7.567  0.4680  0.6700 -0.2212
   58SAPC   H6R 4338   0.188   2.106   7.467  2.0118  0.4699  0.1511
   58SAPC   C27 4339   0.027   2.005   7.579 -0.2324 -0.5077  0.9768
   58SAPC   H7R 4340  -0.006   1.981   7.682 -0.6918  0.7029  1.1231
   58SAPC   H7S 4341   0.037   1.908   7.525  0.6928 -0.1985  0.5702
   58SAPC   C28 4342  -0.078   2.086   7.512  0.6619 -0.3009 -0.2195
   58SAPC   H8R 4343  -0.145   2.144   7.578 -0.0955  0.5145 -1.6586
   58SAPC   C29 4344  -0.104   2.106   7.383  0.8151  0.3404  0.0423
   58SAPC   H9R 4345  -0.191   2.165   7.349 -0.3330 -0.8327  0.8422
   58SAPC  C210 4346  -0.034   2.030   7.273 -0.1704 -0.3063 -0.0574
   58SAPC  H10R 4347  -0.046   1.922   7.293 -0.5407 -0.3197 -0.3288
   58SAPC  H10S 4348   0.076   2.041   7.279 -0.2775  0.7773  0.1848
   58SAPC  C211 4349  -0.070   2.065   7.133  0.4709 -0.4583  0.1128
   58SAPC  H11R 4350  -0.134   1.994   7.080  0.2194  0.1556 -0.4264
   58SAPC  C212 4351  -0.004   2.161   7.058 -0.9796  0.0674  0.7069
   58SAPC  H12R 4352  -0.044   2.184   6.958 -0.5899 -3.6064 -0.4326
   58SAPC  C213 4353   0.112   2.251   7.095 -0.1963 -0.4262  0.0176
   58SAPC  H13R 4354   0.203   2.208   7.047 -1.2179 -1.5271 -0.9803
   58SAPC  H13S 4355   0.123   2.250   7.205 -1.3238  0.9584  0.1654
   58SAPC  C214 4356   0.099   2.392   7.048  0.2999  0.3544  0.3951
   58SAPC  H14R 4357   0.156   2.405   6.955  1.4288  0.9663  1.1563
   58SAPC  C215 4358   0.023   2.484   7.098 -0.3266 -0.4525 -1.1587
   58SAPC  H15R 4359   0.020   2.585   7.055 -0.4510  0.0002 -0.1175
   58SAPC  C216 4360  -0.056   2.486   7.228  0.4196 -0.4025 -0.0918
   58SAPC  H16R 4361  -0.026   2.394   7.283  1.4282  0.8190  1.4953
   58SAPC  H16S 4362  -0.166   2.483   7.214  0.0530 -1.8001  2.4717
   58SAPC  C217 4363  -0.005   2.605   7.317 -0.0820 -0.3598 -0.5845
   58SAPC  H17R 4364  -0.037   2.697   7.264 -1.2128  0.4487  1.3928
   58SAPC  H17S 4365   0.106   2.608   7.327  0.0155 -0.3145 -1.5156
   58SAPC  C218 4366  -0.065   2.609   7.463  0.0704  0.5485  0.2588
   58SAPC  H18R 4367  -0.175   2.606   7.457  0.1391 -0.6858 -0.7644
   58SAPC  H18S 4368  -0.033   2.708   7.502 -2.1622  1.8910 -1.1207
   58SAPC  C219 4369  -0.038   2.488   7.560 -0.6000 -0.3838 -0.2608
   58SAPC  H19R 4370   0.070   2.467   7.570 -0.2796  1.6228  1.1765
   58SAPC  H19S 4371  -0.089   2.406   7.505 -0.6771  0.7691 -1.9820
   58SAPC  C220 4372  -0.088   2.498   7.710 -0.0484 -0.4457 -0.3511
   58SAPC  H20R 4373  -0.197   2.517   7.704 -0.9741 -4.1597  1.7707
   58SAPC  H20S 4374  -0.031   2.583   7.753  0.9939 -0.2784 -1.9694
   58SAPC  H20T 4375  -0.074   2.405   7.768 -0.6543 -0.6569 -0.5337
   58SAPC   C33 4376  -0.396   2.089   7.740  0.4311 -0.4763 -0.5646
   58SAPC   H3X 4377  -0.480   2.026   7.777 -0.7068  1.7515  0.8232
   58SAPC   H3Y 4378  -0.303   2.037   7.707  0.4547  0.2975 -1.7791
   58SAPC   C34 4379  -0.447   2.157   7.618  0.3095  0.9263  0.5704
   58SAPC   H4X 4380  -0.373   2.231   7.579  0.8058  1.0550  1.7121
   58SAPC   H4Y 4381  -0.539   2.216   7.638 -0.2130  0.1762  0.4190
   58SAPC   C35 4382  -0.477   2.060   7.504 -0.5592  0.0380  0.4454
   58SAPC   H5X 4383  -0.560   1.989   7.521 -0.6335 -0.3499 -1.2977
   58SAPC   H5Y 4384  -0.385   2.001   7.487 -0.9708  0.1648 -2.8329
   58SAPC   C36 4385  -0.498   2.145   7.374 -0.8671 -0.8737  0.5945
   58SAPC   H6X 4386  -0.413   2.211   7.346 -1.5893 -0.5016 -0.7964
   58SAPC   H6Y 4387  -0.577   2.219   7.398  0.0906  1.0156 -1.6348
   58SAPC   C37 4388  -0.540   2.076   7.248  0.4460  0.3619 -0.0551
   58SAPC   H7X 4389  -0.650   2.086   7.247  0.4079 -0.0521 -1.0715
   58SAPC   H7Y 4390  -0.521   1.966   7.249 -2.9354 -0.3662 -1.9119
   58SAPC   C38 4391  -0.490   2.139   7.118  0.5274  0.1484  0.0944
   58SAPC   H8X 4392  -0.383   2.110   7.113  0.7485  0.8690  0.5169
   58SAPC   H8Y 4393  -0.509   2.247   7.134 -0.8113 -0.0679  0.0477
   58SAPC   C39 4394  -0.563   2.085   6.997 -0.9121  0.4256  0.4178
   58SAPC   H9X 4395  -0.670   2.113   6.990 -1.2791 -0.9554  0.1025
   58SAPC   H9Y 4396  -0.564   1.974   7.008  0.8473 -0.1199 -3.1960
   58SAPC  C310 4397  -0.486   2.127   6.866  0.7160  0.8641  0.1078
   58SAPC  H10X 4398  -0.388   2.076   6.852 -0.8503 -2.2002 -0.5537
   58SAPC  H10Y 4399  -0.467   2.236   6.875 -1.0503  1.1048  1.6147
   58SAPC  C311 4400  -0.561   2.092   6.735  0.3254  0.2192  0.2165
   58SAPC  H11X 4401  -0.653   2.152   6.721 -0.3719 -0.5832  1.2071
   58SAPC  H11Y 4402  -0.573   1.981   6.739  0.4315  0.2085  0.2483
   58SAPC  C312 4403  -0.485   2.131   6.607  0.0751 -0.2818 -0.2737
   58SAPC  H12X 4404  -0.391   2.078   6.582  0.7749  0.5171  0.6089
   58SAPC  H12Y 4405  -0.459   2.237   6.625  0.7810 -0.5463  0.3172
   58SAPC  C313 4406  -0.575   2.141   6.485 -0.3273 -0.3841  0.0214
   58SAPC  H13X 4407  -0.656   2.214   6.501  1.4752  2.6298 -3.1613
   58SAPC  H13Y 4408  -0.623   2.042   6.468  0.8497 -0.7132 -1.6033
   58SAPC  C314 4409  -0.488   2.182   6.366 -0.3821 -1.1814  0.0701
   58SAPC  H14X 4410  -0.401   2.113   6.375  1.5818  1.2260  0.8200
   58SAPC  H14Y 4411  -0.451   2.287   6.364 -2.3096 -0.4595  0.1445
   58SAPC  C315 4412  -0.569   2.159   6.235 -0.5166  0.9219  0.6996
   58SAPC  H15X 4413  -0.602   2.053   6.230  2.3592 -0.0845  1.0712
   58SAPC  H15Y 4414  -0.489   2.181   6.160 -0.3539 -0.2263  0.5251
   58SAPC  C316 4415  -0.701   2.241   6.201  0.0912 -0.1644  0.1442
   58SAPC  H16X 4416  -0.678   2.350   6.196  1.7573 -0.5614 -1.9576
   58SAPC  H16Y 4417  -0.790   2.219   6.265 -0.0569 -1.7460 -0.5587
   58SAPC  C317 4418  -0.737   2.226   6.048  0.3511 -0.5770 -0.2476
   58SAPC  H17X 4419  -0.784   2.126   6.038 -1.3802  0.2962 -1.6260
   58SAPC  H17Y 4420  -0.644   2.232   5.987 -0.9498  1.2893 -2.2470
   58SAPC  C318 4421  -0.835   2.334   6.001 -0.1207 -0.2677 -0.1389
   58SAPC  H18X 4422  -0.795   2.437   6.015  0.1080 -0.3020 -0.5397
   58SAPC  H18Y 4423  -0.923   2.329   6.068 -0.2458 -1.1588 -0.3543
   58SAPC  H18Z 4424  -0.869   2.326   5.896 -0.0896 -0.2678 -0.1488
   59SAPC     N 4425   0.353   5.816   8.410 -0.7588  0.1701  0.5547
   59SAPC   C12 4426   0.456   5.711   8.365 -0.0419  0.3406 -0.4089
   59SAPC  H12A 4427   0.551   5.762   8.363 -0.4799  1.2057  0.1692
   59SAPC  H12B 4428   0.439   5.667   8.267 -1.0744 -2.5642  0.9528
   59SAPC   C13 4429   0.370   5.945   8.334  0.0757 -0.5539 -0.1370
   59SAPC  H13A 4430   0.465   5.991   8.355 -0.6259  1.5633 -1.3347
   59SAPC  H13B 4431   0.362   5.934   8.227 -1.8017 -0.6143 -0.0300
   59SAPC  H13C 4432   0.302   6.021   8.369  0.9587 -1.1653  3.2176
   59SAPC   C14 4433   0.216   5.772   8.384 -0.4776 -0.2884 -0.2817
   59SAPC  H14A 4434   0.150   5.842   8.433 -0.2548 -0.3329  0.0791
   59SAPC  H14B 4435   0.198   5.775   8.277  0.6614  0.2444 -0.4782
   59SAPC  H14C 4436   0.193   5.668   8.403  0.9974 -0.4048  1.0720
   59SAPC   C15 4437   0.369   5.854   8.554 -0.7458 -0.0132 -0.4426
   59SAPC  H15A 4438   0.469   5.886   8.576 -0.9947  1.1224 -0.8868
   59SAPC  H15B 4439   0.317   5.944   8.584  0.7741  0.8876 -0.3928
   59SAPC  H15C 4440   0.347   5.775   8.623  0.8291 -0.1631 -0.0786
   59SAPC   C11 4441   0.475   5.582   8.451  0.8010  1.3360  0.1029
   59SAPC  H11A 4442   0.488   5.628   8.551  0.0560  1.0566  0.3337
   59SAPC  H11B 4443   0.561   5.519   8.419  0.2587 -0.1014  1.3346
   59SAPC     P 4444   0.324   5.380   8.371 -0.0594 -0.3719  0.2935
   59SAPC   O13 4445   0.378   5.255   8.429 -0.5130 -0.1520  0.2101
   59SAPC   O14 4446   0.178   5.368   8.356 -0.6969 -0.2757  0.1571
   59SAPC   O12 4447   0.360   5.502   8.461 -0.0763  0.1892 -1.0103
   59SAPC   O11 4448   0.387   5.411   8.232  0.1919 -0.0391  0.2302
   59SAPC    C1 4449   0.504   5.352   8.177 -0.1782  0.3607 -0.6020
   59SAPC    HA 4450   0.575   5.437   8.169 -1.2214  1.2615 -0.5421
   59SAPC    HB 4451   0.556   5.283   8.247 -1.6439 -1.4084 -1.1605
   59SAPC    C2 4452   0.476   5.281   8.035 -0.5158  0.0077 -0.1929
   59SAPC    HS 4453   0.569   5.293   7.976 -1.5907  1.5592 -1.6467
   59SAPC   O21 4454   0.389   5.357   7.949 -0.2530  0.1787 -0.3914
   59SAPC   C21 4455   0.428   5.480   7.921 -0.9740  0.1379 -0.5047
   59SAPC   O22 4456   0.541   5.523   7.948  0.3216 -0.5103 -0.2035
   59SAPC   C22 4457   0.320   5.560   7.849 -0.3768  0.3017  0.0226
   59SAPC   H2R 4458   0.269   5.620   7.927 -3.1242 -4.1087  2.0022
   59SAPC   H2S 4459   0.374   5.627   7.779  1.5948 -1.3765 -0.1613
   59SAPC    C3 4460   0.424   5.138   8.063  0.0822 -0.5430 -0.5144
   59SAPC    HX 4461   0.363   5.137   8.156 -0.4598 -0.4553 -0.8641
   59SAPC    HY 4462   0.513   5.083   8.100  0.0739  0.8752  1.8037
   59SAPC   O31 4463   0.353   5.074   7.951  0.7734 -0.6817 -0.3478
   59SAPC   C31 4464   0.414   4.990   7.874 -0.4057 -0.1735  0.2262
   59SAPC   O32 4465   0.514   4.920   7.904 -0.1789 -0.5844 -0.7286
   59SAPC   C32 4466   0.337   4.979   7.746  0.0234  0.5476  0.5039
   59SAPC   H2X 4467   0.333   5.083   7.709 -0.6141  0.1520 -0.6003
   59SAPC   H2Y 4468   0.233   4.944   7.766 -0.1180  0.0319 -1.0135
   59SAPC   C23 4469   0.215   5.476   7.769 -0.1218 -0.2990  0.1915
   59SAPC   H3R 4470   0.183   5.387   7.827  0.5704 -0.6047  0.1100
   59SAPC   H3S 4471   0.257   5.437   7.674  1.8603 -2.2708  1.7820
   59SAPC   C24 4472   0.093   5.560   7.731 -0.2952  0.5975  0.0143
   59SAPC   H4R 4473   0.056   5.584   7.833  0.3352 -0.0196  0.3935
   59SAPC   H4S 4474   0.013   5.499   7.684  1.2232 -1.8202  0.4091
   59SAPC   C25 4475   0.118   5.686   7.645 -0.1421  0.6632 -0.2036
   59SAPC   H5R 4476   0.078   5.779   7.689 -2.3978 -0.5573  0.4732
   59SAPC   C26 4477   0.169   5.696   7.519 -0.7228 -0.4282 -0.9389
   59SAPC   H6R 4478   0.182   5.797   7.477  4.1116 -0.0229  0.8311
   59SAPC   C27 4479   0.209   5.595   7.420 -1.1939  0.0389  0.2232
   59SAPC   H7R 4480   0.146   5.593   7.328  0.3215  0.5979 -0.8779
   59SAPC   H7S 4481   0.206   5.490   7.456 -0.1581  0.3601  1.2789
   59SAPC   C28 4482   0.349   5.604   7.369 -0.4616  0.3338 -0.1973
   59SAPC   H8R 4483   0.418   5.644   7.444 -0.1417 -2.0163  0.8513
   59SAPC   C29 4484   0.391   5.578   7.241 -0.3262  0.6580  0.3680
   59SAPC   H9R 4485   0.498   5.589   7.221  0.2860 -0.9668  2.3871
   59SAPC  C210 4486   0.302   5.528   7.126 -0.1066 -0.8012  0.0924
   59SAPC  H10R 4487   0.204   5.489   7.163  0.0542  0.5348  2.0668
   59SAPC  H10S 4488   0.361   5.443   7.086 -0.3219 -0.6840 -0.4730
   59SAPC  C211 4489   0.276   5.635   7.027  0.1657  0.0539  0.2791
   59SAPC  H11R 4490   0.212   5.719   7.060  2.4194  1.8450  0.2792
   59SAPC  C212 4491   0.325   5.640   6.902 -0.0774 -0.5895  0.1187
   59SAPC  H12R 4492   0.309   5.734   6.846  0.7639 -0.8714 -0.6130
   59SAPC  C213 4493   0.416   5.538   6.842  0.2100 -0.8237 -0.2288
   59SAPC  H13R 4494   0.350   5.452   6.820  0.1645 -0.3997 -1.9336
   59SAPC  H13S 4495   0.486   5.497   6.918 -0.6055 -1.8994 -0.0325
   59SAPC  C214 4496   0.483   5.586   6.716  0.2049 -0.2154 -0.0484
   59SAPC  H14R 4497   0.518   5.690   6.723 -0.0198 -0.1207 -0.2695
   59SAPC  C215 4498   0.499   5.520   6.601  0.1219 -0.0123 -0.2114
   59SAPC  H15R 4499   0.554   5.563   6.516 -2.1693  2.3241 -0.6405
   59SAPC  C216 4500   0.459   5.374   6.572 -0.2662 -0.0395  0.1937
   59SAPC  H16R 4501   0.383   5.379   6.491 -1.7890 -2.5315  1.3164
   59SAPC  H16S 4502   0.409   5.323   6.657 -1.3890 -3.1563 -2.1228
   59SAPC  C217 4503   0.582   5.296   6.522 -0.6141 -0.2598 -0.4790
   59SAPC  H17R 4504   0.544   5.194   6.503 -2.1041 -0.1606  1.6089
   59SAPC  H17S 4505   0.647   5.287   6.612 -0.2661 -1.1583 -0.8087
   59SAPC  C218 4506   0.660   5.348   6.409  0.5656 -0.4293  0.6855
   59SAPC  H18R 4507   0.750   5.284   6.396  1.6050  1.0781  0.1631
   59SAPC  H18S 4508   0.699   5.450   6.431  0.8630 -0.1651 -0.9188
   59SAPC  C219 4509   0.581   5.366   6.275  0.3617  0.0641  0.0927
   59SAPC  H19R 4510   0.641   5.432   6.209 -1.4587  3.5549  1.6824
   59SAPC  H19S 4511   0.490   5.421   6.307  0.9308  0.0403  1.8491
   59SAPC  C220 4512   0.534   5.243   6.196 -0.9811 -0.3011 -0.5016
   59SAPC  H20R 4513   0.471   5.185   6.266  0.9081 -0.0427  1.5202
   59SAPC  H20S 4514   0.619   5.176   6.175  0.2288  0.3913  1.8311
   59SAPC  H20T 4515   0.483   5.264   6.099 -1.1161  0.1300 -0.3414
   59SAPC   C33 4516   0.395   4.885   7.634  0.3565  0.2102 -0.1899
   59SAPC   H3X 4517   0.431   4.787   7.674 -2.0782 -1.6538 -2.2777
   59SAPC   H3Y 4518   0.486   4.939   7.600  2.3553 -2.2225  0.8992
   59SAPC   C34 4519   0.285   4.871   7.525 -0.1029 -0.0119 -0.3088
   59SAPC   H4X 4520   0.269   4.975   7.488 -0.1459  0.2191  0.3492
   59SAPC   H4Y 4521   0.193   4.831   7.573  0.2924 -3.2664 -1.9631
   59SAPC   C35 4522   0.318   4.780   7.406  0.0065 -0.3987 -0.3435
   59SAPC   H5X 4523   0.363   4.682   7.432 -2.3682 -1.1106  1.4918
   59SAPC   H5Y 4524   0.394   4.832   7.343 -0.2807 -0.2610 -0.5815
   59SAPC   C36 4525   0.180   4.768   7.326 -0.3720 -0.1053  0.1272
   59SAPC   H6X 4526   0.149   4.869   7.295  1.8029  0.4378 -0.4807
   59SAPC   H6Y 4527   0.107   4.730   7.400  0.2022 -1.8006 -0.1201
   59SAPC   C37 4528   0.212   4.681   7.198 -0.0312 -0.7948  0.0108
   59SAPC   H7X 4529   0.118   4.658   7.143 -0.3952  0.5311  0.0292
   59SAPC   H7Y 4530   0.253   4.584   7.234  0.8719 -1.7733 -3.2884
   59SAPC   C38 4531   0.312   4.741   7.104 -0.2600  0.0287 -0.2742
   59SAPC   H8X 4532   0.421   4.725   7.122 -0.4037  0.3798  1.0269
   59SAPC   H8Y 4533   0.298   4.851   7.099 -1.2164 -0.0991 -0.6554
   59SAPC   C39 4534   0.290   4.693   6.966  0.1678  0.9210  0.0000
   59SAPC   H9X 4535   0.190   4.728   6.935 -0.6848 -0.7672  0.7273
   59SAPC   H9Y 4536   0.270   4.584   6.953  0.0941  1.0484 -1.1084
   59SAPC  C310 4537   0.395   4.748   6.864 -0.3487  0.1379 -0.1358
   59SAPC  H10X 4538   0.486   4.689   6.886 -1.3699 -1.2330  0.5965
   59SAPC  H10Y 4539   0.438   4.849   6.881 -0.2481  0.3850 -1.7328
   59SAPC  C311 4540   0.357   4.743   6.712  0.0711  0.7554 -0.3576
   59SAPC  H11X 4541   0.445   4.776   6.653  0.1604 -1.3202 -1.4765
   59SAPC  H11Y 4542   0.265   4.804   6.696  0.4195  1.4522  0.2313
   59SAPC  C312 4543   0.334   4.601   6.672 -0.0584 -0.0757  0.0542
   59SAPC  H12X 4544   0.249   4.555   6.727  0.2999  0.6220  1.2103
   59SAPC  H12Y 4545   0.422   4.541   6.704 -1.0940 -0.5747  2.1237
   59SAPC  C313 4546   0.304   4.593   6.524  0.6343  0.2954  0.4340
   59SAPC  H13X 4547   0.387   4.641   6.468  2.0620 -1.2781  1.1187
   59SAPC  H13Y 4548   0.204   4.639   6.510  0.6297  0.3911  0.7863
   59SAPC  C314 4549   0.298   4.446   6.480 -0.2604 -0.1259  0.3953
   59SAPC  H14X 4550   0.202   4.397   6.505 -0.3900 -0.7204 -1.1270
   59SAPC  H14Y 4551   0.376   4.393   6.539 -1.3894 -1.1734  0.9807
   59SAPC  C315 4552   0.330   4.451   6.328 -0.6078  0.1413 -1.1621
   59SAPC  H15X 4553   0.420   4.514   6.312 -0.4987  0.2694 -0.0737
   59SAPC  H15Y 4554   0.262   4.507   6.260 -1.3433  1.0367  0.2588
   59SAPC  C316 4555   0.375   4.313   6.271  0.3825  0.9127 -0.7200
   59SAPC  H16X 4556   0.360   4.323   6.161  1.9234 -0.4679 -1.0823
   59SAPC  H16Y 4557   0.303   4.232   6.294 -0.5010  1.9855  0.4073
   59SAPC  C317 4558   0.515   4.265   6.319  0.1179 -0.4627  0.0148
   59SAPC  H17X 4559   0.513   4.155   6.332  0.3752 -0.3474  1.1310
   59SAPC  H17Y 4560   0.533   4.316   6.416  1.7972  1.0966 -1.0517
   59SAPC  C318 4561   0.616   4.311   6.219 -0.2729 -0.2632 -0.0386
   59SAPC  H18X 4562   0.638   4.420   6.216 -0.5776 -0.1949 -2.3850
   59SAPC  H18Y 4563   0.603   4.284   6.112 -2.7183  2.6572 -0.6160
   59SAPC  H18Z 4564   0.712   4.264   6.248  1.5996  1.9583 -2.1549
   60SAPC     N 4565   5.066   6.505   8.502 -0.1791  0.1675  0.5338
   60SAPC   C12 4566   5.093   6.384   8.410 -0.2368  0.2867 -0.2503
   60SAPC  H12A 4567   5.023   6.382   8.327 -0.1975  0.1852 -0.2818
   60SAPC  H12B 4568   5.057   6.297   8.464 -3.1290 -0.1314 -2.5857
   60SAPC   C13 4569   5.100   6.627   8.434  0.0526 -0.6897 -0.8517
   60SAPC  H13A 4570   5.060   6.627   8.333  0.9714 -2.8256 -1.2883
   60SAPC  H13B 4571   5.066   6.714   8.487  0.6129  0.1925 -1.8989
   60SAPC  H13C 4572   5.207   6.628   8.415  0.3235 -1.0956  0.5342
   60SAPC   C14 4573   4.917   6.507   8.543 -0.6009  0.0512  0.6075
   60SAPC  H14A 4574   4.886   6.598   8.593 -0.7462 -0.1586  0.9056
   60SAPC  H14B 4575   4.855   6.499   8.456 -1.0916  1.4331  0.7963
   60SAPC  H14C 4576   4.893   6.433   8.618 -2.1207  0.3804  0.4809
   60SAPC   C15 4577   5.137   6.488   8.628 -0.2365 -0.0305  0.6020
   60SAPC  H15A 4578   5.097   6.419   8.701  1.8609 -0.3923  1.4973
   60SAPC  H15B 4579   5.236   6.450   8.610 -0.4989 -0.3553 -0.1709
   60SAPC  H15C 4580   5.148   6.587   8.671  0.4142  0.1287  0.0821
   60SAPC   C11 4581   5.234   6.356   8.352  0.6443 -0.5776  0.1581
   60SAPC  H11A 4582   5.265   6.443   8.290 -1.7442  2.4285  2.7838
   60SAPC  H11B 4583   5.233   6.264   8.290 -3.0178 -1.1732  0.8665
   60SAPC     P 4584   5.465   6.280   8.427 -0.2282 -0.3222 -0.2269
   60SAPC   O13 4585   5.568   6.344   8.516  0.3789 -0.0436  0.5420
   60SAPC   O14 4586   5.460   6.132   8.427 -0.1735 -0.2410  0.0901
   60SAPC   O12 4587   5.323   6.335   8.461 -0.3291  0.3976 -0.1104
   60SAPC   O11 4588   5.478   6.337   8.278 -0.1838 -0.0180  0.3489
   60SAPC    C1 4589   5.590   6.273   8.204 -0.0109 -0.0830 -0.4030
   60SAPC    HA 4590   5.685   6.309   8.249  0.8041 -3.8672  1.2941
   60SAPC    HB 4591   5.593   6.163   8.224 -0.4789  0.2480  1.6896
   60SAPC    C2 4592   5.595   6.315   8.049 -0.4408  0.5628 -0.3199
   60SAPC    HS 4593   5.634   6.419   8.038 -1.1793  0.9610  0.6609
   60SAPC   O21 4594   5.458   6.299   7.999  0.4273 -0.1667  0.4064
   60SAPC   C21 4595   5.376   6.402   8.020 -0.3637 -0.1758 -0.2064
   60SAPC   O22 4596   5.412   6.506   8.068  0.0563 -0.0489  0.4265
   60SAPC   C22 4597   5.238   6.370   7.960 -0.0034  0.5143 -0.6848
   60SAPC   H2R 4598   5.194   6.304   8.038  1.2016  1.4196  0.8297
   60SAPC   H2S 4599   5.181   6.465   7.965 -0.2708  0.3017  1.0940
   60SAPC    C3 4600   5.686   6.220   7.976 -0.4593  0.3517  0.4266
   60SAPC    HX 4601   5.646   6.118   7.992  3.0425 -1.6123 -2.0200
   60SAPC    HY 4602   5.786   6.210   8.023  1.5652 -1.4126 -3.7904
   60SAPC   O31 4603   5.691   6.251   7.824  0.0716 -0.4424  0.1755
   60SAPC   C31 4604   5.765   6.356   7.802  0.1292 -0.7508 -0.0100
   60SAPC   O32 4605   5.834   6.417   7.881 -0.0482  0.4721 -0.2659
   60SAPC   C32 4606   5.737   6.416   7.672 -0.0036 -0.3821 -0.3582
   60SAPC   H2X 4607   5.790   6.511   7.651 -0.3755 -0.6737 -2.9682
   60SAPC   H2Y 4608   5.628   6.438   7.671 -0.1796 -1.2547 -1.1019
   60SAPC   C23 4609   5.243   6.302   7.825  0.3385  0.8071  0.3233
   60SAPC   H3R 4610   5.142   6.274   7.787  0.9834 -0.8910 -0.2262
   60SAPC   H3S 4611   5.303   6.210   7.837 -0.8964  0.1053  1.3982
   60SAPC   C24 4612   5.293   6.383   7.701 -1.1360 -0.2139 -0.6913
   60SAPC   H4R 4613   5.293   6.304   7.623  0.4902 -1.5272  0.5530
   60SAPC   H4S 4614   5.403   6.398   7.709 -0.9882 -0.6607 -1.7981
   60SAPC   C25 4615   5.221   6.515   7.674  0.4218 -0.3229 -0.3738
   60SAPC   H5R 4616   5.235   6.597   7.746 -1.0448 -1.1965  0.9825
   60SAPC   C26 4617   5.136   6.537   7.572  0.5928 -0.2004  0.2482
   60SAPC   H6R 4618   5.097   6.638   7.551 -0.4954 -0.7995 -0.7252
   60SAPC   C27 4619   5.101   6.425   7.475 -0.3313 -0.0852  0.2864
   60SAPC   H7R 4620   5.003   6.447   7.427  0.8727 -0.5157 -2.5932
   60SAPC   H7S 4621   5.074   6.344   7.547  0.3398 -0.5770 -0.0080
   60SAPC   C28 4622   5.213   6.398   7.373 -0.7000 -0.8824 -0.2975
   60SAPC   H8R 4623   5.301   6.464   7.377 -1.0548 -0.4820  2.8219
   60SAPC   C29 4624   5.197   6.321   7.268  0.2771 -0.3484 -0.3966
   60SAPC   H9R 4625   5.283   6.313   7.200 -0.8115 -3.5257 -1.6022
   60SAPC  C210 4626   5.074   6.247   7.224  0.3322 -0.5372  0.6463
   60SAPC  H10R 4627   4.985   6.312   7.226  0.2846 -0.5685 -0.1091
   60SAPC  H10S 4628   5.035   6.176   7.300 -2.7042 -1.4054 -1.5361
   60SAPC  C211 4629   5.083   6.179   7.089 -0.6519  0.4625  0.0556
   60SAPC  H11R 4630   5.145   6.088   7.092 -0.6924  0.4521  0.6450
   60SAPC  C212 4631   5.018   6.206   6.970 -0.8696  0.1870 -0.0726
   60SAPC  H12R 4632   5.063   6.151   6.887 -0.2893 -1.3528  1.2062
   60SAPC  C213 4633   4.924   6.316   6.939 -0.1410  0.6351  0.3426
   60SAPC  H13R 4634   4.991   6.400   6.911 -0.7659  0.7240 -0.9626
   60SAPC  H13S 4635   4.876   6.349   7.034 -0.4320 -0.2939  0.5286
   60SAPC  C214 4636   4.820   6.312   6.829 -0.3356 -0.2043  0.0012
   60SAPC  H14R 4637   4.714   6.305   6.858 -0.5600  0.0315 -0.7401
   60SAPC  C215 4638   4.838   6.309   6.693 -0.9040  0.0833 -0.1795
   60SAPC  H15R 4639   4.755   6.319   6.621 -0.9203  0.9371 -0.0576
   60SAPC  C216 4640   4.979   6.310   6.630  0.1512 -0.0943 -1.0214
   60SAPC  H16R 4641   5.052   6.347   6.704 -1.5982  2.6531 -0.5392
   60SAPC  H16S 4642   4.980   6.380   6.544 -0.7833  0.0913 -0.8972
   60SAPC  C217 4643   5.014   6.168   6.580  0.3302  0.7827 -0.4387
   60SAPC  H17R 4644   4.998   6.093   6.661  2.0954  0.9911  0.1578
   60SAPC  H17S 4645   5.124   6.160   6.566  0.2438 -0.3561 -0.5796
   60SAPC  C218 4646   4.956   6.136   6.447  0.1601  0.0843 -0.1991
   60SAPC  H18R 4647   5.002   6.211   6.379 -2.1648  0.8350 -1.0627
   60SAPC  H18S 4648   4.846   6.148   6.441  0.1577  0.6752  0.8258
   60SAPC  C219 4649   4.980   5.994   6.400  0.4366  0.4770  0.5884
   60SAPC  H19R 4650   4.902   5.926   6.441 -1.5032 -0.3836 -3.9714
   60SAPC  H19S 4651   5.084   5.961   6.422  0.7751 -1.1109 -2.7371
   60SAPC  C220 4652   4.951   5.979   6.246  0.6770 -0.6910  0.2582
   60SAPC  H20R 4653   5.018   6.039   6.181  0.0987 -0.2212  0.0863
   60SAPC  H20S 4654   4.850   6.019   6.223  0.1912 -1.4250  1.0551
   60SAPC  H20T 4655   4.946   5.870   6.230  2.5862 -0.6148 -1.2929
   60SAPC   C33 4656   5.775   6.313   7.560  0.4931 -0.2042  0.0422
   60SAPC   H3X 4657   5.716   6.222   7.585  0.6530  0.2333  2.1875
   60SAPC   H3Y 4658   5.882   6.291   7.579  0.0201 -0.5842  2.6059
   60SAPC   C34 4659   5.743   6.362   7.425  0.1531  0.6263  0.4247
   60SAPC   H4X 4660   5.794   6.460   7.413  0.7631  0.1713 -0.8698
   60SAPC   H4Y 4661   5.633   6.369   7.407  0.2181  1.1791  0.2297
   60SAPC   C35 4662   5.806   6.264   7.313 -0.3204  0.1533 -0.7894
   60SAPC   H5X 4663   5.768   6.160   7.314  1.1243 -0.4189 -1.8540
   60SAPC   H5Y 4664   5.916   6.268   7.331  0.1156  0.9384 -3.2596
   60SAPC   C36 4665   5.793   6.328   7.174  0.4533  0.1404  0.0006
   60SAPC   H6X 4666   5.820   6.435   7.187 -1.2449  0.8253 -1.6611
   60SAPC   H6Y 4667   5.687   6.336   7.140  0.5984 -1.7422 -1.0637
   60SAPC   C37 4668   5.871   6.259   7.065  1.0422  0.5482  0.1269
   60SAPC   H7X 4669   5.859   6.149   7.068 -1.2063  0.7090  4.0469
   60SAPC   H7Y 4670   5.981   6.270   7.075  1.4798 -2.5209 -0.4719
   60SAPC   C38 4671   5.829   6.322   6.931  0.2255 -0.4350 -0.4134
   60SAPC   H8X 4672   5.831   6.433   6.929  3.3497 -0.4037 -2.6516
   60SAPC   H8Y 4673   5.723   6.297   6.906 -0.0670  1.0371 -0.7562
   60SAPC   C39 4674   5.901   6.291   6.802 -0.4305 -0.0600  0.0440
   60SAPC   H9X 4675   5.874   6.186   6.775 -2.0817  0.4277 -0.3088
   60SAPC   H9Y 4676   6.012   6.293   6.810 -0.4731  1.3644  0.5775
   60SAPC  C310 4677   5.864   6.378   6.686  0.0268 -0.3738  0.0481
   60SAPC  H10X 4678   5.918   6.474   6.698  1.2114 -1.0722  0.5079
   60SAPC  H10Y 4679   5.754   6.391   6.687  0.1048  0.3073  0.1375
   60SAPC  C311 4680   5.895   6.307   6.552  0.6509  0.4034  0.1168
   60SAPC  H11X 4681   5.861   6.202   6.557 -1.4585  0.9727 -1.2075
   60SAPC  H11Y 4682   6.004   6.297   6.530  0.5998 -2.2029  0.7004
   60SAPC  C312 4683   5.805   6.351   6.434 -0.3265  0.2109  0.0435
   60SAPC  H12X 4684   5.845   6.287   6.352 -2.8603 -0.2247 -0.9378
   60SAPC  H12Y 4685   5.825   6.458   6.410  3.5362  0.3976  3.1952
   60SAPC  C313 4686   5.651   6.322   6.441 -0.0708  0.5431 -0.3222
   60SAPC  H13X 4687   5.610   6.411   6.494  0.6875  1.4278 -1.1701
   60SAPC  H13Y 4688   5.616   6.230   6.492 -1.7698  0.9058 -0.7735
   60SAPC  C314 4689   5.589   6.319   6.299 -0.4915 -0.3446  1.0086
   60SAPC  H14X 4690   5.633   6.241   6.233 -3.7093 -2.6410  1.2895
   60SAPC  H14Y 4691   5.599   6.420   6.254  0.7713 -0.9510 -0.1543
   60SAPC  C315 4692   5.445   6.277   6.300  0.5455 -0.1873 -0.7798
   60SAPC  H15X 4693   5.448   6.169   6.326  0.9229  0.1407  0.6811
   60SAPC  H15Y 4694   5.406   6.294   6.198  1.8756 -0.9506 -1.4426
   60SAPC  C316 4695   5.356   6.362   6.398  0.0098 -1.0340  0.1284
   60SAPC  H16X 4696   5.386   6.325   6.499  0.9763  0.4073  0.4023
   60SAPC  H16Y 4697   5.252   6.327   6.381 -0.9607  1.2858  0.8718
   60SAPC  C317 4698   5.351   6.514   6.385  0.3098 -0.2010  0.3295
   60SAPC  H17X 4699   5.458   6.545   6.390 -0.2732  2.3527 -1.1648
   60SAPC  H17Y 4700   5.306   6.560   6.476  0.9065 -0.6653  0.8681
   60SAPC  C318 4701   5.274   6.553   6.261  0.4443 -0.4625 -0.6165
   60SAPC  H18X 4702   5.324   6.511   6.171 -0.5532  2.8446 -2.8987
   60SAPC  H18Y 4703   5.257   6.662   6.250 -2.4614 -0.7670  0.0572
   60SAPC  H18Z 4704   5.174   6.506   6.261 -1.0080  2.3837  0.7596
   61SAPC     N 4705   2.722   5.561   8.493  0.0177  0.5552 -0.3114
   61SAPC   C12 4706   2.730   5.494   8.357 -0.7289 -0.1733 -1.0529
   61SAPC  H12A 4707   2.630   5.456   8.339 -1.0276 -0.0585  0.2494
   61SAPC  H12B 4708   2.803   5.415   8.367  0.0046  0.6453  0.6093
   61SAPC   C13 4709   2.687   5.461   8.598  0.1632 -0.0782 -0.1601
   61SAPC  H13A 4710   2.627   5.379   8.561  1.6839 -0.8701 -0.9830
   61SAPC  H13B 4711   2.775   5.409   8.631  0.1767 -1.2756 -1.9113
   61SAPC  H13C 4712   2.640   5.509   8.682  1.0277 -0.2083  0.4029
   61SAPC   C14 4713   2.836   5.642   8.547 -0.7672 -0.3592  0.1451
   61SAPC  H14A 4714   2.809   5.684   8.643  0.5358 -1.4596  1.0205
   61SAPC  H14B 4715   2.919   5.576   8.562 -0.8994 -0.9009 -1.3500
   61SAPC  H14C 4716   2.857   5.724   8.479 -1.6613  1.8331  2.3392
   61SAPC   C15 4717   2.608   5.659   8.492  0.7459 -0.3942  0.6143
   61SAPC  H15A 4718   2.516   5.605   8.478 -0.4691  1.3554  1.4333
   61SAPC  H15B 4719   2.604   5.719   8.582  4.2424  0.9326  0.0400
   61SAPC  H15C 4720   2.618   5.723   8.406 -2.7965 -1.0371 -0.4568
   61SAPC   C11 4721   2.790   5.578   8.234  0.2746  0.3460 -0.5449
   61SAPC  H11A 4722   2.724   5.667   8.228 -0.5027 -0.1130  0.7289
   61SAPC  H11B 4723   2.774   5.530   8.136 -4.4857  0.4607 -0.0646
   61SAPC     P 4724   3.046   5.532   8.251 -0.0108  0.9138  0.6021
   61SAPC   O13 4725   3.167   5.612   8.272 -0.1732  0.4169 -0.2342
   61SAPC   O14 4726   3.028   5.417   8.345 -0.5312 -0.0092 -0.3868
   61SAPC   O12 4727   2.925   5.628   8.258 -0.3677 -0.4763 -0.3549
   61SAPC   O11 4728   3.042   5.470   8.112  0.6336 -0.2027  0.2788
   61SAPC    C1 4729   3.074   5.537   7.987  0.0771 -0.0875  0.5521
   61SAPC    HA 4730   3.024   5.487   7.901 -1.6226  1.6065  0.4838
   61SAPC    HB 4731   3.043   5.644   7.989  2.0338  0.5248  0.5386
   61SAPC    C2 4732   3.219   5.522   7.949 -0.4707  0.2867 -0.4469
   61SAPC    HS 4733   3.284   5.542   8.037 -0.2349 -2.7380  0.1821
   61SAPC   O21 4734   3.242   5.612   7.839 -0.0510 -0.0196 -0.2099
   61SAPC   C21 4735   3.293   5.729   7.878 -0.2464  0.1299 -0.0552
   61SAPC   O22 4736   3.288   5.771   7.992  0.0678  0.2386  0.1052
   61SAPC   C22 4737   3.390   5.790   7.769 -0.1571 -0.4099  0.0465
   61SAPC   H2R 4738   3.480   5.726   7.757  0.2493  0.1786 -0.0879
   61SAPC   H2S 4739   3.319   5.795   7.684 -1.8738  0.7884  1.4790
   61SAPC    C3 4740   3.265   5.378   7.910  0.9978  0.2753  0.3285
   61SAPC    HX 4741   3.224   5.305   7.983  1.8090 -2.4301 -1.7034
   61SAPC    HY 4742   3.376   5.366   7.913  0.8429 -1.0813  1.5037
   61SAPC   O31 4743   3.218   5.346   7.772 -1.0596 -0.3363  0.1658
   61SAPC   C31 4744   3.180   5.222   7.746 -0.4259 -0.6783 -0.2879
   61SAPC   O32 4745   3.180   5.133   7.829  0.3834  0.2739 -0.1182
   61SAPC   C32 4746   3.128   5.206   7.602 -0.4094 -0.6088 -0.1513
   61SAPC   H2X 4747   3.210   5.234   7.533  0.8101 -3.1335  0.1634
   61SAPC   H2Y 4748   3.036   5.267   7.583  0.1217 -0.0125 -0.8519
   61SAPC   C23 4749   3.428   5.933   7.809 -0.1105 -0.4164  0.4957
   61SAPC   H3R 4750   3.514   5.941   7.879 -0.0805 -0.1833  0.4325
   61SAPC   H3S 4751   3.343   5.990   7.851 -0.3971  0.1914 -0.8706
   61SAPC   C24 4752   3.486   6.013   7.689 -0.4727  0.0049 -0.2114
   61SAPC   H4R 4753   3.576   5.964   7.646  1.1037  2.6067 -0.1188
   61SAPC   H4S 4754   3.521   6.112   7.726  0.0155 -0.9109  1.9314
   61SAPC   C25 4755   3.395   6.033   7.573 -0.0716 -0.6013 -0.5604
   61SAPC   H5R 4756   3.378   5.943   7.513 -1.7275 -1.0193  0.4780
   61SAPC   C26 4757   3.334   6.151   7.533 -0.9369 -0.5990 -0.0557
   61SAPC   H6R 4758   3.259   6.147   7.453 -1.2825  0.8643  0.1582
   61SAPC   C27 4759   3.353   6.284   7.594 -0.1438 -0.3438 -0.2223
   61SAPC   H7R 4760   3.448   6.325   7.554 -0.1830  0.2493  0.2763
   61SAPC   H7S 4761   3.377   6.271   7.701 -1.3054  1.0393  0.2410
   61SAPC   C28 4762   3.242   6.385   7.580 -0.3078  0.5346  0.6496
   61SAPC   H8R 4763   3.165   6.365   7.656 -1.5150 -0.8251 -0.8580
   61SAPC   C29 4764   3.227   6.488   7.490 -0.0886  0.2310  0.0889
   61SAPC   H9R 4765   3.136   6.549   7.491 -0.3676 -0.1514 -0.6731
   61SAPC  C210 4766   3.316   6.514   7.371  0.0443 -0.7816 -0.6076
   61SAPC  H10R 4767   3.268   6.464   7.284 -1.7155  1.3505 -0.9543
   61SAPC  H10S 4768   3.416   6.469   7.388  0.0277 -0.9577 -0.9654
   61SAPC  C211 4769   3.324   6.670   7.355  0.1511  0.4379 -1.2929
   61SAPC  H11R 4770   3.391   6.725   7.423  0.6420  1.6550 -2.7013
   61SAPC  C212 4771   3.259   6.737   7.259 -0.2667  0.3222 -0.2737
   61SAPC  H12R 4772   3.275   6.845   7.243 -2.2924  0.4457 -1.8884
   61SAPC  C213 4773   3.159   6.680   7.156  0.9992  0.7289 -0.5376
   61SAPC  H13R 4774   3.170   6.570   7.146  3.2155  0.7240  1.2415
   61SAPC  H13S 4775   3.184   6.725   7.057  0.3394 -1.9801 -2.0341
   61SAPC  C214 4776   3.023   6.716   7.209  0.0250 -0.2296  0.1688
   61SAPC  H14R 4777   2.978   6.667   7.297  0.2884 -1.5081 -0.3892
   61SAPC  C215 4778   2.936   6.781   7.135 -0.3752 -0.0731 -0.0383
   61SAPC  H15R 4779   2.835   6.790   7.177 -0.3680  0.2016 -0.0778
   61SAPC  C216 4780   2.951   6.842   6.993 -0.1308 -0.5961 -0.2038
   61SAPC  H16R 4781   3.053   6.884   6.984  0.2680 -0.8909  2.2989
   61SAPC  H16S 4782   2.886   6.931   6.977  2.3343  1.4674  0.7119
   61SAPC  C217 4783   2.919   6.738   6.884 -0.5533 -0.5335 -0.1675
   61SAPC  H17R 4784   2.815   6.703   6.906  0.2759 -1.6333  2.3227
   61SAPC  H17S 4785   2.994   6.657   6.892  2.3150  1.7854 -1.6287
   61SAPC  C218 4786   2.934   6.809   6.747 -0.0377 -0.2122  0.4936
   61SAPC  H18R 4787   3.024   6.874   6.751  0.8192 -1.3449  0.1601
   61SAPC  H18S 4788   2.844   6.870   6.726  0.5887 -0.1732 -2.5414
   61SAPC  C219 4789   2.955   6.711   6.634 -0.3975 -0.1829 -0.3019
   61SAPC  H19R 4790   2.871   6.642   6.611  0.0405 -0.1309 -2.2300
   61SAPC  H19S 4791   3.034   6.639   6.661  0.0919  1.0515  1.7511
   61SAPC  C220 4792   3.004   6.773   6.505  0.0322  0.1212  0.3153
   61SAPC  H20R 4793   3.095   6.823   6.544  1.1363 -1.1383 -0.5488
   61SAPC  H20S 4794   2.925   6.843   6.470 -0.9220 -0.0596  2.0187
   61SAPC  H20T 4795   3.019   6.704   6.419 -1.3106  2.3044 -1.8257
   61SAPC   C33 4796   3.093   5.054   7.568 -0.3740 -0.4308 -0.2250
   61SAPC   H3X 4797   2.990   5.027   7.597 -1.4524  2.2647 -1.1928
   61SAPC   H3Y 4798   3.146   4.982   7.634 -1.2563 -0.4183  0.5023
   61SAPC   C34 4799   3.127   5.011   7.423 -0.2924 -0.8498 -0.1722
   61SAPC   H4X 4800   3.070   5.072   7.350 -0.0172 -0.3316  0.0379
   61SAPC   H4Y 4801   3.107   4.904   7.402  0.0792 -0.9517 -0.0067
   61SAPC   C35 4802   3.276   5.032   7.377 -0.2013  0.2609 -0.0760
   61SAPC   H5X 4803   3.331   4.977   7.456 -1.6937 -1.0829  0.0752
   61SAPC   H5Y 4804   3.300   5.141   7.380 -1.4167  0.5458 -0.1286
   61SAPC   C36 4805   3.298   4.981   7.236  0.1771 -0.6260  0.5859
   61SAPC   H6X 4806   3.273   4.873   7.238 -0.5649 -0.4499  2.5349
   61SAPC   H6Y 4807   3.402   5.007   7.207 -0.2342  2.3733  1.4955
   61SAPC   C37 4808   3.214   5.053   7.130 -0.0559  0.2748  0.1163
   61SAPC   H7X 4809   3.246   5.156   7.102 -1.6628  0.9092  0.5280
   61SAPC   H7Y 4810   3.105   5.067   7.141  0.0802  1.4797  0.0328
   61SAPC   C38 4811   3.223   4.971   6.997 -0.0569  0.8112 -0.5488
   61SAPC   H8X 4812   3.149   5.003   6.921  0.2748 -1.6506 -2.0166
   61SAPC   H8Y 4813   3.198   4.866   7.023 -0.4522  1.0144 -0.0948
   61SAPC   C39 4814   3.364   4.977   6.938 -0.3128 -0.6247  0.4447
   61SAPC   H9X 4815   3.432   4.932   7.013  1.0867  1.5847  0.5639
   61SAPC   H9Y 4816   3.395   5.082   6.920 -0.7930 -0.5615 -0.0408
   61SAPC  C310 4817   3.381   4.907   6.804 -0.0302 -0.2330 -0.6084
   61SAPC  H10X 4818   3.337   4.805   6.794 -1.0694  0.2441 -1.1175
   61SAPC  H10Y 4819   3.491   4.905   6.792 -0.0267 -0.2571 -0.5730
   61SAPC  C311 4820   3.342   4.993   6.676  0.5038 -0.1550  0.7257
   61SAPC  H11X 4821   3.412   5.079   6.683  1.0992 -0.6484  0.9016
   61SAPC  H11Y 4822   3.236   5.026   6.685  1.2338  1.8301  3.2658
   61SAPC  C312 4823   3.359   4.919   6.546  0.3133  0.0361 -0.4209
   61SAPC  H12X 4824   3.300   4.825   6.558  1.6490 -0.8677 -0.7544
   61SAPC  H12Y 4825   3.463   4.886   6.527  1.2187  1.8739  1.0831
   61SAPC  C313 4826   3.330   5.002   6.423  0.6136 -0.5772  0.6204
   61SAPC  H13X 4827   3.402   5.087   6.426  0.8617 -0.7864  3.2304
   61SAPC  H13Y 4828   3.227   5.043   6.430  0.5285 -0.9023  1.3523
   61SAPC  C314 4829   3.353   4.943   6.289 -0.0783  0.1945 -0.1609
   61SAPC  H14X 4830   3.278   4.863   6.270  0.6064 -0.2245 -1.2348
   61SAPC  H14Y 4831   3.452   4.894   6.303 -0.5127  0.2201  4.2667
   61SAPC  C315 4832   3.342   5.044   6.167 -0.5145  0.0941 -0.2145
   61SAPC  H15X 4833   3.420   5.122   6.175 -0.9702  0.9045 -2.8051
   61SAPC  H15Y 4834   3.249   5.103   6.178 -0.1936  0.5159  0.2386
   61SAPC  C316 4835   3.341   4.988   6.023  0.2982 -0.1697  0.0478
   61SAPC  H16X 4836   3.307   5.069   5.955 -2.4800 -0.0098  1.4703
   61SAPC  H16Y 4837   3.262   4.910   6.015  0.7584 -0.5208 -1.1388
   61SAPC  C317 4838   3.482   4.944   5.982 -0.3386 -0.6328 -0.1660
   61SAPC  H17X 4839   3.483   4.873   5.897  2.0027 -1.8574  0.7969
   61SAPC  H17Y 4840   3.533   4.884   6.060  3.6022  1.4912 -0.8304
   61SAPC  C318 4841   3.570   5.065   5.950  0.6656  0.8024  0.2794
   61SAPC  H18X 4842   3.586   5.137   6.032  1.8347 -0.5928  1.3395
   61SAPC  H18Y 4843   3.533   5.121   5.862 -3.1316 -1.3738  0.2690
   61SAPC  H18Z 4844   3.667   5.016   5.926  0.3751 -0.0270  0.7760
   62SAPC     N 4845   1.157   4.218   8.490  0.1077  0.3674  0.6670
   62SAPC   C12 4846   1.183   4.080   8.567 -0.0189 -0.1132 -0.0515
   62SAPC  H12A 4847   1.104   4.012   8.538  1.6413 -1.4222 -1.7254
   62SAPC  H12B 4848   1.180   4.098   8.674  0.1212 -0.3808 -0.0006
   62SAPC   C13 4849   1.154   4.194   8.344 -0.4881 -0.3831 -0.6102
   62SAPC  H13A 4850   1.130   4.285   8.290 -0.7284  0.0612  0.2208
   62SAPC  H13B 4851   1.254   4.163   8.319  0.3685  1.9276 -0.3110
   62SAPC  H13C 4852   1.088   4.114   8.315 -0.5817 -0.3977 -0.3558
   62SAPC   C14 4853   1.015   4.267   8.523 -0.0159 -0.3621 -0.0939
   62SAPC  H14A 4854   0.948   4.188   8.493  2.2212 -1.6797 -2.0413
   62SAPC  H14B 4855   0.995   4.288   8.627  0.0955 -0.5450 -0.0350
   62SAPC  H14C 4856   0.986   4.352   8.463 -0.4465 -1.1925 -1.0922
   62SAPC   C15 4857   1.250   4.331   8.522  0.0496 -0.2470 -0.4217
   62SAPC  H15A 4858   1.227   4.366   8.622 -3.4477 -0.6977 -0.9520
   62SAPC  H15B 4859   1.356   4.310   8.519  0.3075  0.9093 -0.0914
   62SAPC  H15C 4860   1.232   4.416   8.457 -1.0018  0.0617  0.2460
   62SAPC   C11 4861   1.316   4.008   8.524  0.1479  0.5557  0.0714
   62SAPC  H11A 4862   1.348   3.931   8.597  1.2420 -0.7480 -1.7050
   62SAPC  H11B 4863   1.388   4.092   8.513 -0.6190  1.0763 -1.2977
   62SAPC     P 4864   1.239   3.799   8.397  0.2593  0.2917 -0.1072
   62SAPC   O13 4865   1.319   3.697   8.470  0.1120  0.3365 -0.5548
   62SAPC   O14 4866   1.098   3.810   8.445 -0.2243  0.0116 -0.1722
   62SAPC   O12 4867   1.293   3.946   8.392 -0.6439  0.4448 -0.1388
   62SAPC   O11 4868   1.233   3.751   8.248  0.2259 -0.3534 -0.0983
   62SAPC    C1 4869   1.177   3.842   8.155 -0.2765  0.7455  0.1478
   62SAPC    HA 4870   1.085   3.883   8.201  0.4442  1.3297  1.1158
   62SAPC    HB 4871   1.244   3.930   8.137 -0.7329  1.1590  0.4508
   62SAPC    C2 4872   1.147   3.766   8.025 -0.1088  0.4671  0.4762
   62SAPC    HS 4873   1.088   3.676   8.055  0.0951 -0.0301 -0.5764
   62SAPC   O21 4874   1.260   3.719   7.956  0.5946 -0.2976  0.3030
   62SAPC   C21 4875   1.279   3.593   7.966 -0.1339  0.3335  0.5644
   62SAPC   O22 4876   1.216   3.509   8.025  0.0642  0.0627 -0.0533
   62SAPC   C22 4877   1.411   3.566   7.890  0.1788 -0.1371  0.1970
   62SAPC   H2R 4878   1.407   3.600   7.785  0.8989  0.4351  0.3418
   62SAPC   H2S 4879   1.474   3.643   7.940 -3.5269  4.1602 -1.1385
   62SAPC    C3 4880   1.063   3.851   7.926 -0.8257 -0.0286 -0.8558
   62SAPC    HX 4881   1.105   3.954   7.923  1.3899 -0.8450 -0.2842
   62SAPC    HY 4882   0.965   3.866   7.976 -0.7781  0.0429 -0.7805
   62SAPC   O31 4883   1.056   3.782   7.800 -0.1236 -0.0139 -0.4629
   62SAPC   C31 4884   1.145   3.815   7.713 -0.7073  0.2624 -0.0853
   62SAPC   O32 4885   1.217   3.912   7.718  0.3290 -0.1601  0.9012
   62SAPC   C32 4886   1.154   3.717   7.595 -0.2235  0.2040  0.3637
   62SAPC   H2X 4887   1.082   3.637   7.620  0.7903 -0.2794  1.8928
   62SAPC   H2Y 4888   1.258   3.677   7.593 -0.7272 -1.1449 -0.1327
   62SAPC   C23 4889   1.459   3.426   7.890 -0.5437 -0.0379  0.2816
   62SAPC   H3R 4890   1.380   3.348   7.879  1.7540 -2.1409 -3.1144
   62SAPC   H3S 4891   1.488   3.405   7.995 -0.4835 -0.1462  0.2441
   62SAPC   C24 4892   1.575   3.419   7.787 -0.2635  0.1488  0.1577
   62SAPC   H4R 4893   1.640   3.507   7.804  1.5405 -0.8644 -1.1906
   62SAPC   H4S 4894   1.543   3.443   7.684 -0.3498 -0.3796  0.0540
   62SAPC   C25 4895   1.657   3.292   7.803 -0.2224  0.4316 -0.6435
   62SAPC   H5R 4896   1.672   3.262   7.908 -0.2509  0.9634 -0.4849
   62SAPC   C26 4897   1.699   3.216   7.702  0.0020  0.7146  1.0675
   62SAPC   H6R 4898   1.758   3.125   7.722  0.2826  0.9008  1.0825
   62SAPC   C27 4899   1.677   3.242   7.555 -0.2033  0.4350 -0.3107
   62SAPC   H7R 4900   1.681   3.353   7.546  0.9839  0.3265 -1.3726
   62SAPC   H7S 4901   1.572   3.212   7.532 -0.0267  0.7424 -1.6379
   62SAPC   C28 4902   1.781   3.184   7.459 -0.3468 -0.9585  0.6024
   62SAPC   H8R 4903   1.846   3.102   7.491  2.6422  0.8867 -0.3418
   62SAPC   C29 4904   1.796   3.222   7.327 -0.2017  0.0502  0.1166
   62SAPC   H9R 4905   1.856   3.165   7.255  1.9757  2.7667 -0.3675
   62SAPC  C210 4906   1.718   3.339   7.266 -0.1629 -0.0775  0.2889
   62SAPC  H10R 4907   1.790   3.398   7.205 -2.6718 -0.4577 -3.4069
   62SAPC  H10S 4908   1.694   3.404   7.353  1.6722 -0.4400  1.1002
   62SAPC  C211 4909   1.606   3.302   7.171 -0.0609 -0.1847 -1.1584
   62SAPC  H11R 4910   1.506   3.328   7.208  1.1733 -0.0174  2.5533
   62SAPC  C212 4911   1.631   3.273   7.039  0.1247  0.4563 -0.5614
   62SAPC  H12R 4912   1.544   3.237   6.982  0.9231 -0.1691 -1.3944
   62SAPC  C213 4913   1.777   3.249   6.983  0.2222  0.4232  0.2936
   62SAPC  H13R 4914   1.857   3.222   7.055  0.4617 -4.0255 -1.3010
   62SAPC  H13S 4915   1.815   3.341   6.935 -2.3309  1.1508 -0.4849
   62SAPC  C214 4916   1.768   3.124   6.893 -0.3899 -0.5574 -0.5438
   62SAPC  H14R 4917   1.727   3.030   6.932 -0.9112 -1.5515 -3.2891
   62SAPC  C215 4918   1.790   3.124   6.758 -0.8991 -0.0757  0.2497
   62SAPC  H15R 4919   1.791   3.027   6.707 -0.3145 -0.3093  0.6902
   62SAPC  C216 4920   1.850   3.247   6.683  0.1425 -0.7737  0.3800
   62SAPC  H16R 4921   1.917   3.206   6.603  1.2319 -1.0155  1.3836
   62SAPC  H16S 4922   1.920   3.316   6.734  3.2543 -1.3291 -2.6645
   62SAPC  C217 4923   1.749   3.326   6.601  0.2563 -0.1889  0.4336
   62SAPC  H17R 4924   1.692   3.253   6.539 -0.6749  1.6965 -1.0274
   62SAPC  H17S 4925   1.801   3.383   6.521 -1.7727  1.9801  0.5695
   62SAPC  C218 4926   1.641   3.410   6.674 -0.3808  0.7658 -0.5996
   62SAPC  H18R 4927   1.689   3.483   6.742 -1.9963  0.8961  0.4618
   62SAPC  H18S 4928   1.576   3.346   6.738  0.0593  1.0556  0.1470
   62SAPC  C219 4929   1.543   3.474   6.573 -0.5385 -0.5976  0.2154
   62SAPC  H19R 4930   1.499   3.387   6.521  0.3955 -0.1757 -1.3553
   62SAPC  H19S 4931   1.597   3.538   6.500 -1.3755 -3.4660 -3.2071
   62SAPC  C220 4932   1.429   3.548   6.642 -0.0819  0.2029 -0.6933
   62SAPC  H20R 4933   1.362   3.596   6.567 -0.1902  2.5269  0.7787
   62SAPC  H20S 4934   1.475   3.634   6.695 -0.8927 -0.7979  1.7238
   62SAPC  H20T 4935   1.369   3.479   6.705  0.5962  1.3689  1.3174
   62SAPC   C33 4936   1.124   3.771   7.454  0.0257  0.0308 -0.2855
   62SAPC   H3X 4937   1.178   3.699   7.388  0.8875 -1.3701  1.8533
   62SAPC   H3Y 4938   1.160   3.876   7.443 -0.8900  0.2287 -1.8522
   62SAPC   C34 4939   0.973   3.774   7.421 -0.2609 -0.3355 -0.2481
   62SAPC   H4X 4940   0.917   3.790   7.515 -0.0356  1.6394 -0.4055
   62SAPC   H4Y 4941   0.939   3.676   7.382 -0.9860 -0.3654  0.4476
   62SAPC   C35 4942   0.943   3.884   7.307 -0.1255  0.2414 -0.1239
   62SAPC   H5X 4943   1.019   3.889   7.227  1.0666 -0.5777  0.9212
   62SAPC   H5Y 4944   0.921   3.984   7.349 -2.7501 -0.2825 -0.0637
   62SAPC   C36 4945   0.809   3.850   7.245 -0.6342  0.3786 -0.4072
   62SAPC   H6X 4946   0.731   3.860   7.324 -0.4127 -1.7763  0.1418
   62SAPC   H6Y 4947   0.806   3.744   7.212 -1.1840 -0.3842  1.8844
   62SAPC   C37 4948   0.767   3.943   7.127 -0.1233  0.2949  0.1243
   62SAPC   H7X 4949   0.848   3.986   7.065  1.2338 -1.6521  0.4739
   62SAPC   H7Y 4950   0.707   4.032   7.157 -2.0992 -1.1622  0.7680
   62SAPC   C38 4951   0.667   3.871   7.038  0.6457  1.1952 -0.1632
   62SAPC   H8X 4952   0.602   3.949   6.994  0.2256  0.6982 -0.4397
   62SAPC   H8Y 4953   0.601   3.815   7.109 -0.1764 -0.7864 -2.3486
   62SAPC   C39 4954   0.727   3.776   6.926 -0.3698 -0.0324 -0.3976
   62SAPC   H9X 4955   0.782   3.696   6.980 -1.5912  1.0425  2.6693
   62SAPC   H9Y 4956   0.792   3.834   6.857  0.0065 -1.4904 -1.3019
   62SAPC  C310 4957   0.624   3.713   6.829 -0.2929  0.5790 -0.3370
   62SAPC  H10X 4958   0.570   3.805   6.796 -0.5398  0.5636  0.0156
   62SAPC  H10Y 4959   0.553   3.647   6.883 -0.1654  1.2149  0.6310
   62SAPC  C311 4960   0.686   3.636   6.707 -0.5414 -0.1318  0.9861
   62SAPC  H11X 4961   0.722   3.538   6.744 -0.6854 -1.0214 -1.1365
   62SAPC  H11Y 4962   0.770   3.694   6.662 -1.2231  1.0389  1.1595
   62SAPC  C312 4963   0.574   3.602   6.605 -0.0493  0.6983  0.1715
   62SAPC  H12X 4964   0.530   3.700   6.575  1.1415  0.9008 -1.0103
   62SAPC  H12Y 4965   0.496   3.540   6.654  1.0548 -1.0523 -0.2101
   62SAPC  C313 4966   0.641   3.528   6.488 -0.6489 -0.7250 -0.4065
   62SAPC  H13X 4967   0.673   3.428   6.523  0.9744  0.3405  1.3920
   62SAPC  H13Y 4968   0.720   3.597   6.451 -1.1513 -0.0094 -0.1808
   62SAPC  C314 4969   0.540   3.501   6.373 -0.0962 -1.3005  0.0582
   62SAPC  H14X 4970   0.530   3.601   6.325 -0.1206 -2.7180 -3.1661
   62SAPC  H14Y 4971   0.439   3.475   6.411 -0.6866 -0.2530 -0.7597
   62SAPC  C315 4972   0.601   3.405   6.278 -0.4192  0.0327  0.8166
   62SAPC  H15X 4973   0.522   3.337   6.241  1.5561 -0.6602 -2.4687
   62SAPC  H15Y 4974   0.679   3.333   6.310  0.7943 -0.2996 -2.4893
   62SAPC  C316 4975   0.650   3.462   6.139  0.9836 -0.4744  0.0357
   62SAPC  H16X 4976   0.721   3.545   6.157 -1.1149  1.5987 -0.6922
   62SAPC  H16Y 4977   0.555   3.495   6.093 -0.6994 -3.6656  0.9105
   62SAPC  C317 4978   0.735   3.361   6.063 -0.1086 -0.0310 -0.3090
   62SAPC  H17X 4979   0.813   3.329   6.135  1.4871  1.2295 -1.4216
   62SAPC  H17Y 4980   0.785   3.413   5.979  1.8158  3.2853  2.6336
   62SAPC  C318 4981   0.648   3.240   6.020 -0.0031  0.1166  0.2236
   62SAPC  H18X 4982   0.605   3.182   6.104  0.2804 -1.7890 -0.8846
   62SAPC  H18Y 4983   0.711   3.179   5.952 -1.2001  1.6620 -2.4742
   62SAPC  H18Z 4984   0.565   3.264   5.950 -2.6502  1.0836  3.4580
   63SAPC     N 4985   5.796   5.368   8.344  0.4520 -0.1973  0.2772
   63SAPC   C12 4986   5.848   5.482   8.437  0.3059 -0.4280 -0.1759
   63SAPC  H12A 4987   5.843   5.466   8.543 -1.3921  1.0517  0.0040
   63SAPC  H12B 4988   5.781   5.562   8.412 -0.1004 -0.9125 -0.6702
   63SAPC   C13 4989   5.851   5.237   8.380  0.1832  0.3984  0.0439
   63SAPC  H13A 4990   5.806   5.220   8.477  2.1148  0.2379  0.9695
   63SAPC  H13B 4991   5.818   5.149   8.326 -2.4040 -1.0117  3.5081
   63SAPC  H13C 4992   5.959   5.235   8.380  0.2089 -1.8523 -1.1514
   63SAPC   C14 4993   5.643   5.355   8.360 -0.7227 -0.2538  0.2259
   63SAPC  H14A 4994   5.607   5.275   8.298  1.4771 -0.3215 -1.0662
   63SAPC  H14B 4995   5.630   5.331   8.465 -1.2950 -0.2669  0.1517
   63SAPC  H14C 4996   5.595   5.449   8.337  1.5594  1.0162  0.3671
   63SAPC   C15 4997   5.835   5.394   8.208  0.0310 -0.3173  0.7107
   63SAPC  H15A 4998   5.941   5.413   8.207 -0.1913  1.0724  1.4456
   63SAPC  H15B 4999   5.811   5.316   8.136 -4.6558  0.0433  1.5472
   63SAPC  H15C 5000   5.783   5.480   8.168  0.2906 -0.8731 -0.9076
   63SAPC   C11 5001   5.990   5.544   8.406  0.8674 -0.1441 -0.4902
   63SAPC  H11A 5002   5.965   5.624   8.333 -0.6182  0.3023  0.4650
   63SAPC  H11B 5003   6.062   5.467   8.370  1.0213 -0.5129  0.5685
   63SAPC     P 5004   6.181   5.646   8.551 -0.2347 -0.1539 -0.1151
   63SAPC   O13 5005   6.196   5.717   8.682 -0.2978  0.5578  0.6173
   63SAPC   O14 5006   6.254   5.516   8.544 -0.6393  0.5306  0.0500
   63SAPC   O12 5007   6.024   5.611   8.530  0.1643 -0.9261  0.4910
   63SAPC   O11 5008   6.231   5.735   8.431  0.3337 -1.0106 -0.1920
   63SAPC    C1 5009   6.173   5.858   8.402  0.5500  0.5141  0.4715
   63SAPC    HA 5010   6.064   5.855   8.425 -0.4666 -0.4784 -3.6517
   63SAPC    HB 5011   6.212   5.945   8.459  1.3990 -1.7769  3.7240
   63SAPC    C2 5012   6.167   5.890   8.244  0.1572 -0.7003 -0.1468
   63SAPC    HS 5013   6.160   6.001   8.241  1.8669 -0.5516  0.3303
   63SAPC   O21 5014   6.058   5.830   8.186  0.0399  0.5252  0.8142
   63SAPC   C21 5015   5.944   5.894   8.163 -0.4849  0.2575  0.7130
   63SAPC   O22 5016   5.915   6.008   8.188 -0.3799 -0.3027 -0.4259
   63SAPC   C22 5017   5.845   5.801   8.101 -0.1433 -0.2418 -0.6698
   63SAPC   H2R 5018   5.805   5.737   8.183 -0.4677  2.1361  1.1412
   63SAPC   H2S 5019   5.761   5.867   8.069 -0.7221 -0.8845 -0.4986
   63SAPC    C3 5020   6.292   5.851   8.168  0.3110 -0.5098  0.1945
   63SAPC    HX 5021   6.317   5.743   8.176 -0.8889 -0.8314 -0.2491
   63SAPC    HY 5022   6.367   5.915   8.219 -1.3684  0.2938  1.7630
   63SAPC   O31 5023   6.281   5.882   8.028  0.1193  0.3627 -0.4441
   63SAPC   C31 5024   6.293   6.003   7.997 -0.2324 -0.0637 -0.0682
   63SAPC   O32 5025   6.319   6.096   8.075 -0.1491 -0.1838 -0.6371
   63SAPC   C32 5026   6.282   6.006   7.848  0.5346  0.8442  0.0199
   63SAPC   H2X 5027   6.357   5.934   7.809 -0.4199  0.0583 -0.3910
   63SAPC   H2Y 5028   6.305   6.106   7.804  0.5469  0.3400 -1.1580
   63SAPC   C23 5029   5.904   5.714   7.984 -0.3525 -0.0875 -0.8287
   63SAPC   H3R 5030   5.968   5.635   8.030 -1.2466 -0.9349 -1.0134
   63SAPC   H3S 5031   5.979   5.780   7.936  0.6933 -0.4888  0.1991
   63SAPC   C24 5032   5.797   5.674   7.878  0.0352  0.1897  0.5580
   63SAPC   H4R 5033   5.769   5.756   7.808  1.9524 -0.7633 -1.4415
   63SAPC   H4S 5034   5.708   5.635   7.932 -0.8353 -1.8237 -2.0829
   63SAPC   C25 5035   5.842   5.558   7.785  0.1784 -0.1810 -0.1293
   63SAPC   H5R 5036   5.819   5.462   7.835 -0.3506 -0.2440 -0.4857
   63SAPC   C26 5037   5.885   5.565   7.659  0.6993 -0.2170 -0.0906
   63SAPC   H6R 5038   5.912   5.477   7.598  0.5789 -0.3582  0.0600
   63SAPC   C27 5039   5.909   5.700   7.594  0.6456  0.1541  0.0409
   63SAPC   H7R 5040   5.991   5.691   7.519 -1.3024  2.3935 -2.5796
   63SAPC   H7S 5041   5.952   5.774   7.665 -1.3527  0.4391  1.0280
   63SAPC   C28 5042   5.781   5.750   7.521 -0.6657  0.0042 -1.0591
   63SAPC   H8R 5043   5.687   5.754   7.579  0.1324  0.5792  0.2531
   63SAPC   C29 5044   5.778   5.788   7.391  0.7866  0.0123 -0.1029
   63SAPC   H9R 5045   5.681   5.813   7.348  0.6937  0.6967  0.4802
   63SAPC  C210 5046   5.886   5.784   7.289  0.3524  0.6272 -0.1839
   63SAPC  H10R 5047   5.973   5.743   7.344  1.8332  3.0362 -0.5606
   63SAPC  H10S 5048   5.919   5.885   7.257  0.5286  0.6340  0.0180
   63SAPC  C211 5049   5.834   5.695   7.179  0.3145  0.7940  1.0353
   63SAPC  H11R 5050   5.766   5.610   7.196 -0.5821  1.1002 -0.7244
   63SAPC  C212 5051   5.862   5.725   7.044 -0.1268  0.7120 -0.5201
   63SAPC  H12R 5052   5.801   5.671   6.971 -1.0452  2.1845 -0.8553
   63SAPC  C213 5053   5.959   5.831   7.001 -0.4362  0.1820 -0.7389
   63SAPC  H13R 5054   5.973   5.910   7.077  0.3593 -0.8905  0.2726
   63SAPC  H13S 5055   5.916   5.872   6.907 -0.3266 -0.0835 -0.9056
   63SAPC  C214 5056   6.096   5.767   6.983 -0.5581 -0.0352 -0.1500
   63SAPC  H14R 5057   6.122   5.717   7.078 -0.3999  0.2843 -0.0221
   63SAPC  C215 5058   6.181   5.769   6.880  0.5725  0.0046 -0.9664
   63SAPC  H15R 5059   6.279   5.720   6.895  0.6265  0.5603  0.6485
   63SAPC  C216 5060   6.160   5.833   6.749 -0.4155  0.3333  0.1685
   63SAPC  H16R 5061   6.052   5.822   6.725 -0.0264 -2.5548 -0.6092
   63SAPC  H16S 5062   6.212   5.775   6.670  0.8577 -0.1414  1.3272
   63SAPC  C217 5063   6.202   5.986   6.732  0.6411 -0.1909  0.2355
   63SAPC  H17R 5064   6.307   5.990   6.768  0.3171  0.3499  1.1801
   63SAPC  H17S 5065   6.142   6.048   6.803  1.9225  2.1905 -0.6450
   63SAPC  C218 5066   6.203   6.030   6.585 -0.5469 -0.1146 -0.2974
   63SAPC  H18R 5067   6.096   6.021   6.557 -1.3248  0.3276  2.2735
   63SAPC  H18S 5068   6.262   5.962   6.519  1.1007  2.9946 -2.3277
   63SAPC  C219 5069   6.259   6.172   6.572  0.5230  0.3492 -0.0340
   63SAPC  H19R 5070   6.204   6.249   6.630 -1.2493 -1.2372  0.4798
   63SAPC  H19S 5071   6.228   6.203   6.469 -1.0485 -0.0418  0.2882
   63SAPC  C220 5072   6.410   6.197   6.593  0.1917 -0.4741 -0.2532
   63SAPC  H20R 5073   6.456   6.153   6.684 -0.1038  0.4968  0.3887
   63SAPC  H20S 5074   6.447   6.300   6.572 -0.7707  0.1838  1.1544
   63SAPC  H20T 5075   6.457   6.134   6.515 -0.2187 -0.2880 -0.6526
   63SAPC   C33 5076   6.143   5.961   7.788  0.4533 -0.0870 -0.4721
   63SAPC   H3X 5077   6.061   5.994   7.855  2.1644  1.3246  1.0214
   63SAPC   H3Y 5078   6.142   5.850   7.784  3.2397 -0.2216  0.5269
   63SAPC   C34 5079   6.100   6.018   7.652  0.3611 -0.4566  0.1132
   63SAPC   H4X 5080   6.067   6.124   7.652  2.8506  0.3849 -0.7211
   63SAPC   H4Y 5081   6.005   5.968   7.624 -1.1584  0.4691  3.1386
   63SAPC   C35 5082   6.209   5.997   7.545 -0.9556 -0.1790 -0.4761
   63SAPC   H5X 5083   6.225   5.888   7.537  0.7605 -0.0444  0.6207
   63SAPC   H5Y 5084   6.303   6.051   7.568 -2.7941  2.4697  1.4998
   63SAPC   C36 5085   6.152   6.054   7.419 -0.6697 -0.0605  0.6350
   63SAPC   H6X 5086   6.116   6.157   7.436  0.9628  0.8663 -1.1429
   63SAPC   H6Y 5087   6.062   5.997   7.388  0.2139 -0.4728 -1.3747
   63SAPC   C37 5088   6.262   6.046   7.313  0.5130  0.1175  0.3304
   63SAPC   H7X 5089   6.279   5.939   7.287  0.2014  0.4064 -1.1711
   63SAPC   H7Y 5090   6.361   6.087   7.345  0.6702 -1.5615  2.2382
   63SAPC   C38 5091   6.214   6.104   7.179 -0.4339 -0.1349 -0.2047
   63SAPC   H8X 5092   6.235   6.212   7.192 -2.1191  0.2616 -0.5997
   63SAPC   H8Y 5093   6.106   6.087   7.157 -0.1195 -1.6696 -0.6918
   63SAPC   C39 5094   6.299   6.048   7.055  0.5178 -0.5613 -0.1673
   63SAPC   H9X 5095   6.289   6.122   6.972  2.4715 -0.9942 -0.8581
   63SAPC   H9Y 5096   6.256   5.949   7.030  2.2538 -1.7535  1.2770
   63SAPC  C310 5097   6.444   6.013   7.074  1.0779  0.4068 -0.5694
   63SAPC  H10X 5098   6.488   5.956   6.989  0.8779  0.5519 -0.7731
   63SAPC  H10Y 5099   6.452   5.954   7.167 -1.5437  2.2987  1.0231
   63SAPC  C311 5100   6.529   6.143   7.076 -0.8705 -0.4915  0.1158
   63SAPC  H11X 5101   6.631   6.105   7.095 -0.5626  0.4265  0.3318
   63SAPC  H11Y 5102   6.499   6.219   7.151 -2.2769 -0.1640 -0.7328
   63SAPC  C312 5103   6.537   6.214   6.935  0.9897  0.7135 -0.7314
   63SAPC  H12X 5104   6.435   6.258   6.928  0.1650 -0.6143  1.7916
   63SAPC  H12Y 5105   6.549   6.130   6.863  1.7362  1.0416 -0.9972
   63SAPC  C313 5106   6.633   6.333   6.924  0.5703  0.8349 -0.6378
   63SAPC  H13X 5107   6.618   6.392   7.017  0.1275 -1.0711  0.5553
   63SAPC  H13Y 5108   6.595   6.380   6.831  0.1296  0.6715 -0.5449
   63SAPC  C314 5109   6.774   6.283   6.925  0.4118  0.1132 -0.2872
   63SAPC  H14X 5110   6.794   6.234   7.023 -3.9502 -1.6813 -0.0727
   63SAPC  H14Y 5111   6.838   6.374   6.922  0.1517  0.4327  2.2096
   63SAPC  C315 5112   6.796   6.196   6.801 -0.5666  0.0805 -0.0704
   63SAPC  H15X 5113   6.751   6.096   6.817 -0.4222  0.1207  0.6083
   63SAPC  H15Y 5114   6.907   6.193   6.796 -0.6087  0.0946 -1.2400
   63SAPC  C316 5115   6.757   6.267   6.658 -0.1572  0.0714 -0.3964
   63SAPC  H16X 5116   6.789   6.373   6.664  0.1724 -0.0207 -0.4913
   63SAPC  H16Y 5117   6.646   6.272   6.665 -0.0024  1.1107  2.7979
   63SAPC  C317 5118   6.810   6.183   6.545  0.3822  0.1418  0.0543
   63SAPC  H17X 5119   6.757   6.086   6.532 -0.1234  0.4407 -0.1500
   63SAPC  H17Y 5120   6.918   6.170   6.565  0.6937  0.3406 -1.4152
   63SAPC  C318 5121   6.784   6.262   6.407  0.3302 -0.4438  0.7508
   63SAPC  H18X 5122   6.824   6.365   6.408  0.1020 -0.3540  0.4222
   63SAPC  H18Y 5123   6.675   6.273   6.389  0.7604  2.9652 -0.3043
   63SAPC  H18Z 5124   6.839   6.217   6.322  0.0839 -0.3957  0.5649
   64SAPC     N 5125   0.084   3.939   0.028  0.5782 -0.3323  0.2298
   64SAPC   C12 5126   0.098   3.886  -0.118 -0.2186 -0.4331  0.6720
   64SAPC  H12A 5127   0.200   3.854  -0.136  0.0113 -0.2575  1.6319
   64SAPC  H12B 5128   0.086   3.973  -0.182  1.7458 -0.2958  0.4397
   64SAPC   C13 5129   0.171   4.060   0.049  0.4484 -0.3219  0.0741
   64SAPC  H13A 5130   0.145   4.144  -0.014  1.3189  1.7060  2.2696
   64SAPC  H13B 5131   0.169   4.099   0.149 -0.7780 -0.6510  0.1867
   64SAPC  H13C 5132   0.275   4.038   0.030  1.4290  1.7034  2.5159
   64SAPC   C14 5133  -0.059   3.977   0.067 -1.0873 -0.1994 -0.0006
   64SAPC  H14A 5134  -0.098   4.048  -0.004  1.1282 -1.8429 -3.1359
   64SAPC  H14B 5135  -0.119   3.888   0.070 -0.0918 -0.8702  1.1675
   64SAPC  H14C 5136  -0.052   4.022   0.165  1.8186  1.4149 -0.8244
   64SAPC   C15 5137   0.139   3.837   0.125  0.4162 -0.2742  0.5125
   64SAPC  H15A 5138   0.098   3.740   0.104 -0.1575  0.4207 -1.8999
   64SAPC  H15B 5139   0.247   3.833   0.116  0.3129 -0.9119 -0.6172
   64SAPC  H15C 5140   0.097   3.862   0.221 -1.3467 -2.7851  0.4857
   64SAPC   C11 5141  -0.002   3.770  -0.153 -0.2385  0.7358 -0.5541
   64SAPC  H11A 5142  -0.025   3.768  -0.261 -0.4484 -0.4553 -0.5002
   64SAPC  H11B 5143  -0.103   3.790  -0.111 -0.1717  1.3327 -0.6623
   64SAPC     P 5144   0.175   3.581  -0.179  0.2282  0.5384  0.2671
   64SAPC   O13 5145   0.289   3.654  -0.129  0.3139 -0.7071 -0.1979
   64SAPC   O14 5146   0.179   3.433  -0.146  0.1629 -0.3276  0.4092
   64SAPC   O12 5147   0.046   3.643  -0.112 -0.0464 -0.1377  0.3691
   64SAPC   O11 5148   0.152   3.601  -0.334 -0.3600 -0.3262  0.8126
   64SAPC    C1 5149   0.073   3.502  -0.403  0.4890 -0.9054  0.0234
   64SAPC    HA 5150   0.116   3.400  -0.390 -1.1839 -1.3438  2.7147
   64SAPC    HB 5151  -0.031   3.505  -0.365  0.4548  1.2238 -0.1075
   64SAPC    C2 5152   0.054   3.547  -0.555 -0.5882  0.0379 -0.6116
   64SAPC    HS 5153   0.151   3.530  -0.606 -0.2852  0.5388 -0.2057
   64SAPC   O21 5154   0.009   3.683  -0.546  0.9277 -0.5000 -0.4640
   64SAPC   C21 5155   0.105   3.771  -0.572 -0.5555 -0.1742 -0.9308
   64SAPC   O22 5156   0.215   3.744  -0.616  0.3206 -0.2199  0.1125
   64SAPC   C22 5157   0.057   3.913  -0.534  0.2652  0.3667  0.4517
   64SAPC   H2R 5158  -0.052   3.929  -0.522  0.4734  0.2623  3.0414
   64SAPC   H2S 5159   0.101   3.931  -0.433  0.7439  1.7773  0.0197
   64SAPC    C3 5160  -0.038   3.450  -0.639  0.0058  0.0555  0.1924
   64SAPC    HX 5161  -0.139   3.468  -0.598 -0.1551  2.3241 -1.0422
   64SAPC    HY 5162  -0.012   3.342  -0.630 -1.0741 -0.0889  1.8829
   64SAPC   O31 5163  -0.041   3.493  -0.779  0.1494 -0.2411  0.1801
   64SAPC   C31 5164   0.067   3.457  -0.852  0.5852  0.0125 -0.6452
   64SAPC   O32 5165   0.153   3.382  -0.809 -0.3718 -0.2936  0.0620
   64SAPC   C32 5166   0.061   3.521  -0.992  0.1289 -0.0879  0.8056
   64SAPC   H2X 5167  -0.023   3.591  -1.011  2.7108  2.8528 -0.7181
   64SAPC   H2Y 5168   0.069   3.447  -1.074  0.1730  2.8682 -2.0864
   64SAPC   C23 5169   0.123   4.023  -0.625  0.3479  0.0513  0.6361
   64SAPC   H3R 5170   0.229   4.000  -0.645 -0.3188 -1.2404 -1.9522
   64SAPC   H3S 5171   0.107   4.116  -0.566 -1.9255  1.0305 -1.2986
   64SAPC   C24 5172   0.038   4.031  -0.758 -0.3784 -0.6632  0.0272
   64SAPC   H4R 5173  -0.064   4.073  -0.739  0.2853 -0.0367  2.5223
   64SAPC   H4S 5174   0.032   3.924  -0.788 -1.8571 -0.1922 -1.5701
   64SAPC   C25 5175   0.097   4.114  -0.868 -0.5598  0.1554 -0.1908
   64SAPC   H5R 5176   0.171   4.188  -0.835 -1.9259  2.0142 -1.0922
   64SAPC   C26 5177   0.078   4.106  -0.999  0.7758  0.1035 -0.3461
   64SAPC   H6R 5178   0.127   4.184  -1.059  2.0267  1.0059  1.7361
   64SAPC   C27 5179  -0.010   4.003  -1.072 -1.0965  0.5290 -0.5757
   64SAPC   H7R 5180  -0.083   3.971  -0.995 -3.0965  1.5795 -1.9378
   64SAPC   H7S 5181   0.055   3.918  -1.102  0.4869  2.1873 -2.1304
   64SAPC   C28 5182  -0.087   4.072  -1.178 -0.3338 -0.6310  0.3585
   64SAPC   H8R 5183  -0.104   4.179  -1.163  4.4194  0.3023  0.5757
   64SAPC   C29 5184  -0.132   4.005  -1.289 -0.0939  0.3343  0.3066
   64SAPC   H9R 5185  -0.213   4.054  -1.346  1.1524  1.5206 -0.5157
   64SAPC  C210 5186  -0.126   3.858  -1.314 -0.2524  0.8070  0.4554
   64SAPC  H10R 5187  -0.065   3.806  -1.238 -1.2675 -1.6915 -0.3314
   64SAPC  H10S 5188  -0.077   3.840  -1.412  2.1336  0.2055  1.6963
   64SAPC  C211 5189  -0.257   3.798  -1.291  0.4371  0.1300 -0.2412
   64SAPC  H11R 5190  -0.298   3.841  -1.199 -2.8404  0.3069 -1.6225
   64SAPC  C212 5191  -0.330   3.722  -1.378  0.2106  0.7487  0.3201
   64SAPC  H12R 5192  -0.427   3.675  -1.355 -0.0684  0.3374 -1.5175
   64SAPC  C213 5193  -0.286   3.664  -1.511 -0.0698 -0.3888  0.2741
   64SAPC  H13R 5194  -0.176   3.679  -1.510  0.2256 -2.2352  0.7075
   64SAPC  H13S 5195  -0.329   3.727  -1.591  0.0598 -0.7217 -0.0607
   64SAPC  C214 5196  -0.326   3.518  -1.513 -0.6290 -0.3254 -0.3740
   64SAPC  H14R 5197  -0.309   3.463  -1.419 -0.1816  1.1671  0.4385
   64SAPC  C215 5198  -0.361   3.443  -1.623  0.2887 -0.0460  0.6248
   64SAPC  H15R 5199  -0.398   3.342  -1.599 -2.0666  0.1007 -1.9093
   64SAPC  C216 5200  -0.395   3.499  -1.758  0.0794 -0.1478  0.7519
   64SAPC  H16R 5201  -0.353   3.601  -1.769  0.7213 -0.4828  0.0180
   64SAPC  H16S 5202  -0.504   3.517  -1.770 -0.4644 -2.2192  2.1614
   64SAPC  C217 5203  -0.365   3.410  -1.881 -0.2836 -0.4838 -0.0251
   64SAPC  H17R 5204  -0.414   3.312  -1.862 -1.2194 -0.1660 -0.7525
   64SAPC  H17S 5205  -0.256   3.387  -1.884 -0.2222 -0.1283 -0.6962
   64SAPC  C218 5206  -0.423   3.468  -2.016  0.4340  0.0432 -0.3856
   64SAPC  H18R 5207  -0.373   3.559  -2.053 -0.2854  0.7665  0.3849
   64SAPC  H18S 5208  -0.528   3.492  -1.992  0.1852 -1.4492  0.1178
   64SAPC  C219 5209  -0.411   3.370  -2.135 -0.2242  0.2700  0.2697
   64SAPC  H19R 5210  -0.302   3.352  -2.136 -0.1716  0.5934 -0.4205
   64SAPC  H19S 5211  -0.435   3.416  -2.233 -1.3596  0.1448  0.4682
   64SAPC  C220 5212  -0.489   3.246  -2.109 -0.7169  0.4085  0.0296
   64SAPC  H20R 5213  -0.474   3.168  -2.186  1.0400 -1.7372  2.3545
   64SAPC  H20S 5214  -0.595   3.273  -2.090 -0.2125  1.6314  1.3095
   64SAPC  H20T 5215  -0.458   3.190  -2.018  1.7301  2.3337  0.5056
   64SAPC   C33 5216   0.182   3.604  -1.039 -0.0563 -0.1637 -0.6329
   64SAPC   H3X 5217   0.273   3.550  -1.006 -1.1459 -1.3580  0.4865
   64SAPC   H3Y 5218   0.187   3.704  -0.991  2.1184 -1.6296  2.5470
   64SAPC   C34 5219   0.187   3.626  -1.192 -0.2087 -0.5808  0.1110
   64SAPC   H4X 5220   0.262   3.706  -1.210  0.3511 -0.4076  2.7801
   64SAPC   H4Y 5221   0.093   3.671  -1.233  0.7555  0.6362 -0.8444
   64SAPC   C35 5222   0.232   3.510  -1.288  0.3994 -0.2071 -0.1017
   64SAPC   H5X 5223   0.174   3.416  -1.276  0.3906  0.0790  2.5444
   64SAPC   H5Y 5224   0.341   3.502  -1.268  0.3090  1.9627  1.5430
   64SAPC   C36 5225   0.202   3.559  -1.439  0.0561 -0.2896  0.0338
   64SAPC   H6X 5226   0.288   3.621  -1.473  1.3920 -0.8642  2.1092
   64SAPC   H6Y 5227   0.118   3.631  -1.436  0.9593  0.8742  4.0400
   64SAPC   C37 5228   0.178   3.459  -1.543  0.2054  0.2739  0.1452
   64SAPC   H7X 5229   0.077   3.413  -1.539  0.9506 -1.4815 -0.3364
   64SAPC   H7Y 5230   0.252   3.377  -1.529  1.7332  1.5762 -0.0995
   64SAPC   C38 5231   0.208   3.508  -1.687  0.1135 -0.4414  0.1368
   64SAPC   H8X 5232   0.227   3.427  -1.759  0.2130  0.0629 -0.4114
   64SAPC   H8Y 5233   0.292   3.581  -1.683 -1.3595  1.2953  1.7789
   64SAPC   C39 5234   0.089   3.591  -1.742 -0.2749  0.2294 -0.0867
   64SAPC   H9X 5235   0.093   3.693  -1.698  2.1624  1.6817 -3.2604
   64SAPC   H9Y 5236  -0.013   3.549  -1.742 -1.0168  1.8799 -1.6600
   64SAPC  C310 5237   0.124   3.624  -1.884  0.1424 -0.0956 -0.3254
   64SAPC  H10X 5238   0.234   3.627  -1.897 -0.0066  0.8936 -1.6230
   64SAPC  H10Y 5239   0.071   3.720  -1.899  0.8779  0.3482 -0.1453
   64SAPC  C311 5240   0.078   3.521  -1.976  0.9870  0.0812  0.1244
   64SAPC  H11X 5241  -0.032   3.509  -1.969  1.1487 -2.7984 -1.1935
   64SAPC  H11Y 5242   0.124   3.422  -1.959  1.0015  0.0732  0.0366
   64SAPC  C312 5243   0.112   3.553  -2.118  0.3058 -0.0893 -0.0038
   64SAPC  H12X 5244   0.219   3.584  -2.129 -0.5279  2.4146 -1.9508
   64SAPC  H12Y 5245   0.056   3.644  -2.145  0.6124 -0.7562 -3.4868
   64SAPC  C313 5246   0.081   3.430  -2.209  0.1746  0.3511 -0.9064
   64SAPC  H13X 5247  -0.019   3.392  -2.180  1.2811 -2.1915 -0.0933
   64SAPC  H13Y 5248   0.156   3.352  -2.183  0.7862  1.4558  0.8276
   64SAPC  C314 5249   0.073   3.464  -2.361 -0.1586 -0.4175  0.5177
   64SAPC  H14X 5250   0.177   3.485  -2.394 -0.2091 -2.0908 -0.8058
   64SAPC  H14Y 5251   0.007   3.553  -2.369 -1.5181 -1.5065 -0.9891
   64SAPC  C315 5252   0.010   3.361  -2.444 -0.4919  0.8883 -0.1751
   64SAPC  H15X 5253  -0.021   3.388  -2.547  1.1882 -0.8252 -1.1865
   64SAPC  H15Y 5254  -0.085   3.321  -2.401 -0.2266 -0.9904 -1.2264
   64SAPC  C316 5255   0.097   3.236  -2.469 -0.1514  0.1506  0.6416
   64SAPC  H16X 5256   0.026   3.160  -2.509 -0.5315  0.3692  0.8984
   64SAPC  H16Y 5257   0.133   3.200  -2.370 -0.8984  3.3250  2.1695
   64SAPC  C317 5258   0.225   3.261  -2.545 -0.2981 -0.7480  0.3905
   64SAPC  H17X 5259   0.281   3.342  -2.495  0.5530 -1.1579  0.1290
   64SAPC  H17Y 5260   0.196   3.285  -2.649  0.3127  1.1351  0.6178
   64SAPC  C318 5261   0.314   3.139  -2.547 -0.3577 -0.3901 -0.9974
   64SAPC  H18X 5262   0.360   3.115  -2.449 -1.0683 -1.5918 -0.9368
   64SAPC  H18Y 5263   0.402   3.151  -2.613 -0.7571  1.4646 -1.2374
   64SAPC  H18Z 5264   0.253   3.050  -2.576 -0.9469 -0.9744  1.7373
   65SAPC     N 5265   0.497   2.846   3.994  0.1689 -0.0133 -0.8281
   65SAPC   C12 5266   0.611   2.842   3.895 -0.0377 -0.2600  0.2158
   65SAPC  H12A 5267   0.638   2.943   3.868  0.2932  0.3205  2.5100
   65SAPC  H12B 5268   0.572   2.793   3.808 -1.2936 -1.7449  1.5434
   65SAPC   C13 5269   0.364   2.898   3.943 -0.2447 -0.9984  0.2238
   65SAPC  H13A 5270   0.285   2.870   4.011 -1.4042  0.3925 -0.5001
   65SAPC  H13B 5271   0.364   3.006   3.943 -0.4868 -0.9721 -1.2512
   65SAPC  H13C 5272   0.345   2.857   3.845 -3.0723  1.2488 -0.2737
   65SAPC   C14 5273   0.459   2.710   4.040  0.3482 -0.7464 -0.4042
   65SAPC  H14A 5274   0.382   2.722   4.114  1.4438 -1.0230  0.8275
   65SAPC  H14B 5275   0.437   2.643   3.958  1.3301 -0.5989 -0.8084
   65SAPC  H14C 5276   0.544   2.668   4.092  0.4214 -0.6961 -0.4827
   65SAPC   C15 5277   0.523   2.923   4.115 -0.1960 -0.1491  0.3668
   65SAPC  H15A 5278   0.539   3.029   4.097 -0.6255 -0.0978  0.2619
   65SAPC  H15B 5279   0.441   2.918   4.186 -0.1136  2.7458  0.7888
   65SAPC  H15C 5280   0.606   2.884   4.172 -0.9132 -0.1523  1.4387
   65SAPC   C11 5281   0.739   2.755   3.915  0.2849  0.5012  0.4384
   65SAPC  H11A 5282   0.702   2.650   3.919 -1.2582  1.0019 -0.0934
   65SAPC  H11B 5283   0.793   2.790   4.006  1.9186 -0.0481 -0.2673
   65SAPC     P 5284   0.971   2.736   3.817  0.4272 -0.0956 -0.3077
   65SAPC   O13 5285   0.983   2.608   3.888 -0.7566  0.3845 -0.4079
   65SAPC   O14 5286   1.050   2.748   3.694 -0.4188  0.1524  0.6354
   65SAPC   O12 5287   0.819   2.768   3.793 -0.1204 -0.0980 -0.1160
   65SAPC   O11 5288   1.009   2.845   3.913  0.0731  0.3771  0.2871
   65SAPC    C1 5289   1.145   2.869   3.937 -0.4447 -0.3126 -0.4884
   65SAPC    HA 5290   1.203   2.774   3.937 -1.8791 -1.2117 -1.3558
   65SAPC    HB 5291   1.196   2.931   3.860 -2.2098  2.1773  0.2062
   65SAPC    C2 5292   1.168   2.946   4.072  0.6241 -0.0659  0.3903
   65SAPC    HS 5293   1.276   2.960   4.090  0.6567 -0.8419  0.8119
   65SAPC   O21 5294   1.093   2.882   4.171 -0.1036  0.1048 -0.6763
   65SAPC   C21 5295   1.145   2.769   4.211 -0.0455 -0.0509 -0.3529
   65SAPC   O22 5296   1.251   2.721   4.167 -0.1756  0.1809 -0.1916
   65SAPC   C22 5297   1.072   2.707   4.338 -0.2733 -0.4082  0.3394
   65SAPC   H2R 5298   0.963   2.723   4.321 -0.1089  3.1414  1.6969
   65SAPC   H2S 5299   1.096   2.599   4.328  2.4792  0.1389  0.4463
   65SAPC    C3 5300   1.120   3.096   4.071 -0.0097  0.6131 -0.8010
   65SAPC    HX 5301   1.011   3.107   4.053 -0.4870  1.8660  2.2261
   65SAPC    HY 5302   1.183   3.146   3.995  0.6629 -1.1971 -1.4811
   65SAPC   O31 5303   1.151   3.144   4.203 -0.0336 -0.5330  1.0059
   65SAPC   C31 5304   1.114   3.267   4.228  0.1651  0.1178 -0.6664
   65SAPC   O32 5305   1.061   3.349   4.156  0.6822  0.2090 -0.4717
   65SAPC   C32 5306   1.156   3.294   4.370 -1.1843 -0.1967  0.0462
   65SAPC   H2X 5307   1.242   3.229   4.394 -0.8246  0.9093  2.0023
   65SAPC   H2Y 5308   1.068   3.262   4.430 -1.9536  0.0820 -0.9063
   65SAPC   C23 5309   1.126   2.769   4.465  1.1449  0.1035  0.7242
   65SAPC   H3R 5310   1.235   2.750   4.478  0.9232 -2.1494 -0.2150
   65SAPC   H3S 5311   1.064   2.718   4.542 -1.0330 -1.4038 -1.8730
   65SAPC   C24 5312   1.103   2.920   4.487 -0.1945 -0.7329  0.1403
   65SAPC   H4R 5313   0.992   2.929   4.484 -0.3219 -2.3255 -2.0309
   65SAPC   H4S 5314   1.143   2.969   4.395  1.5041  0.9918  1.7214
   65SAPC   C25 5315   1.143   2.992   4.609 -0.4546 -0.2873 -0.2382
   65SAPC   H5R 5316   1.225   3.061   4.583  0.2069 -1.0696 -0.3126
   65SAPC   C26 5317   1.116   2.966   4.737  0.4468  0.1354  0.1143
   65SAPC   H6R 5318   1.158   3.035   4.813  1.7105 -0.8896  0.3875
   65SAPC   C27 5319   1.015   2.862   4.779 -0.9465 -0.3172 -1.0659
   65SAPC   H7R 5320   1.064   2.768   4.811  0.1095 -0.0791 -1.9453
   65SAPC   H7S 5321   0.960   2.825   4.691 -0.4802  1.8958 -2.3686
   65SAPC   C28 5322   0.908   2.906   4.887 -0.1593  0.4216  0.4705
   65SAPC   H8R 5323   0.804   2.915   4.853  0.1365  0.5170 -0.4481
   65SAPC   C29 5324   0.938   2.925   5.021 -0.3065 -0.5776  0.0319
   65SAPC   H9R 5325   0.849   2.942   5.083 -1.2514  1.2032 -1.6752
   65SAPC  C210 5326   1.071   2.913   5.093 -0.8244  0.4402 -0.1827
   65SAPC  H10R 5327   1.150   2.868   5.029 -0.5565 -0.3860  0.7000
   65SAPC  H10S 5328   1.052   2.832   5.167  0.5983  0.4274  0.1906
   65SAPC  C211 5329   1.128   3.036   5.162 -0.0613 -0.3508  0.1664
   65SAPC  H11R 5330   1.193   3.096   5.097 -1.0869 -0.7001 -1.2217
   65SAPC  C212 5331   1.103   3.081   5.285  0.2869  0.3141 -0.6819
   65SAPC  H12R 5332   1.153   3.176   5.310  1.8380 -0.9607  1.3744
   65SAPC  C213 5333   1.027   3.018   5.404 -0.1883 -0.2887  0.3239
   65SAPC  H13R 5334   0.982   2.923   5.369  0.6441 -0.0186 -1.6428
   65SAPC  H13S 5335   0.943   3.088   5.425  0.7729  0.6269  1.2192
   65SAPC  C214 5336   1.112   2.988   5.517  0.2547  0.1038  0.2878
   65SAPC  H14R 5337   1.196   2.918   5.501 -0.5814 -0.7001 -0.7464
   65SAPC  C215 5338   1.092   3.031   5.643  0.0244 -0.3823  0.3578
   65SAPC  H15R 5339   1.159   2.989   5.720 -0.5358  1.8357  2.1440
   65SAPC  C216 5340   0.991   3.120   5.700 -0.1994 -0.0741 -1.0323
   65SAPC  H16R 5341   0.931   3.055   5.767  3.6046 -1.4674  1.3446
   65SAPC  H16S 5342   0.924   3.173   5.630 -0.9968 -0.2564 -0.4227
   65SAPC  C217 5343   1.044   3.222   5.794 -0.2208  0.3392  0.2259
   65SAPC  H17R 5344   0.951   3.251   5.848 -0.2519 -0.8107  0.8030
   65SAPC  H17S 5345   1.078   3.309   5.733 -1.8606  0.2710 -0.8700
   65SAPC  C218 5346   1.141   3.170   5.901  0.1203  0.6082  0.0973
   65SAPC  H18R 5347   1.237   3.158   5.846 -0.6038 -0.2787 -1.0189
   65SAPC  H18S 5348   1.094   3.077   5.940  0.0017  1.2603  1.5485
   65SAPC  C219 5349   1.159   3.252   6.026  0.6956 -0.3277  1.0140
   65SAPC  H19R 5350   1.060   3.249   6.077  0.4000  0.4438  0.4953
   65SAPC  H19S 5351   1.186   3.354   5.991  0.7096 -0.2028  1.3787
   65SAPC  C220 5352   1.277   3.203   6.116 -0.6794 -0.5291 -0.0486
   65SAPC  H20R 5353   1.371   3.251   6.081 -1.4316  0.3627 -0.9173
   65SAPC  H20S 5354   1.282   3.093   6.112 -0.3607 -0.5149 -0.0560
   65SAPC  H20T 5355   1.247   3.233   6.219  1.8831 -1.3027  1.0005
   65SAPC   C33 5356   1.191   3.451   4.392 -1.0016  0.5001 -0.2360
   65SAPC   H3X 5357   1.096   3.508   4.404 -1.7487 -0.7641  0.0045
   65SAPC   H3Y 5358   1.245   3.487   4.302  1.1246 -0.6580  0.5288
   65SAPC   C34 5359   1.286   3.463   4.512  1.0167 -0.1790 -0.3833
   65SAPC   H4X 5360   1.312   3.568   4.534 -0.7505  0.4099 -0.9751
   65SAPC   H4Y 5361   1.382   3.407   4.503  0.8756 -0.9831  2.2907
   65SAPC   C35 5362   1.228   3.403   4.644 -0.2554 -0.0194  0.0774
   65SAPC   H5X 5363   1.212   3.293   4.637  2.3402 -0.4005 -1.1623
   65SAPC   H5Y 5364   1.130   3.445   4.673  0.0193 -0.2775  1.4500
   65SAPC   C36 5365   1.313   3.431   4.769 -0.3311 -0.4856  0.1425
   65SAPC   H6X 5366   1.344   3.537   4.762 -1.7468  0.0062  0.8265
   65SAPC   H6Y 5367   1.411   3.379   4.763  0.2615  0.7356 -1.0224
   65SAPC   C37 5368   1.243   3.407   4.908 -0.3865  0.0081 -0.0006
   65SAPC   H7X 5369   1.263   3.303   4.942  1.9898  0.1491 -0.7686
   65SAPC   H7Y 5370   1.136   3.437   4.900  0.0684  1.3342 -1.5153
   65SAPC   C38 5371   1.290   3.495   5.022 -0.1389 -0.6316  1.1040
   65SAPC   H8X 5372   1.267   3.603   5.009  3.5361  0.1594 -0.0968
   65SAPC   H8Y 5373   1.400   3.482   5.034 -0.0147  0.5356  1.3268
   65SAPC   C39 5374   1.229   3.446   5.159 -0.2767 -0.1699  0.5939
   65SAPC   H9X 5375   1.255   3.340   5.178  0.8292  0.1939  1.1881
   65SAPC   H9Y 5376   1.120   3.466   5.162 -0.6150 -1.8539  0.2831
   65SAPC  C310 5377   1.303   3.514   5.276 -0.0619  0.0889 -0.9214
   65SAPC  H10X 5378   1.260   3.617   5.280 -0.8083 -0.2635  1.2219
   65SAPC  H10Y 5379   1.409   3.529   5.247 -0.5966  0.6563 -2.7787
   65SAPC  C311 5380   1.272   3.445   5.412 -0.2814  0.0848  0.0698
   65SAPC  H11X 5381   1.315   3.343   5.419 -0.0109  0.2448  0.9380
   65SAPC  H11Y 5382   1.162   3.430   5.414 -0.3071  0.2394 -0.2194
   65SAPC  C312 5383   1.331   3.509   5.537 -0.3208  0.1294  0.2947
   65SAPC  H12X 5384   1.322   3.620   5.531  1.6022  0.2887 -0.6419
   65SAPC  H12Y 5385   1.438   3.485   5.520  0.2624  0.9843  2.4261
   65SAPC  C313 5386   1.318   3.455   5.681 -0.4150  0.6609 -0.4855
   65SAPC  H13X 5387   1.342   3.347   5.673 -1.6081  0.4861 -2.6601
   65SAPC  H13Y 5388   1.209   3.450   5.703 -0.9342 -2.7185 -2.8912
   65SAPC  C314 5389   1.386   3.536   5.795 -0.1040 -0.2317  0.1077
   65SAPC  H14X 5390   1.353   3.475   5.882  2.0077  2.4528  3.0002
   65SAPC  H14Y 5391   1.370   3.646   5.797  1.6559  0.0499  0.6284
   65SAPC  C315 5392   1.536   3.502   5.795 -0.3869 -0.2701 -0.0529
   65SAPC  H15X 5393   1.589   3.544   5.706  1.9836 -1.4314  0.7326
   65SAPC  H15Y 5394   1.552   3.392   5.794  2.9706  0.0910 -2.0161
   65SAPC  C316 5395   1.607   3.545   5.924 -0.8861  0.1631 -1.0512
   65SAPC  H16X 5396   1.614   3.655   5.926  0.5358  0.0908 -0.6593
   65SAPC  H16Y 5397   1.715   3.516   5.921 -1.1551 -1.0935  0.2333
   65SAPC  C317 5398   1.552   3.487   6.062  0.1021  0.3401 -0.2035
   65SAPC  H17X 5399   1.537   3.377   6.053  2.1255 -0.0121  0.3178
   65SAPC  H17Y 5400   1.447   3.520   6.078  0.7032  1.2163  2.4096
   65SAPC  C318 5401   1.633   3.524   6.190  0.1939 -0.3413  0.3461
   65SAPC  H18X 5402   1.619   3.630   6.220  2.5260 -0.1579  1.0077
   65SAPC  H18Y 5403   1.741   3.502   6.174  0.1189 -0.5415  0.1071
   65SAPC  H18Z 5404   1.585   3.462   6.268 -2.0057  1.6154  0.6656
   66SAPC     N 5405   5.299   3.851   3.595  0.2374 -0.2288  0.4348
   66SAPC   C12 5406   5.258   3.728   3.664 -0.1591 -0.3055 -0.6887
   66SAPC  H12A 5407   5.338   3.655   3.656  0.4889  0.4012 -0.7774
   66SAPC  H12B 5408   5.178   3.677   3.612 -1.5100  0.9922  0.0635
   66SAPC   C13 5409   5.193   3.950   3.597  0.0799 -0.0855  0.5400
   66SAPC  H13A 5410   5.111   3.932   3.530  1.2187  0.5413 -1.0877
   66SAPC  H13B 5411   5.150   3.957   3.696 -2.4663  0.7982 -0.5513
   66SAPC  H13C 5412   5.237   4.043   3.564 -0.1513  0.1296  0.8406
   66SAPC   C14 5413   5.411   3.927   3.661 -0.2455  0.3322  0.2711
   66SAPC  H14A 5414   5.383   3.963   3.759 -1.4068 -1.2269  0.5493
   66SAPC  H14B 5415   5.501   3.871   3.682  0.5947  1.0354 -1.2650
   66SAPC  H14C 5416   5.436   4.015   3.603  0.9668  0.6659  1.2430
   66SAPC   C15 5417   5.343   3.820   3.452 -0.5858 -0.0673 -0.1261
   66SAPC  H15A 5418   5.406   3.902   3.423 -1.2898  1.0694  1.4373
   66SAPC  H15B 5419   5.399   3.728   3.447 -2.0104 -1.1372  2.0075
   66SAPC  H15C 5420   5.262   3.814   3.380 -0.2139  0.5801 -0.6123
   66SAPC   C11 5421   5.201   3.731   3.806 -0.6400  0.4548  0.1655
   66SAPC  H11A 5422   5.270   3.776   3.881 -0.3682 -2.7099  1.9654
   66SAPC  H11B 5423   5.201   3.625   3.839  0.3291  0.0791 -0.9770
   66SAPC     P 5424   4.945   3.703   3.795  0.2933 -0.1497 -0.0929
   66SAPC   O13 5425   4.830   3.792   3.821 -0.0290 -0.0220 -0.1657
   66SAPC   O14 5426   4.949   3.641   3.659 -0.2215  0.0768  0.0200
   66SAPC   O12 5427   5.075   3.794   3.809  0.9859 -0.1457 -0.4290
   66SAPC   O11 5428   4.955   3.597   3.914 -0.5037  0.4880  0.2550
   66SAPC    C1 5429   4.951   3.656   4.044 -0.7124 -0.1722  0.6696
   66SAPC    HA 5430   5.032   3.731   4.054 -1.1401  0.0830  2.3784
   66SAPC    HB 5431   4.856   3.706   4.072 -1.7077 -1.9675  0.6749
   66SAPC    C2 5432   4.995   3.553   4.154  0.3046 -0.9397  0.6380
   66SAPC    HS 5433   5.094   3.518   4.118  0.1170 -1.2604  0.4307
   66SAPC   O21 5434   4.894   3.450   4.162 -0.9045 -0.1609  0.2612
   66SAPC   C21 5435   4.930   3.352   4.239 -0.1536  0.6609 -0.5271
   66SAPC   O22 5436   5.043   3.312   4.260 -0.0373 -0.1333 -0.6909
   66SAPC   C22 5437   4.805   3.284   4.295  0.2455 -0.3935  0.7489
   66SAPC   H2R 5438   4.715   3.331   4.248  0.9273 -1.3036 -1.5992
   66SAPC   H2S 5439   4.808   3.182   4.250 -0.0334  0.7053 -1.9754
   66SAPC    C3 5440   4.998   3.624   4.294 -0.1035  0.0864  1.1639
   66SAPC    HX 5441   5.071   3.707   4.291  0.6874 -0.6089 -0.9177
   66SAPC    HY 5442   5.043   3.570   4.380  1.9478 -2.1422 -1.1363
   66SAPC   O31 5443   4.868   3.674   4.335 -0.3956  0.4431  0.0663
   66SAPC   C31 5444   4.853   3.806   4.353  0.1930 -0.1364 -1.0559
   66SAPC   O32 5445   4.938   3.888   4.325 -0.4867  0.5625  0.2154
   66SAPC   C32 5446   4.709   3.848   4.393  0.3395 -0.3708 -0.6751
   66SAPC   H2X 5447   4.660   3.763   4.445 -0.1887  0.5278  0.3391
   66SAPC   H2Y 5448   4.650   3.868   4.301 -1.2322 -0.1573  0.3485
   66SAPC   C23 5449   4.800   3.273   4.449 -0.1256  0.4652 -0.4899
   66SAPC   H3R 5450   4.904   3.247   4.477  0.0718 -1.1296 -2.4149
   66SAPC   H3S 5451   4.724   3.196   4.472 -1.6195  1.7771 -0.8550
   66SAPC   C24 5452   4.758   3.404   4.517  0.2911  0.3246  0.1835
   66SAPC   H4R 5453   4.831   3.484   4.494  1.1328 -1.0552 -2.3580
   66SAPC   H4S 5454   4.762   3.392   4.627  2.3111 -1.0001  0.0163
   66SAPC   C25 5455   4.618   3.436   4.465 -0.3334 -0.6638 -0.0908
   66SAPC   H5R 5456   4.595   3.426   4.358  1.2940 -0.8950 -0.4391
   66SAPC   C26 5457   4.527   3.496   4.550 -0.4153 -0.6214  0.1708
   66SAPC   H6R 5458   4.435   3.542   4.514  1.1651  2.4421 -0.2500
   66SAPC   C27 5459   4.543   3.513   4.704 -0.0531  0.4166 -0.2186
   66SAPC   H7R 5460   4.503   3.606   4.749 -0.4470  1.2585 -2.2221
   66SAPC   H7S 5461   4.652   3.524   4.722  0.2958  0.2307 -2.0236
   66SAPC   C28 5462   4.498   3.380   4.769 -0.5811  0.3188 -0.5530
   66SAPC   H8R 5463   4.457   3.302   4.704  1.1681 -0.7360 -0.4526
   66SAPC   C29 5464   4.506   3.347   4.897 -0.1266 -0.2435 -0.8701
   66SAPC   H9R 5465   4.472   3.245   4.919 -1.0431 -0.2457 -2.1954
   66SAPC  C210 5466   4.574   3.427   4.999  0.5521  0.4840 -1.1410
   66SAPC  H10R 5467   4.657   3.481   4.949  2.0170 -0.3894  0.2497
   66SAPC  H10S 5468   4.611   3.359   5.079 -1.5079  0.5577 -0.0676
   66SAPC  C211 5469   4.489   3.533   5.057  0.2590 -0.6598 -0.2060
   66SAPC  H11R 5470   4.438   3.599   4.986 -0.1821 -1.5796 -0.7668
   66SAPC  C212 5471   4.452   3.544   5.186  0.5579 -0.9395 -0.6214
   66SAPC  H12R 5472   4.386   3.632   5.199 -0.3056 -1.6477 -0.1309
   66SAPC  C213 5473   4.502   3.473   5.312  0.4636  0.1443 -0.7232
   66SAPC  H13R 5474   4.538   3.544   5.390 -0.6022  0.5947 -0.6333
   66SAPC  H13S 5475   4.600   3.432   5.279  1.2532 -0.2536  1.8750
   66SAPC  C214 5476   4.417   3.354   5.362 -0.6419  0.1235 -0.1094
   66SAPC  H14R 5477   4.367   3.297   5.282  1.5451  1.0907 -2.3062
   66SAPC  C215 5478   4.412   3.324   5.492 -0.4645  0.0100 -0.2938
   66SAPC  H15R 5479   4.354   3.239   5.531  1.3993 -0.1542  2.3967
   66SAPC  C216 5480   4.470   3.402   5.610  0.0525 -0.0386  0.1088
   66SAPC  H16R 5481   4.498   3.507   5.589 -0.8359  0.4642  1.2941
   66SAPC  H16S 5482   4.571   3.370   5.642  1.6876  4.5999  0.2479
   66SAPC  C217 5483   4.390   3.379   5.734 -0.1347 -0.9829 -0.7851
   66SAPC  H17R 5484   4.457   3.394   5.822  1.1024  1.0514 -2.0178
   66SAPC  H17S 5485   4.365   3.271   5.741 -1.0244 -0.8111 -1.2416
   66SAPC  C218 5486   4.266   3.471   5.742  0.8945  0.3487 -0.7949
   66SAPC  H18R 5487   4.231   3.469   5.848  1.4195 -0.9658 -0.6318
   66SAPC  H18S 5488   4.190   3.437   5.669 -2.0464  2.6701  0.9347
   66SAPC  C219 5489   4.283   3.615   5.695  0.4825  0.0380  0.0547
   66SAPC  H19R 5490   4.303   3.612   5.586  0.8100 -1.1515  0.1343
   66SAPC  H19S 5491   4.373   3.667   5.734 -0.0451  0.4778  0.7200
   66SAPC  C220 5492   4.167   3.709   5.735 -1.4250 -0.2031  0.1032
   66SAPC  H20R 5493   4.209   3.796   5.790 -0.7034 -1.5926  1.8576
   66SAPC  H20S 5494   4.100   3.654   5.805 -0.2115 -0.7708  0.8459
   66SAPC  H20T 5495   4.111   3.747   5.647 -1.0130 -2.1681 -1.0722
   66SAPC   C33 5496   4.708   3.960   4.502  0.9351 -0.0211 -0.2149
   66SAPC   H3X 5497   4.765   3.926   4.591  0.2615  0.1496  0.2858
   66SAPC   H3Y 5498   4.602   3.974   4.531 -0.0148 -1.9806 -2.3989
   66SAPC   C34 5499   4.770   4.097   4.460 -0.0504  0.1281  0.0419
   66SAPC   H4X 5500   4.741   4.133   4.359 -0.6385  0.6575  0.3949
   66SAPC   H4Y 5501   4.880   4.085   4.465 -0.1222 -0.1621  1.3798
   66SAPC   C35 5502   4.727   4.212   4.552  0.1537  0.4223 -0.4025
   66SAPC   H5X 5503   4.619   4.229   4.532 -0.2085  1.5210  2.1318
   66SAPC   H5Y 5504   4.783   4.304   4.524 -1.4603  1.3768 -0.6307
   66SAPC   C36 5505   4.745   4.180   4.704  0.6109 -0.1178  0.2467
   66SAPC   H6X 5506   4.685   4.090   4.729  1.8380 -1.1041 -0.2772
   66SAPC   H6Y 5507   4.703   4.259   4.770 -0.0037 -0.4727  0.2891
   66SAPC   C37 5508   4.895   4.169   4.737 -0.0298  0.2529  0.1272
   66SAPC   H7X 5509   4.942   4.259   4.692  2.2174 -1.0424 -0.2277
   66SAPC   H7Y 5510   4.946   4.086   4.684  0.6657  1.3805 -1.0185
   66SAPC   C38 5511   4.917   4.161   4.882 -0.1227  0.4411  0.8857
   66SAPC   H8X 5512   4.848   4.079   4.909  1.3117 -1.8729 -1.8456
   66SAPC   H8Y 5513   4.885   4.252   4.938  0.3543 -0.1355  2.1368
   66SAPC   C39 5514   5.061   4.124   4.914  0.4712 -0.0574  0.2869
   66SAPC   H9X 5515   5.137   4.197   4.877 -0.2000  1.5401  1.9446
   66SAPC   H9Y 5516   5.079   4.032   4.854 -0.1449  0.7245 -1.1597
   66SAPC  C310 5517   5.084   4.117   5.064 -0.3746 -0.1036  0.8554
   66SAPC  H10X 5518   5.009   4.048   5.107 -0.9043  0.3329  0.6458
   66SAPC  H10Y 5519   5.080   4.216   5.115 -3.2602 -0.5583  1.6755
   66SAPC  C311 5520   5.229   4.062   5.079 -0.3951  0.2704 -0.4451
   66SAPC  H11X 5521   5.302   4.130   5.031 -0.8625  1.9347  1.0684
   66SAPC  H11Y 5522   5.229   3.960   5.036 -0.5176  0.1698 -0.2105
   66SAPC  C312 5523   5.282   4.039   5.225  0.0240 -0.3420  1.2498
   66SAPC  H12X 5524   5.306   4.137   5.272 -0.0201  0.3225 -0.0858
   66SAPC  H12Y 5525   5.374   3.978   5.222 -0.7274 -1.4781 -1.9749
   66SAPC  C313 5526   5.164   3.963   5.306 -0.4629  0.5758  0.8433
   66SAPC  H13X 5527   5.127   3.884   5.237  0.1875  0.1518  0.9736
   66SAPC  H13Y 5528   5.076   4.029   5.318 -0.7590  0.1905  0.8123
   66SAPC  C314 5529   5.195   3.920   5.454 -1.2363  0.5157  0.5817
   66SAPC  H14X 5530   5.294   3.870   5.455 -1.2443  0.4186 -1.2239
   66SAPC  H14Y 5531   5.117   3.849   5.491  0.1338 -0.7807  1.0565
   66SAPC  C315 5532   5.202   4.048   5.546 -0.3903  0.5291 -0.3136
   66SAPC  H15X 5533   5.102   4.097   5.549  0.6627  2.7507  1.0456
   66SAPC  H15Y 5534   5.258   4.130   5.495  0.9891  0.9385  1.7446
   66SAPC  C316 5535   5.250   4.026   5.690 -0.3645  0.2662  0.5737
   66SAPC  H16X 5536   5.347   3.973   5.688 -0.5360 -0.0721  1.0177
   66SAPC  H16Y 5537   5.175   3.959   5.738 -0.1301 -1.2042 -1.0103
   66SAPC  C317 5538   5.258   4.151   5.776  0.8137 -0.2568 -0.1037
   66SAPC  H17X 5539   5.175   4.219   5.749  0.0599 -1.0338  0.2081
   66SAPC  H17Y 5540   5.349   4.208   5.747 -0.2480  0.9706 -1.1123
   66SAPC  C318 5541   5.270   4.115   5.922 -0.0587 -0.1134  0.2638
   66SAPC  H18X 5542   5.359   4.049   5.925 -1.0345 -1.5624 -0.9053
   66SAPC  H18Y 5543   5.193   4.042   5.955 -0.5866  1.3320  2.3905
   66SAPC  H18Z 5544   5.294   4.203   5.985  1.4030 -1.1266  1.2022
   67SAPC     N 5545   1.773   5.146   3.313  0.0081  0.5390 -0.3152
   67SAPC   C12 5546   1.774   5.076   3.454  0.2809 -0.3637  0.0177
   67SAPC  H12A 5547   1.748   4.972   3.443  1.2605 -0.4663 -1.8695
   67SAPC  H12B 5548   1.690   5.114   3.509 -1.9343 -3.6332 -0.8275
   67SAPC   C13 5549   1.790   5.290   3.322 -0.2471 -0.4183 -0.4153
   67SAPC  H13A 5550   1.887   5.321   3.357  0.3373 -2.5009 -0.0459
   67SAPC  H13B 5551   1.774   5.331   3.224  2.3501 -0.4303 -0.9094
   67SAPC  H13C 5552   1.727   5.336   3.396 -0.3746 -3.5086  1.6003
   67SAPC   C14 5553   1.890   5.103   3.224 -0.4347  0.1550 -0.2324
   67SAPC  H14A 5554   1.892   5.165   3.135 -2.0911  0.2933 -0.2065
   67SAPC  H14B 5555   1.979   5.123   3.283  0.7638 -2.5525 -0.9516
   67SAPC  H14C 5556   1.881   4.997   3.207 -0.6420 -0.2118  1.8887
   67SAPC   C15 5557   1.646   5.115   3.250  0.3031 -0.3051  0.3838
   67SAPC  H15A 5558   1.635   5.009   3.233  0.4503 -0.1886 -0.4593
   67SAPC  H15B 5559   1.558   5.148   3.304 -0.1966 -0.4350 -0.3500
   67SAPC  H15C 5560   1.642   5.162   3.153 -0.2902 -2.3594 -0.6332
   67SAPC   C11 5561   1.896   5.092   3.546 -0.1238 -0.0742 -0.4261
   67SAPC  H11A 5562   1.883   5.042   3.644  2.3107 -0.5510 -0.2654
   67SAPC  H11B 5563   1.899   5.199   3.575  0.2436 -0.7798  2.4351
   67SAPC     P 5564   2.160   5.121   3.524 -0.1145 -0.3883 -0.0764
   67SAPC   O13 5565   2.256   5.044   3.447 -0.1965 -0.4012  0.1460
   67SAPC   O14 5566   2.143   5.265   3.505 -0.1639 -0.5946 -0.5065
   67SAPC   O12 5567   2.020   5.056   3.487  0.0946  0.4286  0.2111
   67SAPC   O11 5568   2.175   5.086   3.679  0.3426  0.0061  0.2985
   67SAPC    C1 5569   2.221   4.953   3.716 -0.6907 -0.1112  0.0196
   67SAPC    HA 5570   2.248   4.877   3.639  1.2536 -0.2382  0.7836
   67SAPC    HB 5571   2.308   4.968   3.783 -0.2101 -0.7337 -0.4482
   67SAPC    C2 5572   2.118   4.870   3.800  0.1997  0.3934  0.7579
   67SAPC    HS 5573   2.036   4.864   3.725  2.2161 -1.6062 -1.4664
   67SAPC   O21 5574   2.059   4.937   3.919 -0.3453  0.7451 -0.5349
   67SAPC   C21 5575   1.932   4.895   3.953 -0.6358 -0.1382 -0.8134
   67SAPC   O22 5576   1.875   4.802   3.908  0.4161  0.5938 -0.2983
   67SAPC   C22 5577   1.876   4.995   4.057 -0.4003  0.0518 -0.7820
   67SAPC   H2R 5578   1.853   4.925   4.140 -0.6685 -0.7679 -1.5322
   67SAPC   H2S 5579   1.957   5.063   4.092 -1.5193  0.2000  1.6754
   67SAPC    C3 5580   2.148   4.722   3.806  0.4717 -0.4972 -0.2406
   67SAPC    HX 5581   2.186   4.690   3.706 -1.6722 -0.4473 -1.1303
   67SAPC    HY 5582   2.056   4.661   3.813  0.4407 -0.4084  0.1435
   67SAPC   O31 5583   2.243   4.693   3.912  0.1685  0.9447  0.2384
   67SAPC   C31 5584   2.212   4.681   4.044  0.9950  0.1687  0.4433
   67SAPC   O32 5585   2.096   4.680   4.085 -0.3103 -0.1493  0.1124
   67SAPC   C32 5586   2.337   4.674   4.129 -0.2259 -0.0811  0.7149
   67SAPC   H2X 5587   2.414   4.736   4.079  3.1251 -1.2339  4.0221
   67SAPC   H2Y 5588   2.386   4.575   4.132  2.1770  1.0638  1.0445
   67SAPC   C23 5589   1.762   5.079   4.002  0.4448 -0.4123  0.6168
   67SAPC   H3R 5590   1.729   5.144   4.086  2.2511  1.1612  0.1811
   67SAPC   H3S 5591   1.675   5.033   3.950  1.0591  1.3454 -2.2258
   67SAPC   C24 5592   1.813   5.187   3.904  0.2781 -0.4867 -0.0714
   67SAPC   H4R 5593   1.877   5.152   3.820  1.5481  1.0183  0.2250
   67SAPC   H4S 5594   1.880   5.262   3.952  0.7156  0.0395 -1.4514
   67SAPC   C25 5595   1.690   5.256   3.848 -0.0196  0.5755 -0.2827
   67SAPC   H5R 5596   1.639   5.224   3.756  0.7849  1.1994 -0.9615
   67SAPC   C26 5597   1.635   5.364   3.907 -0.4555  0.1877 -0.7677
   67SAPC   H6R 5598   1.546   5.409   3.861 -0.7216  2.2168  1.5167
   67SAPC   C27 5599   1.688   5.438   4.029 -1.2114 -0.4377 -0.2290
   67SAPC   H7R 5600   1.737   5.362   4.092 -1.4953 -1.0584 -0.7400
   67SAPC   H7S 5601   1.605   5.485   4.086  0.6684  1.0082  1.4389
   67SAPC   C28 5602   1.785   5.552   3.999 -0.1950  0.2691 -0.1797
   67SAPC   H8R 5603   1.826   5.565   3.898  0.3710 -2.6744 -0.4285
   67SAPC   C29 5604   1.850   5.617   4.098  0.2624  0.4677 -0.2925
   67SAPC   H9R 5605   1.905   5.709   4.073 -1.6342  1.4137 -1.2209
   67SAPC  C210 5606   1.829   5.596   4.243 -0.0143 -0.5729 -0.5782
   67SAPC  H10R 5607   1.722   5.565   4.250  0.0154 -0.4535  0.6277
   67SAPC  H10S 5608   1.845   5.694   4.292 -1.6776 -0.4994 -0.0957
   67SAPC  C211 5609   1.922   5.490   4.306  1.2692 -0.3111  0.7436
   67SAPC  H11R 5610   1.936   5.398   4.248 -1.3916  0.8347 -2.0314
   67SAPC  C212 5611   1.982   5.503   4.424  0.2828 -0.0274  0.4657
   67SAPC  H12R 5612   2.044   5.422   4.465  2.0092  1.1611  0.3596
   67SAPC  C213 5613   1.964   5.629   4.503 -0.7531 -0.6296 -0.0354
   67SAPC  H13R 5614   1.869   5.687   4.506  0.8505  2.2721 -1.2772
   67SAPC  H13S 5615   2.027   5.712   4.466 -0.2913 -0.8199  0.3176
   67SAPC  C214 5616   1.997   5.603   4.645 -0.0782  0.5978 -0.2969
   67SAPC  H14R 5617   1.915   5.547   4.693 -0.7167  0.4116 -1.5557
   67SAPC  C215 5618   2.114   5.631   4.709 -0.2692 -0.3374  0.5116
   67SAPC  H15R 5619   2.120   5.604   4.815  0.5204  0.6793  0.7454
   67SAPC  C216 5620   2.230   5.712   4.665 -0.3589 -0.1205  0.1767
   67SAPC  H16R 5621   2.210   5.734   4.558 -1.9315  0.8717  0.6425
   67SAPC  H16S 5622   2.327   5.659   4.673  1.0831  2.3692  0.2856
   67SAPC  C217 5623   2.257   5.847   4.739  0.2259  0.2782 -0.3235
   67SAPC  H17R 5624   2.179   5.925   4.747  2.8383  2.9962  0.4193
   67SAPC  H17S 5625   2.341   5.888   4.679  0.0124 -0.1194 -0.9094
   67SAPC  C218 5626   2.302   5.812   4.881 -0.9026 -0.1330  0.6232
   67SAPC  H18R 5627   2.222   5.786   4.954 -0.3134  3.8613  2.9717
   67SAPC  H18S 5628   2.344   5.907   4.921  0.7964 -1.5221  2.2746
   67SAPC  C219 5629   2.421   5.719   4.894 -0.3189  0.3795  0.0144
   67SAPC  H19R 5630   2.501   5.750   4.824  0.4530  3.1786  1.9319
   67SAPC  H19S 5631   2.393   5.616   4.864  1.0924 -0.4349  1.2930
   67SAPC  C220 5632   2.474   5.697   5.033 -0.4214  0.0251 -0.6699
   67SAPC  H20R 5633   2.556   5.623   5.035 -0.7356 -0.5956  4.5798
   67SAPC  H20S 5634   2.402   5.661   5.110  1.1624 -0.0621  0.8428
   67SAPC  H20T 5635   2.503   5.799   5.068 -0.2289 -0.2791  0.0730
   67SAPC   C33 5636   2.317   4.721   4.270 -0.4335 -0.5051 -0.8384
   67SAPC   H3X 5637   2.258   4.814   4.285 -0.7667 -0.9383  0.7086
   67SAPC   H3Y 5638   2.420   4.738   4.308 -0.7057  2.0454 -1.0405
   67SAPC   C34 5639   2.263   4.614   4.360 -0.0531  0.2230  0.1862
   67SAPC   H4X 5640   2.341   4.535   4.363  1.4669  1.6256 -0.7157
   67SAPC   H4Y 5641   2.176   4.564   4.313 -0.4925  1.0909  0.0568
   67SAPC   C35 5642   2.223   4.662   4.493  0.0471 -0.0277 -0.4546
   67SAPC   H5X 5643   2.174   4.576   4.543  0.8227  0.5284  1.3303
   67SAPC   H5Y 5644   2.143   4.738   4.481 -1.7557 -1.7092  0.3934
   67SAPC   C36 5645   2.326   4.724   4.584  0.4345  0.3722  0.4889
   67SAPC   H6X 5646   2.376   4.815   4.544 -0.8127  1.6668  1.7297
   67SAPC   H6Y 5647   2.406   4.650   4.606 -0.7828 -1.7424 -1.7523
   67SAPC   C37 5648   2.264   4.766   4.715  0.3978 -1.0236  0.7160
   67SAPC   H7X 5649   2.177   4.831   4.696  0.7052 -0.6929  0.4299
   67SAPC   H7Y 5650   2.342   4.829   4.763 -1.5912  1.1826  1.2431
   67SAPC   C38 5651   2.229   4.653   4.808 -0.3830  0.9078  0.2007
   67SAPC   H8X 5652   2.322   4.600   4.837 -0.8497 -0.2211 -0.2557
   67SAPC   H8Y 5653   2.168   4.566   4.775  1.0367 -0.0445 -0.0017
   67SAPC   C39 5654   2.166   4.715   4.935  0.2012  0.1928  0.1064
   67SAPC   H9X 5655   2.147   4.632   5.006  0.6634  1.7999  2.1881
   67SAPC   H9Y 5656   2.065   4.750   4.906 -0.2566 -1.4094 -0.3077
   67SAPC  C310 5657   2.257   4.829   4.998  0.4670 -0.3103  0.1305
   67SAPC  H10X 5658   2.237   4.912   4.927 -0.8496 -1.2548 -0.6741
   67SAPC  H10Y 5659   2.363   4.798   5.001  0.4506 -0.3307  0.5031
   67SAPC  C311 5660   2.214   4.876   5.132  0.2459 -0.0423 -0.2062
   67SAPC  H11X 5661   2.207   4.786   5.196 -0.7211  0.4600  0.4301
   67SAPC  H11Y 5662   2.116   4.929   5.121  0.2060 -0.2439 -0.9111
   67SAPC  C312 5663   2.309   4.974   5.208 -0.0649  0.3573  0.1037
   67SAPC  H12X 5664   2.331   5.056   5.137  0.8233  0.6462  0.6905
   67SAPC  H12Y 5665   2.402   4.919   5.234 -0.6451 -0.4391  0.5458
   67SAPC  C313 5666   2.235   5.034   5.328 -0.5315 -0.6086  0.1611
   67SAPC  H13X 5667   2.193   4.949   5.386  1.4284 -0.2324  2.2709
   67SAPC  H13Y 5668   2.154   5.097   5.285  0.9933  2.1018  0.9780
   67SAPC  C314 5669   2.311   5.137   5.417 -0.1005  0.9005 -0.4763
   67SAPC  H14X 5670   2.350   5.223   5.359 -0.6099  0.4268 -1.5559
   67SAPC  H14Y 5671   2.402   5.095   5.465  0.0136  1.9722  0.2622
   67SAPC  C315 5672   2.214   5.188   5.526  0.4045  0.3898 -0.3833
   67SAPC  H15X 5673   2.185   5.091   5.570  4.0573  0.0735  1.8165
   67SAPC  H15Y 5674   2.135   5.250   5.479  0.9954  1.2317 -0.2997
   67SAPC  C316 5675   2.302   5.275   5.619  0.0103 -0.4296 -0.0954
   67SAPC  H16X 5676   2.400   5.295   5.572  1.1118 -2.1003  1.3562
   67SAPC  H16Y 5677   2.335   5.221   5.710  0.4377 -1.1512 -0.6695
   67SAPC  C317 5678   2.229   5.405   5.656  0.0707  0.2048  0.2418
   67SAPC  H17X 5679   2.142   5.383   5.721  0.1594 -0.2810  0.1941
   67SAPC  H17Y 5680   2.187   5.459   5.569  1.1067  1.7693  0.6656
   67SAPC  C318 5681   2.309   5.518   5.724 -0.0255  0.2365  0.1159
   67SAPC  H18X 5682   2.241   5.592   5.772 -2.0418 -0.3035 -1.7519
   67SAPC  H18Y 5683   2.375   5.567   5.650 -1.1542  0.0782 -1.0157
   67SAPC  H18Z 5684   2.372   5.481   5.809  1.5499  2.8658  0.1838
   68SAPC     N 5685   4.335   0.648   3.818  0.5817  0.0034  0.2284
   68SAPC   C12 5686   4.305   0.796   3.807 -0.2461 -1.0230 -0.4084
   68SAPC  H12A 5687   4.330   0.832   3.708  0.8028 -0.6451 -0.0216
   68SAPC  H12B 5688   4.362   0.849   3.882 -0.8961  0.0279 -0.6430
   68SAPC   C13 5689   4.472   0.605   3.761  0.3094 -0.1717 -0.2282
   68SAPC  H13A 5690   4.549   0.629   3.833 -0.6291  1.1657  0.3585
   68SAPC  H13B 5691   4.474   0.497   3.757  1.0097 -0.1605 -0.3935
   68SAPC  H13C 5692   4.489   0.658   3.668 -0.6828  2.1699  0.8676
   68SAPC   C14 5693   4.336   0.610   3.962  0.2688  0.3617 -0.6612
   68SAPC  H14A 5694   4.424   0.639   4.017  0.2084 -1.2808  0.3493
   68SAPC  H14B 5695   4.250   0.645   4.018  0.4443 -1.5740  0.9316
   68SAPC  H14C 5696   4.352   0.504   3.970  2.6886  0.7435  0.2971
   68SAPC   C15 5697   4.231   0.578   3.740  0.1417  0.5364  0.2101
   68SAPC  H15A 5698   4.253   0.473   3.728  1.1548  0.8882 -1.2367
   68SAPC  H15B 5699   4.142   0.602   3.796  0.9428  0.8282  1.4042
   68SAPC  H15C 5700   4.217   0.629   3.646 -0.1773  0.6510  0.3197
   68SAPC   C11 5701   4.157   0.849   3.846  0.0237 -0.3166  0.1784
   68SAPC  H11A 5702   4.097   0.807   3.762  0.3295  1.5283 -1.0172
   68SAPC  H11B 5703   4.142   0.956   3.820 -0.5229 -0.6552 -0.9988
   68SAPC     P 5704   4.109   0.908   4.104 -0.0070  0.5358  0.5000
   68SAPC   O13 5705   4.245   0.933   4.145 -0.8276 -0.0345  0.2170
   68SAPC   O14 5706   4.019   1.025   4.084  0.2558  0.3065 -0.8605
   68SAPC   O12 5707   4.103   0.820   3.975 -0.2214 -0.3291  0.6663
   68SAPC   O11 5708   4.043   0.813   4.211  0.1308 -1.3417  0.5868
   68SAPC    C1 5709   3.907   0.778   4.204  0.3138 -0.1755 -0.2725
   68SAPC    HA 5710   3.851   0.870   4.229  0.9556  0.5167 -1.3221
   68SAPC    HB 5711   3.879   0.755   4.099  1.2021  1.4095 -0.8918
   68SAPC    C2 5712   3.866   0.663   4.306 -0.5316 -0.1499 -0.2676
   68SAPC    HS 5713   3.759   0.649   4.281 -0.1286  1.6199 -3.5269
   68SAPC   O21 5714   3.885   0.724   4.440  0.2635 -0.1599 -0.3567
   68SAPC   C21 5715   3.797   0.696   4.528  0.3546 -0.0467 -0.5567
   68SAPC   O22 5716   3.703   0.619   4.529  0.8532 -1.1481  0.3773
   68SAPC   C22 5717   3.842   0.769   4.655 -0.8238 -0.3753  0.5265
   68SAPC   H2R 5718   3.952   0.758   4.666 -0.9077 -1.0813  0.6519
   68SAPC   H2S 5719   3.830   0.878   4.636 -0.9515 -0.0731  2.1442
   68SAPC    C3 5720   3.941   0.529   4.282 -0.1339  0.2323 -0.2285
   68SAPC    HX 5721   4.050   0.538   4.297 -0.1046 -3.2502  3.0398
   68SAPC    HY 5722   3.925   0.523   4.172 -0.6949  1.5670 -0.2428
   68SAPC   O31 5723   3.884   0.404   4.339 -0.0159  0.1932  0.1309
   68SAPC   C31 5724   3.922   0.370   4.460 -0.4967 -0.7898 -0.0665
   68SAPC   O32 5725   3.999   0.436   4.530  0.1617  0.3280 -0.5634
   68SAPC   C32 5726   3.858   0.235   4.495  0.1935 -0.3509 -0.0666
   68SAPC   H2X 5727   3.901   0.194   4.588 -0.0989 -1.7371 -0.5148
   68SAPC   H2Y 5728   3.880   0.169   4.408  1.1849 -0.2794  0.1260
   68SAPC   C23 5729   3.767   0.738   4.789  0.2465 -0.4391 -0.3777
   68SAPC   H3R 5730   3.772   0.629   4.807 -0.4379  0.0274  3.3222
   68SAPC   H3S 5731   3.662   0.767   4.768 -0.0764 -0.9571  0.4835
   68SAPC   C24 5732   3.834   0.804   4.909 -0.4119 -0.3087 -0.5304
   68SAPC   H4R 5733   3.787   0.757   4.998 -1.5320  0.3603 -0.7503
   68SAPC   H4S 5734   3.793   0.907   4.916  0.8211  0.1338  0.6613
   68SAPC   C25 5735   3.987   0.819   4.919 -0.6219  0.3777 -0.3046
   68SAPC   H5R 5736   4.027   0.896   4.851 -2.2019  0.4937 -1.1334
   68SAPC   C26 5737   4.062   0.782   5.019 -0.1301 -0.0948  0.3447
   68SAPC   H6R 5738   4.171   0.795   5.014  0.4160 -3.8479 -0.4195
   68SAPC   C27 5739   4.015   0.690   5.130 -0.3355 -0.0286  0.7409
   68SAPC   H7R 5740   4.098   0.617   5.142  0.6381  0.9345  0.0944
   68SAPC   H7S 5741   3.918   0.639   5.112  0.2005 -1.5329  1.8478
   68SAPC   C28 5742   4.000   0.779   5.253  0.1392 -0.2770 -0.4073
   68SAPC   H8R 5743   4.037   0.881   5.236  3.0421 -1.3781 -1.2463
   68SAPC   C29 5744   4.000   0.732   5.382 -0.0838  0.3380 -0.3707
   68SAPC   H9R 5745   3.994   0.798   5.469 -0.4022 -0.2175  0.0335
   68SAPC  C210 5746   3.988   0.590   5.414 -0.1736  0.2362  0.1416
   68SAPC  H10R 5747   3.923   0.545   5.337 -2.0233  1.1279  1.0941
   68SAPC  H10S 5748   3.929   0.568   5.506 -0.0357 -0.9397 -0.0437
   68SAPC  C211 5749   4.120   0.514   5.426  0.4051 -0.0753 -0.4682
   68SAPC  H11R 5750   4.149   0.455   5.338  1.1102  0.2179 -0.4442
   68SAPC  C212 5751   4.191   0.473   5.538 -0.5865  0.3895 -0.6418
   68SAPC  H12R 5752   4.287   0.419   5.533  0.8752  2.7379  0.4567
   68SAPC  C213 5753   4.173   0.516   5.680 -0.5547  0.5327 -0.4330
   68SAPC  H13R 5754   4.243   0.454   5.739 -1.6969 -1.3508 -0.9883
   68SAPC  H13S 5755   4.070   0.485   5.709  0.0239 -0.6623  0.4112
   68SAPC  C214 5756   4.182   0.662   5.723  0.1949  0.8470 -0.1004
   68SAPC  H14R 5757   4.142   0.724   5.642 -0.1615 -1.2502 -1.6113
   68SAPC  C215 5758   4.227   0.713   5.837  0.0351  0.8532 -0.0006
   68SAPC  H15R 5759   4.248   0.820   5.829  3.6850  0.2756  0.2250
   68SAPC  C216 5760   4.284   0.626   5.948  0.2682 -0.1477 -0.3325
   68SAPC  H16R 5761   4.344   0.542   5.908 -1.0912 -0.1265 -2.5898
   68SAPC  H16S 5762   4.209   0.569   6.007 -0.4362  0.1632 -0.9214
   68SAPC  C217 5763   4.371   0.708   6.048  0.3236  0.3000  0.1322
   68SAPC  H17R 5764   4.315   0.781   6.110  0.4129  1.1551 -0.7677
   68SAPC  H17S 5765   4.448   0.769   5.996  1.2080 -0.2822  0.7165
   68SAPC  C218 5766   4.442   0.620   6.148  0.2868 -0.3874  0.7777
   68SAPC  H18R 5767   4.486   0.536   6.090  0.5540 -0.9349  1.7602
   68SAPC  H18S 5768   4.355   0.584   6.207 -1.0663  0.6965 -0.4721
   68SAPC  C219 5769   4.549   0.685   6.234  0.3577 -0.5271 -0.1117
   68SAPC  H19R 5770   4.504   0.780   6.270 -1.3427 -1.5994  0.7393
   68SAPC  H19S 5771   4.633   0.718   6.170 -0.4026  2.1324  0.1411
   68SAPC  C220 5772   4.589   0.605   6.356  0.0973  0.0403 -0.7827
   68SAPC  H20R 5773   4.502   0.571   6.416  1.4683  1.5830  2.3282
   68SAPC  H20S 5774   4.654   0.657   6.430 -0.2497 -2.0106  1.0692
   68SAPC  H20T 5775   4.656   0.523   6.320  0.3705  0.1757 -0.5866
   68SAPC   C33 5776   3.698   0.244   4.520 -0.0370  0.4246  0.6862
   68SAPC   H3X 5777   3.658   0.141   4.514 -1.5366  1.0741 -1.5510
   68SAPC   H3Y 5778   3.666   0.306   4.433  1.1177 -0.3608 -0.3287
   68SAPC   C34 5779   3.666   0.322   4.651 -0.5198  0.1048  0.6051
   68SAPC   H4X 5780   3.561   0.361   4.653 -1.2241 -1.5657 -1.1747
   68SAPC   H4Y 5781   3.727   0.415   4.657 -1.5452  0.9284 -0.8705
   68SAPC   C35 5782   3.687   0.241   4.777  0.2276  0.1766  1.0267
   68SAPC   H5X 5783   3.775   0.173   4.782 -0.1114 -0.7296 -2.7951
   68SAPC   H5Y 5784   3.602   0.171   4.793 -0.2654  0.5557  0.1067
   68SAPC   C36 5785   3.713   0.319   4.907 -0.0813 -0.1396  0.0768
   68SAPC   H6X 5786   3.634   0.387   4.944 -0.9400 -0.2537 -1.4739
   68SAPC   H6Y 5787   3.808   0.376   4.907  1.0705 -1.8541  2.7641
   68SAPC   C37 5788   3.731   0.232   5.037 -0.1003 -0.1280 -0.5166
   68SAPC   H7X 5789   3.837   0.204   5.056 -1.3466 -3.0033  3.7439
   68SAPC   H7Y 5790   3.677   0.135   5.032  0.5184 -0.5084  0.0240
   68SAPC   C38 5791   3.685   0.303   5.170 -0.1531 -0.0341  0.2807
   68SAPC   H8X 5792   3.574   0.308   5.171 -0.5318 -4.3813  1.1516
   68SAPC   H8Y 5793   3.738   0.400   5.172 -0.1313 -0.0604  0.9743
   68SAPC   C39 5794   3.742   0.227   5.294  0.0606 -1.0097  0.0956
   68SAPC   H9X 5795   3.853   0.229   5.286  0.1469 -1.3885  1.0196
   68SAPC   H9Y 5796   3.713   0.120   5.289  1.8101 -1.4470 -1.5467
   68SAPC  C310 5797   3.703   0.299   5.425  0.1113  0.2576 -0.1950
   68SAPC  H10X 5798   3.593   0.315   5.425  0.0284 -0.2712 -0.4037
   68SAPC  H10Y 5799   3.739   0.403   5.420 -1.1807  0.7140 -0.3864
   68SAPC  C311 5800   3.752   0.228   5.552  0.3304  0.0588 -0.6661
   68SAPC  H11X 5801   3.858   0.196   5.548 -0.0597 -1.5234  0.4439
   68SAPC  H11Y 5802   3.688   0.137   5.557  0.9229 -0.4812 -2.3701
   68SAPC  C312 5803   3.731   0.321   5.674  0.0262 -0.0976 -0.2825
   68SAPC  H12X 5804   3.625   0.348   5.693  0.8656  2.5538  1.0623
   68SAPC  H12Y 5805   3.797   0.409   5.658  1.8548 -1.5284 -0.9718
   68SAPC  C313 5806   3.782   0.255   5.799 -0.3781 -0.6631 -0.2374
   68SAPC  H13X 5807   3.872   0.194   5.776 -0.1785 -0.8114  0.8786
   68SAPC  H13Y 5808   3.699   0.193   5.839 -0.5877  0.2722  0.8139
   68SAPC  C314 5809   3.823   0.361   5.904  0.4768 -0.2601 -0.5534
   68SAPC  H14X 5810   3.750   0.445   5.904  1.2627  0.4453  0.9778
   68SAPC  H14Y 5811   3.920   0.411   5.886 -0.1472  1.3084  0.2607
   68SAPC  C315 5812   3.836   0.300   6.041 -0.0560 -0.1116  0.0283
   68SAPC  H15X 5813   3.908   0.216   6.034 -0.4171 -0.3135 -1.8098
   68SAPC  H15Y 5814   3.736   0.255   6.062 -0.0011 -0.1790  0.1469
   68SAPC  C316 5815   3.873   0.397   6.150 -0.4614 -0.0511  0.3703
   68SAPC  H16X 5816   3.784   0.463   6.155 -0.0503  0.4612  1.3454
   68SAPC  H16Y 5817   3.960   0.462   6.125  1.1211 -1.6047  1.5251
   68SAPC  C317 5818   3.905   0.336   6.287  0.4237 -0.7088 -0.4989
   68SAPC  H17X 5819   3.994   0.270   6.284  1.3725  0.5455 -0.6284
   68SAPC  H17Y 5820   3.822   0.268   6.314 -1.3601  0.6381 -2.2658
   68SAPC  C318 5821   3.928   0.439   6.398 -0.5704 -0.2879 -0.1488
   68SAPC  H18X 5822   3.847   0.513   6.385 -0.1185  0.7085  2.2229
   68SAPC  H18Y 5823   4.024   0.495   6.394 -1.2055  0.8055 -0.2495
   68SAPC  H18Z 5824   3.917   0.401   6.501 -2.2971 -0.0355 -0.2107
   69SAPC     N 5825   1.633   3.924   3.548  0.1053 -0.2000  0.5878
   69SAPC   C12 5826   1.547   4.014   3.636  0.0103  0.2378 -0.6918
   69SAPC  H12A 5827   1.459   3.958   3.664 -0.2091  0.2852 -1.2851
   69SAPC  H12B 5828   1.525   4.108   3.590  0.2785  0.8975  0.4801
   69SAPC   C13 5829   1.773   3.978   3.551  0.5050  0.1437  1.2376
   69SAPC  H13A 5830   1.829   3.907   3.492 -1.1050  0.1724 -0.4498
   69SAPC  H13B 5831   1.785   4.077   3.509 -0.2650 -0.1453  0.2961
   69SAPC  H13C 5832   1.816   3.983   3.650  0.3238 -0.9510  1.3826
   69SAPC   C14 5833   1.637   3.787   3.608  0.8860  0.0557  0.2568
   69SAPC  H14A 5834   1.538   3.743   3.601  0.3026  1.2116  0.9134
   69SAPC  H14B 5835   1.717   3.723   3.574  3.2140  3.0810 -0.4054
   69SAPC  H14C 5836   1.657   3.793   3.714  1.6310 -0.9789  0.1875
   69SAPC   C15 5837   1.584   3.922   3.408 -0.1057 -0.0060 -0.2237
   69SAPC  H15A 5838   1.592   4.020   3.364 -1.1660  0.9750  1.6149
   69SAPC  H15B 5839   1.643   3.856   3.346 -1.3898 -2.2951  0.8624
   69SAPC  H15C 5840   1.479   3.902   3.397 -0.4350  0.9018  1.0049
   69SAPC   C11 5841   1.598   4.064   3.775  0.2567  0.2733  0.0111
   69SAPC  H11A 5842   1.524   4.145   3.792 -0.2124  0.2183 -1.5827
   69SAPC  H11B 5843   1.699   4.106   3.756  0.3799  1.0406  2.1066
   69SAPC     P 5844   1.449   3.922   3.934  0.1662  0.0588 -0.0086
   69SAPC   O13 5845   1.388   4.043   3.993  0.1528  0.6287 -0.0548
   69SAPC   O14 5846   1.372   3.849   3.834  1.2529 -0.7961 -0.1081
   69SAPC   O12 5847   1.587   3.957   3.874 -0.0197 -0.0561 -0.1315
   69SAPC   O11 5848   1.484   3.827   4.057  0.4268 -0.6246 -0.3067
   69SAPC    C1 5849   1.593   3.866   4.135 -0.8897 -0.2169  0.0056
   69SAPC    HA 5850   1.690   3.822   4.102 -1.2658 -0.3530 -0.9528
   69SAPC    HB 5851   1.625   3.969   4.111  0.8487 -0.7380 -0.0656
   69SAPC    C2 5852   1.564   3.856   4.286 -0.2705 -0.6670 -0.1844
   69SAPC    HS 5853   1.541   3.752   4.319  0.8595 -0.6685  0.6646
   69SAPC   O21 5854   1.460   3.945   4.315  0.6144 -0.3232 -0.0595
   69SAPC   C21 5855   1.339   3.887   4.308 -0.9126 -0.9570 -0.4551
   69SAPC   O22 5856   1.318   3.772   4.276 -0.6601 -0.1131 -0.5264
   69SAPC   C22 5857   1.239   3.992   4.324  0.1712  0.4222  0.0094
   69SAPC   H2R 5858   1.291   4.084   4.357  0.1069  0.2556  0.5867
   69SAPC   H2S 5859   1.202   4.019   4.223  0.9945  0.9279 -0.1639
   69SAPC    C3 5860   1.695   3.897   4.378 -0.4570 -0.4385 -0.7826
   69SAPC    HX 5861   1.710   4.007   4.383 -0.1214 -0.4305 -1.7162
   69SAPC    HY 5862   1.777   3.864   4.311 -0.4145 -0.6599 -0.6209
   69SAPC   O31 5863   1.697   3.839   4.512 -0.1847 -0.2222  0.2487
   69SAPC   C31 5864   1.744   3.714   4.530 -0.0624 -0.3495  0.4244
   69SAPC   O32 5865   1.782   3.638   4.443 -0.3111  0.8788  0.3338
   69SAPC   C32 5866   1.746   3.697   4.679  0.5320 -0.1750  1.1503
   69SAPC   H2X 5867   1.641   3.718   4.710 -0.4908  0.8731 -2.5280
   69SAPC   H2Y 5868   1.815   3.773   4.722  0.5548  1.0997 -0.9834
   69SAPC   C23 5869   1.126   3.945   4.419 -0.2300 -0.6928  0.1134
   69SAPC   H3R 5870   1.078   3.849   4.389  1.3218 -1.4822  0.0849
   69SAPC   H3S 5871   1.046   4.018   4.395  1.2022  1.4125  1.4064
   69SAPC   C24 5872   1.147   3.959   4.574  1.1590  0.1612 -0.5539
   69SAPC   H4R 5873   1.054   3.948   4.633  0.9047 -2.2658 -1.3103
   69SAPC   H4S 5874   1.197   4.056   4.598  4.3106 -1.0395 -1.7634
   69SAPC   C25 5875   1.235   3.847   4.621  0.1703  0.5246 -0.2575
   69SAPC   H5R 5876   1.210   3.747   4.584 -1.2266  1.8181 -3.1560
   69SAPC   C26 5877   1.352   3.864   4.678 -0.5751 -0.6360  0.0962
   69SAPC   H6R 5878   1.415   3.774   4.678  0.2543 -0.0647  0.0893
   69SAPC   C27 5879   1.404   3.999   4.726 -0.5737 -0.6700  0.4124
   69SAPC   H7R 5880   1.322   4.042   4.787  0.2841  1.3513  0.1986
   69SAPC   H7S 5881   1.422   4.071   4.644  1.3830  0.1379  1.4973
   69SAPC   C28 5882   1.533   3.994   4.798 -0.2801  0.4538 -0.1772
   69SAPC   H8R 5883   1.629   3.999   4.743 -0.5264  1.9462 -0.5138
   69SAPC   C29 5884   1.536   3.968   4.927  0.3521 -0.0288 -0.9379
   69SAPC   H9R 5885   1.628   3.969   4.987  0.6876 -2.0011 -1.3708
   69SAPC  C210 5886   1.408   3.953   5.001  0.1555 -0.0909  0.5437
   69SAPC  H10R 5887   1.313   3.925   4.951 -1.6086  3.0633  1.8308
   69SAPC  H10S 5888   1.398   4.055   5.044 -0.1840  0.6736 -1.2528
   69SAPC  C211 5889   1.444   3.854   5.112  0.2846 -0.3518 -0.2768
   69SAPC  H11R 5890   1.454   3.751   5.075 -0.2391 -1.0930  1.5375
   69SAPC  C212 5891   1.466   3.880   5.242  0.2922 -0.1197 -0.2344
   69SAPC  H12R 5892   1.486   3.803   5.318  0.9407 -1.0862 -1.3393
   69SAPC  C213 5893   1.467   4.022   5.304  0.1268 -0.1451 -0.2692
   69SAPC  H13R 5894   1.435   4.012   5.409 -0.8606  1.3654 -0.3855
   69SAPC  H13S 5895   1.384   4.079   5.257 -0.3526 -0.7850 -0.2107
   69SAPC  C214 5896   1.602   4.097   5.290  0.0588  0.4972 -0.8283
   69SAPC  H14R 5897   1.673   4.047   5.222  0.4384  1.8732 -1.4650
   69SAPC  C215 5898   1.639   4.215   5.338 -0.3994 -0.4599 -0.2591
   69SAPC  H15R 5899   1.739   4.256   5.319 -0.7349  1.2211  1.3678
   69SAPC  C216 5900   1.544   4.303   5.422  0.4796  0.0820 -0.9001
   69SAPC  H16R 5901   1.437   4.274   5.419  0.3408  0.4935 -0.1962
   69SAPC  H16S 5902   1.548   4.407   5.385  1.3111 -0.5449 -2.6982
   69SAPC  C217 5903   1.591   4.312   5.569  0.0913  0.1743  0.3466
   69SAPC  H17R 5904   1.698   4.341   5.573 -0.7554  3.7105  0.2707
   69SAPC  H17S 5905   1.572   4.214   5.617  0.5464  1.5428  3.6179
   69SAPC  C218 5906   1.519   4.419   5.647 -0.8907 -0.1991 -0.3915
   69SAPC  H18R 5907   1.409   4.416   5.627 -0.8965 -2.3764 -0.2490
   69SAPC  H18S 5908   1.549   4.517   5.605  1.9166 -0.6459  0.4094
   69SAPC  C219 5909   1.561   4.425   5.795  0.0520  0.5725  0.1192
   69SAPC  H19R 5910   1.672   4.412   5.793 -0.1261 -1.1972  0.0589
   69SAPC  H19S 5911   1.528   4.339   5.857  0.5800  0.4993  0.3015
   69SAPC  C220 5912   1.528   4.556   5.863  0.7638 -0.5755  0.3961
   69SAPC  H20R 5913   1.583   4.573   5.958 -0.1139 -0.1666  0.8411
   69SAPC  H20S 5914   1.421   4.570   5.891  1.2165 -0.3475  2.1706
   69SAPC  H20T 5915   1.545   4.637   5.790  1.3947  0.2865  1.4630
   69SAPC   C33 5916   1.774   3.549   4.720  0.4017 -0.2201 -0.4621
   69SAPC   H3X 5917   1.877   3.507   4.717  0.6382  0.0200  2.0385
   69SAPC   H3Y 5918   1.726   3.487   4.642  0.6637 -0.2076 -0.6352
   69SAPC   C34 5919   1.710   3.504   4.850  0.1457 -0.2561 -0.2216
   69SAPC   H4X 5920   1.748   3.400   4.865  1.2132  0.4223  2.4135
   69SAPC   H4Y 5921   1.601   3.525   4.853  0.5386  2.2472 -1.2279
   69SAPC   C35 5922   1.755   3.589   4.970 -0.5701 -0.4379 -0.4790
   69SAPC   H5X 5923   1.731   3.697   4.968  3.7019  0.7183  0.3614
   69SAPC   H5Y 5924   1.866   3.586   4.964 -0.5454 -1.3470  0.2131
   69SAPC   C36 5925   1.714   3.539   5.113 -0.8083 -0.4495  0.3401
   69SAPC   H6X 5926   1.731   3.429   5.110  0.8862 -0.2056 -0.4032
   69SAPC   H6Y 5927   1.609   3.572   5.125 -0.8097 -0.1520 -0.4120
   69SAPC   C37 5928   1.805   3.598   5.219  0.3108 -0.0166  0.0488
   69SAPC   H7X 5929   1.791   3.708   5.213  3.4851  0.4650 -0.3563
   69SAPC   H7Y 5930   1.911   3.572   5.198  0.2646 -0.7231  0.6328
   69SAPC   C38 5931   1.763   3.559   5.358 -0.3857 -0.7480 -0.3444
   69SAPC   H8X 5932   1.794   3.453   5.376 -1.9218 -1.0650  0.6777
   69SAPC   H8Y 5933   1.652   3.559   5.359 -0.5002 -0.9477 -3.3541
   69SAPC   C39 5934   1.822   3.641   5.476  0.4236 -0.6601 -0.2284
   69SAPC   H9X 5935   1.932   3.655   5.468  0.0099  3.1285 -1.2545
   69SAPC   H9Y 5936   1.793   3.571   5.558 -0.0094  0.3323  0.4867
   69SAPC  C310 5937   1.757   3.784   5.495  0.0170 -0.3580 -0.3147
   69SAPC  H10X 5938   1.647   3.773   5.482 -0.6022 -1.6130  4.2582
   69SAPC  H10Y 5939   1.799   3.857   5.423 -0.6199 -1.0457 -1.4000
   69SAPC  C311 5940   1.776   3.836   5.641 -0.3719 -0.6140 -0.3546
   69SAPC  H11X 5941   1.884   3.829   5.667 -0.5667 -5.0581  0.0459
   69SAPC  H11Y 5942   1.717   3.775   5.713  1.3411 -0.8370  0.9300
   69SAPC  C312 5943   1.724   3.975   5.665 -0.5223  0.7066  0.1402
   69SAPC  H12X 5944   1.613   3.972   5.673 -0.4639 -1.0225  0.6982
   69SAPC  H12Y 5945   1.757   4.038   5.580 -0.3661  0.1386 -0.2246
   69SAPC  C313 5946   1.786   4.036   5.789  0.1400  0.0316 -0.4487
   69SAPC  H13X 5947   1.762   4.145   5.796 -0.9219  0.1128 -3.5334
   69SAPC  H13Y 5948   1.897   4.036   5.782  0.2925 -4.7757 -1.4558
   69SAPC  C314 5949   1.742   3.957   5.913  0.3942 -0.7032  0.0600
   69SAPC  H14X 5950   1.793   3.998   6.002  0.1213  1.9191 -0.9265
   69SAPC  H14Y 5951   1.758   3.848   5.896  0.4131 -0.6513 -0.2568
   69SAPC  C315 5952   1.587   3.957   5.935 -0.7035  0.3004 -0.6262
   69SAPC  H15X 5953   1.532   3.886   5.870 -0.8851  1.1945 -1.4805
   69SAPC  H15Y 5954   1.542   4.057   5.916 -0.5698  0.5803  0.4552
   69SAPC  C316 5955   1.553   3.916   6.082  1.0853  0.0038  0.3112
   69SAPC  H16X 5956   1.574   4.005   6.145 -1.1468  1.2453 -0.5760
   69SAPC  H16Y 5957   1.602   3.820   6.110 -1.6909 -1.5727  0.1787
   69SAPC  C317 5958   1.402   3.874   6.088 -0.2350 -0.4472 -0.1395
   69SAPC  H17X 5959   1.383   3.831   6.188 -0.9626 -0.6901 -0.3731
   69SAPC  H17Y 5960   1.367   3.797   6.015 -1.0596  0.1085 -0.3458
   69SAPC  C318 5961   1.301   4.001   6.069 -0.1446 -0.2790 -0.2620
   69SAPC  H18X 5962   1.272   4.016   5.963 -2.8081  1.9732  0.6753
   69SAPC  H18Y 5963   1.353   4.089   6.111 -1.1839 -0.8837  2.4435
   69SAPC  H18Z 5964   1.218   3.975   6.138 -0.0363  0.3863  0.1184
   70SAPC     N 5965   2.183   6.330   3.650  0.2005  0.1191 -0.2587
   70SAPC   C12 5966   2.312   6.320   3.735 -0.9287 -0.2464 -0.2853
   70SAPC  H12A 5967   2.297   6.292   3.838  0.8334 -2.1086 -0.4634
   70SAPC  H12B 5968   2.374   6.409   3.731  0.9762 -1.4201  1.4540
   70SAPC   C13 5969   2.105   6.204   3.640 -0.2991 -0.7688  0.3325
   70SAPC  H13A 5970   2.018   6.222   3.577 -0.6897 -1.4806  0.6592
   70SAPC  H13B 5971   2.164   6.127   3.594  3.9771  1.4421  1.6543
   70SAPC  H13C 5972   2.074   6.170   3.737 -1.4206  0.8949  0.6155
   70SAPC   C14 5973   2.090   6.434   3.711 -0.2689  0.1378  0.3429
   70SAPC  H14A 5974   2.066   6.417   3.815  2.2967  2.5677  1.4537
   70SAPC  H14B 5975   2.134   6.532   3.713  1.8769 -0.7859  1.4380
   70SAPC  H14C 5976   1.991   6.441   3.667  0.7879  0.2820 -2.1508
   70SAPC   C15 5977   2.219   6.366   3.511  0.0478 -0.2811  0.7823
   70SAPC  H15A 5978   2.279   6.455   3.504  2.0114 -1.6719 -1.8776
   70SAPC  H15B 5979   2.257   6.286   3.449 -0.4649  0.8924 -1.1126
   70SAPC  H15C 5980   2.125   6.389   3.463  0.5186 -0.0891 -0.0598
   70SAPC   C11 5981   2.420   6.214   3.701 -0.0545  0.1995  0.4525
   70SAPC  H11A 5982   2.500   6.236   3.775  0.2698  0.0273  0.1558
   70SAPC  H11B 5983   2.462   6.242   3.603 -0.4188  0.3737  0.3448
   70SAPC     P 5984   2.347   6.019   3.850 -0.1439  0.1236 -0.4505
   70SAPC   O13 5985   2.204   6.038   3.885  0.3296 -0.0195  0.3020
   70SAPC   O14 5986   2.393   5.876   3.858 -0.0218 -0.1106  1.0362
   70SAPC   O12 5987   2.371   6.080   3.707 -0.5312  0.4585  0.3955
   70SAPC   O11 5988   2.423   6.116   3.954  0.2040  0.2485 -0.7638
   70SAPC    C1 5989   2.539   6.077   4.017 -0.4384 -0.2171 -0.3732
   70SAPC    HA 5990   2.608   6.022   3.949 -2.6985  0.6796 -3.6031
   70SAPC    HB 5991   2.594   6.170   4.041 -0.3347 -0.3199 -0.2132
   70SAPC    C2 5992   2.507   5.991   4.138  0.3690 -1.5180  0.6649
   70SAPC    HS 5993   2.477   5.893   4.094  0.5799 -0.1109 -2.8426
   70SAPC   O21 5994   2.396   6.056   4.210 -0.2214 -0.0448  0.4175
   70SAPC   C21 5995   2.304   5.979   4.254 -0.3671  0.2647 -0.4244
   70SAPC   O22 5996   2.285   5.863   4.228 -0.3799 -0.1729  0.4035
   70SAPC   C22 5997   2.199   6.073   4.327 -0.2681  0.5763  1.0714
   70SAPC   H2R 5998   2.230   6.078   4.434  1.7280 -0.3938  0.5863
   70SAPC   H2S 5999   2.189   6.174   4.280  0.3913 -0.6000 -1.8112
   70SAPC    C3 6000   2.633   5.978   4.233 -0.0490 -0.0716  0.2837
   70SAPC    HX 6001   2.669   6.079   4.265  0.9417  0.2179 -1.5815
   70SAPC    HY 6002   2.723   5.936   4.184 -0.3471 -1.5474  0.9594
   70SAPC   O31 6003   2.605   5.900   4.352 -0.2072  0.4576  0.1094
   70SAPC   C31 6004   2.598   5.763   4.333  0.6369  0.0606 -0.0805
   70SAPC   O32 6005   2.631   5.711   4.227 -0.0112 -0.9333 -0.0060
   70SAPC   C32 6006   2.557   5.687   4.462  0.0921  0.3813  0.1019
   70SAPC   H2X 6007   2.467   5.737   4.503 -1.6477 -2.7817  0.4287
   70SAPC   H2Y 6008   2.637   5.710   4.536  0.1761 -0.6856  0.3632
   70SAPC   C23 6009   2.049   6.014   4.329 -0.5323 -0.4581 -0.6500
   70SAPC   H3R 6010   2.042   5.905   4.350 -0.1175 -0.0007  2.2925
   70SAPC   H3S 6011   2.009   6.029   4.227  1.8823 -1.7897 -1.9053
   70SAPC   C24 6012   1.963   6.087   4.434  0.1399  0.4694  0.7412
   70SAPC   H4R 6013   1.959   6.192   4.398  1.0196  0.0445 -0.6684
   70SAPC   H4S 6014   2.024   6.095   4.526 -0.7295  2.9001  1.1766
   70SAPC   C25 6015   1.832   6.018   4.447  1.1459  0.2545  0.7611
   70SAPC   H5R 6016   1.784   6.022   4.348  0.9578 -1.2139  0.7662
   70SAPC   C26 6017   1.774   5.963   4.556  0.0602 -0.4694  0.6511
   70SAPC   H6R 6018   1.671   5.926   4.542  0.2744 -1.0638  0.5867
   70SAPC   C27 6019   1.837   5.948   4.688 -0.4307  0.3532  0.3441
   70SAPC   H7R 6020   1.904   6.031   4.717 -0.0175  0.5940 -1.2436
   70SAPC   H7S 6021   1.910   5.865   4.682 -2.1579 -1.1454 -3.2945
   70SAPC   C28 6022   1.738   5.925   4.802 -0.4381 -0.7536  0.4753
   70SAPC   H8R 6023   1.635   5.957   4.782  0.1385  0.8238 -0.1075
   70SAPC   C29 6024   1.768   5.873   4.923  0.1122  0.0125  0.2888
   70SAPC   H9R 6025   1.680   5.870   4.990 -0.9532  1.7725 -0.9592
   70SAPC  C210 6026   1.890   5.808   4.973  0.1002  0.1192 -0.9541
   70SAPC  H10R 6027   1.956   5.774   4.890  0.7373 -1.2371  0.0584
   70SAPC  H10S 6028   1.860   5.713   5.023  2.4705 -0.1576  0.0940
   70SAPC  C211 6029   1.963   5.908   5.065 -0.2462  0.2207  0.3029
   70SAPC  H11R 6030   2.007   5.999   5.022 -3.3656  1.4441 -0.6130
   70SAPC  C212 6031   1.980   5.893   5.196 -0.1730 -0.6841  0.0852
   70SAPC  H12R 6032   2.042   5.960   5.256 -0.5273  0.5721 -0.9172
   70SAPC  C213 6033   1.930   5.777   5.285  0.2768 -0.0212  1.1030
   70SAPC  H13R 6034   1.905   5.688   5.224 -0.8816  1.9105 -1.4042
   70SAPC  H13S 6035   1.830   5.805   5.325 -0.2576  0.3264 -0.4155
   70SAPC  C214 6036   2.026   5.733   5.395 -0.1178  0.1966 -0.3381
   70SAPC  H14R 6037   2.118   5.691   5.353 -0.6948 -0.5082 -0.9014
   70SAPC  C215 6038   2.021   5.744   5.533 -0.7558 -0.7486 -0.1091
   70SAPC  H15R 6039   2.107   5.698   5.585  0.2887  0.3977 -0.7660
   70SAPC  C216 6040   1.913   5.810   5.625 -0.0995 -0.0071 -0.1087
   70SAPC  H16R 6041   1.849   5.880   5.568 -2.6307 -1.9782  0.1612
   70SAPC  H16S 6042   1.962   5.876   5.700  2.5124 -0.8500 -0.9347
   70SAPC  C217 6043   1.834   5.702   5.695 -0.2237 -0.0481 -0.2050
   70SAPC  H17R 6044   1.882   5.658   5.785  0.4451  0.1380 -0.4638
   70SAPC  H17S 6045   1.806   5.626   5.618 -0.5408 -1.0619  0.8874
   70SAPC  C218 6046   1.701   5.770   5.736 -1.0316  0.6328  0.6145
   70SAPC  H18R 6047   1.639   5.805   5.652 -0.5815  3.6257  1.4131
   70SAPC  H18S 6048   1.733   5.849   5.807  2.1217 -1.4282  1.7377
   70SAPC  C219 6049   1.611   5.679   5.821 -0.3461 -0.0534 -0.1804
   70SAPC  H19R 6050   1.677   5.643   5.903  0.2061 -1.0831 -1.0547
   70SAPC  H19S 6051   1.583   5.597   5.752 -0.9598  0.4315 -0.5108
   70SAPC  C220 6052   1.486   5.755   5.863 -0.0487 -0.0425 -0.2052
   70SAPC  H20R 6053   1.521   5.844   5.919  1.7592 -0.1347 -1.1101
   70SAPC  H20S 6054   1.427   5.680   5.920  0.9723 -2.4779 -2.1748
   70SAPC  H20T 6055   1.419   5.783   5.779  0.7254 -0.3826 -0.9516
   70SAPC   C33 6056   2.530   5.532   4.450  0.4014  0.3300 -0.1163
   70SAPC   H3X 6057   2.609   5.495   4.382 -0.8718  2.9774 -3.3172
   70SAPC   H3Y 6058   2.442   5.513   4.384 -0.1323  0.4010  0.5682
   70SAPC   C34 6059   2.528   5.446   4.581 -0.6376  0.2296  0.5034
   70SAPC   H4X 6060   2.507   5.343   4.544 -0.4467  0.1457  0.6316
   70SAPC   H4Y 6061   2.447   5.477   4.650 -2.3741 -3.4459  0.3564
   70SAPC   C35 6062   2.648   5.444   4.674 -0.8492  0.0941  0.2674
   70SAPC   H5X 6063   2.624   5.373   4.756  0.5295 -1.3017 -0.4897
   70SAPC   H5Y 6064   2.678   5.536   4.728  2.4735 -1.0663  0.5957
   70SAPC   C36 6065   2.779   5.390   4.600 -0.0616 -0.2428 -0.1946
   70SAPC   H6X 6066   2.797   5.457   4.513  0.7769  0.4634  0.5036
   70SAPC   H6Y 6067   2.760   5.284   4.572 -0.3704  0.0825 -1.2508
   70SAPC   C37 6068   2.896   5.402   4.700 -0.1357  0.5180 -0.8898
   70SAPC   H7X 6069   2.987   5.421   4.640  0.8996  0.5033  0.6252
   70SAPC   H7Y 6070   2.882   5.496   4.758  1.7948 -1.0863  2.4265
   70SAPC   C38 6071   2.888   5.277   4.787  0.3796  0.3904 -0.1490
   70SAPC   H8X 6072   2.893   5.191   4.717 -0.5078  1.1559 -1.1852
   70SAPC   H8Y 6073   2.789   5.283   4.837 -0.0697 -0.5237 -0.8952
   70SAPC   C39 6074   3.005   5.274   4.887  0.0808 -1.2241  0.0946
   70SAPC   H9X 6075   2.989   5.191   4.960  2.5152 -3.2823 -1.5577
   70SAPC   H9Y 6076   3.000   5.375   4.935 -0.9795 -1.7418  1.1423
   70SAPC  C310 6077   3.142   5.258   4.826 -0.3412  0.3540 -0.4549
   70SAPC  H10X 6078   3.162   5.328   4.742  1.1732 -1.4711 -1.7024
   70SAPC  H10Y 6079   3.152   5.155   4.784  0.4136  0.5059 -0.6600
   70SAPC  C311 6080   3.260   5.272   4.935  0.7070 -0.8417  0.5848
   70SAPC  H11X 6081   3.240   5.365   4.993  1.4733 -0.7279  0.6754
   70SAPC  H11Y 6082   3.352   5.286   4.874  0.0812  2.7529  0.2191
   70SAPC  C312 6083   3.276   5.157   5.039 -0.2645  0.4912  0.9057
   70SAPC  H12X 6084   3.317   5.074   4.978 -0.1827  0.8202  0.5097
   70SAPC  H12Y 6085   3.178   5.137   5.088  0.0574  0.7919  1.6946
   70SAPC  C313 6086   3.375   5.187   5.148 -0.1125  0.0910  0.6470
   70SAPC  H13X 6087   3.340   5.281   5.195  0.9979  0.2484  1.1890
   70SAPC  H13Y 6088   3.476   5.194   5.102 -2.0589  0.9424 -4.1057
   70SAPC  C314 6089   3.364   5.080   5.261  0.7503  0.4708  0.3003
   70SAPC  H14X 6090   3.391   4.981   5.219 -1.9150 -0.1735 -0.0155
   70SAPC  H14Y 6091   3.259   5.074   5.294  0.2420 -1.2899 -1.4294
   70SAPC  C315 6092   3.450   5.129   5.382  0.7576  0.1461 -0.2011
   70SAPC  H15X 6093   3.396   5.207   5.439  0.9439  0.1577 -0.0383
   70SAPC  H15Y 6094   3.545   5.176   5.350  2.6288 -0.9365  3.1756
   70SAPC  C316 6095   3.505   5.012   5.471  0.0181  0.2790  1.1643
   70SAPC  H16X 6096   3.579   4.958   5.408 -0.9546  1.1877 -0.8344
   70SAPC  H16Y 6097   3.421   4.942   5.491  0.8466 -0.5200  2.0086
   70SAPC  C317 6098   3.563   5.046   5.611  0.9744  0.6985 -0.2033
   70SAPC  H17X 6099   3.575   4.954   5.671 -2.4786  0.2952  0.0706
   70SAPC  H17Y 6100   3.486   5.109   5.660 -0.9437 -0.5773 -1.4711
   70SAPC  C318 6101   3.693   5.129   5.609  0.2551  0.0619  0.0728
   70SAPC  H18X 6102   3.734   5.143   5.712 -2.2163 -1.1990  1.3154
   70SAPC  H18Y 6103   3.678   5.234   5.576  1.0936  0.9228  2.2313
   70SAPC  H18Z 6104   3.769   5.075   5.549 -0.4715 -0.8184 -0.0774
   71SAPC     N 6105   0.569   6.614   3.884  0.1343  0.4270  0.0684
   71SAPC   C12 6106   0.653   6.574   3.999  0.2608  1.1221  0.3333
   71SAPC  H12A 6107   0.634   6.622   4.094  1.8580  2.5036 -0.0099
   71SAPC  H12B 6108   0.754   6.603   3.976  0.4809 -0.3596 -0.7413
   71SAPC   C13 6109   0.613   6.535   3.764 -0.7311 -0.3589  0.5614
   71SAPC  H13A 6110   0.540   6.554   3.687 -0.8781  2.8980  1.3880
   71SAPC  H13B 6111   0.705   6.569   3.718 -1.1941  0.7345  0.4154
   71SAPC  H13C 6112   0.626   6.432   3.795  1.5072 -0.3988 -0.3028
   71SAPC   C14 6113   0.421   6.609   3.906  0.1270 -0.4740 -0.0144
   71SAPC  H14A 6114   0.387   6.658   3.996 -0.2968 -1.4419  0.3559
   71SAPC  H14B 6115   0.366   6.652   3.824  1.5336 -3.0160 -2.4485
   71SAPC  H14C 6116   0.388   6.508   3.921 -0.2181 -0.1430  1.6844
   71SAPC   C15 6117   0.592   6.758   3.861 -0.5631 -0.5158  0.9123
   71SAPC  H15A 6118   0.588   6.821   3.948  1.1065  2.3175 -0.8724
   71SAPC  H15B 6119   0.697   6.763   3.834 -1.3292  1.4902 -2.3604
   71SAPC  H15C 6120   0.531   6.790   3.778  0.6783 -0.0100  0.1608
   71SAPC   C11 6121   0.655   6.422   4.041 -0.1620 -0.4146  0.1918
   71SAPC  H11A 6122   0.560   6.369   4.021 -0.4062 -0.1504  0.6302
   71SAPC  H11B 6123   0.668   6.416   4.151  1.5973 -2.0707 -0.0657
   71SAPC     P 6124   0.760   6.205   3.933 -0.0052  0.1494  0.1364
   71SAPC   O13 6125   0.635   6.190   3.860 -0.1211 -0.1631  0.8433
   71SAPC   O14 6126   0.892   6.172   3.864 -0.4583 -0.7146  0.4907
   71SAPC   O12 6127   0.766   6.359   3.981 -0.6160  0.2234  0.7386
   71SAPC   O11 6128   0.754   6.139   4.076  0.0835  0.4369 -0.2376
   71SAPC    C1 6129   0.853   6.159   4.173  0.7179  0.3768  0.2957
   71SAPC    HA 6130   0.957   6.134   4.143  1.2606 -0.3262  2.5317
   71SAPC    HB 6131   0.861   6.264   4.208  1.2213  0.7418 -0.8762
   71SAPC    C2 6132   0.819   6.068   4.289  0.3405 -0.6045 -0.5270
   71SAPC    HS 6133   0.719   6.098   4.325 -0.1361 -0.2912 -2.0776
   71SAPC   O21 6134   0.916   6.079   4.391  0.4528  0.1963 -0.0515
   71SAPC   C21 6135   0.912   6.193   4.455 -0.1125 -0.3685 -0.0994
   71SAPC   O22 6136   0.830   6.283   4.445 -0.3215 -0.3509  0.3886
   71SAPC   C22 6137   1.024   6.193   4.559  0.0235  0.2775 -0.8674
   71SAPC   H2R 6138   1.009   6.109   4.630  0.0750 -0.0092 -1.1968
   71SAPC   H2S 6139   1.121   6.167   4.511 -1.0842 -1.6623 -2.1151
   71SAPC    C3 6140   0.795   5.911   4.250  0.4159  0.9535  0.4195
   71SAPC    HX 6141   0.882   5.896   4.182 -1.0723  0.7856 -1.5026
   71SAPC    HY 6142   0.700   5.915   4.194 -0.3740 -0.0449  1.6388
   71SAPC   O31 6143   0.798   5.825   4.358  0.3205  0.8533 -0.6181
   71SAPC   C31 6144   0.922   5.769   4.388  0.5314  0.7036 -0.2048
   71SAPC   O32 6145   1.025   5.787   4.326  0.4020  0.2000  0.0300
   71SAPC   C32 6146   0.910   5.700   4.525  0.2041 -0.0770  0.2383
   71SAPC   H2X 6147   1.017   5.672   4.532 -0.3908 -2.0815  3.4322
   71SAPC   H2Y 6148   0.839   5.615   4.518 -0.8710  0.1595  4.8310
   71SAPC   C23 6149   1.028   6.328   4.639 -0.3595  0.3727 -0.0374
   71SAPC   H3R 6150   0.928   6.341   4.685 -0.6581  0.5235 -0.7102
   71SAPC   H3S 6151   1.052   6.411   4.569 -1.4944  0.8520  0.1253
   71SAPC   C24 6152   1.146   6.315   4.747  0.0690  0.2999  0.5609
   71SAPC   H4R 6153   1.240   6.286   4.695 -0.5252  1.4029 -1.2055
   71SAPC   H4S 6154   1.125   6.227   4.812  1.9384 -1.3906 -0.9700
   71SAPC   C25 6155   1.169   6.442   4.816  1.3218 -0.1609  0.1820
   71SAPC   H5R 6156   1.224   6.511   4.751 -1.0496  2.2002  0.5000
   71SAPC   C26 6157   1.127   6.487   4.937  0.3559  0.0227  0.3181
   71SAPC   H6R 6158   1.147   6.592   4.965 -1.7421  0.4726  0.2874
   71SAPC   C27 6159   1.045   6.418   5.039 -0.0748 -0.3718 -0.5537
   71SAPC   H7R 6160   0.964   6.366   4.983 -0.4762  1.1376 -1.4294
   71SAPC   H7S 6161   0.990   6.494   5.099  0.4999 -0.4068  0.0269
   71SAPC   C28 6162   1.125   6.319   5.119 -0.3116 -0.1880  0.6428
   71SAPC   H8R 6163   1.206   6.273   5.060 -0.2062 -1.0625  1.4292
   71SAPC   C29 6164   1.105   6.286   5.248 -0.4115  0.2765 -1.3767
   71SAPC   H9R 6165   1.168   6.210   5.296 -1.3249  0.6085  0.4310
   71SAPC  C210 6166   0.999   6.344   5.339  0.4912  0.3292  0.0609
   71SAPC  H10R 6167   0.936   6.413   5.279  0.0949 -0.0121  0.0860
   71SAPC  H10S 6168   1.060   6.412   5.403  1.3361 -0.4893  0.1503
   71SAPC  C211 6169   0.919   6.258   5.436  0.2072 -0.0667 -0.0646
   71SAPC  H11R 6170   0.877   6.169   5.387  0.8536  0.2272 -1.1743
   71SAPC  C212 6171   0.894   6.286   5.564  0.3913  0.3483  0.4661
   71SAPC  H12R 6172   0.824   6.219   5.617  0.3430 -0.4578 -0.5891
   71SAPC  C213 6173   0.929   6.419   5.634 -0.5037 -0.0678  0.1484
   71SAPC  H13R 6174   0.871   6.506   5.598 -0.4178 -0.5053 -1.1065
   71SAPC  H13S 6175   1.036   6.445   5.621 -0.3139 -0.4978  0.7697
   71SAPC  C214 6176   0.912   6.420   5.780 -0.2331 -0.1214 -0.4371
   71SAPC  H14R 6177   0.877   6.331   5.834  1.1682 -0.0010  0.7147
   71SAPC  C215 6178   0.938   6.529   5.858  0.3026 -0.5728  0.1024
   71SAPC  H15R 6179   0.906   6.519   5.963 -0.2192  1.5951  0.1983
   71SAPC  C216 6180   0.991   6.662   5.804 -0.3057  0.2311  0.3319
   71SAPC  H16R 6181   0.920   6.747   5.822 -0.3510 -0.0334  1.5030
   71SAPC  H16S 6182   1.012   6.658   5.695 -1.6681  2.0800 -0.0582
   71SAPC  C217 6183   1.112   6.710   5.887  0.2674  0.1128  0.4053
   71SAPC  H17R 6184   1.199   6.641   5.879  0.1807 -0.0382  0.7313
   71SAPC  H17S 6185   1.074   6.720   5.991 -1.1402 -0.4505 -0.0220
   71SAPC  C218 6186   1.163   6.842   5.834  0.0167  0.0676  0.4585
   71SAPC  H18R 6187   1.085   6.921   5.824  0.3022  0.1005 -2.0631
   71SAPC  H18S 6188   1.190   6.827   5.728  0.2300  3.6682 -0.1414
   71SAPC  C219 6189   1.274   6.899   5.918  1.1753 -0.1742 -0.5271
   71SAPC  H19R 6190   1.361   6.830   5.929  0.3789 -0.9067  2.0631
   71SAPC  H19S 6191   1.242   6.916   6.023 -0.2194  0.4541 -1.0325
   71SAPC  C220 6192   1.324   7.025   5.853  0.1154  0.3283 -0.7794
   71SAPC  H20R 6193   1.401   7.074   5.915  2.9474 -1.5598 -2.5293
   71SAPC  H20S 6194   1.234   7.089   5.837  0.5636  0.7282 -1.8229
   71SAPC  H20T 6195   1.364   7.003   5.751  0.9929 -0.9799 -0.1794
   71SAPC   C33 6196   0.863   5.789   4.644 -0.5981 -0.0492  0.7190
   71SAPC   H3X 6197   0.788   5.861   4.606  0.7927  0.9462 -0.2048
   71SAPC   H3Y 6198   0.950   5.830   4.700  1.0514 -3.5310  0.9961
   71SAPC   C34 6199   0.780   5.708   4.749  0.2030  0.4927 -0.2085
   71SAPC   H4X 6200   0.832   5.624   4.800 -0.8535 -0.1116 -0.1093
   71SAPC   H4Y 6201   0.699   5.658   4.692  0.1432  0.5977 -0.2160
   71SAPC   C35 6202   0.718   5.792   4.859  0.3406 -0.1496 -0.2942
   71SAPC   H5X 6203   0.624   5.753   4.903  0.5444 -1.9868 -1.3660
   71SAPC   H5Y 6204   0.699   5.888   4.808  3.4181  0.2795 -0.8232
   71SAPC   C36 6205   0.807   5.837   4.976  0.0847 -0.0837 -0.1880
   71SAPC   H6X 6206   0.792   5.946   4.994 -1.6162 -0.4857  1.0529
   71SAPC   H6Y 6207   0.910   5.825   4.935  0.4093 -1.5831  0.9741
   71SAPC   C37 6208   0.784   5.757   5.102  0.0246 -0.0059  0.1031
   71SAPC   H7X 6209   0.766   5.649   5.085 -1.6806  0.5556 -2.2387
   71SAPC   H7Y 6210   0.705   5.806   5.163  0.9649  0.2609  1.1476
   71SAPC   C38 6211   0.900   5.776   5.199  0.5425  0.1073  0.5379
   71SAPC   H8X 6212   0.931   5.882   5.198  2.3774 -0.3095  2.6059
   71SAPC   H8Y 6213   0.986   5.723   5.152  0.3910  0.2299  0.1285
   71SAPC   C39 6214   0.872   5.710   5.336 -0.2908  0.0939 -0.3940
   71SAPC   H9X 6215   0.956   5.727   5.405 -0.3753  0.9028 -0.4800
   71SAPC   H9Y 6216   0.860   5.601   5.319 -1.1345  0.1031  0.0961
   71SAPC  C310 6217   0.751   5.779   5.415  0.3476  1.0120 -0.0419
   71SAPC  H10X 6218   0.655   5.737   5.378 -0.0620  0.5136  1.4993
   71SAPC  H10Y 6219   0.741   5.889   5.415  2.2258  1.2161  0.9686
   71SAPC  C311 6220   0.761   5.756   5.568 -0.0331 -0.2545 -0.4555
   71SAPC  H11X 6221   0.774   5.647   5.586 -0.9236 -0.1084  1.2605
   71SAPC  H11Y 6222   0.666   5.794   5.609 -0.6454  1.3792 -3.1134
   71SAPC  C312 6223   0.871   5.840   5.656  0.4456  0.1320 -0.0135
   71SAPC  H12X 6224   0.836   5.945   5.669 -0.6625 -0.3999  1.5770
   71SAPC  H12Y 6225   0.962   5.833   5.594  0.1146  0.0425 -0.4984
   71SAPC  C313 6226   0.895   5.770   5.790  0.6986 -0.4232  0.0713
   71SAPC  H13X 6227   0.894   5.660   5.778  2.3708 -0.4072 -0.5173
   71SAPC  H13Y 6228   0.820   5.808   5.862  0.0427  0.5395 -1.0816
   71SAPC  C314 6229   1.031   5.785   5.851 -0.3143 -0.0971  0.2287
   71SAPC  H14X 6230   1.060   5.891   5.868  0.2369 -0.4559  1.7156
   71SAPC  H14Y 6231   1.111   5.742   5.787 -0.7759  1.0358 -1.1686
   71SAPC  C315 6232   1.035   5.728   5.999 -0.4948 -0.0537 -0.2286
   71SAPC  H15X 6233   0.972   5.794   6.063  1.8758  2.5311 -0.3523
   71SAPC  H15Y 6234   1.131   5.735   6.054 -1.3791  0.6630  1.3104
   71SAPC  C316 6235   0.976   5.586   6.011  0.0632  0.3000 -0.7149
   71SAPC  H16X 6236   1.045   5.513   5.964 -0.3263 -1.8526  1.8217
   71SAPC  H16Y 6237   0.877   5.579   5.959  0.0601 -0.1099 -0.6509
   71SAPC  C317 6238   0.936   5.544   6.156  0.2782  1.0494 -0.5605
   71SAPC  H17X 6239   0.915   5.435   6.158 -1.3834  1.3014  2.6549
   71SAPC  H17Y 6240   0.838   5.590   6.179  0.1919  0.5025  0.2351
   71SAPC  C318 6241   1.043   5.577   6.263  0.3343  0.1786 -0.1811
   71SAPC  H18X 6242   1.063   5.686   6.268 -1.2777  0.7164 -2.9560
   71SAPC  H18Y 6243   1.137   5.520   6.245 -0.0131 -0.0515 -1.3846
   71SAPC  H18Z 6244   1.009   5.548   6.365 -0.5292  1.1857 -0.1690
   72SAPC     N 6245   4.536   2.044   3.846  0.4808  1.1395  0.0816
   72SAPC   C12 6246   4.682   1.994   3.839  0.7128  0.0135  1.1189
   72SAPC  H12A 6247   4.723   2.032   3.747 -1.2006 -1.4145 -0.4318
   72SAPC  H12B 6248   4.685   1.888   3.821 -1.9014  0.1664 -0.8993
   72SAPC   C13 6249   4.533   2.184   3.905 -0.6094 -0.0571 -0.5459
   72SAPC  H13A 6250   4.432   2.224   3.907 -0.1819  1.0554  0.5726
   72SAPC  H13B 6251   4.569   2.181   4.007  0.9057 -1.4849 -1.0834
   72SAPC  H13C 6252   4.591   2.250   3.843  1.7595 -1.2411  0.2788
   72SAPC   C14 6253   4.470   2.047   3.715 -0.7217  0.9381 -0.1214
   72SAPC  H14A 6254   4.517   2.094   3.630 -0.9718  0.7443 -0.3679
   72SAPC  H14B 6255   4.441   1.947   3.685 -2.9991  1.0995  1.3547
   72SAPC  H14C 6256   4.373   2.094   3.726 -0.5873  0.6304  3.6430
   72SAPC   C15 6257   4.463   1.947   3.937 -0.1498 -0.1409  0.1071
   72SAPC  H15A 6258   4.460   1.853   3.884  1.2541 -0.4361  0.4987
   72SAPC  H15B 6259   4.521   1.916   4.023 -0.2225 -3.0405 -0.7904
   72SAPC  H15C 6260   4.369   1.993   3.962  0.5995  1.5337 -0.0024
   72SAPC   C11 6261   4.770   2.027   3.955  0.1563  0.1362  0.2054
   72SAPC  H11A 6262   4.858   1.960   3.957  2.2380  2.7070  1.2979
   72SAPC  H11B 6263   4.721   2.008   4.053 -2.1291 -2.7550 -1.3425
   72SAPC     P 6264   4.930   2.203   3.845 -0.0619  0.2352 -0.0998
   72SAPC   O13 6265   4.962   2.099   3.742  0.6833  0.3531 -0.3530
   72SAPC   O14 6266   4.852   2.319   3.799 -0.2029  0.0918  0.0557
   72SAPC   O12 6267   4.822   2.157   3.952  0.1095  0.5707 -0.0600
   72SAPC   O11 6268   5.060   2.246   3.916  0.2026 -0.4060 -0.5544
   72SAPC    C1 6269   5.056   2.316   4.041 -0.1423 -0.1450 -0.6004
   72SAPC    HA 6270   5.143   2.385   4.048 -0.6745  0.4508  0.3153
   72SAPC    HB 6271   4.975   2.392   4.048 -1.2470 -1.2484 -1.0822
   72SAPC    C2 6272   5.062   2.215   4.164  0.0381 -0.4883 -0.4428
   72SAPC    HS 6273   4.959   2.174   4.160  0.1680 -0.7278 -1.7566
   72SAPC   O21 6274   5.101   2.282   4.285  0.1604 -0.0770  0.2531
   72SAPC   C21 6275   5.017   2.366   4.331  0.8184  0.6467 -0.2100
   72SAPC   O22 6276   4.908   2.395   4.274 -0.2813 -0.0863 -0.4262
   72SAPC   C22 6277   5.061   2.432   4.460  0.1106  0.6685  0.3425
   72SAPC   H2R 6278   5.104   2.529   4.427 -0.9303  0.9089 -0.3449
   72SAPC   H2S 6279   4.969   2.449   4.519 -0.9860 -1.2875 -0.7031
   72SAPC    C3 6280   5.157   2.096   4.137 -0.0128  0.4309  0.5637
   72SAPC    HX 6281   5.255   2.148   4.127 -1.1323  2.7536  1.0046
   72SAPC    HY 6282   5.135   2.063   4.033  1.7140  0.8556  0.0320
   72SAPC   O31 6283   5.162   1.986   4.238 -0.3380 -0.3892 -0.2539
   72SAPC   C31 6284   5.055   1.918   4.254 -0.0944 -0.1926 -0.3706
   72SAPC   O32 6285   4.957   1.917   4.179  0.0512 -0.4705 -1.2342
   72SAPC   C32 6286   5.066   1.839   4.385 -0.5999 -0.7943 -0.4524
   72SAPC   H2X 6287   5.116   1.741   4.372 -1.0817 -0.9473 -1.2346
   72SAPC   H2Y 6288   4.960   1.826   4.416 -0.9018 -0.8485 -1.4782
   72SAPC   C23 6289   5.160   2.359   4.549 -0.3637  1.0047  0.2177
   72SAPC   H3R 6290   5.259   2.341   4.501 -0.2128  1.8342  0.2087
   72SAPC   H3S 6291   5.122   2.256   4.569 -0.8026  0.5193 -2.5916
   72SAPC   C24 6292   5.175   2.418   4.691  0.1818 -0.2862 -0.0103
   72SAPC   H4R 6293   5.198   2.525   4.668 -1.0852 -0.2574 -1.2466
   72SAPC   H4S 6294   5.268   2.380   4.740  0.4658  0.0895 -0.2453
   72SAPC   C25 6295   5.052   2.419   4.781 -0.0282  0.0235 -0.0234
   72SAPC   H5R 6296   4.961   2.472   4.749  0.3271 -0.1510 -1.3664
   72SAPC   C26 6297   5.039   2.343   4.892  0.2654 -0.3351  0.6330
   72SAPC   H6R 6298   4.947   2.346   4.953 -2.1266 -2.3233 -2.5319
   72SAPC   C27 6299   5.140   2.258   4.943  0.0811 -0.2715  0.3362
   72SAPC   H7R 6300   5.225   2.326   4.969 -1.0700  1.3873 -0.1100
   72SAPC   H7S 6301   5.164   2.182   4.866 -0.6435  0.4679 -0.6359
   72SAPC   C28 6302   5.091   2.183   5.068  0.3066 -0.9208  0.1161
   72SAPC   H8R 6303   5.065   2.078   5.050 -0.4766 -0.5446 -1.0755
   72SAPC   C29 6304   5.083   2.237   5.192  0.8795  1.4381  0.3101
   72SAPC   H9R 6305   5.051   2.179   5.279  1.0867 -1.4668 -1.4329
   72SAPC  C210 6306   5.121   2.382   5.215 -0.3319  0.0166  0.3859
   72SAPC  H10R 6307   5.170   2.438   5.132  0.0206 -1.6662 -0.5798
   72SAPC  H10S 6308   5.193   2.366   5.298  1.4975 -1.1924 -1.3558
   72SAPC  C211 6309   5.009   2.460   5.262 -0.3498  0.3664 -0.6677
   72SAPC  H11R 6310   4.976   2.538   5.192 -0.5713 -1.0884 -2.2632
   72SAPC  C212 6311   4.953   2.469   5.380 -0.2066 -0.1224  0.0436
   72SAPC  H12R 6312   4.867   2.538   5.383  1.1284  1.6048  0.1206
   72SAPC  C213 6313   4.987   2.396   5.503  0.8478 -0.1884  0.0653
   72SAPC  H13R 6314   5.065   2.319   5.486  1.4939  0.4576  0.0578
   72SAPC  H13S 6315   4.900   2.335   5.536  0.5544  0.1913  0.0045
   72SAPC  C214 6316   5.047   2.473   5.613  0.7004 -0.1396 -0.0305
   72SAPC  H14R 6317   5.156   2.481   5.607  0.8712  1.7461  2.9842
   72SAPC  C215 6318   4.976   2.539   5.706  0.2562  0.7406 -0.1883
   72SAPC  H15R 6319   5.032   2.589   5.786 -2.1742  1.2353  1.3139
   72SAPC  C216 6320   4.826   2.541   5.715 -0.6428  0.2339  0.5773
   72SAPC  H16R 6321   4.773   2.498   5.627 -2.0973  1.5952  0.7467
   72SAPC  H16S 6322   4.785   2.644   5.723 -3.0352 -0.6853  0.8896
   72SAPC  C217 6323   4.795   2.461   5.841 -0.1648  0.0788  0.2932
   72SAPC  H17R 6324   4.853   2.368   5.858  1.3976  1.2861  2.0822
   72SAPC  H17S 6325   4.686   2.449   5.824 -0.0551 -0.6606  0.0983
   72SAPC  C218 6326   4.812   2.543   5.970  0.1743  0.5370  0.2757
   72SAPC  H18R 6327   4.763   2.641   5.954 -1.2046 -0.0993  0.4023
   72SAPC  H18S 6328   4.921   2.556   5.983 -0.1088  1.9494  1.4722
   72SAPC  C219 6329   4.768   2.477   6.096  0.1623 -0.4290  0.0865
   72SAPC  H19R 6330   4.666   2.432   6.096  0.4350 -1.0534  0.1439
   72SAPC  H19S 6331   4.763   2.568   6.159  1.6992  0.1226 -0.5417
   72SAPC  C220 6332   4.868   2.381   6.155 -0.0804 -0.2715  0.0832
   72SAPC  H20R 6333   4.823   2.333   6.245 -0.0027 -0.9953 -0.2538
   72SAPC  H20S 6334   4.969   2.418   6.183  0.9159 -2.1605 -0.8212
   72SAPC  H20T 6335   4.890   2.298   6.084  0.4026  2.2263 -2.8618
   72SAPC   C33 6336   5.139   1.918   4.495 -0.0554  0.1132 -0.4647
   72SAPC   H3X 6337   5.077   2.009   4.512 -0.0868  0.1940 -0.9725
   72SAPC   H3Y 6338   5.239   1.951   4.458  0.2637 -0.2054  0.1100
   72SAPC   C34 6339   5.140   1.829   4.621 -0.1308  0.2385 -0.5693
   72SAPC   H4X 6340   5.199   1.740   4.593  0.3471  0.1889  0.5577
   72SAPC   H4Y 6341   5.043   1.795   4.662 -1.2311  1.8713 -1.6951
   72SAPC   C35 6342   5.233   1.894   4.724 -0.0743 -0.5367  0.2044
   72SAPC   H5X 6343   5.184   1.992   4.746 -0.6305 -0.0638 -2.7220
   72SAPC   H5Y 6344   5.326   1.930   4.675 -0.2088 -0.7551 -0.2240
   72SAPC   C36 6345   5.261   1.811   4.850  0.1469 -0.2133  0.0897
   72SAPC   H6X 6346   5.299   1.713   4.814  0.9034  0.5689 -1.3352
   72SAPC   H6Y 6347   5.170   1.778   4.905  0.2476 -1.3100 -0.3647
   72SAPC   C37 6348   5.371   1.877   4.937  0.0729  0.5200 -0.6877
   72SAPC   H7X 6349   5.349   1.984   4.957  1.2542  0.7514 -0.5593
   72SAPC   H7Y 6350   5.469   1.860   4.886 -0.0200 -1.3308 -0.3386
   72SAPC   C38 6351   5.382   1.817   5.072  0.0348 -0.3517  0.2225
   72SAPC   H8X 6352   5.475   1.849   5.123 -0.6325  3.0070 -0.4020
   72SAPC   H8Y 6353   5.393   1.707   5.066  1.1272 -0.4370  2.6400
   72SAPC   C39 6354   5.273   1.860   5.168 -1.0514 -0.4628 -0.3952
   72SAPC   H9X 6355   5.173   1.831   5.128 -0.2607 -0.9241 -2.1083
   72SAPC   H9Y 6356   5.268   1.971   5.173 -0.0977 -0.3061 -2.1533
   72SAPC  C310 6357   5.293   1.799   5.304 -0.2005 -0.3263  0.3468
   72SAPC  H10X 6358   5.335   1.697   5.299  0.9641  0.1684 -0.6701
   72SAPC  H10Y 6359   5.196   1.777   5.352 -0.7778 -0.3532 -0.8009
   72SAPC  C311 6360   5.361   1.894   5.403  0.5836  0.2810  0.3922
   72SAPC  H11X 6361   5.285   1.976   5.399 -1.4040 -1.5071 -0.7576
   72SAPC  H11Y 6362   5.455   1.934   5.359 -0.3112  0.9198 -1.0110
   72SAPC  C312 6363   5.372   1.850   5.549  0.1160 -0.1256  0.2674
   72SAPC  H12X 6364   5.477   1.872   5.578  1.1791 -0.1181 -3.2032
   72SAPC  H12Y 6365   5.369   1.740   5.559 -0.8018 -0.0818  0.5163
   72SAPC  C313 6366   5.268   1.912   5.644 -0.2730  0.4209 -0.5041
   72SAPC  H13X 6367   5.283   1.855   5.738  2.3823  0.4554 -0.8505
   72SAPC  H13Y 6368   5.166   1.901   5.599 -0.4820  1.3801 -0.2709
   72SAPC  C314 6369   5.303   2.056   5.667 -0.0883 -0.3752 -0.0504
   72SAPC  H14X 6370   5.282   2.120   5.578  1.6292  0.0563 -0.1702
   72SAPC  H14Y 6371   5.411   2.066   5.690 -0.3350 -0.7136  1.3691
   72SAPC  C315 6372   5.220   2.112   5.779  0.2232 -0.3343 -0.0849
   72SAPC  H15X 6373   5.233   2.037   5.860 -1.4377 -1.0898 -0.4688
   72SAPC  H15Y 6374   5.113   2.110   5.751  0.3343  0.8619 -0.6738
   72SAPC  C316 6375   5.270   2.249   5.838  0.1399 -0.1837 -0.4180
   72SAPC  H16X 6376   5.274   2.325   5.757  0.2163 -1.7369 -1.9469
   72SAPC  H16Y 6377   5.372   2.220   5.870  0.5577 -0.5955 -2.0452
   72SAPC  C317 6378   5.179   2.296   5.951 -0.7097 -0.1085 -0.0831
   72SAPC  H17X 6379   5.174   2.213   6.025 -1.4969  0.8269  0.9487
   72SAPC  H17Y 6380   5.075   2.301   5.910 -0.9688 -0.9090  0.4592
   72SAPC  C318 6381   5.221   2.430   6.010 -0.2959  0.3352  0.0435
   72SAPC  H18X 6382   5.139   2.503   6.027 -0.5155  0.1882 -0.3804
   72SAPC  H18Y 6383   5.293   2.467   5.934  0.4897 -1.4809 -0.1543
   72SAPC  H18Z 6384   5.278   2.429   6.106  0.8310 -0.9405 -0.6004
   73SLPC     N 6385   2.404   2.613   8.489 -0.5273  0.3241 -0.0450
   73SLPC   C13 6386   2.514   2.540   8.569 -0.1752  0.4964 -0.1852
   73SLPC  H13A 6387   2.610   2.581   8.540  0.3246  0.4687  1.3816
   73SLPC  H13B 6388   2.508   2.557   8.675 -0.7316 -0.8708  0.0232
   73SLPC  H13C 6389   2.518   2.435   8.544  3.3614  1.0711 -2.8801
   73SLPC   C14 6390   2.447   2.607   8.349  0.0631  0.1134  0.6277
   73SLPC  H14A 6391   2.530   2.672   8.326 -1.7675  1.9959 -1.0481
   73SLPC  H14B 6392   2.466   2.510   8.305 -0.5644  0.0596  0.4656
   73SLPC  H14C 6393   2.368   2.648   8.288  0.3573 -1.9726 -1.3151
   73SLPC   C15 6394   2.417   2.756   8.533 -0.1487 -0.1039 -0.0560
   73SLPC  H15A 6395   2.341   2.820   8.491 -1.0037 -0.4183  1.0039
   73SLPC  H15B 6396   2.390   2.758   8.637 -0.9189  0.6218 -0.2626
   73SLPC  H15C 6397   2.516   2.798   8.520 -1.0304  2.5567  1.2603
   73SLPC   C12 6398   2.262   2.565   8.506 -0.1863 -0.3943 -0.5546
   73SLPC  H12A 6399   2.232   2.567   8.610  1.1285 -2.5659 -0.0609
   73SLPC  H12B 6400   2.257   2.461   8.479  1.2978 -0.9532  1.1645
   73SLPC   C11 6401   2.152   2.628   8.422 -0.4075 -0.4795 -0.6923
   73SLPC  H11A 6402   2.071   2.551   8.426 -1.3631  0.5626  1.0182
   73SLPC  H11B 6403   2.166   2.632   8.312 -1.1658 -1.6062 -0.8605
   73SLPC     P 6404   1.971   2.789   8.524  0.2061  0.1431  0.3426
   73SLPC   O13 6405   1.900   2.658   8.542 -0.1216 -0.3425  0.2907
   73SLPC   O14 6406   1.976   2.883   8.639  0.4713  0.2843 -0.3652
   73SLPC   O12 6407   2.117   2.760   8.475  0.8046  0.3715 -0.3347
   73SLPC   O11 6408   1.914   2.869   8.403  0.5803  0.3747 -0.2642
   73SLPC    C1 6409   1.819   2.803   8.317 -0.1556  0.5674 -0.0981
   73SLPC    HA 6410   1.753   2.739   8.380  0.4538  2.7875  3.0386
   73SLPC    HB 6411   1.749   2.872   8.266 -1.2331 -1.6689 -1.8164
   73SLPC    C2 6412   1.890   2.732   8.196  0.4579  0.7103 -0.0580
   73SLPC    HS 6413   1.948   2.654   8.250 -0.6458  1.3619  2.2049
   73SLPC   O21 6414   1.970   2.821   8.112  0.2475  0.1072 -0.0445
   73SLPC   C21 6415   2.050   2.741   8.038  0.5514 -0.4874  0.3201
   73SLPC   O22 6416   2.087   2.635   8.069  0.2999  0.0852 -0.1773
   73SLPC   C22 6417   2.071   2.815   7.903  0.2276  0.8975 -0.0588
   73SLPC   H2R 6418   2.121   2.911   7.928  4.1128 -1.2373  1.2097
   73SLPC   H2S 6419   2.151   2.754   7.856  0.2908  0.8249  0.1459
   73SLPC    C3 6420   1.786   2.663   8.104  0.2093  0.1215  0.1485
   73SLPC    HX 6421   1.721   2.602   8.171 -0.6892  0.1585 -0.6765
   73SLPC    HY 6422   1.840   2.596   8.034 -0.4664 -0.7426  0.4397
   73SLPC   O31 6423   1.690   2.746   8.031  0.0994 -0.1848  0.6625
   73SLPC   C31 6424   1.633   2.681   7.928 -0.2049  0.7639 -0.1425
   73SLPC   O32 6425   1.639   2.560   7.907 -0.1510  0.5921 -0.8300
   73SLPC   C32 6426   1.534   2.773   7.853 -0.4282 -0.0272 -0.3478
   73SLPC   H2X 6427   1.532   2.859   7.924  1.4001 -1.3239  1.3986
   73SLPC   H2Y 6428   1.433   2.726   7.859 -1.3857  1.9400 -0.1400
   73SLPC   C23 6429   1.951   2.817   7.810  0.0575 -0.2501  1.0008
   73SLPC   H3R 6430   1.866   2.877   7.849 -0.2060 -0.0829  0.1826
   73SLPC   H3S 6431   1.923   2.711   7.795 -1.3023  0.2830 -0.4093
   73SLPC   C24 6432   1.968   2.878   7.668 -0.0912 -0.3635 -0.2618
   73SLPC   H4R 6433   2.003   2.984   7.673 -0.6864 -0.1519 -0.4810
   73SLPC   H4S 6434   1.866   2.886   7.626 -0.0090 -1.4064 -0.6879
   73SLPC   C25 6435   2.050   2.797   7.565  0.0218 -0.0522  0.1593
   73SLPC   H5R 6436   1.997   2.701   7.545 -0.3577  0.4753 -1.4855
   73SLPC   H5S 6437   2.154   2.778   7.597  0.8834  1.6034 -1.4771
   73SLPC   C26 6438   2.073   2.868   7.435  0.4044 -0.4629 -0.3078
   73SLPC   H6R 6439   2.136   2.955   7.463 -0.3766 -0.8504  3.0606
   73SLPC   H6S 6440   1.983   2.907   7.384  1.0611 -0.6085 -1.6335
   73SLPC   C27 6441   2.149   2.789   7.323  0.1051  0.1912  0.1940
   73SLPC   H7R 6442   2.153   2.680   7.347  1.5339  0.4224  1.1150
   73SLPC   H7S 6443   2.253   2.828   7.329  1.5640 -3.4725  2.3186
   73SLPC   C28 6444   2.095   2.823   7.181  0.8375  0.1607  0.5436
   73SLPC   H8R 6445   2.092   2.933   7.164  2.4355  0.1835  0.2468
   73SLPC   H8S 6446   1.988   2.795   7.176  0.5405  1.4610 -1.6290
   73SLPC   C29 6447   2.179   2.749   7.081 -0.0394  0.4670  0.6446
   73SLPC   H9R 6448   2.260   2.687   7.122 -0.5402 -0.0795  0.8191
   73SLPC  C210 6449   2.144   2.741   6.946 -0.5520 -0.5434 -0.4556
   73SLPC  H10R 6450   2.201   2.671   6.884 -1.1936  0.0726 -1.7619
   73SLPC  C211 6451   2.051   2.829   6.876  0.4476  0.6918  0.1718
   73SLPC  H11R 6452   2.124   2.900   6.831  0.0674  2.7400  2.5913
   73SLPC  H11S 6453   1.995   2.901   6.939  0.4006  0.5843  0.2540
   73SLPC  C212 6454   1.961   2.761   6.776  0.7990 -0.0523 -0.8460
   73SLPC  H12R 6455   1.890   2.692   6.822  0.4264  1.0215  0.2399
   73SLPC  C213 6456   1.947   2.777   6.644  0.1210 -0.5239 -0.1135
   73SLPC  H13R 6457   1.875   2.709   6.596 -0.5232 -0.1883  0.3602
   73SLPC  C214 6458   2.050   2.855   6.560 -0.1447 -0.9682  0.2486
   73SLPC  H14R 6459   2.059   2.952   6.612  0.1504 -0.6653 -0.3639
   73SLPC  H14S 6460   2.037   2.884   6.454  1.0753  0.2028  0.3930
   73SLPC  C215 6461   2.194   2.789   6.561 -0.0491 -0.2417 -0.1616
   73SLPC  H15R 6462   2.174   2.687   6.521 -1.0896 -0.2780  0.4120
   73SLPC  H15S 6463   2.230   2.778   6.665 -0.2142 -0.4228 -0.1218
   73SLPC  C216 6464   2.294   2.857   6.469 -0.4502  0.5062  0.0029
   73SLPC  H16R 6465   2.326   2.954   6.512  2.9219  0.5063 -2.1294
   73SLPC  H16S 6466   2.240   2.890   6.377 -0.9423 -1.6838 -0.5679
   73SLPC  C217 6467   2.421   2.767   6.437 -0.5292 -0.3649  0.2601
   73SLPC  H17R 6468   2.506   2.828   6.401 -2.1633  0.4423 -2.5723
   73SLPC  H17S 6469   2.389   2.700   6.354 -2.7388  1.4626 -0.4714
   73SLPC  C218 6470   2.470   2.681   6.552 -0.2047  0.4890 -0.0770
   73SLPC  H18R 6471   2.382   2.617   6.574 -1.6453  1.8385 -1.6189
   73SLPC  H18S 6472   2.513   2.733   6.640  1.8152 -3.3404  1.4267
   73SLPC  H18T 6473   2.547   2.610   6.515 -2.4629 -0.8013 -2.6204
   73SLPC   C33 6474   1.579   2.804   7.712  0.9676 -0.2088  0.2765
   73SLPC   H3X 6475   1.685   2.837   7.720  0.7247  0.3639  1.3874
   73SLPC   H3Y 6476   1.520   2.889   7.673  0.1288 -1.4319 -1.2312
   73SLPC   C34 6477   1.548   2.704   7.606 -0.7757  0.1758  0.0411
   73SLPC   H4X 6478   1.442   2.674   7.597 -1.2146  1.4223  0.7859
   73SLPC   H4Y 6479   1.584   2.603   7.634  0.5369  0.8175  0.7931
   73SLPC   C35 6480   1.618   2.740   7.476  0.6011 -0.0574 -0.2023
   73SLPC   H5X 6481   1.604   2.662   7.398 -0.4244  1.2900 -1.4176
   73SLPC   H5Y 6482   1.727   2.751   7.494  0.4256  2.3326 -0.3183
   73SLPC   C36 6483   1.559   2.866   7.415  0.7375 -0.6447  0.5587
   73SLPC   H6X 6484   1.600   2.950   7.475 -0.2249 -0.6745  1.2883
   73SLPC   H6Y 6485   1.449   2.859   7.433  0.7190 -1.2027  0.2488
   73SLPC   C37 6486   1.602   2.890   7.279 -0.0795  0.3593  0.0882
   73SLPC   H7X 6487   1.708   2.923   7.280 -0.3533  1.3411 -1.4422
   73SLPC   H7Y 6488   1.550   2.977   7.235 -0.3095  0.3383  0.3142
   73SLPC   C38 6489   1.591   2.773   7.179  0.2013  0.5791 -0.5891
   73SLPC   H8X 6490   1.493   2.723   7.197  0.9623 -1.5495 -1.9578
   73SLPC   H8Y 6491   1.650   2.686   7.214 -2.3026 -0.1385  2.1944
   73SLPC   C39 6492   1.609   2.819   7.029  0.2577  0.2318 -0.6093
   73SLPC   H9X 6493   1.715   2.804   7.000  0.1796 -2.9202  0.3344
   73SLPC   H9Y 6494   1.576   2.924   7.013  1.4598  0.4000 -2.1996
   73SLPC  C310 6495   1.544   2.738   6.919  0.0031  0.3434  0.1831
   73SLPC  H10X 6496   1.439   2.712   6.948  0.2771 -0.6215  0.3572
   73SLPC  H10Y 6497   1.590   2.637   6.917  0.7987  0.7055 -1.3503
   73SLPC  C311 6498   1.546   2.803   6.784  0.3272 -0.3405 -0.0251
   73SLPC  H11X 6499   1.648   2.813   6.741  0.0869  0.1203 -0.4942
   73SLPC  H11Y 6500   1.498   2.902   6.799  0.3141 -0.2264 -0.8118
   73SLPC  C312 6501   1.455   2.736   6.684 -0.0287  0.2158 -0.0059
   73SLPC  H12X 6502   1.348   2.743   6.714 -0.0051 -1.0067  0.4369
   73SLPC  H12Y 6503   1.465   2.625   6.684 -2.1667 -0.0093  0.3845
   73SLPC  C313 6504   1.483   2.785   6.536 -0.1042 -0.1546 -0.6642
   73SLPC  H13X 6505   1.413   2.739   6.463  1.6388 -2.8740 -0.7426
   73SLPC  H13Y 6506   1.579   2.738   6.507  0.0311  0.3390 -1.0443
   73SLPC  C314 6507   1.488   2.936   6.524  1.4208 -0.8023  0.3520
   73SLPC  H14X 6508   1.538   2.970   6.431  4.2823  0.8270  2.3384
   73SLPC  H14Y 6509   1.561   2.978   6.596  0.6476  4.5414 -1.5268
   73SLPC  C315 6510   1.349   3.006   6.544 -0.2241 -0.1749 -0.3215
   73SLPC  H15X 6511   1.351   3.117   6.539 -0.2036 -0.2111 -1.1804
   73SLPC  H15Y 6512   1.307   2.987   6.645 -2.2359  1.3520 -0.8104
   73SLPC  C316 6513   1.241   2.960   6.443  0.1381 -0.1376  0.3963
   73SLPC  H16X 6514   1.216   2.853   6.460 -1.6838  0.4346  1.6553
   73SLPC  H16Y 6515   1.288   2.947   6.343  1.5334 -3.7056  1.3526
   73SLPC  C317 6516   1.112   3.039   6.431 -0.7109 -0.5514  0.6113
   73SLPC  H17X 6517   1.138   3.147   6.428  1.1283 -0.9629 -1.5253
   73SLPC  H17Y 6518   1.038   3.011   6.508 -0.0843 -2.8953  0.4403
   73SLPC  C318 6519   1.037   2.997   6.305  0.3372 -0.0298  0.1473
   73SLPC  H18X 6520   1.028   2.886   6.309 -1.6831  0.1289  2.2192
   73SLPC  H18Y 6521   1.086   3.028   6.210 -0.2129  1.1975  0.2583
   73SLPC  H18Z 6522   0.937   3.045   6.305  0.0373 -0.5524  2.4829
   74SLPC     N 6523   1.390   5.187   8.503 -0.6835  0.2449  0.4283
   74SLPC   C13 6524   1.247   5.201   8.539 -0.2183  0.0045 -0.1805
   74SLPC  H13A 6525   1.232   5.129   8.619  0.0982  2.3082  2.0861
   74SLPC  H13B 6526   1.231   5.299   8.581 -2.0929  1.0864 -3.0953
   74SLPC  H13C 6527   1.183   5.177   8.456 -1.8839  1.1084  0.7280
   74SLPC   C14 6528   1.472   5.232   8.617  0.3023 -0.5294  0.1240
   74SLPC  H14A 6529   1.568   5.185   8.630  0.2583 -0.8005 -0.5293
   74SLPC  H14B 6530   1.481   5.340   8.614  0.2769 -0.4973  0.8457
   74SLPC  H14C 6531   1.417   5.215   8.709  0.5853  1.3152  0.6907
   74SLPC   C15 6532   1.425   5.274   8.386 -0.1882 -0.4562 -0.2280
   74SLPC  H15A 6533   1.530   5.259   8.368  0.4567  1.4066  1.5756
   74SLPC  H15B 6534   1.368   5.234   8.304  0.3631 -1.8154  0.0211
   74SLPC  H15C 6535   1.403   5.377   8.411  3.7451  0.4152  0.3530
   74SLPC   C12 6536   1.421   5.044   8.470  0.2583 -0.3874  0.2405
   74SLPC  H12A 6537   1.372   4.983   8.545 -0.6048 -0.3641 -0.2974
   74SLPC  H12B 6538   1.528   5.039   8.485  0.2085 -0.6994  0.4994
   74SLPC   C11 6539   1.376   4.982   8.332  0.0790 -0.2325  0.4820
   74SLPC  H11A 6540   1.424   4.884   8.316  0.5047 -0.0198  0.4442
   74SLPC  H11B 6541   1.421   5.039   8.248 -0.9165 -1.3911 -0.8835
   74SLPC     P 6542   1.146   4.851   8.309  0.5505  0.2771 -0.1387
   74SLPC   O13 6543   1.168   4.774   8.437  0.2960 -0.2779 -0.4436
   74SLPC   O14 6544   1.004   4.887   8.281 -0.3013 -0.8511 -0.2776
   74SLPC   O12 6545   1.230   4.982   8.317 -0.2093 -0.2587 -0.0968
   74SLPC   O11 6546   1.219   4.780   8.193  0.2071  0.7564 -0.2810
   74SLPC    C1 6547   1.207   4.823   8.063 -0.0279  0.2000  0.1779
   74SLPC    HA 6548   1.189   4.931   8.048 -0.0687 -0.1877 -3.4627
   74SLPC    HB 6549   1.305   4.802   8.017  0.9355  0.7818  1.8648
   74SLPC    C2 6550   1.093   4.754   7.972 -0.5216  0.4800 -0.7666
   74SLPC    HS 6551   1.000   4.795   8.016 -0.1607  1.5456 -0.9580
   74SLPC   O21 6552   1.108   4.607   7.983 -0.6924  0.3457  0.4244
   74SLPC   C21 6553   0.988   4.543   7.954 -0.0767  0.5374  0.3793
   74SLPC   O22 6554   0.879   4.592   7.961 -0.0266  0.2623 -0.0864
   74SLPC   C22 6555   1.018   4.390   7.934 -0.9878 -0.2193 -0.6201
   74SLPC   H2R 6556   1.087   4.386   7.847  0.6431 -0.7984  0.6573
   74SLPC   H2S 6557   1.062   4.339   8.022 -0.5090  0.9395 -0.1609
   74SLPC    C3 6558   1.101   4.820   7.826  0.0406  0.5505  0.1973
   74SLPC    HX 6559   1.206   4.798   7.795  1.1589  0.4921  3.6048
   74SLPC    HY 6560   1.100   4.931   7.833  0.4987  0.5647  0.0600
   74SLPC   O31 6561   1.018   4.757   7.726 -0.1905 -0.4761 -0.2362
   74SLPC   C31 6562   0.900   4.822   7.703  0.5364  0.3466 -0.1316
   74SLPC   O32 6563   0.880   4.933   7.750 -0.3077  0.5386  0.1866
   74SLPC   C32 6564   0.797   4.732   7.628 -0.1720  0.1530  0.6596
   74SLPC   H2X 6565   0.694   4.766   7.650 -0.1740 -0.9644  2.5377
   74SLPC   H2Y 6566   0.820   4.627   7.657  0.9766 -0.1960 -1.3167
   74SLPC   C23 6567   0.897   4.303   7.901  0.2368  0.4127 -0.3333
   74SLPC   H3R 6568   0.826   4.288   7.984  0.9293 -0.3472  0.1392
   74SLPC   H3S 6569   0.928   4.201   7.870 -0.3875  0.5340 -1.4108
   74SLPC   C24 6570   0.808   4.343   7.781 -0.0945 -0.7054 -0.2902
   74SLPC   H4R 6571   0.774   4.449   7.786 -1.3072 -1.1216  0.9817
   74SLPC   H4S 6572   0.726   4.270   7.801 -0.3770  0.0996  1.6992
   74SLPC   C25 6573   0.882   4.327   7.650  0.3343 -0.6190 -0.5628
   74SLPC   H5R 6574   0.929   4.226   7.650  0.7954 -0.4091 -0.7151
   74SLPC   H5S 6575   0.953   4.408   7.621 -1.1853  0.2304 -2.0643
   74SLPC   C26 6576   0.766   4.313   7.549 -0.2793  0.5360  0.4204
   74SLPC   H6R 6577   0.713   4.410   7.541 -0.6519  0.2524 -1.0258
   74SLPC   H6S 6578   0.692   4.234   7.577 -0.6683 -0.3324 -2.6236
   74SLPC   C27 6579   0.815   4.292   7.407 -0.3743  0.6268  0.9726
   74SLPC   H7R 6580   0.886   4.207   7.400 -0.5588  0.6023 -1.6798
   74SLPC   H7S 6581   0.877   4.380   7.376  0.8683 -1.1894 -2.2303
   74SLPC   C28 6582   0.705   4.271   7.305  0.0336  0.3378  0.0777
   74SLPC   H8R 6583   0.642   4.184   7.335  0.9466 -0.5858 -0.5652
   74SLPC   H8S 6584   0.746   4.231   7.210 -0.8484  1.3720 -0.7667
   74SLPC   C29 6585   0.622   4.391   7.299  1.0965  1.0750  0.3081
   74SLPC   H9R 6586   0.575   4.410   7.396  0.2455 -1.4596  0.4638
   74SLPC  C210 6587   0.594   4.474   7.197  0.9692 -0.0959  0.1265
   74SLPC  H10R 6588   0.545   4.570   7.217 -0.3510 -0.3093 -1.7359
   74SLPC  C211 6589   0.635   4.460   7.054 -0.1475  0.0380  0.1739
   74SLPC  H11R 6590   0.744   4.438   7.056  0.0221  0.8743  0.3316
   74SLPC  H11S 6591   0.630   4.560   7.005 -0.9189 -0.8181 -1.6179
   74SLPC  C212 6592   0.560   4.348   6.986  0.6830 -0.2080  0.5733
   74SLPC  H12R 6593   0.473   4.300   7.034  0.3633  0.8987  1.1386
   74SLPC  C213 6594   0.583   4.307   6.863  0.6910 -0.2066  0.6751
   74SLPC  H13R 6595   0.515   4.231   6.822  1.5181 -1.5570  1.7297
   74SLPC  C214 6596   0.692   4.355   6.767 -1.0318 -0.0768 -0.0663
   74SLPC  H14R 6597   0.764   4.422   6.818 -1.9450  0.2560  0.8405
   74SLPC  H14S 6598   0.640   4.408   6.685 -2.3276 -1.3378 -0.1094
   74SLPC  C215 6599   0.764   4.234   6.719 -0.1016 -0.0645  0.3101
   74SLPC  H15R 6600   0.809   4.173   6.801  1.0638  0.0552 -0.2161
   74SLPC  H15S 6601   0.854   4.260   6.658  0.2156 -3.2976 -0.7741
   74SLPC  C216 6602   0.688   4.142   6.624 -0.1250  0.6888  0.5069
   74SLPC  H16R 6603   0.665   4.196   6.529 -0.9832 -0.3732  0.1000
   74SLPC  H16S 6604   0.594   4.104   6.667 -0.1113  0.2985  0.1934
   74SLPC  C217 6605   0.765   4.015   6.584 -0.1107  0.9154  0.2012
   74SLPC  H17R 6606   0.787   3.949   6.670 -1.3219  0.1844 -0.0347
   74SLPC  H17S 6607   0.867   4.044   6.551  0.6012  0.4078  1.8379
   74SLPC  C218 6608   0.695   3.925   6.477 -0.2165 -0.4287 -0.5741
   74SLPC  H18R 6609   0.678   3.988   6.387 -0.3578  0.7295  0.2462
   74SLPC  H18S 6610   0.608   3.871   6.518 -0.1911  0.0474  0.1190
   74SLPC  H18T 6611   0.760   3.845   6.435 -2.1242 -1.2061 -2.1665
   74SLPC   C33 6612   0.817   4.756   7.472  0.1620 -0.5770 -0.9869
   74SLPC   H3X 6613   0.799   4.861   7.441 -0.1196  0.0328  1.0891
   74SLPC   H3Y 6614   0.738   4.700   7.416 -1.4187 -1.1566  1.6545
   74SLPC   C34 6615   0.959   4.730   7.427 -0.0705 -0.3021 -0.1325
   74SLPC   H4X 6616   0.991   4.630   7.464 -2.8574 -1.3254 -0.2216
   74SLPC   H4Y 6617   1.016   4.810   7.479 -1.0929 -0.7865  1.8640
   74SLPC   C35 6618   0.978   4.737   7.277 -0.1117  0.2085  0.3665
   74SLPC   H5X 6619   0.944   4.645   7.224  0.6332 -0.9571  1.8249
   74SLPC   H5Y 6620   1.086   4.754   7.257  0.4944  0.1794  3.1843
   74SLPC   C36 6621   0.912   4.859   7.203  0.3057 -0.0573 -0.1229
   74SLPC   H6X 6622   0.940   4.957   7.248  2.3333  0.5164 -2.3871
   74SLPC   H6Y 6623   0.803   4.839   7.209  0.8538 -3.0754  1.3126
   74SLPC   C37 6624   0.952   4.869   7.055  0.0191 -0.9450  0.4568
   74SLPC   H7X 6625   1.036   4.802   7.029  0.6555  0.2339 -0.6420
   74SLPC   H7Y 6626   0.973   4.976   7.032 -2.7516 -0.8390 -2.2425
   74SLPC   C38 6627   0.839   4.824   6.958 -0.2409 -0.1985  0.1239
   74SLPC   H8X 6628   0.751   4.889   6.977  0.3372  0.4505  0.6378
   74SLPC   H8Y 6629   0.820   4.717   6.982  0.6252 -0.3346  0.2438
   74SLPC   C39 6630   0.877   4.840   6.813  0.5936 -0.0861  0.4413
   74SLPC   H9X 6631   0.960   4.777   6.775 -0.9102 -0.9820 -1.5141
   74SLPC   H9Y 6632   0.906   4.946   6.795 -0.8613  0.1774 -0.5696
   74SLPC  C310 6633   0.763   4.800   6.716 -0.4958  0.8112 -0.0403
   74SLPC  H10X 6634   0.669   4.852   6.745 -0.8523 -0.4295  1.1447
   74SLPC  H10Y 6635   0.755   4.689   6.722 -2.5685  0.8875 -0.7162
   74SLPC  C311 6636   0.807   4.824   6.565  1.2487  0.3684  0.3426
   74SLPC  H11X 6637   0.915   4.798   6.556  1.5097 -0.0229  3.5602
   74SLPC  H11Y 6638   0.791   4.933   6.549  1.7031  0.3557 -0.2385
   74SLPC  C312 6639   0.724   4.747   6.462  0.2960 -0.4395  0.5619
   74SLPC  H12X 6640   0.614   4.766   6.464  0.7093  2.2966  1.5599
   74SLPC  H12Y 6641   0.742   4.638   6.473  0.8139 -0.4507 -0.2795
   74SLPC  C313 6642   0.769   4.771   6.314 -0.8826 -0.3062  0.5750
   74SLPC  H13X 6643   0.868   4.737   6.279 -1.0849  0.0058 -0.3067
   74SLPC  H13Y 6644   0.774   4.880   6.297  1.9860 -0.6642 -1.6120
   74SLPC  C314 6645   0.676   4.715   6.211  0.4153 -0.4324 -0.6166
   74SLPC  H14X 6646   0.651   4.611   6.241 -3.1247  0.3845 -0.1697
   74SLPC  H14Y 6647   0.730   4.703   6.115  0.7707  0.8241 -0.5906
   74SLPC  C315 6648   0.551   4.792   6.184  0.2672  0.1062  0.2663
   74SLPC  H15X 6649   0.567   4.901   6.167  0.3411  0.9742  4.7543
   74SLPC  H15Y 6650   0.496   4.806   6.280  0.2929  0.4350  0.2364
   74SLPC  C316 6651   0.453   4.722   6.084  0.5528 -0.2885 -0.7033
   74SLPC  H16X 6652   0.460   4.616   6.115  1.0365  0.0119  0.2410
   74SLPC  H16Y 6653   0.502   4.736   5.985  0.6830  3.3993 -0.2631
   74SLPC  C317 6654   0.309   4.776   6.102 -0.3192  0.7051 -0.3815
   74SLPC  H17X 6655   0.275   4.743   6.202  1.3170 -0.0538 -0.0481
   74SLPC  H17Y 6656   0.239   4.726   6.032 -1.8825  2.1365  0.0924
   74SLPC  C318 6657   0.290   4.929   6.084  0.1846  0.1985 -0.1245
   74SLPC  H18X 6658   0.331   4.967   5.988 -0.2552 -0.8892 -0.7648
   74SLPC  H18Y 6659   0.333   4.986   6.169  0.1885  0.0621 -0.0338
   74SLPC  H18Z 6660   0.181   4.945   6.069  0.2785  2.2174  0.9948
   75SLPC     N 6661   4.184   4.698   8.534  0.0222  1.3098 -0.1186
   75SLPC   C13 6662   4.148   4.560   8.564  0.0828 -0.5652 -0.5409
   75SLPC  H13A 6663   4.165   4.535   8.667 -1.6839  0.0475 -0.0722
   75SLPC  H13B 6664   4.042   4.544   8.551 -0.2493 -0.5173  1.7333
   75SLPC  H13C 6665   4.194   4.485   8.501  0.7989 -1.4188  0.9476
   75SLPC   C14 6666   4.127   4.795   8.630  0.1253  0.3001  0.2662
   75SLPC  H14A 6667   4.115   4.897   8.596 -1.1465  0.4759  1.1540
   75SLPC  H14B 6668   4.031   4.773   8.673  0.4643  1.6764  1.8002
   75SLPC  H14C 6669   4.191   4.805   8.716  0.5564 -2.8507  0.4471
   75SLPC   C15 6670   4.141   4.722   8.397  0.0883  0.4538 -0.0292
   75SLPC  H15A 6671   4.182   4.818   8.368  2.4976 -0.6250 -0.4579
   75SLPC  H15B 6672   4.184   4.649   8.330 -0.6285  1.5162 -1.7364
   75SLPC  H15C 6673   4.034   4.718   8.391 -0.0322 -0.3848  2.0549
   75SLPC   C12 6674   4.339   4.715   8.536 -0.2925 -0.5188  0.6220
   75SLPC  H12A 6675   4.363   4.696   8.640  0.5785  1.1623  0.7759
   75SLPC  H12B 6676   4.369   4.819   8.531  1.5567 -1.0608  0.0626
   75SLPC   C11 6677   4.421   4.617   8.447  0.1231  0.3899 -0.0407
   75SLPC  H11A 6678   4.398   4.513   8.479 -1.9482  0.1990 -1.9196
   75SLPC  H11B 6679   4.528   4.637   8.471  0.6482 -1.0806 -0.9781
   75SLPC     P 6680   4.498   4.526   8.217  0.1595 -0.1728 -0.1072
   75SLPC   O13 6681   4.640   4.548   8.246 -0.2532 -0.2760  0.5889
   75SLPC   O14 6682   4.457   4.386   8.223 -0.3911  0.2442 -0.5225
   75SLPC   O12 6683   4.407   4.627   8.299 -0.2522 -0.2254 -0.5107
   75SLPC   O11 6684   4.460   4.566   8.068 -0.5470  0.0959  0.2903
   75SLPC    C1 6685   4.496   4.688   8.004  0.6167 -0.1508 -0.3116
   75SLPC    HA 6686   4.433   4.769   8.047 -2.6860 -1.2982 -2.5587
   75SLPC    HB 6687   4.603   4.716   8.010  0.1560  1.7976 -0.5153
   75SLPC    C2 6688   4.458   4.694   7.852 -0.1539 -0.0420  0.1527
   75SLPC    HS 6689   4.488   4.793   7.812  1.9192 -0.5188  0.3934
   75SLPC   O21 6690   4.316   4.675   7.823  0.4959 -0.1860  0.4073
   75SLPC   C21 6691   4.240   4.771   7.864 -0.2595 -0.5980  0.3041
   75SLPC   O22 6692   4.268   4.876   7.919 -0.7001  0.2537 -0.1622
   75SLPC   C22 6693   4.097   4.731   7.826  0.2311 -0.3452 -0.1065
   75SLPC   H2R 6694   4.077   4.626   7.854 -1.1719  0.0900  0.6102
   75SLPC   H2S 6695   4.027   4.793   7.887 -1.3737 -1.8884 -0.2991
   75SLPC    C3 6696   4.530   4.593   7.758  0.2063  0.0617  0.7061
   75SLPC    HX 6697   4.488   4.620   7.658  0.1265  0.9892  0.9825
   75SLPC    HY 6698   4.506   4.489   7.790 -1.8088 -0.4931 -2.0935
   75SLPC   O31 6699   4.672   4.624   7.776 -0.2987  0.0025  0.7357
   75SLPC   C31 6700   4.732   4.550   7.681 -0.6505  0.1058 -0.4009
   75SLPC   O32 6701   4.678   4.477   7.601 -0.7505 -0.0878  0.4568
   75SLPC   C32 6702   4.881   4.571   7.689  0.4916  0.4314 -0.5043
   75SLPC   H2X 6703   4.920   4.537   7.787  2.8852  0.8637 -1.2391
   75SLPC   H2Y 6704   4.890   4.682   7.697 -1.0811  0.7028 -1.8546
   75SLPC   C23 6705   4.066   4.746   7.674 -0.0306 -0.8461  0.1013
   75SLPC   H3R 6706   4.140   4.686   7.617  0.9795 -0.6700  1.1951
   75SLPC   H3S 6707   4.075   4.854   7.646 -2.3386 -0.9240 -1.1724
   75SLPC   C24 6708   3.920   4.695   7.640 -0.0272 -0.5527 -0.2780
   75SLPC   H4R 6709   3.866   4.731   7.729 -0.9075 -2.7935  0.1577
   75SLPC   H4S 6710   3.904   4.585   7.639 -1.4809 -0.3517 -1.3623
   75SLPC   C25 6711   3.867   4.759   7.504 -0.2058 -0.2889 -0.4058
   75SLPC   H5R 6712   3.932   4.741   7.416  1.6281  2.4518  0.2523
   75SLPC   H5S 6713   3.864   4.870   7.510  0.4312 -0.2447 -0.7780
   75SLPC   C26 6714   3.720   4.713   7.481  0.8228  0.4576  0.2797
   75SLPC   H6R 6715   3.662   4.764   7.561  0.5084  0.1259  0.2641
   75SLPC   H6S 6716   3.710   4.606   7.508 -2.6234  0.8655  1.1612
   75SLPC   C27 6717   3.646   4.746   7.349 -0.6454  0.2802  0.1286
   75SLPC   H7R 6718   3.670   4.854   7.338  0.5556 -0.0738 -0.8592
   75SLPC   H7S 6719   3.536   4.731   7.352 -0.8442  1.6449  0.4402
   75SLPC   C28 6720   3.701   4.662   7.235  0.3997  0.3748 -0.2090
   75SLPC   H8R 6721   3.657   4.561   7.252  0.4249  0.0167 -2.0461
   75SLPC   H8S 6722   3.811   4.658   7.251  0.2414  0.2280  0.8851
   75SLPC   C29 6723   3.640   4.706   7.106 -0.1397  0.5376 -0.2392
   75SLPC   H9R 6724   3.532   4.723   7.105 -0.2756 -0.2639 -1.7974
   75SLPC  C210 6725   3.709   4.707   6.990 -0.0983  0.1255  0.3516
   75SLPC  H10R 6726   3.665   4.749   6.898  1.4956  3.6363  1.0266
   75SLPC  C211 6727   3.859   4.689   6.973  0.3255  0.4023  0.9608
   75SLPC  H11R 6728   3.890   4.615   7.050 -1.1400  0.9396  2.1184
   75SLPC  H11S 6729   3.915   4.783   6.993 -2.3022  2.0766  1.0660
   75SLPC  C212 6730   3.892   4.619   6.845  0.2189 -0.1928  0.1348
   75SLPC  H12R 6731   3.885   4.510   6.854  1.5181 -0.4358 -1.2063
   75SLPC  C213 6732   3.937   4.659   6.724 -0.4314  0.6053 -0.2520
   75SLPC  H13R 6733   3.957   4.580   6.650 -0.2828  0.9224 -0.5531
   75SLPC  C214 6734   3.976   4.803   6.683 -0.2203  0.2697  0.0715
   75SLPC  H14R 6735   3.938   4.874   6.759 -0.0743  1.6449 -1.0903
   75SLPC  H14S 6736   3.924   4.838   6.590 -0.9337  2.5621  1.2618
   75SLPC  C215 6737   4.129   4.811   6.682 -0.4676  0.0013  0.1840
   75SLPC  H15R 6738   4.151   4.728   6.612  0.9662  0.6406 -0.1482
   75SLPC  H15S 6739   4.151   4.783   6.788 -3.3711  0.2225  0.9295
   75SLPC  C216 6740   4.198   4.942   6.642  0.1330  0.6200 -0.0409
   75SLPC  H16R 6741   4.143   5.031   6.678 -0.0855  0.5100 -0.1060
   75SLPC  H16S 6742   4.191   4.956   6.532 -1.1772  0.2329 -0.0226
   75SLPC  C217 6743   4.338   4.961   6.694  0.3088  0.1845 -0.8165
   75SLPC  H17R 6744   4.355   4.946   6.803  0.9618 -1.5802 -1.1342
   75SLPC  H17S 6745   4.357   5.069   6.675  0.0948  0.0697 -1.7227
   75SLPC  C218 6746   4.453   4.872   6.623  0.5527  0.2510 -0.4367
   75SLPC  H18R 6747   4.448   4.871   6.512 -0.8221  1.8808 -0.4121
   75SLPC  H18S 6748   4.448   4.769   6.665 -1.7039 -1.0028 -3.4593
   75SLPC  H18T 6749   4.549   4.923   6.647 -1.0215  2.6022  1.1999
   75SLPC   C33 6750   4.966   4.491   7.580 -0.2322 -0.0850 -0.3095
   75SLPC   H3X 6751   4.916   4.530   7.488 -0.4606  2.1031  0.6769
   75SLPC   H3Y 6752   4.966   4.381   7.596 -0.8155  0.0231  0.4519
   75SLPC   C34 6753   5.115   4.549   7.580  0.1923  0.1459 -0.4716
   75SLPC   H4X 6754   5.154   4.511   7.677 -0.6430 -0.5586 -0.3915
   75SLPC   H4Y 6755   5.122   4.660   7.577  1.8134  0.1236  1.0001
   75SLPC   C35 6756   5.204   4.492   7.477  0.0523  0.3016 -0.1358
   75SLPC   H5X 6757   5.174   4.388   7.451 -0.9865  0.5910 -0.1110
   75SLPC   H5Y 6758   5.303   4.488   7.528 -1.0326  3.0780  2.4935
   75SLPC   C36 6759   5.215   4.567   7.342 -0.3910 -0.2481 -0.0821
   75SLPC   H6X 6760   5.278   4.655   7.367 -0.1971  0.5659 -3.0295
   75SLPC   H6Y 6761   5.119   4.612   7.308  0.1106  0.0442 -1.1609
   75SLPC   C37 6762   5.278   4.482   7.237 -0.3173  0.0438  0.1124
   75SLPC   H7X 6763   5.220   4.390   7.215  1.4345 -0.9830 -0.4202
   75SLPC   H7Y 6764   5.372   4.444   7.284 -1.2164  1.3086  3.2105
   75SLPC   C38 6765   5.301   4.549   7.096 -0.2450  0.1099  0.3727
   75SLPC   H8X 6766   5.384   4.623   7.100  0.2420 -0.4416  0.6344
   75SLPC   H8Y 6767   5.209   4.601   7.062 -0.0288  1.4097  1.6856
   75SLPC   C39 6768   5.340   4.445   6.981 -0.6695  0.2027 -0.4475
   75SLPC   H9X 6769   5.256   4.373   6.971 -1.5366  0.6212  2.7156
   75SLPC   H9Y 6770   5.435   4.395   7.011 -0.6219  1.1715  1.1179
   75SLPC  C310 6771   5.361   4.514   6.842 -0.3071 -0.6133 -0.5051
   75SLPC  H10X 6772   5.430   4.440   6.796 -1.7533 -1.8086 -0.8274
   75SLPC  H10Y 6773   5.416   4.605   6.873  0.8437 -1.2760 -0.5099
   75SLPC  C311 6774   5.234   4.527   6.760 -0.2119 -0.3245 -0.3070
   75SLPC  H11X 6775   5.169   4.600   6.812 -0.3846 -0.2196 -0.6654
   75SLPC  H11Y 6776   5.176   4.433   6.749 -2.5538  0.9257  0.8343
   75SLPC  C312 6777   5.264   4.594   6.620 -0.4503  0.4521  0.0369
   75SLPC  H12X 6778   5.277   4.519   6.538 -0.4192 -0.4575  0.8599
   75SLPC  H12Y 6779   5.360   4.650   6.625  0.3867 -0.7837 -1.2965
   75SLPC  C313 6780   5.159   4.690   6.578 -0.2950  0.5157  0.0200
   75SLPC  H13X 6781   5.201   4.744   6.491 -0.4624 -1.9084 -1.6601
   75SLPC  H13Y 6782   5.122   4.759   6.657  0.6334  0.2449  0.7201
   75SLPC  C314 6783   5.031   4.617   6.544  0.3957 -0.0883  0.3399
   75SLPC  H14X 6784   5.016   4.545   6.628  0.2664 -0.8569 -0.3281
   75SLPC  H14Y 6785   5.039   4.542   6.462 -0.1458  1.3838 -1.1076
   75SLPC  C315 6786   4.903   4.705   6.536  0.9375 -0.5052  1.0123
   75SLPC  H15X 6787   4.813   4.648   6.507 -0.7409  2.2758  0.4654
   75SLPC  H15Y 6788   4.927   4.770   6.449  0.9963 -1.6135  0.1756
   75SLPC  C316 6789   4.868   4.805   6.650  0.2875 -0.4133 -0.1871
   75SLPC  H16X 6790   4.775   4.853   6.614  0.2963 -1.6029 -1.9168
   75SLPC  H16Y 6791   4.949   4.877   6.676 -0.2021 -0.3053  1.1142
   75SLPC  C317 6792   4.862   4.727   6.781  0.2208 -0.0132 -0.8723
   75SLPC  H17X 6793   4.875   4.803   6.860  0.1451 -0.3012 -0.5824
   75SLPC  H17Y 6794   4.946   4.655   6.792  1.1238  1.2017  0.3715
   75SLPC  C318 6795   4.734   4.646   6.812  0.3081 -0.1056  0.1080
   75SLPC  H18X 6796   4.645   4.711   6.799 -0.0864 -0.5790  0.3907
   75SLPC  H18Y 6797   4.745   4.597   6.911  0.7521 -1.0033 -0.3663
   75SLPC  H18Z 6798   4.728   4.568   6.732  1.0331  0.5434 -0.6087
   76SLPC     N 6799   3.396   3.626   8.479  0.4456  0.5277 -0.4858
   76SLPC   C13 6800   3.373   3.691   8.616  1.1674  0.0574  0.1403
   76SLPC  H13A 6801   3.411   3.620   8.688 -1.0558 -1.3404  0.0282
   76SLPC  H13B 6802   3.427   3.784   8.629  1.2119 -0.0711  0.9036
   76SLPC  H13C 6803   3.267   3.712   8.628  1.3774  0.0964  2.3849
   76SLPC   C14 6804   3.343   3.715   8.372 -1.5322  0.1160 -0.2005
   76SLPC  H14A 6805   3.395   3.809   8.364  0.7726 -1.0605 -0.0554
   76SLPC  H14B 6806   3.352   3.677   8.271  1.6450 -1.2053  0.4589
   76SLPC  H14C 6807   3.240   3.741   8.389 -1.9808 -0.2980 -2.0251
   76SLPC   C15 6808   3.320   3.499   8.473  0.1016  0.5646 -0.0544
   76SLPC  H15A 6809   3.330   3.448   8.378  0.7911  0.5552  0.0224
   76SLPC  H15B 6810   3.362   3.427   8.542 -0.1805  0.2261 -0.2292
   76SLPC  H15C 6811   3.216   3.519   8.493  0.1380  0.5703  0.1351
   76SLPC   C12 6812   3.541   3.582   8.461  0.1561  0.1381  0.5620
   76SLPC  H12A 6813   3.560   3.498   8.527 -0.4468 -0.5763 -0.1464
   76SLPC  H12B 6814   3.605   3.667   8.480  2.6533 -0.7527 -2.8442
   76SLPC   C11 6815   3.588   3.542   8.322 -0.5794  0.9576  0.5225
   76SLPC  H11A 6816   3.582   3.628   8.251 -3.0567  0.2348 -0.2785
   76SLPC  H11B 6817   3.520   3.462   8.285 -1.2313  2.2578 -1.2642
   76SLPC     P 6818   3.843   3.577   8.351 -0.0073  0.0763 -0.3202
   76SLPC   O13 6819   3.804   3.704   8.418  0.4926 -0.3161 -0.8019
   76SLPC   O14 6820   3.941   3.495   8.424 -0.2371  0.2702 -0.5149
   76SLPC   O12 6821   3.714   3.487   8.346  0.7048 -0.0823 -0.0113
   76SLPC   O11 6822   3.893   3.614   8.206 -0.1391  0.5457  0.3689
   76SLPC    C1 6823   3.876   3.524   8.098 -0.2913  0.5766  0.1685
   76SLPC    HA 6824   3.920   3.423   8.111 -2.1469 -0.8043 -3.1283
   76SLPC    HB 6825   3.769   3.498   8.090 -0.2230 -0.4099  1.8778
   76SLPC    C2 6826   3.926   3.591   7.970  0.1050  0.7135  0.2004
   76SLPC    HS 6827   3.899   3.531   7.881 -0.5987  2.2080 -0.6409
   76SLPC   O21 6828   4.066   3.605   7.978 -0.0706 -0.0401  0.6854
   76SLPC   C21 6829   4.142   3.512   7.925  0.1889 -0.4701 -0.0797
   76SLPC   O22 6830   4.102   3.416   7.860  0.3409 -0.3576  0.6467
   76SLPC   C22 6831   4.291   3.552   7.944  0.0923  0.1284  0.0641
   76SLPC   H2R 6832   4.283   3.645   8.004  1.2993  1.7720 -2.1584
   76SLPC   H2S 6833   4.339   3.474   8.007 -0.2443  1.3046  1.8472
   76SLPC    C3 6834   3.855   3.730   7.938 -0.8426 -0.1498  0.7269
   76SLPC    HX 6835   3.911   3.798   8.006 -0.5448  0.2797  0.0675
   76SLPC    HY 6836   3.746   3.722   7.956 -1.1285  1.3081 -0.1760
   76SLPC   O31 6837   3.884   3.767   7.795  0.1728 -0.3715 -0.1225
   76SLPC   C31 6838   3.817   3.699   7.699  0.2528  0.4028  0.6688
   76SLPC   O32 6839   3.730   3.619   7.718  0.4110  0.2860  0.0645
   76SLPC   C32 6840   3.865   3.754   7.562 -0.4107 -0.4438 -0.1740
   76SLPC   H2X 6841   3.974   3.730   7.565 -0.2336  0.0269 -1.9499
   76SLPC   H2Y 6842   3.851   3.864   7.553  0.3460 -0.2693  0.5703
   76SLPC   C23 6843   4.368   3.588   7.809  0.0605 -0.1838 -0.1285
   76SLPC   H3R 6844   4.398   3.496   7.754  0.0878 -0.5545  0.5065
   76SLPC   H3S 6845   4.463   3.630   7.848 -0.1408  0.0462  0.1137
   76SLPC   C24 6846   4.295   3.691   7.725  0.0166 -0.2547 -0.1170
   76SLPC   H4R 6847   4.276   3.781   7.789 -1.8256  0.6929 -1.8683
   76SLPC   H4S 6848   4.193   3.654   7.699 -1.6273  3.1316  0.8026
   76SLPC   C25 6849   4.374   3.731   7.598  1.1392  0.0781 -0.0633
   76SLPC   H5R 6850   4.400   3.636   7.546 -2.5259 -1.0246 -0.1700
   76SLPC   H5S 6851   4.466   3.784   7.631  1.2509 -0.5910  0.7309
   76SLPC   C26 6852   4.296   3.834   7.500 -0.9859 -0.1072  0.3859
   76SLPC   H6R 6853   4.273   3.925   7.559  1.4842  0.2887  0.8350
   76SLPC   H6S 6854   4.196   3.792   7.475 -1.2569  0.1800  0.9895
   76SLPC   C27 6855   4.373   3.863   7.374 -0.2901  0.2846  0.5825
   76SLPC   H7R 6856   4.407   3.773   7.318  2.1480  0.9137  0.9033
   76SLPC   H7S 6857   4.460   3.922   7.412 -0.2497  0.7083 -0.1339
   76SLPC   C28 6858   4.321   3.961   7.270  0.2451 -0.1743 -0.0970
   76SLPC   H8R 6859   4.392   4.002   7.194  2.2988  0.8511  2.2131
   76SLPC   H8S 6860   4.297   4.049   7.334  0.1997 -1.4360  1.6655
   76SLPC   C29 6861   4.190   3.914   7.213  0.6411 -0.4856  0.1673
   76SLPC   H9R 6862   4.115   3.885   7.288 -0.1004 -0.3746 -0.5207
   76SLPC  C210 6863   4.168   3.888   7.079  0.2930  0.4438  0.1614
   76SLPC  H10R 6864   4.075   3.836   7.054  0.8443 -0.1008 -0.8469
   76SLPC  C211 6865   4.279   3.902   6.975 -0.1075  0.6264 -0.1625
   76SLPC  H11R 6866   4.299   3.798   6.941  0.8752  0.4724  0.8478
   76SLPC  H11S 6867   4.384   3.932   6.992 -0.1560  1.3621 -1.0400
   76SLPC  C212 6868   4.242   3.987   6.856  0.1653  0.5727  0.2115
   76SLPC  H12R 6869   4.235   4.093   6.884 -1.8843 -0.0565  2.4136
   76SLPC  C213 6870   4.233   3.957   6.724 -0.4743  0.0958 -0.1661
   76SLPC  H13R 6871   4.201   4.032   6.650 -0.9080 -0.8574 -0.9653
   76SLPC  C214 6872   4.242   3.819   6.659  0.4367  0.5299  0.1362
   76SLPC  H14R 6873   4.140   3.780   6.637  0.8392 -0.8271  0.5573
   76SLPC  H14S 6874   4.275   3.748   6.737 -0.1069 -0.0634 -0.1570
   76SLPC  C215 6875   4.318   3.805   6.527  0.5108 -0.0084  0.0478
   76SLPC  H15R 6876   4.340   3.700   6.499  0.4584  0.0525 -0.2315
   76SLPC  H15S 6877   4.410   3.868   6.532 -0.0854  0.7898  1.5962
   76SLPC  C216 6878   4.229   3.868   6.410 -0.6947 -0.1479 -0.1354
   76SLPC  H16R 6879   4.206   3.975   6.431 -0.8358  0.2820 -2.2901
   76SLPC  H16S 6880   4.134   3.810   6.409 -0.6054 -0.3217  0.4740
   76SLPC  C217 6881   4.306   3.867   6.272 -0.1279  0.2973  0.2780
   76SLPC  H17R 6882   4.389   3.939   6.261 -0.1890  0.2876 -0.2683
   76SLPC  H17S 6883   4.223   3.897   6.205  0.2566  0.3733 -0.1665
   76SLPC  C218 6884   4.350   3.732   6.222 -0.7534 -0.6485  0.5404
   76SLPC  H18R 6885   4.401   3.736   6.123  0.1644  0.5041  1.0311
   76SLPC  H18S 6886   4.265   3.661   6.215  0.2401 -1.8953  0.8430
   76SLPC  H18T 6887   4.431   3.699   6.290 -0.4470 -1.4825 -0.2114
   76SLPC   C33 6888   3.811   3.678   7.440 -0.7391  0.3240 -0.6056
   76SLPC   H3X 6889   3.700   3.691   7.446 -0.5189  2.2588  0.2049
   76SLPC   H3Y 6890   3.829   3.571   7.462  1.9702  0.8049 -0.1636
   76SLPC   C34 6891   3.869   3.708   7.298  0.2739  0.1855 -0.3239
   76SLPC   H4X 6892   3.980   3.705   7.306  0.2407 -0.5891 -0.0019
   76SLPC   H4Y 6893   3.837   3.812   7.280 -1.3021 -0.3449 -0.7060
   76SLPC   C35 6894   3.807   3.617   7.188  0.1925 -0.4499  0.6827
   76SLPC   H5X 6895   3.698   3.638   7.181  0.3738  0.8322  1.5525
   76SLPC   H5Y 6896   3.818   3.508   7.208  0.0638 -0.4885  0.5495
   76SLPC   C36 6897   3.862   3.654   7.050 -0.4778 -0.0692 -0.3518
   76SLPC   H6X 6898   3.969   3.624   7.054  0.2235  2.2556 -0.2138
   76SLPC   H6Y 6899   3.861   3.763   7.030 -1.0992  0.5194  2.5189
   76SLPC   C37 6900   3.792   3.569   6.938  0.2117 -0.7140  0.6518
   76SLPC   H7X 6901   3.686   3.599   6.929  0.6522  1.2144  1.4802
   76SLPC   H7Y 6902   3.810   3.462   6.964 -0.2775 -0.9517  0.0535
   76SLPC   C38 6903   3.875   3.587   6.801  0.4330  0.5407 -0.6930
   76SLPC   H8X 6904   3.979   3.564   6.834  0.3420  0.4590 -0.4623
   76SLPC   H8Y 6905   3.868   3.693   6.771 -1.6158  0.0581 -2.1006
   76SLPC   C39 6906   3.844   3.486   6.695  0.7208 -1.3188  0.5300
   76SLPC   H9X 6907   3.810   3.392   6.745 -1.6715 -0.9172 -0.2164
   76SLPC   H9Y 6908   3.925   3.462   6.623  1.1705 -1.0599  0.9456
   76SLPC  C310 6909   3.732   3.534   6.593 -0.4983  0.2740  0.1644
   76SLPC  H10X 6910   3.781   3.604   6.522 -1.7431  0.9108 -0.1160
   76SLPC  H10Y 6911   3.669   3.590   6.665 -0.4531 -0.9171  1.1581
   76SLPC  C311 6912   3.637   3.422   6.533 -0.3999  0.5263 -0.0822
   76SLPC  H11X 6913   3.580   3.365   6.609  0.7398  0.9179  1.1054
   76SLPC  H11Y 6914   3.709   3.351   6.489 -1.0446 -1.0441  1.3019
   76SLPC  C312 6915   3.549   3.477   6.420 -0.0516 -0.1044  0.6089
   76SLPC  H12X 6916   3.612   3.525   6.342  0.9703  0.7856  1.9465
   76SLPC  H12Y 6917   3.486   3.559   6.461 -1.6814 -1.3887  0.7912
   76SLPC  C313 6918   3.450   3.379   6.355 -0.6312  0.5724 -1.0616
   76SLPC  H13X 6919   3.382   3.449   6.301 -0.0434  0.3519 -2.0991
   76SLPC  H13Y 6920   3.383   3.315   6.417  0.6647 -2.6888 -2.7942
   76SLPC  C314 6921   3.514   3.285   6.249  0.1791  1.1679 -0.2131
   76SLPC  H14X 6922   3.565   3.194   6.285  1.4304  1.3491 -1.4167
   76SLPC  H14Y 6923   3.589   3.347   6.194  2.1143 -0.1344  0.8310
   76SLPC  C315 6924   3.419   3.224   6.137  0.1815  0.1809  0.6845
   76SLPC  H15X 6925   3.471   3.144   6.080 -1.3104 -0.7341  0.5557
   76SLPC  H15Y 6926   3.399   3.308   6.068  0.7991  1.0169  1.4909
   76SLPC  C316 6927   3.281   3.183   6.196  0.3159  0.3239  0.3436
   76SLPC  H16X 6928   3.209   3.176   6.112 -0.8523  0.2103  1.3273
   76SLPC  H16Y 6929   3.243   3.267   6.256 -1.5146  0.3703 -0.8216
   76SLPC  C317 6930   3.285   3.059   6.280  0.0642  0.1983  0.0813
   76SLPC  H17X 6931   3.374   3.072   6.344  0.8488  1.8517 -1.2477
   76SLPC  H17Y 6932   3.300   2.962   6.227 -0.3622 -0.0280  0.3661
   76SLPC  C318 6933   3.164   3.031   6.366  0.1745 -0.6118  0.5609
   76SLPC  H18X 6934   3.141   3.123   6.425  0.9400 -0.1887  0.2094
   76SLPC  H18Y 6935   3.184   2.955   6.445  0.3015  1.1741  2.3472
   76SLPC  H18Z 6936   3.081   3.006   6.297 -0.4155 -1.3672  1.5126
   77SLPC     N 6937   3.722   5.270   8.343 -0.3059  0.1410  0.1887
   77SLPC   C13 6938   3.800   5.214   8.449 -0.7387 -0.0832 -0.1851
   77SLPC  H13A 6939   3.831   5.284   8.525 -0.7023 -1.4820  1.1419
   77SLPC  H13B 6940   3.751   5.124   8.481 -1.0015 -0.8302 -2.4883
   77SLPC  H13C 6941   3.892   5.173   8.410 -0.3828  1.0856 -0.6250
   77SLPC   C14 6942   3.598   5.330   8.402  0.0981  0.2638  0.0474
   77SLPC  H14A 6943   3.622   5.413   8.467  1.8532 -0.1262 -0.0642
   77SLPC  H14B 6944   3.546   5.378   8.320 -0.0120  1.1201  0.6097
   77SLPC  H14C 6945   3.553   5.259   8.471  1.6391  0.7941  1.6789
   77SLPC   C15 6946   3.686   5.162   8.249 -0.7733 -0.0479 -0.7422
   77SLPC  H15A 6947   3.769   5.098   8.224 -0.5703 -0.4414  0.8381
   77SLPC  H15B 6948   3.602   5.101   8.280 -1.3613  1.0097 -0.2026
   77SLPC  H15C 6949   3.659   5.213   8.158  3.3672  1.0331 -1.5588
   77SLPC   C12 6950   3.796   5.376   8.270  0.1004 -0.6306 -0.1584
   77SLPC  H12A 6951   3.818   5.446   8.349 -2.0046  1.0145 -0.9373
   77SLPC  H12B 6952   3.728   5.432   8.207 -0.1575  0.3854  0.9933
   77SLPC   C11 6953   3.921   5.324   8.202 -0.0884 -0.4028 -0.2866
   77SLPC  H11A 6954   3.949   5.403   8.128  2.1909 -0.1513  0.7703
   77SLPC  H11B 6955   3.906   5.231   8.143  0.7095  0.4441 -1.9007
   77SLPC     P 6956   4.097   5.405   8.364  0.0416  0.1155 -0.3114
   77SLPC   O13 6957   4.000   5.465   8.458 -0.5938 -0.0368 -0.5359
   77SLPC   O14 6958   4.214   5.341   8.429  0.0998 -0.5428  0.2259
   77SLPC   O12 6959   4.028   5.290   8.285  0.2613 -0.5590  0.0995
   77SLPC   O11 6960   4.138   5.510   8.248 -0.2771 -0.3880 -0.7267
   77SLPC    C1 6961   4.249   5.498   8.156 -0.0984 -0.1900 -0.8481
   77SLPC    HA 6962   4.346   5.517   8.208 -0.0320  1.4527 -1.5155
   77SLPC    HB 6963   4.247   5.399   8.104 -2.7788  0.0315 -1.3176
   77SLPC    C2 6964   4.256   5.605   8.046  0.0253 -0.0882 -0.4123
   77SLPC    HS 6965   4.240   5.706   8.090  1.5094  0.0598 -0.1338
   77SLPC   O21 6966   4.161   5.581   7.947 -0.8588  0.1782 -0.1442
   77SLPC   C21 6967   4.095   5.680   7.892  0.0094 -0.0214  0.9544
   77SLPC   O22 6968   4.122   5.798   7.906  0.1207 -0.2844 -0.1196
   77SLPC   C22 6969   4.006   5.617   7.771  0.1393 -1.0500  0.2448
   77SLPC   H2R 6970   4.071   5.571   7.694  1.0366 -0.4877  0.6416
   77SLPC   H2S 6971   3.944   5.535   7.811 -0.6832 -0.3577  0.4092
   77SLPC    C3 6972   4.397   5.609   7.987  0.1145 -0.5010  0.2298
   77SLPC    HX 6973   4.412   5.507   7.946  1.4833 -0.0895 -0.3423
   77SLPC    HY 6974   4.462   5.619   8.077 -2.5379 -0.4055  2.2713
   77SLPC   O31 6975   4.419   5.710   7.881  0.2003  0.0902 -0.3601
   77SLPC   C31 6976   4.458   5.830   7.919 -0.9959 -0.4566  0.0813
   77SLPC   O32 6977   4.492   5.849   8.035  0.0730  0.2891  0.7631
   77SLPC   C32 6978   4.479   5.936   7.810  0.2153 -0.4768  0.1149
   77SLPC   H2X 6979   4.549   5.893   7.735 -1.5230  0.4980 -2.2099
   77SLPC   H2Y 6980   4.546   6.010   7.859 -0.9292  0.2335  0.6329
   77SLPC   C23 6981   3.903   5.726   7.729 -0.3162 -0.2721  0.1261
   77SLPC   H3R 6982   3.964   5.815   7.701  1.6601 -1.9855 -1.4068
   77SLPC   H3S 6983   3.838   5.752   7.815 -1.1855  2.3346 -1.1946
   77SLPC   C24 6984   3.828   5.688   7.599 -0.5340 -0.2823 -1.1022
   77SLPC   H4R 6985   3.894   5.651   7.517  1.0235 -1.2767  0.5349
   77SLPC   H4S 6986   3.763   5.771   7.564  1.5947  1.1204 -1.9442
   77SLPC   C25 6987   3.727   5.576   7.612 -0.6457 -0.3481 -0.6689
   77SLPC   H5R 6988   3.667   5.614   7.697  0.4285  3.2692 -1.3187
   77SLPC   H5S 6989   3.779   5.480   7.633 -1.1675 -0.7076 -1.0109
   77SLPC   C26 6990   3.648   5.560   7.482  0.4572 -0.1489 -1.2289
   77SLPC   H6R 6991   3.714   5.521   7.402  3.6971  0.5689  0.9155
   77SLPC   H6S 6992   3.614   5.664   7.460 -1.3342 -0.4716 -0.2378
   77SLPC   C27 6993   3.521   5.468   7.502 -0.5998  0.6734  0.2754
   77SLPC   H7R 6994   3.464   5.505   7.590 -0.9822 -1.1162  0.8339
   77SLPC   H7S 6995   3.552   5.366   7.535 -1.2283  0.7133  1.0326
   77SLPC   C28 6996   3.419   5.463   7.388  0.1039  0.6188  0.5046
   77SLPC   H8R 6997   3.379   5.564   7.370  0.5623  0.7715  0.3125
   77SLPC   H8S 6998   3.336   5.395   7.416  1.9814 -1.7964  0.6686
   77SLPC   C29 6999   3.472   5.386   7.259  0.1173 -0.5039  0.1680
   77SLPC   H9R 7000   3.475   5.277   7.265  2.4766 -0.4058  1.9586
   77SLPC  C210 7001   3.534   5.455   7.158 -0.3163 -0.5813 -0.1275
   77SLPC  H10R 7002   3.565   5.396   7.070 -1.2560  0.9032 -1.5161
   77SLPC  C211 7003   3.556   5.600   7.146 -0.3299  0.0004 -0.6053
   77SLPC  H11R 7004   3.651   5.625   7.198 -0.8951 -0.8863  0.9175
   77SLPC  H11S 7005   3.482   5.654   7.208 -0.3832 -1.6546  0.8263
   77SLPC  C212 7006   3.541   5.647   7.005  0.6702 -0.2149  0.2255
   77SLPC  H12R 7007   3.444   5.619   6.960 -0.8879  1.5814  2.2527
   77SLPC  C213 7008   3.614   5.726   6.925  0.2109 -0.0232 -0.4986
   77SLPC  H13R 7009   3.565   5.737   6.827 -0.3789 -0.8214 -0.3035
   77SLPC  C214 7010   3.738   5.797   6.955  0.8294  0.4268 -0.0131
   77SLPC  H14R 7011   3.763   5.797   7.063  1.4247  1.1021 -0.1475
   77SLPC  H14S 7012   3.727   5.903   6.924 -0.5779  0.6305  1.1161
   77SLPC  C215 7013   3.863   5.738   6.888  0.4722 -0.5943  0.0717
   77SLPC  H15R 7014   3.896   5.635   6.912 -0.4874 -1.4100 -1.9323
   77SLPC  H15S 7015   3.948   5.801   6.923  0.1942 -0.2210  0.0781
   77SLPC  C216 7016   3.858   5.764   6.739 -0.0041 -0.3175  0.2905
   77SLPC  H16R 7017   3.830   5.870   6.720  0.8097  0.2821  2.1186
   77SLPC  H16S 7018   3.777   5.699   6.699 -0.7583  1.1318 -0.6296
   77SLPC  C217 7019   3.989   5.714   6.676 -0.1039  0.6172  0.5387
   77SLPC  H17R 7020   3.985   5.721   6.566 -0.0474  0.8498  0.5518
   77SLPC  H17S 7021   3.985   5.605   6.700 -1.6875  0.2154 -1.2923
   77SLPC  C218 7022   4.118   5.768   6.735 -0.3164 -0.1042 -0.1663
   77SLPC  H18R 7023   4.202   5.731   6.672  1.4658  1.1294  1.3535
   77SLPC  H18S 7024   4.133   5.737   6.841  2.0976  1.5225  0.0527
   77SLPC  H18T 7025   4.105   5.877   6.750 -2.3104 -0.3826  0.3646
   77SLPC   C33 7026   4.360   5.991   7.734  0.4374 -0.6662  0.5989
   77SLPC   H3X 7027   4.380   6.086   7.680  1.2623 -2.0912 -1.7633
   77SLPC   H3Y 7028   4.276   6.016   7.802  0.1402 -1.0573  0.3812
   77SLPC   C34 7029   4.321   5.885   7.625  0.6834 -0.1201  0.3456
   77SLPC   H4X 7030   4.267   5.795   7.663 -1.7317 -0.5478 -3.4863
   77SLPC   H4Y 7031   4.414   5.844   7.581  0.7560  1.5353 -1.1575
   77SLPC   C35 7032   4.225   5.939   7.508 -0.9492 -0.0505  0.0419
   77SLPC   H5X 7033   4.271   6.025   7.454 -0.6692 -1.1397 -1.5112
   77SLPC   H5Y 7034   4.132   5.975   7.559 -1.6160 -0.5508 -0.8012
   77SLPC   C36 7035   4.195   5.824   7.415  0.7548  0.4971  0.7760
   77SLPC   H6X 7036   4.146   5.738   7.464 -0.1837 -0.2055 -1.2667
   77SLPC   H6Y 7037   4.292   5.782   7.381  0.3267 -0.8796  1.2191
   77SLPC   C37 7038   4.126   5.864   7.284  0.3770  0.5147  0.4126
   77SLPC   H7X 7039   4.176   5.946   7.228 -0.3837  0.1012 -0.9141
   77SLPC   H7Y 7040   4.023   5.902   7.299  0.3667  0.2409  1.0439
   77SLPC   C38 7041   4.121   5.743   7.178  0.2408 -1.4134 -0.3753
   77SLPC   H8X 7042   4.228   5.715   7.172  0.7972  0.5502 -0.4634
   77SLPC   H8Y 7043   4.097   5.779   7.076  1.0852  3.0412  0.7420
   77SLPC   C39 7044   4.026   5.626   7.214 -0.5315  0.0270 -0.0506
   77SLPC   H9X 7045   3.926   5.667   7.192  0.5719  3.0202  0.0181
   77SLPC   H9Y 7046   4.044   5.611   7.323 -1.2312 -0.3831  0.0092
   77SLPC  C310 7047   4.048   5.498   7.136 -0.0578 -0.2230 -0.5031
   77SLPC  H10X 7048   4.143   5.454   7.174  0.3331  2.7027  2.3501
   77SLPC  H10Y 7049   4.068   5.522   7.029  0.2935  0.2242 -0.3435
   77SLPC  C311 7050   3.928   5.413   7.138  0.3703  0.4545  0.1683
   77SLPC  H11X 7051   3.843   5.457   7.081 -0.1394 -1.4685 -0.6287
   77SLPC  H11Y 7052   3.900   5.381   7.241 -1.1833 -2.7158 -1.1111
   77SLPC  C312 7053   3.961   5.276   7.069  0.4599  0.0814 -0.6006
   77SLPC  H12X 7054   4.055   5.235   7.113  1.1376  1.4566 -0.7208
   77SLPC  H12Y 7055   3.985   5.295   6.963  0.9414  0.4997 -0.4226
   77SLPC  C313 7056   3.831   5.188   7.086 -0.8324  0.3814 -0.5422
   77SLPC  H13X 7057   3.837   5.115   7.001  2.8520 -0.0689 -0.0456
   77SLPC  H13Y 7058   3.739   5.250   7.079  0.2052  1.9165 -0.8808
   77SLPC  C314 7059   3.831   5.087   7.205  0.5677 -0.1744 -0.4889
   77SLPC  H14X 7060   3.747   5.017   7.187  1.3696 -1.1835 -0.3683
   77SLPC  H14Y 7061   3.820   5.139   7.303  1.7787  0.6374 -0.7651
   77SLPC  C315 7062   3.957   4.998   7.198  0.2014 -0.1823  0.4410
   77SLPC  H15X 7063   4.016   5.001   7.105  1.4262 -0.1678  1.2019
   77SLPC  H15Y 7064   3.936   4.889   7.200  0.3209 -0.2685 -1.6459
   77SLPC  C316 7065   4.057   5.041   7.302  0.9288 -0.3360  0.1376
   77SLPC  H16X 7066   4.012   5.006   7.397  0.0346  0.8612  0.1819
   77SLPC  H16Y 7067   4.071   5.151   7.311  2.9696 -0.5930  0.5419
   77SLPC  C317 7068   4.195   4.966   7.288 -0.2737 -0.3216  0.0668
   77SLPC  H17X 7069   4.224   4.985   7.183  1.2297 -0.5096  0.4372
   77SLPC  H17Y 7070   4.169   4.859   7.306 -2.5208  0.3459  1.1706
   77SLPC  C318 7071   4.313   5.015   7.370  0.3891  0.3470 -0.1265
   77SLPC  H18X 7072   4.301   5.026   7.480 -0.5958 -2.1448  0.0997
   77SLPC  H18Y 7073   4.353   5.110   7.329 -0.4406 -0.0272 -1.9294
   77SLPC  H18Z 7074   4.392   4.937   7.370  0.0996  0.0314  0.7704
   78SLPC     N 7075   6.226   0.677   8.311 -0.8379 -0.0950 -0.0232
   78SLPC   C13 7076   6.243   0.528   8.330  0.0053  0.9715  0.3169
   78SLPC  H13A 7077   6.335   0.490   8.288 -0.8795 -1.0727  0.1480
   78SLPC  H13B 7078   6.247   0.497   8.433  1.0312 -0.9692 -0.2485
   78SLPC  H13C 7079   6.162   0.478   8.280  0.6922  0.8977 -0.7606
   78SLPC   C14 7080   6.301   0.715   8.189  0.0380 -0.2597  0.7460
   78SLPC  H14A 7081   6.397   0.669   8.171 -0.4104 -0.9834  0.1746
   78SLPC  H14B 7082   6.246   0.685   8.101  1.5998  1.7039 -1.0509
   78SLPC  H14C 7083   6.328   0.819   8.172 -0.2297 -0.4245 -0.9234
   78SLPC   C15 7084   6.303   0.738   8.433 -0.5134 -0.6456 -0.1533
   78SLPC  H15A 7085   6.402   0.696   8.433  1.0142  2.5637  1.9977
   78SLPC  H15B 7086   6.325   0.843   8.421  1.8655 -1.0821 -0.1101
   78SLPC  H15C 7087   6.260   0.716   8.529  2.0899 -1.5021  0.9144
   78SLPC   C12 7088   6.083   0.721   8.306 -0.0303 -0.5868  0.4741
   78SLPC  H12A 7089   6.085   0.828   8.289 -2.8984 -0.6393 -0.8925
   78SLPC  H12B 7090   6.041   0.698   8.403  0.6584 -2.4138  0.3793
   78SLPC   C11 7091   5.988   0.661   8.206  0.2833 -0.3396 -0.1048
   78SLPC  H11A 7092   6.022   0.668   8.100 -3.6642 -1.7739 -1.6596
   78SLPC  H11B 7093   5.895   0.720   8.197  1.0625  0.9766  0.2216
   78SLPC     P 7094   5.824   0.479   8.290  0.0628 -0.1134  0.3385
   78SLPC   O13 7095   5.854   0.384   8.400  0.4288  0.1608  0.0664
   78SLPC   O14 7096   5.748   0.601   8.325  0.6508  0.0804  0.3447
   78SLPC   O12 7097   5.967   0.524   8.231 -0.6735  0.1674 -0.0185
   78SLPC   O11 7098   5.760   0.399   8.169 -0.5041 -0.0909 -0.4456
   78SLPC    C1 7099   5.823   0.280   8.110  0.0266  0.1993 -0.1130
   78SLPC    HA 7100   5.852   0.204   8.187 -2.5976 -0.1168  0.6628
   78SLPC    HB 7101   5.744   0.239   8.045 -0.2112 -0.6137  0.6624
   78SLPC    C2 7102   5.939   0.316   8.004 -0.8594  0.2862  0.1820
   78SLPC    HS 7103   6.026   0.336   8.070 -0.0256  1.3948 -1.2120
   78SLPC   O21 7104   5.898   0.435   7.930  0.2119 -0.0923 -0.6286
   78SLPC   C21 7105   5.998   0.503   7.882 -0.1256  0.2655  0.0032
   78SLPC   O22 7106   6.120   0.482   7.902  0.0226 -0.4276  0.4316
   78SLPC   C22 7107   5.939   0.616   7.799  0.4199  0.7103 -0.1873
   78SLPC   H2R 7108   5.853   0.577   7.741 -0.3988  1.9548  0.1355
   78SLPC   H2S 7109   5.904   0.707   7.852 -0.1476  1.3677 -1.6318
   78SLPC    C3 7110   5.967   0.193   7.907  0.2172  0.0640  0.4074
   78SLPC    HX 7111   5.882   0.167   7.841  1.8231  1.1732 -2.2937
   78SLPC    HY 7112   6.000   0.113   7.976  1.0956  0.5075  0.5205
   78SLPC   O31 7113   6.073   0.218   7.811  0.3709 -0.0320  0.4797
   78SLPC   C31 7114   6.092   0.116   7.731 -0.2391 -0.7054  0.0238
   78SLPC   O32 7115   6.041   0.008   7.747 -0.2922 -0.2082 -0.1455
   78SLPC   C32 7116   6.168   0.152   7.600  0.2200  0.3682  0.2874
   78SLPC   H2X 7117   6.209   0.053   7.571 -0.8745  0.2092 -0.8079
   78SLPC   H2Y 7118   6.249   0.223   7.628  0.4992 -0.0560  0.5760
   78SLPC   C23 7119   6.048   0.677   7.711 -0.2287  0.2518  1.2318
   78SLPC   H3R 7120   6.122   0.600   7.681  1.0179  1.8162  0.1929
   78SLPC   H3S 7121   6.106   0.743   7.778 -0.0617 -0.0653  1.3994
   78SLPC   C24 7122   5.985   0.747   7.591  0.1628 -0.3437 -0.1770
   78SLPC   H4R 7123   6.052   0.829   7.558 -1.9836  1.1454 -1.0367
   78SLPC   H4S 7124   5.888   0.794   7.616  0.0080 -0.9585  0.4194
   78SLPC   C25 7125   5.965   0.654   7.473  0.0703  0.0070 -0.0462
   78SLPC   H5R 7126   5.881   0.585   7.496  1.6059 -1.8505  0.2339
   78SLPC   H5S 7127   6.054   0.589   7.458  0.3340  0.1802  0.7121
   78SLPC   C26 7128   5.937   0.724   7.343 -0.3722  0.5691 -0.4581
   78SLPC   H6R 7129   6.018   0.798   7.320  0.9493 -1.0682 -1.3175
   78SLPC   H6S 7130   5.840   0.777   7.351 -0.5903  0.1990 -0.6387
   78SLPC   C27 7131   5.934   0.628   7.228  0.4651 -0.1545  0.2520
   78SLPC   H7R 7132   5.854   0.554   7.249  1.4021 -1.6883 -1.3229
   78SLPC   H7S 7133   6.018   0.555   7.225 -0.3085 -1.1716  1.7767
   78SLPC   C28 7134   5.908   0.685   7.087  0.2239  0.4414  0.1528
   78SLPC   H8R 7135   6.005   0.725   7.050  1.7030 -1.6649  1.5179
   78SLPC   H8S 7136   5.836   0.767   7.108 -1.3933 -0.9156  0.0417
   78SLPC   C29 7137   5.854   0.590   6.988 -0.4357 -0.6223 -0.3915
   78SLPC   H9R 7138   5.791   0.511   7.031 -2.0237  0.6806 -0.2256
   78SLPC  C210 7139   5.888   0.595   6.856  0.4409 -0.0050  0.3011
   78SLPC  H10R 7140   5.862   0.516   6.785  1.5961 -0.5167  0.4149
   78SLPC  C211 7141   5.974   0.703   6.792 -0.3805  0.3408  0.2151
   78SLPC  H11R 7142   6.041   0.761   6.860  0.3853 -1.5383  1.1318
   78SLPC  H11S 7143   5.903   0.777   6.751  0.4677  0.0790 -1.8757
   78SLPC  C212 7144   6.063   0.646   6.685  0.1341  0.6885  0.3927
   78SLPC  H12R 7145   6.169   0.631   6.711 -0.0188 -0.5647  0.3542
   78SLPC  C213 7146   6.029   0.626   6.556 -0.1299 -0.4551 -0.6053
   78SLPC  H13R 7147   6.109   0.603   6.485 -1.4819 -2.2461 -1.6361
   78SLPC  C214 7148   5.889   0.655   6.495 -0.5311  0.7757  0.2246
   78SLPC  H14R 7149   5.890   0.699   6.393 -0.0819 -0.4210 -0.3054
   78SLPC  H14S 7150   5.829   0.716   6.565 -1.8447 -1.8069  1.4493
   78SLPC  C215 7151   5.802   0.528   6.472 -0.4573 -0.2344  0.3316
   78SLPC  H15R 7152   5.801   0.458   6.559  2.5825 -1.8614 -0.7794
   78SLPC  H15S 7153   5.838   0.472   6.383 -0.6945 -0.0553  0.1213
   78SLPC  C216 7154   5.660   0.569   6.459  0.2612  0.4471  0.2833
   78SLPC  H16R 7155   5.643   0.652   6.387  0.8692  0.8305  0.5799
   78SLPC  H16S 7156   5.619   0.602   6.556  1.2650 -0.4275  1.0267
   78SLPC  C217 7157   5.576   0.438   6.432  0.1233  0.0575  0.1382
   78SLPC  H17R 7158   5.613   0.351   6.490  0.0515 -1.9229 -2.5859
   78SLPC  H17S 7159   5.608   0.423   6.327 -2.0570 -3.2941 -0.2166
   78SLPC  C218 7160   5.426   0.458   6.448 -0.3569  0.5943  0.5145
   78SLPC  H18R 7161   5.378   0.374   6.394 -0.9087  2.0282 -1.3087
   78SLPC  H18S 7162   5.385   0.551   6.402  0.2057  0.3132 -0.5848
   78SLPC  H18T 7163   5.405   0.460   6.557 -0.1769 -2.4112  0.7001
   78SLPC   C33 7164   6.073   0.196   7.488  0.0123 -0.3092  0.0823
   78SLPC   H3X 7165   6.035   0.300   7.504  0.2597  0.2494 -2.5079
   78SLPC   H3Y 7166   5.994   0.120   7.469 -1.0237  0.1716  2.1259
   78SLPC   C34 7167   6.170   0.203   7.363  0.0637 -0.2719 -0.2605
   78SLPC   H4X 7168   6.235   0.113   7.357 -0.2799 -0.6242  1.0005
   78SLPC   H4Y 7169   6.239   0.289   7.369  0.1836 -0.4537  1.3674
   78SLPC   C35 7170   6.093   0.207   7.226  0.0624  0.3248 -0.1423
   78SLPC   H5X 7171   6.024   0.293   7.239 -0.5302 -0.3205  1.2434
   78SLPC   H5Y 7172   6.049   0.106   7.218 -0.7059  0.5460  1.0514
   78SLPC   C36 7173   6.187   0.230   7.103  0.1906 -0.0890 -0.0130
   78SLPC   H6X 7174   6.235   0.134   7.078 -1.8834 -1.4171  0.8148
   78SLPC   H6Y 7175   6.248   0.321   7.122 -1.4931  1.1163 -0.1127
   78SLPC   C37 7176   6.095   0.272   6.989  1.0184 -0.4649 -0.0990
   78SLPC   H7X 7177   6.046   0.363   7.030 -1.1691 -2.7502  2.8058
   78SLPC   H7Y 7178   6.015   0.195   6.980 -0.0541  0.4089  1.5018
   78SLPC   C38 7179   6.172   0.283   6.856  0.8624  1.2464  0.1480
   78SLPC   H8X 7180   6.228   0.187   6.860 -2.3963 -0.7674  1.1405
   78SLPC   H8Y 7181   6.225   0.379   6.876  1.0128  1.5140 -1.4099
   78SLPC   C39 7182   6.075   0.278   6.740  0.0252  0.5802 -0.1104
   78SLPC   H9X 7183   6.023   0.377   6.740  0.5375  0.8778  1.2013
   78SLPC   H9Y 7184   5.999   0.197   6.747  2.0205 -1.5100 -1.2322
   78SLPC  C310 7185   6.156   0.257   6.618  0.3036 -1.1133 -0.5086
   78SLPC  H10X 7186   6.199   0.155   6.621 -1.0053 -1.6860  2.7152
   78SLPC  H10Y 7187   6.247   0.318   6.601  2.1009 -3.8752 -1.4169
   78SLPC  C311 7188   6.066   0.272   6.496  0.0215 -0.4636  0.0170
   78SLPC  H11X 7189   6.016   0.372   6.493  1.9295  0.5177 -0.7822
   78SLPC  H11Y 7190   5.979   0.204   6.511 -1.0692  0.7814 -0.4797
   78SLPC  C312 7191   6.133   0.243   6.359 -0.3498 -0.4328  0.2475
   78SLPC  H12X 7192   6.188   0.146   6.364  0.8656  0.2689  0.9575
   78SLPC  H12Y 7193   6.208   0.323   6.345 -0.0719 -0.7191  0.0762
   78SLPC  C313 7194   6.041   0.257   6.234 -0.3691  0.0173 -0.0659
   78SLPC  H13X 7195   5.968   0.340   6.247 -0.6182 -0.2717  0.3946
   78SLPC  H13Y 7196   5.976   0.167   6.230 -2.1445  1.2749 -0.5393
   78SLPC  C314 7197   6.122   0.282   6.101  0.4134  0.3107 -0.3144
   78SLPC  H14X 7198   6.045   0.303   6.024 -0.8124  1.1223  1.0799
   78SLPC  H14Y 7199   6.185   0.193   6.079  2.0660  0.9278  1.5434
   78SLPC  C315 7200   6.202   0.410   6.094 -0.0042  0.1426  0.7681
   78SLPC  H15X 7201   6.305   0.395   6.131  0.7943 -0.5988 -1.5623
   78SLPC  H15Y 7202   6.156   0.481   6.167 -2.2597 -0.2704 -0.1553
   78SLPC  C316 7203   6.221   0.478   5.953  0.5289 -0.2084  0.1560
   78SLPC  H16X 7204   6.296   0.560   5.955  0.8399 -0.4590 -0.7792
   78SLPC  H16Y 7205   6.129   0.533   5.923  1.8604  1.2077 -1.5440
   78SLPC  C317 7206   6.240   0.370   5.839 -0.0497 -0.2470 -0.3815
   78SLPC  H17X 7207   6.162   0.290   5.841  1.0920 -1.3914  0.8217
   78SLPC  H17Y 7208   6.326   0.308   5.872 -0.2074 -0.8029 -0.9865
   78SLPC  C318 7209   6.269   0.413   5.699 -0.0468 -0.2633  0.4915
   78SLPC  H18X 7210   6.356   0.482   5.709 -0.0889 -0.1802  0.2938
   78SLPC  H18Y 7211   6.179   0.466   5.661  0.2292  0.5531  0.9429
   78SLPC  H18Z 7212   6.291   0.324   5.636 -0.5304  0.5800 -0.9038
   79SLPC     N 7213   0.151   4.998   8.602 -0.3674  0.6950  0.5764
   79SLPC   C13 7214   0.196   5.106   8.700  0.0604  0.0373 -0.0921
   79SLPC  H13A 7215   0.121   5.180   8.723  0.9891  0.7152  0.9180
   79SLPC  H13B 7216   0.226   5.072   8.799  0.7866  0.8708 -0.0124
   79SLPC  H13C 7217   0.272   5.168   8.655  0.4154  0.5485  1.1516
   79SLPC   C14 7218   0.038   4.915   8.655  0.0581  0.0443 -0.6079
   79SLPC  H14A 7219   0.057   4.871   8.752 -1.4546 -0.9491 -0.7397
   79SLPC  H14B 7220  -0.046   4.982   8.670  0.3882  0.5166 -0.8198
   79SLPC  H14C 7221   0.011   4.841   8.582 -0.7796 -0.6859  0.4160
   79SLPC   C15 7222   0.275   4.904   8.588  0.1957 -0.1531  0.5619
   79SLPC  H15A 7223   0.247   4.829   8.516 -2.0790  1.7694 -0.6987
   79SLPC  H15B 7224   0.361   4.955   8.548 -0.6713  0.6333 -0.3557
   79SLPC  H15C 7225   0.313   4.858   8.678  1.3831 -0.0980  0.1030
   79SLPC   C12 7226   0.134   5.064   8.473  0.2560 -0.0049  0.5711
   79SLPC  H12A 7227   0.225   5.119   8.455  0.7038 -1.4417 -2.1330
   79SLPC  H12B 7228   0.059   5.141   8.488 -0.7964 -1.0640  0.8533
   79SLPC   C11 7229   0.098   4.980   8.346  0.0432 -0.6041  0.6502
   79SLPC  H11A 7230   0.181   4.909   8.330  0.5578  0.5333 -2.5014
   79SLPC  H11B 7231   0.110   5.053   8.263  1.1306 -1.5975 -0.0941
   79SLPC     P 7232  -0.164   4.998   8.373  0.1433  0.0776 -0.2357
   79SLPC   O13 7233  -0.205   4.987   8.514  0.2173 -0.1169  0.0788
   79SLPC   O14 7234  -0.141   5.138   8.322  0.2940  0.4800  0.9881
   79SLPC   O12 7235  -0.034   4.909   8.344 -0.3902  0.3256 -0.1143
   79SLPC   O11 7236  -0.262   4.930   8.280 -0.1601  0.1472 -0.0298
   79SLPC    C1 7237  -0.242   4.811   8.203 -0.1745  0.6842  0.5525
   79SLPC    HA 7238  -0.182   4.733   8.254 -0.8716 -0.9587 -1.0371
   79SLPC    HB 7239  -0.340   4.760   8.190  0.3656  0.1357 -1.9421
   79SLPC    C2 7240  -0.186   4.843   8.070 -0.0586 -0.2734  0.6574
   79SLPC    HS 7241  -0.076   4.840   8.088 -0.1150 -1.6680  0.9020
   79SLPC   O21 7242  -0.235   4.973   8.025  0.0037  0.0490 -0.3481
   79SLPC   C21 7243  -0.154   5.019   7.928 -0.2523 -0.2347  0.3203
   79SLPC   O22 7244  -0.056   4.959   7.883 -0.6856 -1.3243 -0.2090
   79SLPC   C22 7245  -0.220   5.144   7.864  0.6069  0.0304 -0.2833
   79SLPC   H2R 7246  -0.321   5.116   7.829 -0.0432  0.6426  1.0333
   79SLPC   H2S 7247  -0.237   5.208   7.953 -0.3406  0.5628 -0.8403
   79SLPC    C3 7248  -0.211   4.729   7.964  0.5797  0.0077  0.2626
   79SLPC    HX 7249  -0.155   4.647   8.015  0.8550 -1.9491 -2.8957
   79SLPC    HY 7250  -0.164   4.740   7.865 -1.8582  2.4016 -0.7584
   79SLPC   O31 7251  -0.348   4.686   7.962  0.4266  0.0495  0.3311
   79SLPC   C31 7252  -0.411   4.712   7.841  0.4577 -0.3181 -0.2319
   79SLPC   O32 7253  -0.352   4.758   7.745 -0.2755 -0.6392 -0.7958
   79SLPC   C32 7254  -0.564   4.694   7.847 -0.0232  0.2674 -0.5113
   79SLPC   H2X 7255  -0.594   4.701   7.953  0.0929 -0.1986 -0.4429
   79SLPC   H2Y 7256  -0.581   4.588   7.818  3.4744 -1.2584  2.2660
   79SLPC   C23 7257  -0.143   5.218   7.753  1.1002 -0.3082  0.2225
   79SLPC   H3R 7258  -0.041   5.248   7.786  0.4384  1.2589  0.9758
   79SLPC   H3S 7259  -0.197   5.310   7.722  3.7358  0.4928 -2.4304
   79SLPC   C24 7260  -0.130   5.123   7.628  0.2084 -0.0440 -0.2116
   79SLPC   H4R 7261  -0.231   5.095   7.591  0.7841 -0.8857 -1.1830
   79SLPC   H4S 7262  -0.073   5.033   7.660 -1.2446 -0.7313  0.5140
   79SLPC   C25 7263  -0.070   5.201   7.514  0.2369  0.2902 -0.1152
   79SLPC   H5R 7264   0.031   5.237   7.540  1.5029 -1.1305 -2.6785
   79SLPC   H5S 7265  -0.130   5.290   7.484 -0.5994 -0.1990  0.0785
   79SLPC   C26 7266  -0.056   5.122   7.382  0.0200 -0.7816  0.1570
   79SLPC   H6R 7267  -0.156   5.089   7.344  0.7749 -2.1774 -0.6927
   79SLPC   H6S 7268   0.001   5.028   7.398 -1.4264 -1.4454  1.8259
   79SLPC   C27 7269   0.019   5.216   7.287 -0.4526 -0.6176  0.7699
   79SLPC   H7R 7270   0.127   5.190   7.272 -0.2199 -0.0380  1.4002
   79SLPC   H7S 7271   0.028   5.317   7.332  0.7904 -0.4655  0.2150
   79SLPC   C28 7272  -0.049   5.244   7.152  0.4147  0.3766 -0.5208
   79SLPC   H8R 7273  -0.001   5.337   7.114  0.5749  1.4482  2.0879
   79SLPC   H8S 7274  -0.156   5.256   7.177  0.1029 -1.5738 -0.7981
   79SLPC   C29 7275  -0.040   5.138   7.048 -0.2994  0.0377 -0.1605
   79SLPC   H9R 7276  -0.087   5.044   7.080 -0.0490  0.0503  0.2604
   79SLPC  C210 7277   0.018   5.160   6.930  0.2190  0.0810 -0.2526
   79SLPC  H10R 7278   0.019   5.089   6.846  0.3618  1.6872 -1.6654
   79SLPC  C211 7279   0.094   5.276   6.879 -0.0248 -0.2464 -0.1106
   79SLPC  H11R 7280   0.190   5.236   6.840  0.2235  0.6846 -0.4926
   79SLPC  H11S 7281   0.127   5.342   6.963 -2.0542 -0.0307  0.5724
   79SLPC  C212 7282   0.019   5.354   6.772 -0.3720 -0.3967  0.1115
   79SLPC  H12R 7283  -0.030   5.443   6.814  0.9921 -0.3000  1.5986
   79SLPC  C213 7284  -0.001   5.316   6.642 -0.3914 -0.3686 -0.1012
   79SLPC  H13R 7285  -0.069   5.378   6.583 -1.3308 -0.0838  1.2430
   79SLPC  C214 7286   0.048   5.200   6.570  0.1258  0.1627 -0.0034
   79SLPC  H14R 7287  -0.032   5.125   6.556 -0.9568  1.4905 -1.2030
   79SLPC  H14S 7288   0.131   5.152   6.627  0.6028  0.3309 -0.5456
   79SLPC  C215 7289   0.109   5.227   6.426 -0.3766 -0.1620 -0.3628
   79SLPC  H15R 7290   0.193   5.158   6.402  0.5052  1.1039 -1.0936
   79SLPC  H15S 7291   0.165   5.323   6.418 -0.1209 -0.2721  0.0482
   79SLPC  C216 7292   0.019   5.197   6.312  0.3660 -0.2923 -0.8341
   79SLPC  H16R 7293  -0.080   5.247   6.319 -0.5928 -1.9795 -1.7132
   79SLPC  H16S 7294  -0.018   5.092   6.315  0.1388 -0.1988  1.3939
   79SLPC  C217 7295   0.068   5.252   6.177 -0.3586 -0.1123 -0.1008
   79SLPC  H17R 7296  -0.016   5.224   6.109 -0.0908  0.2842 -0.6037
   79SLPC  H17S 7297   0.157   5.192   6.149 -1.3079 -1.6337 -0.0183
   79SLPC  C218 7298   0.119   5.396   6.164  0.3912 -0.0302  0.0692
   79SLPC  H18R 7299   0.201   5.407   6.239 -0.0244 -1.7285  0.8137
   79SLPC  H18S 7300   0.038   5.471   6.169  1.9999  1.9069 -1.2490
   79SLPC  H18T 7301   0.163   5.409   6.063  1.2123  0.8339  0.5203
   79SLPC   C33 7302  -0.637   4.799   7.758  0.0538 -0.0213  0.6243
   79SLPC   H3X 7303  -0.569   4.887   7.748  1.2704 -1.0437 -0.3291
   79SLPC   H3Y 7304  -0.736   4.829   7.799 -0.4445 -1.2376  0.3496
   79SLPC   C34 7305  -0.677   4.745   7.623 -0.1767  0.3205  0.0158
   79SLPC   H4X 7306  -0.736   4.656   7.652  0.9429  0.2312  2.2271
   79SLPC   H4Y 7307  -0.594   4.704   7.560 -1.3134  0.7402 -1.8246
   79SLPC   C35 7308  -0.752   4.843   7.528 -0.3615 -0.0925  1.2357
   79SLPC   H5X 7309  -0.700   4.942   7.525 -1.4313  0.4731  0.5436
   79SLPC   H5Y 7310  -0.857   4.863   7.557 -0.4307  2.5491 -0.4539
   79SLPC   C36 7311  -0.758   4.795   7.379 -0.1533  0.2360 -0.4329
   79SLPC   H6X 7312  -0.803   4.693   7.377 -0.6319  0.4555 -1.0332
   79SLPC   H6Y 7313  -0.648   4.788   7.368  0.2380  2.8830  0.9343
   79SLPC   C37 7314  -0.812   4.876   7.266  0.3141  0.3502 -0.4383
   79SLPC   H7X 7315  -0.791   4.981   7.296 -0.0521 -0.0625  1.3959
   79SLPC   H7Y 7316  -0.923   4.878   7.260  0.0533  5.4607  1.2767
   79SLPC   C38 7317  -0.741   4.844   7.143 -0.4710  1.1660  0.1967
   79SLPC   H8X 7318  -0.633   4.866   7.161 -0.2403 -0.2368  0.6629
   79SLPC   H8Y 7319  -0.780   4.913   7.066 -0.4738  0.1229 -0.7601
   79SLPC   C39 7320  -0.749   4.697   7.096 -0.1665 -0.2746 -0.2465
   79SLPC   H9X 7321  -0.853   4.659   7.082 -0.2740 -1.0816  2.1989
   79SLPC   H9Y 7322  -0.699   4.637   7.175 -0.6294 -1.7657 -1.0433
   79SLPC  C310 7323  -0.659   4.669   6.971  1.2073  0.1302  0.2374
   79SLPC  H10X 7324  -0.639   4.560   6.965  0.7249 -0.0056  0.9848
   79SLPC  H10Y 7325  -0.553   4.703   6.976  1.2313  0.0979 -0.0501
   79SLPC  C311 7326  -0.722   4.713   6.836 -0.5456 -0.2100 -0.4291
   79SLPC  H11X 7327  -0.715   4.822   6.820 -0.9438 -0.2617 -1.0071
   79SLPC  H11Y 7328  -0.827   4.678   6.824 -0.2516 -0.8322 -1.3955
   79SLPC  C312 7329  -0.637   4.645   6.728 -0.3079  0.0096  0.4287
   79SLPC  H12X 7330  -0.635   4.536   6.752 -0.6794 -0.6151 -2.1097
   79SLPC  H12Y 7331  -0.533   4.680   6.746 -0.3263  0.9892 -1.2015
   79SLPC  C313 7332  -0.671   4.687   6.585 -0.6368 -0.4953  0.1703
   79SLPC  H13X 7333  -0.649   4.796   6.582  0.1152 -0.4678  3.3669
   79SLPC  H13Y 7334  -0.780   4.680   6.562 -0.5756 -0.2589 -0.2039
   79SLPC  C314 7335  -0.585   4.625   6.471  0.1997  0.2384  0.6545
   79SLPC  H14X 7336  -0.581   4.516   6.488 -0.5959 -0.4114 -2.6556
   79SLPC  H14Y 7337  -0.483   4.669   6.473 -0.2598  1.3162  2.1536
   79SLPC  C315 7338  -0.639   4.639   6.328  0.5020  0.3571  0.2159
   79SLPC  H15X 7339  -0.644   4.743   6.289  0.9176  0.3332  0.0952
   79SLPC  H15Y 7340  -0.744   4.602   6.324 -1.0538  4.2216  0.7427
   79SLPC  C316 7341  -0.561   4.550   6.224  0.0305  0.4760  0.7342
   79SLPC  H16X 7342  -0.545   4.454   6.278 -0.0973 -0.5189 -0.9441
   79SLPC  H16Y 7343  -0.462   4.599   6.212  0.7986 -0.0038  4.0265
   79SLPC  C317 7344  -0.643   4.526   6.099  0.1756 -0.8090  0.7736
   79SLPC  H17X 7345  -0.570   4.468   6.038  3.0798  3.9808 -0.8819
   79SLPC  H17Y 7346  -0.655   4.627   6.054  0.5472 -0.5183  1.3206
   79SLPC  C318 7347  -0.779   4.453   6.110  0.5442 -0.2235 -0.5580
   79SLPC  H18X 7348  -0.818   4.439   6.007  0.1534  1.2540 -0.6326
   79SLPC  H18Y 7349  -0.857   4.521   6.152  0.7737 -0.0638 -0.3870
   79SLPC  H18Z 7350  -0.764   4.361   6.170  1.6525  0.5604  0.4129
   80SLPC     N 7351   5.769   4.120   8.536  0.2509  0.1812  0.0911
   80SLPC   C13 7352   5.843   4.002   8.494  0.3505  0.5635 -1.1416
   80SLPC  H13A 7353   5.841   3.995   8.386  0.6056 -0.1177 -1.1105
   80SLPC  H13B 7354   5.946   4.009   8.525  1.2602  1.9711 -4.1141
   80SLPC  H13C 7355   5.797   3.915   8.538 -0.4227  1.1057 -0.8499
   80SLPC   C14 7356   5.840   4.242   8.488  0.5346  0.1641 -0.6532
   80SLPC  H14A 7357   5.944   4.233   8.513  0.1273  1.2317  1.7612
   80SLPC  H14B 7358   5.824   4.250   8.382  0.6269 -0.2349 -0.6984
   80SLPC  H14C 7359   5.805   4.332   8.536  1.4574 -0.2972  0.9801
   80SLPC   C15 7360   5.761   4.122   8.688  0.4291  0.5774  0.3027
   80SLPC  H15A 7361   5.854   4.151   8.735  0.4327  1.1179 -0.0343
   80SLPC  H15B 7362   5.688   4.194   8.720  0.9755  2.3576 -2.2473
   80SLPC  H15C 7363   5.731   4.026   8.728  1.4104 -0.1172 -0.5893
   80SLPC   C12 7364   5.628   4.113   8.473  0.1488 -0.2497 -0.0330
   80SLPC  H12A 7365   5.557   4.193   8.492 -3.5797 -3.0548 -0.9378
   80SLPC  H12B 7366   5.569   4.039   8.525 -1.1329  0.3462 -0.5799
   80SLPC   C11 7367   5.613   4.084   8.322 -0.6632 -0.5489 -0.3971
   80SLPC  H11A 7368   5.502   4.079   8.313 -0.5594 -0.4596 -1.9828
   80SLPC  H11B 7369   5.639   3.978   8.301 -2.1530 -0.8357 -0.9107
   80SLPC     P 7370   5.587   4.307   8.210 -0.0659  0.5798 -0.6760
   80SLPC   O13 7371   5.499   4.332   8.329 -0.4711  0.1373  0.3345
   80SLPC   O14 7372   5.673   4.416   8.167  0.3673  0.4949 -0.1364
   80SLPC   O12 7373   5.674   4.184   8.247  0.0720  0.0936  0.1447
   80SLPC   O11 7374   5.501   4.260   8.090 -0.3617  0.8966 -0.1165
   80SLPC    C1 7375   5.530   4.161   7.988  0.2066 -0.5538  0.5771
   80SLPC    HA 7376   5.576   4.070   8.033  0.0913 -0.4020  1.0102
   80SLPC    HB 7377   5.441   4.143   7.924  0.9072  2.3686 -1.4014
   80SLPC    C2 7378   5.636   4.216   7.887 -0.6719 -0.0986 -0.2290
   80SLPC    HS 7379   5.723   4.248   7.948 -0.6068 -1.0954  0.2207
   80SLPC   O21 7380   5.577   4.321   7.816  0.7582 -0.0307  0.3910
   80SLPC   C21 7381   5.666   4.400   7.751  0.1746 -0.6079 -0.0304
   80SLPC   O22 7382   5.787   4.390   7.758  0.3882 -0.6304 -0.3573
   80SLPC   C22 7383   5.589   4.511   7.689 -1.0945  0.1416  0.1889
   80SLPC   H2R 7384   5.492   4.464   7.663 -0.1491 -2.0128  0.3112
   80SLPC   H2S 7385   5.577   4.597   7.758  2.7117  1.7075 -0.8270
   80SLPC    C3 7386   5.679   4.102   7.790  0.1154 -0.3879  0.3476
   80SLPC    HX 7387   5.733   4.024   7.848  1.1973  0.0481 -0.0355
   80SLPC    HY 7388   5.762   4.120   7.719 -1.3921 -1.2212 -1.7293
   80SLPC   O31 7389   5.563   4.030   7.745 -0.6295  0.3023 -0.4627
   80SLPC   C31 7390   5.511   4.090   7.629  0.1325  0.2319  0.2189
   80SLPC   O32 7391   5.573   4.174   7.566 -0.2574  0.0145 -0.1891
   80SLPC   C32 7392   5.365   4.044   7.614  1.1520 -0.2835  0.4769
   80SLPC   H2X 7393   5.291   4.126   7.631  1.4590  0.8716 -3.0739
   80SLPC   H2Y 7394   5.351   3.965   7.691  1.1205 -1.7034 -0.9481
   80SLPC   C23 7395   5.662   4.583   7.568 -0.3368 -0.9143  0.3822
   80SLPC   H3R 7396   5.730   4.524   7.504  1.3784  1.8012 -0.4688
   80SLPC   H3S 7397   5.735   4.651   7.618  1.4659 -2.7607  0.3598
   80SLPC   C24 7398   5.557   4.662   7.493 -0.4333 -0.2794 -0.5567
   80SLPC   H4R 7399   5.506   4.710   7.579 -0.0652 -1.5874  0.4178
   80SLPC   H4S 7400   5.484   4.590   7.450 -3.5621  1.8117  0.8628
   80SLPC   C25 7401   5.615   4.768   7.393 -0.2010  0.2159  0.1616
   80SLPC   H5R 7402   5.696   4.825   7.443 -1.3336  0.8383  1.3527
   80SLPC   H5S 7403   5.537   4.845   7.373 -0.3308  0.4147  1.3597
   80SLPC   C26 7404   5.657   4.703   7.258 -0.0085  0.0384  0.0762
   80SLPC   H6R 7405   5.586   4.619   7.243 -0.4566  0.1634  1.3612
   80SLPC   H6S 7406   5.761   4.665   7.269  0.6275  1.2086 -1.3960
   80SLPC   C27 7407   5.653   4.809   7.145 -0.4683  0.3260  0.3638
   80SLPC   H7R 7408   5.715   4.893   7.181 -1.1672  1.2518 -0.5199
   80SLPC   H7S 7409   5.549   4.842   7.121 -0.4569  0.9592  1.1516
   80SLPC   C28 7410   5.718   4.749   7.022  0.0918  0.0791 -0.4910
   80SLPC   H8R 7411   5.655   4.660   7.001 -1.6144  0.9712  0.5972
   80SLPC   H8S 7412   5.814   4.711   7.062 -1.0193 -2.6484 -0.1830
   80SLPC   C29 7413   5.736   4.836   6.902 -0.3585  0.6448  0.0530
   80SLPC   H9R 7414   5.784   4.930   6.933  2.3683 -0.7867  0.4426
   80SLPC  C210 7415   5.719   4.801   6.776 -0.4703 -0.0702  0.3190
   80SLPC  H10R 7416   5.752   4.868   6.696  1.3619 -1.1790  0.0910
   80SLPC  C211 7417   5.686   4.662   6.722 -0.2867 -0.4779  0.2212
   80SLPC  H11R 7418   5.596   4.684   6.660  1.6675  1.8491 -2.0399
   80SLPC  H11S 7419   5.644   4.594   6.798  1.6677 -0.9074  0.9673
   80SLPC  C212 7420   5.780   4.577   6.645 -0.0344 -0.2391  0.1318
   80SLPC  H12R 7421   5.837   4.498   6.697  3.2749  1.2382 -0.9284
   80SLPC  C213 7422   5.815   4.608   6.518  0.0243 -0.1630  0.1491
   80SLPC  H13R 7423   5.886   4.540   6.468  0.4615 -0.4984  1.1966
   80SLPC  C214 7424   5.769   4.726   6.429  0.7153  0.1047  0.3394
   80SLPC  H14R 7425   5.863   4.783   6.415  1.3431 -0.7608  0.9432
   80SLPC  H14S 7426   5.699   4.792   6.484  0.2523 -0.4791  0.4625
   80SLPC  C215 7427   5.715   4.700   6.285  0.1836  0.5881 -0.3415
   80SLPC  H15R 7428   5.796   4.643   6.234 -0.6809  1.8251 -3.2616
   80SLPC  H15S 7429   5.704   4.796   6.230 -3.1173  1.0341  0.8754
   80SLPC  C216 7430   5.588   4.608   6.275 -0.3147  0.3735  0.1327
   80SLPC  H16R 7431   5.610   4.531   6.351  2.8986  1.6725  0.6734
   80SLPC  H16S 7432   5.585   4.564   6.173  0.2723  1.5204 -0.3991
   80SLPC  C217 7433   5.458   4.678   6.317  0.0191 -0.5909  0.3201
   80SLPC  H17R 7434   5.468   4.765   6.385 -1.7067 -0.6313  0.6785
   80SLPC  H17S 7435   5.396   4.599   6.365  0.3088 -2.6260 -2.4192
   80SLPC  C218 7436   5.383   4.728   6.194  0.7193 -0.1864 -0.1056
   80SLPC  H18R 7437   5.368   4.642   6.125  0.4472 -1.7721  1.8268
   80SLPC  H18S 7438   5.426   4.822   6.155  2.6859 -0.0342  2.2287
   80SLPC  H18T 7439   5.281   4.756   6.228 -0.2350 -1.7432 -1.5035
   80SLPC   C33 7440   5.322   3.993   7.480  0.1598  0.9015  0.4727
   80SLPC   H3X 7441   5.214   3.967   7.468  0.1161  1.2289  0.1439
   80SLPC   H3Y 7442   5.381   3.903   7.453 -0.7890  0.2563  0.5020
   80SLPC   C34 7443   5.340   4.100   7.371 -0.6596  0.0460 -0.7627
   80SLPC   H4X 7444   5.433   4.158   7.389 -0.4146 -0.8826  1.2820
   80SLPC   H4Y 7445   5.240   4.149   7.366 -0.1207  1.1269 -1.1903
   80SLPC   C35 7446   5.368   4.038   7.236  0.6974 -0.2284  0.3145
   80SLPC   H5X 7447   5.278   3.978   7.207 -0.0271  0.9966 -0.0471
   80SLPC   H5Y 7448   5.462   3.980   7.241  0.0104 -1.7156 -1.9934
   80SLPC   C36 7449   5.382   4.141   7.117 -0.2773 -0.0872 -0.3421
   80SLPC   H6X 7450   5.462   4.216   7.136 -0.2708 -0.6150  2.0685
   80SLPC   H6Y 7451   5.285   4.195   7.120  0.2352  0.8458  1.9819
   80SLPC   C37 7452   5.413   4.062   6.989  0.1685  0.2417 -0.0930
   80SLPC   H7X 7453   5.356   3.975   6.951 -1.9885  2.2101 -1.7038
   80SLPC   H7Y 7454   5.515   4.022   7.001  0.1524  0.1185 -0.3709
   80SLPC   C38 7455   5.426   4.154   6.864 -0.2276 -0.1124 -0.2703
   80SLPC   H8X 7456   5.514   4.221   6.875  0.6695 -1.2832 -0.1043
   80SLPC   H8Y 7457   5.335   4.216   6.877  1.1146  1.7653  0.7357
   80SLPC   C39 7458   5.432   4.065   6.741  0.2011 -0.4395 -0.1479
   80SLPC   H9X 7459   5.352   3.988   6.727 -0.1654 -0.5577  2.2548
   80SLPC   H9Y 7460   5.528   4.011   6.739  0.7981  0.6142 -1.5311
   80SLPC  C310 7461   5.423   4.159   6.621 -0.0562 -0.1166 -0.1574
   80SLPC  H10X 7462   5.515   4.213   6.592 -0.7699  1.0621 -0.2782
   80SLPC  H10Y 7463   5.355   4.241   6.653  2.1258  1.5206  0.5190
   80SLPC  C311 7464   5.355   4.091   6.501 -0.2301  0.5491  0.2642
   80SLPC  H11X 7465   5.268   4.041   6.547 -0.0806 -1.3069 -1.3371
   80SLPC  H11Y 7466   5.422   4.009   6.467  1.3580  1.4268  1.1623
   80SLPC  C312 7467   5.325   4.193   6.394 -0.3489 -0.1832  0.1814
   80SLPC  H12X 7468   5.359   4.154   6.295  1.6176  1.8836 -0.0455
   80SLPC  H12Y 7469   5.374   4.291   6.407 -0.4053  0.0102 -0.9691
   80SLPC  C313 7470   5.178   4.214   6.388 -0.3927  0.2807  0.2475
   80SLPC  H13X 7471   5.136   4.254   6.482 -1.1682 -0.5401  0.2588
   80SLPC  H13Y 7472   5.149   4.109   6.368  0.8045  0.4366 -2.8081
   80SLPC  C314 7473   5.136   4.297   6.270  0.0126 -0.3597  0.6365
   80SLPC  H14X 7474   5.174   4.242   6.181  0.7462  1.4253 -0.2063
   80SLPC  H14Y 7475   5.200   4.388   6.279  0.4659 -0.7584  1.6799
   80SLPC  C315 7476   4.984   4.319   6.266  0.1937  0.4983  0.5800
   80SLPC  H15X 7477   4.964   4.392   6.348  2.9713  2.1325 -0.0797
   80SLPC  H15Y 7478   4.928   4.227   6.294  0.1321  0.3992  0.1357
   80SLPC  C316 7479   4.938   4.388   6.140 -0.3888  0.3461  0.5068
   80SLPC  H16X 7480   4.936   4.329   6.046  0.0921 -0.0278  0.7253
   80SLPC  H16Y 7481   5.024   4.456   6.123  0.4679 -0.5037  1.3555
   80SLPC  C317 7482   4.818   4.481   6.151  0.0643 -0.5157 -0.6329
   80SLPC  H17X 7483   4.818   4.552   6.066 -4.2157 -0.2560 -0.6244
   80SLPC  H17Y 7484   4.827   4.536   6.247 -1.5559  0.9591 -1.2916
   80SLPC  C318 7485   4.684   4.414   6.154  0.1745 -0.4975 -0.2096
   80SLPC  H18X 7486   4.665   4.350   6.066  3.3432 -0.5102 -0.9980
   80SLPC  H18Y 7487   4.604   4.488   6.176  2.1799  1.6921  0.0248
   80SLPC  H18Z 7488   4.681   4.331   6.229 -0.6991 -2.4257 -2.2613
   81SLPC     N 7489   4.195   3.773   3.550 -0.6214  0.0420 -0.6115
   81SLPC   C13 7490   4.113   3.659   3.617  0.4207  0.5882  0.4872
   81SLPC  H13A 7491   4.041   3.626   3.544 -0.4126 -2.8086  2.6076
   81SLPC  H13B 7492   4.180   3.577   3.640  0.6196  0.6595  0.1727
   81SLPC  H13C 7493   4.060   3.688   3.706 -2.4186 -2.8415  0.1613
   81SLPC   C14 7494   4.297   3.718   3.456  0.3903 -0.1218 -0.0615
   81SLPC  H14A 7495   4.372   3.788   3.425  1.7934 -1.3718  0.3978
   81SLPC  H14B 7496   4.365   3.644   3.495  1.5098  0.5113 -0.7619
   81SLPC  H14C 7497   4.251   3.673   3.369  0.0279 -1.6026  0.8504
   81SLPC   C15 7498   4.275   3.834   3.654  0.7461 -0.1666 -0.9329
   81SLPC  H15A 7499   4.349   3.904   3.615  2.0886 -0.3898  1.0934
   81SLPC  H15B 7500   4.213   3.892   3.720  0.0136 -1.4245 -0.4957
   81SLPC  H15C 7501   4.317   3.758   3.717 -1.9931  0.2770  1.6795
   81SLPC   C12 7502   4.099   3.864   3.482 -0.5476  0.2894  0.8348
   81SLPC  H12A 7503   4.033   3.808   3.418 -2.1638  3.5083 -0.5747
   81SLPC  H12B 7504   4.152   3.927   3.413  1.1775 -1.7069  0.2517
   81SLPC   C11 7505   4.003   3.949   3.570 -0.1738  0.2394 -0.1666
   81SLPC  H11A 7506   3.940   3.884   3.635  1.7040 -1.7711 -0.2660
   81SLPC  H11B 7507   3.931   3.994   3.499  2.0618  2.0752 -1.3978
   81SLPC     P 7508   4.015   4.104   3.772 -0.1073  0.3286  0.2850
   81SLPC   O13 7509   3.923   4.218   3.752 -0.2513 -1.1032  0.5853
   81SLPC   O14 7510   3.966   3.993   3.851 -0.1178  0.2803  0.0430
   81SLPC   O12 7511   4.079   4.050   3.635  0.2923  0.1042 -0.2590
   81SLPC   O11 7512   4.142   4.153   3.851  0.1083 -0.1719 -0.1688
   81SLPC    C1 7513   4.181   4.293   3.825 -0.7033 -0.2523 -0.6102
   81SLPC    HA 7514   4.211   4.314   3.720 -1.0127 -2.5142 -1.2089
   81SLPC    HB 7515   4.094   4.353   3.858 -0.3136 -1.0628  2.0720
   81SLPC    C2 7516   4.289   4.342   3.923 -0.3598 -0.1212 -0.5728
   81SLPC    HS 7517   4.380   4.286   3.895  1.2574  2.2706 -0.3716
   81SLPC   O21 7518   4.249   4.327   4.060 -0.3128  0.3025 -0.0877
   81SLPC   C21 7519   4.343   4.281   4.147 -0.1191  0.5836  0.4739
   81SLPC   O22 7520   4.450   4.237   4.114 -0.0117 -0.1195  0.4264
   81SLPC   C22 7521   4.298   4.324   4.281 -0.4582  0.7572  0.3806
   81SLPC   H2R 7522   4.355   4.418   4.301 -1.4260  2.5221 -3.9716
   81SLPC   H2S 7523   4.190   4.348   4.286 -0.7034 -0.2875  0.3827
   81SLPC    C3 7524   4.331   4.485   3.888  0.5790  0.5925 -0.4079
   81SLPC    HX 7525   4.246   4.546   3.927  0.3437  0.3566 -0.5501
   81SLPC    HY 7526   4.346   4.499   3.779  1.8958 -0.8640 -0.4421
   81SLPC   O31 7527   4.463   4.512   3.948 -0.6946  0.1226  0.4624
   81SLPC   C31 7528   4.471   4.602   4.042 -0.3890 -0.4906  0.1015
   81SLPC   O32 7529   4.374   4.657   4.095 -0.3820  0.1887  0.0862
   81SLPC   C32 7530   4.619   4.625   4.079 -0.2416 -0.0303  0.2664
   81SLPC   H2X 7531   4.654   4.719   4.032 -1.1920 -0.7511 -2.0331
   81SLPC   H2Y 7532   4.682   4.543   4.039  1.2559  0.0977  2.2097
   81SLPC   C23 7533   4.336   4.230   4.397 -0.2734  0.1466 -0.2052
   81SLPC   H3R 7534   4.446   4.230   4.410 -0.2946 -0.0803 -0.0240
   81SLPC   H3S 7535   4.294   4.130   4.372 -0.5410  0.6251 -1.8295
   81SLPC   C24 7536   4.278   4.285   4.533  0.0658 -0.0462 -0.6557
   81SLPC   H4R 7537   4.169   4.266   4.543  0.0962  0.8403  2.1170
   81SLPC   H4S 7538   4.296   4.394   4.547  0.4399 -0.1106 -0.6307
   81SLPC   C25 7539   4.351   4.227   4.656  0.1157 -0.0012  0.5649
   81SLPC   H5R 7540   4.441   4.291   4.657  1.0334 -1.1944 -0.7763
   81SLPC   H5S 7541   4.375   4.124   4.622 -3.2461 -0.4503 -0.9355
   81SLPC   C26 7542   4.278   4.237   4.791  0.9143  0.0643  0.3743
   81SLPC   H6R 7543   4.187   4.173   4.789 -1.0876  2.7450 -1.7846
   81SLPC   H6S 7544   4.233   4.338   4.808 -0.4775 -0.4988  0.1908
   81SLPC   C27 7545   4.377   4.214   4.907 -0.3703 -0.3302 -0.2217
   81SLPC   H7R 7546   4.455   4.293   4.911 -0.3841 -0.3464  0.4205
   81SLPC   H7S 7547   4.434   4.119   4.894 -0.9480 -1.0864  2.2932
   81SLPC   C28 7548   4.318   4.207   5.048 -0.6798 -0.2459  0.8307
   81SLPC   H8R 7549   4.402   4.174   5.113  0.1198 -0.0682 -0.0844
   81SLPC   H8S 7550   4.244   4.125   5.051 -1.9485  0.8466  0.2520
   81SLPC   C29 7551   4.235   4.332   5.091 -0.7824  0.1943  0.5248
   81SLPC   H9R 7552   4.146   4.353   5.031  1.1850  1.9315 -1.9969
   81SLPC  C210 7553   4.268   4.420   5.185 -0.4076 -0.3273 -0.8369
   81SLPC  H10R 7554   4.198   4.503   5.206 -0.5510 -0.5872 -0.2595
   81SLPC  C211 7555   4.395   4.435   5.277 -0.6665  0.7359 -0.5589
   81SLPC  H11R 7556   4.445   4.533   5.266  0.5535 -0.0327 -2.3969
   81SLPC  H11S 7557   4.472   4.359   5.252  0.4122  1.2038  1.1846
   81SLPC  C212 7558   4.352   4.405   5.416 -0.3312  0.0211  0.5463
   81SLPC  H12R 7559   4.328   4.299   5.430 -1.0575 -0.6479 -4.0391
   81SLPC  C213 7560   4.323   4.491   5.511 -0.0094  0.5222  0.1096
   81SLPC  H13R 7561   4.281   4.456   5.606 -0.2968 -1.1217 -0.6000
   81SLPC  C214 7562   4.338   4.636   5.505  0.2534  0.2848  0.2946
   81SLPC  H14R 7563   4.260   4.688   5.445  0.9529  0.6924 -0.2677
   81SLPC  H14S 7564   4.424   4.661   5.439 -0.9987 -1.3241 -2.0991
   81SLPC  C215 7565   4.329   4.703   5.644 -0.2025 -0.5938 -0.8763
   81SLPC  H15R 7566   4.425   4.685   5.698  0.1543  0.3108 -1.1838
   81SLPC  H15S 7567   4.237   4.673   5.698  0.6070  0.2862  1.1108
   81SLPC  C216 7568   4.324   4.860   5.629  0.7144 -1.1193 -0.7878
   81SLPC  H16R 7569   4.230   4.875   5.571 -0.6837  1.0102  1.7791
   81SLPC  H16S 7570   4.409   4.889   5.565  1.1680  0.6267  0.5315
   81SLPC  C217 7571   4.321   4.935   5.759 -0.3272 -0.1140 -0.0586
   81SLPC  H17R 7572   4.320   5.043   5.733 -1.1216  0.4172  2.0252
   81SLPC  H17S 7573   4.415   4.920   5.816 -0.2446  0.4728 -0.0257
   81SLPC  C218 7574   4.215   4.901   5.861 -0.5708  0.7537 -0.0066
   81SLPC  H18R 7575   4.217   4.960   5.954  2.0536 -0.4677  0.7983
   81SLPC  H18S 7576   4.226   4.793   5.885  0.7168  1.0513  0.8333
   81SLPC  H18T 7577   4.119   4.900   5.805  0.0445 -2.7125 -1.2916
   81SLPC   C33 7578   4.648   4.634   4.230  0.0713  0.9763  0.6304
   81SLPC   H3X 7579   4.588   4.717   4.272  0.7285  1.4582  0.6363
   81SLPC   H3Y 7580   4.755   4.661   4.248  0.6541  0.3813 -1.6115
   81SLPC   C34 7581   4.623   4.510   4.311  0.7306  0.0256  0.5284
   81SLPC   H4X 7582   4.708   4.439   4.320  0.5019 -0.3379 -0.1064
   81SLPC   H4Y 7583   4.553   4.447   4.253  0.6146 -1.6642  2.4057
   81SLPC   C35 7584   4.556   4.537   4.449  0.5583 -0.7836  0.2868
   81SLPC   H5X 7585   4.534   4.442   4.504 -0.9369 -0.5386  0.1638
   81SLPC   H5Y 7586   4.455   4.584   4.449  0.9926  0.2393  1.8101
   81SLPC   C36 7587   4.656   4.604   4.544  0.2460 -0.8109  0.5439
   81SLPC   H6X 7588   4.699   4.692   4.490 -1.3930  1.1692  2.2894
   81SLPC   H6Y 7589   4.741   4.534   4.559 -0.4757 -1.7502  0.2783
   81SLPC   C37 7590   4.608   4.657   4.675 -0.1246 -0.7943 -0.4240
   81SLPC   H7X 7591   4.524   4.725   4.653  0.2936 -0.2422 -0.3329
   81SLPC   H7Y 7592   4.689   4.720   4.717  0.3102 -0.8252 -1.1911
   81SLPC   C38 7593   4.568   4.545   4.769 -0.2339 -0.2676  0.6531
   81SLPC   H8X 7594   4.623   4.453   4.740  0.6188  0.7985 -1.2793
   81SLPC   H8Y 7595   4.463   4.515   4.746  0.5063 -3.4363  0.9636
   81SLPC   C39 7596   4.589   4.558   4.921  0.2699 -0.6438  0.0593
   81SLPC   H9X 7597   4.589   4.453   4.957  2.1717 -0.7373 -0.1274
   81SLPC   H9Y 7598   4.517   4.625   4.972 -0.5204 -1.0075 -0.5595
   81SLPC  C310 7599   4.728   4.618   4.950  0.5606 -0.3624  0.3134
   81SLPC  H10X 7600   4.714   4.728   4.951 -0.3398 -0.4618 -0.0280
   81SLPC  H10Y 7601   4.797   4.594   4.866  2.5672  1.1127  1.4295
   81SLPC  C311 7602   4.786   4.580   5.088 -0.2498 -0.4687 -0.3867
   81SLPC  H11X 7603   4.892   4.612   5.102 -0.6189  0.3674  0.5999
   81SLPC  H11Y 7604   4.783   4.470   5.101  2.4836 -0.3725  2.4540
   81SLPC  C312 7605   4.710   4.643   5.199 -0.3415 -0.3211  0.3521
   81SLPC  H12X 7606   4.600   4.630   5.193 -0.5779  1.8533 -1.4074
   81SLPC  H12Y 7607   4.722   4.752   5.186  1.6035 -0.4557  0.6323
   81SLPC  C313 7608   4.757   4.612   5.347 -0.6939 -0.1546 -0.2411
   81SLPC  H13X 7609   4.685   4.667   5.412 -1.1167 -0.3955 -0.5056
   81SLPC  H13Y 7610   4.861   4.650   5.353 -0.6337 -0.0860 -1.4933
   81SLPC  C314 7611   4.753   4.462   5.384  0.0615 -0.4384 -0.2755
   81SLPC  H14X 7612   4.826   4.413   5.318 -0.0182 -0.4058 -0.3881
   81SLPC  H14Y 7613   4.654   4.417   5.362 -0.8107  0.8259  0.8764
   81SLPC  C315 7614   4.785   4.442   5.529  0.5122  0.1311 -0.0124
   81SLPC  H15X 7615   4.705   4.478   5.597  0.5167  0.0445  0.0390
   81SLPC  H15Y 7616   4.880   4.497   5.548  0.1839  1.9750 -3.0857
   81SLPC  C316 7617   4.810   4.298   5.558 -0.6214 -1.0966  0.1409
   81SLPC  H16X 7618   4.884   4.254   5.487 -2.0495 -0.5703 -1.7621
   81SLPC  H16Y 7619   4.717   4.242   5.535 -1.0832 -0.2702 -0.0596
   81SLPC  C317 7620   4.870   4.272   5.697 -0.2944 -0.3006  0.6032
   81SLPC  H17X 7621   4.960   4.337   5.695  0.4343 -1.3149 -0.2999
   81SLPC  H17Y 7622   4.922   4.175   5.709  1.6968  0.5487 -0.6958
   81SLPC  C318 7623   4.785   4.317   5.810  0.5852 -0.8118 -0.8034
   81SLPC  H18X 7624   4.677   4.305   5.787  0.2267  0.6560  0.0177
   81SLPC  H18Y 7625   4.809   4.420   5.842 -0.8963 -0.2281 -1.5001
   81SLPC  H18Z 7626   4.814   4.248   5.892  4.4828 -1.3713 -2.4074
   82SLPC     N 7627   2.250   4.146   3.306 -0.7003  0.5200 -0.3463
   82SLPC   C13 7628   2.154   4.163   3.187 -0.8618  0.1450 -0.3467
   82SLPC  H13A 7629   2.100   4.256   3.189  0.8391  1.2286 -1.6103
   82SLPC  H13B 7630   2.214   4.164   3.097 -3.2380  2.2980 -2.0636
   82SLPC  H13C 7631   2.079   4.086   3.184  0.3847 -1.1100 -0.2919
   82SLPC   C14 7632   2.336   4.266   3.327 -0.1849  0.4329  0.7760
   82SLPC  H14A 7633   2.382   4.246   3.423  0.7932 -1.5621 -0.0509
   82SLPC  H14B 7634   2.418   4.274   3.257 -1.0273  0.0121 -0.2731
   82SLPC  H14C 7635   2.282   4.359   3.334  0.1993  0.6112  1.5176
   82SLPC   C15 7636   2.335   4.028   3.285 -0.5676 -0.7136 -0.2805
   82SLPC  H15A 7637   2.397   3.997   3.367 -1.3005 -0.0245  0.5585
   82SLPC  H15B 7638   2.264   3.951   3.260 -0.4403 -1.1521  0.6651
   82SLPC  H15C 7639   2.404   4.042   3.203  1.4231  0.8046  1.5339
   82SLPC   C12 7640   2.172   4.136   3.437 -0.6297  0.3053  0.0021
   82SLPC  H12A 7641   2.112   4.046   3.427  0.4917 -0.3463 -1.3009
   82SLPC  H12B 7642   2.109   4.221   3.456 -0.4717  0.1276  1.4863
   82SLPC   C11 7643   2.258   4.110   3.568  0.4424  0.0133 -0.1628
   82SLPC  H11A 7644   2.308   4.011   3.564  1.9482  0.5908  2.4564
   82SLPC  H11B 7645   2.187   4.096   3.652  0.0836 -1.0787 -0.6311
   82SLPC     P 7646   2.297   4.343   3.666  0.0809 -0.2694 -0.5013
   82SLPC   O13 7647   2.406   4.446   3.664  0.1967  0.1609  0.4053
   82SLPC   O14 7648   2.166   4.387   3.613  0.0342 -0.3785 -0.0676
   82SLPC   O12 7649   2.356   4.212   3.592 -0.2965 -0.1722 -0.1803
   82SLPC   O11 7650   2.271   4.295   3.817  0.1114 -0.6154  0.4652
   82SLPC    C1 7651   2.395   4.265   3.890 -0.5238 -1.1256 -0.0782
   82SLPC    HA 7652   2.479   4.233   3.824 -1.7000 -3.7243 -0.4514
   82SLPC    HB 7653   2.419   4.349   3.959  0.0803 -0.7034 -0.7849
   82SLPC    C2 7654   2.373   4.141   3.983  0.1901  0.4670  0.0533
   82SLPC    HS 7655   2.352   4.047   3.928 -0.3133  0.9186 -0.5281
   82SLPC   O21 7656   2.265   4.163   4.073  0.7079 -0.4976 -0.2142
   82SLPC   C21 7657   2.194   4.056   4.112 -0.6321 -0.5749 -0.1756
   82SLPC   O22 7658   2.206   3.943   4.073  0.5960 -0.5168 -0.0483
   82SLPC   C22 7659   2.112   4.096   4.236 -0.1197 -0.0448 -0.7457
   82SLPC   H2R 7660   2.020   4.034   4.230  1.4537 -2.3155 -3.0994
   82SLPC   H2S 7661   2.165   4.075   4.331 -1.8269  0.3266  0.3395
   82SLPC    C3 7662   2.506   4.114   4.059 -0.8261  0.1765  0.3359
   82SLPC    HX 7663   2.539   4.212   4.102 -0.3039  0.9207 -1.6554
   82SLPC    HY 7664   2.584   4.084   3.986 -1.4019 -2.7683  0.8096
   82SLPC   O31 7665   2.479   4.013   4.162  0.3530 -0.1385 -0.2454
   82SLPC   C31 7666   2.593   3.970   4.232 -0.5576  0.1497 -0.2430
   82SLPC   O32 7667   2.703   4.027   4.229  0.1840  0.5502 -0.2229
   82SLPC   C32 7668   2.565   3.831   4.289 -0.4922 -0.1000  1.0243
   82SLPC   H2X 7669   2.555   3.763   4.202 -1.9826 -0.5655  1.5418
   82SLPC   H2Y 7670   2.468   3.830   4.343 -2.1128  0.3730 -1.7209
   82SLPC   C23 7671   2.056   4.242   4.247 -0.3306 -0.5987  1.4449
   82SLPC   H3R 7672   1.966   4.255   4.184  1.5690  2.0780 -1.0044
   82SLPC   H3S 7673   2.129   4.318   4.210 -1.2489 -0.6804 -0.5996
   82SLPC   C24 7674   2.029   4.298   4.386 -0.0921  0.2199  0.1187
   82SLPC   H4R 7675   1.993   4.403   4.377  0.9348  0.6545  0.9051
   82SLPC   H4S 7676   2.133   4.315   4.420  0.3111  0.4003 -1.1457
   82SLPC   C25 7677   1.948   4.210   4.492  0.3488 -0.5816  0.0092
   82SLPC   H5R 7678   1.978   4.106   4.466  2.4193 -0.0201 -0.0678
   82SLPC   H5S 7679   1.838   4.222   4.487  0.4146 -0.2329 -0.7282
   82SLPC   C26 7680   1.987   4.231   4.641  0.3624  0.8877 -0.0717
   82SLPC   H6R 7681   2.096   4.212   4.650  0.5523  1.2917 -1.3118
   82SLPC   H6S 7682   1.927   4.159   4.701 -2.6255  0.4362 -3.2542
   82SLPC   C27 7683   1.951   4.374   4.695  0.0559 -0.4294  0.1780
   82SLPC   H7R 7684   1.843   4.387   4.672  0.1148  0.7085  0.4966
   82SLPC   H7S 7685   2.003   4.457   4.644 -0.5885 -0.4989 -0.6010
   82SLPC   C28 7686   1.986   4.387   4.846 -0.7306  0.8214 -0.3291
   82SLPC   H8R 7687   1.973   4.496   4.861 -0.4159  0.7860  0.1782
   82SLPC   H8S 7688   2.096   4.375   4.853 -0.9367 -0.4278  1.4547
   82SLPC   C29 7689   1.906   4.310   4.948 -0.3003  0.7112 -0.1520
   82SLPC   H9R 7690   1.810   4.273   4.911 -1.3023  2.5647  0.4881
   82SLPC  C210 7691   1.942   4.281   5.073  1.0225 -0.1321  0.7548
   82SLPC  H10R 7692   1.871   4.217   5.127  0.0494  0.7417  0.5461
   82SLPC  C211 7693   2.065   4.312   5.151  0.4031 -0.0581  0.5455
   82SLPC  H11R 7694   2.120   4.373   5.075  2.6967 -2.4743  0.1011
   82SLPC  H11S 7695   2.129   4.228   5.186  0.3793  0.2546  1.3537
   82SLPC  C212 7696   2.025   4.395   5.268  0.0800 -0.4956 -0.1819
   82SLPC  H12R 7697   2.037   4.503   5.255 -1.6311  0.4008  4.0329
   82SLPC  C213 7698   2.000   4.359   5.396 -0.1044  0.3705  0.0651
   82SLPC  H13R 7699   1.968   4.432   5.472  0.0298 -1.0910  1.5703
   82SLPC  C214 7700   1.996   4.216   5.455 -0.2707 -0.2410 -0.1790
   82SLPC  H14R 7701   1.976   4.140   5.376  2.7285 -0.2267 -1.0722
   82SLPC  H14S 7702   1.920   4.214   5.536 -1.7955 -1.8418 -1.5689
   82SLPC  C215 7703   2.129   4.185   5.530  0.6266 -0.4190  0.2892
   82SLPC  H15R 7704   2.212   4.171   5.458 -0.6833 -3.1805 -0.8469
   82SLPC  H15S 7705   2.117   4.086   5.578  1.2475 -0.4336  0.4152
   82SLPC  C216 7706   2.165   4.283   5.643  0.5783  0.2773 -0.2277
   82SLPC  H16R 7707   2.103   4.280   5.735 -1.2927 -0.9234 -1.4541
   82SLPC  H16S 7708   2.152   4.386   5.603 -1.9301 -0.2211 -0.8819
   82SLPC  C217 7709   2.313   4.280   5.687 -0.1704  0.0035 -1.3751
   82SLPC  H17R 7710   2.380   4.270   5.600 -0.7410 -0.7542 -1.7403
   82SLPC  H17S 7711   2.328   4.191   5.752 -0.7060  1.7727  1.3365
   82SLPC  C218 7712   2.335   4.405   5.777  0.2041  0.6324  0.3767
   82SLPC  H18R 7713   2.433   4.390   5.828  0.6718 -1.8964 -1.1330
   82SLPC  H18S 7714   2.260   4.402   5.859 -1.2403 -1.4223 -0.9467
   82SLPC  H18T 7715   2.326   4.505   5.729 -0.1968  0.8838  0.9646
   82SLPC   C33 7716   2.687   3.779   4.377  0.5489 -0.3560  0.2682
   82SLPC   H3X 7717   2.776   3.756   4.314  0.5491  1.3354 -0.3867
   82SLPC   H3Y 7718   2.658   3.679   4.417  0.6880  0.8251  3.6992
   82SLPC   C34 7719   2.736   3.858   4.500 -0.2831 -0.6922  0.1760
   82SLPC   H4X 7720   2.761   3.963   4.475 -3.0918 -0.6850 -3.4014
   82SLPC   H4Y 7721   2.828   3.812   4.541 -0.7439 -3.1328 -1.3379
   82SLPC   C35 7722   2.627   3.855   4.611  0.6651 -0.2291  0.1678
   82SLPC   H5X 7723   2.582   3.753   4.612 -1.0893  0.4798 -1.6365
   82SLPC   H5Y 7724   2.545   3.918   4.573  2.0337  0.2833 -2.1212
   82SLPC   C36 7725   2.670   3.901   4.754 -0.2509 -0.4891 -0.1714
   82SLPC   H6X 7726   2.709   4.005   4.750  0.8647 -0.8402  0.9191
   82SLPC   H6Y 7727   2.747   3.832   4.795 -1.3738 -1.8805 -0.3314
   82SLPC   C37 7728   2.576   3.895   4.877  0.0222  0.0209  0.3338
   82SLPC   H7X 7729   2.498   3.966   4.842  0.3939 -0.8789 -2.5432
   82SLPC   H7Y 7730   2.629   3.933   4.967 -1.1971 -0.6209  1.3604
   82SLPC   C38 7731   2.518   3.758   4.912 -0.1068  0.0822 -0.1558
   82SLPC   H8X 7732   2.475   3.715   4.819  1.2524  0.8658 -1.1865
   82SLPC   H8Y 7733   2.439   3.762   4.990  2.3370 -0.6741  2.5499
   82SLPC   C39 7734   2.635   3.671   4.966  0.5267 -0.7795 -0.1246
   82SLPC   H9X 7735   2.697   3.730   5.037 -1.5791  1.1409  0.2495
   82SLPC   H9Y 7736   2.698   3.641   4.879 -2.0552 -2.9501 -1.4048
   82SLPC  C310 7737   2.596   3.544   5.043 -0.2643  0.1321  0.4391
   82SLPC  H10X 7738   2.686   3.481   5.061 -0.2411 -0.0307 -0.2367
   82SLPC  H10Y 7739   2.526   3.478   4.988 -0.0001 -0.3203  0.6438
   82SLPC  C311 7740   2.543   3.572   5.181 -0.6169  0.5346 -0.8679
   82SLPC  H11X 7741   2.434   3.592   5.172 -1.4434 -2.0524  1.7779
   82SLPC  H11Y 7742   2.590   3.654   5.240  1.2972 -1.4720  0.5789
   82SLPC  C312 7743   2.548   3.453   5.273  0.0937 -0.6503 -0.8238
   82SLPC  H12X 7744   2.652   3.418   5.288 -0.1960 -0.9340  0.6082
   82SLPC  H12Y 7745   2.489   3.362   5.247 -0.2506 -0.6075 -0.1915
   82SLPC  C313 7746   2.489   3.487   5.419 -0.9538  0.0741  0.9867
   82SLPC  H13X 7747   2.381   3.512   5.409 -0.6329  0.9582 -0.5933
   82SLPC  H13Y 7748   2.545   3.575   5.455 -2.3473  0.6859  1.7537
   82SLPC  C314 7749   2.505   3.370   5.522  0.7849  0.1182 -0.0114
   82SLPC  H14X 7750   2.609   3.331   5.533  0.0445 -1.6746  0.9250
   82SLPC  H14Y 7751   2.442   3.285   5.489  0.6724  0.3760 -0.4683
   82SLPC  C315 7752   2.442   3.418   5.656  0.0986  0.2020  0.3033
   82SLPC  H15X 7753   2.334   3.441   5.641 -0.4875 -2.9650 -1.4387
   82SLPC  H15Y 7754   2.495   3.510   5.686 -0.0457  1.2254 -2.3105
   82SLPC  C316 7755   2.466   3.317   5.772 -0.1812  0.6303 -0.3822
   82SLPC  H16X 7756   2.574   3.293   5.784 -0.5549 -0.1514  1.9891
   82SLPC  H16Y 7757   2.414   3.221   5.753 -1.2572  1.5263 -2.2224
   82SLPC  C317 7758   2.431   3.373   5.916  1.0029 -0.1065  0.4931
   82SLPC  H17X 7759   2.437   3.290   5.990 -1.7137 -1.1565 -0.3510
   82SLPC  H17Y 7760   2.324   3.400   5.911  0.8815 -0.5104  0.8002
   82SLPC  C318 7761   2.516   3.491   5.959  0.0263 -0.2762 -0.6844
   82SLPC  H18X 7762   2.512   3.500   6.070 -2.2932 -3.0352 -0.4295
   82SLPC  H18Y 7763   2.493   3.592   5.920  0.0703 -0.4461 -1.1574
   82SLPC  H18Z 7764   2.620   3.459   5.935 -0.2096 -1.7695  0.1648
   83SLPC     N 7765   5.698   5.466   3.419  0.5763 -0.3228 -0.3012
   83SLPC   C13 7766   5.837   5.437   3.464 -0.2413 -0.3850  0.2527
   83SLPC  H13A 7767   5.848   5.464   3.569 -1.8663  1.6845 -0.0313
   83SLPC  H13B 7768   5.867   5.334   3.454 -2.7297 -1.2167  0.4188
   83SLPC  H13C 7769   5.905   5.501   3.411  0.8146 -1.1240  0.6982
   83SLPC   C14 7770   5.689   5.430   3.276  0.4770  0.0378  0.2128
   83SLPC  H14A 7771   5.765   5.494   3.234 -0.5241  1.8698  1.0926
   83SLPC  H14B 7772   5.719   5.328   3.259  1.6440  0.1406  1.4547
   83SLPC  H14C 7773   5.594   5.459   3.234  0.0113 -0.3500  0.9835
   83SLPC   C15 7774   5.680   5.614   3.419 -0.2803  0.7041  0.2581
   83SLPC  H15A 7775   5.589   5.641   3.368  0.3339 -0.8152 -1.8072
   83SLPC  H15B 7776   5.669   5.654   3.518 -0.1729  0.0581  0.5411
   83SLPC  H15C 7777   5.761   5.668   3.372 -2.2174  2.4785 -1.2076
   83SLPC   C12 7778   5.598   5.393   3.521  0.2206  0.0779  0.6032
   83SLPC  H12A 7779   5.607   5.287   3.503  0.4317 -0.0579  1.4628
   83SLPC  H12B 7780   5.500   5.428   3.492  0.3054  0.3216  0.6035
   83SLPC   C11 7781   5.620   5.401   3.673  0.0273  0.0496 -0.9908
   83SLPC  H11A 7782   5.528   5.359   3.718 -0.0507  1.2789  0.0836
   83SLPC  H11B 7783   5.624   5.507   3.708 -0.1621 -0.1566 -0.3254
   83SLPC     P 7784   5.729   5.185   3.762  0.2351  0.0861  0.0646
   83SLPC   O13 7785   5.659   5.112   3.657 -0.3751 -0.9350 -0.0010
   83SLPC   O14 7786   5.859   5.124   3.802 -0.0650  0.1442 -0.4972
   83SLPC   O12 7787   5.748   5.330   3.711 -0.4838 -0.0712 -0.7705
   83SLPC   O11 7788   5.632   5.203   3.880 -0.2341  0.5953  0.7461
   83SLPC    C1 7789   5.647   5.304   3.969 -0.1991 -0.8760 -0.6779
   83SLPC    HA 7790   5.749   5.335   4.000 -1.1812  0.0897  1.9465
   83SLPC    HB 7791   5.594   5.397   3.937  0.6086 -1.0447 -2.6224
   83SLPC    C2 7792   5.573   5.269   4.101  0.2168 -0.4740 -0.1524
   83SLPC    HS 7793   5.476   5.237   4.059 -0.5792  1.2965  0.2452
   83SLPC   O21 7794   5.561   5.390   4.183  0.3671  0.3784 -0.6123
   83SLPC   C21 7795   5.444   5.454   4.173 -0.5430 -0.7860  0.0505
   83SLPC   O22 7796   5.366   5.432   4.087  0.1793  0.3319  0.3824
   83SLPC   C22 7797   5.423   5.549   4.299  0.5712 -0.0791 -0.4526
   83SLPC   H2R 7798   5.516   5.547   4.360  1.7870  1.3495 -2.1598
   83SLPC   H2S 7799   5.405   5.653   4.265 -2.3265 -0.9997 -2.1108
   83SLPC    C3 7800   5.644   5.152   4.176  0.6197 -0.4826  0.1627
   83SLPC    HX 7801   5.753   5.165   4.165  0.5541 -1.3671 -1.9949
   83SLPC    HY 7802   5.613   5.056   4.129 -1.7263  0.3415 -0.1362
   83SLPC   O31 7803   5.604   5.149   4.318  0.4457 -0.8010  0.2854
   83SLPC   C31 7804   5.480   5.110   4.340 -0.0546  0.5668 -0.7107
   83SLPC   O32 7805   5.396   5.080   4.259  0.0077 -0.1149  0.0342
   83SLPC   C32 7806   5.475   5.068   4.487  0.0486  0.3530  0.1806
   83SLPC   H2X 7807   5.576   5.039   4.521 -0.2841  0.9699  1.7529
   83SLPC   H2Y 7808   5.405   4.982   4.497  1.8496 -1.2595 -0.5065
   83SLPC   C23 7809   5.301   5.508   4.373 -0.1409  0.0284 -0.0776
   83SLPC   H3R 7810   5.286   5.399   4.385  1.9589 -0.2949  0.0041
   83SLPC   H3S 7811   5.203   5.544   4.336  0.1740  1.2547  0.2350
   83SLPC   C24 7812   5.307   5.549   4.521 -0.5266  0.1187 -0.0594
   83SLPC   H4R 7813   5.319   5.659   4.508 -2.7499  0.4229  0.0198
   83SLPC   H4S 7814   5.382   5.486   4.573 -0.7280  0.2315  0.3693
   83SLPC   C25 7815   5.180   5.523   4.602  0.5982 -0.0852  0.5445
   83SLPC   H5R 7816   5.160   5.415   4.588 -0.9329  0.1960  0.4257
   83SLPC   H5S 7817   5.097   5.578   4.553  0.2290  0.6349  1.9117
   83SLPC   C26 7818   5.195   5.564   4.741  0.5000  0.5538 -0.8242
   83SLPC   H6R 7819   5.125   5.645   4.770  0.9367  0.5969  0.1541
   83SLPC   H6S 7820   5.290   5.619   4.760 -1.1999  2.8077  1.8713
   83SLPC   C27 7821   5.180   5.447   4.844 -0.0956  0.0979 -0.9434
   83SLPC   H7R 7822   5.268   5.380   4.830  0.6542  0.8367  0.1334
   83SLPC   H7S 7823   5.087   5.389   4.823 -1.2307  0.4671  2.4553
   83SLPC   C28 7824   5.195   5.470   5.000  0.1682 -0.0443  0.3022
   83SLPC   H8R 7825   5.088   5.497   5.019  0.4301  0.2020  1.5150
   83SLPC   H8S 7826   5.268   5.546   5.034  2.2199 -1.3413 -1.0378
   83SLPC   C29 7827   5.226   5.350   5.088 -0.2141 -0.1460  0.4177
   83SLPC   H9R 7828   5.256   5.263   5.027 -1.2126  0.0961 -0.4616
   83SLPC  C210 7829   5.232   5.341   5.224  0.0193 -0.9217 -1.1365
   83SLPC  H10R 7830   5.268   5.251   5.275  1.2787  0.4762  0.6027
   83SLPC  C211 7831   5.197   5.450   5.328 -0.4154 -0.3172 -0.0531
   83SLPC  H11R 7832   5.184   5.542   5.266  1.7136  0.5796  0.7531
   83SLPC  H11S 7833   5.280   5.455   5.401  0.8657 -0.4720 -1.4503
   83SLPC  C212 7834   5.071   5.408   5.385  0.4309  0.1623 -0.3512
   83SLPC  H12R 7835   4.987   5.421   5.315  1.1507  0.3957 -1.1954
   83SLPC  C213 7836   5.048   5.361   5.510 -0.0780 -0.1534  0.5036
   83SLPC  H13R 7837   4.942   5.335   5.524 -0.0103 -0.6585  0.1229
   83SLPC  C214 7838   5.152   5.332   5.619  0.1351 -0.2925  0.2701
   83SLPC  H14R 7839   5.105   5.368   5.713  0.1656  1.4068 -0.3153
   83SLPC  H14S 7840   5.234   5.404   5.597 -0.7057  0.8037  0.6256
   83SLPC  C215 7841   5.201   5.191   5.621  0.1646  0.3271 -0.2098
   83SLPC  H15R 7842   5.279   5.195   5.542 -0.2961 -0.1225 -0.7065
   83SLPC  H15S 7843   5.135   5.104   5.599 -0.9293  0.0670  3.5047
   83SLPC  C216 7844   5.260   5.146   5.759  0.2381  0.1694 -0.0543
   83SLPC  H16R 7845   5.322   5.232   5.793 -0.0343  1.0631 -1.7119
   83SLPC  H16S 7846   5.332   5.062   5.747 -1.0222 -0.7362 -1.6504
   83SLPC  C217 7847   5.158   5.114   5.869  1.1268  0.1206 -0.2544
   83SLPC  H17R 7848   5.093   5.028   5.842  1.8705  0.5436 -3.8756
   83SLPC  H17S 7849   5.087   5.199   5.881 -1.0200 -1.3282 -1.7911
   83SLPC  C218 7850   5.235   5.068   5.998  0.7339 -0.3671  0.2326
   83SLPC  H18R 7851   5.166   5.043   6.081  0.3016  0.4900  0.1362
   83SLPC  H18S 7852   5.299   5.151   6.034 -0.1573 -0.3493  1.8679
   83SLPC  H18T 7853   5.288   4.970   5.989  0.0202 -0.8521  1.0824
   83SLPC   C33 7854   5.425   5.180   4.576  0.1026 -0.4470  0.2694
   83SLPC   H3X 7855   5.315   5.182   4.563  0.3692  1.6708 -2.9335
   83SLPC   H3Y 7856   5.457   5.284   4.551 -1.5325  0.3917  1.4927
   83SLPC   C34 7857   5.454   5.146   4.724  0.0678  0.1312  0.6666
   83SLPC   H4X 7858   5.429   5.237   4.783 -0.7994  0.3001  0.0693
   83SLPC   H4Y 7859   5.564   5.132   4.717  0.2007  1.4286 -0.3435
   83SLPC   C35 7860   5.387   5.027   4.781  0.3867  0.5130 -0.2352
   83SLPC   H5X 7861   5.363   4.948   4.706  0.6483  1.4412 -1.3353
   83SLPC   H5Y 7862   5.289   5.060   4.821  0.0395 -2.8535  2.0519
   83SLPC   C36 7863   5.463   4.957   4.893  0.3175  0.1983 -0.3143
   83SLPC   H6X 7864   5.553   4.906   4.854 -0.2239 -1.4807  0.5484
   83SLPC   H6Y 7865   5.388   4.885   4.933 -0.3392 -0.3871 -2.4843
   83SLPC   C37 7866   5.497   5.056   5.013  0.2574 -0.6392  0.0264
   83SLPC   H7X 7867   5.399   5.092   5.050  0.1037 -0.1285 -0.8703
   83SLPC   H7Y 7868   5.560   5.141   4.981 -1.7913  1.1256  0.4675
   83SLPC   C38 7869   5.571   4.981   5.129  0.1508 -0.0670 -0.5847
   83SLPC   H8X 7870   5.668   4.935   5.100 -0.6059 -2.1854  0.0412
   83SLPC   H8Y 7871   5.510   4.891   5.155  1.3116 -1.7969 -3.4468
   83SLPC   C39 7872   5.573   5.073   5.248 -0.1112 -0.2948 -0.6433
   83SLPC   H9X 7873   5.471   5.114   5.260 -0.7691 -1.9701 -0.2309
   83SLPC   H9Y 7874   5.648   5.154   5.235 -2.6271  2.7308  2.0494
   83SLPC  C310 7875   5.593   4.990   5.368  0.1096 -0.4917 -0.5448
   83SLPC  H10X 7876   5.686   4.931   5.358 -0.7296 -1.9765  0.0403
   83SLPC  H10Y 7877   5.508   4.920   5.385 -0.0745 -0.1854 -0.1790
   83SLPC  C311 7878   5.611   5.072   5.500  0.4371  0.0534  0.3155
   83SLPC  H11X 7879   5.518   5.132   5.504 -1.9143 -3.2734 -0.0343
   83SLPC  H11Y 7880   5.702   5.133   5.480 -0.5720  1.2051 -0.9361
   83SLPC  C312 7881   5.624   4.989   5.630 -0.7962 -0.4950 -0.4505
   83SLPC  H12X 7882   5.703   4.911   5.624 -0.9119 -0.9109  2.1617
   83SLPC  H12Y 7883   5.529   4.934   5.651 -1.6206  0.4659 -1.5174
   83SLPC  C313 7884   5.668   5.083   5.747  0.0561 -0.5584  0.0698
   83SLPC  H13X 7885   5.590   5.163   5.745 -0.7601 -1.2920  1.2562
   83SLPC  H13Y 7886   5.768   5.127   5.729 -0.5498 -0.1185 -2.6127
   83SLPC  C314 7887   5.691   5.018   5.877  0.0671  0.2300  0.4929
   83SLPC  H14X 7888   5.763   4.936   5.857 -0.3228 -0.1843  0.7599
   83SLPC  H14Y 7889   5.598   4.963   5.904 -0.1294 -0.2634 -1.0605
   83SLPC  C315 7890   5.749   5.120   5.977 -0.1637 -0.2730 -0.3982
   83SLPC  H15X 7891   5.850   5.157   5.949  0.4306 -1.8188 -0.4048
   83SLPC  H15Y 7892   5.767   5.068   6.074 -0.4632 -0.1514 -0.2749
   83SLPC  C316 7893   5.658   5.244   6.000 -0.4794  0.0590 -0.1407
   83SLPC  H16X 7894   5.559   5.198   6.018 -0.5412 -0.6213 -1.9976
   83SLPC  H16Y 7895   5.666   5.314   5.914 -0.4542  0.7567  0.4140
   83SLPC  C317 7896   5.704   5.328   6.119  0.8250  0.5485  1.1746
   83SLPC  H17X 7897   5.649   5.424   6.114  3.0177  1.8227 -0.6823
   83SLPC  H17Y 7898   5.815   5.341   6.113  0.8027  0.6489  0.9843
   83SLPC  C318 7899   5.668   5.270   6.257  0.0873 -0.2937 -0.2626
   83SLPC  H18X 7900   5.703   5.164   6.260  1.0526  0.0414  1.5949
   83SLPC  H18Y 7901   5.558   5.267   6.275  0.3118  1.0735  1.6628
   83SLPC  H18Z 7902   5.712   5.333   6.337 -0.3404 -2.4132  1.7655
   84SLPC     N 7903   1.361   0.471   3.970 -0.3345 -0.3236 -0.0588
   84SLPC   C13 7904   1.426   0.577   4.060  0.1456 -0.1233  0.1722
   84SLPC  H13A 7905   1.485   0.530   4.137  0.8533  0.6619  0.1287
   84SLPC  H13B 7906   1.480   0.655   4.008  0.8768  0.4123  1.6608
   84SLPC  H13C 7907   1.347   0.638   4.101  0.8816  3.0902 -2.6742
   84SLPC   C14 7908   1.460   0.407   3.877 -1.3486 -0.0995  0.0684
   84SLPC  H14A 7909   1.522   0.483   3.831  0.2426 -1.3462  0.0586
   84SLPC  H14B 7910   1.530   0.338   3.922 -0.7236 -0.0783 -0.8369
   84SLPC  H14C 7911   1.412   0.352   3.798 -1.0414  2.6076 -2.1598
   84SLPC   C15 7912   1.275   0.546   3.871 -0.2902  0.3359  0.6806
   84SLPC  H15A 7913   1.336   0.628   3.836  1.0699  0.1612  2.4720
   84SLPC  H15B 7914   1.264   0.475   3.790  1.0706  1.6044 -0.6938
   84SLPC  H15C 7915   1.181   0.574   3.916 -0.7272 -0.4944  0.3054
   84SLPC   C12 7916   1.280   0.369   4.044  0.9071  0.0322 -0.5826
   84SLPC  H12A 7917   1.351   0.301   4.091 -0.1006  0.5743  1.8893
   84SLPC  H12B 7918   1.211   0.319   3.977  1.4402 -0.7209 -0.5844
   84SLPC   C11 7919   1.194   0.420   4.168 -0.0171 -0.6627  1.1220
   84SLPC  H11A 7920   1.264   0.483   4.227  1.5554 -0.9495 -0.3780
   84SLPC  H11B 7921   1.157   0.344   4.240 -0.8333  1.3878  2.9991
   84SLPC     P 7922   0.965   0.447   4.046  0.1767 -0.4931 -0.3814
   84SLPC   O13 7923   0.870   0.558   4.011  0.2367  0.0206 -0.0723
   84SLPC   O14 7924   1.015   0.358   3.934 -0.0429  0.2378  0.3544
   84SLPC   O12 7925   1.079   0.507   4.126 -0.0117 -0.5383  0.4281
   84SLPC   O11 7926   0.889   0.353   4.150  0.1194 -0.1141  0.5537
   84SLPC    C1 7927   0.773   0.390   4.221  0.5014  0.2070  0.3407
   84SLPC    HA 7928   0.708   0.454   4.159  0.7285 -0.5119 -0.6738
   84SLPC    HB 7929   0.713   0.298   4.239  4.6557 -2.9055 -0.0843
   84SLPC    C2 7930   0.809   0.456   4.354 -0.4589 -0.4379  0.1449
   84SLPC    HS 7931   0.876   0.542   4.337  0.2743 -0.7920  1.1335
   84SLPC   O21 7932   0.880   0.360   4.433  0.4425 -0.1814 -0.1669
   84SLPC   C21 7933   0.956   0.406   4.524  0.0427  0.3080 -0.0670
   84SLPC   O22 7934   0.988   0.522   4.543 -0.2766  0.1699  0.2272
   84SLPC   C22 7935   1.007   0.291   4.612 -0.2537  0.9379  0.0422
   84SLPC   H2R 7936   0.924   0.242   4.667  1.7370  0.7443  3.1257
   84SLPC   H2S 7937   1.054   0.214   4.546  0.2303  1.2142  0.0592
   84SLPC    C3 7938   0.676   0.520   4.423 -0.2225  0.6363  0.1372
   84SLPC    HX 7939   0.611   0.430   4.430  0.2771  0.3261  0.9869
   84SLPC    HY 7940   0.630   0.592   4.351 -4.1951 -2.1957 -0.4978
   84SLPC   O31 7941   0.710   0.580   4.552 -0.3364  0.3962 -0.1908
   84SLPC   C31 7942   0.672   0.711   4.561  0.4691  0.1009 -0.2738
   84SLPC   O32 7943   0.615   0.774   4.474  0.1414  0.3000 -0.5759
   84SLPC   C32 7944   0.717   0.768   4.695 -0.0214  0.2242 -0.0211
   84SLPC   H2X 7945   0.780   0.856   4.669 -0.1740  0.2447 -0.3241
   84SLPC   H2Y 7946   0.774   0.693   4.754  0.0593 -1.0155 -1.5956
   84SLPC   C23 7947   1.119   0.343   4.704  0.2736  0.4518 -0.5824
   84SLPC   H3R 7948   1.182   0.421   4.655 -0.7955  0.3240 -2.2479
   84SLPC   H3S 7949   1.195   0.264   4.719 -0.1665  0.1728  0.2691
   84SLPC   C24 7950   1.056   0.399   4.835  0.1773  0.2354  0.0348
   84SLPC   H4R 7951   1.035   0.305   4.891  0.9467 -0.3952 -0.7081
   84SLPC   H4S 7952   0.963   0.458   4.818  0.2669  0.1713 -0.6880
   84SLPC   C25 7953   1.155   0.489   4.912  0.2263  0.9206  0.1421
   84SLPC   H5R 7954   1.186   0.581   4.857  0.8061  0.1097 -0.9204
   84SLPC   H5S 7955   1.243   0.427   4.937 -0.3114  0.2936  0.4898
   84SLPC   C26 7956   1.105   0.539   5.046 -0.2272  0.5147 -0.7407
   84SLPC   H6R 7957   1.182   0.588   5.109 -2.1710  1.2880  1.1504
   84SLPC   H6S 7958   1.053   0.461   5.106 -0.7015  2.1851  1.1343
   84SLPC   C27 7959   0.999   0.647   5.029 -0.0617  0.1010  0.5904
   84SLPC   H7R 7960   0.917   0.596   4.974 -1.8251  0.8814  2.4014
   84SLPC   H7S 7961   1.047   0.717   4.957 -2.8649  0.7692 -0.7426
   84SLPC   C28 7962   0.951   0.718   5.151  0.4766 -0.1656 -0.2343
   84SLPC   H8R 7963   1.039   0.767   5.198  0.6338 -1.6162  1.0757
   84SLPC   H8S 7964   0.916   0.643   5.226  2.0806 -0.3059  0.4262
   84SLPC   C29 7965   0.854   0.829   5.123  0.7900 -0.5095 -0.0654
   84SLPC   H9R 7966   0.864   0.869   5.021  1.0784 -1.9157 -0.6018
   84SLPC  C210 7967   0.751   0.866   5.202  0.1602  0.0916 -0.0862
   84SLPC  H10R 7968   0.677   0.938   5.165 -0.1841 -0.4768 -0.5269
   84SLPC  C211 7969   0.719   0.805   5.335  0.4645 -0.2263 -0.0584
   84SLPC  H11R 7970   0.805   0.749   5.377  0.0694  0.8205  2.2826
   84SLPC  H11S 7971   0.629   0.741   5.324  2.2851 -2.7155 -1.6510
   84SLPC  C212 7972   0.680   0.913   5.427 -0.0384 -0.9346  0.2090
   84SLPC  H12R 7973   0.572   0.923   5.443 -0.1813 -2.3533  0.2534
   84SLPC  C213 7974   0.756   0.993   5.501 -0.3732  0.7620 -1.0767
   84SLPC  H13R 7975   0.712   1.057   5.579  1.7927  1.2106 -0.1670
   84SLPC  C214 7976   0.909   0.981   5.503 -0.0569  0.2206 -0.1205
   84SLPC  H14R 7977   0.947   1.084   5.491  2.0865 -0.5452 -0.2825
   84SLPC  H14S 7978   0.949   0.920   5.419 -1.8794  0.6638 -1.3760
   84SLPC  C215 7979   0.959   0.919   5.640  0.0601  0.5248  0.6218
   84SLPC  H15R 7980   1.070   0.923   5.633  0.0985  0.7667  1.3181
   84SLPC  H15S 7981   0.935   0.811   5.644 -0.5874  0.3498 -3.6071
   84SLPC  C216 7982   0.909   1.006   5.758 -0.5885  0.4565 -0.3497
   84SLPC  H16R 7983   0.800   0.992   5.773 -0.3817 -0.1589  0.6620
   84SLPC  H16S 7984   0.939   1.112   5.747  2.6089 -0.2621  0.3952
   84SLPC  C217 7985   0.984   0.978   5.891 -0.1145  0.0530  0.0097
   84SLPC  H17R 7986   0.947   1.037   5.978 -1.7945  1.5700 -1.6331
   84SLPC  H17S 7987   1.090   1.007   5.877 -0.3092  1.3542  1.0046
   84SLPC  C218 7988   0.973   0.823   5.920 -0.4411 -0.0645 -0.1554
   84SLPC  H18R 7989   1.012   0.769   5.832 -2.7331 -1.5431 -0.3453
   84SLPC  H18S 7990   0.865   0.802   5.938  0.1129 -1.5776  1.8104
   84SLPC  H18T 7991   1.023   0.796   6.016 -0.2217  0.8193 -0.0145
   84SLPC   C33 7992   0.602   0.823   4.783 -0.3843  0.4350  0.0555
   84SLPC   H3X 7993   0.530   0.888   4.728 -0.8159  2.0123  2.3384
   84SLPC   H3Y 7994   0.645   0.887   4.863 -1.2720  1.1414 -0.0037
   84SLPC   C34 7995   0.518   0.709   4.857 -0.2930 -0.1782  0.5189
   84SLPC   H4X 7996   0.591   0.662   4.926 -2.2311 -0.0857  2.7840
   84SLPC   H4Y 7997   0.491   0.625   4.790  0.2964 -1.2672  1.6100
   84SLPC   C35 7998   0.404   0.760   4.945  1.1499 -0.1835  0.8521
   84SLPC   H5X 7999   0.337   0.827   4.888  2.0989 -0.3321 -0.4849
   84SLPC   H5Y 8000   0.447   0.814   5.032  0.9641  0.7908  0.3438
   84SLPC   C36 8001   0.307   0.652   4.994 -0.2755 -0.1702 -0.4291
   84SLPC   H6X 8002   0.349   0.559   4.952  1.0960  0.7473 -1.1774
   84SLPC   H6Y 8003   0.209   0.676   4.949 -0.1545 -1.2530 -1.3109
   84SLPC   C37 8004   0.307   0.631   5.148 -0.0522  0.5007 -1.0258
   84SLPC   H7X 8005   0.409   0.601   5.179  0.0632  2.5556  0.8746
   84SLPC   H7Y 8006   0.236   0.546   5.159  0.8586 -0.3868 -1.6995
   84SLPC   C38 8007   0.252   0.748   5.233  0.6270  0.0706 -0.7733
   84SLPC   H8X 8008   0.146   0.765   5.203  1.2495  1.0414 -2.5687
   84SLPC   H8Y 8009   0.307   0.838   5.200 -0.0496  0.1920 -1.6066
   84SLPC   C39 8010   0.272   0.730   5.382 -0.5209 -0.6694  0.1060
   84SLPC   H9X 8011   0.276   0.831   5.430 -1.0573  0.0630 -1.3364
   84SLPC   H9Y 8012   0.369   0.676   5.391 -0.8413 -1.3633 -0.5202
   84SLPC  C310 8013   0.175   0.640   5.469 -0.3739 -0.4980  0.8766
   84SLPC  H10X 8014   0.166   0.541   5.418  1.6265  1.0370 -2.8204
   84SLPC  H10Y 8015   0.070   0.676   5.467 -0.6261 -1.1059 -2.0965
   84SLPC  C311 8016   0.226   0.632   5.613  0.6912 -0.4202 -0.5837
   84SLPC  H11X 8017   0.172   0.698   5.685  0.8120 -2.3482  1.4014
   84SLPC  H11Y 8018   0.335   0.649   5.603  0.5561 -0.3407 -2.0469
   84SLPC  C312 8019   0.212   0.498   5.682 -0.3014 -0.1128 -0.0521
   84SLPC  H12X 8020   0.242   0.417   5.612 -0.6808 -1.2430  1.0509
   84SLPC  H12Y 8021   0.102   0.485   5.697 -0.3787  1.4175  0.8771
   84SLPC  C313 8022   0.290   0.483   5.810 -0.2787 -0.1498  0.6094
   84SLPC  H13X 8023   0.302   0.570   5.879 -1.8582 -0.5783  1.4728
   84SLPC  H13Y 8024   0.392   0.455   5.776  0.1955  3.4730 -1.3783
   84SLPC  C314 8025   0.223   0.375   5.902 -0.3996 -0.0188  0.5053
   84SLPC  H14X 8026   0.213   0.276   5.854 -1.1953 -0.4317  1.4834
   84SLPC  H14Y 8027   0.121   0.415   5.922  0.5224  1.4275  2.6915
   84SLPC  C315 8028   0.287   0.346   6.036  0.0563 -0.0396  0.5909
   84SLPC  H15X 8029   0.323   0.441   6.081 -0.2164  0.7291 -0.7611
   84SLPC  H15Y 8030   0.376   0.280   6.020 -0.5572 -0.6845 -0.2463
   84SLPC  C316 8031   0.184   0.271   6.124 -0.0259  0.2705 -0.7092
   84SLPC  H16X 8032   0.149   0.182   6.068  0.6942 -0.0452 -0.6670
   84SLPC  H16Y 8033   0.087   0.324   6.139 -0.0189  0.9534 -2.7476
   84SLPC  C317 8034   0.234   0.242   6.264 -0.2503  1.0107  0.0875
   84SLPC  H17X 8035   0.234   0.344   6.307 -1.3555  2.4763 -3.0981
   84SLPC  H17Y 8036   0.338   0.203   6.267 -0.1352  1.2134 -0.7931
   84SLPC  C318 8037   0.130   0.156   6.339 -0.5288 -0.5810 -0.2388
   84SLPC  H18X 8038   0.028   0.200   6.344  0.7475  2.5796  0.3696
   84SLPC  H18Y 8039   0.163   0.143   6.444 -0.1672 -1.6874 -0.4774
   84SLPC  H18Z 8040   0.119   0.052   6.300  0.0643 -0.3584 -1.0174
   85SLPC     N 8041   6.716   1.587   3.823  0.0582  0.1162 -0.0255
   85SLPC   C13 8042   6.631   1.652   3.717  1.3162 -0.3668  0.3328
   85SLPC  H13A 8043   6.542   1.597   3.690 -0.8637  2.8215  0.3416
   85SLPC  H13B 8044   6.604   1.751   3.751  2.0198 -0.8754  2.5305
   85SLPC  H13C 8045   6.673   1.666   3.618 -1.2491 -0.6852 -0.8933
   85SLPC   C14 8046   6.835   1.671   3.840  0.5206  0.2952  0.6380
   85SLPC  H14A 8047   6.893   1.671   3.749 -0.9078 -2.6511 -0.3685
   85SLPC  H14B 8048   6.789   1.767   3.856  0.6040  0.1447  1.9684
   85SLPC  H14C 8049   6.895   1.640   3.925  0.5105  1.9225  1.2775
   85SLPC   C15 8050   6.758   1.449   3.775 -0.6079 -0.3592  0.0551
   85SLPC  H15A 8051   6.668   1.391   3.758 -3.4184  2.9784  2.2302
   85SLPC  H15B 8052   6.807   1.462   3.679  0.0230  1.5765  0.5917
   85SLPC  H15C 8053   6.824   1.398   3.844 -0.6655 -0.4168  0.0678
   85SLPC   C12 8054   6.639   1.579   3.954 -0.2032  0.2122 -0.0952
   85SLPC  H12A 8055   6.701   1.551   4.038 -2.7695 -0.7757  1.6034
   85SLPC  H12B 8056   6.576   1.492   3.942  0.2493 -0.4300  1.7665
   85SLPC   C11 8057   6.546   1.694   3.981 -0.1659 -0.5015  0.0070
   85SLPC  H11A 8058   6.506   1.677   4.084  0.5920 -1.0096  0.2263
   85SLPC  H11B 8059   6.456   1.701   3.916  1.1140 -1.6384 -1.9415
   85SLPC     P 8060   6.557   1.959   3.942 -0.1960  0.0371  0.2416
   85SLPC   O13 8061   6.643   2.062   3.987  0.5994  0.2937  0.0266
   85SLPC   O14 8062   6.552   1.942   3.796  0.4674 -0.1726 -0.0559
   85SLPC   O12 8063   6.612   1.820   3.996 -0.5803  0.0744  0.1896
   85SLPC   O11 8064   6.405   1.957   4.000 -0.2485 -0.2370 -0.4932
   85SLPC    C1 8065   6.364   2.063   4.090 -0.0047  0.6231 -0.4654
   85SLPC    HA 8066   6.394   2.162   4.051  1.9733  0.8693  1.4639
   85SLPC    HB 8067   6.253   2.062   4.094 -0.0519 -2.7604  1.5085
   85SLPC    C2 8068   6.415   2.036   4.243  0.5950  0.1706  0.4052
   85SLPC    HS 8069   6.525   2.050   4.237  0.9256 -2.1944 -4.5999
   85SLPC   O21 8070   6.385   1.903   4.273  0.1990  0.2395  0.0191
   85SLPC   C21 8071   6.480   1.836   4.340 -0.4710 -0.1358  0.3043
   85SLPC   O22 8072   6.591   1.870   4.369 -0.3544 -0.5584 -0.2062
   85SLPC   C22 8073   6.426   1.694   4.368  0.4537 -0.2673 -0.1054
   85SLPC   H2R 8074   6.320   1.704   4.399  0.6820 -0.1532  0.6648
   85SLPC   H2S 8075   6.427   1.633   4.275 -1.1990 -0.5440  0.0394
   85SLPC    C3 8076   6.351   2.131   4.350  0.3075 -0.6821 -1.1411
   85SLPC    HX 8077   6.248   2.164   4.324 -0.9375 -2.0032  1.6693
   85SLPC    HY 8078   6.413   2.223   4.347  1.8735 -1.4510  2.2787
   85SLPC   O31 8079   6.350   2.093   4.486  0.2186 -0.0337  0.6689
   85SLPC   C31 8080   6.234   2.037   4.529  0.2502 -0.2273 -0.0759
   85SLPC   O32 8081   6.142   2.003   4.456 -0.5876  0.7761  0.0929
   85SLPC   C32 8082   6.227   2.029   4.678  0.5723 -0.0803 -0.5645
   85SLPC   H2X 8083   6.255   2.124   4.728 -0.7747  0.3887 -0.6794
   85SLPC   H2Y 8084   6.305   1.952   4.700  0.6478  0.4527  1.2747
   85SLPC   C23 8085   6.501   1.627   4.480  0.6667  0.1546  0.0611
   85SLPC   H3R 8086   6.609   1.616   4.459  0.3629 -0.9228 -1.0373
   85SLPC   H3S 8087   6.452   1.527   4.484  1.6967 -0.4143 -1.0245
   85SLPC   C24 8088   6.481   1.694   4.615 -0.7896 -0.8751 -0.7377
   85SLPC   H4R 8089   6.397   1.764   4.599 -0.2245  0.5098  1.8098
   85SLPC   H4S 8090   6.556   1.775   4.633  0.3997 -2.3276  1.3144
   85SLPC   C25 8091   6.445   1.610   4.739  0.6957 -0.8037  0.1473
   85SLPC   H5R 8092   6.354   1.553   4.710 -0.9342  2.9513 -3.0900
   85SLPC   H5S 8093   6.520   1.534   4.769 -0.4671 -3.0587 -2.2618
   85SLPC   C26 8094   6.421   1.694   4.862  0.0851 -0.3706 -0.4251
   85SLPC   H6R 8095   6.345   1.771   4.837 -0.8992 -0.7562  1.2271
   85SLPC   H6S 8096   6.505   1.762   4.886 -2.9692  2.9006  2.1799
   85SLPC   C27 8097   6.372   1.604   4.981  0.3624 -0.3806 -0.7331
   85SLPC   H7R 8098   6.458   1.540   5.013 -1.2319 -1.7809  0.9513
   85SLPC   H7S 8099   6.293   1.533   4.950 -0.8906  1.2634 -1.4770
   85SLPC   C28 8100   6.332   1.700   5.103  0.2797 -0.5585 -0.3011
   85SLPC   H8R 8101   6.256   1.775   5.073 -0.6194 -1.1895  0.3277
   85SLPC   H8S 8102   6.428   1.753   5.123  0.5203 -0.8886 -0.5683
   85SLPC   C29 8103   6.286   1.625   5.221 -0.3113  0.3587 -0.4583
   85SLPC   H9R 8104   6.182   1.589   5.208 -0.1860 -0.1612 -0.0657
   85SLPC  C210 8105   6.357   1.607   5.342  0.5099  0.0077  0.0511
   85SLPC  H10R 8106   6.307   1.548   5.420  1.5784 -1.4460 -0.2976
   85SLPC  C211 8107   6.504   1.646   5.368 -0.0258 -0.1262  0.6663
   85SLPC  H11R 8108   6.543   1.713   5.288  1.2733 -0.6262  0.8496
   85SLPC  H11S 8109   6.561   1.550   5.362  2.7406  1.3913  0.9687
   85SLPC  C212 8110   6.534   1.702   5.508 -0.0200 -0.4304  0.2801
   85SLPC  H12R 8111   6.502   1.806   5.518 -1.7600 -0.8706 -0.3118
   85SLPC  C213 8112   6.563   1.644   5.620  0.0232 -0.1788  0.2561
   85SLPC  H13R 8113   6.569   1.703   5.713 -2.2904 -0.2053  0.4825
   85SLPC  C214 8114   6.590   1.503   5.652  0.4687  0.7168 -0.4878
   85SLPC  H14R 8115   6.671   1.492   5.727 -0.9107  0.3130  0.9886
   85SLPC  H14S 8116   6.621   1.450   5.560 -0.6856 -1.4056  0.2807
   85SLPC  C215 8117   6.462   1.425   5.699  0.0760  0.6157 -0.0223
   85SLPC  H15R 8118   6.372   1.461   5.644 -0.1564  0.5966  0.3382
   85SLPC  H15S 8119   6.436   1.468   5.798 -0.5663 -0.6265  0.3619
   85SLPC  C216 8120   6.478   1.269   5.703  0.9733  0.1323 -0.7727
   85SLPC  H16R 8121   6.505   1.215   5.610  0.0679 -1.7588  0.0200
   85SLPC  H16S 8122   6.383   1.215   5.724  0.9047  0.7943  0.7670
   85SLPC  C217 8123   6.578   1.220   5.814 -0.3140 -0.0278 -0.6373
   85SLPC  H17R 8124   6.681   1.244   5.781  0.0579 -0.3302  0.2734
   85SLPC  H17S 8125   6.566   1.109   5.817  2.3505 -0.3633  0.1124
   85SLPC  C218 8126   6.556   1.273   5.957  0.5920  0.1746  0.6577
   85SLPC  H18R 8127   6.601   1.200   6.028  0.5273 -2.1180 -1.4896
   85SLPC  H18S 8128   6.452   1.300   5.985  0.6144  0.8354  0.1285
   85SLPC  H18T 8129   6.616   1.366   5.963 -0.0216  0.5058  2.1717
   85SLPC   C33 8130   6.091   1.981   4.730 -0.3088 -0.0625 -0.6717
   85SLPC   H3X 8131   6.099   1.937   4.831  0.3433  1.8991  0.1841
   85SLPC   H3Y 8132   6.029   1.924   4.657 -2.5451  2.6833 -1.0941
   85SLPC   C34 8133   6.005   2.112   4.754  0.3203 -1.0500 -0.0896
   85SLPC   H4X 8134   5.898   2.085   4.758 -1.4128  4.4006 -1.0202
   85SLPC   H4Y 8135   6.021   2.167   4.659  3.1892 -4.4802 -1.8636
   85SLPC   C35 8136   6.024   2.199   4.878  0.2449 -0.7200  0.6595
   85SLPC   H5X 8137   5.941   2.271   4.892 -0.7480 -1.8082  0.5152
   85SLPC   H5Y 8138   6.122   2.251   4.876  0.3375 -0.8842  0.9336
   85SLPC   C36 8139   6.027   2.122   5.012  0.3432 -0.1849  0.1579
   85SLPC   H6X 8140   6.110   2.051   4.990 -0.1751 -0.4142 -1.1556
   85SLPC   H6Y 8141   5.932   2.065   5.021 -0.5583  1.2667  0.0472
   85SLPC   C37 8142   6.071   2.206   5.137  0.0712  0.1641  0.3249
   85SLPC   H7X 8143   5.990   2.280   5.156 -0.2781 -0.1024 -0.0843
   85SLPC   H7Y 8144   6.165   2.261   5.116  1.8771 -2.1051  1.9592
   85SLPC   C38 8145   6.094   2.131   5.266  0.9507 -1.2383 -0.7359
   85SLPC   H8X 8146   6.144   2.032   5.266 -0.3598 -1.9454  0.7893
   85SLPC   H8Y 8147   5.997   2.110   5.317  2.2193 -0.3892  2.2329
   85SLPC   C39 8148   6.176   2.219   5.357  0.6720  0.3653  0.3822
   85SLPC   H9X 8149   6.135   2.323   5.353  0.6016  0.3910  1.3948
   85SLPC   H9Y 8150   6.284   2.208   5.334  0.9472 -0.5196  1.9485
   85SLPC  C310 8151   6.170   2.168   5.504  0.4077  0.2723 -0.2416
   85SLPC  H10X 8152   6.065   2.156   5.537  0.3625  0.7675 -0.2080
   85SLPC  H10Y 8153   6.216   2.253   5.558  2.7096 -1.4097  0.6377
   85SLPC  C311 8154   6.259   2.044   5.520  0.1275 -0.9434  0.0191
   85SLPC  H11X 8155   6.368   2.069   5.524  0.0677 -0.4992 -0.8880
   85SLPC  H11Y 8156   6.254   1.970   5.437  0.5934  1.0742 -1.8864
   85SLPC  C312 8157   6.222   1.957   5.645 -0.5267 -0.0701 -0.4565
   85SLPC  H12X 8158   6.287   1.867   5.637  1.2733  1.2747 -2.5592
   85SLPC  H12Y 8159   6.117   1.921   5.641  0.2147 -2.5341  0.8340
   85SLPC  C313 8160   6.251   2.024   5.779 -0.4223  0.1679  0.0833
   85SLPC  H13X 8161   6.191   2.117   5.792 -0.3269  0.3273 -0.6055
   85SLPC  H13Y 8162   6.358   2.055   5.780 -0.3699 -0.0120  0.3405
   85SLPC  C314 8163   6.238   1.940   5.906 -0.5518  0.5187 -0.0294
   85SLPC  H14X 8164   6.131   1.912   5.909  0.1802 -2.5190  2.4011
   85SLPC  H14Y 8165   6.261   2.004   5.994  1.1025  1.5405 -1.1445
   85SLPC  C315 8166   6.318   1.805   5.899  0.4541  0.0416 -0.7447
   85SLPC  H15X 8167   6.420   1.828   5.859  0.3185  0.7497 -0.6971
   85SLPC  H15Y 8168   6.284   1.740   5.815  3.1202 -2.4787 -0.0499
   85SLPC  C316 8169   6.327   1.726   6.031 -0.0592  0.5379 -0.0774
   85SLPC  H16X 8170   6.362   1.796   6.111  0.4739  1.8490 -1.4036
   85SLPC  H16Y 8171   6.399   1.646   6.004 -1.5046 -0.5876 -0.7664
   85SLPC  C317 8172   6.194   1.672   6.082 -0.0820 -0.7957  0.4195
   85SLPC  H17X 8173   6.156   1.607   6.000  0.8606 -0.7294 -0.0855
   85SLPC  H17Y 8174   6.122   1.756   6.086  0.9561  0.1685 -0.3956
   85SLPC  C318 8175   6.201   1.589   6.206 -0.2988 -0.1855  0.2283
   85SLPC  H18X 8176   6.232   1.662   6.284  0.4177 -0.9610  0.6866
   85SLPC  H18Y 8177   6.278   1.509   6.200 -1.7765 -1.5932 -0.6491
   85SLPC  H18Z 8178   6.105   1.541   6.235  1.0164 -3.3206 -0.1495
   86SLPC     N 8179   0.505   3.448   3.916 -0.3950 -0.2804 -0.2917
   86SLPC   C13 8180   0.650   3.463   3.908 -0.2408  0.3655 -0.2365
   86SLPC  H13A 8181   0.711   3.392   3.963 -0.2695 -0.9162 -1.7564
   86SLPC  H13B 8182   0.683   3.430   3.810  0.1340 -1.8645  0.5632
   86SLPC  H13C 8183   0.688   3.564   3.910  0.2764  0.1692  0.4760
   86SLPC   C14 8184   0.480   3.308   3.881  0.3010  0.7430  0.0341
   86SLPC  H14A 8185   0.375   3.284   3.889  0.5759 -1.5524 -2.0589
   86SLPC  H14B 8186   0.508   3.280   3.781 -2.3131  1.4286 -0.9681
   86SLPC  H14C 8187   0.527   3.243   3.953  0.6582  0.5454 -0.3773
   86SLPC   C15 8188   0.440   3.529   3.812  0.3467  0.3256  0.0213
   86SLPC  H15A 8189   0.483   3.516   3.714 -1.7950 -2.1347 -0.7163
   86SLPC  H15B 8190   0.337   3.499   3.798 -0.0391  1.7391 -0.3871
   86SLPC  H15C 8191   0.442   3.634   3.836  1.7937  0.1569  0.6885
   86SLPC   C12 8192   0.466   3.492   4.054 -0.0426  0.1172 -0.4011
   86SLPC  H12A 8193   0.492   3.414   4.124  1.5982 -0.5348 -1.6668
   86SLPC  H12B 8194   0.358   3.491   4.051 -0.0417  0.9873 -2.7647
   86SLPC   C11 8195   0.513   3.630   4.097  0.6697 -0.0577  0.1504
   86SLPC  H11A 8196   0.624   3.628   4.102  0.6125 -1.5075  2.3790
   86SLPC  H11B 8197   0.475   3.650   4.200  0.3289  1.1481 -0.1889
   86SLPC     P 8198   0.342   3.815   4.026 -0.2524 -0.1795 -0.2935
   86SLPC   O13 8199   0.334   3.910   3.912 -0.4108 -0.3990  0.0366
   86SLPC   O14 8200   0.226   3.729   4.056  0.0391  0.0464  0.6363
   86SLPC   O12 8201   0.471   3.733   4.006  0.3522 -0.6323 -0.1973
   86SLPC   O11 8202   0.366   3.900   4.159  0.3547  0.2670 -0.4590
   86SLPC    C1 8203   0.460   4.008   4.158  0.9552  1.0471  0.8086
   86SLPC    HA 8204   0.467   4.047   4.054 -1.8684 -0.7536 -0.1843
   86SLPC    HB 8205   0.413   4.096   4.207 -2.7769 -0.5488  0.3830
   86SLPC    C2 8206   0.602   3.973   4.210 -0.5568  0.0642 -0.5328
   86SLPC    HS 8207   0.644   3.905   4.132  2.1098  2.0454 -0.9761
   86SLPC   O21 8208   0.591   3.908   4.339  0.0461  0.4870  0.4949
   86SLPC   C21 8209   0.687   3.819   4.364 -0.2181  0.1766 -0.0318
   86SLPC   O22 8210   0.787   3.803   4.300  0.5328 -0.0058 -0.0039
   86SLPC   C22 8211   0.650   3.730   4.486  0.1314 -0.0827  0.0666
   86SLPC   H2R 8212   0.633   3.803   4.568 -3.6683 -0.0044 -0.6153
   86SLPC   H2S 8213   0.543   3.704   4.469 -0.3249  2.4717 -1.3466
   86SLPC    C3 8214   0.690   4.095   4.204 -0.6100 -0.2018  0.8386
   86SLPC    HX 8215   0.670   4.137   4.103  1.4328 -0.1205  0.4267
   86SLPC    HY 8216   0.796   4.063   4.200 -0.5532 -0.3313 -4.9772
   86SLPC   O31 8217   0.675   4.193   4.314  0.1106 -0.1361 -0.4649
   86SLPC   C31 8218   0.594   4.304   4.293 -0.2494  1.1602  0.0606
   86SLPC   O32 8219   0.528   4.324   4.198  0.0732  0.0218 -0.0812
   86SLPC   C32 8220   0.599   4.399   4.410 -0.2075 -0.0806 -0.1329
   86SLPC   H2X 8221   0.510   4.465   4.401  1.0615  1.9616  1.3662
   86SLPC   H2Y 8222   0.688   4.466   4.403 -1.0620  1.0280 -0.6381
   86SLPC   C23 8223   0.753   3.620   4.517  0.3057 -0.0161  0.3444
   86SLPC   H3R 8224   0.804   3.573   4.431  1.0183  0.9437  0.2322
   86SLPC   H3S 8225   0.691   3.540   4.564 -1.5864  2.2545  1.9947
   86SLPC   C24 8226   0.869   3.643   4.611  0.2107  0.6181  0.8955
   86SLPC   H4R 8227   0.942   3.711   4.561  0.8990 -0.1788  0.8061
   86SLPC   H4S 8228   0.919   3.547   4.634  0.4729  0.2569 -1.0544
   86SLPC   C25 8229   0.820   3.703   4.747  0.4884  0.2478 -0.2812
   86SLPC   H5R 8230   0.742   3.639   4.794 -1.5695  1.4178 -1.9549
   86SLPC   H5S 8231   0.781   3.804   4.724  0.8273  0.7842  1.3664
   86SLPC   C26 8232   0.926   3.726   4.857 -0.4266  0.1710  0.1483
   86SLPC   H6R 8233   0.991   3.811   4.828 -1.7296  1.1023 -0.1370
   86SLPC   H6S 8234   0.985   3.634   4.878  0.1040  0.6712  0.8927
   86SLPC   C27 8235   0.878   3.778   4.989 -0.8151  0.1573 -0.5401
   86SLPC   H7R 8236   0.801   3.699   5.004 -0.1422 -0.3024  0.5826
   86SLPC   H7S 8237   0.833   3.879   4.984  0.6218  0.9031  0.8603
   86SLPC   C28 8238   0.989   3.765   5.105  0.1809 -0.3530 -0.2052
   86SLPC   H8R 8239   1.049   3.856   5.083 -0.2130  0.8367  3.1375
   86SLPC   H8S 8240   1.056   3.677   5.101  1.6450  0.5007  2.8178
   86SLPC   C29 8241   0.922   3.774   5.240 -0.3668 -0.2613  0.5670
   86SLPC   H9R 8242   0.889   3.676   5.277  0.8468 -0.9040  0.0236
   86SLPC  C210 8243   0.923   3.883   5.322  0.5245  0.1406  0.3706
   86SLPC  H10R 8244   0.855   3.871   5.407 -2.6366  0.9121 -1.8972
   86SLPC  C211 8245   1.001   4.015   5.299 -0.3475 -0.5724  1.0803
   86SLPC  H11R 8246   0.957   4.082   5.222  0.7578 -1.4024 -0.3144
   86SLPC  H11S 8247   1.095   3.992   5.244 -1.8637 -1.7526 -1.1876
   86SLPC  C212 8248   1.039   4.098   5.419 -0.2133 -0.6065 -0.2366
   86SLPC  H12R 8249   0.981   4.191   5.415 -2.1221 -1.6384  1.3203
   86SLPC  C213 8250   1.108   4.080   5.528  0.6468 -0.0287  0.0120
   86SLPC  H13R 8251   1.109   4.159   5.604  0.4057  0.1257 -0.1457
   86SLPC  C214 8252   1.180   3.957   5.579  0.4912 -0.1988  0.6435
   86SLPC  H14R 8253   1.284   3.991   5.600  0.8473 -1.5725  1.2064
   86SLPC  H14S 8254   1.188   3.872   5.508 -1.1047  0.4839 -0.4056
   86SLPC  C215 8255   1.128   3.903   5.710 -0.5269 -0.3609  0.3384
   86SLPC  H15R 8256   1.115   3.981   5.788 -2.2947 -1.6245  1.3950
   86SLPC  H15S 8257   1.209   3.837   5.746 -0.6066 -0.5316  0.2108
   86SLPC  C216 8258   0.997   3.826   5.704 -0.1872 -0.4054 -0.0660
   86SLPC  H16R 8259   0.911   3.876   5.655 -0.5139  1.3064  2.0942
   86SLPC  H16S 8260   0.964   3.815   5.809  0.5950 -2.6127  0.0205
   86SLPC  C217 8261   0.995   3.685   5.648  0.1749 -0.2138 -0.1108
   86SLPC  H17R 8262   1.072   3.623   5.698  0.8607  0.7324  0.0402
   86SLPC  H17S 8263   1.007   3.676   5.538 -0.9930 -0.4144 -0.2297
   86SLPC  C218 8264   0.859   3.616   5.677 -0.5093 -0.4008 -0.3599
   86SLPC  H18R 8265   0.869   3.510   5.647  1.5741 -0.8718  1.6659
   86SLPC  H18S 8266   0.783   3.681   5.628 -0.2985  0.0837 -0.0613
   86SLPC  H18T 8267   0.835   3.619   5.786 -1.0718  1.1772 -0.4950
   86SLPC   C33 8268   0.603   4.325   4.545 -0.1608  0.0316 -0.1824
   86SLPC   H3X 8269   0.523   4.247   4.550  2.1258 -2.4488  0.1861
   86SLPC   H3Y 8270   0.586   4.398   4.627  1.3517  0.1595  0.0451
   86SLPC   C34 8271   0.738   4.252   4.577  0.2445  0.7460 -0.0228
   86SLPC   H4X 8272   0.804   4.315   4.640  1.7831  0.3761 -1.1935
   86SLPC   H4Y 8273   0.794   4.238   4.482 -1.8765  1.8043 -1.5273
   86SLPC   C35 8274   0.729   4.105   4.635  0.0927 -0.0661 -0.5874
   86SLPC   H5X 8275   0.828   4.054   4.645 -0.2758 -0.6650  0.0444
   86SLPC   H5Y 8276   0.673   4.047   4.559 -0.6205  0.5284 -0.5298
   86SLPC   C36 8277   0.649   4.102   4.763 -0.7672 -0.0688 -0.4756
   86SLPC   H6X 8278   0.657   4.006   4.818  0.5002  0.3804  0.1704
   86SLPC   H6Y 8279   0.541   4.124   4.748 -1.0793  0.0285  1.5792
   86SLPC   C37 8280   0.700   4.207   4.865  0.1428 -0.1703 -0.7640
   86SLPC   H7X 8281   0.664   4.312   4.857 -1.8464 -0.7058  0.3970
   86SLPC   H7Y 8282   0.810   4.207   4.851  0.4594  0.7292  1.2993
   86SLPC   C38 8283   0.673   4.175   5.012 -0.4439  0.0161  0.7081
   86SLPC   H8X 8284   0.735   4.083   5.022 -0.7041 -0.0236  2.0794
   86SLPC   H8Y 8285   0.566   4.156   5.031 -0.7084 -0.3922 -1.0457
   86SLPC   C39 8286   0.715   4.288   5.110  0.1632 -0.2873 -0.3330
   86SLPC   H9X 8287   0.661   4.381   5.084 -1.0660 -1.1114 -0.8391
   86SLPC   H9Y 8288   0.823   4.313   5.104  0.2384 -0.8357 -1.7440
   86SLPC  C310 8289   0.682   4.247   5.255 -0.6212  0.7822 -0.1947
   86SLPC  H10X 8290   0.757   4.172   5.288 -2.7388 -0.7438  1.4104
   86SLPC  H10Y 8291   0.581   4.201   5.255 -0.0728 -0.4708  1.0429
   86SLPC  C311 8292   0.698   4.362   5.348 -0.2555  0.4903  0.2368
   86SLPC  H11X 8293   0.615   4.436   5.344 -0.7796  0.0768  2.2325
   86SLPC  H11Y 8294   0.790   4.422   5.333 -1.4413  2.2030 -0.5026
   86SLPC  C312 8295   0.695   4.317   5.492  0.0882  0.8390  0.0731
   86SLPC  H12X 8296   0.777   4.248   5.520 -1.5980 -2.2045 -1.9816
   86SLPC  H12Y 8297   0.598   4.268   5.513  0.6364 -0.6390 -0.7341
   86SLPC  C313 8298   0.707   4.440   5.582  0.1284 -0.1757  0.2454
   86SLPC  H13X 8299   0.620   4.500   5.549 -0.6536 -0.9936  0.7524
   86SLPC  H13Y 8300   0.803   4.489   5.554  0.3851 -0.9578 -0.2743
   86SLPC  C314 8301   0.699   4.401   5.732 -0.5713  0.3964 -0.1884
   86SLPC  H14X 8302   0.612   4.339   5.762  0.3032 -1.4448 -1.2992
   86SLPC  H14Y 8303   0.706   4.493   5.794  0.6476  0.3436 -0.2303
   86SLPC  C315 8304   0.807   4.310   5.787  0.0529  0.3564 -0.5752
   86SLPC  H15X 8305   0.798   4.200   5.774  0.4398 -0.0144  1.8078
   86SLPC  H15Y 8306   0.812   4.320   5.898 -0.3338  0.6756 -0.5854
   86SLPC  C316 8307   0.952   4.348   5.760  0.0300 -0.3606  0.3927
   86SLPC  H16X 8308   0.970   4.345   5.650  1.4938 -3.8120  0.5899
   86SLPC  H16Y 8309   1.023   4.276   5.807  2.4436  0.5625 -1.6108
   86SLPC  C317 8310   0.996   4.478   5.829 -0.2200 -0.6476  0.9960
   86SLPC  H17X 8311   0.982   4.476   5.940  1.1980  0.2792  1.2158
   86SLPC  H17Y 8312   0.942   4.564   5.785  0.2822 -0.4401  0.7845
   86SLPC  C318 8313   1.146   4.497   5.796 -0.2519 -0.2689 -0.4812
   86SLPC  H18X 8314   1.186   4.589   5.845 -1.5122 -1.4613  3.0919
   86SLPC  H18Y 8315   1.164   4.520   5.689 -0.9444  3.1056 -0.0093
   86SLPC  H18Z 8316   1.207   4.408   5.822 -0.6779 -0.9518 -1.7171
   87SLPC     N 8317   0.229   4.339   3.736 -0.4407  0.1023  0.0833
   87SLPC   C13 8318   0.193   4.226   3.645  0.5926 -0.4999 -0.2454
   87SLPC  H13A 8319   0.263   4.145   3.652  0.9506 -0.1443  0.3465
   87SLPC  H13B 8320   0.098   4.189   3.683  0.5095  1.5805  1.8084
   87SLPC  H13C 8321   0.168   4.251   3.543 -0.3722 -1.7096 -0.3256
   87SLPC   C14 8322   0.374   4.369   3.721  0.5707  0.1019 -0.4059
   87SLPC  H14A 8323   0.413   4.437   3.795  0.3875  0.7221 -0.8658
   87SLPC  H14B 8324   0.434   4.279   3.719 -0.4739 -0.6170 -2.0737
   87SLPC  H14C 8325   0.387   4.413   3.623 -2.7886 -3.0456 -2.5586
   87SLPC   C15 8326   0.213   4.283   3.874 -0.1021 -0.5352  0.0954
   87SLPC  H15A 8327   0.112   4.265   3.909 -0.3681  0.9116  0.1647
   87SLPC  H15B 8328   0.292   4.212   3.894  2.0288  1.7382  0.2215
   87SLPC  H15C 8329   0.241   4.365   3.940 -0.6477 -1.5813  1.6891
   87SLPC   C12 8330   0.140   4.455   3.715  0.1752 -0.5528 -0.0427
   87SLPC  H12A 8331   0.145   4.519   3.802 -0.0018  2.0042 -1.7997
   87SLPC  H12B 8332   0.036   4.426   3.707 -0.2154  1.0751 -1.5839
   87SLPC   C11 8333   0.162   4.556   3.594  0.0922  0.0758  0.5377
   87SLPC  H11A 8334   0.078   4.627   3.609  0.2792 -0.1508  3.1349
   87SLPC  H11B 8335   0.144   4.496   3.502  0.9522  1.5539 -0.6527
   87SLPC     P 8336   0.314   4.756   3.687  0.4814  0.0329 -0.0539
   87SLPC   O13 8337   0.454   4.788   3.720 -0.0715 -0.6651  0.9687
   87SLPC   O14 8338   0.240   4.856   3.612 -0.0488  0.0911 -0.1017
   87SLPC   O12 8339   0.297   4.612   3.607 -0.4414 -0.9059 -0.1846
   87SLPC   O11 8340   0.232   4.725   3.822  0.0730 -0.1191  0.5835
   87SLPC    C1 8341   0.109   4.801   3.860  0.0807  0.4128 -0.0929
   87SLPC    HA 8342   0.054   4.841   3.772  0.2468  0.4954 -0.1606
   87SLPC    HB 8343   0.039   4.733   3.913  2.8129 -3.3786 -0.9337
   87SLPC    C2 8344   0.158   4.918   3.948  0.5766  0.5213 -0.1113
   87SLPC    HS 8345   0.253   4.960   3.908 -0.3305  3.4245  0.6108
   87SLPC   O21 8346   0.172   4.864   4.081 -0.0511 -0.2669 -0.1825
   87SLPC   C21 8347   0.221   4.947   4.176  0.4234 -0.1061  0.0694
   87SLPC   O22 8348   0.254   5.060   4.159 -0.4654 -0.2430 -0.8624
   87SLPC   C22 8349   0.188   4.877   4.314  0.0553 -0.3283 -0.8251
   87SLPC   H2R 8350   0.093   4.821   4.318 -0.4228  0.4981  2.1838
   87SLPC   H2S 8351   0.261   4.794   4.316 -0.2682 -0.6041  0.5014
   87SLPC    C3 8352   0.059   5.037   3.950  0.2999 -0.8274 -1.3791
   87SLPC    HX 8353   0.017   5.042   3.847  0.9072  1.5834 -1.5692
   87SLPC    HY 8354   0.112   5.135   3.958  1.3400 -1.4196 -0.8114
   87SLPC   O31 8355  -0.039   5.032   4.053 -0.2052  0.1099 -0.1915
   87SLPC   C31 8356  -0.148   4.959   4.020  0.5904 -1.2300 -0.5247
   87SLPC   O32 8357  -0.181   4.934   3.902 -0.7437 -0.9206 -0.7380
   87SLPC   C32 8358  -0.221   4.921   4.147 -0.1527  0.4364 -0.2524
   87SLPC   H2X 8359  -0.141   4.884   4.214 -0.5036  0.4891  0.2062
   87SLPC   H2Y 8360  -0.288   4.836   4.121 -0.0727  0.6363 -1.1427
   87SLPC   C23 8361   0.223   4.965   4.435 -0.0108 -0.1541 -0.6706
   87SLPC   H3R 8362   0.147   5.043   4.452 -0.3885 -0.4902 -0.7995
   87SLPC   H3S 8363   0.316   5.026   4.427  0.1397  0.0357  1.7635
   87SLPC   C24 8364   0.224   4.881   4.569 -0.4135  0.5018  0.6102
   87SLPC   H4R 8365   0.307   4.808   4.579 -1.0466 -0.4547 -0.7611
   87SLPC   H4S 8366   0.125   4.832   4.573  0.2513 -1.7715 -3.6974
   87SLPC   C25 8367   0.231   4.977   4.691 -0.1259  0.0097 -0.0861
   87SLPC   H5R 8368   0.154   5.056   4.680  1.1026  1.2199 -0.1765
   87SLPC   H5S 8369   0.327   5.031   4.705 -0.0575 -0.1867  0.2207
   87SLPC   C26 8370   0.211   4.894   4.823 -0.2621 -0.0375  0.2479
   87SLPC   H6R 8371   0.296   4.823   4.823 -0.8147 -0.8289  3.4311
   87SLPC   H6S 8372   0.122   4.834   4.796  2.4820 -2.9358 -3.4033
   87SLPC   C27 8373   0.209   4.981   4.949  0.4489  0.0947 -0.3728
   87SLPC   H7R 8374   0.172   4.910   5.027 -2.3865 -0.0964 -1.7739
   87SLPC   H7S 8375   0.142   5.067   4.928  1.8439  1.4190  0.4801
   87SLPC   C28 8376   0.350   5.037   4.978  0.3287 -0.1182 -0.3119
   87SLPC   H8R 8377   0.381   5.091   4.886  2.1146 -1.1727 -0.3570
   87SLPC   H8S 8378   0.424   4.956   4.989  0.5639 -0.0871 -1.5432
   87SLPC   C29 8379   0.343   5.123   5.094  0.3227 -0.8550 -0.1505
   87SLPC   H9R 8380   0.333   5.229   5.068  0.1784 -1.2567 -1.8243
   87SLPC  C210 8381   0.359   5.093   5.221 -0.3705 -0.1591 -0.3407
   87SLPC  H10R 8382   0.343   5.174   5.293 -1.5658  0.3809 -1.1923
   87SLPC  C211 8383   0.369   4.959   5.292 -0.1898  0.8450  0.5171
   87SLPC  H11R 8384   0.322   4.877   5.233 -1.3204  2.0209 -0.2630
   87SLPC  H11S 8385   0.314   4.959   5.388 -0.5400  1.8388  0.3229
   87SLPC  C212 8386   0.521   4.924   5.292  0.2084  0.0026  0.1300
   87SLPC  H12R 8387   0.573   4.945   5.198 -0.2456  0.9557  0.0763
   87SLPC  C213 8388   0.596   4.880   5.393 -0.3238  0.4221 -1.0999
   87SLPC  H13R 8389   0.696   4.843   5.367  0.7132  2.0994  0.2213
   87SLPC  C214 8390   0.551   4.842   5.530  0.0551 -0.1311 -0.0406
   87SLPC  H14R 8391   0.554   4.732   5.549 -1.1819 -0.1670  0.0646
   87SLPC  H14S 8392   0.445   4.873   5.539 -0.7380 -1.9263 -2.2327
   87SLPC  C215 8393   0.647   4.897   5.639 -0.6168  0.0040 -0.1866
   87SLPC  H15R 8394   0.611   4.843   5.729  0.1481  1.1202  0.8285
   87SLPC  H15S 8395   0.628   5.006   5.640 -1.2741 -0.1099 -0.0366
   87SLPC  C216 8396   0.798   4.858   5.616  0.2462 -0.6771  0.2985
   87SLPC  H16R 8397   0.841   4.931   5.544  2.8358 -0.9994  1.3903
   87SLPC  H16S 8398   0.813   4.757   5.572 -0.1405 -0.2929 -0.7579
   87SLPC  C217 8399   0.889   4.869   5.742 -1.0076  1.0706 -0.3313
   87SLPC  H17R 8400   0.859   4.788   5.812  0.2860 -0.6765 -1.6956
   87SLPC  H17S 8401   0.867   4.968   5.786 -0.9433  1.7714 -1.8098
   87SLPC  C218 8402   1.044   4.858   5.716  0.4863 -0.0449  0.3015
   87SLPC  H18R 8403   1.100   4.830   5.808  1.2052  1.3507  0.3129
   87SLPC  H18S 8404   1.078   4.958   5.681  1.7920 -0.1918  1.0860
   87SLPC  H18T 8405   1.053   4.781   5.637 -1.3302  1.9913 -2.0897
   87SLPC   C33 8406  -0.291   5.032   4.229 -0.3575  0.4800 -0.8074
   87SLPC   H3X 8407  -0.358   5.077   4.152 -0.4267  0.9110 -0.4991
   87SLPC   H3Y 8408  -0.218   5.108   4.263 -0.5186  1.6189 -2.8470
   87SLPC   C34 8409  -0.388   4.976   4.334  0.8869  0.2987  0.2099
   87SLPC   H4X 8410  -0.451   4.893   4.295  1.0019 -1.2160  2.9737
   87SLPC   H4Y 8411  -0.454   5.058   4.368  0.5570  1.2825 -2.5893
   87SLPC   C35 8412  -0.326   4.909   4.458 -1.0016  0.1201 -0.7846
   87SLPC   H5X 8413  -0.295   4.806   4.430 -1.6681 -0.3459  0.1229
   87SLPC   H5Y 8414  -0.407   4.885   4.531  0.5903 -3.8361 -0.0582
   87SLPC   C36 8415  -0.219   4.996   4.528  0.7761 -0.1815 -0.4938
   87SLPC   H6X 8416  -0.273   5.089   4.554 -0.9573 -1.5519  1.1142
   87SLPC   H6Y 8417  -0.134   5.018   4.460  0.6504  0.1511 -0.5419
   87SLPC   C37 8418  -0.164   4.925   4.654  0.6979 -0.3208 -0.1469
   87SLPC   H7X 8419  -0.073   4.976   4.692 -0.0634 -0.6048  2.2332
   87SLPC   H7Y 8420  -0.131   4.820   4.639 -0.1280 -0.8831  1.6544
   87SLPC   C38 8421  -0.262   4.925   4.773 -0.7081  0.1470  0.3424
   87SLPC   H8X 8422  -0.356   4.875   4.741  0.4946 -1.4169 -0.8896
   87SLPC   H8Y 8423  -0.287   5.031   4.797  1.6938  0.6606  0.7989
   87SLPC   C39 8424  -0.211   4.875   4.915 -0.1910 -0.2168  0.4882
   87SLPC   H9X 8425  -0.101   4.887   4.924  0.0064 -1.7041  0.2597
   87SLPC   H9Y 8426  -0.240   4.768   4.920 -0.0307 -0.2389  0.9789
   87SLPC  C310 8427  -0.269   4.947   5.035 -0.0823  0.1608  0.0099
   87SLPC  H10X 8428  -0.377   4.971   5.022 -0.8818 -2.0706  1.6759
   87SLPC  H10Y 8429  -0.225   5.041   5.073 -1.7048  0.5939  0.9177
   87SLPC  C311 8430  -0.251   4.864   5.177  0.7136  0.3125 -0.6539
   87SLPC  H11X 8431  -0.273   4.759   5.150  0.6642  0.3425 -0.7318
   87SLPC  H11Y 8432  -0.334   4.891   5.247  0.8831 -1.8548  0.4556
   87SLPC  C312 8433  -0.109   4.877   5.237  0.1277  0.5959 -0.1006
   87SLPC  H12X 8434  -0.084   4.983   5.259  1.8283 -0.2064  2.1173
   87SLPC  H12Y 8435  -0.046   4.837   5.155  1.6209  2.8199 -0.1140
   87SLPC  C313 8436  -0.097   4.781   5.357 -0.0249  0.0556 -1.0649
   87SLPC  H13X 8437   0.008   4.750   5.371  0.3581  1.6485 -0.0264
   87SLPC  H13Y 8438  -0.157   4.692   5.332 -2.0408  1.2771 -0.8666
   87SLPC  C314 8439  -0.148   4.854   5.489 -0.1626 -0.3436  0.1695
   87SLPC  H14X 8440  -0.247   4.894   5.460  0.2828  1.1003  0.5674
   87SLPC  H14Y 8441  -0.086   4.943   5.512 -2.5231  1.6113 -0.5805
   87SLPC  C315 8442  -0.175   4.755   5.601  0.1390  0.5477 -0.5462
   87SLPC  H15X 8443  -0.079   4.704   5.620  0.4651  1.6456  0.9393
   87SLPC  H15Y 8444  -0.240   4.673   5.565  0.6239  0.1299 -0.4719
   87SLPC  C316 8445  -0.226   4.830   5.721 -0.3396 -0.3032 -0.5423
   87SLPC  H16X 8446  -0.320   4.869   5.677 -0.3826 -1.0152 -1.0858
   87SLPC  H16Y 8447  -0.153   4.902   5.766  3.6857 -3.3309 -1.6653
   87SLPC  C317 8448  -0.255   4.737   5.838  0.3491 -0.1655 -0.1069
   87SLPC  H17X 8449  -0.166   4.671   5.848  0.8845  0.4554 -0.6636
   87SLPC  H17Y 8450  -0.349   4.678   5.847  0.2543  0.0005 -0.0108
   87SLPC  C318 8451  -0.250   4.813   5.971 -0.2739 -0.2533 -0.1418
   87SLPC  H18X 8452  -0.297   4.758   6.056 -0.8985 -1.4229 -1.2085
   87SLPC  H18Y 8453  -0.301   4.911   5.963  1.8311  0.7762 -1.6427
   87SLPC  H18Z 8454  -0.149   4.852   5.994  0.0452 -0.7376 -0.6977
   88SLPC     N 8455   4.525   3.194   3.693  0.4093 -0.5699 -0.2158
   88SLPC   C13 8456   4.555   3.226   3.549 -0.0123 -0.3740  0.6322
   88SLPC  H13A 8457   4.602   3.144   3.497  0.2855  0.7691 -0.9837
   88SLPC  H13B 8458   4.470   3.261   3.493  0.5516  1.0919  0.6309
   88SLPC  H13C 8459   4.625   3.308   3.544  0.8516 -1.1696 -1.3590
   88SLPC   C14 8460   4.641   3.108   3.741 -0.0826  0.1660 -0.8332
   88SLPC  H14A 8461   4.735   3.161   3.744 -0.2097  0.3418  0.4909
   88SLPC  H14B 8462   4.625   3.057   3.835 -0.2758  1.7813  0.0389
   88SLPC  H14C 8463   4.658   3.028   3.669  0.6195 -0.0863 -0.3998
   88SLPC   C15 8464   4.417   3.096   3.703  0.8330  0.3533 -0.6879
   88SLPC  H15A 8465   4.445   2.999   3.667  3.3924  0.4146  0.8991
   88SLPC  H15B 8466   4.381   3.084   3.805  1.7557  0.0681 -0.3875
   88SLPC  H15C 8467   4.331   3.139   3.654  0.4457 -0.4199 -0.7004
   88SLPC   C12 8468   4.498   3.322   3.771  1.0251  0.3644  0.3296
   88SLPC  H12A 8469   4.589   3.380   3.777 -0.9940  3.8050  0.4802
   88SLPC  H12B 8470   4.469   3.295   3.872 -1.4800  0.1664 -0.3693
   88SLPC   C11 8471   4.383   3.416   3.709  0.0045  0.1338  0.0035
   88SLPC  H11A 8472   4.429   3.449   3.613  0.9315  2.0163  1.0491
   88SLPC  H11B 8473   4.377   3.509   3.769 -3.1086 -1.0451  1.7205
   88SLPC     P 8474   4.181   3.319   3.837 -0.4257  0.1497 -0.1416
   88SLPC   O13 8475   4.078   3.218   3.812 -0.2583  0.2876  0.1744
   88SLPC   O14 8476   4.285   3.291   3.938  0.2795  0.2088 -0.5405
   88SLPC   O12 8477   4.251   3.352   3.699  0.7016 -0.3300  0.5223
   88SLPC   O11 8478   4.108   3.457   3.865  0.1110  0.1039 -0.4039
   88SLPC    C1 8479   4.147   3.554   3.956 -0.2247  0.0571  0.7145
   88SLPC    HA 8480   4.257   3.565   3.940 -0.3492 -1.0577 -1.2197
   88SLPC    HB 8481   4.101   3.652   3.931  1.3394  0.2330 -1.8930
   88SLPC    C2 8482   4.109   3.507   4.103 -0.6665 -0.3488  0.4354
   88SLPC    HS 8483   4.157   3.411   4.130 -0.3092 -0.8494 -1.7436
   88SLPC   O21 8484   3.961   3.511   4.114  0.5098 -0.0460  0.8720
   88SLPC   C21 8485   3.900   3.407   4.162  0.6945  0.1682 -0.1234
   88SLPC   O22 8486   3.945   3.323   4.238 -0.0728 -0.3056 -0.1658
   88SLPC   C22 8487   3.755   3.407   4.109 -0.0626 -0.3158  0.1115
   88SLPC   H2R 8488   3.737   3.493   4.042 -3.7406  0.6808  2.1403
   88SLPC   H2S 8489   3.747   3.303   4.069  0.3508 -0.9531  1.5950
   88SLPC    C3 8490   4.159   3.611   4.202  0.2066 -0.1667 -0.4563
   88SLPC    HX 8491   4.101   3.700   4.171  0.7277 -0.5126 -2.6279
   88SLPC    HY 8492   4.266   3.641   4.201 -0.8103  4.2092  1.5952
   88SLPC   O31 8493   4.116   3.585   4.340 -0.5511 -0.4175  0.3361
   88SLPC   C31 8494   4.179   3.486   4.402  1.3053  0.4832  0.4929
   88SLPC   O32 8495   4.280   3.433   4.361  0.1804  0.2424  0.4748
   88SLPC   C32 8496   4.113   3.462   4.537  0.0703  0.1682 -0.0004
   88SLPC   H2X 8497   4.007   3.495   4.529  0.5363  1.7864  0.1031
   88SLPC   H2Y 8498   4.170   3.520   4.613 -2.0441  0.6451  1.3084
   88SLPC   C23 8499   3.650   3.423   4.221 -0.1969 -0.3861  0.4321
   88SLPC   H3R 8500   3.681   3.357   4.305  1.1840  0.7864  0.8938
   88SLPC   H3S 8501   3.547   3.401   4.186  0.0996  1.8544 -2.1400
   88SLPC   C24 8502   3.647   3.564   4.270 -0.4526  0.0669 -0.2027
   88SLPC   H4R 8503   3.609   3.623   4.184  2.6449  0.4366 -1.4517
   88SLPC   H4S 8504   3.751   3.596   4.294  0.3301 -1.6173 -1.2007
   88SLPC   C25 8505   3.549   3.589   4.390  0.6556  0.9156  0.3639
   88SLPC   H5R 8506   3.448   3.555   4.359  0.2609  0.3378  2.1693
   88SLPC   H5S 8507   3.539   3.699   4.404  0.9827  1.2344 -1.6214
   88SLPC   C26 8508   3.577   3.513   4.517 -0.0668  0.3714 -0.1277
   88SLPC   H6R 8509   3.574   3.402   4.504  2.1648  0.4422 -1.8145
   88SLPC   H6S 8510   3.501   3.549   4.590  2.1843  2.7038  1.2267
   88SLPC   C27 8511   3.715   3.548   4.584 -0.0679  0.0633 -0.1082
   88SLPC   H7R 8512   3.801   3.551   4.513  0.8699 -0.9894  0.9420
   88SLPC   H7S 8513   3.730   3.464   4.655 -0.3677 -2.4081 -2.7959
   88SLPC   C28 8514   3.723   3.679   4.667  0.3742 -0.0727  0.0304
   88SLPC   H8R 8515   3.703   3.768   4.604  0.4948 -0.3171 -0.3507
   88SLPC   H8S 8516   3.827   3.705   4.697  0.5298 -0.5476 -0.0932
   88SLPC   C29 8517   3.630   3.679   4.783  0.5922  0.1094  0.4296
   88SLPC   H9R 8518   3.525   3.677   4.749  0.9563 -2.4607 -0.8018
   88SLPC  C210 8519   3.657   3.689   4.917  0.2271  0.3142  0.1094
   88SLPC  H10R 8520   3.567   3.691   4.980 -0.2531  1.3658 -0.5812
   88SLPC  C211 8521   3.793   3.692   4.983  0.0986 -0.2660 -0.6489
   88SLPC  H11R 8522   3.854   3.626   4.917 -0.7015 -0.1569 -1.5146
   88SLPC  H11S 8523   3.773   3.643   5.081  0.9695  0.4396 -0.1008
   88SLPC  C212 8524   3.837   3.836   4.999 -0.7442 -0.2240  0.1470
   88SLPC  H12R 8525   3.762   3.909   5.031 -2.3843 -1.9546  0.4376
   88SLPC  C213 8526   3.964   3.880   4.984  0.3933  0.0397 -0.5791
   88SLPC  H13R 8527   3.987   3.986   5.006  2.1242 -0.2295 -0.8896
   88SLPC  C214 8528   4.081   3.799   4.938 -0.7799 -0.8523  0.2898
   88SLPC  H14R 8529   4.050   3.695   4.916 -1.3523 -0.6201 -0.0200
   88SLPC  H14S 8530   4.161   3.796   5.015  0.1383  1.3066 -0.4853
   88SLPC  C215 8531   4.144   3.857   4.806  0.1777 -0.2721  0.5139
   88SLPC  H15R 8532   4.245   3.812   4.789 -1.4806 -3.3293 -2.4142
   88SLPC  H15S 8533   4.160   3.966   4.820  4.7949 -0.4819 -1.2245
   88SLPC  C216 8534   4.073   3.826   4.674 -0.3524  0.6687  0.4191
   88SLPC  H16R 8535   3.975   3.878   4.683 -1.2936 -1.1441  1.2374
   88SLPC  H16S 8536   4.054   3.722   4.640  0.0076  0.7177  0.0610
   88SLPC  C217 8537   4.138   3.896   4.555 -0.4738  0.3407  0.5609
   88SLPC  H17R 8538   4.124   4.005   4.568 -0.0438  1.0446 -3.5888
   88SLPC  H17S 8539   4.080   3.877   4.463  1.1963 -1.5568 -0.1846
   88SLPC  C218 8540   4.284   3.862   4.524 -0.4236 -0.2698 -0.2985
   88SLPC  H18R 8541   4.299   3.887   4.417 -3.3333  2.5682 -0.1984
   88SLPC  H18S 8542   4.296   3.752   4.519  2.8736  0.0254 -0.9724
   88SLPC  H18T 8543   4.367   3.901   4.586 -0.6319  0.0488 -0.2142
   88SLPC   C33 8544   4.101   3.313   4.576 -0.1570 -0.5244  0.8267
   88SLPC   H3X 8545   4.207   3.282   4.583  0.1869  0.6616  1.0366
   88SLPC   H3Y 8546   4.046   3.259   4.496 -0.8809 -1.7697  2.0937
   88SLPC   C34 8547   4.023   3.284   4.702 -0.2284 -0.3832  0.4204
   88SLPC   H4X 8548   4.022   3.174   4.711 -1.8216 -0.3631  0.8629
   88SLPC   H4Y 8549   3.918   3.318   4.685  0.4085  0.7811 -1.5230
   88SLPC   C35 8550   4.080   3.359   4.825 -0.1832  0.1591  0.0949
   88SLPC   H5X 8551   4.093   3.469   4.811 -0.4806  0.0859 -0.7900
   88SLPC   H5Y 8552   4.177   3.321   4.864  0.1443  0.9409  0.0659
   88SLPC   C36 8553   3.990   3.348   4.952  0.5132  0.4778  0.0951
   88SLPC   H6X 8554   3.970   3.239   4.960  2.1310  0.1015 -0.5901
   88SLPC   H6Y 8555   3.905   3.412   4.920  1.7882  0.9008 -2.6890
   88SLPC   C37 8556   4.048   3.392   5.087 -0.6781  0.0661 -0.6322
   88SLPC   H7X 8557   4.081   3.498   5.082  1.1833 -0.3692  1.0258
   88SLPC   H7Y 8558   4.144   3.345   5.119 -0.2575  1.4636  0.2895
   88SLPC   C38 8559   3.941   3.392   5.209 -0.0895 -0.0749  0.2748
   88SLPC   H8X 8560   3.894   3.291   5.213 -0.4605 -0.0050 -1.3237
   88SLPC   H8Y 8561   3.867   3.474   5.196  1.6549  1.1805 -2.8032
   88SLPC   C39 8562   4.021   3.406   5.341  1.1748 -0.7581  0.3806
   88SLPC   H9X 8563   4.066   3.508   5.341 -3.3403  1.5275 -1.1274
   88SLPC   H9Y 8564   4.108   3.338   5.339  4.1472  2.6227 -2.9405
   88SLPC  C310 8565   3.942   3.400   5.468  0.9496 -0.1163  0.5558
   88SLPC  H10X 8566   3.859   3.473   5.480  0.2246 -0.7487 -0.4487
   88SLPC  H10Y 8567   4.012   3.414   5.554  0.2146  0.7433  1.0328
   88SLPC  C311 8568   3.895   3.249   5.478 -0.2208  0.4210  0.0860
   88SLPC  H11X 8569   3.975   3.173   5.464  1.1824  1.9058 -0.2294
   88SLPC  H11Y 8570   3.820   3.235   5.397  0.5254  2.2434 -0.9849
   88SLPC  C312 8571   3.819   3.228   5.611 -0.3811 -0.1573 -1.0463
   88SLPC  H12X 8572   3.783   3.126   5.635 -1.4468  0.8081  1.8022
   88SLPC  H12Y 8573   3.734   3.299   5.619 -0.3625 -0.2472  0.1061
   88SLPC  C313 8574   3.898   3.281   5.736  0.0778  1.0548  0.0126
   88SLPC  H13X 8575   3.926   3.389   5.736  1.2508  0.7798  0.9120
   88SLPC  H13Y 8576   3.992   3.221   5.741 -0.2968  0.4834  0.2891
   88SLPC  C314 8577   3.827   3.254   5.866  0.5112  0.1260  0.5268
   88SLPC  H14X 8578   3.825   3.144   5.875  1.6178 -0.0702 -1.1555
   88SLPC  H14Y 8579   3.730   3.307   5.862  0.7244  0.5086 -3.3786
   88SLPC  C315 8580   3.907   3.315   5.990 -0.7442  1.3334 -0.0208
   88SLPC  H15X 8581   4.014   3.290   5.975 -1.4731 -1.6049 -0.9686
   88SLPC  H15Y 8582   3.878   3.261   6.082  1.1890 -2.0701 -1.2551
   88SLPC  C316 8583   3.887   3.463   6.017 -0.0493  0.5322 -0.1211
   88SLPC  H16X 8584   3.780   3.493   6.018 -0.2790 -0.2717  0.0434
   88SLPC  H16Y 8585   3.947   3.509   5.935  2.1119 -1.8917 -0.0039
   88SLPC  C317 8586   3.929   3.507   6.157 -0.2757  0.4948  0.3585
   88SLPC  H17X 8587   4.037   3.483   6.165 -0.5685 -1.8347 -1.6163
   88SLPC  H17Y 8588   3.874   3.435   6.221 -0.1521  0.0603 -0.0257
   88SLPC  C318 8589   3.905   3.657   6.193  0.7481 -1.1071  0.2721
   88SLPC  H18X 8590   3.964   3.714   6.119 -2.7816  1.6133 -0.7403
   88SLPC  H18Y 8591   3.937   3.679   6.297  0.2084 -1.4850  0.5259
   88SLPC  H18Z 8592   3.798   3.688   6.189  1.2363  0.5234 -1.9285
   89SAPE     N 8593   2.698   4.017   8.203  0.6514 -0.2386  0.8566
   89SAPE   HN1 8594   2.681   3.916   8.182  1.0436 -0.4111  1.3573
   89SAPE   HN2 8595   2.791   4.024   8.249  1.1777 -1.3289  0.0162
   89SAPE   HN3 8596   2.623   4.050   8.267  0.4943 -1.2592  1.2209
   89SAPE   C12 8597   2.699   4.096   8.074  0.4151 -0.6727  0.4861
   89SAPE  H12A 8598   2.773   4.056   8.001  0.3216  1.9227 -1.1513
   89SAPE  H12B 8599   2.721   4.204   8.084  2.3364 -0.8302 -1.3200
   89SAPE   C11 8600   2.558   4.085   8.003 -0.4752  0.2892 -1.2047
   89SAPE  H11A 8601   2.553   3.979   7.971 -2.0106 -0.0047 -0.0885
   89SAPE  H11B 8602   2.543   4.150   7.914 -2.1424 -0.0374 -1.2046
   89SAPE     P 8603   2.301   4.067   8.074 -0.2515 -0.2896 -0.3907
   89SAPE   O13 8604   2.243   4.005   8.198 -0.0792 -0.0555  0.3973
   89SAPE   O14 8605   2.227   4.185   8.019 -0.3044 -0.1540 -0.1449
   89SAPE   O12 8606   2.447   4.105   8.093 -0.5681  0.4325 -0.9270
   89SAPE   O11 8607   2.308   3.953   7.970 -0.1342  0.2979  0.1910
   89SAPE    C1 8608   2.314   3.815   8.004  0.5031 -0.7705 -0.5539
   89SAPE    HA 8609   2.422   3.791   8.012  1.3324  2.7060  0.3362
   89SAPE    HB 8610   2.265   3.803   8.103  0.2622  3.4018  0.0299
   89SAPE    C2 8611   2.252   3.729   7.891  1.0026 -0.2746 -0.4071
   89SAPE    HS 8612   2.267   3.620   7.911  1.0031  0.1454  2.2865
   89SAPE   O21 8613   2.302   3.766   7.765 -0.4120  0.0043  0.0689
   89SAPE   C21 8614   2.433   3.766   7.747 -0.7004  0.0952 -0.2151
   89SAPE   O22 8615   2.516   3.722   7.825 -0.6961 -0.7013  0.3878
   89SAPE   C22 8616   2.475   3.827   7.613  0.0653  0.1535  0.2528
   89SAPE   H2R 8617   2.441   3.932   7.627  1.1929  0.4327  1.0788
   89SAPE   H2S 8618   2.585   3.811   7.616 -0.0226 -0.3352  2.8037
   89SAPE    C3 8619   2.096   3.743   7.894 -0.2479 -0.0342 -0.2545
   89SAPE    HX 8620   2.073   3.851   7.908  1.9000  0.4005  0.3308
   89SAPE    HY 8621   2.063   3.688   7.985  0.5897  1.3964  0.9502
   89SAPE   O31 8622   2.042   3.678   7.778  0.6263 -0.3750  0.0166
   89SAPE   C31 8623   2.025   3.760   7.666  0.1802  0.9812  1.4402
   89SAPE   O32 8624   2.034   3.881   7.666 -0.6945 -0.4331 -1.1476
   89SAPE   C32 8625   1.992   3.674   7.543 -0.4960  0.6826 -1.4896
   89SAPE   H2X 8626   1.899   3.616   7.558 -0.5980  0.8746 -1.3798
   89SAPE   H2Y 8627   2.063   3.589   7.533 -1.4843 -0.3866  0.1521
   89SAPE   C23 8628   2.412   3.755   7.493 -0.0629  0.9317 -0.5522
   89SAPE   H3R 8629   2.301   3.760   7.502 -0.4732  1.5882 -4.2952
   89SAPE   H3S 8630   2.443   3.648   7.487 -2.1872  0.0296  2.1845
   89SAPE   C24 8631   2.448   3.827   7.363  0.2077 -0.4408 -0.1821
   89SAPE   H4R 8632   2.559   3.832   7.363  0.1803  0.7181  1.0728
   89SAPE   H4S 8633   2.421   3.933   7.382  1.2747 -0.4735  1.7458
   89SAPE   C25 8634   2.379   3.770   7.237  0.3546  0.4792  0.3021
   89SAPE   H5R 8635   2.271   3.790   7.244  0.4065  0.1976  2.8764
   89SAPE   C26 8636   2.429   3.675   7.153  0.7693 -1.0472 -0.2969
   89SAPE   H6R 8637   2.371   3.662   7.060 -1.6148  2.2698  0.5263
   89SAPE   C27 8638   2.573   3.640   7.155 -0.2433  0.3061  0.0184
   89SAPE   H7R 8639   2.627   3.663   7.249 -1.4355 -0.9201  1.0425
   89SAPE   H7S 8640   2.624   3.697   7.075  0.0070 -1.5188 -1.1811
   89SAPE   C28 8641   2.570   3.494   7.110  0.1178  0.2100 -0.4776
   89SAPE   H8R 8642   2.478   3.450   7.150 -1.5469  2.6471 -1.3908
   89SAPE   C29 8643   2.667   3.423   7.045 -0.2145  0.0379  0.1522
   89SAPE   H9R 8644   2.634   3.320   7.024  0.5546  0.4939 -4.1429
   89SAPE  C210 8645   2.800   3.453   6.978 -0.5393 -0.1184  0.7939
   89SAPE  H10R 8646   2.876   3.407   7.044 -0.9218  1.0347  2.0840
   89SAPE  H10S 8647   2.823   3.562   6.977  0.0826 -0.2417 -0.4653
   89SAPE  C211 8648   2.826   3.393   6.840  0.2885 -0.2095  0.1413
   89SAPE  H11R 8649   2.897   3.309   6.829 -1.1976 -1.1791 -3.3196
   89SAPE  C212 8650   2.758   3.418   6.728 -0.0516 -0.1585 -0.2383
   89SAPE  H12R 8651   2.775   3.365   6.633 -3.5986  1.2999 -1.8928
   89SAPE  C213 8652   2.649   3.518   6.710 -0.1992 -0.2723  0.2944
   89SAPE  H13R 8653   2.570   3.487   6.782 -1.6776  0.4219 -0.9467
   89SAPE  H13S 8654   2.590   3.516   6.615 -0.1829  0.7841  0.2579
   89SAPE  C214 8655   2.696   3.664   6.747 -0.1231  0.7502  0.3665
   89SAPE  H14R 8656   2.805   3.665   6.763 -0.2238 -0.0122  1.1966
   89SAPE  C215 8657   2.616   3.767   6.760  0.4008 -0.9282 -0.0400
   89SAPE  H15R 8658   2.663   3.864   6.783 -1.5501 -0.0705  0.5267
   89SAPE  C216 8659   2.465   3.769   6.745 -0.3330 -0.8451 -0.4142
   89SAPE  H16R 8660   2.421   3.824   6.831 -0.6755 -0.4147 -0.8610
   89SAPE  H16S 8661   2.426   3.666   6.751  1.0940 -1.5196 -1.8587
   89SAPE  C217 8662   2.414   3.823   6.608 -1.1295 -0.3212 -0.1288
   89SAPE  H17R 8663   2.465   3.916   6.574 -3.7227  1.1856 -0.1711
   89SAPE  H17S 8664   2.304   3.838   6.609 -1.1571 -0.4330  1.4076
   89SAPE  C218 8665   2.434   3.728   6.489 -1.0913  0.8078  0.2355
   89SAPE  H18R 8666   2.379   3.631   6.496 -1.3692  0.9151 -0.4016
   89SAPE  H18S 8667   2.541   3.697   6.486 -1.7735 -1.7780 -0.5694
   89SAPE  C219 8668   2.402   3.797   6.369 -0.4553  0.2630 -0.4471
   89SAPE  H19R 8669   2.469   3.884   6.353 -0.9499  0.5148 -1.1680
   89SAPE  H19S 8670   2.302   3.842   6.389 -1.0219 -1.0779 -0.1392
   89SAPE  C220 8671   2.378   3.715   6.245  0.7960  0.2336  0.1800
   89SAPE  H20R 8672   2.467   3.675   6.191 -0.6409  0.3226 -2.4235
   89SAPE  H20S 8673   2.347   3.781   6.161 -0.6394 -0.9111 -0.2382
   89SAPE  H20T 8674   2.298   3.639   6.260  1.6140 -0.9888 -1.3115
   89SAPE   C33 8675   2.009   3.745   7.409  0.6082  0.2759 -0.3560
   89SAPE   H3X 8676   2.116   3.760   7.385  0.9024 -0.0238  0.6947
   89SAPE   H3Y 8677   1.965   3.847   7.420 -1.4546 -0.7409  2.0247
   89SAPE   C34 8678   1.959   3.659   7.291  0.2822 -0.3981  0.0552
   89SAPE   H4X 8679   1.848   3.663   7.291  0.3133  1.7808  0.4988
   89SAPE   H4Y 8680   1.989   3.553   7.303  0.3360 -0.2611  1.2382
   89SAPE   C35 8681   2.009   3.720   7.160 -0.2922 -0.4101 -0.2109
   89SAPE   H5X 8682   2.114   3.702   7.131 -0.1328 -1.7613  1.1122
   89SAPE   H5Y 8683   2.002   3.829   7.180  0.5549 -0.4281  0.1938
   89SAPE   C36 8684   1.914   3.688   7.038  0.1522 -0.3572  0.2051
   89SAPE   H6X 8685   1.804   3.700   7.052  0.2289 -1.1875  1.6271
   89SAPE   H6Y 8686   1.921   3.577   7.039 -1.0466 -0.5704 -2.7752
   89SAPE   C37 8687   1.955   3.744   6.905  0.4986 -0.8715  0.4759
   89SAPE   H7X 8688   2.065   3.732   6.903  0.5478 -0.5371 -1.9610
   89SAPE   H7Y 8689   1.906   3.843   6.905 -2.3465 -2.1769  0.7034
   89SAPE   C38 8690   1.902   3.676   6.769  0.4879  0.2303 -0.4705
   89SAPE   H8X 8691   1.796   3.708   6.758  0.7273  1.2805  0.1555
   89SAPE   H8Y 8692   1.909   3.566   6.781 -2.0275  0.2982  5.1833
   89SAPE   C39 8693   1.974   3.734   6.653  0.0011  0.6534  0.1924
   89SAPE   H9X 8694   2.082   3.715   6.673 -0.0936  0.0020  0.1095
   89SAPE   H9Y 8695   1.952   3.843   6.654  0.1491  0.7323 -1.4263
   89SAPE  C310 8696   1.938   3.662   6.517 -0.5962  0.6657  1.2652
   89SAPE  H10X 8697   1.831   3.634   6.517 -0.4659  0.1439  2.1982
   89SAPE  H10Y 8698   1.987   3.562   6.513 -3.3994 -0.8064 -1.9228
   89SAPE  C311 8699   1.978   3.749   6.396  0.1329  0.0188  0.2987
   89SAPE  H11X 8700   2.080   3.782   6.424  0.6290 -1.0220 -0.2164
   89SAPE  H11Y 8701   1.908   3.835   6.390 -0.8876 -0.8110 -0.0621
   89SAPE  C312 8702   1.966   3.663   6.266 -0.3912  0.3206  0.0365
   89SAPE  H12X 8703   1.862   3.624   6.271  0.0589 -0.9196  0.2032
   89SAPE  H12Y 8704   2.036   3.576   6.267 -1.8043 -0.8482  0.6299
   89SAPE  C313 8705   1.998   3.757   6.151  0.4607 -0.6985  0.2593
   89SAPE  H13X 8706   2.099   3.801   6.166 -0.2141  0.1918  2.7239
   89SAPE  H13Y 8707   1.921   3.837   6.153 -1.3203 -2.2440 -1.8099
   89SAPE  C314 8708   1.991   3.689   6.012  0.3167 -0.3381 -0.1303
   89SAPE  H14X 8709   1.887   3.660   5.985  0.6801  1.0092 -3.4028
   89SAPE  H14Y 8710   2.049   3.596   6.026 -0.0756 -0.4114  1.2057
   89SAPE  C315 8711   2.063   3.771   5.910 -0.3359  0.0321  0.5203
   89SAPE  H15X 8712   2.149   3.816   5.962 -0.9241  2.0741 -0.1858
   89SAPE  H15Y 8713   1.988   3.850   5.888 -0.2331 -0.2519 -1.0053
   89SAPE  C316 8714   2.114   3.688   5.792  0.1680  0.5467 -0.1916
   89SAPE  H16X 8715   2.030   3.638   5.739  0.5785  1.7879 -2.0839
   89SAPE  H16Y 8716   2.190   3.611   5.818 -1.1914 -1.0131 -0.6120
   89SAPE  C317 8717   2.179   3.777   5.679 -0.1322 -0.0681  0.5017
   89SAPE  H17X 8718   2.109   3.861   5.658  0.9380  0.9437  0.9035
   89SAPE  H17Y 8719   2.170   3.709   5.591 -0.9772  0.7849 -0.0986
   89SAPE  C318 8720   2.320   3.829   5.704 -0.7124 -0.1257 -0.2018
   89SAPE  H18X 8721   2.312   3.935   5.739  1.4388 -0.2715  0.8859
   89SAPE  H18Y 8722   2.373   3.820   5.607 -1.3530 -0.1737 -0.5568
   89SAPE  H18Z 8723   2.366   3.776   5.790 -2.1271  0.6934  1.1042
   90SAPE     N 8724   3.844   1.407   0.098  0.1489  0.2055  0.0217
   90SAPE   HN1 8725   3.930   1.465   0.089 -0.0405  0.4387 -0.3089
   90SAPE   HN2 8726   3.766   1.471   0.072  0.7491  1.0946  0.3713
   90SAPE   HN3 8727   3.837   1.399   0.201  2.0572  0.4686  0.1990
   90SAPE   C12 8728   3.869   1.282   0.024  0.0742  0.7843 -0.0418
   90SAPE  H12A 8729   3.786   1.211   0.046  1.9997 -1.0593  1.7758
   90SAPE  H12B 8730   3.962   1.232   0.060 -0.8866 -1.3938 -0.3806
   90SAPE   C11 8731   3.891   1.302  -0.130  0.0005  0.4565 -0.5564
   90SAPE  H11A 8732   3.817   1.375  -0.169  0.6882  2.3110  1.3866
   90SAPE  H11B 8733   3.883   1.197  -0.164  1.7038 -0.8577  2.5939
   90SAPE     P 8734   4.141   1.227  -0.201  0.1532 -0.0608 -0.0116
   90SAPE   O13 8735   4.273   1.283  -0.156  0.7202  0.2678 -0.1018
   90SAPE   O14 8736   4.106   1.091  -0.163 -0.6663 -0.4692 -0.0603
   90SAPE   O12 8737   4.028   1.336  -0.162 -0.0474  0.3551  0.3572
   90SAPE   O11 8738   4.130   1.223  -0.356  0.0980  0.2347  0.4407
   90SAPE    C1 8739   4.103   1.341  -0.429  0.4443  0.6490  1.0226
   90SAPE    HA 8740   4.114   1.435  -0.371 -0.1353  0.4296  1.4940
   90SAPE    HB 8741   4.177   1.352  -0.511 -0.6947  1.2340  0.0412
   90SAPE    C2 8742   3.959   1.331  -0.495 -0.2901 -0.4606  0.3623
   90SAPE    HS 8743   3.888   1.287  -0.422 -0.4491  2.3058  2.0143
   90SAPE   O21 8744   3.982   1.244  -0.611  0.7237  0.0689  0.1628
   90SAPE   C21 8745   3.874   1.198  -0.672  0.7173  0.4561 -0.4009
   90SAPE   O22 8746   3.763   1.200  -0.623  0.1069 -0.2363  0.2627
   90SAPE   C22 8747   3.897   1.141  -0.808  0.8021  0.5225 -0.2105
   90SAPE   H2R 8748   3.982   1.069  -0.804  2.6755  2.5615 -0.8529
   90SAPE   H2S 8749   3.803   1.085  -0.826  1.6086 -0.9088 -0.1394
   90SAPE    C3 8750   3.905   1.473  -0.542  0.0625  0.5184 -0.6341
   90SAPE    HX 8751   3.862   1.542  -0.466 -2.1533 -2.1056  0.6433
   90SAPE    HY 8752   3.809   1.446  -0.592  0.1200  3.3484 -2.5366
   90SAPE   O31 8753   3.984   1.551  -0.632  0.4369  0.2971  0.1337
   90SAPE   C31 8754   4.052   1.656  -0.586  0.1281 -0.0917 -0.0313
   90SAPE   O32 8755   4.079   1.688  -0.472  0.4363 -0.4068  0.2525
   90SAPE   C32 8756   4.118   1.723  -0.713  0.7152 -0.5331 -0.2451
   90SAPE   H2X 8757   4.148   1.827  -0.689 -0.6390 -0.0201 -0.6469
   90SAPE   H2Y 8758   4.045   1.725  -0.797  0.1471 -2.5370  0.1490
   90SAPE   C23 8759   3.909   1.244  -0.924 -0.0125  0.4014 -0.1023
   90SAPE   H3R 8760   3.821   1.311  -0.936 -1.3458 -1.4119 -0.7578
   90SAPE   H3S 8761   3.898   1.183  -1.016 -0.1894 -1.0187  0.8454
   90SAPE   C24 8762   4.045   1.318  -0.926 -0.4279 -0.5667 -0.1788
   90SAPE   H4R 8763   4.057   1.387  -0.840  1.1285 -0.5500 -0.3902
   90SAPE   H4S 8764   4.042   1.387  -1.013  0.5606  0.5786  0.6666
   90SAPE   C25 8765   4.167   1.227  -0.932  0.8815 -0.1480 -0.6035
   90SAPE   H5R 8766   4.188   1.168  -0.841 -1.6650 -2.7651 -1.5425
   90SAPE   C26 8767   4.250   1.213  -1.036  0.3716  0.0604 -0.0487
   90SAPE   H6R 8768   4.326   1.134  -1.024  0.0329 -0.2055  0.4233
   90SAPE   C27 8769   4.245   1.286  -1.167  0.8038  0.0923 -1.2154
   90SAPE   H7R 8770   4.310   1.376  -1.163  0.7523  0.2078 -2.5562
   90SAPE   H7S 8771   4.145   1.320  -1.200 -0.5170 -3.4452 -1.3335
   90SAPE   C28 8772   4.280   1.192  -1.285 -0.2138 -0.3125  0.4557
   90SAPE   H8R 8773   4.250   1.088  -1.267 -1.8595  0.5197  3.0512
   90SAPE   C29 8774   4.326   1.226  -1.407  0.0196 -0.2120  0.8199
   90SAPE   H9R 8775   4.364   1.145  -1.472 -1.5074  0.1197 -0.5724
   90SAPE  C210 8776   4.390   1.371  -1.436  0.0266  0.0960 -0.1413
   90SAPE  H10R 8777   4.496   1.365  -1.468  0.3802 -1.0897  1.1294
   90SAPE  H10S 8778   4.392   1.424  -1.338  1.8682  2.8111 -1.5189
   90SAPE  C211 8779   4.302   1.452  -1.529 -1.2245 -0.0070  0.5210
   90SAPE  H11R 8780   4.203   1.463  -1.482 -0.4862 -1.9299  2.6792
   90SAPE  C212 8781   4.329   1.501  -1.656 -0.6066 -0.2136  0.2437
   90SAPE  H12R 8782   4.258   1.572  -1.700  1.2737  0.8612 -1.2101
   90SAPE  C213 8783   4.455   1.473  -1.729 -0.4923  0.0657 -0.0152
   90SAPE  H13R 8784   4.544   1.502  -1.669  2.4939 -1.7946 -3.1387
   90SAPE  H13S 8785   4.459   1.549  -1.810  0.6961  3.1546  2.7047
   90SAPE  C214 8786   4.494   1.330  -1.768  0.2050 -0.4345 -0.8771
   90SAPE  H14R 8787   4.544   1.273  -1.688  1.2176 -0.1335 -1.2707
   90SAPE  C215 8788   4.478   1.277  -1.886 -0.0306 -0.1595  0.2638
   90SAPE  H15R 8789   4.523   1.178  -1.904  2.8060  1.2717 -1.1677
   90SAPE  C216 8790   4.417   1.339  -2.007 -0.6127  0.1320  0.5673
   90SAPE  H16R 8791   4.378   1.439  -1.977  1.5736  0.7476  1.5565
   90SAPE  H16S 8792   4.332   1.279  -2.046 -0.5988  0.0459  0.6683
   90SAPE  C217 8793   4.511   1.380  -2.123  0.2755 -0.1829  0.2190
   90SAPE  H17R 8794   4.486   1.307  -2.202  1.1425 -2.2528  1.7444
   90SAPE  H17S 8795   4.615   1.357  -2.091 -0.1928 -1.0093  1.2266
   90SAPE  C218 8796   4.488   1.523  -2.176 -0.0251  0.0687 -0.8609
   90SAPE  H18R 8797   4.527   1.597  -2.102 -2.1283 -0.2112  0.6242
   90SAPE  H18S 8798   4.378   1.539  -2.175  0.1286  1.5948  1.6917
   90SAPE  C219 8799   4.539   1.557  -2.315 -0.0329  0.6774  0.0242
   90SAPE  H19R 8800   4.496   1.501  -2.401 -0.0407  2.4908 -1.2129
   90SAPE  H19S 8801   4.647   1.536  -2.329 -0.0925  1.8774 -2.8822
   90SAPE  C220 8802   4.527   1.706  -2.337  0.3133 -0.1460 -0.3818
   90SAPE  H20R 8803   4.588   1.756  -2.259  2.7695 -2.1077 -0.9055
   90SAPE  H20S 8804   4.427   1.753  -2.327  1.2930  2.4022 -1.7615
   90SAPE  H20T 8805   4.571   1.740  -2.433  1.7849  1.5116  0.8176
   90SAPE   C33 8806   4.248   1.651  -0.761 -0.6284  0.1214  0.0569
   90SAPE   H3X 8807   4.207   1.554  -0.797 -0.1534 -0.0000 -0.1662
   90SAPE   H3Y 8808   4.310   1.640  -0.670 -0.1863  2.0084  0.0092
   90SAPE   C34 8809   4.331   1.719  -0.876  1.0361  0.8679  0.1992
   90SAPE   H4X 8810   4.398   1.634  -0.900 -1.0023 -0.9339  0.6159
   90SAPE   H4Y 8811   4.385   1.805  -0.829  3.1602 -1.4290  2.2982
   90SAPE   C35 8812   4.246   1.756  -0.991  0.1187 -0.0201  0.0843
   90SAPE   H5X 8813   4.179   1.841  -0.967  1.1185  0.8187 -0.0305
   90SAPE   H5Y 8814   4.178   1.675  -1.025 -1.9036  1.7958 -0.4172
   90SAPE   C36 8815   4.328   1.807  -1.111 -0.1928  0.2456  0.0708
   90SAPE   H6X 8816   4.381   1.893  -1.066 -0.4488  0.6312 -0.3535
   90SAPE   H6Y 8817   4.255   1.852  -1.181  0.2587  3.5510  1.5441
   90SAPE   C37 8818   4.404   1.702  -1.178  0.7362  0.1219 -0.7024
   90SAPE   H7X 8819   4.342   1.611  -1.191  0.5743  0.0682  0.4003
   90SAPE   H7Y 8820   4.495   1.681  -1.117  0.5673  0.5461 -0.3038
   90SAPE   C38 8821   4.450   1.741  -1.313 -0.1715 -0.3663 -0.2304
   90SAPE   H8X 8822   4.361   1.753  -1.379 -1.9113  1.1654  2.2685
   90SAPE   H8Y 8823   4.508   1.655  -1.354  1.1787 -0.3053  1.4636
   90SAPE   C39 8824   4.528   1.876  -1.327 -0.4655  0.5287 -0.4372
   90SAPE   H9X 8825   4.623   1.881  -1.271  0.7690 -0.7188 -2.2981
   90SAPE   H9Y 8826   4.466   1.961  -1.292 -0.0550  0.2950  0.9136
   90SAPE  C310 8827   4.564   1.895  -1.468 -0.5924 -1.0416 -0.2147
   90SAPE  H10X 8828   4.649   1.834  -1.504 -0.9181 -1.2599 -0.6081
   90SAPE  H10Y 8829   4.605   1.998  -1.482 -1.3229 -0.7987 -0.6142
   90SAPE  C311 8830   4.460   1.870  -1.580 -0.4963  0.8925  0.1633
   90SAPE  H11X 8831   4.372   1.925  -1.540  0.3139  1.7179  0.8526
   90SAPE  H11Y 8832   4.449   1.761  -1.595  2.2710  0.5047  0.5170
   90SAPE  C312 8833   4.518   1.928  -1.710  0.4527 -0.3672 -0.4488
   90SAPE  H12X 8834   4.617   1.880  -1.721  0.2080 -1.1066  0.3895
   90SAPE  H12Y 8835   4.545   2.033  -1.688  1.0354 -0.5512 -0.2575
   90SAPE  C313 8836   4.437   1.910  -1.842  0.1561  0.0351  0.2340
   90SAPE  H13X 8837   4.339   1.959  -1.830  0.6938  0.9197  1.1225
   90SAPE  H13Y 8838   4.418   1.804  -1.871 -0.7707  0.6930 -1.7746
   90SAPE  C314 8839   4.508   1.974  -1.965  0.1304 -0.5313 -0.2484
   90SAPE  H14X 8840   4.605   1.925  -1.991  1.8244  2.3861  0.1231
   90SAPE  H14Y 8841   4.537   2.078  -1.939  0.4321 -0.4179 -1.0078
   90SAPE  C315 8842   4.415   1.996  -2.086  0.0639  0.3878  0.6121
   90SAPE  H15X 8843   4.330   2.064  -2.062 -0.9577 -0.8383  0.5971
   90SAPE  H15Y 8844   4.377   1.896  -2.119  0.4416  0.4464 -0.0213
   90SAPE  C316 8845   4.488   2.076  -2.194  0.3005 -0.3658  0.4521
   90SAPE  H16X 8846   4.582   2.022  -2.215 -0.5333 -2.8348  2.4548
   90SAPE  H16Y 8847   4.492   2.178  -2.152 -1.0857 -0.0806 -0.0604
   90SAPE  C317 8848   4.407   2.080  -2.332 -0.1300 -0.1392 -0.7501
   90SAPE  H17X 8849   4.302   2.112  -2.313 -0.4503 -0.7983 -1.3573
   90SAPE  H17Y 8850   4.397   1.973  -2.361  2.1619 -0.5449 -0.2260
   90SAPE  C318 8851   4.476   2.151  -2.440  0.1662 -0.5105  0.9670
   90SAPE  H18X 8852   4.443   2.257  -2.431 -0.8168 -0.9158  2.3873
   90SAPE  H18Y 8853   4.446   2.115  -2.541  1.7351 -2.8409  1.2459
   90SAPE  H18Z 8854   4.587   2.149  -2.435  0.1479  0.8496  3.0827
   91SAPE     N 8855   6.259   4.560   8.412  0.1765  0.0415 -0.1325
   91SAPE   HN1 8856   6.344   4.517   8.370  1.0970  1.5146  0.1515
   91SAPE   HN2 8857   6.283   4.651   8.457 -0.1343  0.6679 -1.2193
   91SAPE   HN3 8858   6.222   4.503   8.491  0.3937 -0.7877 -0.6153
   91SAPE   C12 8859   6.153   4.579   8.308  0.4101 -0.3748  0.1950
   91SAPE  H12A 8860   6.143   4.484   8.252 -0.2346 -1.2655  1.7480
   91SAPE  H12B 8861   6.192   4.664   8.248 -0.1516  0.9490  1.6154
   91SAPE   C11 8862   6.021   4.618   8.370 -0.3578  0.2106  0.3034
   91SAPE  H11A 8863   5.990   4.543   8.446 -0.4934 -1.9924 -1.8251
   91SAPE  H11B 8864   5.937   4.622   8.298 -2.4494 -2.1402  2.4161
   91SAPE     P 8865   5.966   4.873   8.368 -0.1125  0.5881 -0.2333
   91SAPE   O13 8866   5.822   4.851   8.360  0.3957  0.8244 -0.1890
   91SAPE   O14 8867   6.008   4.982   8.457 -0.0131  0.1425 -0.5440
   91SAPE   O12 8868   6.033   4.746   8.429 -0.0369  0.3408 -0.8942
   91SAPE   O11 8869   6.038   4.885   8.228  0.5688 -0.3097  0.0355
   91SAPE    C1 8870   6.167   4.933   8.194 -0.1609 -0.8117  0.3180
   91SAPE    HA 8871   6.215   4.958   8.291 -0.4803  0.7555  0.1076
   91SAPE    HB 8872   6.230   4.856   8.146  0.0192 -0.6290  0.2613
   91SAPE    C2 8873   6.167   5.072   8.121  0.5940 -0.1578 -0.1064
   91SAPE    HS 8874   6.095   5.132   8.181 -2.1202 -0.5772 -2.6823
   91SAPE   O21 8875   6.119   5.046   7.991 -0.7285 -0.3609  0.4565
   91SAPE   C21 8876   6.035   5.134   7.942  0.3600  0.1561  0.1248
   91SAPE   O22 8877   5.999   5.236   7.998 -0.0934 -0.2740  0.0511
   91SAPE   C22 8878   5.987   5.090   7.805  0.7759 -0.3169 -0.4757
   91SAPE   H2R 8879   6.079   5.049   7.757  0.2951  0.5666 -2.2228
   91SAPE   H2S 8880   5.917   5.004   7.816 -0.0034  0.4601  0.9348
   91SAPE    C3 8881   6.316   5.120   8.102 -0.1243 -0.6522 -0.4073
   91SAPE    HX 8882   6.366   5.042   8.041 -1.1709 -1.5602 -0.1471
   91SAPE    HY 8883   6.354   5.131   8.206  0.7606  1.4638 -0.9240
   91SAPE   O31 8884   6.323   5.244   8.029  0.2619 -0.2597 -0.2282
   91SAPE   C31 8885   6.279   5.357   8.087 -0.5010  0.1706 -0.0124
   91SAPE   O32 8886   6.229   5.366   8.198  0.0871 -0.1138  0.0120
   91SAPE   C32 8887   6.303   5.478   7.995 -0.3497  0.4566  0.2172
   91SAPE   H2X 8888   6.374   5.545   8.049  0.6620  0.0228 -0.5573
   91SAPE   H2Y 8889   6.205   5.530   7.983 -0.4694 -0.3245 -2.9889
   91SAPE   C23 8890   5.921   5.201   7.718  0.4606 -0.2888  0.0978
   91SAPE   H3R 8891   5.994   5.284   7.713  1.2792 -0.8747  1.5465
   91SAPE   H3S 8892   5.831   5.237   7.773  0.8279  0.1280  0.4251
   91SAPE   C24 8893   5.872   5.141   7.590 -0.0767  0.0527  0.9016
   91SAPE   H4R 8894   5.815   5.047   7.608  1.9681 -0.9662  2.4481
   91SAPE   H4S 8895   5.963   5.107   7.536 -0.5624  1.0241 -0.6026
   91SAPE   C25 8896   5.800   5.249   7.514  0.1206 -0.6134  0.0853
   91SAPE   H5R 8897   5.723   5.300   7.572 -0.5033 -0.5299 -0.7983
   91SAPE   C26 8898   5.815   5.301   7.391 -0.6502  0.0254  0.2439
   91SAPE   H6R 8899   5.733   5.369   7.362 -1.0164 -0.2910  0.5300
   91SAPE   C27 8900   5.910   5.262   7.283  0.1719 -0.5440  0.2733
   91SAPE   H7R 8901   5.998   5.214   7.330  0.4117 -0.9274 -0.5363
   91SAPE   H7S 8902   5.952   5.358   7.245  1.1363 -0.9793  0.2017
   91SAPE   C28 8903   5.849   5.193   7.160 -0.8178  0.1292 -0.0012
   91SAPE   H8R 8904   5.776   5.119   7.195 -0.4149  0.0095  0.6103
   91SAPE   C29 8905   5.873   5.211   7.028 -0.4473  0.0624  0.0917
   91SAPE   H9R 8906   5.823   5.149   6.952 -1.2479  1.9697 -0.9895
   91SAPE  C210 8907   5.985   5.294   6.968 -0.3396  0.6465 -0.4089
   91SAPE  H10R 8908   6.067   5.238   6.917  1.0554  3.1110 -1.0330
   91SAPE  H10S 8909   6.036   5.353   7.047  0.1214 -0.5499  0.2262
   91SAPE  C211 8910   5.915   5.391   6.883  1.2352 -0.7113  0.8280
   91SAPE  H11R 8911   5.857   5.466   6.937  0.1306 -0.5883 -0.4672
   91SAPE  C212 8912   5.915   5.393   6.748  0.0029 -0.2640  0.0189
   91SAPE  H12R 8913   5.861   5.470   6.690 -0.6534 -0.1681  0.7369
   91SAPE  C213 8914   5.976   5.294   6.662 -0.3258  0.4434 -0.0076
   91SAPE  H13R 8915   6.080   5.277   6.697 -1.2797  0.4361  3.1187
   91SAPE  H13S 8916   5.985   5.349   6.566  1.2955 -2.0668 -1.4155
   91SAPE  C214 8917   5.903   5.165   6.635 -0.8618 -0.5815  1.2722
   91SAPE  H14R 8918   5.796   5.148   6.655 -1.3069 -1.7318 -1.5074
   91SAPE  C215 8919   5.950   5.075   6.551 -0.3105 -0.3325  0.0175
   91SAPE  H15R 8920   5.881   4.991   6.530 -0.9900 -0.3048  1.9420
   91SAPE  C216 8921   6.084   5.073   6.473 -0.3068 -0.7690  0.4135
   91SAPE  H16R 8922   6.138   4.980   6.501  0.3804  0.5845  4.1782
   91SAPE  H16S 8923   6.155   5.156   6.493  0.2767 -0.0981 -3.5685
   91SAPE  C217 8924   6.041   5.067   6.325 -0.8000 -0.1552  0.2743
   91SAPE  H17R 8925   6.018   5.174   6.304  2.5527  0.6806  0.2366
   91SAPE  H17S 8926   5.952   5.000   6.314  0.3417 -1.6077 -0.5298
   91SAPE  C218 8927   6.155   5.027   6.229 -0.3087 -0.2397 -0.3172
   91SAPE  H18R 8928   6.192   4.924   6.248 -1.8913 -1.1320 -1.7682
   91SAPE  H18S 8929   6.238   5.100   6.240 -1.0295  0.5289  0.0856
   91SAPE  C219 8930   6.112   5.027   6.080 -0.0465  0.2790 -0.0668
   91SAPE  H19R 8931   6.111   5.127   6.031 -4.0941  0.1102 -0.6953
   91SAPE  H19S 8932   6.009   4.988   6.064  0.2384 -0.2964 -0.5549
   91SAPE  C220 8933   6.208   4.944   5.999 -0.4619  0.4624 -0.0075
   91SAPE  H20R 8934   6.307   4.988   6.021 -0.2962  0.9728 -1.6128
   91SAPE  H20S 8935   6.185   4.934   5.890  2.7435 -0.2356 -0.7057
   91SAPE  H20T 8936   6.205   4.838   6.034 -0.2656 -0.0018 -1.3138
   91SAPE   C33 8937   6.359   5.453   7.859 -0.6343  0.1670  0.3106
   91SAPE   H3X 8938   6.449   5.388   7.861 -1.1019 -0.5964 -1.4517
   91SAPE   H3Y 8939   6.402   5.547   7.818  0.9986 -0.7647 -0.1808
   91SAPE   C34 8940   6.259   5.406   7.755 -0.7482 -0.7472  0.2104
   91SAPE   H4X 8941   6.190   5.493   7.743  1.1295  0.8799  0.7096
   91SAPE   H4Y 8942   6.205   5.317   7.793 -2.0422 -0.2744 -0.4193
   91SAPE   C35 8943   6.324   5.383   7.623  0.3839  0.1930  0.5394
   91SAPE   H5X 8944   6.381   5.288   7.627  1.1142  0.6004  0.0390
   91SAPE   H5Y 8945   6.395   5.463   7.596  1.3389 -0.7324  0.2371
   91SAPE   C36 8946   6.229   5.364   7.500  0.1306  0.0879 -0.2481
   91SAPE   H6X 8947   6.163   5.453   7.499  2.2603  1.8181  1.8623
   91SAPE   H6Y 8948   6.168   5.271   7.509 -0.0458  0.1428 -0.7993
   91SAPE   C37 8949   6.313   5.354   7.372  0.8562 -0.1471  0.5928
   91SAPE   H7X 8950   6.394   5.430   7.374 -0.9518  1.8920 -0.1784
   91SAPE   H7Y 8951   6.240   5.383   7.294 -1.6801 -5.3612  0.5325
   91SAPE   C38 8952   6.361   5.217   7.331  1.4316 -0.2153 -0.0875
   91SAPE   H8X 8953   6.283   5.141   7.352 -0.9818  1.3120 -2.7942
   91SAPE   H8Y 8954   6.448   5.191   7.395  0.6759 -0.6141  0.8138
   91SAPE   C39 8955   6.409   5.218   7.183 -0.1940 -0.6335  0.6225
   91SAPE   H9X 8956   6.491   5.144   7.192 -0.5157 -1.1670 -0.6196
   91SAPE   H9Y 8957   6.457   5.313   7.154 -1.0346 -0.4784 -0.3160
   91SAPE  C310 8958   6.301   5.183   7.075 -0.1767 -0.6042 -0.7983
   91SAPE  H10X 8959   6.222   5.261   7.081 -1.2768 -1.6582 -1.1830
   91SAPE  H10Y 8960   6.259   5.083   7.098  1.5400 -0.9860  0.9703
   91SAPE  C311 8961   6.350   5.180   6.931 -0.9643  0.3747  0.1007
   91SAPE  H11X 8962   6.405   5.276   6.921  0.0060 -0.3324 -1.7748
   91SAPE  H11Y 8963   6.271   5.184   6.853 -0.2209  0.2042 -0.6742
   91SAPE  C312 8964   6.436   5.062   6.899 -1.4191 -0.2651  0.7321
   91SAPE  H12X 8965   6.384   4.965   6.916  0.2485 -0.6603  4.6674
   91SAPE  H12Y 8966   6.535   5.051   6.948  0.1841  1.6791 -1.8093
   91SAPE  C313 8967   6.460   5.043   6.746  0.5804 -0.7060  1.2563
   91SAPE  H13X 8968   6.504   5.134   6.700  1.3260 -0.5227  2.3077
   91SAPE  H13Y 8969   6.356   5.047   6.707 -1.5497  0.6178  6.2172
   91SAPE  C314 8970   6.546   4.930   6.695  0.8526 -0.3771 -0.1506
   91SAPE  H14X 8971   6.519   4.832   6.740  0.0165 -0.4437 -0.7763
   91SAPE  H14Y 8972   6.650   4.964   6.711  0.3451  0.4431  1.6285
   91SAPE  C315 8973   6.537   4.915   6.544 -0.5727 -0.4078 -0.3240
   91SAPE  H15X 8974   6.577   5.012   6.506  0.9249 -1.0051 -0.3530
   91SAPE  H15Y 8975   6.429   4.915   6.519 -1.2281  0.4697  2.1465
   91SAPE  C316 8976   6.632   4.806   6.492 -0.1584  0.0447  0.1645
   91SAPE  H16X 8977   6.588   4.705   6.506  0.9325 -0.3721  0.6417
   91SAPE  H16Y 8978   6.724   4.826   6.550  0.2167 -1.3190  0.0613
   91SAPE  C317 8979   6.673   4.814   6.347 -0.2925 -0.0737  0.6195
   91SAPE  H17X 8980   6.720   4.912   6.325 -0.1858 -0.0379  0.9921
   91SAPE  H17Y 8981   6.590   4.794   6.276 -0.1016 -1.6739  0.8060
   91SAPE  C318 8982   6.776   4.705   6.313  0.1275 -0.0653 -0.2902
   91SAPE  H18X 8983   6.866   4.709   6.378  0.2065 -2.0208 -0.2091
   91SAPE  H18Y 8984   6.809   4.707   6.208  1.1555  1.1142  0.0386
   91SAPE  H18Z 8985   6.736   4.602   6.321 -1.1911  0.3140 -1.6779
   92SAPE     N 8986   1.705   0.065   8.192  1.0367  0.5001 -0.5622
   92SAPE   HN1 8987   1.805   0.096   8.188  2.0466 -1.8929  2.0382
   92SAPE   HN2 8988   1.640   0.125   8.246 -1.9117 -0.9290 -2.2996
   92SAPE   HN3 8989   1.709  -0.030   8.236  1.9886  0.4015 -0.8262
   92SAPE   C12 8990   1.647   0.046   8.053  0.0061 -0.0935 -0.5552
   92SAPE  H12A 8991   1.637   0.149   8.013  0.3544  0.3359  0.4110
   92SAPE  H12B 8992   1.542   0.016   8.070 -0.6655  2.9460  1.5513
   92SAPE   C11 8993   1.711  -0.058   7.963 -0.3061 -0.2331  0.5699
   92SAPE  H11A 8994   1.815  -0.025   7.940  0.6504 -3.8718 -0.9012
   92SAPE  H11B 8995   1.647  -0.058   7.873  0.1007 -1.1664  0.2744
   92SAPE     P 8996   1.672  -0.317   7.971  0.1723  0.0025  0.1509
   92SAPE   O13 8997   1.743  -0.435   8.026  0.4613 -0.3310 -0.4465
   92SAPE   O14 8998   1.523  -0.322   7.968  0.1908 -0.2778  0.0552
   92SAPE   O12 8999   1.729  -0.187   8.022  0.0889 -0.1236 -0.0207
   92SAPE   O11 9000   1.718  -0.311   7.823 -0.5506  0.1288  0.3368
   92SAPE    C1 9001   1.838  -0.365   7.773 -0.7522 -0.2299 -0.5036
   92SAPE    HA 9002   1.919  -0.294   7.802 -0.5311 -0.8987  0.5386
   92SAPE    HB 9003   1.871  -0.467   7.802  0.7892  0.5714  0.6787
   92SAPE    C2 9004   1.836  -0.374   7.618 -0.2781  0.1907  0.1269
   92SAPE    HS 9005   1.941  -0.348   7.592 -0.0053  1.3143  2.1358
   92SAPE   O21 9006   1.735  -0.291   7.556 -0.2431 -0.4562 -0.3001
   92SAPE   C21 9007   1.764  -0.155   7.560  0.9535  0.7640 -0.2927
   92SAPE   O22 9008   1.867  -0.104   7.589  0.5301 -0.0017 -0.5866
   92SAPE   C22 9009   1.630  -0.083   7.521 -0.3738  0.5672 -0.5341
   92SAPE   H2R 9010   1.557  -0.158   7.484  0.9536 -1.0621  0.0179
   92SAPE   H2S 9011   1.588  -0.036   7.612  1.1775  1.6519 -0.3301
   92SAPE    C3 9012   1.821  -0.529   7.560  0.0522  0.5159 -0.1302
   92SAPE    HX 9013   1.712  -0.542   7.542  0.1814  0.7387 -1.1365
   92SAPE    HY 9014   1.865  -0.595   7.637 -1.0203  1.2333  1.1540
   92SAPE   O31 9015   1.896  -0.548   7.430  0.4851  0.2577 -0.4535
   92SAPE   C31 9016   1.830  -0.513   7.320 -0.8203 -0.1865 -0.5637
   92SAPE   O32 9017   1.727  -0.448   7.320 -0.2282 -0.1580  0.0299
   92SAPE   C32 9018   1.911  -0.559   7.198  0.5319 -0.4601 -0.1820
   92SAPE   H2X 9019   1.946  -0.662   7.216  1.1402 -0.1101  0.6701
   92SAPE   H2Y 9020   2.000  -0.492   7.189 -0.9604  1.4549 -1.7469
   92SAPE   C23 9021   1.647   0.026   7.411  0.0231  0.1861  0.1911
   92SAPE   H3R 9022   1.711   0.115   7.428 -2.1889  2.2889 -1.7378
   92SAPE   H3S 9023   1.543   0.051   7.380  0.1810  0.6051 -0.0044
   92SAPE   C24 9024   1.718  -0.028   7.282 -0.7158 -0.3794 -0.5166
   92SAPE   H4R 9025   1.681  -0.130   7.262 -1.9240 -0.3557  1.3369
   92SAPE   H4S 9026   1.827  -0.034   7.305 -0.5440  1.9526 -0.4868
   92SAPE   C25 9027   1.692   0.062   7.170 -1.0795 -0.2297  0.9457
   92SAPE   H5R 9028   1.717   0.167   7.190 -1.0016  0.1447 -0.8980
   92SAPE   C26 9029   1.641   0.032   7.051  0.9182  0.1971  0.3787
   92SAPE   H6R 9030   1.615   0.115   6.985  0.1493  0.1805  0.6575
   92SAPE   C27 9031   1.594  -0.101   7.006  0.8712  0.7289  0.1688
   92SAPE   H7R 9032   1.525  -0.139   7.084  1.6715 -0.3558  0.3889
   92SAPE   H7S 9033   1.689  -0.158   7.018 -0.5702 -2.1703 -1.0148
   92SAPE   C28 9034   1.528  -0.126   6.875 -0.5641 -0.2576  0.1572
   92SAPE   H8R 9035   1.420  -0.137   6.893 -0.5188 -1.4361 -0.2205
   92SAPE   C29 9036   1.588  -0.154   6.756 -0.3227 -0.0283 -0.2200
   92SAPE   H9R 9037   1.526  -0.151   6.665 -0.4986  2.6760 -0.1013
   92SAPE  C210 9038   1.739  -0.160   6.726  0.2768 -0.4711  0.0171
   92SAPE  H10R 9039   1.757  -0.221   6.636 -0.6509 -0.6689 -0.0497
   92SAPE  H10S 9040   1.781  -0.210   6.816  0.5097  0.7915  0.6333
   92SAPE  C211 9041   1.798  -0.018   6.720  0.6864  0.3977 -0.2387
   92SAPE  H11R 9042   1.824   0.023   6.819  0.3472 -0.2227  0.1115
   92SAPE  C212 9043   1.841   0.046   6.611 -0.1096  0.0004  0.1075
   92SAPE  H12R 9044   1.877   0.148   6.632 -1.4445  0.5933 -0.3506
   92SAPE  C213 9045   1.826  -0.004   6.471 -0.1208 -0.0031  0.5841
   92SAPE  H13R 9046   1.755  -0.089   6.465 -1.6359  1.3060 -1.8436
   92SAPE  H13S 9047   1.929  -0.022   6.432  0.0217  0.8029  0.5641
   92SAPE  C214 9048   1.762   0.104   6.396  0.0588 -0.0723 -0.1582
   92SAPE  H14R 9049   1.815   0.201   6.394  1.7865 -0.9867  0.2933
   92SAPE  C215 9050   1.644   0.095   6.340  0.4702  0.1510 -0.5237
   92SAPE  H15R 9051   1.610   0.188   6.293 -1.5351 -0.9746 -1.4683
   92SAPE  C216 9052   1.559  -0.025   6.332  0.6162  0.9176  0.8088
   92SAPE  H16R 9053   1.568  -0.078   6.428  2.2355 -1.5948 -0.6255
   92SAPE  H16S 9054   1.600  -0.102   6.263 -0.1114 -0.6341  2.0544
   92SAPE  C217 9055   1.418   0.008   6.288 -0.3287 -0.2255 -0.8105
   92SAPE  H17R 9056   1.421   0.042   6.182  2.1711 -1.5794 -1.2480
   92SAPE  H17S 9057   1.369   0.083   6.353 -1.2791 -0.3534 -1.3500
   92SAPE  C218 9058   1.326  -0.109   6.315 -0.3199  0.0705  0.2281
   92SAPE  H18R 9059   1.333  -0.133   6.423 -0.7952 -2.1467 -0.1904
   92SAPE  H18S 9060   1.372  -0.193   6.259 -0.8487  0.1045 -0.2732
   92SAPE  C219 9061   1.182  -0.087   6.278  0.1715  0.1727  0.0188
   92SAPE  H19R 9062   1.170  -0.062   6.170  0.1115  0.9818  0.2094
   92SAPE  H19S 9063   1.152  -0.003   6.344 -0.8396 -0.1880  0.0384
   92SAPE  C220 9064   1.104  -0.212   6.301  0.1457 -0.3353 -0.5770
   92SAPE  H20R 9065   1.099  -0.228   6.411  1.4788 -1.0588 -0.5990
   92SAPE  H20S 9066   1.160  -0.296   6.255  0.2704  0.1839 -1.3823
   92SAPE  H20T 9067   1.002  -0.197   6.259 -1.3892  1.5071  3.2874
   92SAPE   C33 9068   1.823  -0.550   7.070  0.1269 -1.2122  0.2178
   92SAPE   H3X 9069   1.771  -0.452   7.066  0.9589 -0.7628  0.2091
   92SAPE   H3Y 9070   1.756  -0.638   7.068  0.2332 -1.3017  0.4542
   92SAPE   C34 9071   1.913  -0.556   6.944  0.2749  0.3664  0.0967
   92SAPE   H4X 9072   1.972  -0.649   6.938 -1.9909 -1.2052  0.8501
   92SAPE   H4Y 9073   1.989  -0.477   6.926  1.0410 -0.7151 -1.6967
   92SAPE   C35 9074   1.814  -0.560   6.827 -0.2356 -1.2374  0.4759
   92SAPE   H5X 9075   1.756  -0.465   6.835 -1.8978 -2.2106  0.4335
   92SAPE   H5Y 9076   1.743  -0.644   6.843  0.1009 -1.6522 -0.2127
   92SAPE   C36 9077   1.885  -0.554   6.693 -0.3714  0.8811 -0.3381
   92SAPE   H6X 9078   1.943  -0.648   6.699 -2.1562 -0.2016  1.1494
   92SAPE   H6Y 9079   1.957  -0.469   6.697 -2.8858  3.1852 -0.7819
   92SAPE   C37 9080   1.789  -0.537   6.583  0.4240  0.9367  0.2095
   92SAPE   H7X 9081   1.736  -0.445   6.613 -0.4627  0.0015  1.5979
   92SAPE   H7Y 9082   1.715  -0.620   6.587 -0.5765  1.7960 -0.0686
   92SAPE   C38 9083   1.846  -0.533   6.447 -0.2240  0.0564  0.3443
   92SAPE   H8X 9084   1.863  -0.637   6.412  0.6094 -0.4518  2.1461
   92SAPE   H8Y 9085   1.946  -0.484   6.444 -0.3431  0.2427 -1.2709
   92SAPE   C39 9086   1.759  -0.465   6.345 -0.5335  0.0941 -0.0293
   92SAPE   H9X 9087   1.818  -0.450   6.252  1.3876 -2.1601  0.7209
   92SAPE   H9Y 9088   1.733  -0.364   6.385  1.9573 -0.1698  2.6426
   92SAPE  C310 9089   1.634  -0.535   6.311 -0.6793  0.0457  0.1288
   92SAPE  H10X 9090   1.558  -0.554   6.390 -0.3942 -1.5681  0.0435
   92SAPE  H10Y 9091   1.663  -0.637   6.280  0.1997 -0.3322  2.0895
   92SAPE  C311 9092   1.562  -0.450   6.203 -0.6011  0.4527  0.3120
   92SAPE  H11X 9093   1.628  -0.462   6.114  1.3655  0.8216  1.6528
   92SAPE  H11Y 9094   1.556  -0.342   6.228  2.1002  1.2942 -2.1316
   92SAPE  C312 9095   1.423  -0.506   6.160 -0.4552  0.1467  0.3852
   92SAPE  H12X 9096   1.350  -0.477   6.239 -2.5233  0.5350 -1.5917
   92SAPE  H12Y 9097   1.445  -0.615   6.163  1.6440  0.5338  0.4215
   92SAPE  C313 9098   1.377  -0.453   6.025  0.0024  0.3159 -0.6329
   92SAPE  H13X 9099   1.461  -0.476   5.956  1.9072  1.9610  1.0017
   92SAPE  H13Y 9100   1.347  -0.348   6.043 -1.2967 -0.1143 -0.1687
   92SAPE  C314 9101   1.243  -0.523   5.977 -0.8831  0.0226  0.8727
   92SAPE  H14X 9102   1.211  -0.483   5.878  0.7897  0.4243  0.4527
   92SAPE  H14Y 9103   1.156  -0.489   6.036 -2.5880 -0.2881 -1.3186
   92SAPE  C315 9104   1.237  -0.675   5.969  0.0680 -0.2736  0.2221
   92SAPE  H15X 9105   1.133  -0.712   5.980  0.5469 -1.4842  0.8918
   92SAPE  H15Y 9106   1.293  -0.719   6.054 -2.6154 -5.0357 -0.1350
   92SAPE  C316 9107   1.277  -0.739   5.832 -0.3278 -0.0798  0.3646
   92SAPE  H16X 9108   1.291  -0.849   5.837  1.5856  0.1304  0.4355
   92SAPE  H16Y 9109   1.374  -0.698   5.797 -0.6203  1.5155  1.3211
   92SAPE  C317 9110   1.179  -0.716   5.720 -0.0777  0.5164 -0.3515
   92SAPE  H17X 9111   1.180  -0.606   5.702 -1.3146  0.9249  1.7140
   92SAPE  H17Y 9112   1.078  -0.743   5.755 -0.3951  2.6192  0.5226
   92SAPE  C318 9113   1.218  -0.798   5.589  0.1957 -0.2159 -0.1752
   92SAPE  H18X 9114   1.167  -0.764   5.497 -1.8843 -0.4884  0.8269
   92SAPE  H18Y 9115   1.197  -0.906   5.606 -2.1461  0.1910 -0.1542
   92SAPE  H18Z 9116   1.327  -0.776   5.581  0.3446 -0.6517  0.4809
   93SAPE     N 9117   3.372   4.279   8.247  1.0554  0.5076  0.2477
   93SAPE   HN1 9118   3.453   4.342   8.226 -0.7666  2.1359 -2.6070
   93SAPE   HN2 9119   3.308   4.317   8.320 -1.1552 -1.4821 -0.5390
   93SAPE   HN3 9120   3.419   4.198   8.292  0.3919 -0.0191  0.0104
   93SAPE   C12 9121   3.301   4.230   8.120  0.6643  0.9645  1.4013
   93SAPE  H12A 9122   3.368   4.151   8.081  0.2244 -0.8573  4.0471
   93SAPE  H12B 9123   3.296   4.310   8.043  1.2711  0.9983  1.3960
   93SAPE   C11 9124   3.156   4.177   8.141 -0.4204 -0.3840  0.0373
   93SAPE  H11A 9125   3.117   4.139   8.044  3.8736 -0.3684 -1.9274
   93SAPE  H11B 9126   3.095   4.260   8.184 -0.5889 -0.2437 -0.4670
   93SAPE     P 9127   3.054   3.979   8.283  0.2075  0.2741  0.4268
   93SAPE   O13 9128   3.109   3.886   8.378 -0.1475 -0.5339 -0.6328
   93SAPE   O14 9129   2.936   4.053   8.334  0.2739 -0.0354 -0.4257
   93SAPE   O12 9130   3.174   4.081   8.242  0.1106  0.2765 -0.7455
   93SAPE   O11 9131   3.017   3.912   8.145 -0.1370  0.2775  0.0709
   93SAPE    C1 9132   3.123   3.874   8.052  0.6564  0.0005 -0.5053
   93SAPE    HA 9133   3.213   3.939   8.049  2.0487 -1.7994  0.5747
   93SAPE    HB 9134   3.170   3.778   8.081 -2.6175 -1.1436  1.5442
   93SAPE    C2 9135   3.060   3.871   7.901  0.8494 -0.1501 -0.4414
   93SAPE    HS 9136   3.139   3.823   7.839  1.1930  2.7582 -2.4596
   93SAPE   O21 9137   3.009   3.995   7.864  0.6741 -0.1591  0.0100
   93SAPE   C21 9138   3.023   4.024   7.735 -0.5004 -0.9959 -0.4788
   93SAPE   O22 9139   3.096   3.959   7.660  0.4824 -0.9202  0.4569
   93SAPE   C22 9140   2.927   4.139   7.698  0.6563 -0.8314 -0.1587
   93SAPE   H2R 9141   2.884   4.178   7.793  1.0769 -1.9942  0.5282
   93SAPE   H2S 9142   2.982   4.215   7.638  0.4026 -0.7054 -0.2318
   93SAPE    C3 9143   2.935   3.777   7.907 -0.5036  0.4440  0.2951
   93SAPE    HX 9144   2.854   3.833   7.960  0.7218  0.3271  2.4297
   93SAPE    HY 9145   2.963   3.687   7.966 -0.4143 -0.0696 -0.5161
   93SAPE   O31 9146   2.891   3.740   7.779  0.2454  0.6371  0.2183
   93SAPE   C31 9147   2.953   3.644   7.722  0.1862  0.5701  0.2819
   93SAPE   O32 9148   3.064   3.603   7.758 -0.5169  0.1187  0.5479
   93SAPE   C32 9149   2.868   3.591   7.605  0.3538  0.2735 -0.3705
   93SAPE   H2X 9150   2.862   3.666   7.524 -1.1283  0.5791  0.0054
   93SAPE   H2Y 9151   2.768   3.585   7.651 -0.3143 -2.3161 -1.9792
   93SAPE   C23 9152   2.808   4.090   7.611  0.7208 -0.7661 -0.0100
   93SAPE   H3R 9153   2.740   4.176   7.593  0.1168 -0.9212  1.4308
   93SAPE   H3S 9154   2.743   4.018   7.665 -0.2792  0.9067  1.1185
   93SAPE   C24 9155   2.846   4.043   7.473  0.0554  0.1344  0.6717
   93SAPE   H4R 9156   2.760   3.996   7.419  0.4300  0.2155 -0.0165
   93SAPE   H4S 9157   2.917   3.958   7.479  0.0246 -0.1199 -1.6575
   93SAPE   C25 9158   2.895   4.154   7.379  0.4012 -0.4161 -0.4020
   93SAPE   H5R 9159   2.847   4.252   7.393 -0.6429 -0.9746 -0.0221
   93SAPE   C26 9160   2.977   4.153   7.274 -0.1559 -0.1558 -0.0436
   93SAPE   H6R 9161   3.010   4.244   7.222  1.0684 -1.9496 -2.6054
   93SAPE   C27 9162   3.033   4.025   7.221  0.0118  0.8051 -0.8681
   93SAPE   H7R 9163   3.071   3.959   7.303 -0.9603  1.6690  0.3221
   93SAPE   H7S 9164   3.125   4.050   7.164 -0.5839  1.0280 -1.7504
   93SAPE   C28 9165   2.927   3.954   7.140 -0.1334 -0.5303  0.5011
   93SAPE   H8R 9166   2.848   3.908   7.201 -0.5789  1.0788  1.1894
   93SAPE   C29 9167   2.898   3.969   7.009 -0.7795  0.1265  0.5744
   93SAPE   H9R 9168   2.817   3.905   6.970 -0.6404 -0.0988  0.6557
   93SAPE  C210 9169   2.983   4.042   6.907 -0.1535  0.1040  0.2286
   93SAPE  H10R 9170   3.012   3.980   6.820  0.8064  3.6033 -2.1957
   93SAPE  H10S 9171   3.086   4.065   6.944  0.7574 -0.6559 -1.7314
   93SAPE  C211 9172   2.922   4.172   6.874  0.1326  0.5366 -0.1021
   93SAPE  H11R 9173   2.890   4.227   6.964  0.9323 -0.9009  1.1027
   93SAPE  C212 9174   2.911   4.227   6.750 -0.1357 -0.3291 -0.5786
   93SAPE  H12R 9175   2.854   4.321   6.737 -0.9020 -0.8204 -0.8691
   93SAPE  C213 9176   2.944   4.166   6.618 -0.7678 -0.1818  0.6517
   93SAPE  H13R 9177   2.862   4.100   6.583  0.8108 -1.8975  0.0331
   93SAPE  H13S 9178   3.030   4.096   6.632 -2.0476 -2.0614 -0.4765
   93SAPE  C214 9179   2.967   4.268   6.502  0.6411 -0.4813 -0.5496
   93SAPE  H14R 9180   3.032   4.343   6.550 -0.7228 -0.6200  1.6370
   93SAPE  C215 9181   2.930   4.274   6.372 -0.5409  0.4549  0.2608
   93SAPE  H15R 9182   2.969   4.358   6.313  0.4675 -0.6418 -0.6982
   93SAPE  C216 9183   2.845   4.170   6.307 -0.4545 -0.4834  0.5642
   93SAPE  H16R 9184   2.740   4.178   6.343 -0.6444  0.9533 -0.2477
   93SAPE  H16S 9185   2.883   4.068   6.328  0.1594  0.0366  2.1804
   93SAPE  C217 9186   2.852   4.178   6.151 -0.0179 -0.0450  0.3487
   93SAPE  H17R 9187   2.959   4.181   6.120  0.2617  0.2421  1.3231
   93SAPE  H17S 9188   2.794   4.268   6.121 -0.2119  0.1780  1.3469
   93SAPE  C218 9189   2.796   4.052   6.079 -0.1317 -0.0734 -0.6794
   93SAPE  H18R 9190   2.831   3.957   6.124  1.4901  1.2787  1.0621
   93SAPE  H18S 9191   2.832   4.054   5.974  0.9725 -1.4910 -0.3633
   93SAPE  C219 9192   2.637   4.069   6.084  0.8155  0.1530 -0.0823
   93SAPE  H19R 9193   2.609   4.171   6.051  1.2004  0.2514 -0.1005
   93SAPE  H19S 9194   2.607   4.059   6.190 -0.3926 -1.6941 -0.5499
   93SAPE  C220 9195   2.573   3.961   5.988 -0.3598  0.6383 -0.2079
   93SAPE  H20R 9196   2.464   3.981   5.987 -0.5301 -0.2514 -0.2916
   93SAPE  H20S 9197   2.595   3.858   6.024  0.1405  1.3493  1.6513
   93SAPE  H20T 9198   2.616   3.978   5.887  0.1554  1.2960  0.1119
   93SAPE   C33 9199   2.898   3.453   7.538  0.2398 -0.0037 -0.4359
   93SAPE   H3X 9200   2.935   3.376   7.607 -0.7032 -0.0861  0.0020
   93SAPE   H3Y 9201   2.989   3.477   7.479  1.1388  1.2847  1.3932
   93SAPE   C34 9202   2.764   3.400   7.462  0.1872 -0.4756  0.2350
   93SAPE   H4X 9203   2.782   3.297   7.424 -0.1047 -0.0028 -1.2655
   93SAPE   H4Y 9204   2.739   3.459   7.371 -3.7233 -1.5453  0.4502
   93SAPE   C35 9205   2.637   3.382   7.551 -0.8386  0.0880 -0.2368
   93SAPE   H5X 9206   2.616   3.462   7.626  0.5083  1.6893 -1.4927
   93SAPE   H5Y 9207   2.672   3.300   7.617 -2.7047  1.9955  3.4684
   93SAPE   C36 9208   2.502   3.356   7.469 -0.3300 -0.9336 -0.6666
   93SAPE   H6X 9209   2.522   3.270   7.401  1.0097 -1.4199  0.2861
   93SAPE   H6Y 9210   2.493   3.444   7.402  4.1993  0.9587  0.8440
   93SAPE   C37 9211   2.383   3.331   7.567 -0.2198  0.6924  0.7754
   93SAPE   H7X 9212   2.367   3.429   7.617 -2.0461 -0.0684  1.7905
   93SAPE   H7Y 9213   2.422   3.253   7.636  1.6049  0.1290 -0.7944
   93SAPE   C38 9214   2.248   3.298   7.491  0.0458  0.3636 -0.9950
   93SAPE   H8X 9215   2.157   3.308   7.554 -0.3485  0.6032 -1.5847
   93SAPE   H8Y 9216   2.259   3.189   7.472  0.5437 -0.1208  1.7021
   93SAPE   C39 9217   2.223   3.382   7.362 -0.8951 -0.1909 -0.1159
   93SAPE   H9X 9218   2.291   3.468   7.347 -0.4702 -0.9206 -2.8248
   93SAPE   H9Y 9219   2.127   3.435   7.380  0.3695  1.5535  2.1329
   93SAPE  C310 9220   2.200   3.301   7.235  0.3660 -0.1516 -0.9290
   93SAPE  H10X 9221   2.116   3.229   7.236  1.1887 -1.1419 -0.7433
   93SAPE  H10Y 9222   2.289   3.236   7.217  0.3347 -0.1888 -0.9498
   93SAPE  C311 9223   2.167   3.390   7.115 -0.0639 -0.6840 -0.0461
   93SAPE  H11X 9224   2.241   3.471   7.095 -0.7360  0.1846  0.8837
   93SAPE  H11Y 9225   2.062   3.428   7.115  0.2774  0.3201 -0.6329
   93SAPE  C312 9226   2.163   3.320   6.975 -0.5700  0.0818 -0.0065
   93SAPE  H12X 9227   2.110   3.383   6.901  0.4963  1.6268  0.4907
   93SAPE  H12Y 9228   2.125   3.215   6.977  1.7903 -0.8456  2.4642
   93SAPE  C313 9229   2.305   3.299   6.914 -0.2158  0.3445 -0.4268
   93SAPE  H13X 9230   2.370   3.239   6.981 -0.7682  0.7898  0.5302
   93SAPE  H13Y 9231   2.354   3.397   6.900 -0.0664  0.4840  0.9402
   93SAPE  C314 9232   2.295   3.217   6.780 -0.0871  0.4323  0.0006
   93SAPE  H14X 9233   2.220   3.142   6.814  1.1753 -0.0022  1.9755
   93SAPE  H14Y 9234   2.390   3.163   6.761 -0.3207  0.2774 -0.7409
   93SAPE  C315 9235   2.264   3.306   6.662  0.1076  0.0035  0.6787
   93SAPE  H15X 9236   2.324   3.399   6.669 -0.1592  0.5403 -2.5196
   93SAPE  H15Y 9237   2.158   3.338   6.667  0.2260  0.5242 -0.0002
   93SAPE  C316 9238   2.311   3.243   6.530 -0.3497 -0.0740  0.1677
   93SAPE  H16X 9239   2.250   3.152   6.511  0.6969 -0.4653 -1.6119
   93SAPE  H16Y 9240   2.417   3.209   6.539  0.4201  1.7221 -1.4311
   93SAPE  C317 9241   2.309   3.345   6.415  0.2772 -0.4771 -0.7704
   93SAPE  H17X 9242   2.378   3.424   6.450  2.3989 -2.5244 -0.0765
   93SAPE  H17Y 9243   2.211   3.395   6.398  0.6877  0.2159 -1.1243
   93SAPE  C318 9244   2.352   3.281   6.282  0.1088  0.2115  0.1232
   93SAPE  H18X 9245   2.446   3.224   6.299  0.7014  1.2679  0.4067
   93SAPE  H18Y 9246   2.379   3.359   6.208  3.1507 -1.1775 -0.3982
   93SAPE  H18Z 9247   2.275   3.210   6.243 -0.1743 -0.2470  1.4548
   94SAPE     N 9248   3.639   6.216   8.505 -0.1907 -0.0629 -0.2327
   94SAPE   HN1 9249   3.584   6.183   8.587  1.1986 -4.8343 -0.9048
   94SAPE   HN2 9250   3.734   6.174   8.512 -0.0939  0.4190  2.5752
   94SAPE   HN3 9251   3.660   6.317   8.496  1.4324 -0.4112 -0.6804
   94SAPE   C12 9252   3.594   6.173   8.376 -0.2543  0.5332 -0.3105
   94SAPE  H12A 9253   3.488   6.207   8.370 -0.4902  0.1683  1.3829
   94SAPE  H12B 9254   3.592   6.062   8.366  1.1146  0.5893 -1.6750
   94SAPE   C11 9255   3.670   6.250   8.263 -0.4098 -0.0106  0.5449
   94SAPE  H11A 9256   3.617   6.233   8.167  2.1708 -3.1133 -0.4901
   94SAPE  H11B 9257   3.771   6.208   8.247  0.5198  1.9634  0.8894
   94SAPE     P 9258   3.566   6.493   8.278  0.4419 -0.2018  0.2800
   94SAPE   O13 9259   3.449   6.449   8.358 -0.2448 -0.4298 -0.1944
   94SAPE   O14 9260   3.610   6.628   8.314 -0.7384  0.3212  0.4337
   94SAPE   O12 9261   3.682   6.390   8.298 -0.0041  0.0814 -0.0456
   94SAPE   O11 9262   3.540   6.478   8.122  0.0111  0.2970  0.1893
   94SAPE    C1 9263   3.643   6.502   8.016  0.1594  0.1847 -0.8072
   94SAPE    HA 9264   3.728   6.430   8.022 -0.4409 -0.4370  0.6977
   94SAPE    HB 9265   3.600   6.480   7.916 -1.2651 -2.7550  0.3639
   94SAPE    C2 9266   3.686   6.648   8.014 -0.2979  0.7682 -0.1385
   94SAPE    HS 9267   3.752   6.667   8.102 -0.5671 -1.7633  0.6824
   94SAPE   O21 9268   3.564   6.720   7.995 -0.7322  0.3597  0.3032
   94SAPE   C21 9269   3.563   6.853   8.021 -0.1897 -0.4962  0.2911
   94SAPE   O22 9270   3.641   6.906   8.097  0.3186  0.0606 -0.1309
   94SAPE   C22 9271   3.442   6.917   7.969 -0.2394  0.1829 -0.0047
   94SAPE   H2R 9272   3.384   6.848   7.903 -0.1011  0.4724 -0.4363
   94SAPE   H2S 9273   3.367   6.947   8.046 -0.7594  2.6740 -1.3832
   94SAPE    C3 9274   3.784   6.672   7.887  0.0279  0.8220 -1.1588
   94SAPE    HX 9275   3.882   6.619   7.894 -1.4843 -2.0929 -0.3352
   94SAPE    HY 9276   3.805   6.781   7.894  1.2604  0.5191  0.5092
   94SAPE   O31 9277   3.725   6.633   7.762  0.3537 -0.3734  0.0993
   94SAPE   C31 9278   3.793   6.680   7.658  0.7463  0.0924 -0.7790
   94SAPE   O32 9279   3.901   6.733   7.665  0.0253 -0.2640  0.0770
   94SAPE   C32 9280   3.712   6.651   7.535 -0.1836  0.6119 -0.0992
   94SAPE   H2X 9281   3.621   6.709   7.560 -1.3669 -1.5202  0.8439
   94SAPE   H2Y 9282   3.680   6.544   7.533 -1.8048  1.0415  0.6823
   94SAPE   C23 9283   3.455   7.054   7.890 -0.0785 -0.3010 -0.2152
   94SAPE   H3R 9284   3.470   7.136   7.963 -0.7028  0.2131 -0.6595
   94SAPE   H3S 9285   3.358   7.079   7.842 -0.4424 -2.4075 -0.6661
   94SAPE   C24 9286   3.576   7.062   7.797 -0.4552 -0.6528 -0.4719
   94SAPE   H4R 9287   3.674   7.052   7.849 -0.0953  1.0065 -0.7642
   94SAPE   H4S 9288   3.586   7.154   7.735  1.3453 -0.4808  0.0135
   94SAPE   C25 9289   3.559   6.949   7.697 -0.5617 -0.0791 -0.8378
   94SAPE   H5R 9290   3.583   6.849   7.735 -0.2519  0.2858 -0.0530
   94SAPE   C26 9291   3.494   6.960   7.580  0.2350  0.1379 -0.5055
   94SAPE   H6R 9292   3.493   6.868   7.520  0.6448 -0.3223  0.1738
   94SAPE   C27 9293   3.434   7.086   7.514 -0.3080 -0.2999  0.6601
   94SAPE   H7R 9294   3.382   7.148   7.590 -0.2071 -1.3417  1.5974
   94SAPE   H7S 9295   3.354   7.051   7.446 -0.0517  0.9684 -0.3305
   94SAPE   C28 9296   3.536   7.163   7.434  0.3102  0.4338  1.0949
   94SAPE   H8R 9297   3.613   7.222   7.487  0.7878 -0.0470  0.9408
   94SAPE   C29 9298   3.544   7.165   7.298  0.1245  0.0690 -0.3559
   94SAPE   H9R 9299   3.626   7.231   7.265 -1.5829  2.4773 -0.0087
   94SAPE  C210 9300   3.456   7.111   7.186 -0.2064  0.6057  0.1685
   94SAPE  H10R 9301   3.437   7.196   7.117  1.2616  0.2044 -0.7888
   94SAPE  H10S 9302   3.360   7.091   7.238  1.5700 -2.6636  2.5529
   94SAPE  C211 9303   3.495   6.980   7.113  0.3756  0.6211 -0.2031
   94SAPE  H11R 9304   3.566   6.913   7.165  0.4379 -0.2570 -1.3944
   94SAPE  C212 9305   3.457   6.959   6.983  0.4165  0.6129 -0.6572
   94SAPE  H12R 9306   3.475   6.859   6.941 -1.3817  0.2489 -0.6378
   94SAPE  C213 9307   3.384   7.058   6.890 -0.4391  0.6565  0.1203
   94SAPE  H13R 9308   3.453   7.143   6.868  0.2426 -0.1883 -1.1454
   94SAPE  H13S 9309   3.298   7.098   6.948 -0.7729  1.9266 -1.1616
   94SAPE  C214 9310   3.325   7.008   6.766  0.2708  0.0788  0.0746
   94SAPE  H14R 9311   3.320   6.899   6.758  1.7618 -0.5506  4.6282
   94SAPE  C215 9312   3.292   7.081   6.665 -0.5133 -0.4328 -0.4703
   94SAPE  H15R 9313   3.249   7.035   6.575 -0.0268 -0.2187 -0.8111
   94SAPE  C216 9314   3.278   7.238   6.679 -0.6244  0.4762  0.3875
   94SAPE  H16R 9315   3.284   7.280   6.782 -0.4028  1.8179 -0.1499
   94SAPE  H16S 9316   3.179   7.275   6.645  1.0647  2.6296 -2.6320
   94SAPE  C217 9317   3.390   7.284   6.594 -0.5898  0.0879  0.0065
   94SAPE  H17R 9318   3.486   7.244   6.634 -0.6898 -0.8637 -0.6688
   94SAPE  H17S 9319   3.386   7.394   6.609  0.1923  0.0662  0.4282
   94SAPE  C218 9320   3.363   7.261   6.443 -1.0164 -0.0657  0.0068
   94SAPE  H18R 9321   3.253   7.261   6.424 -1.2315 -0.5947  1.1872
   94SAPE  H18S 9322   3.408   7.168   6.402  1.5619  0.2778  1.8681
   94SAPE  C219 9323   3.423   7.370   6.362 -0.2038  0.2095  0.6805
   94SAPE  H19R 9324   3.533   7.360   6.363 -0.3381 -3.6138 -1.6160
   94SAPE  H19S 9325   3.400   7.468   6.408  1.7420  1.4589 -0.8295
   94SAPE  C220 9326   3.378   7.384   6.211  0.8426  0.1831 -0.2900
   94SAPE  H20R 9327   3.268   7.377   6.194  1.0962 -1.0046 -1.6392
   94SAPE  H20S 9328   3.423   7.303   6.149  0.7328 -2.0736  2.3921
   94SAPE  H20T 9329   3.412   7.481   6.168  0.1998  0.0300 -1.1763
   94SAPE   C33 9330   3.770   6.701   7.406  0.7451  0.2765  0.5285
   94SAPE   H3X 9331   3.877   6.676   7.396  1.4059  2.2671  2.1360
   94SAPE   H3Y 9332   3.752   6.811   7.400 -2.3076 -0.1055  0.7871
   94SAPE   C34 9333   3.705   6.635   7.282 -0.5447 -0.4963  0.3405
   94SAPE   H4X 9334   3.596   6.655   7.287 -1.0062 -2.8183  1.1345
   94SAPE   H4Y 9335   3.726   6.526   7.292 -0.4554 -0.8669 -2.8227
   94SAPE   C35 9336   3.748   6.691   7.135  0.1908 -0.1476 -0.4069
   94SAPE   H5X 9337   3.857   6.708   7.128 -0.2953  3.6247 -1.4367
   94SAPE   H5Y 9338   3.708   6.795   7.138  1.6683  0.4447  2.6621
   94SAPE   C36 9339   3.699   6.598   7.022  0.0483 -0.4442 -1.2213
   94SAPE   H6X 9340   3.754   6.506   7.049 -0.8878 -0.5453  0.4438
   94SAPE   H6Y 9341   3.728   6.639   6.923  0.0470 -0.6054 -1.2887
   94SAPE   C37 9342   3.551   6.562   7.005 -0.9688  0.1633 -0.1584
   94SAPE   H7X 9343   3.488   6.653   6.997 -2.3361 -0.8694 -1.6688
   94SAPE   H7Y 9344   3.512   6.507   7.094 -1.8608 -3.1257 -2.4163
   94SAPE   C38 9345   3.535   6.468   6.875  0.7158 -0.2078  0.2729
   94SAPE   H8X 9346   3.492   6.372   6.910  0.5052 -1.0665 -2.1616
   94SAPE   H8Y 9347   3.628   6.462   6.815 -0.0309  1.2479 -1.1244
   94SAPE   C39 9348   3.422   6.526   6.782 -0.8137  0.5149 -0.2784
   94SAPE   H9X 9349   3.456   6.629   6.761  0.3802  0.3834  0.9660
   94SAPE   H9Y 9350   3.329   6.533   6.842 -0.1476  1.4875  0.6685
   94SAPE  C310 9351   3.402   6.451   6.650  0.5954  0.4728  1.1079
   94SAPE  H10X 9352   3.363   6.350   6.674 -2.1408  1.0663 -0.3185
   94SAPE  H10Y 9353   3.497   6.438   6.595 -0.7673  0.8398 -1.5149
   94SAPE  C311 9354   3.298   6.510   6.555 -0.4154 -0.6293  0.3328
   94SAPE  H11X 9355   3.304   6.619   6.537  0.7659 -0.8327 -0.6956
   94SAPE  H11Y 9356   3.192   6.492   6.584 -1.5661  0.4681 -2.7484
   94SAPE  C312 9357   3.290   6.429   6.426 -0.3421 -0.0016 -0.4724
   94SAPE  H12X 9358   3.269   6.325   6.460  2.3004 -0.5740 -0.3698
   94SAPE  H12Y 9359   3.390   6.416   6.377 -1.0195 -1.5466 -1.5453
   94SAPE  C313 9360   3.182   6.469   6.327  0.1043  0.4406 -0.2606
   94SAPE  H13X 9361   3.184   6.579   6.316  0.3617  0.2768 -2.2478
   94SAPE  H13Y 9362   3.088   6.425   6.368 -1.3940  3.8062  0.2389
   94SAPE  C314 9363   3.203   6.401   6.184  0.0168 -0.2759 -0.0528
   94SAPE  H14X 9364   3.212   6.292   6.203  2.9229 -0.2888 -0.9914
   94SAPE  H14Y 9365   3.297   6.449   6.150 -0.2974 -0.3463 -1.0397
   94SAPE  C315 9366   3.087   6.428   6.076 -0.7298 -0.3515  0.1721
   94SAPE  H15X 9367   3.089   6.538   6.057 -1.5449 -0.5087 -0.8955
   94SAPE  H15Y 9368   2.997   6.399   6.134 -0.1251 -1.0609  0.7692
   94SAPE  C316 9369   3.112   6.354   5.949  0.6360  0.3469  0.3608
   94SAPE  H16X 9370   3.024   6.372   5.883  0.2165 -1.0056  0.5136
   94SAPE  H16Y 9371   3.123   6.245   5.967 -2.1108  0.2091  1.7448
   94SAPE  C317 9372   3.230   6.416   5.871 -1.0565  0.2931  0.1609
   94SAPE  H17X 9373   3.315   6.396   5.939  1.3203 -0.3023 -2.7847
   94SAPE  H17Y 9374   3.224   6.523   5.843 -2.9966  0.8341  2.2586
   94SAPE  C318 9375   3.245   6.345   5.744 -0.1101 -0.0844  0.2149
   94SAPE  H18X 9376   3.329   6.381   5.680  0.1213 -1.6658 -0.4154
   94SAPE  H18Y 9377   3.147   6.348   5.692  0.1627  1.6561 -0.2895
   94SAPE  H18Z 9378   3.277   6.241   5.766 -4.2763 -1.2487  1.5142
   95SAPE     N 9379   0.522   3.720   8.540  0.3995 -0.1089 -0.0125
   95SAPE   HN1 9380   0.559   3.795   8.603  1.7932 -0.5998 -0.1956
   95SAPE   HN2 9381   0.434   3.682   8.579  0.2137  0.7637  0.4450
   95SAPE   HN3 9382   0.592   3.645   8.522 -0.4295 -0.7731 -0.4965
   95SAPE   C12 9383   0.484   3.787   8.404  0.0085 -0.0717  0.6767
   95SAPE  H12A 9384   0.461   3.705   8.333 -0.1603  0.1318  0.4922
   95SAPE  H12B 9385   0.577   3.828   8.360 -0.5149  3.1279  2.2521
   95SAPE   C11 9386   0.373   3.892   8.410  0.1518  0.5299  0.0426
   95SAPE  H11A 9387   0.278   3.834   8.415  0.7443 -0.4202  0.6672
   95SAPE  H11B 9388   0.366   3.949   8.314 -1.1946  0.8187  0.2993
   95SAPE     P 9389   0.373   4.136   8.516  0.0983  0.3786  0.0842
   95SAPE   O13 9390   0.227   4.172   8.503 -0.2208  0.3408  1.1069
   95SAPE   O14 9391   0.457   4.207   8.622  0.2699  0.0133 -0.3193
   95SAPE   O12 9392   0.390   3.976   8.516  0.0160 -0.1105 -0.3203
   95SAPE   O11 9393   0.437   4.173   8.376  0.2304  0.3107  0.6958
   95SAPE    C1 9394   0.551   4.235   8.336  0.0713  0.2474  0.4540
   95SAPE    HA 9395   0.563   4.339   8.373 -0.7447  0.2921  0.6005
   95SAPE    HB 9396   0.644   4.184   8.370 -1.0014 -0.4221  2.6159
   95SAPE    C2 9397   0.554   4.243   8.180 -0.3730  0.3593 -0.6318
   95SAPE    HS 9398   0.448   4.228   8.151 -0.5687  0.7683 -0.1422
   95SAPE   O21 9399   0.642   4.137   8.129  0.7242 -0.2142  0.3758
   95SAPE   C21 9400   0.593   4.074   8.022 -0.1738 -0.6286 -0.2481
   95SAPE   O22 9401   0.495   4.097   7.955 -0.2201  0.0587 -0.2280
   95SAPE   C22 9402   0.692   3.958   8.004 -0.1388  0.1864 -0.0724
   95SAPE   H2R 9403   0.790   4.001   7.974 -1.7788  1.9110 -3.5539
   95SAPE   H2S 9404   0.712   3.913   8.103  0.9995  0.2353 -0.2731
   95SAPE    C3 9405   0.592   4.378   8.118 -0.0432  0.1410  0.1016
   95SAPE    HX 9406   0.697   4.389   8.154 -0.8186  0.9522  2.2473
   95SAPE    HY 9407   0.532   4.459   8.164  1.2683 -0.4297  3.0388
   95SAPE   O31 9408   0.581   4.374   7.974 -0.0151 -0.0419  0.0395
   95SAPE   C31 9409   0.461   4.398   7.920  0.2291  0.4043 -0.8603
   95SAPE   O32 9410   0.359   4.409   7.985 -0.1228  0.5276  0.3686
   95SAPE   C32 9411   0.478   4.406   7.773 -0.5122  0.3389  0.6090
   95SAPE   H2X 9412   0.519   4.313   7.730 -1.0879 -0.1506  1.0996
   95SAPE   H2Y 9413   0.554   4.487   7.764  0.5276 -0.7314 -0.5213
   95SAPE   C23 9414   0.654   3.850   7.899  0.2660  0.6169 -1.0518
   95SAPE   H3R 9415   0.552   3.812   7.921 -0.1942  1.2788 -1.9821
   95SAPE   H3S 9416   0.718   3.759   7.901 -0.2101  0.1499 -3.4938
   95SAPE   C24 9417   0.653   3.886   7.754 -0.0426  0.3469  0.6486
   95SAPE   H4R 9418   0.741   3.941   7.715 -0.9779  0.8551 -0.8050
   95SAPE   H4S 9419   0.575   3.965   7.746  0.3654  0.7253  0.4289
   95SAPE   C25 9420   0.614   3.775   7.653 -0.6962 -0.2457  0.3327
   95SAPE   H5R 9421   0.621   3.672   7.690  1.8325 -0.1324  0.3163
   95SAPE   C26 9422   0.553   3.783   7.536 -0.0103 -0.7477  0.1499
   95SAPE   H6R 9423   0.537   3.688   7.483  0.4256 -1.7491  1.7513
   95SAPE   C27 9424   0.514   3.913   7.466 -0.2684 -0.6067  0.1704
   95SAPE   H7R 9425   0.544   3.898   7.360 -0.6673  0.8094 -0.1579
   95SAPE   H7S 9426   0.582   3.997   7.489  0.5799 -1.6011  1.4614
   95SAPE   C28 9427   0.365   3.933   7.486  0.1065  0.1952  0.5367
   95SAPE   H8R 9428   0.335   3.940   7.592  1.2447  0.8531  0.8360
   95SAPE   C29 9429   0.282   3.954   7.385 -0.0842  0.4389 -0.7038
   95SAPE   H9R 9430   0.175   3.973   7.405 -0.2822 -1.0762 -0.2412
   95SAPE  C210 9431   0.306   3.960   7.234 -0.2233 -0.2519 -0.5452
   95SAPE  H10R 9432   0.374   3.878   7.202 -1.2736 -0.9283 -1.0980
   95SAPE  H10S 9433   0.356   4.056   7.207  1.2781 -0.2913  1.7487
   95SAPE  C211 9434   0.180   3.938   7.152 -0.8666 -0.4894 -0.1614
   95SAPE  H11R 9435   0.101   3.886   7.208  0.2079 -0.2952  1.6120
   95SAPE  C212 9436   0.180   3.968   7.015 -0.1031  0.6723  0.2290
   95SAPE  H12R 9437   0.081   3.952   6.971 -0.8883  1.5259  1.6171
   95SAPE  C213 9438   0.281   4.036   6.933 -0.1431 -0.4926 -0.2039
   95SAPE  H13R 9439   0.341   3.957   6.885  2.8483  1.7127 -0.4058
   95SAPE  H13S 9440   0.354   4.088   6.999 -1.9469  1.1753  0.6281
   95SAPE  C214 9441   0.222   4.129   6.830 -0.1241  0.0253  0.2933
   95SAPE  H14R 9442   0.223   4.239   6.835  1.2279  0.1709 -1.8316
   95SAPE  C215 9443   0.172   4.077   6.717  0.3064 -0.7842  0.0502
   95SAPE  H15R 9444   0.125   4.152   6.652 -1.6627 -2.0915 -0.1298
   95SAPE  C216 9445   0.157   3.930   6.683 -0.1666  0.7791  0.4285
   95SAPE  H16R 9446   0.056   3.897   6.715 -0.3020  1.9239  1.2252
   95SAPE  H16S 9447   0.234   3.863   6.728 -1.3919 -1.7516 -1.0455
   95SAPE  C217 9448   0.171   3.915   6.528 -0.3296  0.0925 -0.4176
   95SAPE  H17R 9449   0.109   3.994   6.480 -1.3030 -0.6245 -0.3680
   95SAPE  H17S 9450   0.129   3.814   6.507 -1.3744  0.1299  1.3647
   95SAPE  C218 9451   0.320   3.922   6.476 -0.4006  0.4922  0.0481
   95SAPE  H18R 9452   0.357   3.844   6.546  1.9364 -1.0783 -2.7509
   95SAPE  H18S 9453   0.368   4.021   6.496  0.7791 -0.1645  0.5546
   95SAPE  C219 9454   0.345   3.899   6.329  0.0474  0.4874 -0.2015
   95SAPE  H19R 9455   0.454   3.890   6.311  0.3141  3.0855 -0.2583
   95SAPE  H19S 9456   0.313   3.985   6.267 -0.3647  0.1528 -0.4598
   95SAPE  C220 9457   0.265   3.777   6.277 -0.6575  0.5589 -0.3080
   95SAPE  H20R 9458   0.285   3.694   6.348  1.4878  1.3182  0.0624
   95SAPE  H20S 9459   0.301   3.750   6.176  0.3228 -1.6390  0.5543
   95SAPE  H20T 9460   0.156   3.795   6.278 -0.5489  1.8944 -3.3554
   95SAPE   C33 9461   0.356   4.447   7.693  0.1332  1.2698 -0.2454
   95SAPE   H3X 9462   0.359   4.553   7.660  0.7163  1.2769 -0.1711
   95SAPE   H3Y 9463   0.270   4.439   7.763  1.1427 -0.4956  0.8806
   95SAPE   C34 9464   0.312   4.346   7.587  0.1304 -0.0721  0.4489
   95SAPE   H4X 9465   0.269   4.257   7.639 -0.7787  0.3527  0.4491
   95SAPE   H4Y 9466   0.398   4.302   7.533  2.3025  0.5227  3.1812
   95SAPE   C35 9467   0.207   4.403   7.490 -0.0498  0.7672 -0.5899
   95SAPE   H5X 9468   0.265   4.478   7.432  0.9655  0.0411 -0.5272
   95SAPE   H5Y 9469   0.126   4.455   7.545 -0.0345 -0.7906  0.9779
   95SAPE   C36 9470   0.147   4.292   7.399 -0.0106  0.4906 -0.1771
   95SAPE   H6X 9471   0.097   4.223   7.471  0.3230 -0.8463 -1.1726
   95SAPE   H6Y 9472   0.223   4.226   7.351 -0.8011  0.5336 -1.5506
   95SAPE   C37 9473   0.049   4.345   7.291  0.0444 -0.2954  0.4631
   95SAPE   H7X 9474   0.111   4.399   7.217 -0.3133 -0.2755  0.1771
   95SAPE   H7Y 9475  -0.023   4.418   7.334 -0.2184  0.0071 -0.4691
   95SAPE   C38 9476  -0.031   4.234   7.212  0.2400 -0.0816  0.2484
   95SAPE   H8X 9477  -0.103   4.197   7.287  1.3075 -3.5938 -0.2705
   95SAPE   H8Y 9478   0.036   4.154   7.175  0.2870 -0.3377  0.8865
   95SAPE   C39 9479  -0.118   4.290   7.099 -0.2194 -0.3456  0.2180
   95SAPE   H9X 9480  -0.058   4.362   7.039 -0.1927 -1.2955 -0.9330
   95SAPE   H9Y 9481  -0.204   4.348   7.140 -2.1850 -1.5803 -1.8768
   95SAPE  C310 9482  -0.168   4.187   7.007  0.7538  0.2261  0.7310
   95SAPE  H10X 9483  -0.093   4.143   6.939 -0.6447 -2.7402  0.9490
   95SAPE  H10Y 9484  -0.251   4.225   6.943  0.3729 -0.1640  0.9846
   95SAPE  C311 9485  -0.225   4.070   7.087  0.0081  0.9678  0.1353
   95SAPE  H11X 9486  -0.295   4.117   7.159 -0.0572  0.0536  0.6680
   95SAPE  H11Y 9487  -0.156   4.012   7.152 -1.1372  0.4036  0.8719
   95SAPE  C312 9488  -0.315   3.978   6.994  0.7537  0.5830 -0.4080
   95SAPE  H12X 9489  -0.400   4.036   6.954  1.4682  0.6483 -1.8738
   95SAPE  H12Y 9490  -0.357   3.902   7.065  2.1168 -0.3093 -0.5167
   95SAPE  C313 9491  -0.223   3.904   6.890 -0.4931 -0.4314 -0.5474
   95SAPE  H13X 9492  -0.163   3.818   6.925  1.3160  0.8726 -0.2648
   95SAPE  H13Y 9493  -0.153   3.978   6.844 -0.0212  0.0346  0.8590
   95SAPE  C314 9494  -0.309   3.883   6.761 -0.4254  0.2788 -0.8185
   95SAPE  H14X 9495  -0.376   3.970   6.740 -2.2364 -1.1580 -1.2510
   95SAPE  H14Y 9496  -0.385   3.806   6.785  0.0724  0.6737  2.4154
   95SAPE  C315 9497  -0.225   3.851   6.642 -0.0264 -0.6983 -0.3808
   95SAPE  H15X 9498  -0.171   3.756   6.664 -0.2641 -0.4053  1.7050
   95SAPE  H15Y 9499  -0.146   3.920   6.607  0.5781 -0.9855  0.3756
   95SAPE  C316 9500  -0.316   3.803   6.530  0.6037 -0.3163 -0.5386
   95SAPE  H16X 9501  -0.351   3.896   6.480  1.6295 -0.2384 -1.1432
   95SAPE  H16Y 9502  -0.400   3.749   6.578  2.7160 -1.2078  2.5025
   95SAPE  C317 9503  -0.258   3.717   6.422 -0.2763 -0.2596  0.4115
   95SAPE  H17X 9504  -0.340   3.684   6.354 -1.7762 -0.2208  2.1055
   95SAPE  H17Y 9505  -0.213   3.624   6.461 -1.3488 -2.1943 -2.5810
   95SAPE  C318 9506  -0.143   3.785   6.337 -0.1055  0.1065  0.6291
   95SAPE  H18X 9507  -0.064   3.820   6.406  0.9511  0.0292 -0.5127
   95SAPE  H18Y 9508  -0.168   3.882   6.290  0.0217 -0.2172 -0.1252
   95SAPE  H18Z 9509  -0.098   3.714   6.264  3.3801  1.0663  1.6511
   96SAPE     N 9510   2.146   6.122   8.110 -0.3228 -0.4360  0.3819
   96SAPE   HN1 9511   2.092   6.206   8.084 -2.2182 -1.6356  0.2895
   96SAPE   HN2 9512   2.094   6.077   8.188  0.5525 -2.2330  0.0091
   96SAPE   HN3 9513   2.244   6.145   8.139 -0.6731 -0.8934  2.0061
   96SAPE   C12 9514   2.169   6.031   7.991  0.0256  0.2119 -0.1638
   96SAPE  H12A 9515   2.203   6.090   7.903 -1.8690  0.7158 -0.5878
   96SAPE  H12B 9516   2.067   5.994   7.968  0.2291 -0.5719  0.1410
   96SAPE   C11 9517   2.290   5.931   8.010 -0.3066 -0.0901 -0.5946
   96SAPE  H11A 9518   2.306   5.865   7.922  0.6141  1.0303 -1.2813
   96SAPE  H11B 9519   2.254   5.872   8.097  0.5381 -0.2107 -0.3183
   96SAPE     P 9520   2.535   5.904   8.100 -0.0174  0.1127 -0.0239
   96SAPE   O13 9521   2.668   5.973   8.105  0.0562 -0.5653  0.5241
   96SAPE   O14 9522   2.493   5.826   8.219  0.3185 -0.2529 -0.3342
   96SAPE   O12 9523   2.413   5.991   8.047 -0.4757 -0.2231  0.7238
   96SAPE   O11 9524   2.527   5.804   7.981  0.0095  0.0155  0.6783
   96SAPE    C1 9525   2.644   5.720   7.946 -0.0876  0.1171 -0.2147
   96SAPE    HA 9526   2.732   5.732   8.012 -1.2006  1.2298  1.1331
   96SAPE    HB 9527   2.603   5.617   7.953  0.0302  0.1650  1.5653
   96SAPE    C2 9528   2.670   5.757   7.799  0.4712 -0.3187 -0.2617
   96SAPE    HS 9529   2.698   5.662   7.749 -0.5860 -1.6666  1.5544
   96SAPE   O21 9530   2.771   5.859   7.792  0.5954 -0.1492  0.3690
   96SAPE   C21 9531   2.888   5.809   7.767 -0.5878  0.0121 -0.4813
   96SAPE   O22 9532   2.906   5.689   7.750 -0.6780  0.8757 -0.6032
   96SAPE   C22 9533   2.984   5.918   7.746  0.7360  0.2877  0.0706
   96SAPE   H2R 9534   2.976   5.995   7.826 -2.2407  1.9504 -1.6322
   96SAPE   H2S 9535   3.086   5.876   7.750  0.1510 -1.4273 -1.5450
   96SAPE    C3 9536   2.544   5.800   7.711 -0.0444  0.0256  0.1586
   96SAPE    HX 9537   2.502   5.897   7.746 -2.5974 -0.2105 -1.9218
   96SAPE    HY 9538   2.467   5.723   7.732  0.3014 -0.1575  0.7592
   96SAPE   O31 9539   2.578   5.817   7.574  0.6793  0.3036  0.1278
   96SAPE   C31 9540   2.539   5.723   7.492 -0.4388 -0.5468  0.0422
   96SAPE   O32 9541   2.487   5.618   7.516 -0.4064 -0.0165  0.2522
   96SAPE   C32 9542   2.560   5.787   7.360 -0.4200 -0.4223 -0.5906
   96SAPE   H2X 9543   2.664   5.824   7.348 -1.4322  2.2520 -1.8005
   96SAPE   H2Y 9544   2.490   5.873   7.359  1.3026  1.0440 -0.1517
   96SAPE   C23 9545   2.947   5.991   7.612 -0.2407  0.1557 -0.0095
   96SAPE   H3R 9546   2.974   6.099   7.618  0.2784  0.1079 -1.1084
   96SAPE   H3S 9547   2.839   5.985   7.590  0.1144 -1.7980 -1.5603
   96SAPE   C24 9548   3.020   5.929   7.482  0.1078  0.0902  0.3331
   96SAPE   H4R 9549   2.965   5.833   7.472 -0.9030  0.7081 -0.1483
   96SAPE   H4S 9550   3.124   5.900   7.507  0.0064  0.6111  1.4413
   96SAPE   C25 9551   3.025   6.006   7.356  0.4034 -0.1482  0.5927
   96SAPE   H5R 9552   2.998   6.111   7.368 -0.2071 -0.4170  1.6990
   96SAPE   C26 9553   3.078   5.961   7.233 -1.5436 -0.6443 -0.5338
   96SAPE   H6R 9554   3.056   6.021   7.143 -0.7838 -1.4912 -1.3053
   96SAPE   C27 9555   3.114   5.816   7.201 -0.3542  0.0540 -0.2039
   96SAPE   H7R 9556   3.155   5.766   7.292 -1.1617  1.3790  0.9258
   96SAPE   H7S 9557   3.190   5.822   7.120 -1.8947  3.1619 -1.5824
   96SAPE   C28 9558   2.989   5.738   7.157 -0.7239 -0.2643 -0.1083
   96SAPE   H8R 9559   2.935   5.703   7.246 -0.3342 -0.6301 -0.0174
   96SAPE   C29 9560   2.929   5.736   7.037  0.1757  0.7973 -0.0513
   96SAPE   H9R 9561   2.841   5.669   7.034 -0.0262  0.8828  2.1705
   96SAPE  C210 9562   2.988   5.805   6.919  0.7690  0.2599 -0.2383
   96SAPE  H10R 9563   3.092   5.841   6.932  1.3368 -0.8210 -1.6164
   96SAPE  H10S 9564   2.932   5.900   6.905  0.3838 -0.0006 -0.4752
   96SAPE  C211 9565   2.986   5.727   6.794 -0.1948  0.3497 -0.1621
   96SAPE  H11R 9566   2.892   5.716   6.737 -0.0659  1.7881 -0.6962
   96SAPE  C212 9567   3.085   5.656   6.737 -0.1782  0.3480  0.0696
   96SAPE  H12R 9568   3.074   5.615   6.636 -0.1845  3.1851 -1.1861
   96SAPE  C213 9569   3.230   5.638   6.788  0.0765 -0.1206 -0.1530
   96SAPE  H13R 9570   3.248   5.690   6.885 -1.1729  0.1573 -0.0617
   96SAPE  H13S 9571   3.295   5.691   6.715  1.1773 -2.2424 -0.8183
   96SAPE  C214 9572   3.265   5.496   6.797 -0.1387  0.4935 -0.4627
   96SAPE  H14R 9573   3.195   5.439   6.860 -0.1834  1.7055  0.6276
   96SAPE  C215 9574   3.354   5.433   6.721 -0.1676  0.2460  0.5407
   96SAPE  H15R 9575   3.377   5.326   6.736  1.7462  0.5454  0.0177
   96SAPE  C216 9576   3.459   5.491   6.625  0.6320 -0.1010  0.0977
   96SAPE  H16R 9577   3.478   5.597   6.649 -0.2240 -0.5925  3.5060
   96SAPE  H16S 9578   3.429   5.480   6.518 -1.1471 -1.9462  0.7054
   96SAPE  C217 9579   3.588   5.412   6.638 -0.7489  0.3388 -0.1432
   96SAPE  H17R 9580   3.559   5.306   6.627 -1.7973  0.8357 -2.9958
   96SAPE  H17S 9581   3.624   5.434   6.741 -2.6197 -3.0887  1.3835
   96SAPE  C218 9582   3.703   5.441   6.536  0.4047 -0.0826 -0.5770
   96SAPE  H18R 9583   3.707   5.552   6.534 -3.1189  0.1935 -3.4411
   96SAPE  H18S 9584   3.654   5.409   6.442 -0.6965 -1.7830  0.5297
   96SAPE  C219 9585   3.834   5.365   6.575  0.7136  0.3027 -0.5182
   96SAPE  H19R 9586   3.867   5.395   6.677 -4.0691 -0.6767  1.5792
   96SAPE  H19S 9587   3.916   5.399   6.508  1.3715 -1.8301 -0.8576
   96SAPE  C220 9588   3.826   5.213   6.564 -0.0873 -0.4811  0.2462
   96SAPE  H20R 9589   3.926   5.177   6.595 -0.7587 -1.0847  1.8060
   96SAPE  H20S 9590   3.808   5.165   6.466  1.3292  2.2755 -1.4969
   96SAPE  H20T 9591   3.754   5.170   6.637 -0.2094  1.8255  1.6042
   96SAPE   C33 9592   2.527   5.683   7.252 -0.0990 -0.1505 -0.7522
   96SAPE   H3X 9593   2.423   5.651   7.275  0.0525  0.3155  0.6982
   96SAPE   H3Y 9594   2.595   5.595   7.251 -2.5076 -2.1193 -2.2037
   96SAPE   C34 9595   2.526   5.745   7.112 -0.6554 -0.6675  0.3572
   96SAPE   H4X 9596   2.610   5.817   7.099 -3.2725  2.2211 -2.0299
   96SAPE   H4Y 9597   2.442   5.817   7.110  0.3817  0.5606 -0.8876
   96SAPE   C35 9598   2.524   5.643   6.996 -0.6420  0.1646 -0.6560
   96SAPE   H5X 9599   2.433   5.580   7.009 -0.0896 -0.7093 -1.0041
   96SAPE   H5Y 9600   2.617   5.587   7.019 -0.9133  0.5911  1.6959
   96SAPE   C36 9601   2.524   5.715   6.858 -0.3363  0.4588 -0.1691
   96SAPE   H6X 9602   2.608   5.787   6.861 -1.1934  1.4819  0.0517
   96SAPE   H6Y 9603   2.426   5.767   6.851 -1.0750 -0.9713 -1.0553
   96SAPE   C37 9604   2.531   5.610   6.750  0.4430  0.8739  1.1247
   96SAPE   H7X 9605   2.432   5.563   6.734 -0.2600  2.2876  1.2091
   96SAPE   H7Y 9606   2.602   5.528   6.775  1.0066  0.8084 -0.5633
   96SAPE   C38 9607   2.581   5.664   6.615 -0.6947 -0.8531  0.4756
   96SAPE   H8X 9608   2.669   5.729   6.637 -2.6350  1.8772  0.7347
   96SAPE   H8Y 9609   2.504   5.725   6.565 -0.1781 -0.3396  0.2984
   96SAPE   C39 9610   2.633   5.559   6.512 -0.7243  0.8515 -0.0520
   96SAPE   H9X 9611   2.551   5.498   6.469  0.2989 -1.0772  0.6343
   96SAPE   H9Y 9612   2.706   5.489   6.557  0.2700  0.3998 -2.2437
   96SAPE  C310 9613   2.724   5.621   6.404 -0.2941 -0.6167  0.0538
   96SAPE  H10X 9614   2.673   5.712   6.365  0.7455  0.2892  0.7641
   96SAPE  H10Y 9615   2.729   5.549   6.319 -2.3436  0.3991 -0.9839
   96SAPE  C311 9616   2.870   5.664   6.438 -0.9920 -0.3343  0.2544
   96SAPE  H11X 9617   2.909   5.569   6.481 -1.8151 -1.3399 -1.1269
   96SAPE  H11Y 9618   2.874   5.739   6.520 -0.8447 -0.1246  0.0531
   96SAPE  C312 9619   2.952   5.711   6.315  0.2116  0.1592 -0.9327
   96SAPE  H12X 9620   2.888   5.790   6.270 -1.5071 -1.3143 -1.1775
   96SAPE  H12Y 9621   2.954   5.628   6.241 -1.9369  0.3567 -1.2972
   96SAPE  C313 9622   3.089   5.763   6.355  0.5868 -0.1665  0.1882
   96SAPE  H13X 9623   3.148   5.770   6.262 -0.6355  1.2800 -0.5288
   96SAPE  H13Y 9624   3.136   5.689   6.423 -2.1100 -2.4647 -0.2820
   96SAPE  C314 9625   3.079   5.904   6.421 -0.2721 -0.7723  0.0590
   96SAPE  H14X 9626   3.025   5.896   6.518 -0.6642 -1.4898 -0.2124
   96SAPE  H14Y 9627   3.014   5.966   6.357  1.0221  0.0189 -0.5253
   96SAPE  C315 9628   3.212   5.984   6.433 -0.8549 -0.4683 -0.1971
   96SAPE  H15X 9629   3.180   6.090   6.426 -1.7930 -0.6906  0.5285
   96SAPE  H15Y 9630   3.288   5.968   6.353  0.0300 -1.1035  0.7551
   96SAPE  C316 9631   3.285   5.944   6.561 -0.6508  0.2454  0.3217
   96SAPE  H16X 9632   3.324   5.840   6.553 -0.7705  0.1363  1.0935
   96SAPE  H16Y 9633   3.224   5.950   6.653 -1.9457 -3.1906 -0.1431
   96SAPE  C317 9634   3.412   6.035   6.583  0.1967 -0.4934 -0.3873
   96SAPE  H17X 9635   3.378   6.139   6.601  0.6690 -0.8200  3.0085
   96SAPE  H17Y 9636   3.476   6.024   6.493  1.0869 -0.3648  0.2101
   96SAPE  C318 9637   3.482   5.991   6.704 -0.3161  0.1984 -1.1527
   96SAPE  H18X 9638   3.423   6.017   6.794  0.8962 -0.2436 -0.2093
   96SAPE  H18Y 9639   3.584   6.036   6.705 -0.2499  0.1147  0.9770
   96SAPE  H18Z 9640   3.486   5.880   6.696 -1.2384 -0.0014  0.7654
   97SAPE     N 9641   3.380   1.500   8.618 -0.0860  0.3590  0.8117
   97SAPE   HN1 9642   3.478   1.509   8.585  0.4930 -0.3819  2.2436
   97SAPE   HN2 9643   3.326   1.431   8.561 -0.1919 -0.1184  1.4790
   97SAPE   HN3 9644   3.346   1.598   8.613  0.8978  0.6621 -1.0360
   97SAPE   C12 9645   3.384   1.453   8.762  0.4995 -0.6448  0.1938
   97SAPE  H12A 9646   3.435   1.354   8.762 -0.1115 -1.0040 -2.2042
   97SAPE  H12B 9647   3.284   1.452   8.809  0.2048  1.9201 -0.2134
   97SAPE   C11 9648   3.477   1.549   8.843 -0.4500  0.2082  0.2449
   97SAPE  H11A 9649   3.477   1.514   8.949  1.1521  0.1622  0.2596
   97SAPE  H11B 9650   3.436   1.652   8.856 -2.9681 -0.9254  2.1660
   97SAPE     P 9651   3.669   1.682   8.717 -0.3406  0.4385 -0.2652
   97SAPE   O13 9652   3.649   1.801   8.803 -0.5977  0.2983  0.4346
   97SAPE   O14 9653   3.808   1.656   8.671 -0.2280 -0.5013 -0.1279
   97SAPE   O12 9654   3.609   1.559   8.794  0.4026  0.6091  0.2120
   97SAPE   O11 9655   3.575   1.685   8.587  0.4526  0.0101  0.4897
   97SAPE    C1 9656   3.609   1.741   8.461 -0.1045  0.2919 -0.3692
   97SAPE    HA 9657   3.624   1.850   8.479 -1.6702  0.7791 -1.8014
   97SAPE    HB 9658   3.700   1.691   8.422  2.5436  1.0202  4.1359
   97SAPE    C2 9659   3.484   1.727   8.364  0.1006  0.3152 -0.0225
   97SAPE    HS 9660   3.405   1.789   8.413 -0.7244 -0.0941 -0.7985
   97SAPE   O21 9661   3.434   1.590   8.344  0.2194  0.3286 -0.4067
   97SAPE   C21 9662   3.338   1.569   8.255 -0.9061  0.0362  0.5487
   97SAPE   O22 9663   3.270   1.663   8.214  0.0246 -0.4814 -0.5942
   97SAPE   C22 9664   3.331   1.424   8.214  0.2035 -0.5782  0.0074
   97SAPE   H2R 9665   3.437   1.391   8.217  0.9991  1.5552 -1.7057
   97SAPE   H2S 9666   3.272   1.362   8.285  1.1260 -0.7667  0.6185
   97SAPE    C3 9667   3.526   1.811   8.239 -0.0785 -0.0446 -0.6688
   97SAPE    HX 9668   3.575   1.906   8.271  0.5198 -0.6305  0.1879
   97SAPE    HY 9669   3.427   1.843   8.200 -0.8538 -0.6461  0.7469
   97SAPE   O31 9670   3.611   1.734   8.143  0.7230 -0.3066 -0.1796
   97SAPE   C31 9671   3.587   1.786   8.017 -0.2236 -0.1140 -0.2279
   97SAPE   O32 9672   3.528   1.885   7.988  0.4023  0.0559  0.4274
   97SAPE   C32 9673   3.629   1.684   7.910 -0.0982 -0.4380 -0.0078
   97SAPE   H2X 9674   3.541   1.639   7.860  0.4708 -2.5496  0.7553
   97SAPE   H2Y 9675   3.672   1.595   7.962 -2.3474 -1.1711  0.7292
   97SAPE   C23 9676   3.274   1.407   8.070 -0.0315 -0.0391 -0.5426
   97SAPE   H3R 9677   3.339   1.457   7.995 -0.1366 -1.3377 -1.5386
   97SAPE   H3S 9678   3.173   1.452   8.065 -0.2184 -0.4587 -0.5824
   97SAPE   C24 9679   3.275   1.266   8.016 -0.3942  0.3619  0.2560
   97SAPE   H4R 9680   3.239   1.277   7.912 -1.7291 -3.5370  0.1289
   97SAPE   H4S 9681   3.203   1.191   8.054  0.3547 -1.2010 -1.2834
   97SAPE   C25 9682   3.414   1.208   8.015  0.4647  0.5403 -0.0830
   97SAPE   H5R 9683   3.439   1.155   8.108 -0.8577  0.2612  0.1202
   97SAPE   C26 9684   3.511   1.218   7.914 -0.6547  0.4312  0.4507
   97SAPE   H6R 9685   3.606   1.166   7.927 -0.5151  0.4747 -0.3306
   97SAPE   C27 9686   3.504   1.288   7.777 -0.1920  0.0533 -0.0562
   97SAPE   H7R 9687   3.602   1.335   7.758  0.3311 -0.5104  1.1304
   97SAPE   H7S 9688   3.429   1.368   7.765 -0.4937 -0.2993 -0.5505
   97SAPE   C28 9689   3.464   1.199   7.667 -0.2299 -0.0062 -0.0811
   97SAPE   H8R 9690   3.388   1.124   7.694  0.3566  0.2132  2.4350
   97SAPE   C29 9691   3.515   1.192   7.538 -0.3245  0.1177 -0.5254
   97SAPE   H9R 9692   3.488   1.112   7.468 -1.3951 -0.5284  0.5889
   97SAPE  C210 9693   3.621   1.284   7.486 -0.6231  0.4369  0.5297
   97SAPE  H10R 9694   3.681   1.339   7.561  2.2107 -2.6817  0.7419
   97SAPE  H10S 9695   3.586   1.357   7.409  0.7982 -0.3288 -0.8848
   97SAPE  C211 9696   3.726   1.196   7.418  0.5501 -0.1589 -0.4270
   97SAPE  H11R 9697   3.767   1.117   7.483 -1.0442 -0.1308  0.6666
   97SAPE  C212 9698   3.780   1.213   7.293 -0.0614 -0.3070 -0.2166
   97SAPE  H12R 9699   3.861   1.148   7.257  1.1736  0.9908  0.1551
   97SAPE  C213 9700   3.739   1.319   7.189  0.3008  0.0991 -0.6338
   97SAPE  H13R 9701   3.803   1.407   7.214  0.2699 -0.1595  0.3902
   97SAPE  H13S 9702   3.632   1.341   7.209 -0.1842 -2.5919  0.1159
   97SAPE  C214 9703   3.766   1.275   7.051 -0.1371 -0.1131  0.6798
   97SAPE  H14R 9704   3.780   1.168   7.032  3.7628  0.1964  1.0394
   97SAPE  C215 9705   3.737   1.357   6.948 -1.0607  0.0500 -0.1826
   97SAPE  H15R 9706   3.746   1.314   6.847 -0.0153  0.6020 -0.3312
   97SAPE  C216 9707   3.697   1.501   6.954 -0.1599 -0.1605  0.0543
   97SAPE  H16R 9708   3.724   1.558   7.046  1.1333  0.8778 -0.9209
   97SAPE  H16S 9709   3.587   1.496   6.940  0.0763 -0.6589 -1.9545
   97SAPE  C217 9710   3.778   1.575   6.843  0.2564  0.1810 -0.6533
   97SAPE  H17R 9711   3.759   1.683   6.857 -1.1252 -0.2133  0.8313
   97SAPE  H17S 9712   3.731   1.542   6.748 -0.5395 -0.4525 -0.0513
   97SAPE  C218 9713   3.928   1.563   6.871 -0.3529 -0.4180  0.2731
   97SAPE  H18R 9714   3.973   1.463   6.852  1.5055  0.5537 -0.7997
   97SAPE  H18S 9715   3.941   1.599   6.975 -1.3527 -0.0694  0.2931
   97SAPE  C219 9716   4.003   1.665   6.792 -0.2157  0.0187 -0.4952
   97SAPE  H19R 9717   4.109   1.659   6.823 -0.1209  0.7684 -0.6460
   97SAPE  H19S 9718   3.955   1.759   6.829  0.7826  0.7614 -1.0172
   97SAPE  C220 9719   3.982   1.666   6.640 -0.3384  0.2005  0.1857
   97SAPE  H20R 9720   3.877   1.687   6.609  0.3676  0.7575 -2.0156
   97SAPE  H20S 9721   3.998   1.564   6.599  0.1720  0.1281  0.5547
   97SAPE  H20T 9722   4.055   1.742   6.604  2.3170 -1.0041  2.6084
   97SAPE   C33 9723   3.724   1.735   7.805 -0.3520  0.0256 -0.1968
   97SAPE   H3X 9724   3.808   1.790   7.852 -0.0261  0.7728 -1.5983
   97SAPE   H3Y 9725   3.670   1.794   7.727 -0.6704 -1.7928 -1.4464
   97SAPE   C34 9726   3.806   1.609   7.741  0.3026 -0.4475 -0.4163
   97SAPE   H4X 9727   3.733   1.552   7.681  0.2928 -1.2470  0.3353
   97SAPE   H4Y 9728   3.845   1.540   7.819 -2.3986  0.0691  1.5614
   97SAPE   C35 9729   3.922   1.660   7.658  0.3179 -0.9288  0.2549
   97SAPE   H5X 9730   4.007   1.589   7.644  0.0596 -1.1425 -0.2731
   97SAPE   H5Y 9731   3.974   1.744   7.709  1.2073 -1.7924  0.8143
   97SAPE   C36 9732   3.881   1.718   7.526 -0.3314 -0.2270  1.0275
   97SAPE   H6X 9733   3.801   1.794   7.541 -0.3303 -0.2505  1.1526
   97SAPE   H6Y 9734   3.841   1.631   7.471 -0.5988  0.9945 -0.8071
   97SAPE   C37 9735   4.005   1.777   7.449  0.2602 -0.1036  0.0962
   97SAPE   H7X 9736   4.075   1.694   7.429 -0.1731 -0.5521  0.4139
   97SAPE   H7Y 9737   4.062   1.844   7.517  1.2081  0.3588 -1.1231
   97SAPE   C38 9738   3.966   1.843   7.317 -0.4071  0.4698  0.2031
   97SAPE   H8X 9739   3.913   1.939   7.336  0.0316  0.7755 -0.0719
   97SAPE   H8Y 9740   3.886   1.780   7.273  0.5122  0.5791 -1.7358
   97SAPE   C39 9741   4.091   1.854   7.225 -0.1473 -0.3419  0.7767
   97SAPE   H9X 9742   4.143   1.757   7.209 -2.4965 -1.7171  1.0172
   97SAPE   H9Y 9743   4.154   1.923   7.284 -1.3165  1.3665  0.1243
   97SAPE  C310 9744   4.064   1.919   7.088 -0.1337  0.3867  0.5079
   97SAPE  H10X 9745   4.026   1.862   7.001 -1.8043  1.5458  0.4340
   97SAPE  H10Y 9746   4.161   1.963   7.057 -0.6207  2.3815  1.5850
   97SAPE  C311 9747   3.986   2.052   7.088 -0.0490  0.0758  0.3149
   97SAPE  H11X 9748   4.045   2.115   7.157 -0.1928 -0.2292  0.7170
   97SAPE  H11Y 9749   3.883   2.041   7.129 -1.1341 -0.1459 -2.2130
   97SAPE  C312 9750   3.975   2.119   6.945 -0.3170 -0.2073 -0.4980
   97SAPE  H12X 9751   4.075   2.093   6.903  0.2529 -4.6665  2.9257
   97SAPE  H12Y 9752   3.973   2.229   6.961  1.6130 -0.0622 -0.9731
   97SAPE  C313 9753   3.866   2.062   6.843  0.2219 -0.5373 -0.5859
   97SAPE  H13X 9754   3.763   2.082   6.881  0.6931 -2.0403  1.6837
   97SAPE  H13Y 9755   3.871   1.951   6.840  0.8120 -0.5477  0.3840
   97SAPE  C314 9756   3.881   2.100   6.697  0.4778  0.3221  1.2933
   97SAPE  H14X 9757   3.978   2.062   6.660 -0.0707  1.9274 -2.2111
   97SAPE  H14Y 9758   3.865   2.210   6.688  0.0839  0.1554 -0.3010
   97SAPE  C315 9759   3.769   2.040   6.611  0.0277  0.4059  0.7563
   97SAPE  H15X 9760   3.671   2.081   6.642 -0.2226  0.3240  0.0846
   97SAPE  H15Y 9761   3.771   1.930   6.628 -0.3404  0.4623  1.1956
   97SAPE  C316 9762   3.794   2.074   6.463 -0.0634  0.8517 -0.6920
   97SAPE  H16X 9763   3.733   1.998   6.409  0.2942 -0.8408  1.1654
   97SAPE  H16Y 9764   3.900   2.055   6.437  0.7499  3.5801  0.2667
   97SAPE  C317 9765   3.754   2.217   6.422  0.3368 -0.8974  0.0299
   97SAPE  H17X 9766   3.823   2.271   6.354  0.2556  1.1767  1.5040
   97SAPE  H17Y 9767   3.769   2.263   6.521 -1.3971 -0.8018  0.2756
   97SAPE  C318 9768   3.608   2.222   6.381 -0.4309  0.4122 -0.0668
   97SAPE  H18X 9769   3.606   2.205   6.271  3.8681 -0.4792 -0.1867
   97SAPE  H18Y 9770   3.556   2.313   6.417 -1.1060 -0.5928  1.6239
   97SAPE  H18Z 9771   3.550   2.143   6.435  0.3603 -0.6507 -0.7305
   98SAPE     N 9772   3.602   2.160   8.722 -1.0622 -0.3387 -0.2692
   98SAPE   HN1 9773   3.569   2.067   8.753 -0.9359 -0.3525 -0.1709
   98SAPE   HN2 9774   3.691   2.164   8.777 -0.2154 -1.1082 -1.5377
   98SAPE   HN3 9775   3.532   2.230   8.754 -1.2342 -0.7442  0.2669
   98SAPE   C12 9776   3.635   2.154   8.577 -0.0195  0.7554  0.0544
   98SAPE  H12A 9777   3.674   2.055   8.545 -0.2081  0.5628  0.4192
   98SAPE  H12B 9778   3.709   2.234   8.556  0.2802  0.5036  0.1359
   98SAPE   C11 9779   3.504   2.181   8.497  0.1859  0.1079  0.7167
   98SAPE  H11A 9780   3.530   2.183   8.389 -2.7294  1.4356 -0.0483
   98SAPE  H11B 9781   3.470   2.284   8.520  0.3613  0.2486  0.3592
   98SAPE     P 9782   3.261   2.100   8.484 -0.4288 -0.0497 -0.0910
   98SAPE   O13 9783   3.201   1.961   8.489 -0.6912 -0.4977 -0.1368
   98SAPE   O14 9784   3.201   2.201   8.574 -0.2992 -0.5304 -0.2350
   98SAPE   O12 9785   3.412   2.083   8.528  0.0938 -0.1562  0.0699
   98SAPE   O11 9786   3.253   2.163   8.339  0.8292  0.7066  0.3131
   98SAPE    C1 9787   3.295   2.097   8.219  0.0549  0.6261  0.1496
   98SAPE    HA 9788   3.406   2.093   8.220  0.0639  0.5177 -0.5086
   98SAPE    HB 9789   3.268   1.989   8.215  0.9354  0.4314 -1.3213
   98SAPE    C2 9790   3.263   2.175   8.095 -0.4618  0.0795  0.1158
   98SAPE    HS 9791   3.314   2.274   8.097  1.0127 -0.6005 -1.2419
   98SAPE   O21 9792   3.119   2.176   8.087  0.1067  0.3534  0.0684
   98SAPE   C21 9793   3.068   2.281   8.018  0.4985 -0.0250 -0.8037
   98SAPE   O22 9794   3.135   2.359   7.950  0.4004  0.3990 -0.3888
   98SAPE   C22 9795   2.915   2.295   8.037 -0.1674 -0.2286  0.3846
   98SAPE   H2R 9796   2.875   2.192   8.027  2.8000 -2.0048  4.2440
   98SAPE   H2S 9797   2.903   2.339   8.138  2.5162 -1.1024  1.1729
   98SAPE    C3 9798   3.311   2.089   7.970 -0.7450 -0.5189  0.5187
   98SAPE    HX 9799   3.289   1.981   7.986 -2.3847 -0.7331 -2.3316
   98SAPE    HY 9800   3.421   2.098   7.963 -0.7339  0.5406  1.8080
   98SAPE   O31 9801   3.244   2.132   7.844 -0.5085 -0.2365  0.1056
   98SAPE   C31 9802   3.313   2.187   7.748  0.0493  0.5384 -0.0698
   98SAPE   O32 9803   3.432   2.215   7.751  0.2152  0.0291  1.1383
   98SAPE   C32 9804   3.215   2.217   7.634  0.2593 -0.6427  0.0941
   98SAPE   H2X 9805   3.150   2.299   7.672 -0.1826 -1.3247  0.8559
   98SAPE   H2Y 9806   3.155   2.125   7.615  0.4098 -0.5976 -0.6310
   98SAPE   C23 9807   2.843   2.397   7.942 -0.5472 -0.1008  0.2964
   98SAPE   H3R 9808   2.895   2.493   7.962 -0.1655  0.3998 -2.6505
   98SAPE   H3S 9809   2.740   2.414   7.980 -0.9719 -1.5399 -0.1596
   98SAPE   C24 9810   2.851   2.361   7.790 -0.7168  0.4074 -0.6148
   98SAPE   H4R 9811   2.953   2.324   7.769  0.0570  1.3011  1.2882
   98SAPE   H4S 9812   2.827   2.456   7.737  1.7154  0.5047 -1.6708
   98SAPE   C25 9813   2.748   2.253   7.764 -0.2267  0.5212 -0.1778
   98SAPE   H5R 9814   2.708   2.193   7.847  2.0335 -1.0945 -0.1843
   98SAPE   C26 9815   2.719   2.214   7.639 -0.1658  0.0539  0.0266
   98SAPE   H6R 9816   2.630   2.149   7.630 -0.8672  0.9569  0.3240
   98SAPE   C27 9817   2.775   2.279   7.515  0.8714  0.4569  0.6970
   98SAPE   H7R 9818   2.885   2.273   7.507  0.7434 -0.0833 -1.1687
   98SAPE   H7S 9819   2.752   2.388   7.520  0.4094  0.4261 -0.3910
   98SAPE   C28 9820   2.719   2.231   7.384  0.5066  0.3057 -0.1165
   98SAPE   H8R 9821   2.625   2.282   7.357 -0.6851 -0.8677  1.6483
   98SAPE   C29 9822   2.760   2.133   7.305 -0.5562 -0.2132 -0.1166
   98SAPE   H9R 9823   2.702   2.104   7.217 -1.3738  0.6165  0.1345
   98SAPE  C210 9824   2.888   2.048   7.327  0.5320 -0.4256  0.7080
   98SAPE  H10R 9825   2.947   2.083   7.415  2.0993  2.1485 -1.2447
   98SAPE  H10S 9826   2.964   2.071   7.250  0.3725  1.8053  1.1524
   98SAPE  C211 9827   2.859   1.904   7.337 -0.6752  1.1704 -0.2129
   98SAPE  H11R 9828   2.854   1.869   7.441  0.5323  1.4138 -0.0602
   98SAPE  C212 9829   2.829   1.822   7.232 -0.9150 -0.2915 -0.4259
   98SAPE  H12R 9830   2.807   1.715   7.245 -2.3242 -0.0914 -0.9973
   98SAPE  C213 9831   2.828   1.863   7.087 -0.0315 -0.1933  0.6719
   98SAPE  H13R 9832   2.753   1.942   7.066  0.1818  0.2818  1.5964
   98SAPE  H13S 9833   2.797   1.776   7.027  2.0916  0.2741 -1.2487
   98SAPE  C214 9834   2.964   1.899   7.022 -0.6185  0.6192 -0.4014
   98SAPE  H14R 9835   3.040   1.942   7.088 -1.4639  2.3788 -0.5157
   98SAPE  C215 9836   2.997   1.873   6.893 -0.0574 -0.3364 -0.1730
   98SAPE  H15R 9837   3.090   1.909   6.845 -0.7165 -0.9306 -1.9770
   98SAPE  C216 9838   2.900   1.818   6.793  0.7028  0.8310  0.9559
   98SAPE  H16R 9839   2.834   1.896   6.749 -0.3963 -0.7440 -0.3137
   98SAPE  H16S 9840   2.828   1.741   6.828 -1.1219  0.6152 -2.7185
   98SAPE  C217 9841   2.961   1.758   6.666  0.0390 -0.1886  0.9802
   98SAPE  H17R 9842   2.987   1.651   6.677 -1.7590 -0.9312 -1.2889
   98SAPE  H17S 9843   3.061   1.801   6.642  0.3426 -1.7465 -0.7289
   98SAPE  C218 9844   2.865   1.769   6.544 -0.2675 -0.6107  0.4022
   98SAPE  H18R 9845   2.861   1.873   6.504  1.1537 -1.7809 -3.1071
   98SAPE  H18S 9846   2.765   1.736   6.580 -0.8047  1.4014  0.8889
   98SAPE  C219 9847   2.905   1.682   6.428  0.9926 -0.6023  0.1029
   98SAPE  H19R 9848   2.932   1.579   6.460  0.6507 -1.3266 -1.7786
   98SAPE  H19S 9849   2.986   1.736   6.374  0.9921 -2.0881 -1.4942
   98SAPE  C220 9850   2.790   1.659   6.333 -0.0219 -0.6942 -0.1530
   98SAPE  H20R 9851   2.706   1.596   6.370  0.3501 -1.0873  0.0285
   98SAPE  H20S 9852   2.829   1.620   6.236 -0.5754 -1.5605 -0.0435
   98SAPE  H20T 9853   2.759   1.763   6.311  0.9440 -0.5933 -1.1020
   98SAPE   C33 9854   3.297   2.236   7.504  0.9788  0.3577  0.0502
   98SAPE   H3X 9855   3.355   2.142   7.490 -0.0466 -0.3840  0.6735
   98SAPE   H3Y 9856   3.358   2.329   7.504  1.0892  0.2849  0.0828
   98SAPE   C34 9857   3.201   2.260   7.387  0.1096  0.1266 -0.1658
   98SAPE   H4X 9858   3.131   2.345   7.398 -1.3306 -1.0054 -0.3751
   98SAPE   H4Y 9859   3.145   2.165   7.395 -0.8527  0.5800 -1.1759
   98SAPE   C35 9860   3.267   2.271   7.255 -0.2741  0.1316  0.0432
   98SAPE   H5X 9861   3.356   2.205   7.247 -0.0944  0.2928  0.7013
   98SAPE   H5Y 9862   3.300   2.377   7.248 -0.7714  0.5068  2.3840
   98SAPE   C36 9863   3.165   2.254   7.141 -0.1452  0.5765 -0.0639
   98SAPE   H6X 9864   3.079   2.325   7.147  0.2753  0.9933  1.4819
   98SAPE   H6Y 9865   3.126   2.150   7.155  0.9900  0.4541  2.7520
   98SAPE   C37 9866   3.242   2.267   7.007  0.3793  0.0067  0.0584
   98SAPE   H7X 9867   3.331   2.201   7.010  0.3938 -0.1907 -2.6816
   98SAPE   H7Y 9868   3.284   2.369   6.999 -0.1565  0.3753  1.6037
   98SAPE   C38 9869   3.151   2.224   6.885  0.6176 -0.2376  0.0026
   98SAPE   H8X 9870   3.060   2.289   6.881 -2.1420 -3.8235 -0.2728
   98SAPE   H8Y 9871   3.123   2.118   6.898  0.9260 -0.1633  1.5107
   98SAPE   C39 9872   3.225   2.233   6.749 -0.0374  0.3958  0.2174
   98SAPE   H9X 9873   3.310   2.161   6.757 -1.7846 -1.7373  0.4265
   98SAPE   H9Y 9874   3.272   2.334   6.743  1.7378 -0.4842 -2.9864
   98SAPE  C310 9875   3.141   2.210   6.621  0.3604  0.3437 -0.3647
   98SAPE  H10X 9876   3.051   2.275   6.635 -1.3155 -2.0779  0.8786
   98SAPE  H10Y 9877   3.095   2.109   6.632 -3.0654  1.8841  1.0808
   98SAPE  C311 9878   3.210   2.238   6.486 -0.3957  0.5204  0.1735
   98SAPE  H11X 9879   3.287   2.158   6.480 -0.9095  0.1284 -1.3634
   98SAPE  H11Y 9880   3.261   2.337   6.494  2.2895 -0.6571 -1.3030
   98SAPE  C312 9881   3.130   2.258   6.355  0.2780 -0.1812 -0.3421
   98SAPE  H12X 9882   3.048   2.328   6.379  0.3538 -0.0245 -0.5337
   98SAPE  H12Y 9883   3.077   2.165   6.328 -0.1989 -0.1007  0.3030
   98SAPE  C313 9884   3.209   2.305   6.231  1.0162  0.2885  0.2946
   98SAPE  H13X 9885   3.147   2.292   6.140 -0.5528 -0.2227  1.3988
   98SAPE  H13Y 9886   3.295   2.239   6.210  0.1663 -0.0539 -2.5321
   98SAPE  C314 9887   3.251   2.452   6.239  1.2346  0.1075 -0.0487
   98SAPE  H14X 9888   3.323   2.457   6.324  0.4231  1.0867  0.6095
   98SAPE  H14Y 9889   3.165   2.513   6.273  0.7817  0.3598 -1.5876
   98SAPE  C315 9890   3.323   2.512   6.113  0.6665  0.9675 -0.0916
   98SAPE  H15X 9891   3.402   2.437   6.093 -1.4725 -1.4758  0.1505
   98SAPE  H15Y 9892   3.353   2.615   6.145 -0.7489  1.1500  0.7130
   98SAPE  C316 9893   3.242   2.514   5.981  0.4049 -0.4812 -0.0525
   98SAPE  H16X 9894   3.151   2.576   5.995  0.0554 -0.3357 -2.4224
   98SAPE  H16Y 9895   3.209   2.413   5.949  0.3127 -0.5606  0.3005
   98SAPE  C317 9896   3.326   2.585   5.874 -0.8672 -0.9580 -0.0265
   98SAPE  H17X 9897   3.284   2.576   5.772 -0.8973  3.5434 -0.6429
   98SAPE  H17Y 9898   3.427   2.540   5.867 -0.6162 -0.2912 -0.8640
   98SAPE  C318 9899   3.357   2.737   5.879  0.0685  0.2504  0.0702
   98SAPE  H18X 9900   3.263   2.792   5.903 -0.9365 -1.5962  0.5430
   98SAPE  H18Y 9901   3.403   2.775   5.786 -0.1986 -0.4166 -0.3351
   98SAPE  H18Z 9902   3.434   2.769   5.953  0.0245  1.0253 -0.2084
   99SAPE     N 9903   0.818   0.256   8.423 -0.2353 -0.1825  0.6189
   99SAPE   HN1 9904   0.832   0.285   8.324  0.5286  0.8662  1.0109
   99SAPE   HN2 9905   0.903   0.203   8.452 -0.5248 -1.3303 -0.5399
   99SAPE   HN3 9906   0.745   0.182   8.420  1.0539 -1.5537  1.4426
   99SAPE   C12 9907   0.780   0.377   8.514  0.4226 -0.5636  0.7235
   99SAPE  H12A 9908   0.875   0.431   8.536 -0.4971  1.1576  0.5818
   99SAPE  H12B 9909   0.737   0.331   8.605 -1.9248  0.2046  0.0658
   99SAPE   C11 9910   0.675   0.467   8.452  0.1923  0.3452  0.1649
   99SAPE  H11A 9911   0.590   0.399   8.431  0.5506  0.0660 -0.4145
   99SAPE  H11B 9912   0.713   0.509   8.356 -1.2288  1.3280  0.0020
   99SAPE     P 9913   0.570   0.704   8.484  0.0564 -0.2494  0.0797
   99SAPE   O13 9914   0.458   0.755   8.572 -0.0103  0.4372  0.3542
   99SAPE   O14 9915   0.679   0.796   8.440 -0.1165  0.1220 -0.5351
   99SAPE   O12 9916   0.640   0.572   8.547 -0.2973 -0.1312 -0.5828
   99SAPE   O11 9917   0.495   0.655   8.352 -0.0724 -0.2795  0.0393
   99SAPE    C1 9918   0.399   0.744   8.293  0.3025 -0.3318  0.7930
   99SAPE    HA 9919   0.305   0.754   8.351 -0.0441  2.0193 -0.0446
   99SAPE    HB 9920   0.443   0.846   8.291 -0.9206  0.2063 -0.9217
   99SAPE    C2 9921   0.360   0.704   8.145 -0.4621 -0.3216  0.9122
   99SAPE    HS 9922   0.289   0.784   8.114 -0.6088  0.0094  2.0814
   99SAPE   O21 9923   0.291   0.576   8.142  0.2268  0.7102  0.5711
   99SAPE   C21 9924   0.165   0.591   8.171  0.1437  0.4380  0.2191
   99SAPE   O22 9925   0.105   0.687   8.205  0.2545 -0.2090  0.5967
   99SAPE   C22 9926   0.100   0.450   8.147  0.2403  0.3591  0.4196
   99SAPE   H2R 9927   0.166   0.363   8.164  0.7674  0.5698 -0.4792
   99SAPE   H2S 9928   0.022   0.448   8.226 -0.2099  1.1100  0.0108
   99SAPE    C3 9929   0.484   0.693   8.044 -0.0189  0.0134  0.4018
   99SAPE    HX 9930   0.536   0.598   8.071  0.9831  0.4476  0.0510
   99SAPE    HY 9931   0.552   0.774   8.078  0.4503  0.2130 -0.9529
   99SAPE   O31 9932   0.456   0.694   7.900 -0.3161 -0.4997  0.4868
   99SAPE   C31 9933   0.474   0.813   7.841 -0.0266  0.3758  0.5390
   99SAPE   O32 9934   0.487   0.922   7.897  0.0412 -0.3188  0.0047
   99SAPE   C32 9935   0.461   0.793   7.690  1.1671 -0.4975  0.6960
   99SAPE   H2X 9936   0.506   0.881   7.640 -0.1107 -0.2796 -0.1251
   99SAPE   H2Y 9937   0.356   0.783   7.655  1.7557 -1.3309 -0.9828
   99SAPE   C23 9938   0.014   0.447   8.019  0.0396 -0.3239 -0.9765
   99SAPE   H3R 9939  -0.043   0.538   7.990 -1.7842 -1.0419  0.1732
   99SAPE   H3S 9940  -0.071   0.378   8.036  1.0769 -1.1021  1.5911
   99SAPE   C24 9941   0.094   0.408   7.888 -0.1255  0.4392 -0.2969
   99SAPE   H4R 9942   0.013   0.362   7.828  1.1944  1.0596 -2.6875
   99SAPE   H4S 9943   0.160   0.325   7.920 -2.6382 -0.9166  1.8090
   99SAPE   C25 9944   0.156   0.525   7.815  0.5116  0.8226 -0.0713
   99SAPE   H5R 9945   0.173   0.618   7.870  3.9773 -0.1958  0.8486
   99SAPE   C26 9946   0.161   0.522   7.679 -0.0561 -0.3551 -0.0771
   99SAPE   H6R 9947   0.203   0.603   7.618 -1.0855  1.5312  1.6157
   99SAPE   C27 9948   0.120   0.403   7.588  0.5483  0.1026 -0.4210
   99SAPE   H7R 9949   0.024   0.418   7.535  1.0858 -1.1775 -1.8108
   99SAPE   H7S 9950   0.099   0.313   7.649  2.8586 -0.0076  0.3246
   99SAPE   C28 9951   0.230   0.379   7.490  0.0214  0.1717  0.3223
   99SAPE   H8R 9952   0.318   0.337   7.542 -0.3070  1.6721  2.2420
   99SAPE   C29 9953   0.239   0.402   7.361 -0.1846  0.1777 -0.4348
   99SAPE   H9R 9954   0.326   0.360   7.308  0.3354  1.1382 -0.3700
   99SAPE  C210 9955   0.139   0.480   7.289  0.0065 -0.1706  0.6661
   99SAPE  H10R 9956   0.188   0.521   7.199 -0.0285 -0.4010  0.5408
   99SAPE  H10S 9957   0.118   0.572   7.348  1.5025  1.0325 -0.6173
   99SAPE  C211 9958   0.017   0.402   7.250  0.5000 -0.0457 -0.4328
   99SAPE  H11R 9959  -0.035   0.353   7.335  0.3532  1.6481  0.4938
   99SAPE  C212 9960  -0.048   0.392   7.132  0.0140  0.3985  0.0430
   99SAPE  H12R 9961  -0.146   0.342   7.134  0.4431 -0.4505  0.4779
   99SAPE  C213 9962  -0.006   0.459   7.003 -0.4352  0.5321 -0.7492
   99SAPE  H13R 9963  -0.004   0.570   7.015  0.0231  0.4997 -0.5039
   99SAPE  H13S 9964  -0.090   0.447   6.931  0.4111  0.9393 -1.8232
   99SAPE  C214 9965   0.128   0.401   6.955 -0.4044  0.3635 -0.3085
   99SAPE  H14R 9966   0.197   0.369   7.035 -1.4290  2.0722  1.3572
   99SAPE  C215 9967   0.175   0.415   6.830  0.4516 -0.1818 -0.6732
   99SAPE  H15R 9968   0.278   0.380   6.812 -0.0515 -1.7277 -0.6669
   99SAPE  C216 9969   0.098   0.476   6.716  0.2888 -0.6986  0.1952
   99SAPE  H16R 9970  -0.008   0.490   6.749 -0.9260 -3.6827 -2.0593
   99SAPE  H16S 9971   0.087   0.408   6.629 -0.8511  0.1129 -0.3245
   99SAPE  C217 9972   0.157   0.611   6.661  0.1008 -0.0999 -0.4046
   99SAPE  H17R 9973   0.264   0.595   6.638 -0.0592 -1.3928 -0.3544
   99SAPE  H17S 9974   0.144   0.686   6.742 -1.5986 -0.2502 -0.4912
   99SAPE  C218 9975   0.077   0.663   6.535  0.3052  0.2744 -0.1972
   99SAPE  H18R 9976   0.105   0.769   6.515 -0.8481  0.6286 -0.0048
   99SAPE  H18S 9977  -0.031   0.654   6.559  0.6059 -3.2984  0.3883
   99SAPE  C219 9978   0.105   0.573   6.417 -0.2744 -0.0505  0.1350
   99SAPE  H19R 9979   0.030   0.492   6.408  0.1483 -0.2226 -3.3019
   99SAPE  H19S 9980   0.207   0.531   6.430  0.4145  1.3245 -0.5032
   99SAPE  C220 9981   0.108   0.644   6.282 -0.2293 -0.4361 -0.4194
   99SAPE  H20R 9982   0.195   0.713   6.286 -0.6582  0.1922 -1.5692
   99SAPE  H20S 9983   0.007   0.688   6.272  0.8811  2.1408 -1.0492
   99SAPE  H20T 9984   0.123   0.571   6.200 -0.1517  0.3065 -1.0814
   99SAPE   C33 9985   0.537   0.673   7.625 -0.0911 -0.0995  0.0488
   99SAPE   H3X 9986   0.522   0.588   7.695  1.1795 -0.0738  0.3851
   99SAPE   H3Y 9987   0.646   0.695   7.634  0.0483 -0.2508 -1.1163
   99SAPE   C34 9988   0.493   0.635   7.486 -0.4449  0.0189  0.2090
   99SAPE   H4X 9989   0.382   0.634   7.482 -0.4545 -2.7957 -1.2715
   99SAPE   H4Y 9990   0.523   0.533   7.453 -3.0762 -1.6816  2.5973
   99SAPE   C35 9991   0.566   0.732   7.389 -0.1463 -0.1834  0.1938
   99SAPE   H5X 9992   0.675   0.714   7.398 -0.3865 -1.9848 -0.1457
   99SAPE   H5Y 9993   0.540   0.838   7.408 -2.5310 -0.8011  0.7291
   99SAPE   C36 9994   0.519   0.704   7.242  1.0153 -0.2402  0.0745
   99SAPE   H6X 9995   0.409   0.705   7.260  1.3431  1.8598  2.4617
   99SAPE   H6Y 9996   0.533   0.598   7.211 -2.0346 -0.5640 -0.6101
   99SAPE   C37 9997   0.549   0.807   7.136  0.2559 -0.1865 -0.2843
   99SAPE   H7X 9998   0.659   0.815   7.123  0.3523 -0.1285  0.4980
   99SAPE   H7Y 9999   0.516   0.909   7.168  0.6547  0.1491 -0.9114
   99SAPE   C3810000   0.508   0.762   6.997  0.6532 -0.7806 -0.2399
   99SAPE   H8X10001   0.398   0.772   6.995  0.7487  0.3870 -0.1539
   99SAPE   H8Y10002   0.538   0.656   6.984  0.2300 -0.6274 -2.8016
   99SAPE   C3910003   0.557   0.853   6.887  0.1065 -0.2110 -0.0314
   99SAPE   H9X10004   0.668   0.863   6.885 -0.0412  2.4701 -1.8659
   99SAPE   H9Y10005   0.526   0.957   6.911  0.0672 -0.1940 -0.1524
   99SAPE  C31010006   0.500   0.809   6.754 -0.5442 -0.5210  0.8747
   99SAPE  H10X10007   0.390   0.823   6.762 -0.5934  0.6311 -1.1413
   99SAPE  H10Y10008   0.517   0.701   6.734  0.8935  0.0768 -1.4574
   99SAPE  C31110009   0.550   0.884   6.635 -0.1337 -0.0852 -0.0661
   99SAPE  H11X10010   0.660   0.873   6.626 -0.0747 -1.8312  2.0254
   99SAPE  H11Y10011   0.523   0.992   6.642  1.3757  0.3572 -0.8692
   99SAPE  C31210012   0.481   0.845   6.503 -0.7949  0.1811 -0.5889
   99SAPE  H12X10013   0.375   0.879   6.503 -0.5039  1.3025 -2.8881
   99SAPE  H12Y10014   0.500   0.736   6.498  1.5110  0.5882 -4.4065
   99SAPE  C31310015   0.557   0.914   6.392 -0.1318 -0.1546  0.1205
   99SAPE  H13X10016   0.657   0.867   6.376  0.1714  0.0520  1.2492
   99SAPE  H13Y10017   0.577   1.021   6.413  1.7971 -0.3323 -0.6013
   99SAPE  C31410018   0.485   0.904   6.256 -0.0984  0.4797 -0.2849
   99SAPE  H14X10019   0.391   0.962   6.264 -0.2509  0.1158  0.5790
   99SAPE  H14Y10020   0.474   0.795   6.239  0.3905  0.0601  1.8934
   99SAPE  C31510021   0.546   0.971   6.139  0.2799 -0.2440  0.4072
   99SAPE  H15X10022   0.652   0.945   6.121  0.0389  0.3850 -2.4407
   99SAPE  H15Y10023   0.543   1.082   6.148  0.5079 -0.1290 -0.8148
   99SAPE  C31610024   0.461   0.934   6.009  0.6426 -0.1726  0.1066
   99SAPE  H16X10025   0.359   0.979   6.014  0.8146  0.3174 -0.6442
   99SAPE  H16Y10026   0.449   0.825   5.987  1.1668 -0.1546 -0.2624
   99SAPE  C31710027   0.511   0.982   5.872  0.1080  0.1278  0.1057
   99SAPE  H17X10028   0.618   0.952   5.875 -0.3372 -1.4723  2.5597
   99SAPE  H17Y10029   0.501   1.092   5.859  1.2343  0.1607 -0.6067
   99SAPE  C31810030   0.441   0.909   5.750  0.5174 -0.3472 -0.4499
   99SAPE  H18X10031   0.501   0.941   5.663  0.1077 -1.4224 -1.1448
   99SAPE  H18Y10032   0.340   0.947   5.722  0.5714  0.0253 -0.1556
   99SAPE  H18Z10033   0.433   0.800   5.767  1.0388 -0.0244  2.5938
  100SAPE     N10034   5.415   0.786   0.108 -0.0209 -0.5671  0.7125
  100SAPE   HN110035   5.469   0.697   0.111 -1.3099 -1.3944  0.3805
  100SAPE   HN210036   5.487   0.854   0.076  0.9604 -2.1149 -0.5614
  100SAPE   HN310037   5.373   0.808   0.200 -1.4754 -0.0777 -0.0373
  100SAPE   C1210038   5.308   0.767  -0.000  0.4012  0.2092 -0.3237
  100SAPE  H12A10039   5.248   0.860  -0.011 -0.9530 -0.7352 -1.3287
  100SAPE  H12B10040   5.248   0.689   0.052  1.6390  0.4300  1.5177
  100SAPE   C1110041   5.361   0.736  -0.134 -0.1644  0.0922 -0.6975
  100SAPE  H11A10042   5.398   0.831  -0.178  1.1950 -0.4881 -0.8534
  100SAPE  H11B10043   5.270   0.699  -0.186 -0.5457  3.0443 -2.3076
  100SAPE     P10044   5.442   0.482  -0.143  0.1346  0.3220 -0.2747
  100SAPE   O1310045   5.578   0.431  -0.163  0.0057  0.0101 -0.1342
  100SAPE   O1410046   5.354   0.430  -0.032 -0.0367 -0.3089 -0.0486
  100SAPE   O1210047   5.459   0.635  -0.123 -0.0600 -0.2662  0.5987
  100SAPE   O1110048   5.357   0.473  -0.280 -0.1806 -0.1796  0.4814
  100SAPE    C110049   5.434   0.483  -0.400 -0.0999 -0.1638  0.5995
  100SAPE    HA10050   5.502   0.571  -0.396  1.4611 -1.3295  0.5937
  100SAPE    HB10051   5.499   0.395  -0.419 -0.3645 -0.4090  0.8183
  100SAPE    C210052   5.349   0.496  -0.533  0.5356 -0.1177 -0.1970
  100SAPE    HS10053   5.419   0.538  -0.609  0.1640  0.5954 -0.1595
  100SAPE   O2110054   5.235   0.586  -0.521 -0.0134  0.8188  0.6964
  100SAPE   C2110055   5.262   0.714  -0.492  0.6024  0.3428  0.0768
  100SAPE   O2210056   5.368   0.760  -0.459  0.0697  0.5439 -0.0114
  100SAPE   C2210057   5.136   0.801  -0.493  0.8135  0.8946 -0.1120
  100SAPE   H2R10058   5.052   0.728  -0.483  0.0906  1.5014 -1.4533
  100SAPE   H2S10059   5.148   0.864  -0.402  1.2356  0.0796  0.4114
  100SAPE    C310060   5.300   0.362  -0.586 -0.0494  0.0042  0.3654
  100SAPE    HX10061   5.256   0.307  -0.500 -1.6132 -2.2216 -1.7321
  100SAPE    HY10062   5.382   0.295  -0.621 -1.3347 -1.3820 -0.0921
  100SAPE   O3110063   5.201   0.354  -0.691  0.0437 -0.4932  0.0617
  100SAPE   C3110064   5.244   0.364  -0.812 -0.4410  0.5613 -0.5110
  100SAPE   O3210065   5.357   0.389  -0.847 -0.3373 -1.0247 -0.3650
  100SAPE   C3210066   5.128   0.353  -0.906 -0.5862  0.7034 -0.2552
  100SAPE   H2X10067   5.159   0.423  -0.987  2.1355 -1.5721 -1.3673
  100SAPE   H2Y10068   5.035   0.384  -0.853 -0.2866  1.7290 -0.2964
  100SAPE   C2310069   5.114   0.895  -0.617  0.3794 -0.6334  0.1247
  100SAPE   H3R10070   5.188   0.978  -0.614 -0.4361  0.0904  2.3795
  100SAPE   H3S10071   5.009   0.929  -0.614  0.8668  1.0359 -0.6176
  100SAPE   C2410072   5.128   0.832  -0.758 -0.3320 -0.1465 -0.5723
  100SAPE   H4R10073   5.228   0.783  -0.760 -0.9798 -1.6843  1.3921
  100SAPE   H4S10074   5.136   0.899  -0.846  1.1529  0.7998  0.2531
  100SAPE   C2510075   5.032   0.720  -0.762  0.5019 -0.0851 -0.4901
  100SAPE   H5R10076   5.046   0.643  -0.684 -1.4359 -0.7192 -0.7199
  100SAPE   C2610077   4.925   0.713  -0.842 -0.7348  0.0338  0.4203
  100SAPE   H6R10078   4.870   0.620  -0.822  0.3829 -1.0843 -1.5055
  100SAPE   C2710079   4.885   0.804  -0.954  0.5403  0.6259 -0.0740
  100SAPE   H7R10080   4.959   0.886  -0.961  0.2342  0.9374  0.3275
  100SAPE   H7S10081   4.798   0.861  -0.916  0.8453  1.5729 -0.7653
  100SAPE   C2810082   4.863   0.730  -1.086 -0.3835 -0.1039 -0.6938
  100SAPE   H8R10083   4.847   0.622  -1.073  2.2898 -0.4117  0.6465
  100SAPE   C2910084   4.855   0.792  -1.207 -0.0158  0.5037 -0.4063
  100SAPE   H9R10085   4.836   0.736  -1.299  0.4591 -0.0960 -0.1545
  100SAPE  C21010086   4.854   0.940  -1.226 -0.5574  0.4683  0.3491
  100SAPE  H10R10087   4.903   0.949  -1.325 -1.3379 -2.1150 -0.3388
  100SAPE  H10S10088   4.918   0.995  -1.154 -1.1464  0.7669  0.6578
  100SAPE  C21110089   4.725   1.010  -1.221 -0.2300 -0.0173 -0.5212
  100SAPE  H11R10090   4.702   1.062  -1.127  2.9314  1.5037 -0.4580
  100SAPE  C21210091   4.641   1.020  -1.324  0.0229 -0.4269 -0.8668
  100SAPE  H12R10092   4.559   1.093  -1.318  2.4371  2.5176 -1.3080
  100SAPE  C21310093   4.661   0.969  -1.464 -0.4590 -0.3829 -0.5124
  100SAPE  H13R10094   4.568   0.984  -1.523 -1.4100 -0.3056  0.9529
  100SAPE  H13S10095   4.687   0.861  -1.456 -1.9832 -0.7333  0.1435
  100SAPE  C21410096   4.765   1.053  -1.531  0.2647  0.4932  0.4099
  100SAPE  H14R10097   4.785   1.151  -1.485 -0.2068  0.2152  1.2306
  100SAPE  C21510098   4.827   1.039  -1.647  0.2984  0.0428  0.5445
  100SAPE  H15R10099   4.889   1.125  -1.676 -0.5264  0.3073 -0.5232
  100SAPE  C21610100   4.818   0.933  -1.751 -0.2078  0.1532  0.5053
  100SAPE  H16R10101   4.742   0.857  -1.725 -1.1108  0.0195 -2.2891
  100SAPE  H16S10102   4.916   0.885  -1.774 -0.4355  0.5373 -1.4311
  100SAPE  C21710103   4.779   0.984  -1.896  0.1912  0.2110 -0.5944
  100SAPE  H17R10104   4.817   1.084  -1.926  1.5411 -0.2475 -0.4669
  100SAPE  H17S10105   4.668   0.987  -1.903  0.2605  1.0900 -1.5777
  100SAPE  C21810106   4.831   0.893  -2.014  0.1587 -0.3469  0.3156
  100SAPE  H18R10107   4.812   0.785  -1.994  0.4495 -0.2431  1.1871
  100SAPE  H18S10108   4.941   0.906  -2.023  0.5429 -1.9066  2.1055
  100SAPE  C21910109   4.773   0.919  -2.153  0.1750 -0.3757 -0.4553
  100SAPE  H19R10110   4.825   0.855  -2.228  1.2409 -0.8810  0.6741
  100SAPE  H19S10111   4.803   1.022  -2.179 -1.3738  0.1495 -0.2501
  100SAPE  C22010112   4.626   0.908  -2.167  0.0745 -0.0803 -0.3976
  100SAPE  H20R10113   4.579   0.821  -2.115 -2.2460  0.3279 -1.6396
  100SAPE  H20S10114   4.600   0.908  -2.275 -0.5325  2.0167 -0.2937
  100SAPE  H20T10115   4.577   1.002  -2.134  0.7599  0.2860 -0.4187
  100SAPE   C3310116   5.117   0.208  -0.972  0.2342 -0.5540 -0.1811
  100SAPE   H3X10117   5.059   0.148  -0.899  1.6950 -0.5513  1.0194
  100SAPE   H3Y10118   5.215   0.161  -0.991  0.9504 -0.0617  2.0252
  100SAPE   C3410119   5.048   0.221  -1.115  0.4529  0.4852  0.1528
  100SAPE   H4X10120   5.100   0.297  -1.178 -1.0590  0.7487 -0.8355
  100SAPE   H4Y10121   4.943   0.253  -1.104 -0.2002 -1.1038 -1.0774
  100SAPE   C3510122   5.033   0.097  -1.203 -0.1463  0.1710  0.5638
  100SAPE   H5X10123   4.964   0.024  -1.154 -0.7127 -1.5886 -2.6002
  100SAPE   H5Y10124   5.134   0.056  -1.222  1.2232  2.9233  1.3537
  100SAPE   C3610125   4.976   0.119  -1.347  0.2086 -0.1439 -0.1645
  100SAPE   H6X10126   5.047   0.180  -1.407 -0.3311 -0.6036 -1.2915
  100SAPE   H6Y10127   4.874   0.164  -1.349  0.3821  0.2501 -2.5425
  100SAPE   C3710128   4.958  -0.015  -1.426 -0.4075 -0.1861 -0.0407
  100SAPE   H7X10129   4.875  -0.070  -1.376 -3.5821  4.5246  0.5432
  100SAPE   H7Y10130   5.048  -0.080  -1.419 -0.8711 -0.7403  1.2173
  100SAPE   C3810131   4.910  -0.006  -1.572  0.3514 -0.5014 -0.3540
  100SAPE   H8X10132   4.984   0.046  -1.637 -0.6674  0.3101 -0.8911
  100SAPE   H8Y10133   4.825   0.065  -1.582  2.7256  2.5671 -0.4476
  100SAPE   C3910134   4.874  -0.143  -1.630  0.0290  0.1280 -1.2104
  100SAPE   H9X10135   4.773  -0.174  -1.596  1.1314 -1.9415  0.3970
  100SAPE   H9Y10136   4.948  -0.221  -1.601 -0.1243  0.7068  0.9211
  100SAPE  C31010137   4.851  -0.136  -1.782  0.4459 -0.2046  0.0344
  100SAPE  H10X10138   4.806  -0.234  -1.812 -0.9779  0.4016  0.1210
  100SAPE  H10Y10139   4.941  -0.133  -1.847  1.6172  0.3155  1.6332
  100SAPE  C31110140   4.757  -0.017  -1.838  0.4620  0.4872 -0.1233
  100SAPE  H11X10141   4.805   0.079  -1.808  0.1078  0.4484  0.5987
  100SAPE  H11Y10142   4.666  -0.036  -1.777  0.4222 -1.9936 -0.8394
  100SAPE  C31210143   4.734  -0.024  -1.987  0.3512 -0.1917  0.4913
  100SAPE  H12X10144   4.707  -0.125  -2.027 -1.0124 -0.1381  1.2078
  100SAPE  H12Y10145   4.832  -0.009  -2.038  0.2938  1.0941  0.7441
  100SAPE  C31310146   4.642   0.079  -2.053  0.0921  0.2553  0.0243
  100SAPE  H13X10147   4.666   0.187  -2.043 -3.8824  1.4832 -1.6626
  100SAPE  H13Y10148   4.544   0.066  -2.003 -1.0141 -3.4599 -2.6287
  100SAPE  C31410149   4.606   0.058  -2.198 -0.5596  0.9276  0.0250
  100SAPE  H14X10150   4.521   0.127  -2.215  0.4632  1.8734 -1.5126
  100SAPE  H14Y10151   4.573  -0.046  -2.216  1.5971  0.2281 -0.2086
  100SAPE  C31510152   4.729   0.098  -2.288 -0.1828  0.6671 -0.3431
  100SAPE  H15X10153   4.801   0.013  -2.283 -1.2899 -0.2250  1.4140
  100SAPE  H15Y10154   4.787   0.178  -2.238  2.8911 -1.5060 -0.1004
  100SAPE  C31610155   4.685   0.161  -2.421 -0.0061  0.0848  0.1808
  100SAPE  H16X10156   4.625   0.254  -2.410  1.7253  1.6454 -2.5534
  100SAPE  H16Y10157   4.631   0.077  -2.471 -1.3927  0.5711  0.8087
  100SAPE  C31710158   4.804   0.186  -2.506  0.8828 -0.0335  0.2059
  100SAPE  H17X10159   4.835   0.084  -2.536 -2.8179 -1.1717 -0.2160
  100SAPE  H17Y10160   4.880   0.245  -2.449  0.1724  1.6066 -0.4951
  100SAPE  C31810161   4.757   0.254  -2.636  0.1688 -0.1017 -1.5449
  100SAPE  H18X10162   4.847   0.295  -2.688  2.3019  0.1533  2.0372
  100SAPE  H18Y10163   4.688   0.339  -2.617 -1.0516 -0.9533 -2.0601
  100SAPE  H18Z10164   4.698   0.187  -2.702 -2.8596  2.0719 -1.2748
  101SAPE     N10165   5.598   1.339   8.542  0.3021 -0.5398  0.1925
  101SAPE   HN110166   5.601   1.248   8.593 -2.1127 -1.9056 -1.8440
  101SAPE   HN210167   5.523   1.319   8.472  0.2610 -0.6613  0.2694
  101SAPE   HN310168   5.689   1.356   8.494 -0.6550  0.9576 -1.2028
  101SAPE   C1210169   5.574   1.467   8.609  0.3909 -0.1016 -0.2896
  101SAPE  H12A10170   5.643   1.492   8.692  1.0828 -0.5626 -0.7127
  101SAPE  H12B10171   5.472   1.460   8.654  1.4374 -0.9302  2.0823
  101SAPE   C1110172   5.568   1.591   8.506  0.0540  0.1463 -0.2954
  101SAPE  H11A10173   5.527   1.677   8.563 -2.3918 -1.7169  0.9377
  101SAPE  H11B10174   5.492   1.554   8.433 -0.8897 -0.2187  0.8462
  101SAPE     P10175   5.774   1.755   8.451  0.2755  0.1024 -0.9778
  101SAPE   O1310176   5.753   1.821   8.587  0.4632 -0.5821 -0.7346
  101SAPE   O1410177   5.909   1.731   8.401 -0.5895 -0.5672 -0.1439
  101SAPE   O1210178   5.701   1.612   8.453  0.4622 -0.0918 -0.0497
  101SAPE   O1110179   5.693   1.844   8.344  0.2954 -0.5583 -0.2086
  101SAPE    C110180   5.725   1.855   8.209  0.1654  0.2399 -0.0120
  101SAPE    HA10181   5.674   1.947   8.174  1.2021  0.8730  0.0909
  101SAPE    HB10182   5.835   1.860   8.192  0.3993  1.8052  1.5879
  101SAPE    C210183   5.664   1.728   8.138  0.7417  0.2769 -0.6917
  101SAPE    HS10184   5.719   1.646   8.187 -1.1930 -1.4935 -1.3260
  101SAPE   O2110185   5.695   1.738   8.002  0.3603 -0.0080 -0.1078
  101SAPE   C2110186   5.663   1.631   7.926  0.6636  0.6987 -1.0790
  101SAPE   O2210187   5.635   1.522   7.974  0.0322 -0.7097 -0.5160
  101SAPE   C2210188   5.655   1.681   7.786  0.6179 -0.0988  0.3520
  101SAPE   H2R10189   5.629   1.789   7.782  1.3547  0.2143  2.4330
  101SAPE   H2S10190   5.758   1.668   7.745  0.2048 -2.0436 -0.1452
  101SAPE    C310191   5.510   1.713   8.168  0.1993  0.2890 -0.4246
  101SAPE    HX10192   5.486   1.726   8.276 -1.6226  0.5154 -0.8311
  101SAPE    HY10193   5.485   1.607   8.144 -0.1347  0.5320 -1.1739
  101SAPE   O3110194   5.423   1.808   8.102 -0.2177 -0.2692 -0.2125
  101SAPE   C3110195   5.304   1.771   8.093  0.6094 -0.6411  0.3595
  101SAPE   O3210196   5.257   1.666   8.133  0.3989  0.0842  1.0420
  101SAPE   C3210197   5.226   1.884   8.018 -0.2679 -0.6755  0.4578
  101SAPE   H2X10198   5.260   1.987   8.041 -2.8612  0.0207  1.6328
  101SAPE   H2Y10199   5.122   1.884   8.059 -1.1230  1.5531 -1.4769
  101SAPE   C2310200   5.564   1.587   7.694  0.0879 -0.4654  0.1668
  101SAPE   H3R10201   5.461   1.578   7.734  1.1029  0.8235  3.4694
  101SAPE   H3S10202   5.621   1.492   7.693  0.7142 -0.0931 -0.3826
  101SAPE   C2410203   5.573   1.621   7.543  0.0562  0.3608  0.2652
  101SAPE   H4R10204   5.524   1.537   7.488  0.7330  0.1395 -0.0045
  101SAPE   H4S10205   5.679   1.613   7.510 -0.1162  1.4931 -0.6485
  101SAPE   C2510206   5.512   1.751   7.497 -0.1585  0.6377 -0.1580
  101SAPE   H5R10207   5.555   1.839   7.547  1.2942 -0.4322  0.5514
  101SAPE   C2610208   5.402   1.764   7.411 -0.4822  0.0529  0.1081
  101SAPE   H6R10209   5.376   1.866   7.380 -0.7171  1.2011  3.6224
  101SAPE   C2710210   5.344   1.641   7.339  0.8597  0.1896 -0.2841
  101SAPE   H7R10211   5.268   1.599   7.409  1.0768 -0.4482 -0.4214
  101SAPE   H7S10212   5.419   1.561   7.321  1.5353  1.3250 -2.9976
  101SAPE   C2810213   5.285   1.684   7.203 -0.4287  0.3503 -0.2662
  101SAPE   H8R10214   5.206   1.759   7.215  0.5230  1.1985  0.9685
  101SAPE   C2910215   5.304   1.636   7.083 -0.9545 -0.1642  0.7167
  101SAPE   H9R10216   5.241   1.692   7.014 -1.1920  0.8387  1.7154
  101SAPE  C21010217   5.399   1.527   7.030 -0.4546 -0.5257  0.2806
  101SAPE  H10R10218   5.337   1.447   6.984 -2.1023 -0.2145  1.8209
  101SAPE  H10S10219   5.454   1.476   7.112 -0.1316  0.9319  1.0039
  101SAPE  C21110220   5.507   1.576   6.933 -0.8407 -0.3232 -0.0570
  101SAPE  H11R10221   5.596   1.618   6.982 -0.5671  0.3572 -1.1076
  101SAPE  C21210222   5.493   1.580   6.796 -0.4416  0.1011  0.8730
  101SAPE  H12R10223   5.574   1.620   6.733 -0.8251 -1.1159 -0.4690
  101SAPE  C21310224   5.369   1.529   6.722  0.2537 -0.5608 -0.4584
  101SAPE  H13R10225   5.286   1.603   6.726 -0.6981 -1.6627  1.8284
  101SAPE  H13S10226   5.329   1.438   6.772 -0.4264  0.1579  0.3342
  101SAPE  C21410227   5.393   1.504   6.575  0.1933  0.3788  1.1459
  101SAPE  H14R10228   5.419   1.403   6.542  0.0455  0.6380  0.1994
  101SAPE  C21510229   5.372   1.602   6.485  0.2391 -0.0173  1.3215
  101SAPE  H15R10230   5.397   1.580   6.380 -1.0443  0.5431  0.8826
  101SAPE  C21610231   5.326   1.743   6.503 -0.5286  0.2561  0.5060
  101SAPE  H16R10232   5.254   1.763   6.585 -2.3035  2.9202 -1.5275
  101SAPE  H16S10233   5.250   1.767   6.426 -1.1611  1.6167  1.5127
  101SAPE  C21710234   5.441   1.840   6.501 -0.1914  0.4437 -0.5904
  101SAPE  H17R10235   5.522   1.820   6.428  2.3007 -0.0454  2.1152
  101SAPE  H17S10236   5.499   1.844   6.596 -2.8461 -0.7123  1.2040
  101SAPE  C21810237   5.376   1.978   6.486  0.0083  1.2075 -0.2261
  101SAPE  H18R10238   5.309   1.998   6.572 -0.8395 -2.9771  0.2975
  101SAPE  H18S10239   5.312   1.992   6.396  0.1795  0.1840 -0.5092
  101SAPE  C21910240   5.479   2.094   6.476  0.4155 -0.2945 -0.2705
  101SAPE  H19R10241   5.414   2.178   6.444  1.0960  0.4929  0.3903
  101SAPE  H19S10242   5.558   2.093   6.398  0.7278 -1.7715  0.0247
  101SAPE  C22010243   5.544   2.135   6.613 -0.3109 -0.7300 -0.2513
  101SAPE  H20R10244   5.477   2.127   6.701  0.1441 -3.7869 -0.0656
  101SAPE  H20S10245   5.587   2.237   6.605 -0.6770 -0.3974  1.5333
  101SAPE  H20T10246   5.633   2.070   6.624 -1.5774 -2.6324 -0.6815
  101SAPE   C3310247   5.208   1.860   7.870 -0.2882 -0.2263  0.1298
  101SAPE   H3X10248   5.153   1.766   7.849  0.0350  0.0719 -2.4007
  101SAPE   H3Y10249   5.306   1.842   7.821  0.0780  0.0651  0.7525
  101SAPE   C3410250   5.135   1.980   7.798 -0.0137 -0.5689 -0.6187
  101SAPE   H4X10251   5.201   2.069   7.806 -2.0849  1.0339 -0.4708
  101SAPE   H4Y10252   5.035   2.003   7.841 -0.4065  1.3989 -2.4165
  101SAPE   C3510253   5.114   1.943   7.652 -0.0997 -0.3293  0.9130
  101SAPE   H5X10254   5.043   1.859   7.640  2.2709 -2.1888 -1.6455
  101SAPE   H5Y10255   5.208   1.895   7.615 -0.1055  1.0443 -1.1137
  101SAPE   C3610256   5.055   2.053   7.560  0.2607 -0.3917 -0.9632
  101SAPE   H6X10257   5.127   2.136   7.548  1.7301 -1.4755 -0.0701
  101SAPE   H6Y10258   4.953   2.088   7.584  0.3651  1.5253 -3.0990
  101SAPE   C3710259   5.060   1.995   7.425  0.4668  0.0657 -0.0989
  101SAPE   H7X10260   4.991   1.908   7.428  0.2424  0.2671  1.4034
  101SAPE   H7Y10261   5.168   1.974   7.405  1.3497  2.0525  2.1499
  101SAPE   C3810262   5.019   2.090   7.310  0.5890 -0.4283 -0.2341
  101SAPE   H8X10263   5.072   2.186   7.325 -1.0110  0.5246 -0.4279
  101SAPE   H8Y10264   4.915   2.127   7.326  1.1185  0.5392  1.0773
  101SAPE   C3910265   5.032   2.023   7.171 -0.5298 -0.1852 -0.5153
  101SAPE   H9X10266   5.122   1.959   7.160 -0.7520 -0.5063 -0.4881
  101SAPE   H9Y10267   5.024   2.100   7.092 -1.0868  0.3997  0.0956
  101SAPE  C31010268   4.911   1.930   7.137  0.5938  0.0550  0.1601
  101SAPE  H10X10269   4.821   1.994   7.141 -0.0458 -0.7734 -0.4179
  101SAPE  H10Y10270   4.903   1.850   7.214  0.5266  0.6964  0.8228
  101SAPE  C31110271   4.905   1.856   7.002 -0.0387  0.6471 -0.2222
  101SAPE  H11X10272   4.811   1.798   7.006 -0.7013  1.7157  0.0870
  101SAPE  H11Y10273   4.986   1.781   6.989 -0.2795 -0.0042  1.7940
  101SAPE  C31210274   4.907   1.952   6.877  0.3175  0.4251  0.3330
  101SAPE  H12X10275   5.001   2.010   6.883  1.5717 -1.3352 -1.1931
  101SAPE  H12Y10276   4.818   2.018   6.881  0.0930  0.1444  0.0698
  101SAPE  C31310277   4.913   1.873   6.742 -0.6449 -0.0608  0.0966
  101SAPE  H13X10278   4.821   1.814   6.720  0.1695 -0.2985 -3.1953
  101SAPE  H13Y10279   5.004   1.810   6.758 -0.8107 -0.2042  0.4920
  101SAPE  C31410280   4.936   1.975   6.626  0.5547 -0.1522 -0.5008
  101SAPE  H14X10281   5.032   2.030   6.643 -0.2249  1.3509 -0.7457
  101SAPE  H14Y10282   4.853   2.049   6.621  2.1559  2.0352  2.1676
  101SAPE  C31510283   4.936   1.901   6.491 -0.0660  0.5401 -0.6501
  101SAPE  H15X10284   4.839   1.851   6.471  1.0493 -2.2198  0.3954
  101SAPE  H15Y10285   5.002   1.817   6.521 -1.2927 -0.5244 -0.8739
  101SAPE  C31610286   4.999   1.978   6.375  0.2101  0.3567  0.4288
  101SAPE  H16X10287   5.052   1.902   6.314  1.8884  0.0194  2.1974
  101SAPE  H16Y10288   5.091   2.036   6.400  1.7313  0.7104 -4.7559
  101SAPE  C31710289   4.917   2.071   6.285 -0.2838 -0.4173 -0.1269
  101SAPE  H17X10290   4.993   2.125   6.224  0.9425 -2.5119 -0.5583
  101SAPE  H17Y10291   4.868   2.143   6.354 -1.6380 -1.4793  0.0564
  101SAPE  C31810292   4.814   2.003   6.190 -0.7142 -0.0265  0.2735
  101SAPE  H18X10293   4.748   2.080   6.145 -2.1194 -1.4983 -0.2581
  101SAPE  H18Y10294   4.757   1.931   6.252  0.8077 -0.9588  0.6499
  101SAPE  H18Z10295   4.871   1.942   6.118  0.5684 -1.1107  2.1074
  102SAPE     N10296   4.759   2.865   8.251  0.0134 -0.1084 -0.3228
  102SAPE   HN110297   4.700   2.810   8.185 -0.3859 -1.1043  0.8194
  102SAPE   HN210298   4.745   2.828   8.347  2.4231 -1.0622 -0.2577
  102SAPE   HN310299   4.717   2.960   8.253  0.6936  0.2665 -2.1828
  102SAPE   C1210300   4.905   2.861   8.213 -0.8783  0.1493 -0.3442
  102SAPE  H12A10301   4.962   2.940   8.265  1.2812 -0.7495 -1.2421
  102SAPE  H12B10302   4.913   2.891   8.106  1.9099 -1.0365 -0.5510
  102SAPE   C1110303   4.971   2.721   8.228  0.9338 -0.0140 -0.1762
  102SAPE  H11A10304   5.067   2.710   8.174  1.3303  0.6014  0.3941
  102SAPE  H11B10305   4.888   2.669   8.175  0.1677  1.6460 -0.6714
  102SAPE     P10306   5.098   2.701   8.454  0.1877  0.0504  0.0035
  102SAPE   O1310307   5.121   2.848   8.474 -0.8243  0.4008 -0.1716
  102SAPE   O1410308   5.100   2.616   8.576 -0.3870  0.1069  0.2989
  102SAPE   O1210309   4.970   2.689   8.369  0.0886  0.0909 -0.2305
  102SAPE   O1110310   5.212   2.638   8.368 -0.3843  0.1674  0.3452
  102SAPE    C110311   5.320   2.709   8.316 -0.3230  0.6569  1.2148
  102SAPE    HA10312   5.299   2.816   8.293 -1.0249 -0.0764 -2.0143
  102SAPE    HB10313   5.407   2.699   8.384  0.9927 -0.0174 -0.5004
  102SAPE    C210314   5.360   2.647   8.186  0.0993  0.9252  0.0739
  102SAPE    HS10315   5.267   2.646   8.126  1.9921  1.0870 -3.0447
  102SAPE   O2110316   5.406   2.507   8.210 -0.4632 -0.6167 -0.0559
  102SAPE   C2110317   5.426   2.431   8.106  0.2189 -0.1917  0.5441
  102SAPE   O2210318   5.398   2.457   7.985 -0.2235 -0.2484  0.3310
  102SAPE   C2210319   5.487   2.298   8.157 -0.1732  0.4039  0.2104
  102SAPE   H2R10320   5.595   2.318   8.176 -0.1976 -0.4637  1.4315
  102SAPE   H2S10321   5.442   2.271   8.255 -0.7691 -0.3584 -0.2665
  102SAPE    C310322   5.465   2.741   8.121  0.1901  0.1944  0.4162
  102SAPE    HX10323   5.544   2.746   8.199 -0.0164  0.0993  0.6291
  102SAPE    HY10324   5.428   2.846   8.112 -3.4831 -1.1234 -2.4172
  102SAPE   O3110325   5.513   2.701   7.987  0.1691  0.4139 -0.1255
  102SAPE   C3110326   5.432   2.732   7.898  0.2569  0.2500  0.0495
  102SAPE   O3210327   5.337   2.812   7.907  0.2423 -0.3341 -0.4803
  102SAPE   C3210328   5.483   2.668   7.769 -0.4932 -0.0251 -0.0988
  102SAPE   H2X10329   5.428   2.572   7.757 -1.0638 -0.2066  3.1225
  102SAPE   H2Y10330   5.590   2.637   7.768 -1.1885 -2.6793 -0.2837
  102SAPE   C2310331   5.478   2.181   8.064  0.1822  0.6163 -0.6026
  102SAPE   H3R10332   5.380   2.199   8.014 -0.4115  1.6316  0.8363
  102SAPE   H3S10333   5.462   2.081   8.110  1.2637  1.8303  2.7214
  102SAPE   C2410334   5.587   2.182   7.962 -0.3777 -0.6394  0.0572
  102SAPE   H4R10335   5.687   2.168   8.009  0.0567  0.6992 -0.4167
  102SAPE   H4S10336   5.575   2.281   7.913  1.7805 -1.7136 -2.9428
  102SAPE   C2510337   5.574   2.078   7.856 -0.4985  0.1164  0.1515
  102SAPE   H5R10338   5.605   1.980   7.894  1.4636  0.2545 -0.9367
  102SAPE   C2610339   5.536   2.098   7.731  0.7079  0.8180  0.0007
  102SAPE   H6R10340   5.528   2.007   7.669 -1.3513 -0.5189  2.0963
  102SAPE   C2710341   5.493   2.227   7.665  0.4679 -0.5231 -0.0696
  102SAPE   H7R10342   5.585   2.264   7.616 -0.5381  0.7596 -1.0238
  102SAPE   H7S10343   5.457   2.289   7.750  0.3125  0.3931 -0.7910
  102SAPE   C2810344   5.373   2.214   7.560  0.0970 -0.4603  0.8536
  102SAPE   H8R10345   5.279   2.235   7.612 -0.3503 -3.6946  1.5146
  102SAPE   C2910346   5.382   2.190   7.430 -0.2090  0.2256 -0.6905
  102SAPE   H9R10347   5.287   2.184   7.374 -0.9026 -0.5691  0.5312
  102SAPE  C21010348   5.509   2.168   7.352  1.2786 -0.3043 -0.6708
  102SAPE  H10R10349   5.583   2.109   7.411  1.6036  0.4171 -0.3549
  102SAPE  H10S10350   5.556   2.267   7.336  0.2120  0.2471 -0.4834
  102SAPE  C21110351   5.500   2.107   7.216  0.1677  0.0794  0.2649
  102SAPE  H11R10352   5.489   1.998   7.215 -1.9576  0.2241 -1.4404
  102SAPE  C21210353   5.488   2.166   7.093 -0.1017  0.8183 -0.3071
  102SAPE  H12R10354   5.470   2.096   7.010 -0.1859  0.8429 -0.3100
  102SAPE  C21310355   5.481   2.315   7.066  0.2074 -0.4337  0.0321
  102SAPE  H13R10356   5.520   2.336   6.965  0.0302 -1.0800 -0.1747
  102SAPE  H13S10357   5.549   2.363   7.141  0.6033 -2.3843  0.9813
  102SAPE  C21410358   5.336   2.362   7.080 -0.3614 -0.0245  0.3858
  102SAPE  H14R10359   5.307   2.429   7.161  0.7349  0.6040  0.2706
  102SAPE  C21510360   5.244   2.330   6.994 -0.0427  0.1607  0.8577
  102SAPE  H15R10361   5.145   2.365   7.026  0.4772  3.6426 -0.9147
  102SAPE  C21610362   5.261   2.238   6.873 -0.0094  0.0942  0.6603
  102SAPE  H16R10363   5.204   2.144   6.889  0.0415  0.2495  1.8588
  102SAPE  H16S10364   5.368   2.209   6.859 -0.1908  0.5054 -2.1498
  102SAPE  C21710365   5.220   2.309   6.738  0.7577 -0.2733 -0.7432
  102SAPE  H17R10366   5.265   2.253   6.653 -1.0693 -2.3529 -0.4400
  102SAPE  H17S10367   5.267   2.410   6.742 -2.0874  1.1487 -0.1860
  102SAPE  C21810368   5.064   2.321   6.707  0.4475  0.1368 -0.2829
  102SAPE  H18R10369   5.022   2.383   6.789  0.9963  1.4759 -0.9843
  102SAPE  H18S10370   5.027   2.218   6.727  0.3787  0.6130  2.4451
  102SAPE  C21910371   5.038   2.374   6.566  0.6378 -0.2831  0.0377
  102SAPE  H19R10372   5.084   2.305   6.493  1.4359 -0.6202  0.8456
  102SAPE  H19S10373   5.099   2.464   6.544  0.1310 -0.0554 -0.4720
  102SAPE  C22010374   4.890   2.398   6.528  1.0323  0.7801  0.6285
  102SAPE  H20R10375   4.825   2.439   6.608 -0.5409 -0.1465 -0.1077
  102SAPE  H20S10376   4.847   2.296   6.513  0.1852  0.9905  1.5491
  102SAPE  H20T10377   4.877   2.450   6.431 -0.1970  0.7960  0.7883
  102SAPE   C3310378   5.466   2.751   7.637 -0.0474 -0.2868  0.5416
  102SAPE   H3X10379   5.543   2.830   7.650 -0.0551  0.1708 -1.7219
  102SAPE   H3Y10380   5.368   2.803   7.641  0.1636  0.0699  3.6060
  102SAPE   C3410381   5.484   2.681   7.491  0.5877  0.1103  0.0489
  102SAPE   H4X10382   5.408   2.601   7.474  0.3600  0.1653  0.7697
  102SAPE   H4Y10383   5.583   2.632   7.489 -0.3197 -1.8478  0.4756
  102SAPE   C3510384   5.461   2.786   7.377  0.2398  0.6937  0.3994
  102SAPE   H5X10385   5.536   2.867   7.390 -0.6195  1.2872  1.8447
  102SAPE   H5Y10386   5.354   2.819   7.378 -0.0213 -0.1121  0.1296
  102SAPE   C3610387   5.472   2.715   7.237 -0.4564 -0.0713 -0.2825
  102SAPE   H6X10388   5.423   2.615   7.230  2.7705 -1.7740 -0.6824
  102SAPE   H6Y10389   5.581   2.693   7.237 -0.5733 -0.7631  0.7724
  102SAPE   C3710390   5.446   2.796   7.113  0.3063 -0.0420 -0.3425
  102SAPE   H7X10391   5.507   2.888   7.109 -1.3050  1.2366  1.9850
  102SAPE   H7Y10392   5.339   2.826   7.118 -0.2646 -1.9755 -0.0939
  102SAPE   C3810393   5.467   2.721   6.978  0.1618  0.0337  0.3356
  102SAPE   H8X10394   5.378   2.656   6.967 -0.9253  1.6843 -1.2223
  102SAPE   H8Y10395   5.561   2.663   6.971  1.2443  1.6330  0.8321
  102SAPE   C3910396   5.468   2.822   6.859 -0.2984 -0.1325 -0.1144
  102SAPE   H9X10397   5.518   2.917   6.889  2.2991 -1.1671 -0.8676
  102SAPE   H9Y10398   5.363   2.850   6.833 -0.5945 -0.6254  0.5330
  102SAPE  C31010399   5.538   2.775   6.733 -0.7243 -0.1207  0.0293
  102SAPE  H10X10400   5.494   2.677   6.703  0.3579 -0.2935 -1.0921
  102SAPE  H10Y10401   5.641   2.746   6.763 -0.5937  2.5799  2.6048
  102SAPE  C31110402   5.551   2.880   6.619  0.2665 -0.4758 -0.1540
  102SAPE  H11X10403   5.577   2.982   6.653 -0.0854 -0.3569 -0.2416
  102SAPE  H11Y10404   5.444   2.889   6.590 -0.1518  1.8975  1.8013
  102SAPE  C31210405   5.655   2.840   6.513  0.0950 -0.6418 -0.0602
  102SAPE  H12X10406   5.632   2.738   6.474 -0.2309  0.9792 -4.6357
  102SAPE  H12Y10407   5.760   2.841   6.548  0.7549 -1.6143 -1.8784
  102SAPE  C31310408   5.670   2.937   6.393 -0.2135 -0.0290  0.2998
  102SAPE  H13X10409   5.754   2.907   6.327 -0.6180 -0.0770 -0.1990
  102SAPE  H13Y10410   5.702   3.033   6.439  0.2461  2.2676 -4.2852
  102SAPE  C31410411   5.548   2.954   6.301  0.1173 -0.0173  0.0000
  102SAPE  H14X10412   5.459   2.981   6.362  2.2875  1.4397  2.7632
  102SAPE  H14Y10413   5.534   2.862   6.239  0.8706 -0.3274  0.2872
  102SAPE  C31510414   5.567   3.069   6.194 -0.2744  0.4102  0.0590
  102SAPE  H15X10415   5.498   3.051   6.109  1.4558  0.3282 -1.3858
  102SAPE  H15Y10416   5.673   3.070   6.161 -0.3980 -0.8465 -0.3855
  102SAPE  C31610417   5.543   3.207   6.254 -0.3768  0.7292 -0.0347
  102SAPE  H16X10418   5.634   3.233   6.313 -1.1177  2.3237  0.4591
  102SAPE  H16Y10419   5.453   3.208   6.318 -1.4761  0.5816 -1.5161
  102SAPE  C31710420   5.527   3.313   6.143  0.2416  0.5316 -0.7817
  102SAPE  H17X10421   5.520   3.406   6.203 -0.9048  0.3639 -0.6399
  102SAPE  H17Y10422   5.431   3.303   6.088  0.2543  0.6097 -0.8178
  102SAPE  C31810423   5.639   3.329   6.046  0.1746  0.4098 -0.0880
  102SAPE  H18X10424   5.736   3.354   6.094  0.0416 -0.2319  0.5230
  102SAPE  H18Y10425   5.621   3.418   5.981 -1.9049  0.7907  0.9527
  102SAPE  H18Z10426   5.661   3.246   5.976  0.8551 -0.6475  1.3260
  103SAPE     N10427   6.429   6.645   3.689 -0.0526  0.1964 -0.0819
  103SAPE   HN110428   6.386   6.663   3.596 -1.3881 -2.7965 -0.1826
  103SAPE   HN210429   6.521   6.693   3.692  1.0039 -1.7349  0.1083
  103SAPE   HN310430   6.442   6.542   3.682  0.1658  0.2189 -0.0241
  103SAPE   C1210431   6.345   6.671   3.808 -0.3306 -0.1553  0.6592
  103SAPE  H12A10432   6.245   6.624   3.792 -0.2480  0.0176 -0.4636
  103SAPE  H12B10433   6.336   6.780   3.828  2.4115  0.1064  0.8213
  103SAPE   C1110434   6.410   6.599   3.933  0.3558 -0.5295  0.0913
  103SAPE  H11A10435   6.411   6.489   3.917  0.8315 -0.4684 -0.3120
  103SAPE  H11B10436   6.340   6.618   4.018 -1.3778  0.8271 -1.5588
  103SAPE     P10437   6.549   6.785   4.050  0.3597 -0.3580 -0.0662
  103SAPE   O1310438   6.681   6.843   4.045  0.9075  0.2828  0.8396
  103SAPE   O1410439   6.437   6.879   4.023 -0.4361 -0.3328  0.0112
  103SAPE   O1210440   6.537   6.651   3.961  0.5582  0.0745 -0.7605
  103SAPE   O1110441   6.532   6.723   4.193  0.0814  0.2085  0.0349
  103SAPE    C110442   6.599   6.602   4.236 -0.7037 -0.2106  0.8735
  103SAPE    HA10443   6.533   6.514   4.252 -3.1715  1.6693  1.4803
  103SAPE    HB10444   6.673   6.569   4.159 -2.1523 -0.9638 -0.2500
  103SAPE    C210445   6.686   6.625   4.361 -0.9421  0.2432 -0.4674
  103SAPE    HS10446   6.712   6.529   4.410 -1.7236  0.6701  0.8635
  103SAPE   O2110447   6.638   6.710   4.465 -0.0370  0.1875 -0.4731
  103SAPE   C2110448   6.545   6.653   4.539 -0.1195 -0.8526  0.0160
  103SAPE   O2210449   6.508   6.538   4.536 -0.1419 -0.4953  0.5223
  103SAPE   C2210450   6.488   6.763   4.630  0.1480 -0.3805 -0.3875
  103SAPE   H2R10451   6.458   6.851   4.569 -2.7742 -1.1586 -0.2249
  103SAPE   H2S10452   6.404   6.710   4.679 -0.6350  0.0924 -1.1908
  103SAPE    C310453   6.834   6.688   4.335  0.0621 -0.1077  0.2119
  103SAPE    HX10454   6.819   6.798   4.331  0.9221 -0.0192 -1.4919
  103SAPE    HY10455   6.865   6.653   4.234 -1.6966 -0.6966 -0.1704
  103SAPE   O3110456   6.933   6.647   4.430 -0.0182  0.1024 -0.0518
  103SAPE   C3110457   6.946   6.732   4.531 -0.7064  0.2843 -0.4234
  103SAPE   O3210458   6.873   6.827   4.551 -0.1789  0.0592  0.3443
  103SAPE   C3210459   7.058   6.687   4.627 -0.4726 -0.5990  0.4764
  103SAPE   H2X10460   7.151   6.705   4.569 -0.4991  0.6043  0.7996
  103SAPE   H2Y10461   7.047   6.578   4.648 -2.3229 -0.4398  0.4422
  103SAPE   C2310462   6.587   6.811   4.736 -0.9848 -0.4560 -0.1512
  103SAPE   H3R10463   6.533   6.883   4.800  2.4877  1.2599  1.1180
  103SAPE   H3S10464   6.674   6.865   4.692 -0.5953 -0.3252  0.7526
  103SAPE   C2410465   6.653   6.695   4.822  0.3813  0.5221 -0.3285
  103SAPE   H4R10466   6.741   6.677   4.757  1.7193 -0.4423  1.6714
  103SAPE   H4S10467   6.584   6.608   4.814  0.5250  0.4807 -1.3645
  103SAPE   C2510468   6.688   6.732   4.961 -0.0512  0.1330  0.0799
  103SAPE   H5R10469   6.761   6.814   4.969  0.4051  0.2494 -3.5036
  103SAPE   C2610470   6.653   6.666   5.072 -0.1795  0.2894  0.0592
  103SAPE   H6R10471   6.692   6.695   5.171 -1.2657 -0.7344  0.8198
  103SAPE   C2710472   6.553   6.557   5.086 -0.1935 -0.0263 -0.0234
  103SAPE   H7R10473   6.610   6.465   5.111  1.5934  0.9012 -0.5567
  103SAPE   H7S10474   6.507   6.535   4.987 -0.8685  2.7561 -0.4236
  103SAPE   C2810475   6.438   6.573   5.186  0.1392  0.4029  0.8801
  103SAPE   H8R10476   6.342   6.608   5.146 -0.4680  0.5292  2.3742
  103SAPE   C2910477   6.440   6.553   5.318  0.1334 -0.1302 -0.4773
  103SAPE   H9R10478   6.345   6.565   5.373  0.6244  0.5943  0.2362
  103SAPE  C21010479   6.553   6.491   5.395 -0.4940 -0.1063  0.4895
  103SAPE  H10R10480   6.645   6.508   5.335  0.6107 -0.8825  1.9050
  103SAPE  H10S10481   6.538   6.381   5.400  1.1310 -0.3597  0.4964
  103SAPE  C21110482   6.553   6.546   5.536 -0.1580  0.0917 -0.4455
  103SAPE  H11R10483   6.618   6.636   5.534  1.3045 -0.9190 -0.0188
  103SAPE  C21210484   6.500   6.487   5.645  0.4341 -0.1258  0.3320
  103SAPE  H12R10485   6.509   6.537   5.743 -0.0585 -0.5726  0.6116
  103SAPE  C21310486   6.414   6.358   5.646  0.0702 -0.4700  0.2892
  103SAPE  H13R10487   6.424   6.309   5.745  2.3887 -2.8613 -0.9751
  103SAPE  H13S10488   6.465   6.292   5.571 -0.0276 -0.5885  0.3279
  103SAPE  C21410489   6.269   6.365   5.604  0.4997 -0.4053 -0.4525
  103SAPE  H14R10490   6.253   6.305   5.513 -0.0675 -0.0455 -0.5945
  103SAPE  C21510491   6.169   6.443   5.649  0.1539  0.2926 -0.4297
  103SAPE  H15R10492   6.066   6.422   5.617  0.0388  1.5706 -0.9435
  103SAPE  C21610493   6.168   6.530   5.778 -0.2225  0.4963  0.4058
  103SAPE  H16R10494   6.116   6.625   5.752 -0.1040 -0.1990 -2.7676
  103SAPE  H16S10495   6.272   6.559   5.804  0.2725 -0.2374 -0.6809
  103SAPE  C21710496   6.116   6.468   5.912 -0.1592  0.2867 -0.5162
  103SAPE  H17R10497   6.129   6.548   5.988 -2.4948  1.1956 -0.9826
  103SAPE  H17S10498   6.184   6.383   5.937 -1.5231 -0.4492  0.7901
  103SAPE  C21810499   5.972   6.402   5.909 -0.8689 -0.6780  0.6957
  103SAPE  H18R10500   5.941   6.352   6.003 -1.3746 -0.4151  0.6722
  103SAPE  H18S10501   5.990   6.324   5.832 -0.9968  0.9293 -1.0526
  103SAPE  C21910502   5.865   6.501   5.855 -0.1188 -0.4791 -0.3330
  103SAPE  H19R10503   5.894   6.527   5.751  1.4705 -1.8511 -0.2828
  103SAPE  H19S10504   5.863   6.582   5.931  0.0407 -1.0030  0.2320
  103SAPE  C22010505   5.725   6.450   5.844 -0.6367  0.3140 -0.0744
  103SAPE  H20R10506   5.706   6.392   5.937 -0.6413  0.5164  0.0497
  103SAPE  H20S10507   5.728   6.394   5.748 -1.3598 -0.7101  0.4802
  103SAPE  H20T10508   5.648   6.528   5.827 -0.1508  0.6461 -0.7716
  103SAPE   C3310509   7.044   6.753   4.766 -0.6026  0.0295 -0.4647
  103SAPE   H3X10510   6.943   6.727   4.805 -2.0697  2.3899 -2.3646
  103SAPE   H3Y10511   7.053   6.863   4.756  1.3665 -0.1850 -1.7058
  103SAPE   C3410512   7.145   6.717   4.882 -0.1544 -0.7549  0.3648
  103SAPE   H4X10513   7.243   6.758   4.850 -0.6495  2.4013  2.3227
  103SAPE   H4Y10514   7.138   6.607   4.891 -0.0992 -0.7884  0.0178
  103SAPE   C3510515   7.096   6.773   5.016 -0.4593 -0.1117 -0.1865
  103SAPE   H5X10516   7.011   6.712   5.053 -0.3469 -0.6966 -0.8649
  103SAPE   H5Y10517   7.078   6.882   5.007  1.1850  0.2649  0.6303
  103SAPE   C3610518   7.215   6.753   5.123  0.3325 -0.1717 -0.8129
  103SAPE   H6X10519   7.305   6.788   5.068  0.7725  1.3917  0.8026
  103SAPE   H6Y10520   7.223   6.644   5.146  1.2286  0.3562  1.6451
  103SAPE   C3710521   7.212   6.843   5.251 -0.2737 -0.6596  0.2956
  103SAPE   H7X10522   7.221   6.949   5.218  1.1125 -1.1282 -0.9716
  103SAPE   H7Y10523   7.304   6.809   5.303  1.5638  1.5237 -1.2817
  103SAPE   C3810524   7.088   6.826   5.341 -0.5284  0.5153  0.8871
  103SAPE   H8X10525   7.000   6.822   5.273  1.7183 -1.0022 -2.1571
  103SAPE   H8Y10526   7.077   6.901   5.423  4.1610 -0.2336  2.4808
  103SAPE   C3910527   7.087   6.690   5.408  0.4342 -0.0274 -0.4127
  103SAPE   H9X10528   7.185   6.674   5.459  1.2724  0.0474 -1.9357
  103SAPE   H9Y10529   7.086   6.607   5.334  0.9089 -1.0978  0.7437
  103SAPE  C31010530   6.986   6.679   5.523 -0.1552 -0.1797 -0.2318
  103SAPE  H10X10531   6.892   6.663   5.466 -0.8440  1.2037  0.4800
  103SAPE  H10Y10532   6.989   6.772   5.583 -0.1943 -0.8529  0.8467
  103SAPE  C31110533   6.993   6.562   5.618  0.6011 -0.2275  0.1545
  103SAPE  H11X10534   6.919   6.566   5.700  1.8228  1.7390  1.2524
  103SAPE  H11Y10535   7.094   6.562   5.665  0.1266  0.9497  1.2252
  103SAPE  C31210536   6.964   6.425   5.557  0.4460  0.3508  0.2728
  103SAPE  H12X10537   7.024   6.425   5.464 -0.6357  0.1257 -0.4326
  103SAPE  H12Y10538   6.860   6.416   5.520  0.9475 -0.9517 -0.9095
  103SAPE  C31310539   7.003   6.312   5.650  0.2734 -0.3082 -1.1296
  103SAPE  H13X10540   7.108   6.314   5.687 -0.1791 -1.2747  0.3356
  103SAPE  H13Y10541   6.991   6.220   5.588 -0.4771 -0.1919 -1.1673
  103SAPE  C31410542   6.915   6.294   5.777  0.2377 -0.2569  0.7503
  103SAPE  H14X10543   6.813   6.278   5.737  0.6638  0.2387 -0.5806
  103SAPE  H14Y10544   6.906   6.393   5.826 -0.0334  0.3912 -0.5647
  103SAPE  C31510545   6.954   6.184   5.875  0.2986 -0.6335  0.1325
  103SAPE  H15X10546   7.008   6.104   5.819  2.9040  2.0843 -1.4956
  103SAPE  H15Y10547   6.860   6.152   5.925 -0.7258  0.1807 -1.1856
  103SAPE  C31610548   7.041   6.243   5.985 -0.0395  0.1441  0.4069
  103SAPE  H16X10549   6.983   6.327   6.029  0.1138  0.1878  0.5278
  103SAPE  H16Y10550   7.135   6.276   5.935 -0.1290  0.5240  0.4828
  103SAPE  C31710551   7.068   6.129   6.089  0.1062 -0.2958 -0.2730
  103SAPE  H17X10552   7.146   6.059   6.051  2.2427  1.3515  0.8280
  103SAPE  H17Y10553   6.976   6.070   6.109  0.8473 -1.6260 -0.6754
  103SAPE  C31810554   7.126   6.199   6.214 -0.2643 -0.0454  0.1036
  103SAPE  H18X10555   7.152   6.118   6.286  2.0277 -1.1864 -1.8389
  103SAPE  H18Y10556   7.063   6.278   6.259 -1.3212 -1.3553  0.9940
  103SAPE  H18Z10557   7.227   6.238   6.187 -0.4580  1.3621  1.2989
  104SAPE     N10558   1.761   6.750   3.706  0.1934 -0.4835 -0.0520
  104SAPE   HN110559   1.803   6.659   3.680  3.7314  0.6668  1.0451
  104SAPE   HN210560   1.701   6.772   3.624 -1.0755 -2.2667  0.3296
  104SAPE   HN310561   1.838   6.818   3.714  0.1427 -0.3411 -0.7340
  104SAPE   C1210562   1.667   6.762   3.828 -0.6397  0.2085 -0.0587
  104SAPE  H12A10563   1.723   6.715   3.911 -0.7348  1.0686  0.4998
  104SAPE  H12B10564   1.572   6.713   3.796 -1.0525  2.2478 -2.2424
  104SAPE   C1110565   1.636   6.904   3.876  0.5165  0.1490  0.2731
  104SAPE  H11A10566   1.591   6.965   3.795  2.8239 -0.5101 -1.5897
  104SAPE  H11B10567   1.720   6.972   3.899  1.0512 -0.2649 -0.4240
  104SAPE     P10568   1.587   6.973   4.130 -0.0091  0.2384 -0.1144
  104SAPE   O1310569   1.595   7.116   4.100 -0.3976 -0.6265  0.1613
  104SAPE   O1410570   1.486   6.935   4.238  0.2098 -0.1328 -0.3275
  104SAPE   O1210571   1.552   6.895   3.992  0.1152  0.2359 -0.0709
  104SAPE   O1110572   1.733   6.922   4.161  0.2674  0.8598 -0.3669
  104SAPE    C110573   1.743   6.808   4.244  0.4771 -0.5196  0.1518
  104SAPE    HA10574   1.653   6.747   4.267  0.2563 -0.9638 -1.7173
  104SAPE    HB10575   1.822   6.745   4.198  1.0091 -0.4057  0.9008
  104SAPE    C210576   1.806   6.847   4.385  0.0314  0.0200  0.2859
  104SAPE    HS10577   1.830   6.762   4.452 -2.2622 -0.4033  0.6618
  104SAPE   O2110578   1.707   6.920   4.451 -0.1088  0.2427 -0.2600
  104SAPE   C2110579   1.623   6.848   4.523 -0.2110  0.4499 -0.6626
  104SAPE   O2210580   1.607   6.727   4.520  0.1794 -0.3019 -0.0009
  104SAPE   C2210581   1.560   6.935   4.627  0.2763 -0.8336 -0.5952
  104SAPE   H2R10582   1.552   7.041   4.596 -0.7341 -0.7038  0.0760
  104SAPE   H2S10583   1.455   6.901   4.638  0.2372 -0.1721  1.5972
  104SAPE    C310584   1.934   6.935   4.361  0.2024  0.2368 -1.1915
  104SAPE    HX10585   1.917   7.011   4.282  1.6806  3.3322  1.2663
  104SAPE    HY10586   2.010   6.862   4.324  1.0773 -0.1619  1.1977
  104SAPE   O3110587   1.982   6.994   4.482  0.2216 -0.1484 -0.6143
  104SAPE   C3110588   1.939   7.123   4.502 -0.4252 -0.4416  0.0486
  104SAPE   O3210589   1.885   7.193   4.418  0.4873 -0.5034  0.3334
  104SAPE   C3210590   1.994   7.167   4.639  0.4788 -0.6352 -0.4498
  104SAPE   H2X10591   1.910   7.219   4.690  0.7369 -0.9032  0.2686
  104SAPE   H2Y10592   2.080   7.236   4.626  0.3309  0.2064  2.3086
  104SAPE   C2310593   1.622   6.921   4.768  0.1381  0.3223  0.0567
  104SAPE   H3R10594   1.707   6.992   4.777  1.3922 -1.2755  1.3879
  104SAPE   H3S10595   1.671   6.822   4.778  1.7207  1.2049  1.4563
  104SAPE   C2410596   1.512   6.941   4.883  0.0884 -0.6821 -0.1708
  104SAPE   H4R10597   1.425   6.872   4.873  0.6837 -1.1072 -3.0961
  104SAPE   H4S10598   1.466   7.035   4.846  1.4886 -0.0946 -0.4557
  104SAPE   C2510599   1.586   6.938   5.013 -1.0564  0.1382 -0.0588
  104SAPE   H5R10600   1.640   7.031   5.037 -1.0642  0.4387 -1.1440
  104SAPE   C2610601   1.575   6.845   5.108  0.4523 -0.2326 -0.4754
  104SAPE   H6R10602   1.617   6.867   5.207 -0.8885 -1.4951  0.4260
  104SAPE   C2710603   1.503   6.709   5.103  0.3167  0.0006 -0.4316
  104SAPE   H7R10604   1.565   6.623   5.134 -0.7179  0.1952  2.4553
  104SAPE   H7S10605   1.482   6.682   4.997 -0.5063  1.1908 -0.5951
  104SAPE   C2810606   1.366   6.715   5.173  0.3873  0.1335 -0.6182
  104SAPE   H8R10607   1.293   6.791   5.143 -1.0034 -1.3311 -1.0843
  104SAPE   C2910608   1.330   6.633   5.281 -0.3437 -0.0828  0.3814
  104SAPE   H9R10609   1.240   6.655   5.341 -1.9181 -0.1405 -1.8447
  104SAPE  C21010610   1.410   6.512   5.324  0.6067 -0.4927  0.4318
  104SAPE  H10R10611   1.519   6.535   5.319  0.4537 -0.0098 -1.5089
  104SAPE  H10S10612   1.395   6.434   5.246 -1.9705  0.9180 -0.6064
  104SAPE  C21110613   1.375   6.439   5.448  0.1983  0.9507 -0.8682
  104SAPE  H11R10614   1.301   6.359   5.441  2.4792 -1.2252 -1.5092
  104SAPE  C21210615   1.428   6.470   5.564  0.4774  0.0425  0.2696
  104SAPE  H12R10616   1.406   6.401   5.647 -0.9632  1.3193  1.0043
  104SAPE  C21310617   1.523   6.582   5.585 -0.2416 -0.2846  0.7327
  104SAPE  H13R10618   1.475   6.653   5.655 -2.7171 -0.4541 -0.6438
  104SAPE  H13S10619   1.544   6.638   5.491  0.5560 -2.4098 -0.4191
  104SAPE  C21410620   1.647   6.529   5.652  0.0018  0.0610  0.9174
  104SAPE  H14R10621   1.709   6.471   5.582 -0.6565 -1.8266  1.8241
  104SAPE  C21510622   1.698   6.558   5.773  0.2057 -0.0148 -0.8796
  104SAPE  H15R10623   1.795   6.521   5.808  0.4093  1.3517  0.0488
  104SAPE  C21610624   1.630   6.658   5.869 -0.2768 -0.3674  0.3666
  104SAPE  H16R10625   1.578   6.598   5.948 -2.1058 -0.3063 -0.7224
  104SAPE  H16S10626   1.549   6.725   5.833 -0.2428  0.4765  1.7642
  104SAPE  C21710627   1.735   6.745   5.950 -0.6134  0.0507 -0.3799
  104SAPE  H17R10628   1.794   6.676   6.013  0.6007  2.2139  0.9763
  104SAPE  H17S10629   1.671   6.806   6.017  0.1492 -1.3235  1.6737
  104SAPE  C21810630   1.809   6.849   5.870  0.6512 -0.3350  0.3102
  104SAPE  H18R10631   1.723   6.901   5.821  0.0983 -2.0102 -0.5617
  104SAPE  H18S10632   1.884   6.804   5.803 -0.3468 -1.1401 -0.2968
  104SAPE  C21910633   1.881   6.954   5.958  1.1375  0.0031  0.2528
  104SAPE  H19R10634   1.818   7.024   6.016  1.3785  1.0025 -0.6695
  104SAPE  H19S10635   1.951   7.012   5.894  1.4414  1.1966  1.6142
  104SAPE  C22010636   1.964   6.881   6.066 -0.3442  0.0398 -0.2966
  104SAPE  H20R10637   1.901   6.822   6.136 -0.2446  0.5891  0.2628
  104SAPE  H20S10638   2.028   6.961   6.108 -1.4125  0.2836  0.9006
  104SAPE  H20T10639   2.026   6.805   6.013  0.1772 -1.6336  2.5210
  104SAPE   C3310640   2.041   7.048   4.726 -0.7614 -0.2091 -0.1835
  104SAPE   H3X10641   2.109   6.989   4.660  0.0382  1.5746 -1.0168
  104SAPE   H3Y10642   1.959   6.977   4.750  1.6805 -3.0964  0.1914
  104SAPE   C3410643   2.120   7.072   4.858 -0.1229  1.0821  0.0056
  104SAPE   H4X10644   2.220   7.111   4.831  0.2939  2.0315  2.6474
  104SAPE   H4Y10645   2.132   6.967   4.894 -2.8364  0.8078  0.3710
  104SAPE   C3510646   2.056   7.165   4.961 -0.5427  0.0351  0.9162
  104SAPE   H5X10647   1.982   7.237   4.919  1.0637  0.3883 -1.5018
  104SAPE   H5Y10648   2.127   7.221   5.024 -2.0110  1.9882  0.9413
  104SAPE   C3610649   1.986   7.081   5.076  0.2986  0.0285  0.3833
  104SAPE   H6X10650   2.072   7.019   5.110 -1.7290 -4.1163 -1.3109
  104SAPE   H6Y10651   1.914   7.005   5.039 -0.3504  2.0717 -3.0038
  104SAPE   C3710652   1.918   7.168   5.181  0.1923 -0.3307 -0.3004
  104SAPE   H7X10653   1.830   7.225   5.143 -0.9763 -2.2451 -0.5672
  104SAPE   H7Y10654   1.999   7.239   5.210 -0.0236  0.1561 -0.8689
  104SAPE   C3810655   1.881   7.092   5.310  0.0895 -0.0684 -0.6120
  104SAPE   H8X10656   1.966   7.032   5.348  0.0079 -0.0747 -0.4388
  104SAPE   H8Y10657   1.798   7.025   5.279 -1.5614  2.1064 -1.1015
  104SAPE   C3910658   1.834   7.194   5.417 -0.1599  0.2450  0.0803
  104SAPE   H9X10659   1.765   7.264   5.366 -1.2476 -0.9773 -0.1794
  104SAPE   H9Y10660   1.921   7.255   5.449 -0.1213  0.5805 -0.6537
  104SAPE  C31010661   1.767   7.129   5.542 -0.3159  0.7472 -0.0679
  104SAPE  H10X10662   1.734   7.212   5.607  0.3669  0.1253  1.0993
  104SAPE  H10Y10663   1.843   7.066   5.593 -0.4827 -2.1364 -2.9948
  104SAPE  C31110664   1.644   7.043   5.504  0.1915 -0.5851 -0.0594
  104SAPE  H11X10665   1.582   7.007   5.589  1.4486  0.0599  1.1754
  104SAPE  H11Y10666   1.684   6.946   5.468 -0.3619 -1.8561  2.5072
  104SAPE  C31210667   1.549   7.102   5.399  0.0928 -0.3407 -0.3105
  104SAPE  H12X10668   1.590   7.111   5.296 -0.9458  3.7343 -0.5470
  104SAPE  H12Y10669   1.520   7.205   5.429  0.2119 -0.6090  0.7863
  104SAPE  C31310670   1.420   7.028   5.398  0.4092  0.2614  0.2544
  104SAPE  H13X10671   1.385   7.036   5.503  3.3370 -1.5949  1.5110
  104SAPE  H13Y10672   1.437   6.919   5.383  0.3098  0.3750 -0.8263
  104SAPE  C31410673   1.316   7.096   5.308  0.1209  0.0810  0.0139
  104SAPE  H14X10674   1.329   7.060   5.204  2.1085 -0.1601  0.2943
  104SAPE  H14Y10675   1.327   7.207   5.303 -1.4294  0.3316  1.3942
  104SAPE  C31510676   1.174   7.081   5.365 -0.7819 -0.3251 -0.1183
  104SAPE  H15X10677   1.156   6.975   5.391  1.1734 -0.7426 -0.3313
  104SAPE  H15Y10678   1.097   7.116   5.292 -0.1446  0.6419 -0.3438
  104SAPE  C31610679   1.142   7.165   5.493  0.4104 -0.6877 -0.0441
  104SAPE  H16X10680   1.235   7.224   5.508  0.6463 -0.3134 -2.5197
  104SAPE  H16Y10681   1.127   7.096   5.578 -0.1001 -0.1772  0.2901
  104SAPE  C31710682   1.021   7.263   5.479  0.5280 -0.0587  0.4293
  104SAPE  H17X10683   0.926   7.205   5.481 -0.0557  0.8270 -0.7041
  104SAPE  H17Y10684   1.034   7.289   5.371 -1.4760  0.4513  0.2807
  104SAPE  C31810685   1.023   7.395   5.562  0.1100 -0.3043  0.1270
  104SAPE  H18X10686   1.114   7.453   5.537 -0.7874  0.9297 -0.3488
  104SAPE  H18Y10687   1.008   7.375   5.671  0.5395  0.1535  0.2763
  104SAPE  H18Z10688   0.938   7.457   5.528 -2.5451 -1.3599  4.0637
  105SAPE     N10689   2.777   3.470   3.604  0.4721 -0.1737  0.3567
  105SAPE   HN110690   2.763   3.480   3.707 -0.1537 -0.7230  0.3336
  105SAPE   HN210691   2.770   3.369   3.580  1.7961  0.1831 -1.7042
  105SAPE   HN310692   2.877   3.496   3.591  0.2242  0.5105 -0.2778
  105SAPE   C1210693   2.680   3.554   3.524  0.7123  0.2638 -0.3103
  105SAPE  H12A10694   2.582   3.501   3.522  0.6772  0.3408 -0.5655
  105SAPE  H12B10695   2.720   3.564   3.421 -1.5609  1.5058 -1.1508
  105SAPE   C1110696   2.671   3.696   3.576  0.5910 -0.1974 -0.0915
  105SAPE  H11A10697   2.586   3.752   3.531 -0.6936 -0.8288  1.4170
  105SAPE  H11B10698   2.757   3.745   3.526  0.0797  1.2539  0.3994
  105SAPE     P10699   2.583   3.802   3.796  0.3639  0.1313 -0.3401
  105SAPE   O1310700   2.623   3.947   3.773  0.7230  0.6487  0.8813
  105SAPE   O1410701   2.438   3.769   3.771 -0.5554 -0.0692  0.1285
  105SAPE   O1210702   2.675   3.705   3.716 -0.6897  0.6123 -0.0308
  105SAPE   O1110703   2.616   3.764   3.947 -0.7930  0.0315 -0.3201
  105SAPE    C110704   2.754   3.756   3.984 -0.3339  0.2565 -0.2051
  105SAPE    HA10705   2.826   3.801   3.912  1.4468 -1.1942  0.5833
  105SAPE    HB10706   2.768   3.808   4.081  0.5120 -2.5821  1.3209
  105SAPE    C210707   2.801   3.611   4.000 -0.1296  0.0359  0.7932
  105SAPE    HS10708   2.799   3.562   3.901 -1.8121  0.4419  0.5998
  105SAPE   O2110709   2.716   3.544   4.087  0.9392  0.3986 -0.1986
  105SAPE   C2110710   2.610   3.493   4.038 -0.2257 -0.4097 -0.1951
  105SAPE   O2210711   2.580   3.471   3.919  0.1369  0.3306 -0.1125
  105SAPE   C2210712   2.533   3.440   4.157 -0.2793 -0.0048 -0.2389
  105SAPE   H2R10713   2.517   3.333   4.131 -1.1923  0.3527 -1.2152
  105SAPE   H2S10714   2.585   3.435   4.255  0.5231  0.7803 -0.6187
  105SAPE    C310715   2.951   3.607   4.044  0.1874  0.4489  0.3895
  105SAPE    HX10716   3.006   3.656   3.961  1.6080  0.1744  1.1429
  105SAPE    HY10717   2.983   3.501   4.047 -0.8925  0.1258  0.9980
  105SAPE   O3110718   2.981   3.674   4.167  0.0975 -0.4841 -0.0063
  105SAPE   C3110719   3.110   3.700   4.187  0.0208  0.1318  0.0464
  105SAPE   O3210720   3.208   3.661   4.125  0.3180 -0.0626  0.2176
  105SAPE   C3210721   3.126   3.797   4.307  0.0076 -0.3025  0.0396
  105SAPE   H2X10722   3.047   3.874   4.300 -2.9683 -3.2387 -2.0911
  105SAPE   H2Y10723   3.227   3.842   4.297 -0.0668 -0.0954  0.2130
  105SAPE   C2310724   2.387   3.496   4.189  0.1119  1.0113 -0.0861
  105SAPE   H3R10725   2.341   3.519   4.090  1.4601 -0.7658 -1.1945
  105SAPE   H3S10726   2.393   3.591   4.247  1.0809  0.5327  0.6393
  105SAPE   C2410727   2.293   3.398   4.267 -0.1109 -0.1996 -0.5957
  105SAPE   H4R10728   2.335   3.392   4.369 -0.6425  1.2805 -0.2609
  105SAPE   H4S10729   2.293   3.298   4.220 -2.7815 -0.0495 -1.0601
  105SAPE   C2510730   2.158   3.471   4.276  0.0973  0.0248 -0.5714
  105SAPE   H5R10731   2.087   3.455   4.194  1.8787  0.7634 -2.3563
  105SAPE   C2610732   2.114   3.549   4.377 -0.2883 -0.4072 -1.0672
  105SAPE   H6R10733   2.012   3.588   4.365 -0.9682 -1.3896  1.1004
  105SAPE   C2710734   2.181   3.599   4.500 -0.5689 -0.3610  0.0649
  105SAPE   H7R10735   2.256   3.525   4.535 -0.3838 -0.0748  0.2695
  105SAPE   H7S10736   2.108   3.581   4.583 -0.1056 -3.2191 -0.0244
  105SAPE   C2810737   2.222   3.746   4.500 -0.4461  0.5224  0.3645
  105SAPE   H8R10738   2.254   3.779   4.400  3.5574 -1.3939  0.8005
  105SAPE   C2910739   2.222   3.833   4.597 -0.2159 -1.0804  0.3105
  105SAPE   H9R10740   2.250   3.937   4.576 -2.2611 -0.2997  1.1879
  105SAPE  C21010741   2.162   3.813   4.735 -0.2608 -0.5314 -0.4738
  105SAPE  H10R10742   2.203   3.722   4.783 -1.8499 -0.5745  0.8986
  105SAPE  H10S10743   2.053   3.799   4.716  0.0371 -1.5483 -1.5853
  105SAPE  C21110744   2.189   3.928   4.832  0.7988 -0.2414 -0.0588
  105SAPE  H11R10745   2.244   4.018   4.799  2.0398 -1.5933 -1.8605
  105SAPE  C21210746   2.132   3.928   4.956 -0.5136  0.2067 -0.0877
  105SAPE  H12R10747   2.144   4.018   5.019  1.3944 -0.1855  0.1957
  105SAPE  C21310748   2.051   3.817   5.014 -0.2216 -0.2137  0.1318
  105SAPE  H13R10749   2.108   3.724   5.030 -0.3194  0.0829  2.5859
  105SAPE  H13S10750   1.969   3.791   4.944 -0.8179 -0.4267  0.8929
  105SAPE  C21410751   2.009   3.862   5.157  0.0969  0.2194 -0.3658
  105SAPE  H14R10752   1.920   3.926   5.160  0.3670  0.5810  2.1770
  105SAPE  C21510753   2.077   3.846   5.276  0.6152  0.0122  0.1005
  105SAPE  H15R10754   2.043   3.912   5.357 -2.4591  3.0526 -3.2683
  105SAPE  C21610755   2.202   3.771   5.299 -0.5641  0.0238 -0.7894
  105SAPE  H16R10756   2.247   3.724   5.209 -0.0413 -2.4277  0.6791
  105SAPE  H16S10757   2.187   3.686   5.368  1.5036  1.1966  1.2874
  105SAPE  C21710758   2.328   3.851   5.345 -0.1535 -0.4638 -0.1885
  105SAPE  H17R10759   2.403   3.778   5.384  2.1359  1.9752  0.2810
  105SAPE  H17S10760   2.303   3.921   5.427 -1.7016 -0.7123 -0.4322
  105SAPE  C21810761   2.376   3.931   5.222 -0.2401 -0.0397  0.3413
  105SAPE  H18R10762   2.301   4.009   5.200 -1.1424 -1.3215 -1.3858
  105SAPE  H18S10763   2.390   3.861   5.137 -0.0666  0.5979 -0.1623
  105SAPE  C21910764   2.512   3.997   5.249  0.3672 -0.2528  0.0110
  105SAPE  H19R10765   2.537   4.038   5.149  0.9594 -1.8699 -0.5288
  105SAPE  H19S10766   2.584   3.920   5.284  0.1121 -0.2687  0.5003
  105SAPE  C22010767   2.522   4.100   5.362  0.0042  0.5947 -0.4828
  105SAPE  H20R10768   2.624   4.142   5.368  0.5123 -0.4934 -1.1925
  105SAPE  H20S10769   2.500   4.051   5.460 -1.3372 -1.0623 -1.5341
  105SAPE  H20T10770   2.453   4.186   5.345 -0.6586 -0.1149 -1.5498
  105SAPE   C3310771   3.111   3.719   4.446  0.2916  1.0487 -0.1223
  105SAPE   H3X10772   3.184   3.635   4.454 -0.2249  0.1938 -3.0835
  105SAPE   H3Y10773   3.007   3.679   4.445  0.7492 -0.3080 -2.9486
  105SAPE   C3410774   3.147   3.817   4.562  0.8947 -0.0924  0.9834
  105SAPE   H4X10775   3.114   3.919   4.531  1.9596 -0.9029 -3.4654
  105SAPE   H4Y10776   3.257   3.822   4.568  0.9148  1.0576  0.0942
  105SAPE   C3510777   3.106   3.764   4.700 -0.4471  0.5969 -0.7831
  105SAPE   H5X10778   3.123   3.654   4.702 -1.9927  0.3321  1.4118
  105SAPE   H5Y10779   2.997   3.783   4.712 -0.8341 -1.7875  0.0890
  105SAPE   C3610780   3.191   3.826   4.808  0.3483 -0.4627  0.1551
  105SAPE   H6X10781   3.149   3.928   4.819  0.4351 -0.4307  0.1895
  105SAPE   H6Y10782   3.296   3.832   4.770  0.5880 -1.1205  0.6789
  105SAPE   C3710783   3.191   3.742   4.937 -0.1601  0.4708 -0.5031
  105SAPE   H7X10784   3.249   3.793   5.017 -0.8974 -2.3926  2.0988
  105SAPE   H7Y10785   3.236   3.641   4.922 -3.4478 -2.0143  3.9051
  105SAPE   C3810786   3.047   3.713   4.996  0.6725 -1.2212 -0.7306
  105SAPE   H8X10787   3.005   3.626   4.940 -0.6662  0.5586 -2.6257
  105SAPE   H8Y10788   2.980   3.799   4.974 -1.2459 -2.0930  1.2599
  105SAPE   C3910789   3.034   3.665   5.143 -0.0102 -0.2900 -0.1522
  105SAPE   H9X10790   2.931   3.633   5.171 -0.2802 -0.9175 -1.7788
  105SAPE   H9Y10791   3.059   3.757   5.201  1.5533 -0.4237 -0.5894
  105SAPE  C31010792   3.139   3.561   5.167  0.1368 -0.1755 -0.1197
  105SAPE  H10X10793   3.234   3.609   5.135  1.1636 -0.9816  1.5879
  105SAPE  H10Y10794   3.114   3.472   5.106 -3.0616  0.8488 -0.5455
  105SAPE  C31110795   3.148   3.504   5.304 -0.5676 -0.0580 -0.5440
  105SAPE  H11X10796   3.236   3.435   5.296  0.3428  1.0783 -0.5912
  105SAPE  H11Y10797   3.061   3.443   5.336 -0.7128 -0.2892 -1.3621
  105SAPE  C31210798   3.180   3.602   5.420  0.1399 -0.9501 -1.1708
  105SAPE  H12X10799   3.198   3.535   5.507  2.3102 -1.0824 -1.6682
  105SAPE  H12Y10800   3.084   3.646   5.454 -0.2262 -2.1259 -0.6048
  105SAPE  C31310801   3.301   3.695   5.397 -0.2620 -0.5591 -0.1529
  105SAPE  H13X10802   3.294   3.775   5.474 -0.6344 -1.2085  0.5021
  105SAPE  H13Y10803   3.289   3.747   5.300 -4.0772 -0.6006  0.1518
  105SAPE  C31410804   3.438   3.625   5.414  0.5980 -0.3182 -0.0471
  105SAPE  H14X10805   3.439   3.553   5.329 -1.4691 -0.0612 -0.3603
  105SAPE  H14Y10806   3.442   3.562   5.505  2.1435 -1.3263 -0.7808
  105SAPE  C31510807   3.550   3.721   5.410 -0.2348 -0.0513  0.4926
  105SAPE  H15X10808   3.558   3.781   5.503  0.7006  2.7834 -1.3019
  105SAPE  H15Y10809   3.527   3.798   5.333 -2.1248  0.9147  1.9419
  105SAPE  C31610810   3.684   3.652   5.392  0.6305 -0.9581  0.2660
  105SAPE  H16X10811   3.677   3.575   5.313  0.2856 -0.7010  0.0437
  105SAPE  H16Y10812   3.704   3.593   5.484 -0.2647 -2.0525 -0.2286
  105SAPE  C31710813   3.798   3.746   5.370  0.1655 -0.1161 -0.0188
  105SAPE  H17X10814   3.763   3.815   5.290 -2.2053  1.8484  2.5214
  105SAPE  H17Y10815   3.882   3.697   5.317  0.9311  0.1634  0.9303
  105SAPE  C31810816   3.844   3.834   5.486  0.4364 -0.0513  0.0974
  105SAPE  H18X10817   3.901   3.771   5.558 -1.7131  1.1050  3.0238
  105SAPE  H18Y10818   3.755   3.858   5.549 -0.2375 -2.1667  0.0390
  105SAPE  H18Z10819   3.888   3.930   5.451 -0.3659  0.2923  0.0046
  106SAPE     N10820   5.535   6.691   4.105  0.0713  0.0940  0.2433
  106SAPE   HN110821   5.448   6.743   4.123  1.1113  1.5469  1.2985
  106SAPE   HN210822   5.590   6.743   4.035 -1.1744  0.4404 -0.5012
  106SAPE   HN310823   5.516   6.602   4.055  0.9066  0.4035 -0.6539
  106SAPE   C1210824   5.615   6.652   4.224  0.0419 -0.4696 -0.0871
  106SAPE  H12A10825   5.544   6.611   4.299  1.0811  0.1642  1.3052
  106SAPE  H12B10826   5.664   6.740   4.273 -0.3669 -1.3650  2.0673
  106SAPE   C1110827   5.732   6.555   4.188 -0.1145 -0.2053  0.4709
  106SAPE  H11A10828   5.684   6.469   4.135 -0.5970 -0.5529  1.4349
  106SAPE  H11B10829   5.787   6.527   4.280 -0.1821  1.0003  0.8854
  106SAPE     P10830   5.968   6.600   4.088  0.1935  0.0707  0.6668
  106SAPE   O1310831   5.999   6.464   4.038 -0.1095 -0.6765 -0.1781
  106SAPE   O1410832   6.027   6.713   4.014  0.1964 -0.8294 -0.0536
  106SAPE   O1210833   5.813   6.632   4.100 -0.0417 -0.2979 -0.2549
  106SAPE   O1110834   6.021   6.600   4.243  0.3445  0.8123  0.0342
  106SAPE    C110835   6.029   6.714   4.326  0.3958  0.5124 -0.0910
  106SAPE    HA10836   6.124   6.771   4.314  0.4556  0.4517  0.0835
  106SAPE    HB10837   5.943   6.784   4.310 -1.1122 -0.9031  1.4110
  106SAPE    C210838   6.039   6.672   4.476  0.3156  0.0929  0.6830
  106SAPE    HS10839   6.107   6.585   4.489  0.5048  0.1072 -0.1609
  106SAPE   O2110840   5.901   6.638   4.527  0.1007  0.2917 -0.5765
  106SAPE   C2110841   5.875   6.501   4.515 -0.1098  0.1061 -0.6871
  106SAPE   O2210842   5.960   6.422   4.482 -0.3732  0.0256  0.1738
  106SAPE   C2210843   5.745   6.465   4.570  0.7282  0.3729  0.1062
  106SAPE   H2R10844   5.706   6.546   4.635 -0.1114  0.9457 -1.0663
  106SAPE   H2S10845   5.675   6.455   4.484  1.6431  0.5531 -0.6734
  106SAPE    C310846   6.101   6.783   4.568 -0.0760 -0.5748  0.4088
  106SAPE    HX10847   6.067   6.886   4.542  1.0039 -0.7025 -1.7448
  106SAPE    HY10848   6.208   6.769   4.540 -0.4531  1.4137 -2.4995
  106SAPE   O3110849   6.078   6.770   4.709  0.1064 -0.0240 -0.5578
  106SAPE   C3110850   6.160   6.845   4.781  0.0932 -0.0291 -0.6676
  106SAPE   O3210851   6.240   6.923   4.738 -0.5565  0.3719  0.0968
  106SAPE   C3210852   6.139   6.825   4.931  0.4005  0.5078  0.6517
  106SAPE   H2X10853   6.230   6.787   4.981  0.5423 -1.0828 -0.7246
  106SAPE   H2Y10854   6.060   6.747   4.936 -0.2072  0.5140 -4.3120
  106SAPE   C2310855   5.749   6.333   4.645  0.1119  0.2197  0.2759
  106SAPE   H3R10856   5.814   6.340   4.735 -1.1389 -0.8386  1.2883
  106SAPE   H3S10857   5.804   6.262   4.580  0.2024  0.2444  0.3253
  106SAPE   C2410858   5.608   6.275   4.685  0.0788  0.5210  0.5587
  106SAPE   H4R10859   5.613   6.173   4.728  1.2468  0.8589  1.2766
  106SAPE   H4S10860   5.544   6.264   4.596  0.9384 -1.8879  0.1584
  106SAPE   C2510861   5.550   6.372   4.788 -0.7940 -0.3078 -0.2366
  106SAPE   H5R10862   5.504   6.458   4.737  0.6262  0.6601  0.0527
  106SAPE   C2610863   5.559   6.370   4.922  0.0189 -0.5804 -0.6591
  106SAPE   H6R10864   5.507   6.448   4.979  3.0517  0.7253  0.5318
  106SAPE   C2710865   5.617   6.259   5.006  0.7122 -0.3408  0.0916
  106SAPE   H7R10866   5.709   6.296   5.057  0.1558  2.1092 -0.5654
  106SAPE   H7S10867   5.653   6.182   4.935  2.5110  0.4510  0.0969
  106SAPE   C2810868   5.523   6.218   5.113 -0.1424 -0.3129 -0.2129
  106SAPE   H8R10869   5.446   6.154   5.067  0.1356 -1.2419  0.5888
  106SAPE   C2910870   5.531   6.258   5.239 -0.2877  0.2725 -0.3382
  106SAPE   H9R10871   5.471   6.209   5.317 -0.2151 -0.5519 -0.7899
  106SAPE  C21010872   5.625   6.359   5.289  0.0757  0.0473 -0.2438
  106SAPE  H10R10873   5.557   6.432   5.337 -2.0200 -0.0859 -2.8047
  106SAPE  H10S10874   5.689   6.417   5.219  2.1636  0.8707  2.1718
  106SAPE  C21110875   5.718   6.323   5.399  0.3884 -0.2850 -0.1959
  106SAPE  H11R10876   5.683   6.241   5.464  1.3374  2.0584  3.6595
  106SAPE  C21210877   5.842   6.371   5.422  0.4994 -0.3420 -0.6957
  106SAPE  H12R10878   5.899   6.307   5.492  1.2438 -0.9246 -1.7831
  106SAPE  C21310879   5.908   6.487   5.347  0.3975 -0.0731  0.2724
  106SAPE  H13R10880   5.897   6.573   5.415  0.1059  2.2910 -2.5665
  106SAPE  H13S10881   5.848   6.517   5.258  1.0032  1.1020  0.2464
  106SAPE  C21410882   6.047   6.461   5.308 -0.3493 -0.4085  0.0733
  106SAPE  H14R10883   6.119   6.519   5.368 -1.3657  2.1598 -1.0324
  106SAPE  C21510884   6.089   6.375   5.211  0.3772 -0.7257  0.2162
  106SAPE  H15R10885   6.198   6.368   5.198  0.6604  0.6910  1.5304
  106SAPE  C21610886   6.010   6.284   5.115 -0.3419  0.5215 -0.6478
  106SAPE  H16R10887   5.901   6.292   5.131  0.0114  1.6479  1.5548
  106SAPE  H16S10888   6.045   6.178   5.121 -0.8507  0.3394 -0.8810
  106SAPE  C21710889   6.044   6.334   4.969  0.2316 -0.7003 -0.7606
  106SAPE  H17R10890   6.022   6.442   4.957  0.4505 -0.5203  0.3345
  106SAPE  H17S10891   5.987   6.279   4.892  0.9469 -1.1926 -0.9422
  106SAPE  C21810892   6.190   6.324   4.926 -0.2574  0.7352 -0.0059
  106SAPE  H18R10893   6.240   6.232   4.964 -0.6861  0.3120 -0.4550
  106SAPE  H18S10894   6.253   6.401   4.976 -1.0399  1.4819 -0.1446
  106SAPE  C21910895   6.205   6.339   4.773 -0.3223  0.1600 -0.4756
  106SAPE  H19R10896   6.171   6.438   4.734 -0.0255  0.5131  0.1490
  106SAPE  H19S10897   6.162   6.245   4.731  0.2652  0.3625 -1.5688
  106SAPE  C22010898   6.355   6.337   4.745 -0.0246  0.1272 -0.3075
  106SAPE  H20R10899   6.403   6.241   4.774 -1.8451 -0.7773 -0.1314
  106SAPE  H20S10900   6.412   6.422   4.787  0.4928  0.5337 -1.7622
  106SAPE  H20T10901   6.360   6.346   4.634 -1.8078 -1.0421 -0.5303
  106SAPE   C3310902   6.103   6.959   5.013  0.3505  0.5230  0.4309
  106SAPE   H3X10903   6.062   7.038   4.946 -2.3605 -2.3999 -1.6428
  106SAPE   H3Y10904   6.201   7.001   5.044 -0.1752  1.1454  1.3038
  106SAPE   C3410905   6.023   6.948   5.146 -0.8001  0.8874 -0.6591
  106SAPE   H4X10906   5.924   6.905   5.118 -0.6800  1.1239 -1.4805
  106SAPE   H4Y10907   6.011   7.048   5.193 -1.7825  1.0346 -1.1903
  106SAPE   C3510908   6.108   6.861   5.253 -0.4419  0.4817 -0.6811
  106SAPE   H5X10909   6.209   6.908   5.261 -0.4195  0.1825  1.2003
  106SAPE   H5Y10910   6.120   6.758   5.213  1.3262  0.1098  0.6817
  106SAPE   C3610911   6.039   6.842   5.387  0.4258 -1.1706  0.1787
  106SAPE   H6X10912   6.090   6.766   5.450  3.4745  1.3822  1.0176
  106SAPE   H6Y10913   5.935   6.811   5.362 -0.6664  0.6143  2.2049
  106SAPE   C3710914   6.043   6.965   5.478 -0.1670  0.0600  0.1987
  106SAPE   H7X10915   5.993   7.050   5.427  2.2772  1.7905  0.5102
  106SAPE   H7Y10916   6.151   6.990   5.488  0.0397 -0.8347  0.3002
  106SAPE   C3810917   5.985   6.939   5.618 -0.2048 -0.0983  0.2399
  106SAPE   H8X10918   5.996   7.028   5.683 -0.4240  0.3911 -0.3854
  106SAPE   H8Y10919   6.052   6.862   5.664  1.5612  1.4305  0.3411
  106SAPE   C3910920   5.834   6.898   5.627  0.4370  0.2324  0.2349
  106SAPE   H9X10921   5.811   6.791   5.608  0.8859  0.5843 -2.8130
  106SAPE   H9Y10922   5.775   6.956   5.554  0.7702  1.1793  0.7048
  106SAPE  C31010923   5.775   6.928   5.767  0.3049  0.1742 -0.0737
  106SAPE  H10X10924   5.839   6.888   5.848 -0.7023 -1.4664 -0.0608
  106SAPE  H10Y10925   5.681   6.872   5.781  0.3378  0.0169 -0.4752
  106SAPE  C31110926   5.744   7.075   5.798  0.2077 -0.0862  0.8180
  106SAPE  H11X10927   5.648   7.100   5.750  0.0979  0.9706  1.5480
  106SAPE  H11Y10928   5.821   7.147   5.761  2.0013 -0.8978  2.7163
  106SAPE  C31210929   5.728   7.100   5.950 -0.0926 -0.2952  0.9340
  106SAPE  H12X10930   5.822   7.080   6.006 -0.3503 -0.1344  1.4319
  106SAPE  H12Y10931   5.653   7.025   5.981  0.6825 -1.6551 -0.3706
  106SAPE  C31310932   5.658   7.234   5.986 -0.3880  0.4359 -0.1231
  106SAPE  H13X10933   5.621   7.233   6.091  0.0217 -0.2188  0.0207
  106SAPE  H13Y10934   5.564   7.243   5.928 -2.2178 -0.4878  2.5057
  106SAPE  C31410935   5.755   7.360   5.982  0.0464  1.2082  0.4504
  106SAPE  H14X10936   5.773   7.380   5.874 -1.0597 -2.0682 -0.4690
  106SAPE  H14Y10937   5.851   7.329   6.029 -0.1630  0.8558  0.6469
  106SAPE  C31510938   5.701   7.482   6.057 -0.0665 -0.3462  0.6526
  106SAPE  H15X10939   5.725   7.460   6.163  2.0297 -1.7421 -0.0278
  106SAPE  H15Y10940   5.595   7.492   6.026  0.5423  0.3033 -1.3884
  106SAPE  C31610941   5.780   7.609   6.016 -0.3578  0.1890 -0.1880
  106SAPE  H16X10942   5.770   7.618   5.905 -1.8638  0.9983 -0.0110
  106SAPE  H16Y10943   5.887   7.585   6.036 -0.4670 -1.4048 -1.3024
  106SAPE  C31710944   5.737   7.737   6.085 -0.0424  0.0667 -0.0334
  106SAPE  H17X10945   5.764   7.735   6.193 -0.5610 -0.1952  0.0922
  106SAPE  H17Y10946   5.626   7.739   6.087 -0.1124 -1.9999  0.1756
  106SAPE  C31810947   5.802   7.858   6.016 -0.6662  0.4646  0.6852
  106SAPE  H18X10948   5.756   7.948   6.063 -1.7944  0.2424  0.0457
  106SAPE  H18Y10949   5.780   7.864   5.907 -0.4037  0.5777  0.6391
  106SAPE  H18Z10950   5.912   7.859   6.024 -0.6470 -0.0279  0.5129
  107SAPE     N10951   1.461   2.642   3.978 -0.2003 -0.1865 -0.3997
  107SAPE   HN110952   1.366   2.634   4.020  1.3234 -0.2977  3.4474
  107SAPE   HN210953   1.473   2.716   3.906  0.0030  1.8557  1.6098
  107SAPE   HN310954   1.494   2.547   3.950  0.6114 -0.0141 -0.0655
  107SAPE   C1210955   1.551   2.670   4.100  0.0890 -0.5915 -0.0907
  107SAPE  H12A10956   1.481   2.664   4.186 -0.3887  0.5405 -0.3784
  107SAPE  H12B10957   1.594   2.773   4.093  1.8307 -1.3031 -0.4300
  107SAPE   C1110958   1.670   2.575   4.100  0.2848  0.5129 -0.1750
  107SAPE  H11A10959   1.734   2.607   4.185  2.1748 -1.5602 -0.7279
  107SAPE  H11B10960   1.740   2.587   4.015 -1.5871 -1.4373 -2.1350
  107SAPE     P10961   1.627   2.335   4.001  0.2686 -0.0399  0.1650
  107SAPE   O1310962   1.604   2.201   4.058 -0.1612  0.5883  0.7770
  107SAPE   O1410963   1.532   2.388   3.907  0.0717  0.0041 -0.6621
  107SAPE   O1210964   1.634   2.441   4.116  0.2977  0.6618  0.4391
  107SAPE   O1110965   1.780   2.343   3.949  0.4161 -0.4747 -0.3906
  107SAPE    C110966   1.888   2.331   4.049  0.4797 -0.7788 -0.2392
  107SAPE    HA10967   1.870   2.384   4.145 -1.0084  0.5397 -1.1935
  107SAPE    HB10968   1.897   2.225   4.081 -0.3658 -0.8186 -0.1091
  107SAPE    C210969   2.032   2.383   4.002  0.3891  0.5765  0.4811
  107SAPE    HS10970   2.057   2.333   3.906  1.4596  0.3544  0.8554
  107SAPE   O2110971   2.121   2.336   4.102 -0.1479 -1.1012  0.3639
  107SAPE   C2110972   2.249   2.340   4.074 -0.2788  0.0249 -0.1127
  107SAPE   O2210973   2.299   2.391   3.976  0.2509 -0.1531 -0.1851
  107SAPE   C2210974   2.328   2.254   4.169 -0.0722 -0.3267  0.3891
  107SAPE   H2R10975   2.253   2.200   4.231 -0.9610 -1.7601 -1.8003
  107SAPE   H2S10976   2.386   2.189   4.099 -2.9299 -0.3224 -2.1958
  107SAPE    C310977   2.034   2.534   3.984 -0.1719  0.9072  0.4531
  107SAPE    HX10978   1.944   2.564   3.926 -0.1350 -1.3522 -0.8762
  107SAPE    HY10979   2.126   2.561   3.929 -0.1756  0.9887  0.4879
  107SAPE   O3110980   2.024   2.581   4.120 -0.3556 -0.2068 -0.3381
  107SAPE   C3110981   2.057   2.709   4.122 -0.2563  0.8596  0.0731
  107SAPE   O3210982   2.085   2.774   4.026 -0.2402 -0.0270 -0.2510
  107SAPE   C3210983   2.043   2.764   4.259  0.0462 -0.5334 -0.0243
  107SAPE   H2X10984   1.951   2.826   4.256  0.4931  0.1865  0.6239
  107SAPE   H2Y10985   2.120   2.837   4.292 -0.2629  0.2126 -0.9259
  107SAPE   C2310986   2.430   2.326   4.246 -0.1223  0.2607  0.5784
  107SAPE   H3R10987   2.489   2.383   4.172 -1.2916 -0.3142 -0.8356
  107SAPE   H3S10988   2.487   2.256   4.311 -1.9865 -0.8467  1.0871
  107SAPE   C2410989   2.377   2.433   4.343 -0.4754  0.0171 -0.7352
  107SAPE   H4R10990   2.327   2.383   4.429  0.5468 -0.0652 -0.1745
  107SAPE   H4S10991   2.311   2.502   4.287 -3.1339  0.0302  2.1107
  107SAPE   C2510992   2.493   2.517   4.400 -0.0810  0.0010 -0.8404
  107SAPE   H5R10993   2.587   2.508   4.345  1.0096  2.2248  0.4901
  107SAPE   C2610994   2.491   2.579   4.522 -0.3561 -0.3196 -0.0182
  107SAPE   H6R10995   2.582   2.637   4.544 -0.0821  1.2547 -4.2641
  107SAPE   C2710996   2.374   2.608   4.605 -0.0296 -0.3148 -0.5475
  107SAPE   H7R10997   2.287   2.563   4.552  1.0742 -0.8872 -1.9477
  107SAPE   H7S10998   2.367   2.719   4.617  1.5971 -0.2954  0.5420
  107SAPE   C2810999   2.378   2.548   4.745 -1.0499  0.2331  0.4328
  107SAPE   H8R11000   2.323   2.456   4.766 -1.1626  0.9172  3.7110
  107SAPE   C2911001   2.441   2.604   4.851  0.5769 -0.0766 -0.2352
  107SAPE   H9R11002   2.429   2.562   4.952 -1.6613 -0.1214 -0.4585
  107SAPE  C21011003   2.526   2.726   4.836 -0.0196 -0.2510  0.4079
  107SAPE  H10R11004   2.458   2.813   4.832 -1.2730 -1.2428 -0.7911
  107SAPE  H10S11005   2.576   2.723   4.737 -0.8236  0.0088 -0.0125
  107SAPE  C21111006   2.630   2.739   4.943 -0.7731  0.2980  0.1727
  107SAPE  H11R11007   2.725   2.683   4.941 -0.6062  0.5890 -0.5616
  107SAPE  C21211008   2.617   2.813   5.057  1.6093 -0.0348 -0.1620
  107SAPE  H12R11009   2.702   2.822   5.126 -0.0337 -1.0648  2.1127
  107SAPE  C21311010   2.495   2.893   5.103 -0.0164  0.3678 -0.0340
  107SAPE  H13R11011   2.428   2.929   5.021 -0.8973 -0.1955  0.4354
  107SAPE  H13S11012   2.526   2.993   5.141 -0.4088  0.1185  0.9664
  107SAPE  C21411013   2.407   2.828   5.202  0.7145  0.2565 -0.1290
  107SAPE  H14R11014   2.315   2.781   5.164 -0.0500  0.0163  1.9339
  107SAPE  C21511015   2.413   2.837   5.339 -0.2405 -0.9566 -0.1848
  107SAPE  H15R11016   2.340   2.778   5.397 -0.1317  0.5510  1.5870
  107SAPE  C21611017   2.519   2.909   5.413 -0.0044 -0.0321  0.9093
  107SAPE  H16R11018   2.490   3.014   5.436 -1.2147 -0.8986  3.7706
  107SAPE  H16S11019   2.608   2.906   5.346  0.3310 -0.6272  1.3773
  107SAPE  C21711020   2.558   2.851   5.544 -0.4002  0.1147 -0.6431
  107SAPE  H17R11021   2.652   2.900   5.576 -0.3787 -1.4630  1.9034
  107SAPE  H17S11022   2.602   2.750   5.543  0.3917  0.4490 -0.1588
  107SAPE  C21811023   2.449   2.875   5.654 -0.6694 -0.0907  0.0278
  107SAPE  H18R11024   2.350   2.836   5.623 -0.2533  0.5313 -2.2493
  107SAPE  H18S11025   2.437   2.986   5.655  0.1011 -0.0001  1.3026
  107SAPE  C21911026   2.495   2.820   5.786  0.2222  0.2910  0.3476
  107SAPE  H19R11027   2.596   2.854   5.820  1.0653 -1.5752 -0.1525
  107SAPE  H19S11028   2.497   2.709   5.777  1.1052  0.3555 -0.3954
  107SAPE  C22011029   2.398   2.848   5.902 -0.6798  1.1042  0.2457
  107SAPE  H20R11030   2.404   2.954   5.934 -0.9019  1.4182 -0.7014
  107SAPE  H20S11031   2.414   2.786   5.992 -1.5058 -0.3676 -0.5684
  107SAPE  H20T11032   2.294   2.813   5.881 -0.4335 -0.5368  1.5911
  107SAPE   C3311033   2.023   2.655   4.375  0.0786  0.1670 -0.5412
  107SAPE   H3X11034   2.103   2.579   4.361 -0.5415 -0.0433 -3.5203
  107SAPE   H3Y11035   1.924   2.605   4.365 -0.5898  1.2577  0.3826
  107SAPE   C3411036   2.034   2.711   4.516  0.3358  0.2016  0.2257
  107SAPE   H4X11037   1.988   2.812   4.529  2.6855  1.8746 -2.9880
  107SAPE   H4Y11038   2.140   2.740   4.534  0.4148  1.0836 -1.4569
  107SAPE   C3511039   1.986   2.624   4.625 -0.6394 -0.1120 -0.1703
  107SAPE   H5X11040   2.067   2.548   4.621 -0.6426 -0.0579 -3.4872
  107SAPE   H5Y11041   1.886   2.582   4.601 -1.3134  0.3179  1.7310
  107SAPE   C3611042   1.968   2.709   4.760  0.7011  0.6277 -0.2924
  107SAPE   H6X11043   1.934   2.632   4.833 -2.2973  2.8092  0.8259
  107SAPE   H6Y11044   1.885   2.781   4.748  1.5274  1.7475  0.4405
  107SAPE   C3711045   2.094   2.769   4.820  0.3690  0.5809  0.4254
  107SAPE   H7X11046   2.152   2.823   4.742  0.6027 -1.1445 -0.6539
  107SAPE   H7Y11047   2.169   2.691   4.844 -0.5619 -0.3943  0.2590
  107SAPE   C3811048   2.065   2.867   4.933  0.4679 -0.2507  0.2675
  107SAPE   H8X11049   1.993   2.947   4.907  1.2219 -0.3461 -2.3920
  107SAPE   H8Y11050   2.165   2.909   4.956  1.9107 -3.4273  0.2427
  107SAPE   C3911051   2.009   2.797   5.063 -0.2715  0.6907  0.6606
  107SAPE   H9X11052   2.076   2.734   5.125 -1.4254  1.2409  2.5363
  107SAPE   H9Y11053   1.923   2.737   5.026  1.2536 -0.6309 -0.9367
  107SAPE  C31011054   1.967   2.892   5.176 -0.1915 -0.3740  0.0479
  107SAPE  H10X11055   1.885   2.957   5.139 -0.2558  0.2098  1.1391
  107SAPE  H10Y11056   2.050   2.960   5.206 -1.3515  0.0870  2.4788
  107SAPE  C31111057   1.914   2.820   5.303 -0.1793 -0.5421 -0.1452
  107SAPE  H11X11058   1.868   2.728   5.262 -1.5667  0.9072 -2.0333
  107SAPE  H11Y11059   1.833   2.879   5.351 -0.8624 -3.0433  1.9474
  107SAPE  C31211060   2.019   2.789   5.403 -0.3247  0.4124 -1.2312
  107SAPE  H12X11061   2.083   2.877   5.424 -1.9850  1.3390  0.1844
  107SAPE  H12Y11062   2.070   2.698   5.364 -2.5548 -1.5470  0.1334
  107SAPE  C31311063   1.950   2.758   5.539 -0.3807 -0.2437  0.1917
  107SAPE  H13X11064   1.866   2.690   5.511 -0.4879  0.9423 -2.6929
  107SAPE  H13Y11065   1.903   2.851   5.578 -0.5287 -0.1365 -0.2434
  107SAPE  C31411066   2.030   2.695   5.658 -0.1888  0.1414  0.5018
  107SAPE  H14X11067   2.116   2.764   5.662 -1.0045  1.5359 -2.8299
  107SAPE  H14Y11068   2.067   2.597   5.621  0.8487  0.7284 -0.0341
  107SAPE  C31511069   1.940   2.682   5.783  0.3520 -0.0270  0.3516
  107SAPE  H15X11070   1.856   2.615   5.752  1.9294 -0.8130 -2.6447
  107SAPE  H15Y11071   1.894   2.780   5.806  2.1036  0.1538  3.6453
  107SAPE  C31611072   2.015   2.637   5.906  0.2617  0.1910  0.6306
  107SAPE  H16X11073   2.113   2.594   5.877 -0.0868 -0.7130  0.7681
  107SAPE  H16Y11074   1.966   2.551   5.956 -1.4410  1.1510  0.6752
  107SAPE  C31711075   2.027   2.745   6.016  0.3923 -0.3518 -0.1960
  107SAPE  H17X11076   1.925   2.776   6.047  0.8407 -0.0751  1.0660
  107SAPE  H17Y11077   2.082   2.831   5.975  1.8251  0.1763  2.6158
  107SAPE  C31811078   2.100   2.698   6.144  0.2933  0.5948 -0.3351
  107SAPE  H18X11079   2.199   2.653   6.118 -0.0614 -2.0528  2.3941
  107SAPE  H18Y11080   2.045   2.623   6.205  1.9139  0.6890  1.3160
  107SAPE  H18Z11081   2.125   2.791   6.198  1.2117  0.0103  0.2778
  108SAPE     N11082   6.219   3.481   3.934  0.4991  0.1638 -0.2773
  108SAPE   HN111083   6.225   3.571   3.883  1.0741 -0.8625 -2.1263
  108SAPE   HN211084   6.310   3.450   3.975 -0.4868 -1.3243  0.9003
  108SAPE   HN311085   6.196   3.414   3.858  1.4669  0.5001 -0.8758
  108SAPE   C1211086   6.121   3.507   4.047  0.0247 -0.1877 -0.3917
  108SAPE  H12A11087   6.153   3.448   4.135  0.0075 -0.2116 -0.4014
  108SAPE  H12B11088   6.025   3.464   4.012 -0.2399  1.2667 -1.5846
  108SAPE   C1111089   6.126   3.660   4.075 -0.5965  0.0114 -0.0344
  108SAPE  H11A11090   6.219   3.683   4.132 -0.5114 -2.4110  0.9522
  108SAPE  H11B11091   6.053   3.678   4.157  0.0805 -2.4605  1.2105
  108SAPE     P11092   6.209   3.857   3.919  0.5112  0.1891 -0.5154
  108SAPE   O1311093   6.337   3.787   3.908  0.0908 -0.0555 -0.0300
  108SAPE   O1411094   6.163   3.926   3.799  0.0673 -0.1104  0.1476
  108SAPE   O1211095   6.107   3.739   3.956  0.1377  0.0354 -0.3633
  108SAPE   O1111096   6.192   3.946   4.049  0.0715  0.0516 -0.5037
  108SAPE    C111097   6.052   4.008   4.052 -1.2335  0.1861 -0.2146
  108SAPE    HA11098   6.038   4.080   3.968  2.0843 -0.0495 -1.1140
  108SAPE    HB11099   5.969   3.935   4.059 -0.4686 -0.7090 -0.2517
  108SAPE    C211100   6.045   4.105   4.180  0.2491 -0.2408  0.0485
  108SAPE    HS11101   6.124   4.184   4.181 -0.2450  0.2649  1.5544
  108SAPE   O2111102   6.063   4.018   4.292  0.7658  0.7078  0.3401
  108SAPE   C2111103   6.179   3.990   4.334 -0.1055 -0.7436  0.6371
  108SAPE   O2211104   6.285   4.053   4.299  0.0669 -0.6616 -1.0763
  108SAPE   C2211105   6.183   3.883   4.450  0.5507  0.6559  0.2243
  108SAPE   H2R11106   6.228   3.795   4.400  0.0767 -0.7100  2.1291
  108SAPE   H2S11107   6.255   3.935   4.517  0.7977  1.6912 -0.7990
  108SAPE    C311108   5.915   4.191   4.197 -0.0425  0.1594 -0.0970
  108SAPE    HX11109   5.829   4.122   4.180  0.1971  0.0445 -0.8879
  108SAPE    HY11110   5.920   4.267   4.116 -0.6504  1.3041  0.9152
  108SAPE   O3111111   5.906   4.250   4.329  0.5226  0.2843  0.1031
  108SAPE   C3111112   5.971   4.350   4.344 -0.5936 -0.1445 -0.8479
  108SAPE   O3211113   6.006   4.426   4.252  0.1390  0.1514 -0.1510
  108SAPE   C3211114   5.991   4.375   4.490 -0.3773  0.9527  0.1610
  108SAPE   H2X11115   5.899   4.353   4.548 -0.8392  3.4427  0.4717
  108SAPE   H2Y11116   6.021   4.477   4.522  3.0872 -0.0053  0.3914
  108SAPE   C2311117   6.058   3.850   4.527  0.1495  0.3219 -0.1177
  108SAPE   H3R11118   5.987   3.791   4.465 -1.0844  2.6074 -1.0043
  108SAPE   H3S11119   6.009   3.945   4.560  0.2306  0.0071  0.9349
  108SAPE   C2411120   6.089   3.772   4.658 -0.5100  0.3003  0.3484
  108SAPE   H4R11121   5.996   3.783   4.718 -1.1104  4.8955 -1.0286
  108SAPE   H4S11122   6.171   3.820   4.716 -1.6184  4.8415 -1.3453
  108SAPE   C2511123   6.125   3.632   4.621  0.2514 -0.0494 -0.4505
  108SAPE   H5R11124   6.170   3.622   4.521  1.3313  2.3186 -0.2676
  108SAPE   C2611125   6.075   3.524   4.682  1.0239 -0.2229  0.4102
  108SAPE   H6R11126   6.116   3.428   4.647  0.0771 -0.5647  0.2113
  108SAPE   C2711127   5.980   3.521   4.800  0.5227 -0.3205  0.7008
  108SAPE   H7R11128   6.011   3.612   4.855  1.6576 -0.7677  0.8323
  108SAPE   H7S11129   5.999   3.432   4.864 -0.2544 -1.7070 -0.9217
  108SAPE   C2811130   5.838   3.534   4.756 -0.4416 -0.2751 -0.0872
  108SAPE   H8R11131   5.827   3.541   4.647 -2.0697  2.5242  0.1544
  108SAPE   C2911132   5.731   3.553   4.836  0.1269 -0.4119  0.1901
  108SAPE   H9R11133   5.627   3.561   4.801 -0.5037  0.4247  2.1346
  108SAPE  C21011134   5.726   3.554   4.981 -0.4178  0.0714 -0.0859
  108SAPE  H10R11135   5.816   3.503   5.023  0.4870  1.2838 -0.5069
  108SAPE  H10S11136   5.639   3.494   5.015 -0.5375  1.2610  1.8262
  108SAPE  C21111137   5.707   3.688   5.036 -0.2381 -0.3735 -0.9887
  108SAPE  H11R11138   5.685   3.769   4.965  0.0758  1.3309  0.7572
  108SAPE  C21211139   5.726   3.720   5.165 -0.1549 -0.1480 -0.6707
  108SAPE  H12R11140   5.702   3.823   5.196  1.3236 -0.5748  2.2575
  108SAPE  C21311141   5.760   3.630   5.282 -1.0788 -0.6947 -0.0265
  108SAPE  H13R11142   5.869   3.614   5.270 -0.8899  0.7590 -0.4631
  108SAPE  H13S11143   5.709   3.532   5.264  0.3901 -1.4185 -0.3543
  108SAPE  C21411144   5.726   3.667   5.421  0.9611  0.3781  0.9046
  108SAPE  H14R11145   5.812   3.695   5.483  0.0448 -2.1037  3.4873
  108SAPE  C21511146   5.607   3.694   5.467  0.0822  0.2768 -0.4914
  108SAPE  H15R11147   5.615   3.726   5.572  1.3110 -1.1272 -0.1213
  108SAPE  C21611148   5.474   3.671   5.395  0.1588 -0.2417 -0.5046
  108SAPE  H16R11149   5.499   3.618   5.300  2.1060 -0.7034  0.2188
  108SAPE  H16S11150   5.439   3.771   5.361 -2.3042 -1.5394 -2.1256
  108SAPE  C21711151   5.364   3.598   5.472 -0.5547  0.0063  0.2922
  108SAPE  H17R11152   5.291   3.552   5.402 -1.1874  0.3319  0.7245
  108SAPE  H17S11153   5.316   3.655   5.554 -0.4561 -1.1424  1.1780
  108SAPE  C21811154   5.421   3.478   5.544  0.7442 -0.9178  0.4521
  108SAPE  H18R11155   5.503   3.501   5.615  0.5095  1.3654  0.0562
  108SAPE  H18S11156   5.477   3.424   5.465  2.2879 -1.2200  1.7027
  108SAPE  C21911157   5.317   3.378   5.596  0.4426 -0.6573 -0.5472
  108SAPE  H19R11158   5.367   3.287   5.634  2.3390  0.5355 -0.0304
  108SAPE  H19S11159   5.246   3.350   5.515  0.9418  1.5755 -1.8426
  108SAPE  C22011160   5.246   3.428   5.723  0.3371  0.3772 -0.3830
  108SAPE  H20R11161   5.219   3.534   5.701  1.3323  1.2191  2.0330
  108SAPE  H20S11162   5.320   3.432   5.806  0.9812  1.1685 -0.9701
  108SAPE  H20T11163   5.168   3.357   5.757 -1.0457  0.6109 -2.8264
  108SAPE   C3311164   6.101   4.282   4.557  0.1106  0.1483  0.5537
  108SAPE   H3X11165   6.196   4.339   4.557 -0.0556  0.4402 -0.2689
  108SAPE   H3Y11166   6.117   4.188   4.500 -2.5245  0.9511 -1.7358
  108SAPE   C3411167   6.055   4.226   4.691 -0.3980 -0.3800 -0.4877
  108SAPE   H4X11168   5.962   4.166   4.683 -0.1394 -0.5695 -2.5382
  108SAPE   H4Y11169   6.040   4.311   4.761  1.1992 -1.7721  1.6763
  108SAPE   C3511170   6.160   4.134   4.756  0.1604 -0.2986  0.2564
  108SAPE   H5X11171   6.176   4.063   4.673 -0.8377 -1.0993  0.7225
  108SAPE   H5Y11172   6.254   4.190   4.779 -0.3811  1.1469 -0.8960
  108SAPE   C3611173   6.117   4.060   4.885  0.3981 -0.2491  0.1980
  108SAPE   H6X11174   6.169   3.963   4.868  0.3714  0.1539 -2.7719
  108SAPE   H6Y11175   6.006   4.057   4.886  0.4212 -1.4990  1.3399
  108SAPE   C3711176   6.158   4.136   5.009  0.2065 -0.1875  0.6929
  108SAPE   H7X11177   6.105   4.233   5.003 -0.0790 -0.4015 -0.6094
  108SAPE   H7Y11178   6.264   4.169   5.002 -0.6743  2.5041 -2.0919
  108SAPE   C3811179   6.139   4.054   5.130 -0.1916 -0.4008 -0.9097
  108SAPE   H8X11180   6.210   3.968   5.132 -0.6957 -0.8112  0.1587
  108SAPE   H8Y11181   6.035   4.013   5.125 -0.3839 -0.6458  2.6672
  108SAPE   C3911182   6.136   4.135   5.260  0.5230  0.7101 -0.1302
  108SAPE   H9X11183   6.084   4.231   5.238  0.2868  0.1880 -1.9706
  108SAPE   H9Y11184   6.242   4.160   5.282  0.3765  2.3712 -1.1701
  108SAPE  C31011185   6.081   4.058   5.384  0.7158 -0.2410 -0.5094
  108SAPE  H10X11186   6.136   3.962   5.394  1.9480  0.3932 -0.8715
  108SAPE  H10Y11187   5.978   4.023   5.362  0.1492  1.1560 -0.1865
  108SAPE  C31111188   6.077   4.153   5.506  0.0944 -0.2287 -0.6589
  108SAPE  H11X11189   6.003   4.231   5.477  0.1957 -0.0970 -0.5660
  108SAPE  H11Y11190   6.171   4.206   5.533  0.4338 -2.1652  2.3677
  108SAPE  C31211191   6.036   4.079   5.626 -0.1593  0.1358  0.1439
  108SAPE  H12X11192   6.120   4.017   5.664  1.0309  0.1496 -2.2841
  108SAPE  H12Y11193   5.961   4.000   5.603 -0.7473  0.7060  0.0757
  108SAPE  C31311194   5.988   4.162   5.740  0.9448 -0.4410  0.2582
  108SAPE  H13X11195   5.915   4.238   5.704 -0.8938 -1.8992  0.7380
  108SAPE  H13Y11196   6.073   4.213   5.789  1.6882 -2.4216  1.1432
  108SAPE  C31411197   5.935   4.072   5.853  0.0960  0.2218  0.0709
  108SAPE  H14X11198   6.015   3.999   5.879 -0.3026  0.0845  0.9408
  108SAPE  H14Y11199   5.859   3.998   5.821  2.7094 -1.5214 -2.6739
  108SAPE  C31511200   5.879   4.149   5.965 -0.1344 -0.7077 -0.4712
  108SAPE  H15X11201   5.943   4.234   5.996 -1.9050 -0.6631  3.6355
  108SAPE  H15Y11202   5.863   4.076   6.047 -1.4213  0.5851  0.4752
  108SAPE  C31611203   5.751   4.216   5.922  0.3816 -0.7129  0.7677
  108SAPE  H16X11204   5.730   4.195   5.815  0.8889 -1.7830  0.8631
  108SAPE  H16Y11205   5.786   4.321   5.914 -0.3874 -0.5781 -2.8189
  108SAPE  C31711206   5.623   4.218   6.015  0.2951  0.1717  0.3959
  108SAPE  H17X11207   5.598   4.110   6.020  0.6323  0.1583  2.4508
  108SAPE  H17Y11208   5.544   4.288   5.979  0.4422  2.2221  3.6392
  108SAPE  C31811209   5.647   4.246   6.164  0.3007 -0.2190 -0.7058
  108SAPE  H18X11210   5.594   4.167   6.220  1.7892 -0.7346  0.0500
  108SAPE  H18Y11211   5.598   4.339   6.201 -1.6720 -0.5965 -2.2411
  108SAPE  H18Z11212   5.756   4.242   6.185  0.4952  1.5328 -1.2146
  109SAPE     N11213   3.580   2.722   3.924 -0.4255  0.1453  0.1317
  109SAPE   HN111214   3.511   2.711   3.847  1.7996  0.9049 -2.0991
  109SAPE   HN211215   3.634   2.811   3.917  0.8436 -0.7115 -1.6450
  109SAPE   HN311216   3.653   2.649   3.910  0.2448  0.7538  0.3952
  109SAPE   C1211217   3.519   2.724   4.056  0.0642  0.4158 -0.2932
  109SAPE  H12A11218   3.450   2.811   4.057 -1.6562 -0.9161 -0.2038
  109SAPE  H12B11219   3.598   2.744   4.132  1.3869  0.3247 -1.5786
  109SAPE   C1111220   3.444   2.593   4.090 -0.4420  0.7187 -0.0188
  109SAPE  H11A11221   3.353   2.591   4.027 -0.5438  2.2769  0.0425
  109SAPE  H11B11222   3.405   2.601   4.193  0.2047 -1.2511  0.4385
  109SAPE     P11223   3.506   2.358   3.990 -0.0842  0.1021  0.2977
  109SAPE   O1311224   3.549   2.405   3.857 -0.6596  0.8070  0.3025
  109SAPE   O1411225   3.565   2.237   4.046 -0.6258  0.5000  0.4005
  109SAPE   O1211226   3.531   2.479   4.088 -0.2254  0.4159 -0.1306
  109SAPE   O1111227   3.345   2.355   3.992 -0.3354  0.3610 -0.0137
  109SAPE    C111228   3.261   2.267   4.068 -0.2524 -0.3323 -0.1685
  109SAPE    HA11229   3.192   2.205   4.007  0.9540 -2.4011  0.4750
  109SAPE    HB11230   3.328   2.188   4.108  1.0130  0.3607 -0.8321
  109SAPE    C211231   3.167   2.334   4.173 -0.0893 -0.1631  0.3558
  109SAPE    HS11232   3.146   2.436   4.135 -0.9185 -0.1563  0.7974
  109SAPE   O2111233   3.228   2.348   4.301 -0.0375 -0.0576 -0.3594
  109SAPE   C2111234   3.188   2.435   4.394  0.6076 -0.9623  0.1209
  109SAPE   O2211235   3.105   2.523   4.377 -0.1038 -0.5121  0.4212
  109SAPE   C2211236   3.280   2.418   4.510 -0.5958 -0.2034  0.3682
  109SAPE   H2R11237   3.230   2.362   4.592 -0.3156  1.8307  1.9878
  109SAPE   H2S11238   3.374   2.360   4.496 -0.4951  0.4748 -2.3612
  109SAPE    C311239   3.044   2.243   4.175  0.0965  0.1628  0.6354
  109SAPE    HX11240   3.069   2.135   4.166  0.0731  0.0545  1.7269
  109SAPE    HY11241   2.989   2.272   4.083 -0.0281  0.2670  0.7424
  109SAPE   O3111242   2.949   2.260   4.282 -0.2455 -0.0679 -0.3609
  109SAPE   C3111243   2.969   2.180   4.377  0.4589  0.2962 -0.0848
  109SAPE   O3211244   3.058   2.102   4.397 -0.1987 -0.3124  0.0123
  109SAPE   C3211245   2.858   2.204   4.483  0.2075  0.2613 -0.3685
  109SAPE   H2X11246   2.885   2.145   4.573  0.4467  1.5484  0.4249
  109SAPE   H2Y11247   2.765   2.151   4.452 -1.6478  2.1533  1.6741
  109SAPE   C2311248   3.320   2.552   4.565 -0.6213 -0.2749  0.6405
  109SAPE   H3R11249   3.235   2.610   4.606 -0.5773 -0.0330  0.3905
  109SAPE   H3S11250   3.378   2.607   4.489 -0.6215 -1.3484 -0.1652
  109SAPE   C2411251   3.418   2.537   4.686  0.3480  0.1127 -0.0398
  109SAPE   H4R11252   3.512   2.507   4.635  1.0575  0.4850  0.9945
  109SAPE   H4S11253   3.393   2.448   4.748  0.4258 -0.3059 -0.6093
  109SAPE   C2511254   3.424   2.663   4.771  0.0893 -0.3457  0.3409
  109SAPE   H5R11255   3.501   2.734   4.735  1.2370 -0.4192  2.4898
  109SAPE   C2611256   3.362   2.691   4.889 -0.6129 -0.0157 -1.0121
  109SAPE   H6R11257   3.377   2.794   4.926 -0.2323  0.3473 -2.1159
  109SAPE   C2711258   3.259   2.615   4.957  0.4908 -0.1971 -0.1743
  109SAPE   H7R11259   3.205   2.553   4.882 -0.5760  0.2286  0.2200
  109SAPE   H7S11260   3.177   2.686   4.983 -0.7287 -1.8778  0.7630
  109SAPE   C2811261   3.303   2.533   5.074 -0.0468 -0.2708 -0.7637
  109SAPE   H8R11262   3.358   2.441   5.050  0.2986 -0.0148 -0.9678
  109SAPE   C2911263   3.262   2.560   5.202  0.3119 -0.5184  0.1375
  109SAPE   H9R11264   3.302   2.494   5.280 -0.9716 -1.1662  0.2730
  109SAPE  C21011265   3.184   2.669   5.256 -0.4335  0.1345 -0.0096
  109SAPE  H10R11266   3.100   2.627   5.315  0.1369 -0.1765  0.5925
  109SAPE  H10S11267   3.134   2.724   5.173 -1.5385 -0.2919  0.3562
  109SAPE  C21111268   3.265   2.769   5.330 -0.0809 -0.4059 -0.4201
  109SAPE  H11R11269   3.337   2.826   5.269 -1.9380 -0.2103 -2.5234
  109SAPE  C21211270   3.247   2.804   5.461  0.4370  0.3963  0.1990
  109SAPE  H12R11271   3.320   2.868   5.513  1.4459 -2.2370  2.2840
  109SAPE  C21311272   3.154   2.743   5.563  0.0460  0.0768  0.0889
  109SAPE  H13R11273   3.197   2.749   5.665 -1.8831 -2.8720  1.1926
  109SAPE  H13S11274   3.135   2.635   5.544 -0.7627  0.4196 -1.1699
  109SAPE  C21411275   3.018   2.807   5.548  0.6416  0.7784 -0.3319
  109SAPE  H14R11276   2.968   2.801   5.450  1.8225 -1.4162 -0.8657
  109SAPE  C21511277   2.942   2.858   5.648 -0.3289 -0.8548 -0.6283
  109SAPE  H15R11278   2.847   2.909   5.627 -0.8720 -1.1817  0.8722
  109SAPE  C21611279   2.980   2.866   5.793 -0.0609  0.3868 -0.2480
  109SAPE  H16R11280   3.023   2.967   5.810 -2.3149  1.2621  0.5151
  109SAPE  H16S11281   3.056   2.787   5.814 -0.3080  0.0005 -0.8118
  109SAPE  C21711282   2.862   2.857   5.880  0.2092 -0.1241  0.3145
  109SAPE  H17R11283   2.818   2.756   5.868  1.3748 -0.6665  0.5002
  109SAPE  H17S11284   2.780   2.925   5.849 -0.3164 -0.6010  0.6573
  109SAPE  C21811285   2.870   2.896   6.026  0.4024 -0.1851  0.7073
  109SAPE  H18R11286   2.937   2.982   6.042  1.6562 -0.7450 -1.1702
  109SAPE  H18S11287   2.918   2.813   6.083  2.1618  0.8432  0.7812
  109SAPE  C21911288   2.731   2.933   6.090  0.2760 -0.1639  0.0290
  109SAPE  H19R11289   2.744   2.932   6.201  0.7403  0.0443 -0.0203
  109SAPE  H19S11290   2.651   2.862   6.061  1.3508 -0.1697 -3.2947
  109SAPE  C22011291   2.686   3.074   6.048  0.3697 -0.1290 -0.4126
  109SAPE  H20R11292   2.658   3.082   5.941  2.1238 -0.9362 -0.9665
  109SAPE  H20S11293   2.764   3.152   6.061 -0.2824  0.6102 -0.8509
  109SAPE  H20T11294   2.595   3.104   6.105  0.6728 -0.5859  0.3128
  109SAPE   C3311295   2.820   2.346   4.523 -0.0258 -1.1619 -0.2369
  109SAPE   H3X11296   2.715   2.341   4.558  0.0889 -1.7776  0.0400
  109SAPE   H3Y11297   2.829   2.409   4.432  0.9649 -2.2772 -0.9483
  109SAPE   C3411298   2.884   2.404   4.648  0.1073  0.8745  0.2489
  109SAPE   H4X11299   2.879   2.515   4.649 -1.2407  0.8327  0.0469
  109SAPE   H4Y11300   2.990   2.373   4.637  0.0335  0.8951 -0.6026
  109SAPE   C3511301   2.822   2.358   4.778  0.2199 -0.0680 -0.2120
  109SAPE   H5X11302   2.833   2.248   4.791 -0.6838 -0.0097  1.3401
  109SAPE   H5Y11303   2.713   2.382   4.773  0.6336  2.2640  0.6610
  109SAPE   C3611304   2.879   2.424   4.905 -0.2300  0.0745 -0.0201
  109SAPE   H6X11305   2.868   2.534   4.913  0.2939  0.1193  0.1577
  109SAPE   H6Y11306   2.988   2.408   4.920 -0.3122 -0.6784 -0.1942
  109SAPE   C3711307   2.805   2.380   5.040  0.0372  0.1933 -0.4923
  109SAPE   H7X11308   2.800   2.269   5.051 -0.3113  0.0462 -1.8696
  109SAPE   H7Y11309   2.697   2.406   5.042 -0.1518 -0.6119  0.1074
  109SAPE   C3811310   2.861   2.449   5.168 -0.1616 -0.6964 -1.0101
  109SAPE   H8X11311   2.838   2.557   5.152 -1.0817 -0.5456  1.0135
  109SAPE   H8Y11312   2.972   2.450   5.180 -0.2760 -2.4830  0.8534
  109SAPE   C3911313   2.789   2.410   5.297 -0.4494  0.4418 -0.4695
  109SAPE   H9X11314   2.757   2.304   5.303 -2.9259  1.1432  0.2433
  109SAPE   H9Y11315   2.694   2.468   5.290 -0.6195  0.0036 -2.4903
  109SAPE  C31011316   2.872   2.436   5.420 -0.0186  0.2793 -0.0217
  109SAPE  H10X11317   2.900   2.544   5.416 -0.3954  0.3988  0.3716
  109SAPE  H10Y11318   2.970   2.385   5.415  1.0992  2.0935  1.7441
  109SAPE  C31111319   2.802   2.395   5.548 -0.1839 -0.3346  0.2495
  109SAPE  H11X11320   2.779   2.287   5.556 -0.2444 -0.2808  0.8442
  109SAPE  H11Y11321   2.707   2.452   5.536  0.0613 -0.0986 -0.6244
  109SAPE  C31211322   2.893   2.435   5.672  0.1806  0.2066  0.9280
  109SAPE  H12X11323   2.921   2.542   5.660 -0.0254  0.3311  1.5141
  109SAPE  H12Y11324   2.982   2.372   5.694  1.4609  1.6545  0.1105
  109SAPE  C31311325   2.806   2.423   5.791  0.6091 -0.1535 -0.4926
  109SAPE  H13X11326   2.733   2.341   5.774 -0.3198  0.9643 -2.0976
  109SAPE  H13Y11327   2.746   2.516   5.798 -1.1535 -1.3546  2.3602
  109SAPE  C31411328   2.872   2.400   5.924 -0.0519 -0.6144 -0.2316
  109SAPE  H14X11329   2.931   2.493   5.940 -0.2103  0.3388 -4.2843
  109SAPE  H14Y11330   2.938   2.311   5.917 -0.9198 -1.1557 -2.1555
  109SAPE  C31511331   2.774   2.385   6.038 -1.0228 -0.5126 -0.5620
  109SAPE  H15X11332   2.831   2.342   6.123  0.3078 -1.4424 -1.8734
  109SAPE  H15Y11333   2.701   2.310   6.001  0.7500 -0.8900 -3.6489
  109SAPE  C31611334   2.710   2.522   6.081 -0.3331 -0.7674 -0.0072
  109SAPE  H16X11335   2.667   2.557   5.984  0.7851 -1.0301 -0.6153
  109SAPE  H16Y11336   2.787   2.592   6.119 -0.0793 -1.6091  1.0668
  109SAPE  C31711337   2.607   2.511   6.195 -0.5975  0.0060  0.3243
  109SAPE  H17X11338   2.571   2.613   6.220 -1.1720  0.3133 -1.5980
  109SAPE  H17Y11339   2.660   2.457   6.277 -1.7552 -0.2682  0.9152
  109SAPE  C31811340   2.483   2.437   6.146 -0.0643  0.0449 -0.1315
  109SAPE  H18X11341   2.498   2.329   6.127  1.5315  0.3757 -0.8895
  109SAPE  H18Y11342   2.435   2.488   6.060  1.2333  1.9711  0.2220
  109SAPE  H18Z11343   2.402   2.446   6.222  1.7800  1.9431  1.7509
  110SAPE     N11344   3.437   5.592   3.820  0.0001 -0.3554  0.8204
  110SAPE   HN111345   3.499   5.522   3.774 -0.2046 -0.1350  0.2040
  110SAPE   HN211346   3.346   5.545   3.840 -0.6988  0.6126  0.0090
  110SAPE   HN311347   3.430   5.675   3.758  2.2523  0.2283  1.2819
  110SAPE   C1211348   3.508   5.649   3.943 -0.7374 -0.3756 -0.4278
  110SAPE  H12A11349   3.569   5.569   3.990 -0.7691  0.6821  1.5345
  110SAPE  H12B11350   3.423   5.670   4.011 -0.7267 -0.3717 -0.4156
  110SAPE   C1111351   3.588   5.772   3.905 -0.1630 -0.0900  0.4774
  110SAPE  H11A11352   3.680   5.755   3.844 -0.5487  2.3831 -0.8979
  110SAPE  H11B11353   3.632   5.823   3.993  0.8868  2.0554 -1.1828
  110SAPE     P11354   3.532   6.005   3.817  0.3525 -0.2763  0.0475
  110SAPE   O1311355   3.678   6.028   3.833  0.2750 -0.4116  0.1035
  110SAPE   O1411356   3.465   6.064   3.695 -0.4296  0.4245  0.0864
  110SAPE   O1211357   3.501   5.854   3.825 -0.0771 -0.0840  0.3653
  110SAPE   O1111358   3.471   6.083   3.936 -0.2024  0.1316  0.2595
  110SAPE    C111359   3.444   6.031   4.064 -0.6910 -0.1924  0.8703
  110SAPE    HA11360   3.341   6.065   4.087 -1.0317  0.1568 -1.0087
  110SAPE    HB11361   3.457   5.921   4.071 -0.7382 -0.2034  0.7750
  110SAPE    C211362   3.536   6.100   4.175  0.4452 -0.4496 -0.3823
  110SAPE    HS11363   3.486   6.073   4.271  1.0111 -0.8858 -0.2054
  110SAPE   O2111364   3.546   6.245   4.151  0.7053  0.3022 -1.1892
  110SAPE   C2111365   3.438   6.315   4.184 -0.3911 -0.3125 -0.1642
  110SAPE   O2211366   3.332   6.270   4.231 -0.2987  0.0833  0.4457
  110SAPE   C2211367   3.462   6.461   4.178  0.3865  0.8133 -0.1948
  110SAPE   H2R11368   3.558   6.495   4.222  0.0228  1.4791  0.0789
  110SAPE   H2S11369   3.454   6.487   4.070 -2.2373 -0.4608 -0.4001
  110SAPE    C311370   3.680   6.037   4.179 -0.1526  0.0527  0.3286
  110SAPE    HX11371   3.699   6.049   4.070 -3.6301 -0.6939 -0.4968
  110SAPE    HY11372   3.753   6.102   4.232  1.2841 -0.9756 -0.3352
  110SAPE   O3111373   3.683   5.899   4.226 -0.7558 -0.0407 -0.7794
  110SAPE   C3111374   3.691   5.889   4.365  0.3035 -0.5841 -0.1203
  110SAPE   O3211375   3.685   5.988   4.440 -0.2314  0.3438  0.0513
  110SAPE   C3211376   3.701   5.745   4.404 -0.3169  0.3119  0.2042
  110SAPE   H2X11377   3.772   5.685   4.343 -0.5504 -0.1341  0.3689
  110SAPE   H2Y11378   3.607   5.690   4.379 -0.8735  1.4328 -0.2574
  110SAPE   C2311379   3.347   6.532   4.252  0.5192  0.6044  0.6343
  110SAPE   H3R11380   3.247   6.509   4.209  0.4719  1.9776 -0.0661
  110SAPE   H3S11381   3.356   6.638   4.219 -0.7473  0.2390 -0.9894
  110SAPE   C2411382   3.333   6.528   4.409 -0.4113  0.4471  0.4659
  110SAPE   H4R11383   3.438   6.514   4.444 -1.1737 -1.6830  2.0556
  110SAPE   H4S11384   3.300   6.424   4.426 -0.6671  0.3948 -0.3095
  110SAPE   C2511385   3.265   6.638   4.485  0.6724  0.2963  0.5010
  110SAPE   H5R11386   3.269   6.736   4.435  0.6879  0.1009  0.1213
  110SAPE   C2611387   3.188   6.621   4.592  0.5621 -0.5105 -0.9801
  110SAPE   H6R11388   3.138   6.709   4.634 -2.1989 -1.7602 -1.3898
  110SAPE   C2711389   3.167   6.499   4.679 -0.3872  0.6186  0.4024
  110SAPE   H7R11390   3.174   6.534   4.784  0.3820  2.3808 -0.2129
  110SAPE   H7S11391   3.244   6.419   4.676 -2.3422 -1.4015  0.8723
  110SAPE   C2811392   3.033   6.440   4.640  0.1675 -0.4000 -0.7133
  110SAPE   H8R11393   3.034   6.400   4.537  3.6515 -0.4256 -0.8127
  110SAPE   C2911394   2.923   6.449   4.717  0.1280 -0.3696 -0.4341
  110SAPE   H9R11395   2.837   6.389   4.683 -1.0314  1.3863 -0.7622
  110SAPE  C21011396   2.894   6.510   4.854 -0.9864 -0.2875 -0.2092
  110SAPE  H10R11397   2.792   6.553   4.862 -1.4896 -1.1803 -1.5712
  110SAPE  H10S11398   2.966   6.594   4.867 -3.3718  2.1038 -1.5773
  110SAPE  C21111399   2.914   6.401   4.959 -0.3273 -0.4193  0.3148
  110SAPE  H11R11400   2.906   6.298   4.921  2.1873 -0.3947 -0.4935
  110SAPE  C21211401   2.950   6.417   5.087  0.5267  0.1642 -0.2085
  110SAPE  H12R11402   2.958   6.331   5.154  0.6594 -1.3125 -2.0393
  110SAPE  C21311403   2.982   6.555   5.134 -0.2146 -0.2450  0.0741
  110SAPE  H13R11404   3.061   6.607   5.077  1.1178  0.5657  2.5014
  110SAPE  H13S11405   3.034   6.529   5.229  0.7128  0.0379 -0.3453
  110SAPE  C21411406   2.869   6.654   5.158 -0.0097  0.1717 -0.3881
  110SAPE  H14R11407   2.775   6.608   5.122  0.9834 -2.9815  0.7116
  110SAPE  C21511408   2.870   6.765   5.239  0.4014 -0.0175  1.3593
  110SAPE  H15R11409   2.774   6.818   5.239  0.9510  1.0717 -0.5555
  110SAPE  C21611410   2.985   6.829   5.312  0.2221  0.1653 -0.4331
  110SAPE  H16R11411   2.976   6.939   5.299 -1.5332 -0.0326 -1.2159
  110SAPE  H16S11412   3.086   6.804   5.275  0.3696  1.8048 -1.2561
  110SAPE  C21711413   2.978   6.808   5.462  0.0611  0.1913 -0.1903
  110SAPE  H17R11414   2.872   6.815   5.494  0.0741 -0.5876  0.0359
  110SAPE  H17S11415   3.047   6.881   5.510  1.0187 -1.0651  0.3812
  110SAPE  C21811416   3.022   6.662   5.500  0.0160 -0.6504 -0.1968
  110SAPE  H18R11417   3.121   6.645   5.453 -0.3604 -2.0766 -0.5454
  110SAPE  H18S11418   2.951   6.597   5.443  0.0656 -0.6742 -0.2324
  110SAPE  C21911419   3.016   6.628   5.653  0.4521 -0.9103  0.8708
  110SAPE  H19R11420   3.059   6.526   5.651 -3.8424 -2.9091  0.0551
  110SAPE  H19S11421   2.910   6.611   5.678  0.0117 -2.2478 -1.6159
  110SAPE  C22011422   3.092   6.724   5.738 -0.3627 -0.4777 -0.6363
  110SAPE  H20R11423   3.046   6.826   5.733 -0.8449 -0.6650 -0.1176
  110SAPE  H20S11424   3.202   6.726   5.719  0.3659  1.0325  2.9403
  110SAPE  H20T11425   3.072   6.711   5.846 -2.2113  4.0101 -0.2184
  110SAPE   C3311426   3.733   5.730   4.552  0.8864 -0.4506 -0.1105
  110SAPE   H3X11427   3.652   5.770   4.616 -1.7140 -3.5541 -1.1983
  110SAPE   H3Y11428   3.830   5.775   4.581 -0.3737  1.5094  1.3057
  110SAPE   C3411429   3.759   5.587   4.598  0.7812  0.9510  0.1972
  110SAPE   H4X11430   3.837   5.539   4.535  0.8701  0.9603  0.2980
  110SAPE   H4Y11431   3.670   5.523   4.581  0.4057  1.4165  0.3935
  110SAPE   C3511432   3.818   5.580   4.740 -0.2471 -0.8282 -0.3804
  110SAPE   H5X11433   3.904   5.650   4.734 -1.7244  1.0599 -0.4924
  110SAPE   H5Y11434   3.849   5.476   4.762 -2.7161 -0.9800  3.3413
  110SAPE   C3611435   3.722   5.619   4.859 -0.0815 -0.3886 -0.0943
  110SAPE   H6X11436   3.644   5.541   4.841 -0.7547  0.8251 -3.1614
  110SAPE   H6Y11437   3.678   5.719   4.840 -0.7420 -0.5767  0.4377
  110SAPE   C3711438   3.778   5.615   4.999 -0.3622  0.5354  0.6252
  110SAPE   H7X11439   3.830   5.712   5.011  1.1883 -0.3402  1.3802
  110SAPE   H7Y11440   3.854   5.534   4.997 -1.2411 -0.2885 -0.5166
  110SAPE   C3811441   3.675   5.584   5.105  0.1608  0.2308  0.5689
  110SAPE   H8X11442   3.601   5.512   5.063  1.5494 -0.3503 -1.0017
  110SAPE   H8Y11443   3.616   5.672   5.137  2.0895  1.9274 -0.3065
  110SAPE   C3911444   3.745   5.536   5.231  0.0159  0.8633  0.2531
  110SAPE   H9X11445   3.823   5.612   5.253  1.0834  0.3960 -1.6778
  110SAPE   H9Y11446   3.775   5.432   5.204 -1.5267  0.5821 -0.5157
  110SAPE  C31011447   3.661   5.528   5.353  0.4562  0.3718 -0.1453
  110SAPE  H10X11448   3.578   5.454   5.349  0.3091  0.5722 -0.8741
  110SAPE  H10Y11449   3.609   5.625   5.359 -1.3276 -0.5826  0.6261
  110SAPE  C31111450   3.732   5.515   5.485 -0.0701  0.1509 -0.9218
  110SAPE  H11X11451   3.794   5.606   5.499  0.2394 -0.4281  2.0762
  110SAPE  H11Y11452   3.792   5.422   5.488  1.5096  1.1567  1.1689
  110SAPE  C31211453   3.629   5.523   5.600  0.1473 -0.4760  0.0451
  110SAPE  H12X11454   3.556   5.440   5.593  1.1864 -1.7284  2.6944
  110SAPE  H12Y11455   3.575   5.620   5.609 -0.0707 -0.3841 -1.9078
  110SAPE  C31311456   3.702   5.516   5.738  0.2088  0.4565 -0.4612
  110SAPE  H13X11457   3.788   5.587   5.732  0.7625 -0.2146 -0.5169
  110SAPE  H13Y11458   3.752   5.417   5.745  0.7289  0.7162 -0.4430
  110SAPE  C31411459   3.609   5.549   5.855  0.0700  0.2044  0.1517
  110SAPE  H14X11460   3.529   5.474   5.876 -2.0227  1.7071 -1.8857
  110SAPE  H14Y11461   3.542   5.633   5.827  0.0448  0.8519  2.0038
  110SAPE  C31511462   3.674   5.594   5.986 -0.7700 -0.0592 -0.0338
  110SAPE  H15X11463   3.753   5.671   5.967 -0.8495  0.0335  0.0148
  110SAPE  H15Y11464   3.720   5.516   6.051  0.1129  0.7464  0.3384
  110SAPE  C31611465   3.566   5.653   6.083 -0.9372 -0.1788 -0.4339
  110SAPE  H16X11466   3.471   5.598   6.071 -1.2449  0.1852  0.2603
  110SAPE  H16Y11467   3.525   5.751   6.052 -1.8508 -0.5024 -0.2783
  110SAPE  C31711468   3.605   5.651   6.231  0.4967 -0.3564  0.1839
  110SAPE  H17X11469   3.713   5.676   6.239  0.3259  0.7349 -0.6335
  110SAPE  H17Y11470   3.596   5.554   6.284  0.1294  0.2023  1.1515
  110SAPE  C31811471   3.520   5.750   6.310  0.6215 -0.1542  0.7191
  110SAPE  H18X11472   3.411   5.727   6.305  0.8817 -1.8002  1.6948
  110SAPE  H18Y11473   3.527   5.853   6.270  1.1062 -0.6524 -0.5370
  110SAPE  H18Z11474   3.547   5.754   6.418  2.0475 -2.5041  0.5304
  111SAPE     N11475   2.064   0.487   3.976  0.0205  0.0922 -0.2354
  111SAPE   HN111476   1.993   0.411   3.971 -0.4158  0.5684 -1.8011
  111SAPE   HN211477   2.157   0.441   3.987 -0.2580 -0.5519 -0.5239
  111SAPE   HN311478   2.043   0.531   4.068 -0.6717  0.9524 -0.7869
  111SAPE   C1211479   2.056   0.573   3.850 -0.1212  0.0635  0.4583
  111SAPE  H12A11480   1.955   0.619   3.853  0.5976  1.6535  2.0497
  111SAPE  H12B11481   2.054   0.505   3.762 -0.5375  0.4896  0.1307
  111SAPE   C1111482   2.164   0.677   3.841  0.6664 -0.7008  0.5121
  111SAPE  H11A11483   2.146   0.737   3.933 -2.5886  1.9451 -1.5863
  111SAPE  H11B11484   2.130   0.727   3.748  0.7943 -1.9164 -0.2105
  111SAPE     P11485   2.405   0.730   3.788 -0.0688 -0.2194 -0.2991
  111SAPE   O1311486   2.535   0.667   3.783  0.0404 -0.4561  0.3163
  111SAPE   O1411487   2.365   0.809   3.672  0.0241  0.1502  0.6183
  111SAPE   O1211488   2.296   0.625   3.820 -0.0234  0.0802 -0.3735
  111SAPE   O1111489   2.405   0.829   3.916 -0.1267  0.2981  0.6857
  111SAPE    C111490   2.464   0.783   4.040  0.1844  0.2676  0.3624
  111SAPE    HA11491   2.439   0.675   4.051  0.0004  0.1629 -0.9131
  111SAPE    HB11492   2.574   0.793   4.029  0.0143  0.4524 -1.5249
  111SAPE    C211493   2.408   0.864   4.163  0.3563  0.2083  0.3279
  111SAPE    HS11494   2.449   0.967   4.170 -1.0974  0.9341 -1.0974
  111SAPE   O2111495   2.425   0.778   4.274  0.4321 -0.4650  0.0853
  111SAPE   C2111496   2.529   0.778   4.342 -0.1776 -0.3986  0.2078
  111SAPE   O2211497   2.623   0.854   4.327 -0.4527 -0.4748 -0.4860
  111SAPE   C2211498   2.530   0.656   4.442 -0.1393 -0.4028 -0.1675
  111SAPE   H2R11499   2.430   0.608   4.431 -1.0598  1.1526  0.9786
  111SAPE   H2S11500   2.612   0.593   4.402 -1.0859 -2.1900  0.5817
  111SAPE    C311501   2.253   0.888   4.147  0.0082  0.5787  0.1291
  111SAPE    HX11502   2.212   0.785   4.140 -0.3461  0.7093  0.2518
  111SAPE    HY11503   2.235   0.932   4.046  0.0857  0.3743  0.0262
  111SAPE   O3111504   2.190   0.966   4.251  0.5249 -0.1191  0.0331
  111SAPE   C3111505   2.104   0.916   4.332  0.7458 -0.1429  0.6158
  111SAPE   O3211506   2.055   0.804   4.334 -0.3202 -0.4257 -0.5098
  111SAPE   C3211507   2.090   1.019   4.443  0.2465 -0.3599  0.8292
  111SAPE   H2X11508   2.104   1.121   4.401 -1.2578  0.6380  2.5343
  111SAPE   H2Y11509   2.172   0.992   4.513  0.2448  1.1076  1.4406
  111SAPE   C2311510   2.566   0.695   4.588  0.4054  0.3746 -0.2780
  111SAPE   H3R11511   2.491   0.765   4.630  0.5774 -0.8228  2.2132
  111SAPE   H3S11512   2.673   0.721   4.597  1.4202 -3.1872 -0.3565
  111SAPE   C2411513   2.553   0.571   4.686 -0.5687  0.3069 -0.6872
  111SAPE   H4R11514   2.579   0.608   4.788 -0.8982 -0.3480 -0.3635
  111SAPE   H4S11515   2.627   0.494   4.656 -1.2582 -0.5486 -0.1903
  111SAPE   C2511516   2.412   0.520   4.688  0.6041 -0.2386 -0.1784
  111SAPE   H5R11517   2.396   0.453   4.602  0.0637 -0.4573  0.0854
  111SAPE   C2611518   2.316   0.526   4.781 -0.4418 -0.1589 -0.1470
  111SAPE   H6R11519   2.228   0.466   4.753 -0.5403  0.1721 -0.5481
  111SAPE   C2711520   2.335   0.576   4.927  0.3568  0.0596  0.2273
  111SAPE   H7R11521   2.440   0.600   4.955  0.1875  1.9342 -0.6026
  111SAPE   H7S11522   2.304   0.486   4.985 -0.9233 -0.1577 -0.7474
  111SAPE   C2811523   2.236   0.679   4.969 -0.3361  0.4338  0.0392
  111SAPE   H8R11524   2.202   0.759   4.902 -3.0337 -1.1757 -0.6655
  111SAPE   C2911525   2.193   0.698   5.096 -0.4930 -0.0051  0.1091
  111SAPE   H9R11526   2.135   0.791   5.109 -1.3834 -0.4308 -0.7081
  111SAPE  C21011527   2.218   0.626   5.224  0.6797  0.1049 -0.2514
  111SAPE  H10R11528   2.317   0.660   5.263  2.1092 -0.5273 -3.0411
  111SAPE  H10S11529   2.217   0.516   5.211  1.5570  0.2591 -1.9549
  111SAPE  C21111530   2.100   0.660   5.316 -0.1604 -0.3465 -0.2931
  111SAPE  H11R11531   2.009   0.605   5.286 -1.1372  1.1778 -0.2155
  111SAPE  C21211532   2.097   0.741   5.424 -0.2857  0.1053  0.2257
  111SAPE  H12R11533   2.011   0.743   5.493  0.5124  2.5547  1.2545
  111SAPE  C21311534   2.205   0.831   5.461  0.5068  0.2208 -1.2621
  111SAPE  H13R11535   2.160   0.923   5.503 -1.0215 -1.0380 -0.0403
  111SAPE  H13S11536   2.255   0.873   5.370  2.8920 -0.5108 -0.3755
  111SAPE  C21411537   2.315   0.761   5.538  0.3654  0.3077 -0.6658
  111SAPE  H14R11538   2.401   0.722   5.481  0.8322 -0.1747  0.3419
  111SAPE  C21511539   2.309   0.744   5.670 -1.0211  0.0743  0.8328
  111SAPE  H15R11540   2.396   0.694   5.716 -1.4056  0.4669  2.0296
  111SAPE  C21611541   2.196   0.786   5.755  0.2630 -0.2427  0.5598
  111SAPE  H16R11542   2.147   0.695   5.796  0.2113  0.1246  1.3181
  111SAPE  H16S11543   2.113   0.828   5.693  0.6415 -0.9509 -0.4657
  111SAPE  C21711544   2.227   0.886   5.872 -0.6507 -0.3974 -0.2883
  111SAPE  H17R11545   2.133   0.940   5.895 -0.7125 -0.3498 -0.6433
  111SAPE  H17S11546   2.295   0.966   5.837 -0.6734 -1.3800 -2.8208
  111SAPE  C21811547   2.288   0.823   5.992 -0.0907 -0.0002  0.1833
  111SAPE  H18R11548   2.385   0.776   5.968 -0.7793 -1.5586  0.3746
  111SAPE  H18S11549   2.219   0.747   6.033 -1.6168  0.6378 -1.1016
  111SAPE  C21911550   2.308   0.936   6.102 -0.3181  0.7075  0.0285
  111SAPE  H19R11551   2.208   0.981   6.115  0.6277  2.6945  0.8598
  111SAPE  H19S11552   2.375   1.016   6.064  0.9582 -0.2793  0.1051
  111SAPE  C22011553   2.356   0.883   6.232 -0.0842 -0.1733 -0.4624
  111SAPE  H20R11554   2.458   0.837   6.232  0.1803  0.3776 -1.7134
  111SAPE  H20S11555   2.283   0.807   6.269  0.7846  0.0719  1.9559
  111SAPE  H20T11556   2.345   0.963   6.308 -0.5282  0.6782 -1.4020
  111SAPE   C3311557   1.954   1.011   4.513 -0.1424  0.5163  0.8253
  111SAPE   H3X11558   1.919   0.909   4.538  0.5668  0.3506  1.1595
  111SAPE   H3Y11559   1.886   1.065   4.443  2.0638  1.1214 -0.9658
  111SAPE   C3411560   1.957   1.088   4.649 -0.4576 -0.4298 -0.2930
  111SAPE   H4X11561   1.972   1.196   4.631 -2.7415  0.4258  2.2367
  111SAPE   H4Y11562   2.046   1.046   4.702  0.2934 -0.7847 -1.7779
  111SAPE   C3511563   1.835   1.075   4.732 -0.5462  0.2933 -0.7565
  111SAPE   H5X11564   1.818   0.974   4.776  1.3692  0.9966  1.8708
  111SAPE   H5Y11565   1.744   1.102   4.674 -1.0378  0.3186  0.0120
  111SAPE   C3611566   1.835   1.171   4.858  0.5545 -0.0051  0.1040
  111SAPE   H6X11567   1.833   1.276   4.821 -0.5117 -1.2157 -3.7283
  111SAPE   H6Y11568   1.937   1.157   4.900  0.6175 -0.4726 -0.2005
  111SAPE   C3711569   1.717   1.149   4.957  0.2092  0.5803 -0.9881
  111SAPE   H7X11570   1.724   1.046   4.996 -0.2473  0.9742  0.1726
  111SAPE   H7Y11571   1.615   1.146   4.914 -0.9722 -2.5880  1.6283
  111SAPE   C3811572   1.737   1.243   5.079  0.0607  0.2170  0.2248
  111SAPE   H8X11573   1.711   1.348   5.053  0.6460  0.1000 -0.9052
  111SAPE   H8Y11574   1.842   1.221   5.109  0.0049 -0.2000  0.1179
  111SAPE   C3911575   1.638   1.205   5.195 -0.0039  0.8704 -0.0123
  111SAPE   H9X11576   1.635   1.097   5.221 -0.4516  1.2924  1.8478
  111SAPE   H9Y11577   1.544   1.212   5.137  0.6122 -0.7766 -1.3176
  111SAPE  C31011578   1.636   1.304   5.307  0.5823 -0.5449 -0.1853
  111SAPE  H10X11579   1.594   1.400   5.270  0.4312 -0.0870  1.1292
  111SAPE  H10Y11580   1.741   1.321   5.341  0.9778 -2.2669 -0.3932
  111SAPE  C31111581   1.546   1.242   5.420  0.3147 -0.5509 -0.6723
  111SAPE  H11X11582   1.572   1.134   5.433 -0.0433 -0.9001 -2.5540
  111SAPE  H11Y11583   1.441   1.225   5.389  0.5263 -2.1516 -0.6164
  111SAPE  C31211584   1.555   1.315   5.555  0.3035 -0.3451 -0.5958
  111SAPE  H12X11585   1.510   1.415   5.536 -3.0597 -1.0201  2.7877
  111SAPE  H12Y11586   1.659   1.337   5.588 -0.8806  1.6499  2.1765
  111SAPE  C31311587   1.462   1.237   5.658 -0.5650 -0.2579 -0.4583
  111SAPE  H13X11588   1.510   1.139   5.681  2.2498  1.2155  0.4484
  111SAPE  H13Y11589   1.365   1.220   5.607  0.0697 -2.7769 -0.9779
  111SAPE  C31411590   1.443   1.301   5.797  0.4073  0.4600 -0.5571
  111SAPE  H14X11591   1.393   1.400   5.793  0.2904  0.3973 -0.6614
  111SAPE  H14Y11592   1.550   1.311   5.826  0.2562  0.6555 -0.0595
  111SAPE  C31511593   1.377   1.214   5.897 -0.0504 -0.7098 -0.6716
  111SAPE  H15X11594   1.432   1.118   5.893 -0.9412 -1.2043 -1.3066
  111SAPE  H15Y11595   1.277   1.180   5.866 -0.4194  2.1365 -3.0851
  111SAPE  C31611596   1.380   1.275   6.040  0.9026  0.2750 -0.1222
  111SAPE  H16X11597   1.338   1.378   6.033 -2.4262 -0.9058  0.4867
  111SAPE  H16Y11598   1.483   1.294   6.076  0.5821  0.4387  0.7588
  111SAPE  C31711599   1.286   1.201   6.134 -0.2529 -0.2499  0.8867
  111SAPE  H17X11600   1.320   1.096   6.147 -1.3361 -0.9066 -1.1192
  111SAPE  H17Y11601   1.194   1.201   6.071  0.1949  0.7245  0.2049
  111SAPE  C31811602   1.283   1.263   6.273  0.9551  0.2658 -0.5524
  111SAPE  H18X11603   1.207   1.215   6.338  0.7390  1.5670  0.1899
  111SAPE  H18Y11604   1.266   1.373   6.280 -0.2037  0.0131  1.4531
  111SAPE  H18Z11605   1.376   1.249   6.332  1.8645  1.3063 -1.6773
  112SAPE     N11606   6.833   2.139   4.156  0.2699 -0.4835  0.3583
  112SAPE   HN111607   6.767   2.115   4.079  0.8435  0.6286 -0.5207
  112SAPE   HN211608   6.836   2.064   4.228  1.5798  2.7768  4.0945
  112SAPE   HN311609   6.794   2.226   4.198  1.1482  1.0570 -1.8294
  112SAPE   C1211610   6.975   2.166   4.112  0.4941 -0.5173  0.0562
  112SAPE  H12A11611   7.013   2.077   4.058 -0.7891 -0.5739 -0.8039
  112SAPE  H12B11612   7.028   2.178   4.208 -0.9076 -1.6284  1.0198
  112SAPE   C1111613   6.981   2.296   4.037  0.0538 -0.1467  0.3390
  112SAPE  H11A11614   6.937   2.291   3.935 -1.1152 -0.2438  0.8250
  112SAPE  H11B11615   7.084   2.331   4.015 -0.1032 -0.5855 -1.2187
  112SAPE     P11616   6.948   2.554   4.092  0.1930  0.1855 -0.5405
  112SAPE   O1311617   6.989   2.591   3.954 -0.0290  0.4123  0.0895
  112SAPE   O1411618   6.832   2.627   4.157 -0.2865  0.4559 -0.4426
  112SAPE   O1211619   6.906   2.399   4.100 -0.5234  0.1091 -0.0909
  112SAPE   O1111620   7.063   2.576   4.195 -0.0343 -0.0028  0.0448
  112SAPE    C111621   7.153   2.489   4.263  0.2535  0.0086 -0.0900
  112SAPE    HA11622   7.159   2.392   4.209 -1.7049 -1.0962  1.5489
  112SAPE    HB11623   7.253   2.535   4.279  0.1958 -0.5890  2.2706
  112SAPE    C211624   7.094   2.448   4.398  0.0709 -0.2309 -0.8152
  112SAPE    HS11625   7.020   2.368   4.375  1.5912 -1.8747 -0.1891
  112SAPE   O2111626   7.042   2.570   4.461 -0.0329 -0.1288  0.8062
  112SAPE   C2111627   6.942   2.551   4.546 -0.4288  0.0322 -0.4935
  112SAPE   O2211628   6.896   2.444   4.577 -0.7451  0.9243  0.5127
  112SAPE   C2211629   6.894   2.689   4.591 -0.0891  0.1777 -0.7712
  112SAPE   H2R11630   6.986   2.739   4.629  0.7046 -1.5417 -0.3391
  112SAPE   H2S11631   6.839   2.735   4.507 -2.3130 -0.3685  0.2878
  112SAPE    C311632   7.209   2.393   4.499 -0.3571 -0.9502  0.2007
  112SAPE    HX11633   7.271   2.478   4.535 -2.0450  0.8066 -0.8347
  112SAPE    HY11634   7.276   2.322   4.447 -0.3093 -0.0762 -0.9642
  112SAPE   O3111635   7.143   2.338   4.616  0.7370 -0.2344 -0.6028
  112SAPE   C3111636   7.090   2.210   4.605 -0.1038  0.1176  0.0005
  112SAPE   O3211637   7.106   2.135   4.513 -0.0482 -0.2535 -0.3368
  112SAPE   C3211638   7.038   2.169   4.741  0.2471 -0.5792 -0.2393
  112SAPE   H2X11639   6.947   2.230   4.758  0.2046 -0.1299 -1.9323
  112SAPE   H2Y11640   7.114   2.193   4.819  0.8280 -1.0789 -0.6357
  112SAPE   C2311641   6.775   2.678   4.697 -0.6139 -0.4107 -0.1081
  112SAPE   H3R11642   6.813   2.631   4.790 -3.3752 -1.5267  0.5632
  112SAPE   H3S11643   6.702   2.603   4.660  0.7357 -1.2047 -1.2622
  112SAPE   C2411644   6.710   2.814   4.729  0.0177  0.2864  0.3088
  112SAPE   H4R11645   6.624   2.792   4.796 -1.9319 -0.2200 -2.1824
  112SAPE   H4S11646   6.665   2.846   4.632 -0.0863  0.9977  0.5915
  112SAPE   C2511647   6.796   2.915   4.783  0.1926 -0.0765 -0.1737
  112SAPE   H5R11648   6.891   2.918   4.728  0.0599 -1.3064 -0.4890
  112SAPE   C2611649   6.781   2.982   4.902 -0.0319  0.6802  0.1489
  112SAPE   H6R11650   6.863   3.038   4.947 -0.7816 -0.1921  2.7545
  112SAPE   C2711651   6.660   2.973   4.992  0.1040  0.1155 -0.1310
  112SAPE   H7R11652   6.576   2.950   4.922  0.5960 -2.6978  0.0665
  112SAPE   H7S11653   6.647   3.074   5.036  0.0509 -0.0621  0.2624
  112SAPE   C2811654   6.670   2.860   5.091 -1.5237  0.5034 -0.2836
  112SAPE   H8R11655   6.643   2.763   5.047  2.4182 -1.3661  0.8740
  112SAPE   C2911656   6.697   2.880   5.225  0.9842  0.1207  0.0079
  112SAPE   H9R11657   6.683   2.799   5.298  0.5832 -0.0572 -0.2636
  112SAPE  C21011658   6.735   3.015   5.282  0.4294  0.1936  0.6679
  112SAPE  H10R11659   6.763   3.079   5.196 -1.5811 -1.7521 -1.5879
  112SAPE  H10S11660   6.822   3.005   5.350  0.9693  2.0611  0.3114
  112SAPE  C21111661   6.630   3.087   5.368 -0.3533  0.1027  0.4802
  112SAPE  H11R11662   6.565   3.155   5.312 -0.1856 -0.5613 -0.5414
  112SAPE  C21211663   6.614   3.082   5.502  0.0042  0.7043  0.4614
  112SAPE  H12R11664   6.536   3.148   5.542  0.4784  2.5711 -1.5249
  112SAPE  C21311665   6.681   2.988   5.605  0.6234  0.2740  0.2186
  112SAPE  H13R11666   6.699   2.887   5.562 -0.8142  0.3152 -0.5541
  112SAPE  H13S11667   6.603   2.961   5.679 -0.0966 -0.5356 -0.7999
  112SAPE  C21411668   6.805   3.058   5.659 -0.7669 -0.1271 -0.6162
  112SAPE  H14R11669   6.884   3.068   5.583 -0.3430  1.7290  0.0267
  112SAPE  C21511670   6.814   3.096   5.790 -0.3067 -0.4313 -0.0205
  112SAPE  H15R11671   6.900   3.149   5.832 -1.4008 -1.3617  3.8331
  112SAPE  C21611672   6.709   3.090   5.896  0.2013  0.2472  0.0334
  112SAPE  H16R11673   6.740   3.023   5.979 -0.5328  0.2242  0.2906
  112SAPE  H16S11674   6.612   3.047   5.864 -0.0453 -0.6489  1.8566
  112SAPE  C21711675   6.682   3.229   5.959 -0.3286  0.0667  0.0647
  112SAPE  H17R11676   6.659   3.287   5.867  2.3679 -1.9726 -2.0426
  112SAPE  H17S11677   6.779   3.262   6.003 -1.1122  1.5319  0.7929
  112SAPE  C21811678   6.562   3.223   6.047 -0.0529  0.1463 -0.1136
  112SAPE  H18R11679   6.586   3.168   6.140  0.8464  2.2665  0.9801
  112SAPE  H18S11680   6.480   3.167   5.997  0.1632 -0.9171  0.6898
  112SAPE  C21911681   6.501   3.362   6.091  0.5998  0.3739 -0.3523
  112SAPE  H19R11682   6.522   3.433   6.008  2.2092  1.6553  1.0761
  112SAPE  H19S11683   6.548   3.402   6.183 -0.8282  0.0077  0.5724
  112SAPE  C22011684   6.349   3.362   6.104 -0.0489 -0.2436  0.2369
  112SAPE  H20R11685   6.301   3.340   6.007  1.9900  0.3581 -0.9550
  112SAPE  H20S11686   6.303   3.457   6.138 -1.4629 -0.4692 -0.9547
  112SAPE  H20T11687   6.319   3.289   6.182 -0.7147  2.1177  2.3444
  112SAPE   C3311688   6.994   2.025   4.749  0.2500 -0.3717  0.1467
  112SAPE   H3X11689   7.088   1.966   4.742  0.4408 -0.5018  2.7302
  112SAPE   H3Y11690   6.928   1.991   4.666  0.9390 -1.3268 -0.0288
  112SAPE   C3411691   6.928   1.992   4.888  0.6031 -0.1956  0.3584
  112SAPE   H4X11692   6.906   1.884   4.905  2.1137 -0.1814  2.8931
  112SAPE   H4Y11693   6.828   2.039   4.899  0.7894  0.2149  0.3221
  112SAPE   C3511694   7.011   2.044   5.008 -0.6603  0.9247 -0.5660
  112SAPE   H5X11695   7.008   2.155   5.010 -0.8597  0.9103  0.9624
  112SAPE   H5Y11696   7.112   2.000   5.000 -0.8177  0.8453 -2.6390
  112SAPE   C3611697   6.964   1.993   5.140  0.3357  0.6439 -0.2003
  112SAPE   H6X11698   7.029   2.025   5.225 -0.7078 -0.9338  1.2618
  112SAPE   H6Y11699   6.958   1.882   5.141 -1.3747  0.6902 -1.6227
  112SAPE   C3711700   6.819   2.038   5.156  0.2790  0.1164  0.3932
  112SAPE   H7X11701   6.752   2.001   5.075  2.8056 -0.8645 -1.3962
  112SAPE   H7Y11702   6.834   2.146   5.134  3.4628 -0.5705 -1.4967
  112SAPE   C3811703   6.769   2.010   5.296  0.4004  0.3037  0.7816
  112SAPE   H8X11704   6.786   1.900   5.303  1.5163  0.3237 -0.9629
  112SAPE   H8Y11705   6.660   2.031   5.299  0.0908 -1.1135  0.4249
  112SAPE   C3911706   6.830   2.091   5.414  0.3228 -0.3536  0.6274
  112SAPE   H9X11707   6.805   2.192   5.375 -1.1583 -0.8520  0.2072
  112SAPE   H9Y11708   6.939   2.074   5.421  0.1929 -1.2795  0.5400
  112SAPE  C31011709   6.754   2.046   5.542  0.1333 -0.0301  0.1528
  112SAPE  H10X11710   6.778   1.939   5.560  1.0883  0.1825  0.1918
  112SAPE  H10Y11711   6.648   2.043   5.509  0.8187  1.6140 -2.5686
  112SAPE  C31111712   6.790   2.126   5.666  0.2190  0.2662 -0.1247
  112SAPE  H11X11713   6.775   2.234   5.642 -0.5048 -0.3361 -2.6084
  112SAPE  H11Y11714   6.892   2.111   5.708  0.6966  0.8851 -1.0373
  112SAPE  C31211715   6.696   2.075   5.786 -0.8365  0.2115  1.3741
  112SAPE  H12X11716   6.719   1.967   5.793  0.4905  0.3485 -0.1844
  112SAPE  H12Y11717   6.587   2.085   5.764 -1.2808 -1.9190  2.3521
  112SAPE  C31311718   6.739   2.146   5.905 -0.0894  0.2754 -0.5550
  112SAPE  H13X11719   6.716   2.255   5.899 -1.0357  0.0549 -1.1066
  112SAPE  H13Y11720   6.846   2.139   5.935  0.1063 -0.2020 -1.3474
  112SAPE  C31411721   6.653   2.094   6.031  0.0016  0.3040  0.3005
  112SAPE  H14X11722   6.661   1.983   6.032  1.6544  0.3991  0.4000
  112SAPE  H14Y11723   6.548   2.128   6.016  0.1525  0.1124 -1.3754
  112SAPE  C31511724   6.719   2.141   6.159 -0.1611 -1.0632  0.1943
  112SAPE  H15X11725   6.822   2.103   6.168  0.1838 -0.2692 -0.2589
  112SAPE  H15Y11726   6.657   2.114   6.247 -2.8400  3.3953  0.0217
  112SAPE  C31611727   6.710   2.297   6.163  0.2181 -0.0322 -0.0296
  112SAPE  H16X11728   6.607   2.318   6.129  1.4072  4.1444 -1.7318
  112SAPE  H16Y11729   6.785   2.348   6.098 -0.5054  4.1981  2.1050
  112SAPE  C31711730   6.753   2.351   6.298  0.4457 -0.3295 -0.1335
  112SAPE  H17X11731   6.669   2.346   6.371 -0.8474  1.6007 -1.3899
  112SAPE  H17Y11732   6.776   2.459   6.292  1.1259 -0.3579  1.5118
  112SAPE  C31811733   6.874   2.281   6.359 -0.1017  0.2489 -0.3732
  112SAPE  H18X11734   6.871   2.170   6.364  1.1458  0.2574  1.9574
  112SAPE  H18Y11735   6.874   2.299   6.469  0.4450  0.5155 -0.4125
  112SAPE  H18Z11736   6.975   2.301   6.319 -0.1035  1.3279  0.1338
  113SAPE     N11737   0.748   0.775   3.955 -0.9507  0.0685  0.1514
  113SAPE   HN111738   0.806   0.851   3.913 -0.0778 -1.0302 -0.6934
  113SAPE   HN211739   0.698   0.803   4.042  0.5149 -1.4094  1.5478
  113SAPE   HN311740   0.798   0.689   3.985 -1.1502  0.3951  1.5066
  113SAPE   C1211741   0.653   0.715   3.856  0.2562 -0.1295 -0.3059
  113SAPE  H12A11742   0.705   0.639   3.793  0.1675  0.2793 -0.8811
  113SAPE  H12B11743   0.616   0.802   3.797  2.6944 -0.0581 -1.8677
  113SAPE   C1111744   0.534   0.644   3.923 -0.1420  0.1271  0.2107
  113SAPE  H11A11745   0.572   0.562   3.987 -0.9909 -1.1094 -0.8322
  113SAPE  H11B11746   0.475   0.609   3.835 -0.0273  0.1412  0.1286
  113SAPE     P11747   0.354   0.693   4.109  0.0810  0.0854  0.3129
  113SAPE   O1311748   0.325   0.803   4.200  0.1350 -0.4079  0.5578
  113SAPE   O1411749   0.231   0.630   4.038 -0.6729 -0.6445 -0.6240
  113SAPE   O1211750   0.455   0.738   3.994 -0.1553  0.6394  0.4162
  113SAPE   O1111751   0.432   0.576   4.178 -0.5369 -0.1586 -0.2337
  113SAPE    C111752   0.388   0.439   4.192 -0.4576 -1.0697  0.1359
  113SAPE    HA11753   0.356   0.391   4.097 -0.0018 -2.2145  0.5518
  113SAPE    HB11754   0.472   0.384   4.238 -0.4360 -0.6239  0.6429
  113SAPE    C211755   0.265   0.410   4.285  1.2475  0.0469 -0.0886
  113SAPE    HS11756   0.170   0.438   4.234  0.5158  0.7746  1.6100
  113SAPE   O2111757   0.282   0.481   4.405  0.6864 -0.2877 -0.4394
  113SAPE   C2111758   0.204   0.585   4.427  0.4714  0.6006 -0.4368
  113SAPE   O2211759   0.113   0.628   4.363  0.5087  0.0007  0.2785
  113SAPE   C2211760   0.248   0.623   4.572 -0.0527 -0.9835  0.3527
  113SAPE   H2R11761   0.255   0.533   4.638 -0.3902 -1.1740  0.1336
  113SAPE   H2S11762   0.352   0.659   4.560 -0.2742 -0.4268  0.0831
  113SAPE    C311763   0.252   0.251   4.312  0.0710 -0.1972  0.1742
  113SAPE    HX11764   0.240   0.222   4.205 -1.4904 -0.3607  0.3720
  113SAPE    HY11765   0.159   0.221   4.364  1.0738 -0.6522  1.7872
  113SAPE   O3111766   0.372   0.193   4.355 -0.2647 -0.2447  0.5636
  113SAPE   C3111767   0.367   0.171   4.482  0.1842  0.9239  0.3238
  113SAPE   O3211768   0.273   0.192   4.555 -0.3086 -0.2766 -0.2276
  113SAPE   C3211769   0.500   0.108   4.526 -0.0886  0.2507  0.6304
  113SAPE   H2X11770   0.576   0.127   4.446 -1.2915 -1.7035 -1.0709
  113SAPE   H2Y11771   0.486  -0.002   4.531 -0.3098  0.2931  0.9957
  113SAPE   C2311772   0.160   0.736   4.631  0.4853  0.5238  1.0749
  113SAPE   H3R11773   0.170   0.833   4.579 -0.3462  0.6595  1.1561
  113SAPE   H3S11774   0.190   0.748   4.737  0.3774 -2.0669  1.4669
  113SAPE   C2411775   0.007   0.704   4.638  0.0238 -0.1712 -0.3201
  113SAPE   H4R11776  -0.018   0.622   4.709 -2.6707  1.6255  0.9676
  113SAPE   H4S11777  -0.034   0.657   4.545 -4.0131 -0.0041  1.1632
  113SAPE   C2511778  -0.080   0.823   4.678 -0.4056 -0.3206  0.9008
  113SAPE   H5R11779  -0.113   0.880   4.590  0.7793  0.3042  0.8288
  113SAPE   C2611780  -0.101   0.878   4.802  0.5371 -0.3720  0.0966
  113SAPE   H6R11781  -0.170   0.964   4.807  0.1976 -0.5524 -1.2761
  113SAPE   C2711782  -0.052   0.836   4.940 -0.1940 -0.2981 -0.4520
  113SAPE   H7R11783   0.023   0.913   4.968 -1.5370  0.8801  0.0619
  113SAPE   H7S11784  -0.004   0.736   4.941 -0.1706 -0.3142 -1.8922
  113SAPE   C2811785  -0.164   0.840   5.038  0.4928 -0.1354 -0.0626
  113SAPE   H8R11786  -0.260   0.819   4.989  0.7154  2.0759 -1.6189
  113SAPE   C2911787  -0.182   0.886   5.168 -0.7888  0.3686 -0.0151
  113SAPE   H9R11788  -0.275   0.871   5.226 -0.8302 -2.4026 -0.6446
  113SAPE  C21011789  -0.085   0.948   5.255 -0.4298 -0.3635  0.1566
  113SAPE  H10R11790   0.005   0.959   5.191 -0.7638  3.1720  0.1191
  113SAPE  H10S11791  -0.041   0.878   5.330  0.4353 -0.0114 -0.0108
  113SAPE  C21111792  -0.128   1.070   5.322 -0.2687 -0.8335 -0.2355
  113SAPE  H11R11793  -0.180   1.147   5.264  1.0421 -0.5847 -1.0976
  113SAPE  C21211794  -0.094   1.108   5.448  0.3134 -0.4976  0.2494
  113SAPE  H12R11795  -0.139   1.200   5.489 -2.2269 -2.3424  1.9025
  113SAPE  C21311796   0.005   1.051   5.549  0.2835 -0.1584  0.5526
  113SAPE  H13R11797   0.016   0.942   5.530  1.6702 -0.2542  1.7426
  113SAPE  H13S11798  -0.044   1.066   5.648 -2.1108 -0.4988 -0.5106
  113SAPE  C21411799   0.138   1.121   5.545 -0.7512 -0.5905 -0.8960
  113SAPE  H14R11800   0.175   1.120   5.441 -1.4972 -5.1804 -1.3503
  113SAPE  C21511801   0.211   1.194   5.639 -0.0680  0.0179  0.8713
  113SAPE  H15R11802   0.295   1.258   5.609 -0.8072  0.5841 -0.0764
  113SAPE  C21611803   0.160   1.206   5.780  0.0581 -0.2004 -0.2377
  113SAPE  H16R11804   0.213   1.142   5.854 -0.8574  0.4031  0.9696
  113SAPE  H16S11805   0.055   1.174   5.794  0.2419 -0.0121  1.8608
  113SAPE  C21711806   0.165   1.357   5.826  0.3264 -0.2139 -0.2417
  113SAPE  H17R11807   0.086   1.409   5.768 -0.4166 -0.8380  0.1962
  113SAPE  H17S11808   0.266   1.391   5.795 -0.0899  0.6802 -0.6373
  113SAPE  C21811809   0.137   1.381   5.974  0.1544  0.0781 -0.2901
  113SAPE  H18R11810   0.059   1.304   5.990 -2.3133  2.2049 -1.3463
  113SAPE  H18S11811   0.082   1.476   5.990 -1.6074 -0.5805 -2.0520
  113SAPE  C21911812   0.245   1.351   6.077  0.1201  0.4251  0.2122
  113SAPE  H19R11813   0.329   1.289   6.039  0.3526  0.0834  1.2422
  113SAPE  H19S11814   0.195   1.299   6.162 -2.8865  3.6312  0.6423
  113SAPE  C22011815   0.301   1.479   6.135 -0.8648  0.1262 -0.1225
  113SAPE  H20R11816   0.375   1.454   6.214 -1.4026 -1.7140 -0.1658
  113SAPE  H20S11817   0.220   1.536   6.186 -2.3262 -1.7707 -0.2482
  113SAPE  H20T11818   0.350   1.539   6.055 -0.7294 -0.3772 -0.4185
  113SAPE   C3311819   0.546   0.142   4.675 -0.3586  0.5740 -0.3234
  113SAPE   H3X11820   0.617   0.071   4.721 -1.9575 -1.5922 -1.0068
  113SAPE   H3Y11821   0.461   0.141   4.746  0.1799 -1.6472  0.3751
  113SAPE   C3411822   0.615   0.277   4.681  0.7508  0.2448  0.3667
  113SAPE   H4X11823   0.533   0.351   4.668 -0.6431 -1.4591 -0.8616
  113SAPE   H4Y11824   0.691   0.291   4.600  1.6839  0.4622  1.2606
  113SAPE   C3511825   0.683   0.319   4.814 -0.4844  0.1489 -0.0558
  113SAPE   H5X11826   0.735   0.416   4.801  0.5529 -0.0895  1.9354
  113SAPE   H5Y11827   0.774   0.254   4.823  0.4887  1.6468  1.4813
  113SAPE   C3611828   0.608   0.309   4.945  0.2655 -0.3046  0.3675
  113SAPE   H6X11829   0.552   0.215   4.963 -1.0456  0.4515  0.4053
  113SAPE   H6Y11830   0.531   0.389   4.942  0.8024  0.1930 -0.8924
  113SAPE   C3711831   0.691   0.355   5.070 -0.1397  0.6496  0.1016
  113SAPE   H7X11832   0.733   0.455   5.045 -2.6374  1.9326  0.7319
  113SAPE   H7Y11833   0.775   0.282   5.071 -0.7477 -0.0860 -0.9460
  113SAPE   C3811834   0.606   0.354   5.198  0.3658 -0.0347  0.0344
  113SAPE   H8X11835   0.522   0.424   5.180 -1.7907 -2.2064  1.1323
  113SAPE   H8Y11836   0.563   0.253   5.209 -2.0366  1.0959  2.0366
  113SAPE   C3911837   0.688   0.388   5.328  0.1947  0.5540  0.0572
  113SAPE   H9X11838   0.752   0.477   5.308  0.6296  0.1424 -0.3913
  113SAPE   H9Y11839   0.738   0.298   5.368 -3.6239 -2.2347 -0.8021
  113SAPE  C31011840   0.589   0.423   5.442  0.2756 -0.1000  0.1803
  113SAPE  H10X11841   0.532   0.332   5.470 -0.3980  0.6214  1.1979
  113SAPE  H10Y11842   0.531   0.514   5.418 -0.2194 -0.6544 -0.8088
  113SAPE  C31111843   0.663   0.449   5.575  0.0619  0.1968  0.2839
  113SAPE  H11X11844   0.600   0.519   5.634 -0.5404  0.0623 -0.1814
  113SAPE  H11Y11845   0.761   0.498   5.558  0.5487 -0.1809  1.8038
  113SAPE  C31211846   0.682   0.332   5.669 -0.2118  0.7252  0.2661
  113SAPE  H12X11847   0.754   0.256   5.630  0.5693  0.9579  1.2020
  113SAPE  H12Y11848   0.587   0.278   5.692 -0.9963  2.2909  0.7988
  113SAPE  C31311849   0.734   0.380   5.805 -0.4849  0.1633 -0.1845
  113SAPE  H13X11850   0.657   0.438   5.861 -1.0276 -1.2843  0.6311
  113SAPE  H13Y11851   0.825   0.444   5.798 -0.0528 -0.2781  1.0266
  113SAPE  C31411852   0.786   0.263   5.896  0.0696  0.8086  0.4181
  113SAPE  H14X11853   0.878   0.216   5.855 -0.1244 -0.7239  1.6520
  113SAPE  H14Y11854   0.716   0.177   5.893  2.1162 -1.0939  2.8431
  113SAPE  C31511855   0.828   0.309   6.038 -0.1491  0.2139 -0.6514
  113SAPE  H15X11856   0.741   0.326   6.105 -0.6774  1.2219 -1.5473
  113SAPE  H15Y11857   0.878   0.409   6.033 -1.7336  1.1982  1.5102
  113SAPE  C31611858   0.922   0.206   6.096  0.3531  0.5790 -0.1730
  113SAPE  H16X11859   1.000   0.175   6.023  0.8052 -2.8059  1.5370
  113SAPE  H16Y11860   0.868   0.111   6.115  2.7318 -1.0090 -0.9720
  113SAPE  C31711861   0.996   0.237   6.232  0.0624 -0.0579 -0.1796
  113SAPE  H17X11862   1.048   0.142   6.255  1.0449  0.3830 -0.5440
  113SAPE  H17Y11863   0.925   0.240   6.318 -1.4649 -2.6289 -1.2174
  113SAPE  C31811864   1.103   0.347   6.228  0.0033 -0.2881 -0.0017
  113SAPE  H18X11865   1.163   0.323   6.137  1.0724  1.6346  0.1308
  113SAPE  H18Y11866   1.160   0.354   6.323 -1.6306 -0.6841  1.0502
  113SAPE  H18Z11867   1.062   0.448   6.207  0.2171 -0.2776 -0.3808
  114SAPE     N11868   3.115   0.665   4.137  0.0871  0.1387 -0.3210
  114SAPE   HN111869   3.207   0.640   4.178  0.0275 -0.7930 -0.7146
  114SAPE   HN211870   3.062   0.707   4.216 -0.0458 -0.4775 -0.0750
  114SAPE   HN311871   3.071   0.571   4.126 -0.3229  0.3830 -0.7759
  114SAPE   C1211872   3.115   0.760   4.019  0.1376  0.5329  0.3301
  114SAPE  H12A11873   3.010   0.782   3.993  0.9740  2.9160 -1.3589
  114SAPE  H12B11874   3.162   0.699   3.938 -2.8322 -0.4961 -0.7599
  114SAPE   C1111875   3.205   0.875   4.051  0.2438 -0.0019 -0.3017
  114SAPE  H11A11876   3.180   0.915   4.152 -2.5250 -1.9640 -0.1032
  114SAPE  H11B11877   3.177   0.951   3.976  0.6088 -1.8050 -2.3528
  114SAPE     P11878   3.439   0.806   4.154  0.2067  0.5088 -0.0323
  114SAPE   O1311879   3.369   0.687   4.221 -0.0126 -0.1889  0.4577
  114SAPE   O1411880   3.578   0.788   4.111  0.1295  0.1042 -0.1533
  114SAPE   O1211881   3.344   0.842   4.035 -0.4028 -0.1355  0.2355
  114SAPE   O1111882   3.436   0.934   4.243 -0.1823  0.2582 -0.5873
  114SAPE    C111883   3.441   0.915   4.389  0.3532  0.4452  0.3973
  114SAPE    HA11884   3.341   0.904   4.434  0.9743 -0.6179  1.5713
  114SAPE    HB11885   3.495   0.822   4.417 -1.1183 -0.5954 -0.1208
  114SAPE    C211886   3.519   1.035   4.461  0.0681  0.2939  0.2324
  114SAPE    HS11887   3.459   1.127   4.441 -0.4527  0.3057  1.7201
  114SAPE   O2111888   3.652   1.052   4.405 -0.1297 -0.2506  0.3374
  114SAPE   C2111889   3.672   1.155   4.318  0.6058  0.5089  0.1098
  114SAPE   O2211890   3.591   1.246   4.294  0.5647  0.2272  0.2265
  114SAPE   C2211891   3.825   1.162   4.294  0.2244 -0.1408 -0.3764
  114SAPE   H2R11892   3.855   1.095   4.211  1.4375 -1.7750  1.2903
  114SAPE   H2S11893   3.839   1.263   4.250  1.7267  1.1029  2.6612
  114SAPE    C311894   3.526   1.007   4.613  0.1767  0.9974  0.2380
  114SAPE    HX11895   3.602   1.078   4.653  1.2444 -0.8659  1.7400
  114SAPE    HY11896   3.575   0.908   4.631 -1.6155 -0.1108 -0.7057
  114SAPE   O3111897   3.391   0.990   4.674  0.6125 -0.4306 -0.4062
  114SAPE   C3111898   3.394   0.990   4.814 -0.5582  0.1148 -0.3994
  114SAPE   O3211899   3.494   0.986   4.881 -0.3780  0.1580  0.0029
  114SAPE   C3211900   3.258   1.012   4.878  0.9752  0.0240 -0.3666
  114SAPE   H2X11901   3.189   0.939   4.831 -0.4109  2.7986 -2.9246
  114SAPE   H2Y11902   3.229   1.115   4.850  1.9664  0.4217  0.0443
  114SAPE   C2311903   3.919   1.131   4.406 -0.1588  0.4618  0.1699
  114SAPE   H3R11904   4.020   1.109   4.364 -0.0366  0.8512  0.2471
  114SAPE   H3S11905   3.889   1.047   4.472  0.1870  1.6040  1.8750
  114SAPE   C2411906   3.924   1.247   4.508  0.0192  0.3796 -0.0561
  114SAPE   H4R11907   3.829   1.242   4.566  0.9741  0.2752  1.5481
  114SAPE   H4S11908   3.931   1.345   4.456  2.0941  0.7310  0.8185
  114SAPE   C2511909   4.037   1.230   4.603 -0.6590  0.3203 -0.2691
  114SAPE   H5R11910   4.136   1.208   4.561  1.6498  0.1158  4.5795
  114SAPE   C2611911   4.025   1.207   4.737  0.3509 -0.1549  0.3084
  114SAPE   H6R11912   4.121   1.203   4.792  0.2496  0.1496  0.5110
  114SAPE   C2711913   3.905   1.200   4.829  0.4497 -0.3354 -0.0791
  114SAPE   H7R11914   3.898   1.095   4.865  0.9867 -0.3377  0.0322
  114SAPE   H7S11915   3.816   1.218   4.765  0.7621 -1.5901 -0.9105
  114SAPE   C2811916   3.932   1.302   4.938  0.1317 -0.1944 -0.1756
  114SAPE   H8R11917   3.997   1.389   4.918  1.2838 -0.5974  1.5621
  114SAPE   C2911918   3.892   1.295   5.065 -0.8489 -0.1725  0.8824
  114SAPE   H9R11919   3.905   1.385   5.128 -0.6328  0.9329 -0.6820
  114SAPE  C21011920   3.803   1.192   5.131 -0.6343 -0.5953  0.6982
  114SAPE  H10R11921   3.856   1.114   5.189  1.0964  0.0087 -0.0033
  114SAPE  H10S11922   3.749   1.129   5.057  2.6155  0.7532 -3.1698
  114SAPE  C21111923   3.685   1.265   5.196  0.1077  0.0729  0.6216
  114SAPE  H11R11924   3.605   1.290   5.125 -0.7316  1.5564  2.0274
  114SAPE  C21211925   3.672   1.317   5.323 -0.6391 -0.0064  0.4662
  114SAPE  H12R11926   3.575   1.360   5.350 -0.7192  0.0059  0.1625
  114SAPE  C21311927   3.776   1.294   5.435  0.0062  0.1168  0.3412
  114SAPE  H13R11928   3.803   1.397   5.466 -1.4128  1.2775 -2.0948
  114SAPE  H13S11929   3.871   1.248   5.401 -0.0248  1.0797 -1.1227
  114SAPE  C21411930   3.715   1.203   5.542  0.0167 -0.0010 -0.1698
  114SAPE  H14R11931   3.687   1.103   5.506 -0.0760  0.2208 -0.7325
  114SAPE  C21511932   3.688   1.233   5.672 -0.6433 -0.5709 -0.0496
  114SAPE  H15R11933   3.667   1.150   5.741  0.1027  0.7046  1.7893
  114SAPE  C21611934   3.729   1.358   5.752  0.7469 -0.2918  0.3855
  114SAPE  H16R11935   3.761   1.443   5.687 -0.4664 -1.4877 -1.9307
  114SAPE  H16S11936   3.812   1.336   5.821  0.9719  0.0597  0.2300
  114SAPE  C21711937   3.610   1.417   5.829 -0.2668  0.5834  0.6106
  114SAPE  H17R11938   3.554   1.340   5.887 -2.4399 -1.0047 -3.2113
  114SAPE  H17S11939   3.538   1.461   5.758 -2.0042 -1.2484  1.1292
  114SAPE  C21811940   3.666   1.519   5.927 -0.2513  0.1393 -0.0009
  114SAPE  H18R11941   3.710   1.607   5.876 -1.9202  0.6753 -0.5852
  114SAPE  H18S11942   3.752   1.469   5.976  0.2356  2.4734  1.7167
  114SAPE  C21911943   3.555   1.564   6.024  0.7500  0.0088 -0.2304
  114SAPE  H19R11944   3.597   1.642   6.091 -0.5881 -0.4363  1.2028
  114SAPE  H19S11945   3.524   1.481   6.091 -1.0349  2.8855  2.7733
  114SAPE  C22011946   3.434   1.623   5.957 -0.0069  0.4068  0.1592
  114SAPE  H20R11947   3.460   1.685   5.868 -0.5590  0.0720 -0.2386
  114SAPE  H20S11948   3.370   1.690   6.019 -1.7250 -0.4387 -0.6241
  114SAPE  H20T11949   3.368   1.537   5.933  0.8883  0.1421 -1.5059
  114SAPE   C3311950   3.256   0.993   5.032  0.3531 -0.0629 -0.1482
  114SAPE   H3X11951   3.326   1.066   5.079  1.7862 -0.5737 -1.3893
  114SAPE   H3Y11952   3.293   0.898   5.075 -0.2263 -0.2366 -0.0314
  114SAPE   C3411953   3.117   1.027   5.089 -0.4977 -0.3078  0.2900
  114SAPE   H4X11954   3.039   0.965   5.039 -1.7174  1.9496 -0.7569
  114SAPE   H4Y11955   3.090   1.131   5.064 -0.5551  0.3975  2.9563
  114SAPE   C3511956   3.102   1.005   5.238  0.0703  0.1794  0.3198
  114SAPE   H5X11957   3.014   1.061   5.273  0.9942  1.6917  0.3152
  114SAPE   H5Y11958   3.185   1.044   5.300 -0.0373 -1.4832  1.5613
  114SAPE   C3611959   3.069   0.853   5.265  0.4154 -0.0378 -0.6534
  114SAPE   H6X11960   3.149   0.796   5.212  0.9283 -0.4872  0.5736
  114SAPE   H6Y11961   2.980   0.829   5.202  0.6532  2.5637 -2.1286
  114SAPE   C3711962   3.041   0.797   5.404  0.4698  0.0718  1.3203
  114SAPE   H7X11963   3.024   0.687   5.400 -0.2402  0.1978  0.5529
  114SAPE   H7Y11964   2.951   0.840   5.452  1.5370  1.3943  2.2115
  114SAPE   C3811965   3.152   0.813   5.504 -0.3961  0.3023  0.2802
  114SAPE   H8X11966   3.180   0.918   5.525  0.3197  0.4596 -1.3156
  114SAPE   H8Y11967   3.239   0.760   5.459 -0.2520 -0.2572  1.1852
  114SAPE   C3911968   3.112   0.746   5.641  0.0976 -1.2128  0.3995
  114SAPE   H9X11969   3.202   0.691   5.675  0.5796  0.3801  1.8428
  114SAPE   H9Y11970   3.021   0.682   5.634 -1.3793  0.6777  1.0845
  114SAPE  C31011971   3.080   0.847   5.759 -0.1397 -0.4462  0.3105
  114SAPE  H10X11972   2.999   0.923   5.760  0.0902 -0.1893  1.1687
  114SAPE  H10Y11973   3.172   0.909   5.770 -0.4467  0.1159 -0.2117
  114SAPE  C31111974   3.061   0.778   5.893  0.7486  0.8575  0.3045
  114SAPE  H11X11975   3.151   0.715   5.906  0.8663  0.7764 -0.7815
  114SAPE  H11Y11976   2.974   0.709   5.885  1.8868 -0.4652 -1.8481
  114SAPE  C31211977   3.059   0.878   6.016 -0.4548  0.5640 -0.4282
  114SAPE  H12X11978   2.988   0.959   5.988 -3.3967 -1.3021  1.0624
  114SAPE  H12Y11979   3.164   0.912   6.023 -0.1176 -0.8101  3.0029
  114SAPE  C31311980   3.026   0.816   6.151 -0.3819  0.9045  0.6314
  114SAPE  H13X11981   3.120   0.761   6.173  0.1208  0.4663 -2.2100
  114SAPE  H13Y11982   2.938   0.749   6.138 -1.2803  1.6610  2.4109
  114SAPE  C31411983   2.993   0.904   6.272 -0.1880  0.0577 -0.5722
  114SAPE  H14X11984   3.060   0.993   6.270  1.1662 -0.9405 -0.6577
  114SAPE  H14Y11985   3.022   0.846   6.362 -1.9217  1.0971  0.7319
  114SAPE  C31511986   2.846   0.948   6.281 -0.9731 -0.4489  0.2533
  114SAPE  H15X11987   2.809   0.988   6.184 -1.2292 -1.5772 -0.1219
  114SAPE  H15Y11988   2.850   1.027   6.359 -1.3512  0.2522 -0.4121
  114SAPE  C31611989   2.745   0.850   6.344 -0.1560  0.4609  0.3292
  114SAPE  H16X11990   2.809   0.798   6.418  0.9254  2.4439  0.8746
  114SAPE  H16Y11991   2.708   0.780   6.266  1.9559  1.1199 -1.3676
  114SAPE  C31711992   2.639   0.916   6.427  0.6159 -0.0405 -0.7264
  114SAPE  H17X11993   2.578   0.977   6.357 -0.1860 -1.2692 -1.1238
  114SAPE  H17Y11994   2.690   0.988   6.495 -0.0556 -0.2928  0.0659
  114SAPE  C31811995   2.553   0.822   6.502  0.5215 -0.2655  0.0411
  114SAPE  H18X11996   2.461   0.876   6.533  0.7391  0.5028 -0.6245
  114SAPE  H18Y11997   2.609   0.777   6.587 -2.4164  0.7058  2.6765
  114SAPE  H18Z11998   2.514   0.734   6.447 -0.4980 -1.0502  1.9563
  115SAPE     N11999   6.586   3.700   3.816 -0.8062 -0.2298 -0.4413
  115SAPE   HN112000   6.563   3.600   3.796 -0.6247 -0.3001 -0.3077
  115SAPE   HN212001   6.501   3.744   3.855 -2.1372 -0.9924 -2.3456
  115SAPE   HN312002   6.602   3.739   3.721 -1.8630 -0.6078 -0.7860
  115SAPE   C1212003   6.715   3.714   3.902 -0.1604 -0.2875 -0.2531
  115SAPE  H12A12004   6.730   3.819   3.935  0.1169  0.4772 -2.6188
  115SAPE  H12B12005   6.795   3.680   3.833 -0.8069 -3.6737  0.4814
  115SAPE   C1112006   6.715   3.618   4.022 -0.2126  0.3791  0.3315
  115SAPE  H11A12007   6.628   3.646   4.086  1.0650  0.1922  2.2338
  115SAPE  H11B12008   6.795   3.632   4.098  0.0901  1.4670 -0.1761
  115SAPE     P12009   6.599   3.387   4.025  0.0484  0.3504  0.4041
  115SAPE   O1312010   6.478   3.434   3.955 -0.3013 -0.4511 -0.0100
  115SAPE   O1412011   6.631   3.243   4.001 -0.4232  0.5074  0.1629
  115SAPE   O1212012   6.714   3.482   3.976  0.1848 -0.2043  0.3120
  115SAPE   O1112013   6.593   3.409   4.182  0.3947 -0.2300  0.5711
  115SAPE    C112014   6.705   3.371   4.268  0.0991 -0.0925 -0.1306
  115SAPE    HA12015   6.789   3.331   4.207  1.5382  0.9320  1.0967
  115SAPE    HB12016   6.734   3.450   4.342 -0.3899 -0.1614  0.1350
  115SAPE    C212017   6.674   3.241   4.351 -0.5622 -1.1027 -0.4729
  115SAPE    HS12018   6.622   3.168   4.286 -0.8412 -0.8714 -0.5116
  115SAPE   O2112019   6.591   3.268   4.466 -0.0147 -0.3571  0.1888
  115SAPE   C2112020   6.542   3.167   4.523  0.7679 -0.1305 -0.9257
  115SAPE   O2212021   6.558   3.049   4.498 -0.4241  0.6808 -0.5561
  115SAPE   C2212022   6.449   3.203   4.635  0.4822  0.1283 -1.0611
  115SAPE   H2R12023   6.350   3.231   4.592  0.4106  0.7097 -0.5380
  115SAPE   H2S12024   6.427   3.116   4.700 -0.7498  1.3728  0.2758
  115SAPE    C312025   6.807   3.189   4.410  0.5152  0.7694  0.5304
  115SAPE    HX12026   6.886   3.173   4.334  0.8199  1.9993  0.5572
  115SAPE    HY12027   6.782   3.092   4.458 -1.3994  1.5110  1.1122
  115SAPE   O3112028   6.858   3.283   4.507  0.2658  0.3828  0.5343
  115SAPE   C3112029   6.969   3.237   4.571  0.1627  0.2183 -0.1015
  115SAPE   O3212030   7.003   3.120   4.571 -0.3029  0.0918 -0.8796
  115SAPE   C3212031   7.030   3.349   4.657  0.7641  0.4170 -0.3767
  115SAPE   H2X12032   6.935   3.403   4.678  0.5187 -0.4315  0.7872
  115SAPE   H2Y12033   7.105   3.403   4.594  2.0497 -2.0040 -1.0502
  115SAPE   C2312034   6.495   3.325   4.723  0.4651  0.0184  0.0764
  115SAPE   H3R12035   6.488   3.420   4.666  1.5483 -0.0345 -0.1611
  115SAPE   H3S12036   6.600   3.324   4.758 -0.3879 -0.0957  2.8282
  115SAPE   C2412037   6.395   3.328   4.845 -0.1519  0.1001 -0.5188
  115SAPE   H4R12038   6.413   3.232   4.899  0.5003 -0.2586 -1.3543
  115SAPE   H4S12039   6.295   3.319   4.797 -0.7779  1.6618  0.4151
  115SAPE   C2512040   6.396   3.440   4.945 -0.3498  0.2107 -0.0385
  115SAPE   H5R12041   6.321   3.517   4.925 -2.0918 -1.4136 -0.0449
  115SAPE   C2612042   6.490   3.466   5.035  0.1592  0.1969 -0.9091
  115SAPE   H6R12043   6.488   3.550   5.105  3.6544 -0.0627 -0.2963
  115SAPE   C2712044   6.602   3.372   5.073 -0.4984  0.1019 -0.6877
  115SAPE   H7R12045   6.620   3.293   4.998  0.1425  0.7986 -1.2785
  115SAPE   H7S12046   6.571   3.323   5.168  2.3490 -0.0608  0.2419
  115SAPE   C2812047   6.725   3.461   5.099  0.0027  0.6518 -0.7789
  115SAPE   H8R12048   6.793   3.467   5.014  0.8636 -0.2822 -0.1817
  115SAPE   C2912049   6.745   3.534   5.210  0.0220 -0.2974  0.3621
  115SAPE   H9R12050   6.841   3.588   5.219  1.7318 -2.7890 -1.6046
  115SAPE  C21012051   6.656   3.541   5.332  0.4448  0.1905 -0.4323
  115SAPE  H10R12052   6.552   3.518   5.303  0.0006  0.3163  0.9941
  115SAPE  H10S12053   6.662   3.646   5.367  1.9763  0.3663 -1.1063
  115SAPE  C21112054   6.680   3.453   5.454 -0.5361  0.1280  0.1367
  115SAPE  H11R12055   6.618   3.363   5.449 -1.4727  0.7017  0.9921
  115SAPE  C21212056   6.771   3.473   5.549 -0.4916 -0.0977 -0.6015
  115SAPE  H12R12057   6.785   3.393   5.623  0.8529  0.8127  0.1728
  115SAPE  C21312058   6.850   3.595   5.582 -0.4781 -0.1928 -0.4054
  115SAPE  H13R12059   6.862   3.660   5.493  0.1888  0.9636  0.4907
  115SAPE  H13S12060   6.953   3.562   5.608 -1.0779 -0.8362  1.2966
  115SAPE  C21412061   6.785   3.678   5.692 -0.5216 -0.1158 -0.4896
  115SAPE  H14R12062   6.676   3.691   5.687 -0.8992 -2.7311 -0.4436
  115SAPE  C21512063   6.854   3.724   5.797  0.3025  0.2234 -0.0883
  115SAPE  H15R12064   6.787   3.756   5.878  0.2296  1.7566 -0.7149
  115SAPE  C21612065   7.002   3.705   5.838  0.3661  0.2877 -0.1823
  115SAPE  H16R12066   7.041   3.792   5.897 -1.2824  0.5933  0.5044
  115SAPE  H16S12067   7.068   3.684   5.751 -2.0718 -0.4954 -1.9256
  115SAPE  C21712068   6.996   3.590   5.945  0.6448 -0.3488 -0.0976
  115SAPE  H17R12069   6.923   3.509   5.925 -1.2923  1.1448  0.5560
  115SAPE  H17S12070   6.971   3.637   6.043  4.0751 -1.5158  1.4671
  115SAPE  C21812071   7.137   3.531   5.973  0.4773 -0.0714 -0.0365
  115SAPE  H18R12072   7.144   3.480   6.071 -1.3802 -0.9710 -0.3368
  115SAPE  H18S12073   7.205   3.617   5.994  0.1473  0.6034 -1.5616
  115SAPE  C21912074   7.187   3.455   5.854 -0.2679  1.3904 -0.0667
  115SAPE  H19R12075   7.289   3.416   5.871 -0.2145  0.5742 -2.0400
  115SAPE  H19S12076   7.189   3.525   5.768  0.0474  3.7752  1.7661
  115SAPE  C22012077   7.116   3.326   5.815  0.6446  0.2620  0.4231
  115SAPE  H20R12078   7.189   3.257   5.768 -0.8075  0.0969 -1.7528
  115SAPE  H20S12079   7.026   3.358   5.758  1.0209  1.3833  0.4220
  115SAPE  H20T12080   7.071   3.277   5.903 -2.1699 -1.0350 -1.5970
  115SAPE   C3312081   7.088   3.299   4.790 -0.1785 -0.7090 -0.2456
  115SAPE   H3X12082   7.197   3.282   4.777  0.0750 -1.1213  2.1018
  115SAPE   H3Y12083   7.035   3.208   4.825 -1.9616 -0.4714 -2.1186
  115SAPE   C3412084   7.079   3.408   4.902 -0.0365  0.4129 -0.5279
  115SAPE   H4X12085   6.977   3.446   4.923  0.4617  1.7226 -0.3589
  115SAPE   H4Y12086   7.138   3.499   4.879  2.3685 -0.2048  2.5139
  115SAPE   C3512087   7.143   3.365   5.038  0.4891  0.4817  0.0913
  115SAPE   H5X12088   7.155   3.447   5.113  0.7491 -0.5890  1.2617
  115SAPE   H5Y12089   7.242   3.325   5.010  1.0824  0.3478  2.1933
  115SAPE   C3612090   7.066   3.256   5.104 -0.1135  0.2858 -0.0198
  115SAPE   H6X12091   7.047   3.186   5.020 -0.4027 -0.3599  0.5690
  115SAPE   H6Y12092   6.975   3.295   5.153  0.5206 -0.6545  2.0545
  115SAPE   C3712093   7.136   3.183   5.218  0.0597  0.1993 -0.4560
  115SAPE   H7X12094   7.231   3.136   5.186 -0.4283 -3.3299  2.5280
  115SAPE   H7Y12095   7.075   3.093   5.240  4.5768 -2.6975  1.6693
  115SAPE   C3812096   7.137   3.265   5.345 -0.7805 -0.0534 -0.2630
  115SAPE   H8X12097   7.035   3.268   5.389 -0.3626 -1.8363  0.9454
  115SAPE   H8Y12098   7.172   3.369   5.327  2.3728 -1.0649 -0.5299
  115SAPE   C3912099   7.228   3.210   5.452 -0.2377 -0.6930 -0.0138
  115SAPE   H9X12100   7.216   3.106   5.488  1.8082 -0.3392  1.9478
  115SAPE   H9Y12101   7.207   3.271   5.542  1.5565  2.0379 -1.2764
  115SAPE  C31012102   7.375   3.208   5.415  0.1398  0.5447  0.0415
  115SAPE  H10X12103   7.385   3.160   5.315 -0.9536 -0.1784  0.2630
  115SAPE  H10Y12104   7.423   3.150   5.496 -1.8547  1.1326  1.7412
  115SAPE  C31112105   7.441   3.347   5.413 -0.6977  0.5019 -0.1786
  115SAPE  H11X12106   7.432   3.383   5.517  0.1919  2.5505 -0.7639
  115SAPE  H11Y12107   7.389   3.420   5.348  0.9599  1.7369 -0.1721
  115SAPE  C31212108   7.593   3.348   5.382  0.7153  0.6854 -0.0862
  115SAPE  H12X12109   7.632   3.270   5.451 -0.6394  1.8569  2.1463
  115SAPE  H12Y12110   7.627   3.451   5.404 -1.9024  1.6904 -0.3758
  115SAPE  C31312111   7.631   3.314   5.239 -1.1034 -0.4146  0.4873
  115SAPE  H13X12112   7.591   3.214   5.215  1.0687 -0.8304 -1.8550
  115SAPE  H13Y12113   7.742   3.319   5.231 -1.0685  2.9139  1.5410
  115SAPE  C31412114   7.585   3.414   5.126 -0.2894  0.4744  0.0477
  115SAPE  H14X12115   7.636   3.509   5.154  1.4624  0.4265 -2.6265
  115SAPE  H14Y12116   7.475   3.428   5.131 -0.5854 -1.7730  1.3912
  115SAPE  C31512117   7.643   3.383   4.984 -0.2307 -0.6391  0.4832
  115SAPE  H15X12118   7.753   3.387   4.992 -0.2534  0.2849  0.4397
  115SAPE  H15Y12119   7.609   3.470   4.923  0.9191 -0.1460  0.5316
  115SAPE  C31612120   7.588   3.261   4.914  0.2083  0.1499  0.7251
  115SAPE  H16X12121   7.486   3.245   4.954  0.1779  0.1218  0.6361
  115SAPE  H16Y12122   7.635   3.171   4.958 -0.4140 -0.8235 -0.5245
  115SAPE  C31712123   7.590   3.266   4.759  0.0809 -0.1872 -0.3479
  115SAPE  H17X12124   7.553   3.363   4.719 -1.2732 -1.1511 -1.5639
  115SAPE  H17Y12125   7.520   3.187   4.723 -0.6488  0.0445  0.5407
  115SAPE  C31812126   7.721   3.227   4.695 -0.7814 -0.1272  0.2684
  115SAPE  H18X12127   7.729   3.233   4.584 -2.0150  0.4709  0.1969
  115SAPE  H18Y12128   7.734   3.116   4.701  0.5748  0.0107  0.0967
  115SAPE  H18Z12129   7.796   3.287   4.750 -1.0861  0.3398  0.1746
  116SAPE     N12130   6.549   2.454   3.872  0.0102 -0.3964 -0.8125
  116SAPE   HN112131   6.481   2.393   3.822 -1.2870  0.4448 -0.1064
  116SAPE   HN212132   6.533   2.554   3.852  2.0700 -0.0710 -1.0948
  116SAPE   HN312133   6.645   2.439   3.834  0.9592 -2.7365  2.1044
  116SAPE   C1212134   6.550   2.437   4.022 -0.1960 -0.2030 -0.4171
  116SAPE  H12A12135   6.626   2.510   4.059 -0.9346  0.3784 -0.0040
  116SAPE  H12B12136   6.575   2.331   4.042  1.2060  0.4856  1.9854
  116SAPE   C1112137   6.411   2.465   4.094  0.2019 -0.5444 -0.4369
  116SAPE  H11A12138   6.393   2.568   4.057 -0.6138 -0.2326  0.7549
  116SAPE  H11B12139   6.415   2.475   4.205  0.1100  1.2159 -0.5611
  116SAPE     P12140   6.154   2.417   4.066 -0.4296  0.3118  0.2349
  116SAPE   O1312141   6.136   2.533   3.981  0.3847  0.4523  0.2831
  116SAPE   O1412142   6.065   2.302   4.042 -0.0557 -0.5077 -0.7519
  116SAPE   O1212143   6.308   2.376   4.057 -0.1045  0.1644  1.2591
  116SAPE   O1112144   6.147   2.455   4.221 -0.0846 -0.5668  0.4328
  116SAPE    C112145   6.132   2.595   4.258 -0.5543 -0.6048  0.7940
  116SAPE    HA12146   6.235   2.633   4.248 -0.8647  0.1234  0.2335
  116SAPE    HB12147   6.062   2.654   4.194 -2.4968 -0.4452  2.9194
  116SAPE    C212148   6.066   2.623   4.394 -0.3776 -0.1975  0.0068
  116SAPE    HS12149   5.987   2.700   4.379  1.8142  1.7809 -2.4387
  116SAPE   O2112150   6.159   2.680   4.489 -0.0427 -0.1355  0.6221
  116SAPE   C2112151   6.191   2.809   4.461  0.1808 -0.1552 -0.2053
  116SAPE   O2212152   6.156   2.864   4.355  0.2941  0.4727 -0.4905
  116SAPE   C2212153   6.264   2.869   4.579  0.3390 -0.5765 -0.6631
  116SAPE   H2R12154   6.374   2.865   4.566  0.4070 -0.3528 -0.1835
  116SAPE   H2S12155   6.234   2.976   4.585  1.1625 -0.3503 -0.4304
  116SAPE    C312156   6.011   2.492   4.456 -0.1901 -0.1535  0.0124
  116SAPE    HX12157   6.105   2.434   4.471 -0.0502 -0.3829 -1.5251
  116SAPE    HY12158   5.956   2.431   4.380  1.0170  0.8450 -1.7208
  116SAPE   O3112159   5.925   2.515   4.566 -0.1480  0.0998  0.0139
  116SAPE   C3112160   5.987   2.516   4.686  0.2246  0.4224 -0.2827
  116SAPE   O3212161   6.100   2.476   4.710  0.0459 -0.1064 -0.2543
  116SAPE   C3212162   5.895   2.568   4.787  0.1126  0.5276 -0.1115
  116SAPE   H2X12163   5.816   2.491   4.798  1.2792 -0.7636 -0.4875
  116SAPE   H2Y12164   5.863   2.662   4.736  1.4553  0.4705 -1.1131
  116SAPE   C2312165   6.227   2.815   4.721 -0.0190 -0.5653 -0.3206
  116SAPE   H3R12166   6.263   2.710   4.728 -0.3017 -0.6491 -0.0808
  116SAPE   H3S12167   6.117   2.817   4.735 -0.2002  0.1541 -1.7262
  116SAPE   C2412168   6.289   2.894   4.840 -0.5440  0.0783 -0.2097
  116SAPE   H4R12169   6.398   2.904   4.822 -0.1647 -1.5280  1.0043
  116SAPE   H4S12170   6.297   2.835   4.934 -1.6147  1.1110  0.5624
  116SAPE   C2512171   6.217   3.027   4.860  0.5465  0.1089  0.1233
  116SAPE   H5R12172   6.202   3.075   4.762 -1.6874  0.5806  0.6499
  116SAPE   C2612173   6.176   3.078   4.980 -0.2967  0.6854  0.1004
  116SAPE   H6R12174   6.124   3.175   4.970 -0.9337  0.2677 -0.7327
  116SAPE   C2712175   6.195   3.014   5.116 -0.2699  0.9378  0.1467
  116SAPE   H7R12176   6.219   2.906   5.106  1.0054  1.1764  0.4897
  116SAPE   H7S12177   6.099   3.007   5.171  0.7919 -2.8927  1.9063
  116SAPE   C2812178   6.295   3.094   5.200 -1.0053 -0.0939 -0.0405
  116SAPE   H8R12179   6.389   3.122   5.150 -0.5534  0.0208  0.8377
  116SAPE   C2912180   6.278   3.148   5.322  0.1545 -0.3009 -0.3328
  116SAPE   H9R12181   6.360   3.202   5.372  0.2991 -1.6753  0.9808
  116SAPE  C21012182   6.157   3.126   5.409  0.6133  0.3644 -0.2365
  116SAPE  H10R12183   6.080   3.062   5.361 -0.4132  1.1458  0.3476
  116SAPE  H10S12184   6.116   3.227   5.430 -0.3714 -0.0106 -0.3241
  116SAPE  C21112185   6.205   3.056   5.539 -0.4298 -0.5867  0.7790
  116SAPE  H11R12186   6.245   2.955   5.523 -0.5335 -0.5732  0.4074
  116SAPE  C21212187   6.233   3.107   5.660 -0.3570  0.2514 -0.1497
  116SAPE  H12R12188   6.273   3.042   5.739 -0.8043  1.4673  1.1239
  116SAPE  C21312189   6.239   3.257   5.697 -0.0211  0.1438 -0.0579
  116SAPE  H13R12190   6.185   3.300   5.784  2.4420  1.6632  0.8232
  116SAPE  H13S12191   6.197   3.314   5.611 -0.5982 -1.6469 -1.0146
  116SAPE  C21412192   6.372   3.316   5.702  0.1861  0.1524 -1.0020
  116SAPE  H14R12193   6.437   3.234   5.735  0.4391  1.2739  1.5393
  116SAPE  C21512194   6.409   3.439   5.680 -0.1498 -0.3388  0.3157
  116SAPE  H15R12195   6.519   3.451   5.678  0.0707 -2.0026  0.5446
  116SAPE  C21612196   6.325   3.560   5.643  0.0624  0.0556 -1.1150
  116SAPE  H16R12197   6.342   3.650   5.707  0.1148 -1.3926  1.0116
  116SAPE  H16S12198   6.220   3.532   5.668  0.4267  1.0573  1.9909
  116SAPE  C21712199   6.331   3.618   5.501 -0.0139 -0.4985 -0.5309
  116SAPE  H17R12200   6.440   3.623   5.477  0.6565 -1.4682  2.0120
  116SAPE  H17S12201   6.277   3.715   5.496 -2.0242 -1.5055  0.4048
  116SAPE  C21812202   6.260   3.531   5.399 -0.7651  0.7095  0.1853
  116SAPE  H18R12203   6.168   3.486   5.442  0.2739 -0.6361  1.0685
  116SAPE  H18S12204   6.324   3.443   5.377 -0.6943  0.4193  1.4418
  116SAPE  C21912205   6.237   3.609   5.273 -0.5153  0.1812  0.0781
  116SAPE  H19R12206   6.339   3.631   5.233 -0.9671 -0.1023 -1.2661
  116SAPE  H19S12207   6.185   3.704   5.299  2.6721  1.9471  0.5876
  116SAPE  C22012208   6.163   3.528   5.165  0.6249 -0.0150  0.3382
  116SAPE  H20R12209   6.202   3.424   5.168  0.5810 -0.1534 -1.9929
  116SAPE  H20S12210   6.184   3.576   5.068 -0.6129  1.9243  0.9736
  116SAPE  H20T12211   6.053   3.528   5.181  0.4647 -2.5227 -0.3736
  116SAPE   C3312212   5.961   2.592   4.926  0.8655 -0.3687 -0.1156
  116SAPE   H3X12213   6.046   2.664   4.921 -0.4911  1.3409  0.4661
  116SAPE   H3Y12214   5.994   2.495   4.968 -0.6341 -0.8430  0.0255
  116SAPE   C3412215   5.856   2.659   5.020 -0.5072  0.1299  0.3697
  116SAPE   H4X12216   5.781   2.581   5.046 -0.2443 -0.4284 -0.5078
  116SAPE   H4Y12217   5.816   2.753   4.977 -1.1243 -0.8449 -1.2713
  116SAPE   C3512218   5.930   2.697   5.151  0.1273 -0.6930 -0.2600
  116SAPE   H5X12219   5.995   2.783   5.124 -3.7855  2.3357 -0.9981
  116SAPE   H5Y12220   5.998   2.616   5.184  2.2964  1.1955  0.1013
  116SAPE   C3612221   5.842   2.721   5.275 -0.0346  0.2876 -0.1605
  116SAPE   H6X12222   5.776   2.632   5.285  1.1871 -0.6374  0.0151
  116SAPE   H6Y12223   5.781   2.811   5.253 -0.2653 -0.0153 -0.7912
  116SAPE   C3712224   5.925   2.735   5.401 -0.3485  0.1165 -0.5090
  116SAPE   H7X12225   5.990   2.823   5.379  0.0694 -0.2974 -0.9483
  116SAPE   H7Y12226   5.984   2.646   5.431  1.3047  1.0844 -0.7450
  116SAPE   C3812227   5.833   2.781   5.514 -0.2168 -0.0229 -0.4022
  116SAPE   H8X12228   5.780   2.688   5.546  2.7457 -1.3668  1.0171
  116SAPE   H8Y12229   5.766   2.865   5.484 -0.1003  1.6167  3.3973
  116SAPE   C3912230   5.913   2.822   5.635 -0.5297 -0.3239 -0.1892
  116SAPE   H9X12231   5.947   2.924   5.606  1.4269 -0.5597  1.0629
  116SAPE   H9Y12232   6.003   2.757   5.643 -0.9965 -0.7659  4.5152
  116SAPE  C31012233   5.836   2.857   5.764 -0.0453 -0.0640 -0.0534
  116SAPE  H10X12234   5.785   2.768   5.806 -2.0415  0.4188 -1.3255
  116SAPE  H10Y12235   5.754   2.925   5.733 -1.5214 -1.0795  1.4308
  116SAPE  C31112236   5.920   2.938   5.872  0.7954  0.5122  0.1486
  116SAPE  H11X12237   5.850   2.947   5.958 -0.7980 -1.0331 -0.9499
  116SAPE  H11Y12238   5.940   3.035   5.821 -1.0390 -0.3130 -2.2772
  116SAPE  C31212239   6.039   2.860   5.928 -0.2910 -0.5717  0.3155
  116SAPE  H12X12240   6.115   2.858   5.848 -1.1309 -0.8345 -0.4928
  116SAPE  H12Y12241   6.003   2.757   5.951  0.1615 -0.6183  0.8291
  116SAPE  C31312242   6.097   2.928   6.056  0.1226  0.7737 -0.2039
  116SAPE  H13X12243   6.025   2.903   6.138  0.9256  0.8030  0.5195
  116SAPE  H13Y12244   6.106   3.039   6.055  1.3462  0.6858 -0.6711
  116SAPE  C31412245   6.234   2.874   6.103 -0.9431  0.8415 -0.3405
  116SAPE  H14X12246   6.261   2.950   6.180  1.7348 -0.1271 -0.2227
  116SAPE  H14Y12247   6.315   2.875   6.026  0.5226 -1.2068  1.0731
  116SAPE  C31512248   6.221   2.737   6.174  0.4108  0.2728  0.2879
  116SAPE  H15X12249   6.201   2.651   6.107  1.4334  1.4122 -1.5548
  116SAPE  H15Y12250   6.146   2.748   6.256  1.2398  3.8459  0.7268
  116SAPE  C31612251   6.345   2.700   6.252  0.0620 -0.9432  0.6225
  116SAPE  H16X12252   6.350   2.791   6.316  0.0314  0.7256 -1.6428
  116SAPE  H16Y12253   6.430   2.699   6.181 -0.7693  2.0266 -0.5632
  116SAPE  C31712254   6.347   2.582   6.352 -0.1393  0.2924  0.1069
  116SAPE  H17X12255   6.445   2.578   6.404 -0.3104  1.5295  0.5711
  116SAPE  H17Y12256   6.335   2.490   6.291 -0.7342 -0.2780  1.0646
  116SAPE  C31812257   6.230   2.588   6.444 -0.4493  0.2231  0.0330
  116SAPE  H18X12258   6.228   2.674   6.514  2.1873 -0.6935  1.3646
  116SAPE  H18Y12259   6.227   2.492   6.501 -0.6201 -0.0879 -0.4905
  116SAPE  H18Z12260   6.142   2.585   6.375  0.3917  0.6360 -1.0876
  117SOPE     N12261   6.784   5.390   8.271  0.2899 -0.9190 -0.3550
  117SOPE   HN112262   6.882   5.364   8.294  0.0063 -0.7092  1.1899
  117SOPE   HN212263   6.763   5.447   8.356  1.5178 -0.1109 -0.5817
  117SOPE   HN312264   6.735   5.298   8.278  1.4496 -1.5349 -0.0686
  117SOPE   C1212265   6.767   5.465   8.144 -0.0003 -0.0519 -0.4345
  117SOPE  H12A12266   6.659   5.489   8.133 -0.6521 -1.1094  2.6637
  117SOPE  H12B12267   6.803   5.402   8.061 -2.7488 -2.1754 -0.1415
  117SOPE   C1112268   6.849   5.591   8.149  0.5643 -0.0508  0.3031
  117SOPE  H11A12269   6.829   5.637   8.050 -0.8578 -2.8863 -0.8445
  117SOPE  H11B12270   6.957   5.565   8.149  0.4657 -0.7172 -2.3588
  117SOPE     P12271   6.717   5.799   8.263  0.0331 -0.1106 -0.0770
  117SOPE   O1312272   6.803   5.919   8.297 -0.3672 -0.2365 -0.6025
  117SOPE   O1412273   6.612   5.761   8.361  0.2955  0.4142 -0.0029
  117SOPE   O1212274   6.817   5.672   8.262 -0.0916 -0.0577 -0.2329
  117SOPE   O1112275   6.667   5.805   8.118  0.5285  0.1766 -0.4482
  117SOPE    C112276   6.654   5.926   8.048 -0.3048 -0.1183 -1.0964
  117SOPE    HA12277   6.657   6.012   8.118  1.8299 -0.2222 -0.9949
  117SOPE    HB12278   6.554   5.925   8.000  0.1739 -0.2177 -2.1072
  117SOPE    C212279   6.744   5.942   7.933 -0.5204 -0.0247  1.3599
  117SOPE    HS12280   6.735   6.045   7.892  0.2772  0.3647  2.1218
  117SOPE   O2112281   6.728   5.843   7.828 -0.5862  0.2785 -0.5483
  117SOPE   C2112282   6.629   5.876   7.744 -0.8793  0.7550  0.0200
  117SOPE   O2212283   6.582   5.989   7.731 -0.2740  1.0345 -0.2326
  117SOPE   C2212284   6.571   5.753   7.665 -0.4041  0.4723 -0.6040
  117SOPE   H2R12285   6.462   5.746   7.686  0.1292  0.5218  2.6365
  117SOPE   H2S12286   6.621   5.664   7.708  4.4540  2.5936 -1.1977
  117SOPE    C312287   6.899   5.949   7.973 -0.1793 -0.8748 -0.3621
  117SOPE    HX12288   6.920   5.855   8.029 -2.6071 -0.7517  0.8970
  117SOPE    HY12289   6.909   6.044   8.031  0.0015  0.2970 -2.2388
  117SOPE   O3112290   6.988   5.959   7.863 -0.5667  1.1295 -0.3611
  117SOPE   C3112291   7.114   5.973   7.898  0.5509 -0.0465 -0.5084
  117SOPE   O3212292   7.152   5.984   8.013  0.4075 -0.5749  0.8542
  117SOPE   C3212293   7.214   5.963   7.789 -0.5302  0.0192 -0.0099
  117SOPE   H2X12294   7.180   5.894   7.709  0.0670  0.6884 -0.8607
  117SOPE   H2Y12295   7.316   5.934   7.823  1.0550  3.1298 -1.7240
  117SOPE   C2312296   6.602   5.755   7.517  0.5134 -0.2890  0.4731
  117SOPE   H3R12297   6.713   5.759   7.512  0.5363 -1.0367  0.3496
  117SOPE   H3S12298   6.578   5.854   7.471 -0.5053 -1.2837 -1.2085
  117SOPE   C2412299   6.536   5.640   7.440 -0.8745 -0.6703  0.0294
  117SOPE   H4R12300   6.569   5.543   7.482  2.4636  0.3060 -0.0147
  117SOPE   H4S12301   6.426   5.652   7.450 -0.9329 -1.3145  0.1943
  117SOPE   C2512302   6.574   5.649   7.288 -0.0080 -0.3688  0.4252
  117SOPE   H5R12303   6.505   5.581   7.234  0.7018 -0.4405 -0.4146
  117SOPE   H5S12304   6.559   5.754   7.256  1.2849 -0.1159  0.5831
  117SOPE   C2612305   6.724   5.616   7.262  0.1323  0.2946 -0.0338
  117SOPE   H6R12306   6.790   5.693   7.307  2.9166 -1.1871 -1.3198
  117SOPE   H6S12307   6.754   5.517   7.304 -2.4753 -0.7930 -0.5230
  117SOPE   C2712308   6.749   5.602   7.112  0.0076 -0.1840 -0.2109
  117SOPE   H7R12309   6.845   5.549   7.093  0.2277 -0.4602  1.4753
  117SOPE   H7S12310   6.674   5.536   7.062 -3.6358  3.9957 -0.8951
  117SOPE   C2812311   6.746   5.738   7.034 -0.0953 -0.0321 -0.3868
  117SOPE   H8R12312   6.639   5.767   7.025 -0.0620 -0.0743 -0.9896
  117SOPE   H8S12313   6.804   5.812   7.091  1.7428 -1.1220 -0.7630
  117SOPE   C2912314   6.814   5.743   6.897  0.3250  0.1485 -0.2333
  117SOPE   H9112315   6.923   5.758   6.899  0.4919 -0.5080  3.4865
  117SOPE  C21012316   6.755   5.729   6.777  0.1706  0.2011 -0.0639
  117SOPE  H10112317   6.817   5.730   6.686 -1.1622  0.5268 -0.9993
  117SOPE  C21112318   6.602   5.710   6.750  0.1464  0.7101 -0.5700
  117SOPE  H11R12319   6.564   5.781   6.673 -0.0469  0.8587 -0.3402
  117SOPE  H11S12320   6.537   5.712   6.841  0.6266 -3.1170  0.0473
  117SOPE  C21212321   6.576   5.574   6.683  0.0378 -0.0580 -0.0128
  117SOPE  H12R12322   6.631   5.501   6.746  0.1419 -0.3939 -0.4817
  117SOPE  H12S12323   6.627   5.570   6.584 -1.6107  0.6558 -0.9403
  117SOPE  C21312324   6.425   5.538   6.675  0.1542  0.5168  0.4069
  117SOPE  H13R12325   6.367   5.623   6.633  3.2193  1.9509 -1.2582
  117SOPE  H13S12326   6.393   5.526   6.781 -4.0921 -3.9308 -1.0271
  117SOPE  C21412327   6.399   5.414   6.595  0.7678  0.1177 -0.7195
  117SOPE  H14R12328   6.298   5.378   6.622  1.4654 -0.5806  1.1341
  117SOPE  H14S12329   6.475   5.345   6.637  1.5416  2.1849  1.5117
  117SOPE  C21512330   6.422   5.434   6.445 -0.0333  0.4742  0.3632
  117SOPE  H15R12331   6.515   5.491   6.425  0.0140  0.8474  1.6102
  117SOPE  H15S12332   6.335   5.493   6.409 -0.6206 -1.5366 -1.7672
  117SOPE  C21612333   6.430   5.297   6.376  0.0818 -0.7121 -0.1170
  117SOPE  H16R12334   6.353   5.233   6.423  1.2974 -1.4579  0.9222
  117SOPE  H16S12335   6.528   5.261   6.415  1.7050  2.4016 -0.9925
  117SOPE  C21712336   6.442   5.281   6.222 -0.1758 -0.0187 -0.0909
  117SOPE  H17R12337   6.347   5.319   6.179  0.5894  3.4437  0.9128
  117SOPE  H17S12338   6.459   5.173   6.203  3.0576  0.3574 -0.0102
  117SOPE  C21812339   6.546   5.374   6.162 -0.3994 -0.2775 -0.2773
  117SOPE  H18R12340   6.644   5.362   6.211 -0.8157 -0.2301  0.5745
  117SOPE  H18S12341   6.515   5.478   6.183  0.4317 -0.1344  0.2483
  117SOPE  H18T12342   6.557   5.364   6.051  0.6336  0.4085 -0.2454
  117SOPE   C3312343   7.249   6.100   7.720 -0.5855 -0.0836 -0.6491
  117SOPE   H3X12344   7.311   6.168   7.782  0.7205 -0.4839 -1.4898
  117SOPE   H3Y12345   7.158   6.157   7.690 -1.3143 -1.0679 -0.3504
  117SOPE   C3412346   7.332   6.080   7.591  0.6923  0.0931 -0.7013
  117SOPE   H4X12347   7.266   6.021   7.524  0.5735  1.1930 -1.5959
  117SOPE   H4Y12348   7.424   6.024   7.619  0.3092 -0.1081  0.1798
  117SOPE   C3512349   7.354   6.216   7.523  0.1348 -0.4195 -0.8574
  117SOPE   H5X12350   7.403   6.288   7.593 -2.9486 -2.2466  3.7139
  117SOPE   H5Y12351   7.256   6.267   7.511  0.3093  0.9898  2.5470
  117SOPE   C3612352   7.434   6.207   7.390  0.0327 -0.6061 -0.0080
  117SOPE   H6X12353   7.397   6.125   7.324 -0.6674  0.4418 -0.9609
  117SOPE   H6Y12354   7.543   6.196   7.410  0.2420  0.6830 -0.3605
  117SOPE   C3712355   7.427   6.341   7.309  0.1611  0.3525 -0.2760
  117SOPE   H7X12356   7.382   6.415   7.378  1.7225  0.5944  0.5280
  117SOPE   H7Y12357   7.368   6.320   7.217  0.4527 -0.9129 -0.1905
  117SOPE   C3812358   7.562   6.381   7.253 -0.2069 -0.0338  0.5408
  117SOPE   H8X12359   7.619   6.292   7.220  0.3445  0.4169  0.2654
  117SOPE   H8Y12360   7.616   6.431   7.336  2.4367 -1.6260 -0.1050
  117SOPE   C3912361   7.566   6.475   7.129  0.6122  0.2586 -0.3283
  117SOPE   H9X12362   7.490   6.432   7.060 -1.0267  0.6691  1.1622
  117SOPE   H9Y12363   7.664   6.475   7.076  0.2680  0.8700 -0.9963
  117SOPE  C31012364   7.533   6.618   7.163  0.8048 -0.0405  0.3235
  117SOPE  H10X12365   7.614   6.680   7.208 -1.7483  4.1674 -0.3480
  117SOPE  H10Y12366   7.443   6.625   7.228  0.3793  0.6874 -0.3218
  117SOPE  C31112367   7.485   6.684   7.030  0.5601 -0.0601 -0.5480
  117SOPE  H11X12368   7.380   6.656   7.008  0.0815 -0.5454  2.0742
  117SOPE  H11Y12369   7.543   6.637   6.948 -1.3874 -1.0968 -1.3833
  117SOPE  C31212370   7.488   6.837   7.031  0.4256 -0.3482  0.0660
  117SOPE  H12X12371   7.589   6.872   7.063 -1.0586  2.9451  1.5456
  117SOPE  H12Y12372   7.413   6.859   7.110  0.9156 -1.2214  0.8074
  117SOPE  C31312373   7.461   6.898   6.890  0.7522 -0.9655 -0.1985
  117SOPE  H13X12374   7.360   6.879   6.847  0.7699 -0.7528 -0.3346
  117SOPE  H13Y12375   7.536   6.850   6.824  0.3613  1.0143 -2.1977
  117SOPE  C31412376   7.476   7.048   6.882 -0.7932 -0.7713 -0.0875
  117SOPE  H14X12377   7.571   7.084   6.926 -0.8715  1.0371 -1.2958
  117SOPE  H14Y12378   7.395   7.096   6.940  0.3757  2.3995 -0.8961
  117SOPE  C31512379   7.487   7.105   6.744  0.1460 -0.0111 -0.4165
  117SOPE  H15X12380   7.553   7.038   6.684  0.0634  0.0706 -0.5995
  117SOPE  H15Y12381   7.544   7.199   6.750 -0.0243  0.0662 -0.0170
  117SOPE  C31612382   7.344   7.120   6.682 -0.6727  0.0505 -0.8708
  117SOPE  H16X12383   7.308   7.218   6.719  0.1434 -0.0876  0.3476
  117SOPE  H16Y12384   7.285   7.036   6.725  0.9874 -1.4142 -1.3108
  117SOPE  C31712385   7.333   7.117   6.530 -0.4220 -0.0386  0.3826
  117SOPE  H17X12386   7.231   7.158   6.515 -0.1075  2.0926  3.2809
  117SOPE  H17Y12387   7.332   7.009   6.503  0.5948 -0.4503  1.8560
  117SOPE  C31812388   7.434   7.195   6.444 -0.1714 -0.5716 -0.1868
  117SOPE  H18X12389   7.386   7.279   6.391  0.7345  0.1121  0.0519
  117SOPE  H18Y12390   7.480   7.128   6.369  1.8518 -1.7690  1.9854
  117SOPE  H18Z12391   7.525   7.224   6.502  0.2671  0.4212 -1.3231
  118SOPE     N12392   2.136   0.800   8.340  0.0437 -0.2947 -0.0670
  118SOPE   HN112393   2.044   0.777   8.383 -0.4468  0.7680 -0.5049
  118SOPE   HN212394   2.182   0.711   8.364 -2.0327 -1.3769  0.1311
  118SOPE   HN312395   2.181   0.882   8.386  0.9020 -1.0199  0.3920
  118SOPE   C1212396   2.111   0.821   8.193  0.0000 -1.0181  0.0386
  118SOPE  H12A12397   2.091   0.724   8.143  2.8839 -0.7593 -1.8475
  118SOPE  H12B12398   2.202   0.868   8.150  1.1340 -1.8762  1.4060
  118SOPE   C1112399   1.999   0.927   8.168  0.8792  0.1395  0.1463
  118SOPE  H11A12400   2.000   0.944   8.059  1.2131  1.8274  0.3841
  118SOPE  H11B12401   2.030   1.022   8.219  3.5701 -0.4221 -0.3028
  118SOPE     P12402   1.794   0.759   8.168  0.1266 -0.2913  0.5328
  118SOPE   O1312403   1.789   0.653   8.273 -0.4916 -0.1613 -0.6185
  118SOPE   O1412404   1.860   0.724   8.038 -0.0328  0.2379  0.6996
  118SOPE   O1212405   1.874   0.885   8.221  0.1183  0.5985 -0.1820
  118SOPE   O1112406   1.644   0.797   8.135 -0.3565  0.0143 -0.3423
  118SOPE    C112407   1.601   0.931   8.102  0.0981  0.0327 -0.4725
  118SOPE    HA12408   1.601   1.000   8.189  2.3301 -1.4552  0.8135
  118SOPE    HB12409   1.498   0.918   8.063 -0.1806 -1.2847  0.6068
  118SOPE    C212410   1.659   0.997   7.971  0.4823  0.3379  0.1766
  118SOPE    HS12411   1.768   0.977   7.968  0.8621  2.1795  0.5632
  118SOPE   O2112412   1.631   1.139   7.963  0.0666  0.3718  0.1088
  118SOPE   C2112413   1.722   1.215   7.909  0.5654  0.2813  0.4465
  118SOPE   O2212414   1.835   1.176   7.884 -0.4411  0.2259  0.2530
  118SOPE   C2212415   1.668   1.349   7.875 -0.0081  0.3328 -0.7682
  118SOPE   H2R12416   1.702   1.401   7.967 -0.9300 -1.3187  0.5571
  118SOPE   H2S12417   1.558   1.362   7.864 -0.0702  1.9610  1.2414
  118SOPE    C312418   1.599   0.924   7.848 -0.3117 -0.2192  0.0053
  118SOPE    HX12419   1.494   0.957   7.836 -0.0814  0.7348  0.5462
  118SOPE    HY12420   1.608   0.816   7.872  2.0892 -0.0621  0.0955
  118SOPE   O3112421   1.685   0.952   7.735 -0.0521 -0.0888  0.0650
  118SOPE   C3112422   1.620   0.947   7.616  0.4231  0.1896  0.3537
  118SOPE   O3212423   1.499   0.921   7.609  0.2036 -0.2446 -0.0719
  118SOPE   C3212424   1.704   0.961   7.485 -0.1152 -0.0779 -0.3468
  118SOPE   H2X12425   1.759   0.865   7.476 -0.9887 -0.5475 -0.6935
  118SOPE   H2Y12426   1.775   1.045   7.504  1.8407 -1.8153  0.3618
  118SOPE   C2312427   1.746   1.414   7.760 -0.1284 -0.1372 -0.1056
  118SOPE   H3R12428   1.856   1.419   7.778  0.3297 -3.1510 -1.3311
  118SOPE   H3S12429   1.709   1.517   7.743  0.2485  0.2226  1.1236
  118SOPE   C2412430   1.719   1.361   7.619 -0.6886  0.2837  1.2642
  118SOPE   H4R12431   1.757   1.257   7.610 -0.5695  0.4470 -0.7731
  118SOPE   H4S12432   1.611   1.362   7.595 -0.3813 -2.5299 -0.8206
  118SOPE   C2512433   1.776   1.444   7.513 -0.5203  0.1789 -0.4077
  118SOPE   H5R12434   1.748   1.552   7.509  1.7263  0.8032 -0.4477
  118SOPE   H5S12435   1.885   1.448   7.533 -0.1341 -0.7937 -2.0944
  118SOPE   C2612436   1.757   1.384   7.368  0.4706 -0.0565 -0.4883
  118SOPE   H6R12437   1.782   1.277   7.353 -0.2405 -0.4564  1.0325
  118SOPE   H6S12438   1.648   1.390   7.347  0.1032  0.4598  1.4353
  118SOPE   C2712439   1.837   1.458   7.255  0.9483  0.1313 -0.0548
  118SOPE   H7R12440   1.801   1.563   7.249 -1.6744 -0.7075 -0.5428
  118SOPE   H7S12441   1.944   1.457   7.284  0.4522  0.9877  1.9799
  118SOPE   C2812442   1.805   1.401   7.116 -1.3041  0.0176 -0.5233
  118SOPE   H8R12443   1.832   1.295   7.099  0.6632  0.4187 -0.1744
  118SOPE   H8S12444   1.698   1.398   7.086 -1.7901  0.6178  1.0362
  118SOPE   C2912445   1.880   1.482   7.020  0.1979 -0.1390  0.8290
  118SOPE   H9112446   1.954   1.549   7.066 -2.1723  2.9898  0.4642
  118SOPE  C21012447   1.868   1.478   6.885  0.6737 -0.4153  0.1776
  118SOPE  H10112448   1.931   1.539   6.818  2.5634 -1.6279  0.7625
  118SOPE  C21112449   1.775   1.387   6.809 -0.2468 -0.0057 -0.3592
  118SOPE  H11R12450   1.769   1.289   6.860 -1.0264 -0.1646 -0.7502
  118SOPE  H11S12451   1.817   1.358   6.710 -0.0398 -0.9532 -0.0051
  118SOPE  C21212452   1.639   1.450   6.778 -0.6118 -0.2559  0.3887
  118SOPE  H12R12453   1.652   1.549   6.730 -0.3701  0.2996  1.5610
  118SOPE  H12S12454   1.576   1.468   6.868 -0.5455 -1.1816  0.6274
  118SOPE  C21312455   1.570   1.351   6.687  0.2445 -0.3581 -0.2768
  118SOPE  H13R12456   1.556   1.261   6.750 -1.7079  0.4411  0.5079
  118SOPE  H13S12457   1.641   1.321   6.606  1.7614  1.5359  0.2865
  118SOPE  C21412458   1.444   1.405   6.621 -0.2644 -0.6040  0.1893
  118SOPE  H14R12459   1.363   1.430   6.692 -0.1192  1.7607 -0.3932
  118SOPE  H14S12460   1.399   1.321   6.564  1.1901 -1.1862 -0.1649
  118SOPE  C21512461   1.465   1.527   6.523  0.2578 -0.3773  0.0253
  118SOPE  H15R12462   1.463   1.617   6.587  0.0972  0.1397 -0.6994
  118SOPE  H15S12463   1.372   1.542   6.465 -0.1446 -1.9979  0.1865
  118SOPE  C21612464   1.586   1.529   6.434  0.2126 -0.4737  0.7703
  118SOPE  H16R12465   1.583   1.446   6.359  1.3776  0.4109 -0.3072
  118SOPE  H16S12466   1.686   1.526   6.482  0.6042  0.7658  0.0821
  118SOPE  C21712467   1.583   1.656   6.333  0.0640  0.2724 -0.2203
  118SOPE  H17R12468   1.674   1.674   6.272 -1.3956  0.8189 -2.3525
  118SOPE  H17S12469   1.572   1.751   6.391 -0.6912 -0.0249  0.1386
  118SOPE  C21812470   1.463   1.657   6.235 -0.8197 -0.4507 -0.0877
  118SOPE  H18R12471   1.452   1.762   6.201  4.0607  1.6478  3.6603
  118SOPE  H18S12472   1.366   1.636   6.286 -0.0387 -0.8676  1.2634
  118SOPE  H18T12473   1.490   1.589   6.151 -2.9670 -0.5813 -0.7413
  118SOPE   C3312474   1.604   0.978   7.366 -0.0749 -0.1186  0.3035
  118SOPE   H3X12475   1.530   1.057   7.389  0.6930  0.5812  0.4003
  118SOPE   H3Y12476   1.556   0.881   7.341 -1.3983  0.5315  0.2548
  118SOPE   C3412477   1.674   1.012   7.232 -0.0944  0.1784  0.1388
  118SOPE   H4X12478   1.700   1.118   7.215  1.5190 -0.5566 -2.5797
  118SOPE   H4Y12479   1.611   1.000   7.142  1.4798 -0.5330 -0.9082
  118SOPE   C3512480   1.811   0.931   7.210 -0.0958  0.1064 -0.1160
  118SOPE   H5X12481   1.783   0.823   7.211  1.5315 -0.3916 -1.8236
  118SOPE   H5Y12482   1.880   0.941   7.297 -0.0760 -1.0834  0.0209
  118SOPE   C3612483   1.875   0.953   7.074  0.3438 -0.7864 -0.3679
  118SOPE   H6X12484   1.979   0.913   7.072  1.0333  0.9604 -0.8326
  118SOPE   H6Y12485   1.879   1.063   7.066 -1.5357 -0.8033 -2.2562
  118SOPE   C3712486   1.797   0.902   6.949 -0.7657  0.0106 -0.4306
  118SOPE   H7X12487   1.693   0.938   6.966 -0.3461  0.3755  1.5813
  118SOPE   H7Y12488   1.804   0.792   6.944 -3.5996 -0.2265 -0.8440
  118SOPE   C3812489   1.858   0.949   6.815 -0.2123 -0.1244  0.5680
  118SOPE   H8X12490   1.864   1.059   6.806 -1.5729 -0.1792 -1.6385
  118SOPE   H8Y12491   1.795   0.910   6.732 -0.9618 -2.0425  1.9604
  118SOPE   C3912492   1.996   0.886   6.800  0.3097  0.0409 -0.0265
  118SOPE   H9X12493   1.992   0.779   6.831 -2.7231  0.0718 -0.0594
  118SOPE   H9Y12494   2.060   0.940   6.873 -1.1914 -0.5591  1.8259
  118SOPE  C31012495   2.059   0.889   6.657  0.5030  0.1854 -0.4817
  118SOPE  H10X12496   2.150   0.825   6.654  0.1755 -0.2478 -3.0552
  118SOPE  H10Y12497   2.091   0.988   6.618 -2.2048  2.0949  1.7595
  118SOPE  C31112498   1.960   0.826   6.556 -0.4954 -0.5338 -0.4971
  118SOPE  H11X12499   1.877   0.895   6.530  1.1227  1.9878  0.6349
  118SOPE  H11Y12500   1.940   0.721   6.586 -0.0755 -0.8266 -1.2339
  118SOPE  C31212501   2.027   0.802   6.416  0.0360  0.0064  1.1035
  118SOPE  H12X12502   2.136   0.783   6.428  0.0920  0.2213  0.9403
  118SOPE  H12Y12503   2.010   0.887   6.347  3.1854 -0.6068 -0.6328
  118SOPE  C31312504   1.946   0.690   6.348  0.0134 -0.1807 -0.2381
  118SOPE  H13X12505   1.841   0.725   6.355  0.5628  2.0160 -1.7257
  118SOPE  H13Y12506   1.937   0.592   6.399 -0.7691 -0.3224 -0.6267
  118SOPE  C31412507   1.981   0.661   6.205  0.1158  0.4232 -0.4176
  118SOPE  H14X12508   2.092   0.651   6.196  0.0102 -1.2277 -0.0524
  118SOPE  H14Y12509   1.947   0.748   6.144  0.4263  1.0595  0.3030
  118SOPE  C31512510   1.913   0.538   6.156  0.2223  0.0691  1.4645
  118SOPE  H15X12511   1.803   0.543   6.172 -0.0537  0.1592 -0.2938
  118SOPE  H15Y12512   1.947   0.457   6.224  4.0221  1.3880  1.4134
  118SOPE  C31612513   1.930   0.500   6.008  1.1571  0.6198 -0.0672
  118SOPE  H16X12514   1.870   0.407   6.000 -0.7659  1.8819 -1.1371
  118SOPE  H16Y12515   2.039   0.480   6.001  1.1385 -0.8075  2.3990
  118SOPE  C31712516   1.872   0.600   5.907 -0.2294  0.1389  0.0499
  118SOPE  H17X12517   1.918   0.700   5.920 -0.5553  0.1750  1.0453
  118SOPE  H17Y12518   1.761   0.607   5.912 -0.3369  0.1501 -1.7929
  118SOPE  C31812519   1.896   0.537   5.768  0.2153  0.1324 -0.0198
  118SOPE  H18X12520   1.825   0.452   5.753 -1.5589  1.1854  1.8606
  118SOPE  H18Y12521   2.001   0.501   5.770  0.2823  0.3012 -0.4431
  118SOPE  H18Z12522   1.883   0.614   5.689 -0.7075 -0.5540 -0.5507
  119SOPE     N12523   4.459   0.456   8.352 -0.1798 -0.1860 -0.0503
  119SOPE   HN112524   4.508   0.536   8.396 -2.1429 -0.1142  2.2360
  119SOPE   HN212525   4.370   0.498   8.319 -0.6756  0.2392  1.7089
  119SOPE   HN312526   4.442   0.386   8.428  0.6388  0.0538  0.3567
  119SOPE   C1212527   4.505   0.395   8.223 -0.4668  0.1032 -0.1854
  119SOPE  H12A12528   4.610   0.363   8.237  0.1747  1.7773 -0.8338
  119SOPE  H12B12529   4.517   0.475   8.147  1.2821 -0.8300 -0.9470
  119SOPE   C1112530   4.408   0.281   8.177 -0.5628 -0.2761  0.2499
  119SOPE  H11A12531   4.428   0.231   8.080 -1.0131  2.4163 -1.3347
  119SOPE  H11B12532   4.309   0.328   8.157  0.1919  2.7741  2.8047
  119SOPE     P12533   4.486   0.069   8.285  0.1408 -0.3067 -0.0615
  119SOPE   O1312534   4.418  -0.056   8.331  0.4480 -0.5865 -0.6051
  119SOPE   O1412535   4.606   0.111   8.367  0.3477  0.7571  0.9987
  119SOPE   O1212536   4.383   0.186   8.278  0.5579 -0.6907 -0.0923
  119SOPE   O1112537   4.539   0.051   8.138 -0.6640  0.2306  0.2102
  119SOPE    C112538   4.480  -0.058   8.070 -0.0830  0.2048  0.2932
  119SOPE    HA12539   4.374  -0.029   8.056 -0.0377  1.9259  2.9236
  119SOPE    HB12540   4.489  -0.151   8.129 -3.0460  0.9955  2.2156
  119SOPE    C212541   4.533  -0.066   7.925 -0.4327 -0.8616  0.4098
  119SOPE    HS12542   4.461  -0.131   7.870 -0.2965  0.7338 -1.7720
  119SOPE   O2112543   4.663  -0.121   7.923 -0.0401 -0.8733  0.4882
  119SOPE   C2112544   4.673  -0.246   7.949 -0.1270  0.1206  0.5687
  119SOPE   O2212545   4.593  -0.319   8.006  0.0167 -0.1514  0.6795
  119SOPE   C2212546   4.800  -0.288   7.877  0.2096 -0.1079 -0.0547
  119SOPE   H2R12547   4.863  -0.344   7.949 -0.9343 -3.5360 -1.5371
  119SOPE   H2S12548   4.857  -0.197   7.849  0.1880 -0.1756 -0.3150
  119SOPE    C312549   4.532   0.071   7.848  0.2084  0.4345 -0.4227
  119SOPE    HX12550   4.594   0.143   7.904  0.8294  0.7397 -1.4817
  119SOPE    HY12551   4.426   0.105   7.850  0.2370  0.5260 -0.5004
  119SOPE   O3112552   4.580   0.041   7.710 -0.4443 -0.4971 -1.0169
  119SOPE   C3112553   4.483   0.015   7.627  0.0926 -0.1503  0.6572
  119SOPE   O3212554   4.368  -0.013   7.660  0.0891 -0.0666 -0.2468
  119SOPE   C3212555   4.541   0.019   7.484  0.5438  0.8895 -0.1892
  119SOPE   H2X12556   4.626  -0.052   7.485  0.7267  1.1096 -0.0957
  119SOPE   H2Y12557   4.568   0.124   7.459 -1.3123  1.7929  1.3363
  119SOPE   C2312558   4.774  -0.401   7.767 -0.6317 -0.4377  0.6417
  119SOPE   H3R12559   4.712  -0.478   7.817 -2.7692  1.7288  1.5867
  119SOPE   H3S12560   4.869  -0.432   7.719  0.5670  1.6648  1.5004
  119SOPE   C2412561   4.671  -0.340   7.663 -0.2913  0.9087  0.1654
  119SOPE   H4R12562   4.582  -0.307   7.722 -0.0183  0.5929  0.7674
  119SOPE   H4S12563   4.723  -0.250   7.626 -1.1648  0.4864 -2.2895
  119SOPE   C2512564   4.631  -0.437   7.562  0.1375 -0.1511  0.2662
  119SOPE   H5R12565   4.592  -0.534   7.599 -0.9284  0.3455  0.4981
  119SOPE   H5S12566   4.536  -0.390   7.527 -1.0631 -2.3448  0.4087
  119SOPE   C2612567   4.722  -0.455   7.436 -0.0054 -0.1270  0.0100
  119SOPE   H6R12568   4.792  -0.369   7.436  1.1782 -1.0470 -0.7952
  119SOPE   H6S12569   4.773  -0.551   7.460  1.6731  0.5778 -0.5927
  119SOPE   C2712570   4.665  -0.444   7.292 -0.6256  0.8792 -0.8843
  119SOPE   H7R12571   4.630  -0.339   7.287 -0.9315  0.7477 -1.6401
  119SOPE   H7S12572   4.748  -0.458   7.218 -0.5167  1.1171 -0.8068
  119SOPE   C2812573   4.539  -0.534   7.270 -0.1346 -0.0556 -0.1327
  119SOPE   H8R12574   4.460  -0.507   7.343 -1.6719 -3.8561 -0.1364
  119SOPE   H8S12575   4.496  -0.516   7.170 -0.8409  0.4369  0.2565
  119SOPE   C2912576   4.565  -0.674   7.303  0.3743 -0.3117  0.3103
  119SOPE   H9112577   4.556  -0.695   7.411 -0.3607 -3.5947 -0.2724
  119SOPE  C21012578   4.594  -0.782   7.228  0.3928  0.3107  0.4490
  119SOPE  H10112579   4.630  -0.871   7.281  0.4529  0.1714  0.1786
  119SOPE  C21112580   4.617  -0.779   7.079 -0.5607  0.2590 -0.1322
  119SOPE  H11R12581   4.712  -0.827   7.046 -0.9575 -2.2004  1.9996
  119SOPE  H11S12582   4.608  -0.675   7.042 -0.2368  0.1063 -0.6570
  119SOPE  C21212583   4.512  -0.866   7.010  1.3559 -0.2792  0.1804
  119SOPE  H12R12584   4.412  -0.832   7.045  0.2856 -0.2042 -2.6931
  119SOPE  H12S12585   4.517  -0.975   7.028 -1.8136 -0.8912 -1.8133
  119SOPE  C21312586   4.524  -0.839   6.863 -0.0529  0.4550  0.3504
  119SOPE  H13R12587   4.618  -0.889   6.830 -0.8269 -0.5425 -0.4065
  119SOPE  H13S12588   4.538  -0.731   6.838  0.7044 -0.1513 -2.0951
  119SOPE  C21412589   4.409  -0.885   6.777  0.2179 -0.7158  0.8404
  119SOPE  H14R12590   4.314  -0.842   6.816  0.1301  1.7461 -1.7727
  119SOPE  H14S12591   4.410  -0.996   6.783  0.0893 -0.6947  1.3517
  119SOPE  C21512592   4.408  -0.842   6.626  0.1502 -0.5184  0.2709
  119SOPE  H15R12593   4.373  -0.737   6.623  2.0625  0.1772  1.1740
  119SOPE  H15S12594   4.330  -0.898   6.568 -0.6880  2.3659 -1.5842
  119SOPE  C21612595   4.549  -0.847   6.562  0.4484  0.1254  0.0213
  119SOPE  H16R12596   4.598  -0.947   6.561  0.4755  0.1321  0.6214
  119SOPE  H16S12597   4.612  -0.770   6.611 -0.5844  0.9743  0.0501
  119SOPE  C21712598   4.546  -0.816   6.409 -0.2134  0.4892 -0.0076
  119SOPE  H17R12599   4.652  -0.817   6.377 -0.3082 -2.0395 -0.4592
  119SOPE  H17S12600   4.496  -0.717   6.401 -2.2961 -0.2789  2.2435
  119SOPE  C21812601   4.472  -0.914   6.315 -0.0601  0.3880  0.0729
  119SOPE  H18R12602   4.458  -0.891   6.207 -2.1997 -0.9775  0.0129
  119SOPE  H18S12603   4.368  -0.932   6.348 -0.4417 -1.1543 -1.7786
  119SOPE  H18T12604   4.505  -1.020   6.324 -1.2107  0.0452  0.4361
  119SOPE   C3312605   4.436  -0.043   7.384  0.3846 -0.9473  0.2170
  119SOPE   H3X12606   4.340   0.009   7.401  0.3974 -1.2106  1.1183
  119SOPE   H3Y12607   4.420  -0.149   7.414 -0.8240 -1.2927 -1.5311
  119SOPE   C3412608   4.469  -0.048   7.237 -1.0042  0.2957  0.3985
  119SOPE   H4X12609   4.565  -0.101   7.222 -0.0253  2.1905 -0.3714
  119SOPE   H4Y12610   4.488   0.054   7.198  1.2789  0.1247  0.9229
  119SOPE   C3512611   4.362  -0.122   7.160  0.4629  0.7579 -0.1209
  119SOPE   H5X12612   4.269  -0.062   7.159 -0.3338 -0.3699  1.3222
  119SOPE   H5Y12613   4.346  -0.223   7.205 -0.5212  0.6452 -0.6913
  119SOPE   C3612614   4.390  -0.138   7.006 -0.2125 -0.1102 -0.3267
  119SOPE   H6X12615   4.484  -0.197   7.005 -0.2360 -0.2237  1.2830
  119SOPE   H6Y12616   4.403  -0.036   6.964  2.0068 -1.0218 -2.0302
  119SOPE   C3712617   4.280  -0.220   6.940 -0.3092 -0.4177  0.1994
  119SOPE   H7X12618   4.181  -0.179   6.971 -0.8439  0.7207 -2.6498
  119SOPE   H7Y12619   4.290  -0.325   6.973 -0.1939 -0.2792  0.6115
  119SOPE   C3812620   4.279  -0.214   6.788 -0.4972 -0.2566  0.2739
  119SOPE   H8X12621   4.277  -0.105   6.762  1.3383  0.2249  1.9189
  119SOPE   H8Y12622   4.193  -0.263   6.737 -0.3113  0.0697 -0.3746
  119SOPE   C3912623   4.408  -0.277   6.731  0.4135  0.6244  0.6059
  119SOPE   H9X12624   4.431  -0.379   6.768  1.0858  0.2787 -0.7086
  119SOPE   H9Y12625   4.485  -0.207   6.772 -1.6838  3.8867 -0.5916
  119SOPE  C31012626   4.430  -0.277   6.578  0.3736  0.5739  0.1285
  119SOPE  H10X12627   4.432  -0.180   6.524  1.8986  0.3404 -0.2760
  119SOPE  H10Y12628   4.340  -0.331   6.540  0.7020  0.4012 -0.4187
  119SOPE  C31112629   4.551  -0.362   6.533  0.0833  0.6623  0.2342
  119SOPE  H11X12630   4.558  -0.452   6.598  3.0812 -0.5303 -1.5714
  119SOPE  H11Y12631   4.647  -0.310   6.552 -0.1742  1.7468 -1.3322
  119SOPE  C31212632   4.536  -0.415   6.392  0.7315 -1.3854  0.5179
  119SOPE  H12X12633   4.507  -0.321   6.339 -0.4133 -0.4490  2.6568
  119SOPE  H12Y12634   4.459  -0.494   6.380 -0.6999  0.1930 -1.4960
  119SOPE  C31312635   4.665  -0.464   6.337 -0.7574 -0.0086 -0.4079
  119SOPE  H13X12636   4.642  -0.529   6.249  0.1028 -2.7325  1.2573
  119SOPE  H13Y12637   4.716  -0.535   6.406  0.5923 -0.9545 -2.2821
  119SOPE  C31412638   4.757  -0.343   6.305  0.5317  0.0807  0.2562
  119SOPE  H14X12639   4.767  -0.267   6.385 -0.2895  1.3869 -0.8289
  119SOPE  H14Y12640   4.703  -0.287   6.225 -0.2614 -1.5985 -0.4363
  119SOPE  C31512641   4.899  -0.391   6.257  0.1460  0.3306 -0.2605
  119SOPE  H15X12642   4.936  -0.455   6.340 -2.2519 -0.9665 -0.1043
  119SOPE  H15Y12643   4.971  -0.307   6.247  0.8476 -0.1546  0.5765
  119SOPE  C31612644   4.877  -0.459   6.123  0.2013 -0.0011 -0.2038
  119SOPE  H16X12645   4.812  -0.398   6.057 -0.7412 -0.1541  0.5508
  119SOPE  H16Y12646   4.820  -0.555   6.124 -0.9883  0.6874  0.0460
  119SOPE  C31712647   5.011  -0.495   6.064 -1.0504 -0.1456 -0.3027
  119SOPE  H17X12648   5.049  -0.560   6.146  1.6453  0.5500 -0.8976
  119SOPE  H17Y12649   5.087  -0.415   6.055 -1.2777  0.0480 -0.5233
  119SOPE  C31812650   4.991  -0.592   5.942 -0.3360  0.5646 -0.5750
  119SOPE  H18X12651   4.907  -0.660   5.968  0.5824 -0.1999  0.5018
  119SOPE  H18Y12652   5.084  -0.650   5.929 -0.2600  0.8218 -1.2301
  119SOPE  H18Z12653   4.975  -0.541   5.844  0.8149  0.0754 -1.0301
  120SOPE     N12654   5.289   2.444   8.617 -0.6953  0.1736  0.0741
  120SOPE   HN112655   5.286   2.394   8.708  1.7387 -0.8417 -0.3314
  120SOPE   HN212656   5.354   2.524   8.629  1.8985 -1.1410 -3.4617
  120SOPE   HN312657   5.199   2.491   8.595 -1.0948 -0.8645 -0.6361
  120SOPE   C1212658   5.310   2.356   8.499 -0.3651 -1.3897 -0.7029
  120SOPE  H12A12659   5.391   2.287   8.533 -0.4053 -0.6963  0.9190
  120SOPE  H12B12660   5.341   2.418   8.412  1.1083 -0.7391  0.2466
  120SOPE   C1112661   5.183   2.272   8.482  0.8996  0.9443  0.5342
  120SOPE  H11A12662   5.220   2.208   8.399  0.3495  0.3854  0.7118
  120SOPE  H11B12663   5.090   2.323   8.451 -0.8302 -2.4887 -0.4594
  120SOPE     P12664   5.017   2.163   8.654  0.1788 -0.4177 -0.3375
  120SOPE   O1312665   4.960   2.289   8.696 -0.5506 -0.6565 -0.5197
  120SOPE   O1412666   5.021   2.050   8.751  0.0926  0.1288  0.5279
  120SOPE   O1212667   5.161   2.199   8.604  0.0274  0.5629 -0.4348
  120SOPE   O1112668   4.935   2.110   8.536 -0.5458  0.2665  0.0877
  120SOPE    C112669   4.794   2.110   8.553  0.1433 -0.0472  0.0403
  120SOPE    HA12670   4.754   2.210   8.582 -1.7371 -1.2198  1.8411
  120SOPE    HB12671   4.752   2.038   8.627  0.6833 -1.5194 -1.0571
  120SOPE    C212672   4.726   2.075   8.420 -0.2943 -0.4270 -0.2658
  120SOPE    HS12673   4.777   1.984   8.383 -1.3457 -1.2964  0.3491
  120SOPE   O2112674   4.753   2.181   8.321  0.2411  0.1553  0.3299
  120SOPE   C2112675   4.867   2.179   8.251 -0.0306  0.7315 -0.6872
  120SOPE   O2212676   4.949   2.091   8.247 -0.0827 -0.0940 -0.3090
  120SOPE   C2212677   4.888   2.311   8.177  0.1631 -0.1297 -0.1342
  120SOPE   H2R12678   4.910   2.392   8.249  0.7249 -0.6581  0.3056
  120SOPE   H2S12679   4.792   2.346   8.134 -0.6455  1.1708  2.5234
  120SOPE    C312680   4.572   2.040   8.434 -0.2663  0.2304 -0.1292
  120SOPE    HX12681   4.521   2.118   8.494 -0.0134  0.4192 -0.1584
  120SOPE    HY12682   4.556   1.943   8.485 -2.0006 -0.0899 -1.1992
  120SOPE   O3112683   4.502   2.022   8.311 -0.1825  0.5723  0.0351
  120SOPE   C3112684   4.447   2.126   8.256  0.8760 -0.0679 -0.3790
  120SOPE   O3212685   4.463   2.245   8.270 -0.1533  0.1369 -0.2216
  120SOPE   C3212686   4.349   2.068   8.146 -0.3382 -0.5052  0.8154
  120SOPE   H2X12687   4.270   2.000   8.186 -2.0755  0.4084 -0.8976
  120SOPE   H2Y12688   4.424   2.013   8.085 -1.9058  0.1336 -1.8451
  120SOPE   C2312689   5.005   2.326   8.068  0.4354  0.0227 -0.4042
  120SOPE   H3R12690   5.015   2.233   8.007 -0.3865  1.0001 -2.0859
  120SOPE   H3S12691   5.102   2.348   8.118 -0.0312 -2.4791  1.8919
  120SOPE   C2412692   4.957   2.421   7.956 -0.0405  0.2693  0.7259
  120SOPE   H4R12693   4.848   2.417   7.933 -0.2018  1.3150  1.2692
  120SOPE   H4S12694   4.979   2.518   8.005 -0.6385 -0.6581  2.9992
  120SOPE   C2512695   5.050   2.399   7.837  0.1427 -0.0373 -0.0828
  120SOPE   H5R12696   5.151   2.412   7.880  0.3468 -1.3738 -0.1397
  120SOPE   H5S12697   5.051   2.297   7.794  1.0145  0.1611 -0.5528
  120SOPE   C2612698   5.024   2.498   7.717 -0.2576  0.6099 -0.1194
  120SOPE   H6R12699   4.918   2.487   7.687  0.6783 -0.0296 -3.5575
  120SOPE   H6S12700   5.049   2.597   7.762  0.0473 -0.4251  2.1545
  120SOPE   C2712701   5.115   2.461   7.601  0.1025  0.0446  0.9382
  120SOPE   H7R12702   5.218   2.473   7.639 -0.4033  2.3154  1.7740
  120SOPE   H7S12703   5.091   2.356   7.577 -1.4691  0.5164  0.2964
  120SOPE   C2812704   5.099   2.551   7.473 -0.1854  0.0259  0.0170
  120SOPE   H8R12705   5.132   2.651   7.509  0.4710 -0.0224 -0.4260
  120SOPE   H8S12706   5.180   2.526   7.401  3.5443  2.2899  3.0751
  120SOPE   C2912707   4.967   2.570   7.401 -0.1177 -0.0651 -0.8914
  120SOPE   H9112708   4.879   2.558   7.465  1.8476  0.3658  2.1382
  120SOPE  C21012709   4.946   2.605   7.272  0.3210  0.1595 -0.1695
  120SOPE  H10112710   4.845   2.639   7.246  0.3353  3.0583  2.8190
  120SOPE  C21112711   5.043   2.634   7.162 -0.0085  0.3300 -0.0476
  120SOPE  H11R12712   5.117   2.551   7.154 -0.5016 -0.0785 -0.3989
  120SOPE  H11S12713   5.110   2.717   7.195  2.4575 -2.1989  1.8206
  120SOPE  C21212714   4.992   2.668   7.019 -0.1150  0.2328 -0.1049
  120SOPE  H12R12715   5.087   2.692   6.967  0.6088  1.9812  1.8841
  120SOPE  H12S12716   4.942   2.767   7.012  0.4249  0.4321 -1.2782
  120SOPE  C21312717   4.906   2.559   6.950  0.6165 -0.1124  0.1252
  120SOPE  H13R12718   4.920   2.454   6.985  0.7211  0.6916  2.6657
  120SOPE  H13S12719   4.919   2.570   6.840  0.6779 -0.2246  0.1208
  120SOPE  C21412720   4.758   2.583   6.981  0.2946 -0.2433 -0.1959
  120SOPE  H14R12721   4.746   2.692   6.962  0.0566 -0.4848 -1.5477
  120SOPE  H14S12722   4.735   2.564   7.088  0.8954 -1.2681 -0.2292
  120SOPE  C21512723   4.663   2.518   6.873 -0.3805 -0.6869 -0.0564
  120SOPE  H15R12724   4.705   2.556   6.777  1.4466  2.3184  1.7892
  120SOPE  H15S12725   4.564   2.562   6.897  0.7247  1.7730  0.2580
  120SOPE  C21612726   4.643   2.364   6.883 -0.3220 -0.6523  0.1306
  120SOPE  H16R12727   4.743   2.319   6.864 -0.8644 -0.5806 -3.4953
  120SOPE  H16S12728   4.576   2.338   6.799  0.9841 -0.4918 -0.9951
  120SOPE  C21712729   4.589   2.310   7.014 -0.1958  0.0770  0.1237
  120SOPE  H17R12730   4.648   2.350   7.100 -0.6713  2.3866 -0.5647
  120SOPE  H17S12731   4.596   2.199   7.022 -1.7541 -0.0682 -0.2268
  120SOPE  C21812732   4.448   2.351   7.042 -0.3173  0.5692  0.0273
  120SOPE  H18R12733   4.370   2.294   6.988  0.4240 -0.3164 -0.1238
  120SOPE  H18S12734   4.436   2.462   7.033  2.9713  0.8900 -3.0277
  120SOPE  H18T12735   4.425   2.336   7.149 -0.3465  1.6316  0.1865
  120SOPE   C3312736   4.281   2.173   8.057 -0.8763  0.7632 -0.7535
  120SOPE   H3X12737   4.357   2.251   8.035 -0.4010  0.6517  0.4221
  120SOPE   H3Y12738   4.193   2.217   8.110  0.7063  0.1346  2.6998
  120SOPE   C3412739   4.235   2.119   7.919 -0.2367  0.7072  0.3959
  120SOPE   H4X12740   4.158   2.039   7.919 -0.1155  0.5881  0.8758
  120SOPE   H4Y12741   4.323   2.074   7.869  0.4135  1.5655  0.7331
  120SOPE   C3512742   4.199   2.240   7.830  0.1798 -0.3223 -0.0278
  120SOPE   H5X12743   4.281   2.315   7.827  1.0126 -1.2506 -1.3879
  120SOPE   H5Y12744   4.106   2.291   7.865  1.0454  0.4931  1.1634
  120SOPE   C3612745   4.181   2.196   7.676 -0.2112 -0.1240 -0.8568
  120SOPE   H6X12746   4.109   2.111   7.671 -0.6381 -0.2673  3.6917
  120SOPE   H6Y12747   4.282   2.154   7.654  0.2996  1.0911 -0.8766
  120SOPE   C3712748   4.150   2.312   7.581 -0.2201 -0.0799  0.2647
  120SOPE   H7X12749   4.230   2.388   7.589 -0.6715  0.3993  0.2995
  120SOPE   H7Y12750   4.048   2.347   7.610  0.0898  0.9986  0.0993
  120SOPE   C3812751   4.147   2.275   7.430 -0.0634  0.3527  0.4735
  120SOPE   H8X12752   4.051   2.232   7.395  1.0490 -0.0713 -2.3329
  120SOPE   H8Y12753   4.228   2.205   7.402  0.6203  0.5609  1.8564
  120SOPE   C3912754   4.140   2.408   7.350 -0.3313 -0.0000  0.2030
  120SOPE   H9X12755   4.238   2.452   7.379 -1.0393  1.4555  0.4728
  120SOPE   H9Y12756   4.059   2.482   7.370 -0.0739  1.1247 -2.5137
  120SOPE  C31012757   4.134   2.384   7.199  0.7743 -0.2534  0.0721
  120SOPE  H10X12758   4.034   2.344   7.170  0.6879 -1.5213  1.9630
  120SOPE  H10Y12759   4.212   2.316   7.159  0.7609 -1.1167  1.4470
  120SOPE  C31112760   4.151   2.524   7.128  0.0587  0.3527 -0.8413
  120SOPE  H11X12761   4.252   2.564   7.149  0.6633 -1.8587  0.8115
  120SOPE  H11Y12762   4.079   2.593   7.176  1.6257  1.0316  0.6292
  120SOPE  C31212763   4.129   2.515   6.979  0.2839  0.0533 -0.0796
  120SOPE  H12X12764   4.184   2.431   6.932  0.8044 -0.2421  1.0254
  120SOPE  H12Y12765   4.180   2.607   6.944  0.8923  0.1077  0.9083
  120SOPE  C31312766   3.980   2.541   6.930  0.3697 -0.4634 -0.1791
  120SOPE  H13X12767   3.950   2.642   6.964 -0.8367 -0.4289 -1.2692
  120SOPE  H13Y12768   3.912   2.470   6.983 -0.7622  0.6623 -0.0766
  120SOPE  C31412769   3.965   2.509   6.786  0.2360 -0.3673  0.6768
  120SOPE  H14X12770   3.854   2.500   6.779 -0.1551  3.7718 -2.3695
  120SOPE  H14Y12771   4.016   2.414   6.760 -2.5979 -1.8373  0.0537
  120SOPE  C31512772   4.011   2.611   6.679  0.0011 -0.7379  0.5034
  120SOPE  H15X12773   4.121   2.617   6.672 -0.0504  2.4060  1.1364
  120SOPE  H15Y12774   3.967   2.712   6.694 -0.2021 -0.5609 -1.0695
  120SOPE  C31612775   3.958   2.577   6.532 -0.3550  0.6019 -0.3488
  120SOPE  H16X12776   3.992   2.657   6.464  1.7014 -0.9374 -1.2352
  120SOPE  H16Y12777   3.847   2.583   6.531 -0.3126  1.4109 -0.7681
  120SOPE  C31712778   3.998   2.434   6.491  0.2138 -0.9743  0.8091
  120SOPE  H17X12779   3.958   2.420   6.389  0.8272  1.6295  0.1278
  120SOPE  H17Y12780   3.945   2.362   6.557  0.8507  0.1174  2.5809
  120SOPE  C31812781   4.150   2.402   6.491 -1.0435 -0.0479  0.4500
  120SOPE  H18X12782   4.175   2.303   6.447 -1.2652  0.5661 -1.1237
  120SOPE  H18Y12783   4.194   2.400   6.593 -1.5126 -0.4733  0.6452
  120SOPE  H18Z12784   4.201   2.472   6.422  0.4014  0.4778  1.9922
  121SOPE     N12785   4.157   1.003   8.286  0.3521  0.0097  0.1916
  121SOPE   HN112786   4.172   1.092   8.338  0.9956  0.6880 -1.1081
  121SOPE   HN212787   4.244   0.947   8.297 -2.0523 -3.9108  1.1517
  121SOPE   HN312788   4.146   1.002   8.183 -0.3685 -0.3473  0.2671
  121SOPE   C1212789   4.038   0.931   8.344 -0.1014  0.1350  0.9757
  121SOPE  H12A12790   3.953   1.002   8.357 -1.6560 -1.5392  0.4571
  121SOPE  H12B12791   4.059   0.890   8.445 -1.0257 -1.4083  0.5744
  121SOPE   C1112792   3.989   0.816   8.248 -0.4253  0.0688 -0.1546
  121SOPE  H11A12793   3.961   0.867   8.154  1.0383 -0.2044 -0.7671
  121SOPE  H11B12794   3.892   0.774   8.284 -1.0064  0.7604 -0.8878
  121SOPE     P12795   4.089   0.579   8.298  0.2259  0.2205 -0.3638
  121SOPE   O1312796   4.028   0.589   8.430 -0.0017 -0.0258 -0.0929
  121SOPE   O1412797   4.218   0.508   8.285 -0.1302  0.6029  0.4685
  121SOPE   O1212798   4.092   0.716   8.227  0.3421  0.3805  0.1098
  121SOPE   O1112799   3.981   0.506   8.203 -0.1726  0.0054  0.4293
  121SOPE    C112800   4.028   0.441   8.086  0.1975  0.1388 -0.3397
  121SOPE    HA12801   3.951   0.372   8.047 -0.7555  1.4557 -0.8893
  121SOPE    HB12802   4.115   0.380   8.116  1.2897  3.1090  3.3648
  121SOPE    C212803   4.063   0.530   7.967  0.1231 -0.5376  0.7257
  121SOPE    HS12804   4.131   0.607   8.010  0.0938  0.2050 -0.4963
  121SOPE   O2112805   3.954   0.590   7.894  0.4950  0.5425  0.5674
  121SOPE   C2112806   3.991   0.705   7.840  0.1805 -0.3813  0.2725
  121SOPE   O2212807   4.087   0.774   7.858 -0.4291 -0.3430  0.3087
  121SOPE   C2212808   3.877   0.756   7.753  0.5278  0.2093 -0.5102
  121SOPE   H2R12809   3.785   0.777   7.811  1.5927 -1.2549  1.8091
  121SOPE   H2S12810   3.850   0.668   7.691 -0.1371  0.0144  0.0546
  121SOPE    C312811   4.153   0.451   7.864  0.6787 -0.5344 -0.0730
  121SOPE    HX12812   4.234   0.406   7.925  0.2162 -1.2860 -0.0024
  121SOPE    HY12813   4.201   0.520   7.792 -1.4704  2.7079  1.3914
  121SOPE   O3112814   4.086   0.341   7.800  0.3178 -0.3975 -0.0075
  121SOPE   C3112815   4.030   0.378   7.685 -0.2103  1.0380  0.2225
  121SOPE   O3212816   4.071   0.470   7.620 -0.2879 -0.2117  0.3988
  121SOPE   C3212817   3.920   0.276   7.646 -0.0159 -0.3401  0.2777
  121SOPE   H2X12818   3.824   0.327   7.622 -1.5179 -2.7707  0.8494
  121SOPE   H2Y12819   3.906   0.212   7.735 -3.2078 -2.7644 -1.7430
  121SOPE   C2312820   3.922   0.870   7.660 -0.4333 -0.8283  0.2888
  121SOPE   H3R12821   3.969   0.952   7.720 -2.2479  0.9590 -0.6351
  121SOPE   H3S12822   3.836   0.909   7.602  1.6624  1.6275 -1.4068
  121SOPE   C2412823   4.014   0.831   7.547 -0.4652 -0.3661  0.4092
  121SOPE   H4R12824   4.116   0.808   7.584  0.6912  1.2391 -1.5884
  121SOPE   H4S12825   3.976   0.732   7.511  1.4702 -1.4778  1.2546
  121SOPE   C2512826   4.021   0.934   7.443 -0.4993 -0.0547 -0.8079
  121SOPE   H5R12827   3.922   0.967   7.407 -1.2477  0.0811  1.2863
  121SOPE   H5S12828   4.068   1.018   7.498 -0.1768 -0.0183 -1.1345
  121SOPE   C2612829   4.121   0.888   7.334  1.0199 -0.2052  0.7062
  121SOPE   H6R12830   4.222   0.890   7.379  1.5841  1.0008 -0.5411
  121SOPE   H6S12831   4.090   0.785   7.305 -0.1838  0.4614 -0.4890
  121SOPE   C2712832   4.108   0.987   7.217 -0.3099 -0.5394  0.2127
  121SOPE   H7R12833   4.001   0.974   7.191 -0.0524 -2.4228 -0.0336
  121SOPE   H7S12834   4.118   1.091   7.255 -1.0187 -0.5657  0.4795
  121SOPE   C2812835   4.200   0.950   7.093 -0.4903 -0.5054 -0.0213
  121SOPE   H8R12836   4.302   0.973   7.132 -0.7769  0.6968  0.0596
  121SOPE   H8S12837   4.198   0.839   7.090  2.6271 -0.7257  1.7674
  121SOPE   C2912838   4.181   1.020   6.967 -0.7465 -0.3454  0.1340
  121SOPE   H9112839   4.271   1.082   6.955 -0.5230 -0.0958  2.5199
  121SOPE  C21012840   4.074   1.019   6.891 -0.1374  0.5890 -0.1003
  121SOPE  H10112841   4.073   1.083   6.801 -0.7016  0.3132 -0.2962
  121SOPE  C21112842   3.958   0.922   6.900  1.0754 -0.9020 -0.4152
  121SOPE  H11R12843   3.880   0.974   6.959  2.2403 -0.4472  0.7795
  121SOPE  H11S12844   3.983   0.830   6.957  0.8944 -0.2647  0.7236
  121SOPE  C21212845   3.904   0.875   6.764 -0.1220  0.1410  0.3121
  121SOPE  H12R12846   3.837   0.789   6.783  1.1689 -0.3722  2.9861
  121SOPE  H12S12847   3.983   0.839   6.695 -0.7871  1.1985 -1.0430
  121SOPE  C21312848   3.823   0.988   6.690 -0.1793 -0.4112 -0.7187
  121SOPE  H13R12849   3.882   1.081   6.686 -0.2568 -0.3734 -0.9758
  121SOPE  H13S12850   3.732   1.014   6.748  0.0727 -0.4412 -0.3053
  121SOPE  C21412851   3.779   0.956   6.550 -0.2726  0.3613 -0.1403
  121SOPE  H14R12852   3.683   1.008   6.532 -0.3360 -0.0918 -1.2095
  121SOPE  H14S12853   3.758   0.847   6.542 -0.0715  0.3192 -0.0993
  121SOPE  C21512854   3.887   0.980   6.444  0.3522  0.5959 -0.6646
  121SOPE  H15R12855   3.972   0.913   6.469  2.2746  3.7068  1.7075
  121SOPE  H15S12856   3.928   1.082   6.449  0.3555  0.5757 -0.1935
  121SOPE  C21612857   3.830   0.946   6.309 -0.4869 -0.4162 -0.9997
  121SOPE  H16R12858   3.765   1.030   6.276  1.8092  2.8086  1.8750
  121SOPE  H16S12859   3.772   0.852   6.320  0.4000 -0.6833  3.1472
  121SOPE  C21712860   3.938   0.928   6.201 -0.4302 -0.0389  0.6801
  121SOPE  H17R12861   4.005   0.846   6.236 -1.4442 -1.5711 -0.7855
  121SOPE  H17S12862   3.992   1.024   6.192 -0.1525 -0.1586  1.0312
  121SOPE  C21812863   3.877   0.903   6.055 -0.4083 -0.2697 -0.0062
  121SOPE  H18R12864   3.970   0.909   5.994 -0.2522  0.0509  0.2635
  121SOPE  H18S12865   3.803   0.985   6.041  0.1899  0.2694 -0.0760
  121SOPE  H18T12866   3.831   0.803   6.043  1.4887 -1.0778 -0.9578
  121SOPE   C3312867   3.966   0.178   7.535 -0.7653  0.0438  0.1008
  121SOPE   H3X12868   3.909   0.082   7.537  1.0066 -1.0566  0.5802
  121SOPE   H3Y12869   4.074   0.163   7.558 -0.6019  1.4235  0.3086
  121SOPE   C3412870   3.949   0.229   7.395  0.5218  0.5858  0.3724
  121SOPE   H4X12871   3.994   0.330   7.381 -0.4662  1.1691  1.3000
  121SOPE   H4Y12872   3.840   0.249   7.393  0.4910  0.5054  1.0843
  121SOPE   C3512873   3.998   0.126   7.290  0.2478 -0.2954  0.4840
  121SOPE   H5X12874   3.968   0.025   7.324  2.7633 -0.7528  1.5870
  121SOPE   H5Y12875   4.108   0.130   7.303  0.1998  2.0901  0.5491
  121SOPE   C3612876   3.939   0.160   7.156  0.1889  0.1244  0.1060
  121SOPE   H6X12877   3.916   0.268   7.145 -1.1021 -0.2357 -1.0119
  121SOPE   H6Y12878   3.848   0.109   7.118  1.1826  0.5552 -3.1998
  121SOPE   C3712879   4.047   0.140   7.047 -0.3538 -0.2354  0.1258
  121SOPE   H7X12880   4.071   0.031   7.044 -1.4611 -0.4820  0.0112
  121SOPE   H7Y12881   4.149   0.176   7.073 -0.9871  0.6181  1.4791
  121SOPE   C3812882   4.001   0.194   6.908  0.7239  0.6309 -0.6524
  121SOPE   H8X12883   4.079   0.168   6.833  2.4973  0.2111  1.2534
  121SOPE   H8Y12884   3.985   0.304   6.918  0.2471  0.4681  0.5177
  121SOPE   C3912885   3.865   0.130   6.863 -0.6423 -0.6541  0.0925
  121SOPE   H9X12886   3.782   0.192   6.901  0.8034  2.9005 -2.0389
  121SOPE   H9Y12887   3.862   0.022   6.889 -1.4876  0.0465  3.2458
  121SOPE  C31012888   3.838   0.129   6.714  0.0854  1.3131  0.4960
  121SOPE  H10X12889   3.927   0.081   6.667  0.6127  1.5410  1.2462
  121SOPE  H10Y12890   3.829   0.228   6.664 -3.0032 -0.9234 -4.1321
  121SOPE  C31112891   3.712   0.049   6.665 -0.4252 -0.3158  0.5138
  121SOPE  H11X12892   3.624   0.100   6.711  0.1540 -0.8018  2.2359
  121SOPE  H11Y12893   3.708  -0.049   6.718 -0.3659 -0.7902 -0.3411
  121SOPE  C31212894   3.703   0.041   6.514 -0.1531 -0.2545  0.4267
  121SOPE  H12X12895   3.773  -0.027   6.461  0.5627  0.6594  0.1895
  121SOPE  H12Y12896   3.707   0.143   6.471 -1.0853  0.0257  0.9676
  121SOPE  C31312897   3.555  -0.009   6.481  0.1717 -0.7184 -0.0842
  121SOPE  H13X12898   3.478   0.040   6.543 -0.0373  1.2611 -1.8093
  121SOPE  H13Y12899   3.557  -0.116   6.513  0.5397 -0.9483 -0.8395
  121SOPE  C31412900   3.517   0.013   6.333  1.4356  0.2803  0.1620
  121SOPE  H14X12901   3.584  -0.053   6.275  0.0273 -1.5043  0.4629
  121SOPE  H14Y12902   3.551   0.115   6.307  1.2559  0.0159 -1.1635
  121SOPE  C31512903   3.371   0.004   6.290  0.8776  0.1919  0.1192
  121SOPE  H15X12904   3.313   0.072   6.356 -0.3446  0.3661 -1.0868
  121SOPE  H15Y12905   3.337  -0.099   6.314 -0.7125  0.5866 -0.3459
  121SOPE  C31612906   3.342   0.029   6.139  0.5638  0.8276  0.8892
  121SOPE  H16X12907   3.236   0.065   6.140 -0.7928 -2.7678  1.3078
  121SOPE  H16Y12908   3.336  -0.061   6.073 -1.9294 -0.0399  2.1585
  121SOPE  C31712909   3.423   0.136   6.073  0.5183  0.1439  0.4036
  121SOPE  H17X12910   3.528   0.100   6.072  0.2446 -0.6788  0.2039
  121SOPE  H17Y12911   3.420   0.235   6.123 -0.2268  1.1192 -1.4554
  121SOPE  C31812912   3.380   0.171   5.928  0.4811  0.3824  0.4678
  121SOPE  H18X12913   3.456   0.229   5.871  0.0788 -0.4809 -0.9959
  121SOPE  H18Y12914   3.282   0.224   5.919 -1.7812 -3.4212  0.3857
  121SOPE  H18Z12915   3.362   0.071   5.885  0.7225  0.8685 -0.8124
  122SOPE     N12916   2.852   1.083   8.737 -0.3481 -0.1192 -0.5150
  122SOPE   HN112917   2.823   1.178   8.770 -0.7558 -0.2993 -0.3510
  122SOPE   HN212918   2.827   1.072   8.637  3.1928 -0.6443 -1.4705
  122SOPE   HN312919   2.800   1.013   8.794 -1.0596  0.0277 -0.9633
  122SOPE   C1212920   3.001   1.072   8.739  0.2989 -0.1771 -0.0260
  122SOPE  H12A12921   3.038   1.074   8.844 -0.4229  2.0007  0.2383
  122SOPE  H12B12922   3.053   1.151   8.681  0.6526 -0.0893  0.4113
  122SOPE   C1112923   3.051   0.927   8.692 -0.0549  0.9202  0.4607
  122SOPE  H11A12924   3.158   0.920   8.718  0.2083  0.9537 -0.5480
  122SOPE  H11B12925   3.042   0.933   8.581  2.1769 -1.1273  0.0934
  122SOPE     P12926   2.997   0.677   8.656 -0.2701 -0.1528 -0.0237
  122SOPE   O1312927   2.894   0.582   8.701 -0.7190 -0.5412  0.3443
  122SOPE   O1412928   3.142   0.650   8.674 -0.7411  0.2392 -0.3839
  122SOPE   O1212929   2.972   0.816   8.729  0.4057 -0.3212  0.6112
  122SOPE   O1112930   2.981   0.714   8.509  0.2140  0.7818  0.2316
  122SOPE    C112931   3.033   0.628   8.405  0.0651  0.2299 -0.3215
  122SOPE    HA12932   2.997   0.523   8.414  1.1152 -0.2865 -1.7288
  122SOPE    HB12933   3.142   0.610   8.422 -0.2739 -0.6558  1.0424
  122SOPE    C212934   3.012   0.695   8.273 -0.0945 -0.0201  0.2714
  122SOPE    HS12935   3.001   0.803   8.296 -0.9759 -0.0862  0.2014
  122SOPE   O2112936   2.893   0.633   8.218 -0.5306  0.5307 -0.0600
  122SOPE   C2112937   2.816   0.724   8.155  0.5017 -0.4121  0.6198
  122SOPE   O2212938   2.827   0.849   8.154  0.3661  0.1904 -0.5909
  122SOPE   C2212939   2.719   0.641   8.065 -0.3789 -0.3921  0.1078
  122SOPE   H2R12940   2.613   0.677   8.070 -0.6763 -1.3547  1.3613
  122SOPE   H2S12941   2.719   0.534   8.094  0.3180 -0.9024 -1.6392
  122SOPE    C312942   3.134   0.669   8.179  0.3087  0.3869 -0.5935
  122SOPE    HX12943   3.127   0.559   8.165 -0.2830  0.5334 -1.5367
  122SOPE    HY12944   3.231   0.694   8.226  0.4308  1.1221 -1.2354
  122SOPE   O3112945   3.121   0.730   8.051 -0.4793  0.1434  0.1683
  122SOPE   C3112946   3.143   0.862   8.049  0.3735  0.8226  0.4577
  122SOPE   O3212947   3.164   0.932   8.146 -0.1097  0.8827 -0.4575
  122SOPE   C3212948   3.145   0.909   7.902  0.9113 -0.1346 -0.7850
  122SOPE   H2X12949   3.120   0.819   7.842 -1.7285  0.3549 -0.5370
  122SOPE   H2Y12950   3.252   0.938   7.890  1.5323 -1.8530  0.1285
  122SOPE   C2312951   2.746   0.649   7.913  0.5577 -0.1009 -0.3409
  122SOPE   H3R12952   2.689   0.568   7.863 -2.0544  1.1905  0.3475
  122SOPE   H3S12953   2.853   0.625   7.897  0.8008 -1.3201  2.4455
  122SOPE   C2412954   2.702   0.778   7.845  0.3776  0.7195  0.5427
  122SOPE   H4R12955   2.591   0.777   7.835  0.4554 -2.0695 -1.0534
  122SOPE   H4S12956   2.736   0.863   7.908 -0.6453  0.8712  0.9103
  122SOPE   C2512957   2.756   0.804   7.693 -0.0284  0.0059 -0.0328
  122SOPE   H5R12958   2.690   0.885   7.654 -1.5397 -2.1330 -2.3015
  122SOPE   H5S12959   2.863   0.833   7.684  0.1323 -0.1220  1.2576
  122SOPE   C2612960   2.732   0.678   7.606  0.7298  0.5672 -0.1173
  122SOPE   H6R12961   2.783   0.592   7.654  0.8365  0.3788 -0.5620
  122SOPE   H6S12962   2.628   0.639   7.612  0.8969  0.3082  1.5023
  122SOPE   C2712963   2.786   0.688   7.466  0.5871  0.9766  0.3517
  122SOPE   H7R12964   2.734   0.777   7.423 -1.3678  1.3413  3.2267
  122SOPE   H7S12965   2.896   0.704   7.465  0.8008 -0.3610  0.3991
  122SOPE   C2812966   2.757   0.568   7.368 -0.4570 -0.3189 -0.4491
  122SOPE   H8R12967   2.646   0.560   7.362 -0.5717  1.1002 -0.4452
  122SOPE   H8S12968   2.784   0.600   7.265 -0.1451  0.3563 -0.1598
  122SOPE   C2912969   2.841   0.451   7.414  0.7121 -0.1572 -0.3940
  122SOPE   H9112970   2.785   0.382   7.478  0.0521  1.2396  0.5867
  122SOPE  C21012971   2.961   0.419   7.368 -0.8807  0.5060  0.5126
  122SOPE  H10112972   3.010   0.331   7.412 -0.7201 -0.2083 -1.0346
  122SOPE  C21112973   3.048   0.505   7.279  0.3136 -0.6003 -0.0558
  122SOPE  H11R12974   3.139   0.538   7.333 -0.3915  0.7658  0.3605
  122SOPE  H11S12975   3.000   0.603   7.255  1.7164  0.0212 -0.4444
  122SOPE  C21212976   3.108   0.441   7.146  0.3782  0.3916  0.1934
  122SOPE  H12R12977   3.026   0.384   7.097  1.7321 -0.3591 -1.2897
  122SOPE  H12S12978   3.182   0.366   7.182  1.0077  1.1112  0.4363
  122SOPE  C21312979   3.174   0.548   7.051 -0.5395 -0.2222 -0.1271
  122SOPE  H13R12980   3.104   0.633   7.039 -0.7823 -0.6306 -2.0274
  122SOPE  H13S12981   3.196   0.511   6.948  0.9302 -0.8625  0.3854
  122SOPE  C21412982   3.304   0.608   7.108 -0.4307 -1.0733 -1.8309
  122SOPE  H14R12983   3.375   0.524   7.114  0.1796 -0.4914 -0.6644
  122SOPE  H14S12984   3.283   0.648   7.209 -0.1809 -0.0241 -2.1799
  122SOPE  C21512985   3.376   0.720   7.026  0.2768  0.0159  0.5700
  122SOPE  H15R12986   3.455   0.768   7.088  1.9750  0.9252 -2.0941
  122SOPE  H15S12987   3.298   0.795   7.000 -0.8698 -1.5393 -0.6177
  122SOPE  C21612988   3.431   0.675   6.895  0.3492  0.2045 -0.3939
  122SOPE  H16R12989   3.341   0.650   6.834 -0.0884 -0.7276  0.6004
  122SOPE  H16S12990   3.488   0.582   6.916  0.1228  0.0474 -0.4689
  122SOPE  C21712991   3.526   0.772   6.817 -0.1350 -0.8537  0.3471
  122SOPE  H17R12992   3.571   0.731   6.724  0.7245 -2.3729  1.3779
  122SOPE  H17S12993   3.610   0.779   6.890 -1.3691  2.2617  1.6474
  122SOPE  C21812994   3.468   0.911   6.798  0.0868 -0.8094  0.0828
  122SOPE  H18R12995   3.377   0.907   6.734 -0.3442  0.0810  0.6209
  122SOPE  H18S12996   3.533   0.983   6.743  0.2727  1.1351  2.6733
  122SOPE  H18T12997   3.440   0.962   6.893  1.7739 -1.8535  1.1852
  122SOPE   C3312998   3.053   1.030   7.868  0.2611 -0.0786 -0.1082
  122SOPE   H3X12999   3.027   1.093   7.956 -1.3659  1.0626 -1.3400
  122SOPE   H3Y13000   2.952   0.990   7.847  0.5497 -2.5656  2.5239
  122SOPE   C3413001   3.108   1.111   7.752 -0.3624  0.3805  0.0076
  122SOPE   H4X13002   3.212   1.150   7.761  0.5470 -1.7766 -0.2656
  122SOPE   H4Y13003   3.038   1.195   7.735  2.1242  1.8235 -5.2895
  122SOPE   C3513004   3.099   1.028   7.622 -0.5416  0.0890  0.7298
  122SOPE   H5X13005   2.999   0.981   7.615  0.1560 -1.2703 -0.6283
  122SOPE   H5Y13006   3.172   0.946   7.603 -0.7554  0.0926 -0.1104
  122SOPE   C3613007   3.109   1.109   7.488 -0.6341 -0.5738  0.0470
  122SOPE   H6X13008   3.209   1.157   7.474 -0.2621 -1.8111 -2.0271
  122SOPE   H6Y13009   3.018   1.172   7.486  1.4335  2.7894  1.5165
  122SOPE   C3713010   3.097   1.018   7.365  0.2520  0.3623 -0.4466
  122SOPE   H7X13011   2.997   0.971   7.358  0.6068 -0.1110 -3.0401
  122SOPE   H7Y13012   3.162   0.929   7.378 -1.0684 -0.8414 -1.7905
  122SOPE   C3813013   3.120   1.098   7.242 -0.8269  0.2276 -0.0594
  122SOPE   H8X13014   3.214   1.154   7.258  0.0108 -1.3248  0.7023
  122SOPE   H8Y13015   3.046   1.177   7.220 -0.3210  0.4796 -0.8865
  122SOPE   C3913016   3.131   1.015   7.117 -0.3346  0.2641 -0.1906
  122SOPE   H9X13017   3.028   1.000   7.078 -0.6132 -0.0512  0.6474
  122SOPE   H9Y13018   3.161   0.914   7.154 -1.6870 -0.0068  0.2308
  122SOPE  C31013019   3.221   1.057   7.001 -0.2900 -0.2862  0.3839
  122SOPE  H10X13020   3.228   0.978   6.924 -1.4820  1.4120 -1.5674
  122SOPE  H10Y13021   3.323   1.089   7.033  0.0292 -2.3161  1.5424
  122SOPE  C31113022   3.154   1.179   6.929  0.3259 -0.2258  0.2912
  122SOPE  H11X13023   3.149   1.261   7.004 -1.1349 -0.5469  0.5652
  122SOPE  H11Y13024   3.049   1.155   6.903 -0.9259  3.2994  1.5895
  122SOPE  C31213025   3.231   1.191   6.798 -0.3065 -0.0836 -0.1613
  122SOPE  H12X13026   3.217   1.098   6.739 -2.2267  2.2313 -3.7167
  122SOPE  H12Y13027   3.338   1.219   6.808  0.0761 -1.9187  1.4964
  122SOPE  C31313028   3.165   1.301   6.721  0.4345 -0.4284 -0.2323
  122SOPE  H13X13029   3.187   1.400   6.765  1.2793  0.0759 -1.7128
  122SOPE  H13Y13030   3.055   1.304   6.708  0.4483  4.2908 -0.8455
  122SOPE  C31413031   3.228   1.318   6.582 -0.4631  0.0950 -0.6077
  122SOPE  H14X13032   3.244   1.215   6.544  0.9637 -0.5642  1.5465
  122SOPE  H14Y13033   3.317   1.382   6.598 -1.5596  1.6482 -0.5957
  122SOPE  C31513034   3.124   1.397   6.494 -0.0229 -0.4711 -0.2513
  122SOPE  H15X13035   3.108   1.498   6.538  0.7818 -0.5598  0.2493
  122SOPE  H15Y13036   3.022   1.352   6.498  0.8118 -2.3640  2.9420
  122SOPE  C31613037   3.166   1.412   6.348 -0.2222 -0.1656 -0.1020
  122SOPE  H16X13038   3.274   1.435   6.335  0.1106 -1.7847 -0.4477
  122SOPE  H16Y13039   3.110   1.494   6.299 -0.8345  0.6902  1.9339
  122SOPE  C31713040   3.144   1.286   6.265  0.0885  0.3463 -0.1071
  122SOPE  H17X13041   3.044   1.243   6.286 -0.1238 -0.7136 -2.9683
  122SOPE  H17Y13042   3.201   1.197   6.299  0.0914  0.6943  0.8590
  122SOPE  C31813043   3.166   1.303   6.117 -0.0448  0.1967  0.2348
  122SOPE  H18X13044   3.231   1.391   6.097 -1.7600  1.5697  0.4463
  122SOPE  H18Y13045   3.067   1.326   6.073  0.4149 -1.1608 -1.6622
  122SOPE  H18Z13046   3.214   1.213   6.072  0.1699  0.0682  0.7175
  123SOPE     N13047   2.269   1.461   3.528  0.6543 -0.4604  0.4427
  123SOPE   HN113048   2.180   1.467   3.581 -0.2443  2.2319 -1.1931
  123SOPE   HN213049   2.263   1.371   3.476 -2.5326 -1.0129  1.5517
  123SOPE   HN313050   2.330   1.452   3.613 -0.2273 -1.4576  0.9880
  123SOPE   C1213051   2.304   1.601   3.471  0.1070  0.2604  0.1621
  123SOPE  H12A13052   2.292   1.609   3.360  2.3124 -0.0004 -0.1524
  123SOPE  H12B13053   2.411   1.612   3.501  0.1836 -1.1579  0.4876
  123SOPE   C1113054   2.226   1.717   3.539  0.1492 -0.1002  0.0312
  123SOPE  H11A13055   2.256   1.803   3.475  0.4019 -0.5297 -0.4361
  123SOPE  H11B13056   2.253   1.744   3.643  0.9120 -0.8565  0.0396
  123SOPE     P13057   2.006   1.641   3.657  0.5419 -0.5777 -0.1880
  123SOPE   O1313058   2.045   1.497   3.656  0.2618 -0.6767  0.5835
  123SOPE   O1413059   1.864   1.674   3.649  0.4112 -0.8376 -0.1750
  123SOPE   O1213060   2.083   1.707   3.524  0.1667  0.5139  0.0198
  123SOPE   O1113061   2.062   1.708   3.790 -0.0353  0.1956  0.0773
  123SOPE    C113062   2.001   1.657   3.908 -0.4206 -0.2689  0.1321
  123SOPE    HA13063   2.002   1.547   3.921 -0.6004 -0.0603  2.4107
  123SOPE    HB13064   1.892   1.678   3.905 -0.7617 -1.9331  0.0178
  123SOPE    C213065   2.079   1.700   4.036 -1.0568 -0.3291 -0.1966
  123SOPE    HS13066   2.061   1.626   4.116  0.3511 -0.6420 -0.1377
  123SOPE   O2113067   2.025   1.829   4.080  0.1444 -0.1069 -0.0672
  123SOPE   C2113068   2.062   1.874   4.201  0.4898  0.2346  0.2509
  123SOPE   O2213069   2.105   1.801   4.291 -0.5226  0.1554 -0.4268
  123SOPE   C2213070   2.020   2.020   4.220  0.3142  0.0864  0.2268
  123SOPE   H2R13071   1.909   2.022   4.218  0.3220  1.3385  0.2201
  123SOPE   H2S13072   2.066   2.074   4.134  1.7435 -1.7682 -0.2388
  123SOPE    C313073   2.231   1.716   3.994  0.4351 -0.8207  0.8417
  123SOPE    HX13074   2.245   1.799   3.921 -0.6235 -2.1840 -0.9876
  123SOPE    HY13075   2.244   1.628   3.928 -0.0931  0.8999 -1.7031
  123SOPE   O3113076   2.323   1.711   4.100  0.2064 -0.6269 -0.0159
  123SOPE   C3113077   2.401   1.815   4.123  0.2301 -1.7122  0.0877
  123SOPE   O3213078   2.415   1.910   4.049  0.6618 -0.0761  0.0687
  123SOPE   C3213079   2.463   1.809   4.263 -0.3995  0.4226  0.4157
  123SOPE   H2X13080   2.572   1.804   4.242 -0.2099 -0.0004  1.4171
  123SOPE   H2Y13081   2.433   1.716   4.317  2.3423 -0.1413  1.1046
  123SOPE   C2313082   2.050   2.074   4.362 -1.0590 -0.2306 -0.4476
  123SOPE   H3R13083   2.161   2.074   4.368 -1.0142  0.0963 -1.2154
  123SOPE   H3S13084   2.034   1.994   4.437  3.2954 -0.1514  0.8468
  123SOPE   C2413085   1.979   2.205   4.391 -0.0297  0.1229 -0.2098
  123SOPE   H4R13086   2.016   2.282   4.321 -0.6720  1.0948  0.4907
  123SOPE   H4S13087   1.869   2.197   4.378 -0.1871  1.1070  0.4270
  123SOPE   C2513088   2.001   2.257   4.539 -0.4593  0.0980  0.8577
  123SOPE   H5R13089   2.110   2.267   4.557 -0.4711  2.6347  0.0463
  123SOPE   H5S13090   1.967   2.363   4.544  0.4447  0.4297  0.3840
  123SOPE   C2613091   1.942   2.182   4.654  0.0165  0.0043 -0.9803
  123SOPE   H6R13092   1.836   2.166   4.627  0.1506 -1.7444 -0.6098
  123SOPE   H6S13093   1.988   2.088   4.693 -0.6642  0.3192  0.6796
  123SOPE   C2713094   1.929   2.271   4.782 -0.6136 -0.7247 -0.1720
  123SOPE   H7R13095   1.873   2.362   4.751  0.7812 -0.0631 -0.8385
  123SOPE   H7S13096   1.860   2.221   4.854 -0.2876  1.2522  1.5892
  123SOPE   C2813097   2.065   2.312   4.844 -0.1356 -0.3263 -0.2632
  123SOPE   H8R13098   2.119   2.388   4.782 -0.2046 -0.4272 -0.4458
  123SOPE   H8S13099   2.030   2.375   4.929  0.4270  2.5239 -1.9801
  123SOPE   C2913100   2.164   2.203   4.866 -0.7479 -0.2436  0.5982
  123SOPE   H9113101   2.205   2.155   4.776 -1.5524 -2.0696  1.1614
  123SOPE  C21013102   2.235   2.178   4.975  0.2995  0.6839 -0.2536
  123SOPE  H10113103   2.309   2.097   4.974 -1.1561 -0.7253  1.0733
  123SOPE  C21113104   2.211   2.259   5.104  0.7496 -0.0255 -0.0512
  123SOPE  H11R13105   2.135   2.206   5.166  0.2482  0.5921 -0.1258
  123SOPE  H11S13106   2.176   2.360   5.072  0.6999 -0.3623 -1.1035
  123SOPE  C21213107   2.337   2.292   5.177 -0.3044 -0.0679 -0.9558
  123SOPE  H12R13108   2.394   2.369   5.120 -0.2860  0.7281  0.1044
  123SOPE  H12S13109   2.407   2.208   5.199 -1.2501 -0.3452  1.2147
  123SOPE  C21313110   2.307   2.353   5.317 -0.8790 -0.0557  0.1748
  123SOPE  H13R13111   2.268   2.266   5.374  0.1525 -0.0712  0.8729
  123SOPE  H13S13112   2.219   2.416   5.290 -1.9674 -1.1441  1.0361
  123SOPE  C21413113   2.423   2.435   5.378  0.2300  0.1542 -0.0178
  123SOPE  H14R13114   2.444   2.522   5.312  0.3183 -0.2781 -0.5723
  123SOPE  H14S13115   2.500   2.355   5.373 -0.7218 -0.8485  0.6672
  123SOPE  C21513116   2.402   2.478   5.526 -0.0019  0.3220  0.2555
  123SOPE  H15R13117   2.315   2.546   5.539  0.8151  1.3375  0.4535
  123SOPE  H15S13118   2.491   2.538   5.554 -0.7343  1.2199  0.6977
  123SOPE  C21613119   2.404   2.365   5.626 -0.2031  0.4254 -0.8741
  123SOPE  H16R13120   2.506   2.333   5.655 -1.9969 -2.6404  3.0605
  123SOPE  H16S13121   2.355   2.277   5.579 -1.5055  0.3499  0.5394
  123SOPE  C21713122   2.347   2.406   5.761 -0.4569  0.9087 -0.7646
  123SOPE  H17R13123   2.245   2.448   5.750 -0.3962  1.1544 -0.4079
  123SOPE  H17S13124   2.407   2.490   5.804  0.6165 -0.7726  1.1832
  123SOPE  C21813125   2.350   2.296   5.869 -0.5431  0.6899 -0.0209
  123SOPE  H18R13126   2.452   2.260   5.895  0.0054  1.9940 -0.3049
  123SOPE  H18S13127   2.293   2.205   5.840  2.8912 -1.1074 -1.7364
  123SOPE  H18T13128   2.290   2.343   5.950  0.0307  0.3234  0.6345
  123SOPE   C3313129   2.420   1.925   4.347 -0.1500 -1.2216 -0.0696
  123SOPE   H3X13130   2.313   1.931   4.376  0.2203  1.3063  1.0454
  123SOPE   H3Y13131   2.434   2.014   4.281  1.3589 -2.2026 -1.1558
  123SOPE   C3413132   2.504   1.935   4.472 -0.3167  0.1990  0.3533
  123SOPE   H4X13133   2.611   1.930   4.445 -0.7760 -0.0840 -1.5754
  123SOPE   H4Y13134   2.491   1.842   4.532  2.9500  0.5558  1.8030
  123SOPE   C3513135   2.496   2.065   4.559  0.2435  0.0545  0.1569
  123SOPE   H5X13136   2.394   2.082   4.601  0.2510  1.2035 -0.2511
  123SOPE   H5Y13137   2.515   2.148   4.487 -1.3504  0.8258  0.5696
  123SOPE   C3613138   2.591   2.075   4.679 -0.8874 -0.3474  0.3205
  123SOPE   H6X13139   2.595   2.180   4.717 -0.7296  0.0062 -0.6580
  123SOPE   H6Y13140   2.694   2.061   4.640 -0.5852  3.2114 -0.5676
  123SOPE   C3713141   2.560   1.987   4.798  0.4604 -0.5117 -0.3176
  123SOPE   H7X13142   2.561   1.879   4.772 -0.2473 -0.9247  1.2251
  123SOPE   H7Y13143   2.453   2.015   4.813 -0.2113 -1.9038 -2.1051
  123SOPE   C3813144   2.638   2.024   4.927 -0.4728  0.0153  0.1620
  123SOPE   H8X13145   2.632   2.135   4.931 -0.0499  0.0017  2.2642
  123SOPE   H8Y13146   2.744   1.992   4.910 -0.2455  0.8275  0.0107
  123SOPE   C3913147   2.589   1.952   5.057  0.2381 -0.2755  0.2481
  123SOPE   H9X13148   2.563   1.847   5.030  1.7673 -0.5622 -0.2074
  123SOPE   H9Y13149   2.487   1.985   5.085 -0.7613 -1.9814 -1.1591
  123SOPE  C31013150   2.683   1.981   5.167 -0.1223  0.0265 -0.1603
  123SOPE  H10X13151   2.693   2.091   5.180  1.8819 -0.2874  1.5237
  123SOPE  H10Y13152   2.785   1.941   5.147  0.4033  2.4320 -2.9784
  123SOPE  C31113153   2.636   1.919   5.302 -0.2057 -0.3159  0.3255
  123SOPE  H11X13154   2.726   1.921   5.368 -1.8021 -0.1355  2.6091
  123SOPE  H11Y13155   2.604   1.813   5.298  0.1706 -0.4532 -4.3416
  123SOPE  C31213156   2.530   2.006   5.368 -0.4400 -0.7940  0.6415
  123SOPE  H12X13157   2.433   2.006   5.314  0.2239  0.7937 -0.6503
  123SOPE  H12Y13158   2.568   2.109   5.349 -0.3125 -1.5155 -4.5051
  123SOPE  C31313159   2.516   1.990   5.515  0.1052 -0.5173  0.1720
  123SOPE  H13X13160   2.503   1.881   5.533 -1.8178 -0.5389 -1.0747
  123SOPE  H13Y13161   2.433   2.051   5.557  1.1669  1.6210 -0.7300
  123SOPE  C31413162   2.628   2.046   5.597 -0.8532 -0.1116  0.5622
  123SOPE  H14X13163   2.619   2.153   5.569  0.2784  0.0082  0.6106
  123SOPE  H14Y13164   2.731   2.018   5.566  0.3202 -0.4984  4.2577
  123SOPE  C31513165   2.617   2.030   5.750  1.2090  0.7092 -0.2234
  123SOPE  H15X13166   2.514   2.054   5.783  1.0056  0.4686 -0.6699
  123SOPE  H15Y13167   2.685   2.103   5.800  1.7397 -0.0817  0.2260
  123SOPE  C31613168   2.652   1.888   5.797  0.9972  0.3469 -0.8112
  123SOPE  H16X13169   2.750   1.844   5.768  0.0563 -1.9320 -0.8150
  123SOPE  H16Y13170   2.591   1.809   5.748 -0.3762 -0.7070  2.3371
  123SOPE  C31713171   2.629   1.865   5.950  0.0739  0.2865 -0.2183
  123SOPE  H17X13172   2.532   1.904   5.985  0.6532  0.4733  1.2617
  123SOPE  H17Y13173   2.714   1.913   6.003  0.4077  0.0432 -0.5202
  123SOPE  C31813174   2.639   1.716   6.005 -0.3148  0.3388  0.4124
  123SOPE  H18X13175   2.558   1.651   5.965 -0.8441  1.1172  0.2076
  123SOPE  H18Y13176   2.610   1.708   6.112  0.4109 -0.9856  0.5233
  123SOPE  H18Z13177   2.741   1.675   5.987 -0.6977 -0.1296 -0.8216
  124SOPE     N13178   6.122   6.286   4.306  0.0161 -0.4758  0.5581
  124SOPE   HN113179   6.108   6.260   4.206 -0.4894 -0.0770  0.5166
  124SOPE   HN213180   6.115   6.196   4.357  1.9635 -1.0871 -0.1420
  124SOPE   HN313181   6.049   6.355   4.333  2.2598  1.6864  1.5090
  124SOPE   C1213182   6.249   6.362   4.332  0.1780  0.2431 -0.1627
  124SOPE  H12A13183   6.236   6.405   4.433  0.1775  2.2951 -0.9894
  124SOPE  H12B13184   6.265   6.443   4.259  0.5474  1.3523  1.1097
  124SOPE   C1113185   6.365   6.264   4.318 -0.1670 -0.1083  0.3113
  124SOPE  H11A13186   6.357   6.174   4.382  0.9491 -0.3811  0.0883
  124SOPE  H11B13187   6.450   6.327   4.354 -0.8912  0.3898  1.1665
  124SOPE     P13188   6.435   6.104   4.112  0.5737 -0.1643  0.2130
  124SOPE   O1313189   6.545   6.126   4.023 -0.2874  0.6420  0.0277
  124SOPE   O1413190   6.311   6.049   4.047  0.1173 -0.4582  0.6018
  124SOPE   O1213191   6.392   6.246   4.174  0.2951 -0.0252  0.4472
  124SOPE   O1113192   6.476   6.018   4.237 -0.3962 -0.3474  0.7244
  124SOPE    C113193   6.493   5.881   4.241  0.5097  1.6072 -0.1247
  124SOPE    HA13194   6.601   5.858   4.254 -0.0973 -0.5969  1.5128
  124SOPE    HB13195   6.450   5.832   4.151  2.0442 -0.3584  0.1358
  124SOPE    C213196   6.428   5.807   4.365  0.1134 -0.9910 -0.2421
  124SOPE    HS13197   6.318   5.823   4.361 -0.2715 -1.5997  3.7131
  124SOPE   O2113198   6.488   5.867   4.483  0.4086  0.9006  0.1665
  124SOPE   C2113199   6.397   5.880   4.578 -0.8458 -0.2231 -0.0001
  124SOPE   O2213200   6.279   5.869   4.565  0.4322  0.1951  0.4409
  124SOPE   C2213201   6.465   5.933   4.707 -0.8695  0.4418  0.6879
  124SOPE   H2R13202   6.470   6.043   4.694  1.0819  0.2539 -0.4268
  124SOPE   H2S13203   6.573   5.910   4.706 -1.1444 -0.9581 -0.7948
  124SOPE    C313204   6.446   5.659   4.359 -0.1404  0.0587  0.3857
  124SOPE    HX13205   6.554   5.639   4.345 -0.1930  0.7303 -1.1771
  124SOPE    HY13206   6.374   5.634   4.278 -2.9547  1.0598  2.3896
  124SOPE   O3113207   6.405   5.597   4.484 -0.1999 -0.4505 -0.5015
  124SOPE   C3113208   6.409   5.460   4.469  0.4969  0.2589 -0.3483
  124SOPE   O3213209   6.452   5.403   4.371  0.1571 -0.5602  0.6722
  124SOPE   C3213210   6.357   5.392   4.596 -0.4222  0.9065  0.3712
  124SOPE   H2X13211   6.445   5.354   4.651  0.0080  3.0462  1.2497
  124SOPE   H2Y13212   6.289   5.308   4.566  0.2709  0.1212  0.9621
  124SOPE   C2313213   6.393   5.904   4.840  0.0604 -0.0025  0.3234
  124SOPE   H3R13214   6.387   5.795   4.857 -0.9374  0.1089  0.7866
  124SOPE   H3S13215   6.287   5.936   4.829 -0.9921 -2.1813  3.0269
  124SOPE   C2413216   6.453   5.986   4.952  0.7837  0.4932 -0.4874
  124SOPE   H4R13217   6.557   5.957   4.977  0.9296  0.9259 -0.5816
  124SOPE   H4S13218   6.458   6.094   4.926 -0.2284  0.6205 -0.1742
  124SOPE   C2513219   6.359   5.971   5.074 -0.5296 -0.4714 -0.1338
  124SOPE   H5R13220   6.255   6.001   5.047 -0.5369  0.8172  1.2148
  124SOPE   H5S13221   6.349   5.867   5.112 -2.1707  0.1940  1.3690
  124SOPE   C2613222   6.418   6.065   5.189 -0.1157 -0.3536  0.3877
  124SOPE   H6R13223   6.507   6.019   5.238  0.2630 -0.3187 -0.2533
  124SOPE   H6S13224   6.442   6.164   5.145  0.2704 -0.1343  1.0777
  124SOPE   C2713225   6.318   6.098   5.299  0.4862 -0.0465 -0.1946
  124SOPE   H7R13226   6.362   6.185   5.353  1.2521 -0.9042  0.6144
  124SOPE   H7S13227   6.224   6.125   5.247  0.1710  1.2987  0.9917
  124SOPE   C2813228   6.295   5.986   5.392  0.3046 -0.2594  0.3044
  124SOPE   H8R13229   6.255   5.899   5.337  1.2297  1.3097 -3.0735
  124SOPE   H8S13230   6.397   5.961   5.429  1.0382  1.2512 -0.5877
  124SOPE   C2913231   6.195   6.005   5.504  0.1616  0.3863 -0.2574
  124SOPE   H9113232   6.096   6.020   5.456 -0.0898 -1.7659 -0.5043
  124SOPE  C21013233   6.205   5.974   5.636 -0.0500 -0.3929 -0.1188
  124SOPE  H10113234   6.123   5.999   5.705 -0.1876  1.3973 -0.8737
  124SOPE  C21113235   6.342   5.958   5.696 -0.8426 -0.6357  0.2315
  124SOPE  H11R13236   6.411   6.041   5.669 -0.8530 -0.5835  0.3644
  124SOPE  H11S13237   6.386   5.862   5.663 -0.6579 -0.0566 -1.2982
  124SOPE  C21213238   6.341   5.967   5.846 -0.2916  0.1579  0.1109
  124SOPE  H12R13239   6.433   5.920   5.887  0.4921  1.7338  0.2657
  124SOPE  H12S13240   6.256   5.914   5.893  0.1441  1.3534  2.4451
  124SOPE  C21313241   6.343   6.108   5.901  0.2033  0.1615 -0.1303
  124SOPE  H13R13242   6.262   6.174   5.862  0.6493  0.4836 -0.5273
  124SOPE  H13S13243   6.444   6.148   5.879 -0.0883  0.5131 -0.8627
  124SOPE  C21413244   6.331   6.124   6.050  0.6694  0.0643 -0.5671
  124SOPE  H14R13245   6.223   6.128   6.074  1.0184  0.7252  1.0413
  124SOPE  H14S13246   6.366   6.227   6.069 -1.5992  1.0351 -1.3985
  124SOPE  C21513247   6.392   6.023   6.147  0.4610 -0.2765  0.9881
  124SOPE  H15R13248   6.366   5.921   6.110  1.5524  0.1657 -1.1418
  124SOPE  H15S13249   6.340   6.032   6.245  0.5995  4.1654  0.8420
  124SOPE  C21613250   6.539   6.049   6.181 -0.4356 -0.1764  0.4917
  124SOPE  H16R13251   6.556   6.151   6.223 -0.6010  0.2035 -0.3577
  124SOPE  H16S13252   6.578   6.028   6.080  0.1098  1.0013  0.4425
  124SOPE  C21713253   6.606   5.947   6.273  0.0375  0.4057 -0.7501
  124SOPE  H17R13254   6.547   5.947   6.367  0.4492  1.4304 -0.4670
  124SOPE  H17S13255   6.710   5.974   6.303 -1.2097 -0.4646  6.0643
  124SOPE  C21813256   6.600   5.807   6.223  0.4762  0.2922  0.1822
  124SOPE  H18R13257   6.498   5.777   6.189 -0.0103  0.0012  1.8275
  124SOPE  H18S13258   6.621   5.741   6.310  0.6248  0.5259  0.3207
  124SOPE  H18T13259   6.666   5.783   6.137 -2.9495 -0.7556 -2.3960
  124SOPE   C3313260   6.295   5.494   4.694 -0.1318 -0.2979 -0.3691
  124SOPE   H3X13261   6.221   5.565   4.652 -0.2920 -1.1504 -1.5769
  124SOPE   H3Y13262   6.378   5.550   4.742  0.8504 -1.8813 -0.1426
  124SOPE   C3413263   6.220   5.423   4.807 -0.2898  0.0919 -1.0374
  124SOPE   H4X13264   6.285   5.338   4.832 -1.0699 -0.6281 -1.3847
  124SOPE   H4Y13265   6.131   5.384   4.752 -1.2170  1.6598 -0.7196
  124SOPE   C3513266   6.176   5.509   4.936  0.0449  0.0146  0.2902
  124SOPE   H5X13267   6.106   5.447   4.997  1.4643 -0.3708  1.6043
  124SOPE   H5Y13268   6.113   5.595   4.905 -1.3311 -1.5855 -1.5694
  124SOPE   C3613269   6.299   5.534   5.020 -0.4134  0.6811 -0.2944
  124SOPE   H6X13270   6.374   5.588   4.958 -1.9494  1.4144 -1.5829
  124SOPE   H6Y13271   6.336   5.434   5.051 -1.8343  0.1016 -0.4010
  124SOPE   C3713272   6.269   5.607   5.150 -0.4633  0.1816 -0.1925
  124SOPE   H7X13273   6.218   5.703   5.129  0.5599  0.0399 -4.3289
  124SOPE   H7Y13274   6.356   5.622   5.217  0.5316 -0.6888 -1.2480
  124SOPE   C3813275   6.185   5.527   5.255  0.2769  0.3301  0.1319
  124SOPE   H8X13276   6.229   5.427   5.271  1.0571  0.2988 -1.9313
  124SOPE   H8Y13277   6.085   5.509   5.210  1.0804  0.0341 -1.6222
  124SOPE   C3913278   6.182   5.593   5.393 -0.3080  0.2361  0.1281
  124SOPE   H9X13279   6.142   5.695   5.408  1.5116  0.9738  0.1468
  124SOPE   H9Y13280   6.284   5.597   5.437  0.1066 -3.2856 -0.1950
  124SOPE  C31013281   6.080   5.515   5.469  0.0325  0.9204 -0.0566
  124SOPE  H10X13282   6.116   5.411   5.481  0.1218  0.9419 -0.1380
  124SOPE  H10Y13283   5.988   5.503   5.407 -0.0371 -1.7360  0.4466
  124SOPE  C31113284   6.043   5.562   5.612 -0.2968  0.2645  0.4650
  124SOPE  H11X13285   5.966   5.490   5.649 -1.6840  1.8969  0.8804
  124SOPE  H11Y13286   5.995   5.661   5.602 -0.7635 -0.1173 -1.6912
  124SOPE  C31213287   6.166   5.581   5.698  0.0559 -0.3336 -0.0691
  124SOPE  H12X13288   6.233   5.657   5.651 -0.4812  0.0244 -0.2585
  124SOPE  H12Y13289   6.225   5.487   5.703  0.1466 -0.2397  0.9613
  124SOPE  C31313290   6.136   5.613   5.845 -0.1333 -0.0553  0.8656
  124SOPE  H13X13291   6.116   5.722   5.856  0.1555  0.0438  0.4400
  124SOPE  H13Y13292   6.228   5.594   5.905  0.0487 -0.2538  0.5277
  124SOPE  C31413293   6.002   5.552   5.899 -0.2867 -0.1582 -0.0326
  124SOPE  H14X13294   6.017   5.443   5.886  2.7558  0.1957 -0.0455
  124SOPE  H14Y13295   5.926   5.602   5.835 -0.7859 -0.1964  0.5270
  124SOPE  C31513296   5.996   5.598   6.047  0.1109  1.1615 -0.2070
  124SOPE  H15X13297   5.890   5.590   6.076  0.0937  1.2030 -0.2585
  124SOPE  H15Y13298   6.019   5.707   6.055  0.4082  1.2256 -1.6187
  124SOPE  C31613299   6.074   5.501   6.139  0.7440  0.0162  0.2047
  124SOPE  H16X13300   6.184   5.519   6.139  0.5097  2.0213  2.4600
  124SOPE  H16Y13301   6.049   5.395   6.121 -0.0352  0.3570 -0.7650
  124SOPE  C31713302   6.030   5.525   6.292  0.3199  0.6504  0.9046
  124SOPE  H17X13303   6.071   5.439   6.348  0.2170 -0.0506 -0.0645
  124SOPE  H17Y13304   5.921   5.506   6.304  0.1977  1.4211  1.0778
  124SOPE  C31813305   6.083   5.654   6.348  0.4337 -0.4209 -0.1579
  124SOPE  H18X13306   6.032   5.745   6.310 -0.3514 -1.1316 -0.8605
  124SOPE  H18Y13307   6.190   5.672   6.328  1.1701 -1.6823  2.2565
  124SOPE  H18Z13308   6.071   5.654   6.458 -1.7253 -0.0664 -0.3419
  125SOPE     N13309   0.295   1.126   4.127 -0.4013 -0.6774 -0.5661
  125SOPE   HN113310   0.369   1.054   4.136  0.7893  0.1240 -2.9989
  125SOPE   HN213311   0.225   1.083   4.064 -1.3209 -0.8064  0.5114
  125SOPE   HN313312   0.337   1.216   4.095 -0.0104 -0.6263  0.0713
  125SOPE   C1213313   0.240   1.154   4.263 -0.1865 -0.2769  0.2973
  125SOPE  H12A13314   0.300   1.220   4.329  0.8386 -0.7703 -0.1072
  125SOPE  H12B13315   0.237   1.058   4.320 -0.6653 -0.2267  0.3634
  125SOPE   C1113316   0.099   1.202   4.230  0.5911 -0.3812  0.4033
  125SOPE  H11A13317   0.042   1.211   4.324 -1.3307 -0.2531 -0.7104
  125SOPE  H11B13318   0.043   1.126   4.171  0.3751  0.1683 -0.1149
  125SOPE     P13319  -0.007   1.449   4.199  0.1049  0.3791 -0.4659
  125SOPE   O1313320  -0.145   1.404   4.177  0.8682 -0.5456 -0.4376
  125SOPE   O1413321   0.042   1.571   4.135 -0.4960 -0.0964  0.0487
  125SOPE   O1213322   0.099   1.335   4.165 -0.3129 -0.4118  0.3163
  125SOPE   O1113323   0.015   1.457   4.359  0.7175 -0.2358 -0.1904
  125SOPE    C113324   0.120   1.537   4.413 -0.4458  0.7595  0.8072
  125SOPE    HA13325   0.110   1.644   4.385  0.2439  0.7345  0.4323
  125SOPE    HB13326   0.216   1.504   4.369 -0.6913 -1.7031  1.9658
  125SOPE    C213327   0.134   1.522   4.562 -0.0996 -0.1960 -0.5045
  125SOPE    HS13328   0.225   1.577   4.593  0.8408 -1.6142 -0.6317
  125SOPE   O2113329   0.143   1.386   4.602 -0.0767  0.0995 -0.6824
  125SOPE   C2113330   0.246   1.315   4.569  0.0823 -0.0714 -0.2725
  125SOPE   O2213331   0.349   1.361   4.530 -0.4770  0.1129 -0.0729
  125SOPE   C2213332   0.213   1.167   4.607  0.0328  0.2218  0.3729
  125SOPE   H2R13333   0.307   1.114   4.584  0.3199  0.7911  0.2157
  125SOPE   H2S13334   0.129   1.130   4.545  0.5446 -1.7508  0.7798
  125SOPE    C313335   0.005   1.584   4.629 -0.1333 -0.3167  0.2980
  125SOPE    HX13336  -0.080   1.528   4.585  1.3370 -0.1059 -3.0700
  125SOPE    HY13337   0.002   1.688   4.591  0.0579 -0.2772  0.3873
  125SOPE   O3113338   0.008   1.591   4.778 -0.6420  0.3311  0.1392
  125SOPE   C3113339  -0.015   1.475   4.838 -0.1209 -0.6151  0.6683
  125SOPE   O3213340  -0.066   1.377   4.780 -0.3595 -0.0102 -0.2746
  125SOPE   C3213341   0.022   1.486   4.984  0.3784 -0.1978  1.0048
  125SOPE   H2X13342   0.039   1.594   5.006 -1.0845  0.0824  0.9112
  125SOPE   H2Y13343   0.113   1.428   5.010 -1.3153 -2.0847  3.1393
  125SOPE   C2313344   0.186   1.153   4.764  0.0446 -0.2335 -0.4955
  125SOPE   H3R13345   0.160   1.048   4.791  2.1439 -0.2391  1.8741
  125SOPE   H3S13346   0.098   1.211   4.799  0.3323 -1.0235  1.6944
  125SOPE   C2413347   0.314   1.175   4.844 -0.0449 -0.3563 -0.1169
  125SOPE   H4R13348   0.389   1.098   4.818  0.6093  0.3949 -0.4968
  125SOPE   H4S13349   0.368   1.265   4.808 -1.5408  0.7114  0.1884
  125SOPE   C2513350   0.281   1.158   4.993  0.1018 -0.4411  0.3962
  125SOPE   H5R13351   0.184   1.211   5.001  0.4005  0.9138 -3.0962
  125SOPE   H5S13352   0.261   1.056   5.031 -0.0103 -0.3051  0.7114
  125SOPE   C2613353   0.385   1.221   5.090  0.0791  0.1987 -0.8426
  125SOPE   H6R13354   0.485   1.180   5.063  0.8172  0.7660  0.8520
  125SOPE   H6S13355   0.390   1.329   5.067 -0.8028  0.8027  1.5480
  125SOPE   C2713356   0.348   1.189   5.241 -0.3864  0.3785 -0.7965
  125SOPE   H7R13357   0.251   1.237   5.263  0.1545  0.6727  1.0530
  125SOPE   H7S13358   0.345   1.078   5.250  1.5762  0.3471  0.1272
  125SOPE   C2813359   0.459   1.230   5.342  0.6524 -0.4802  0.3198
  125SOPE   H8R13360   0.434   1.183   5.439  1.2507 -1.5523 -0.0248
  125SOPE   H8S13361   0.558   1.194   5.306 -0.3961 -1.2230 -2.0235
  125SOPE   C2913362   0.450   1.379   5.362 -0.2903 -0.0530 -0.3712
  125SOPE   H9113363   0.381   1.434   5.295 -0.2595 -0.2174 -0.5382
  125SOPE  C21013364   0.522   1.441   5.453 -0.1524 -0.2982 -0.1969
  125SOPE  H10113365   0.505   1.550   5.448 -2.5877 -0.6551 -0.9060
  125SOPE  C21113366   0.622   1.384   5.552 -0.3138 -0.3765  0.2399
  125SOPE  H11R13367   0.720   1.434   5.534 -1.0972  0.7390 -1.1936
  125SOPE  H11S13368   0.630   1.274   5.543 -1.1375 -0.6079  1.9362
  125SOPE  C21213369   0.579   1.408   5.696 -0.3995 -0.2623  0.4262
  125SOPE  H12R13370   0.614   1.332   5.769  1.5135  0.4646  0.3080
  125SOPE  H12S13371   0.469   1.390   5.700 -0.3317 -1.1867 -1.1169
  125SOPE  C21313372   0.618   1.546   5.753  1.0098 -0.3598  0.1291
  125SOPE  H13R13373   0.578   1.628   5.690 -0.7252  1.2110  3.0325
  125SOPE  H13S13374   0.727   1.559   5.767  0.8630  0.9117  0.1723
  125SOPE  C21413375   0.543   1.578   5.880 -0.5035  0.6899 -0.7523
  125SOPE  H14R13376   0.585   1.513   5.959 -1.1370  1.5890  0.3419
  125SOPE  H14S13377   0.433   1.566   5.870 -0.1517 -1.1010 -3.4908
  125SOPE  C21513378   0.579   1.719   5.936 -0.5314 -0.3013 -0.7703
  125SOPE  H15R13379   0.522   1.714   6.031 -0.9160  0.5275 -0.9514
  125SOPE  H15S13380   0.529   1.792   5.869 -0.5059  0.1954 -0.2513
  125SOPE  C21613381   0.727   1.736   5.959 -0.8418  0.8725  0.5785
  125SOPE  H16R13382   0.783   1.743   5.864  0.6784 -0.5878  1.3158
  125SOPE  H16S13383   0.770   1.643   6.003 -1.5429  0.0560 -0.4316
  125SOPE  C21713384   0.770   1.860   6.046 -0.1743 -0.3899  0.3666
  125SOPE  H17R13385   0.708   1.854   6.138 -1.0707 -0.2456 -0.2121
  125SOPE  H17S13386   0.734   1.941   5.978 -1.7368 -0.6910  0.7983
  125SOPE  C21813387   0.918   1.882   6.069 -0.3144  0.6005  0.3141
  125SOPE  H18R13388   0.933   1.968   6.137  0.0218  1.6398 -1.0098
  125SOPE  H18S13389   0.961   1.898   5.967 -0.4893  0.8475  0.2805
  125SOPE  H18T13390   0.981   1.796   6.101  1.1074  1.2146 -0.7261
  125SOPE   C3313391  -0.095   1.435   5.071 -0.5135  0.3295 -0.4422
  125SOPE   H3X13392  -0.124   1.332   5.041 -0.2239 -0.0875  0.6367
  125SOPE   H3Y13393  -0.180   1.505   5.057 -0.1293  0.9461  0.2367
  125SOPE   C3413394  -0.057   1.433   5.214  1.3542 -0.4522  0.0881
  125SOPE   H4X13395   0.000   1.340   5.231 -1.3649 -1.9065  2.1379
  125SOPE   H4Y13396  -0.146   1.426   5.281  0.9665 -1.5777 -0.5361
  125SOPE   C3513397   0.034   1.537   5.267  0.0048  0.7392 -0.6333
  125SOPE   H5X13398  -0.021   1.633   5.257  0.0986  0.7052 -1.6370
  125SOPE   H5Y13399   0.135   1.541   5.220 -0.0523  0.6524 -0.7660
  125SOPE   C3613400   0.065   1.513   5.415 -0.7221  0.8709  0.1612
  125SOPE   H6X13401   0.129   1.423   5.428  0.9428  2.2678  2.3816
  125SOPE   H6Y13402  -0.030   1.495   5.470 -1.2650 -0.8463 -1.2269
  125SOPE   C3713403   0.156   1.612   5.473  0.1773 -0.5011 -0.0903
  125SOPE   H7X13404   0.242   1.622   5.404 -0.1231  1.2715 -0.2457
  125SOPE   H7Y13405   0.203   1.571   5.565  1.5075  0.3959 -0.3509
  125SOPE   C3813406   0.106   1.754   5.493  0.3921 -0.7369 -0.2168
  125SOPE   H8X13407   0.002   1.749   5.533 -0.0198  0.2661 -1.1131
  125SOPE   H8Y13408   0.106   1.796   5.390  0.6610  0.0364  0.0923
  125SOPE   C3913409   0.192   1.835   5.590 -0.7039 -0.4013  0.5396
  125SOPE   H9X13410   0.180   1.945   5.578  2.1450  0.2905  2.8997
  125SOPE   H9Y13411   0.293   1.827   5.546 -0.5933  0.7635  0.5580
  125SOPE  C31013412   0.192   1.797   5.737  0.4474 -0.1817 -0.5112
  125SOPE  H10X13413   0.247   1.703   5.762 -1.3774 -0.7398  1.7557
  125SOPE  H10Y13414   0.088   1.778   5.769  0.4973  1.2670  0.6233
  125SOPE  C31113415   0.245   1.906   5.833  0.4439  0.4671  0.2838
  125SOPE  H11X13416   0.183   1.997   5.816 -0.2124  0.0884  0.6217
  125SOPE  H11Y13417   0.351   1.928   5.807  0.8943 -0.1675  1.5389
  125SOPE  C31213418   0.229   1.859   5.981  0.2160 -0.5223  0.0213
  125SOPE  H12X13419   0.295   1.773   6.000 -1.5433 -2.0942 -0.6388
  125SOPE  H12Y13420   0.122   1.833   6.000  0.5439 -0.8464  1.4995
  125SOPE  C31313421   0.264   1.964   6.080 -0.2749  0.3246 -0.4011
  125SOPE  H13X13422   0.192   2.046   6.058 -0.3758  0.5048  0.5405
  125SOPE  H13Y13423   0.369   1.999   6.074 -0.1676  0.7145  2.3507
  125SOPE  C31413424   0.237   1.911   6.225 -0.0265 -0.5813  0.2861
  125SOPE  H14X13425   0.169   1.824   6.225 -0.0383 -0.5762  0.5789
  125SOPE  H14Y13426   0.190   2.001   6.270  0.0785  0.1448 -1.0238
  125SOPE  C31513427   0.369   1.854   6.298 -0.1065  0.1927  0.4697
  125SOPE  H15X13428   0.432   1.943   6.320 -1.4589  1.2339  0.2954
  125SOPE  H15Y13429   0.416   1.774   6.236 -2.1427  0.6175 -1.8084
  125SOPE  C31613430   0.344   1.786   6.433  0.3658 -0.2228  0.2207
  125SOPE  H16X13431   0.299   1.687   6.409  0.8209 -0.5461  0.6905
  125SOPE  H16Y13432   0.277   1.852   6.492  0.2112 -0.7583  0.6495
  125SOPE  C31713433   0.478   1.741   6.497  0.0238  0.5438  1.0930
  125SOPE  H17X13434   0.473   1.671   6.583  1.7962  0.2414  0.9732
  125SOPE  H17Y13435   0.543   1.825   6.530 -0.2853  1.6312 -0.9251
  125SOPE  C31813436   0.570   1.664   6.399  0.2410  0.1320 -0.2203
  125SOPE  H18X13437   0.505   1.586   6.353  1.4219 -0.2097 -1.3475
  125SOPE  H18Y13438   0.652   1.615   6.455 -1.4910 -0.0226  2.3692
  125SOPE  H18Z13439   0.607   1.725   6.315  1.0905  0.2558  0.2333
  126SOPE     N13440   1.244   3.196   3.591 -0.2972  0.3699 -0.2061
  126SOPE   HN113441   1.232   3.093   3.602 -0.7632  0.5553  1.2802
  126SOPE   HN213442   1.164   3.235   3.538  0.8253 -0.0792 -2.3324
  126SOPE   HN313443   1.316   3.213   3.519 -0.3890  0.0613 -0.3748
  126SOPE   C1213444   1.273   3.278   3.716 -0.6044 -0.3582 -0.4919
  126SOPE  H12A13445   1.189   3.261   3.788 -0.1189  0.0019  0.1727
  126SOPE  H12B13446   1.282   3.382   3.678 -2.3665 -0.7922 -2.2448
  126SOPE   C1113447   1.408   3.235   3.779 -0.0376  0.8274  0.6896
  126SOPE  H11A13448   1.411   3.292   3.875  1.3268 -0.0552  1.2071
  126SOPE  H11B13449   1.502   3.261   3.725 -0.0658 -1.5859 -0.6632
  126SOPE     P13450   1.558   3.023   3.826 -0.1450  0.0010  0.0734
  126SOPE   O1313451   1.644   3.073   3.720  0.7534 -0.2064  0.3837
  126SOPE   O1413452   1.554   2.877   3.838 -0.3525 -0.1021 -0.9119
  126SOPE   O1213453   1.421   3.089   3.805  0.2256 -0.3664  0.1547
  126SOPE   O1113454   1.603   3.085   3.960  0.1827 -0.0976 -0.6279
  126SOPE    C113455   1.738   3.137   3.978  0.4254 -0.4394 -0.4900
  126SOPE    HA13456   1.735   3.247   3.994 -0.5178 -0.5359  0.1499
  126SOPE    HB13457   1.799   3.107   3.891 -0.0352  1.3286 -1.4807
  126SOPE    C213458   1.785   3.078   4.113 -0.1985  0.0380 -0.4595
  126SOPE    HS13459   1.798   2.970   4.093 -3.8606 -0.4371 -0.8664
  126SOPE   O2113460   1.682   3.103   4.211  0.3411  0.6282  0.0867
  126SOPE   C2113461   1.653   3.002   4.284 -0.3248  0.5564 -0.6892
  126SOPE   O2213462   1.711   2.894   4.281  0.2045  0.0916 -0.4056
  126SOPE   C2213463   1.517   3.021   4.361  0.2139  0.5623  0.1801
  126SOPE   H2R13464   1.528   2.932   4.427  2.7660  1.0938  0.5481
  126SOPE   H2S13465   1.433   3.004   4.290  2.0919  2.1218 -2.5470
  126SOPE    C313466   1.919   3.141   4.155  0.0596  0.3173 -0.0859
  126SOPE    HX13467   1.916   3.252   4.149 -0.8660  0.3976  1.3983
  126SOPE    HY13468   2.004   3.105   4.093  0.2517  1.3071 -0.4059
  126SOPE   O3113469   1.954   3.100   4.291 -0.0933  0.6956 -0.2783
  126SOPE   C3113470   1.930   3.192   4.395 -0.1992  0.3971 -0.1250
  126SOPE   O3213471   1.882   3.298   4.379 -0.1859 -0.2225  0.6834
  126SOPE   C3213472   1.982   3.141   4.529 -0.7350  0.2460 -0.3131
  126SOPE   H2X13473   2.045   3.051   4.508 -0.2946  0.1715  1.2421
  126SOPE   H2Y13474   1.902   3.101   4.594 -0.0389 -2.4404 -0.9555
  126SOPE   C2313475   1.509   3.145   4.449  0.3270  0.2203 -0.3855
  126SOPE   H3R13476   1.410   3.162   4.496  0.9110  2.2864  0.2134
  126SOPE   H3S13477   1.502   3.239   4.390  0.8263  0.7519  0.3844
  126SOPE   C2413478   1.614   3.152   4.554 -0.4092 -0.5813  0.0604
  126SOPE   H4R13479   1.708   3.123   4.503 -0.4764 -1.3436  0.3487
  126SOPE   H4S13480   1.626   3.258   4.585  0.7541 -0.7870  0.3593
  126SOPE   C2513481   1.580   3.068   4.680 -0.0442  0.0727 -0.4049
  126SOPE   H5R13482   1.477   3.106   4.701  1.7874  4.6453  1.6195
  126SOPE   H5S13483   1.588   2.959   4.660  2.1488  0.1001  0.0642
  126SOPE   C2613484   1.666   3.113   4.799 -0.2106 -0.5425 -0.0423
  126SOPE   H6R13485   1.771   3.094   4.771  1.3071  1.9317  3.2606
  126SOPE   H6S13486   1.664   3.223   4.817  2.4502 -0.4414 -0.0877
  126SOPE   C2713487   1.645   3.028   4.920  0.0909  0.4074 -0.3913
  126SOPE   H7R13488   1.657   2.922   4.887  1.2230  0.5029 -0.3348
  126SOPE   H7S13489   1.726   3.048   4.993 -1.9861  1.9757  1.5866
  126SOPE   C2813490   1.513   3.051   4.986  0.4401 -0.3463 -0.0381
  126SOPE   H8R13491   1.435   3.054   4.907  1.6341 -0.3630 -1.2560
  126SOPE   H8S13492   1.466   2.975   5.052 -0.7497  0.1167 -0.3334
  126SOPE   C2913493   1.502   3.185   5.048  0.3238  0.1089 -0.2243
  126SOPE   H9113494   1.458   3.259   4.979  0.2289 -0.4617 -0.7843
  126SOPE  C21013495   1.546   3.220   5.167 -0.0720 -0.6278 -0.7462
  126SOPE  H10113496   1.527   3.323   5.200 -3.9737 -1.2121 -0.7653
  126SOPE  C21113497   1.608   3.127   5.277 -0.0990  0.2694 -0.1626
  126SOPE  H11R13498   1.699   3.177   5.315 -1.9168  3.1319  0.7814
  126SOPE  H11S13499   1.639   3.035   5.224  1.7343  0.6440  0.2033
  126SOPE  C21213500   1.531   3.093   5.400 -0.3253  0.1125  0.0562
  126SOPE  H12R13501   1.439   3.032   5.383 -1.8153  1.6177  2.2015
  126SOPE  H12S13502   1.489   3.184   5.446  0.0640  0.6266 -0.5939
  126SOPE  C21313503   1.617   3.013   5.506 -0.0966  0.7826  0.7157
  126SOPE  H13R13504   1.707   3.063   5.550 -1.0230  0.6162  2.9647
  126SOPE  H13S13505   1.659   2.925   5.454 -0.8329  1.7846 -1.6790
  126SOPE  C21413506   1.521   2.969   5.626 -0.1305  0.5044  0.6256
  126SOPE  H14R13507   1.425   2.918   5.600  0.1569 -0.3192  1.1259
  126SOPE  H14S13508   1.491   3.063   5.677 -0.3033  0.3816  0.7522
  126SOPE  C21513509   1.607   2.885   5.718 -0.2326 -0.0646  0.4039
  126SOPE  H15R13510   1.704   2.931   5.748 -1.4185  1.2195  2.4760
  126SOPE  H15S13511   1.632   2.793   5.661 -0.8204  0.2727 -0.4106
  126SOPE  C21613512   1.530   2.839   5.844  0.0321  0.0962 -0.1158
  126SOPE  H16R13513   1.569   2.741   5.877  0.1034  0.2919  0.3799
  126SOPE  H16S13514   1.423   2.832   5.815 -0.2578 -0.2645  1.0057
  126SOPE  C21713515   1.546   2.934   5.961 -0.5070 -0.2467 -0.3333
  126SOPE  H17R13516   1.517   3.040   5.941  1.6399  0.1506 -1.6084
  126SOPE  H17S13517   1.652   2.938   5.994 -0.4463  0.1434 -0.5628
  126SOPE  C21813518   1.455   2.891   6.081  0.1483 -0.2719  0.4840
  126SOPE  H18R13519   1.482   2.961   6.163  0.8531 -0.4293  0.3991
  126SOPE  H18S13520   1.472   2.787   6.117  3.6143 -0.3857 -1.0011
  126SOPE  H18T13521   1.348   2.906   6.059  0.1265 -2.3596 -1.1933
  126SOPE   C3313522   2.073   3.244   4.586  0.6004 -0.3254 -0.3289
  126SOPE   H3X13523   2.029   3.346   4.579 -0.4904 -0.5935  1.7164
  126SOPE   H3Y13524   2.163   3.244   4.521 -0.1402 -3.8744 -1.6104
  126SOPE   C3413525   2.101   3.206   4.734 -0.2081  0.5591  0.9257
  126SOPE   H4X13526   2.147   3.108   4.758 -1.1891  0.2489  1.5887
  126SOPE   H4Y13527   2.007   3.206   4.793 -1.2280  0.0114 -0.6553
  126SOPE   C3513528   2.183   3.313   4.797 -0.2597  0.5976  0.3354
  126SOPE   H5X13529   2.135   3.413   4.788 -0.4502  0.3313 -4.8432
  126SOPE   H5Y13530   2.280   3.333   4.746 -0.9210  2.0759 -0.3918
  126SOPE   C3613531   2.222   3.284   4.945 -0.0393 -0.1654  0.2184
  126SOPE   H6X13532   2.318   3.338   4.953  1.5202 -2.1611 -2.9305
  126SOPE   H6Y13533   2.252   3.178   4.958  0.6167 -0.1039 -0.6982
  126SOPE   C3713534   2.123   3.326   5.053 -0.1068  0.2238  0.7457
  126SOPE   H7X13535   2.027   3.274   5.030  0.6181 -0.9666  0.3282
  126SOPE   H7Y13536   2.106   3.435   5.038 -2.6739 -0.2703 -0.5587
  126SOPE   C3813537   2.173   3.282   5.187 -0.5525  0.5008 -0.4338
  126SOPE   H8X13538   2.250   3.346   5.234  0.6919 -1.8924  0.9649
  126SOPE   H8Y13539   2.212   3.179   5.196 -0.5306  0.6440  1.5021
  126SOPE   C3913540   2.055   3.279   5.279 -0.3063 -0.0121 -0.1443
  126SOPE   H9X13541   1.996   3.187   5.260 -0.5363 -0.0951  0.8889
  126SOPE   H9Y13542   2.005   3.377   5.294  0.4512  0.1141  1.8514
  126SOPE  C31013543   2.100   3.248   5.428 -0.0211 -0.0011 -0.0184
  126SOPE  H10X13544   2.176   3.322   5.461  0.0734  0.3468 -0.9776
  126SOPE  H10Y13545   2.140   3.145   5.440 -2.8041 -1.4160 -1.7600
  126SOPE  C31113546   1.978   3.251   5.517 -0.0911  0.2711 -0.1960
  126SOPE  H11X13547   1.913   3.163   5.497  1.6966 -1.3823  0.9563
  126SOPE  H11Y13548   1.912   3.337   5.493  0.4196  1.0752  1.1755
  126SOPE  C31213549   2.019   3.246   5.667 -0.1276  0.3739  0.2533
  126SOPE  H12X13550   2.129   3.251   5.681  0.2906 -1.9557 -1.6243
  126SOPE  H12Y13551   2.001   3.142   5.699 -0.2431 -0.3005 -1.8506
  126SOPE  C31313552   1.940   3.346   5.755  0.4731 -0.5360  0.1338
  126SOPE  H13X13553   1.832   3.320   5.750  0.2504  0.4371 -0.3077
  126SOPE  H13Y13554   1.951   3.451   5.720 -1.0608  0.3157  2.0139
  126SOPE  C31413555   1.982   3.338   5.907  0.9193 -0.5863  0.5726
  126SOPE  H14X13556   1.946   3.428   5.961  0.7004  0.8675 -1.8534
  126SOPE  H14Y13557   2.093   3.344   5.908  0.8570  1.2449  0.3960
  126SOPE  C31513558   1.922   3.228   5.985 -0.3208  0.2000 -0.1246
  126SOPE  H15X13559   1.963   3.142   5.928 -1.9108 -0.7010  0.0416
  126SOPE  H15Y13560   1.813   3.223   5.967 -0.3571  1.8468 -0.5380
  126SOPE  C31613561   1.962   3.220   6.133 -0.5505  0.2260  0.3725
  126SOPE  H16X13562   1.930   3.313   6.185 -1.4725  0.4194 -0.5077
  126SOPE  H16Y13563   2.073   3.221   6.136 -0.5369 -0.4839  0.3740
  126SOPE  C31713564   1.896   3.107   6.212 -0.5479 -0.4875 -0.0242
  126SOPE  H17X13565   1.932   3.119   6.317  2.1931  0.7613 -1.0075
  126SOPE  H17Y13566   1.934   3.008   6.178 -3.1093 -2.4067  2.2738
  126SOPE  C31813567   1.745   3.118   6.230  0.4039  0.0624 -0.0170
  126SOPE  H18X13568   1.703   3.038   6.295 -2.6405  0.6565 -1.0752
  126SOPE  H18Y13569   1.710   3.090   6.128 -0.4068  1.4748 -0.1416
  126SOPE  H18Z13570   1.698   3.214   6.258  1.3736  0.3662  0.5925
  127SOPE     N13571   5.066   3.167   3.863 -0.4742  0.2874  0.1551
  127SOPE   HN113572   5.160   3.132   3.890 -0.5183 -1.3092 -1.5579
  127SOPE   HN213573   4.999   3.178   3.942  0.0514  0.0198  0.6478
  127SOPE   HN313574   5.028   3.092   3.802  2.4615 -1.1987 -0.0159
  127SOPE   C1213575   5.073   3.294   3.794 -0.2015  0.1276  1.1550
  127SOPE  H12A13576   5.097   3.386   3.851 -2.1163  3.1824 -2.5364
  127SOPE  H12B13577   4.974   3.309   3.745  0.9413  1.7992 -0.8365
  127SOPE   C1113578   5.161   3.289   3.672 -0.4419  0.3413 -0.1340
  127SOPE  H11A13579   5.148   3.375   3.603  0.6218  1.3638  0.8859
  127SOPE  H11B13580   5.120   3.197   3.626 -1.0199 -0.4296  1.8179
  127SOPE     P13581   5.401   3.375   3.758  0.0782 -0.2792 -0.1790
  127SOPE   O1313582   5.409   3.483   3.661 -0.4554  0.0328  0.5566
  127SOPE   O1413583   5.527   3.317   3.802  0.8036  0.5232 -0.1209
  127SOPE   O1213584   5.296   3.265   3.705 -0.5184  0.4626  0.1142
  127SOPE   O1113585   5.324   3.424   3.885  0.2812  0.4853  0.4482
  127SOPE    C113586   5.335   3.370   4.016  0.0620  0.5453 -0.5461
  127SOPE    HA13587   5.352   3.262   3.995 -2.5816  0.2674 -1.5662
  127SOPE    HB13588   5.238   3.364   4.070  0.3692  0.8777  0.0562
  127SOPE    C213589   5.453   3.433   4.107 -0.2549 -0.3696  0.1043
  127SOPE    HS13590   5.547   3.409   4.053 -1.0544 -1.3110 -0.9302
  127SOPE   O2113591   5.453   3.390   4.241 -0.2722  0.2977 -0.3078
  127SOPE   C2113592   5.509   3.268   4.263  0.0630 -0.2173 -0.3746
  127SOPE   O2213593   5.564   3.199   4.180 -0.0325 -0.4487  0.1594
  127SOPE   C2213594   5.498   3.223   4.416 -0.0468  0.8353  0.0627
  127SOPE   H2R13595   5.495   3.324   4.462  0.6506  0.2624  1.4210
  127SOPE   H2S13596   5.587   3.162   4.441  0.4250 -0.1436 -3.4690
  127SOPE    C313597   5.426   3.590   4.093 -0.1955  0.2944 -0.1598
  127SOPE    HX13598   5.317   3.611   4.093 -0.6258 -1.4378 -2.7189
  127SOPE    HY13599   5.465   3.628   3.996  0.4503  0.9916  0.3674
  127SOPE   O3113600   5.475   3.665   4.201 -0.5277  0.0610 -0.0913
  127SOPE   C3113601   5.601   3.662   4.220  0.4545  0.2544  0.6068
  127SOPE   O3213602   5.683   3.601   4.155  0.7392 -0.7115  0.3453
  127SOPE   C3213603   5.638   3.734   4.348  0.2859 -0.5773 -0.4496
  127SOPE   H2X13604   5.616   3.842   4.333 -1.0998 -0.9186 -1.0464
  127SOPE   H2Y13605   5.743   3.708   4.375  0.5322  2.0511  1.5103
  127SOPE   C2313606   5.369   3.146   4.441  0.4246 -0.0410  0.5582
  127SOPE   H3R13607   5.356   3.053   4.380 -0.0757  1.4465 -1.7382
  127SOPE   H3S13608   5.284   3.200   4.394  0.2048 -2.6768 -2.5036
  127SOPE   C2413609   5.351   3.130   4.587  0.5635 -0.6576  0.4529
  127SOPE   H4R13610   5.243   3.103   4.592 -0.5695  2.1012 -3.6608
  127SOPE   H4S13611   5.409   3.039   4.610  0.6753  0.2065  4.2351
  127SOPE   C2513612   5.399   3.235   4.690  0.1986  0.2042 -0.4300
  127SOPE   H5R13613   5.510   3.241   4.690  0.1677  1.0296 -0.1490
  127SOPE   H5S13614   5.361   3.337   4.664  2.7737  0.5933 -3.1654
  127SOPE   C2613615   5.350   3.198   4.828 -0.4352  0.1439  0.5405
  127SOPE   H6R13616   5.240   3.197   4.837 -0.5687  2.4588 -0.2401
  127SOPE   H6S13617   5.388   3.095   4.847  0.3118  0.5273  1.2126
  127SOPE   C2713618   5.391   3.305   4.930  0.6058  0.9119  0.2713
  127SOPE   H7R13619   5.367   3.271   5.033 -3.4696  1.9082 -0.2015
  127SOPE   H7S13620   5.500   3.323   4.915  1.0513 -2.7611 -2.5280
  127SOPE   C2813621   5.311   3.435   4.917 -0.1731  0.4451 -0.3483
  127SOPE   H8R13622   5.346   3.490   4.827  0.2060  0.5611 -0.1322
  127SOPE   H8S13623   5.206   3.419   4.885 -0.0047  1.7506 -1.6810
  127SOPE   C2913624   5.322   3.532   5.021  0.5074  0.0222 -0.7622
  127SOPE   H9113625   5.418   3.585   5.030  0.3418  0.7818 -2.9472
  127SOPE  C21013626   5.231   3.557   5.115  0.1501 -0.3120 -0.9367
  127SOPE  H10113627   5.252   3.642   5.182  2.4342  0.8755 -2.9598
  127SOPE  C21113628   5.090   3.502   5.132 -0.7928 -0.7522  0.0689
  127SOPE  H11R13629   5.114   3.411   5.191  1.6253  0.1282  0.5559
  127SOPE  H11S13630   5.071   3.465   5.029  0.1070 -1.1583  0.0419
  127SOPE  C21213631   4.985   3.598   5.182 -0.1826 -0.4967 -0.6358
  127SOPE  H12R13632   4.885   3.551   5.171  0.8027 -2.6405 -0.8977
  127SOPE  H12S13633   5.000   3.695   5.130  1.6987 -1.6038 -2.3057
  127SOPE  C21313634   5.000   3.623   5.340  0.0826 -0.2237 -0.2510
  127SOPE  H13R13635   4.953   3.720   5.366  0.2795  0.1043 -1.0887
  127SOPE  H13S13636   5.110   3.627   5.358  0.3539 -1.3416 -1.4654
  127SOPE  C21413637   4.942   3.507   5.424  0.4321 -0.1610 -0.3399
  127SOPE  H14R13638   5.003   3.415   5.407  1.4950  0.1797  1.3739
  127SOPE  H14S13639   4.837   3.482   5.397  0.0366  0.0052  0.9737
  127SOPE  C21513640   4.931   3.527   5.579  0.1188 -0.7583  0.2050
  127SOPE  H15R13641   4.855   3.606   5.599  0.7303 -0.3982  1.2113
  127SOPE  H15S13642   5.031   3.565   5.610  0.7919 -1.6772 -0.7890
  127SOPE  C21613643   4.905   3.404   5.679 -0.0690  0.1869 -0.2681
  127SOPE  H16R13644   4.988   3.332   5.665 -0.0733  0.5247 -2.3650
  127SOPE  H16S13645   4.808   3.358   5.651  0.1119 -0.1233 -0.3849
  127SOPE  C21713646   4.895   3.460   5.820 -0.4204  0.3227 -1.0001
  127SOPE  H17R13647   4.961   3.549   5.830  0.1033 -0.1586 -0.0211
  127SOPE  H17S13648   4.935   3.379   5.885  2.6287  1.1233 -1.7116
  127SOPE  C21813649   4.756   3.503   5.850  0.2321  0.2539 -0.0483
  127SOPE  H18R13650   4.692   3.412   5.855  0.0105  0.4438  0.8811
  127SOPE  H18S13651   4.719   3.570   5.770  2.0610 -0.3316 -1.4432
  127SOPE  H18T13652   4.752   3.546   5.953  0.3653 -3.2801  1.5772
  127SOPE   C3313653   5.570   3.690   4.479  0.6450 -0.5098  0.2852
  127SOPE   H3X13654   5.629   3.720   4.568  0.6113 -0.7226  0.3785
  127SOPE   H3Y13655   5.579   3.579   4.484 -2.4054 -0.7910  1.3175
  127SOPE   C3413656   5.426   3.744   4.481  0.0312  0.2375 -0.0732
  127SOPE   H4X13657   5.364   3.696   4.403  0.8528 -1.0460  0.0314
  127SOPE   H4Y13658   5.426   3.852   4.453  2.5046 -0.1984 -2.1747
  127SOPE   C3513659   5.368   3.733   4.619  0.0737 -0.0454 -0.2762
  127SOPE   H5X13660   5.431   3.794   4.688 -1.4245  1.8633 -0.5299
  127SOPE   H5Y13661   5.374   3.625   4.644  0.0155 -0.0429 -0.2505
  127SOPE   C3613662   5.219   3.777   4.635  0.4418  0.3461  0.0598
  127SOPE   H6X13663   5.170   3.719   4.555  0.2334  3.7331 -2.4791
  127SOPE   H6Y13664   5.190   3.883   4.617 -2.3623 -0.3235  0.1940
  127SOPE   C3713665   5.149   3.739   4.765  0.2744  0.2096 -0.2925
  127SOPE   H7X13666   5.214   3.795   4.835  0.4578  0.6684 -0.8215
  127SOPE   H7Y13667   5.158   3.632   4.794 -0.7555  0.1913 -0.0068
  127SOPE   C3813668   5.001   3.783   4.764  0.2035  0.5457  0.3306
  127SOPE   H8X13669   4.953   3.721   4.685  1.6322  0.8543 -0.8286
  127SOPE   H8Y13670   5.002   3.888   4.728  2.2795  0.1594 -0.9181
  127SOPE   C3913671   4.926   3.766   4.895 -0.0527  0.4500  0.0422
  127SOPE   H9X13672   4.978   3.825   4.974  0.0287 -0.5309  0.7377
  127SOPE   H9Y13673   4.926   3.661   4.931  0.3847  1.0566  1.9386
  127SOPE  C31013674   4.785   3.816   4.869 -0.5413 -0.0703 -0.0323
  127SOPE  H10X13675   4.743   3.768   4.778  1.5526 -0.0596 -1.0608
  127SOPE  H10Y13676   4.793   3.925   4.848  1.3271  0.1100  1.4282
  127SOPE  C31113677   4.693   3.796   4.992 -0.4264  0.0768 -0.4226
  127SOPE  H11X13678   4.704   3.689   5.021  2.7938  0.4100 -0.0720
  127SOPE  H11Y13679   4.588   3.816   4.961  0.3733  0.7547 -3.0122
  127SOPE  C31213680   4.748   3.881   5.111  0.3165 -0.2459  0.5298
  127SOPE  H12X13681   4.762   3.988   5.086 -1.4256 -0.0426  0.2778
  127SOPE  H12Y13682   4.845   3.846   5.151  1.2599  0.7982 -0.7741
  127SOPE  C31313683   4.640   3.905   5.217  0.8109  0.0828 -0.1005
  127SOPE  H13X13684   4.630   3.822   5.289 -1.4642 -0.6342 -1.1266
  127SOPE  H13Y13685   4.538   3.908   5.173 -0.1617  1.6736  2.0763
  127SOPE  C31413686   4.642   4.043   5.292  0.4941  0.2043  0.2936
  127SOPE  H14X13687   4.618   4.117   5.213  0.7079  0.8128  0.7896
  127SOPE  H14Y13688   4.744   4.067   5.330  0.6023  0.9377 -0.4283
  127SOPE  C31513689   4.528   4.058   5.392  0.0814 -0.3860 -0.1786
  127SOPE  H15X13690   4.433   4.029   5.342  0.2269 -0.2092 -0.5575
  127SOPE  H15Y13691   4.523   4.168   5.409  0.7997 -0.2979 -0.5375
  127SOPE  C31613692   4.561   3.991   5.533  0.5063 -0.0510  0.6225
  127SOPE  H16X13693   4.662   4.011   5.573  0.1919  3.0610  0.1019
  127SOPE  H16Y13694   4.544   3.881   5.531 -0.1391  0.0538  0.0454
  127SOPE  C31713695   4.475   4.044   5.646  0.0457  0.2469  0.0773
  127SOPE  H17X13696   4.514   4.147   5.658  0.0644  0.3376 -0.7086
  127SOPE  H17Y13697   4.494   3.982   5.736  0.7345  0.8342  0.3443
  127SOPE  C31813698   4.328   4.050   5.619  0.7005 -0.4014  0.3022
  127SOPE  H18X13699   4.312   4.123   5.537 -1.8267 -2.0041 -0.7307
  127SOPE  H18Y13700   4.274   4.082   5.711 -0.1201  0.3755 -0.4297
  127SOPE  H18Z13701   4.287   3.951   5.591  0.3864 -0.5550  1.2726
  128SOPE     N13702   4.234   5.484   3.683 -0.2906  0.3623 -0.1163
  128SOPE   HN113703   4.204   5.582   3.665 -2.8340 -0.6083 -1.6075
  128SOPE   HN213704   4.213   5.463   3.783  0.0435  0.2934 -0.0606
  128SOPE   HN313705   4.337   5.469   3.673 -0.3358 -1.0714  1.2331
  128SOPE   C1213706   4.164   5.389   3.595 -0.5647  0.2652 -0.1787
  128SOPE  H12A13707   4.155   5.438   3.496  0.9368  1.6302  0.3261
  128SOPE  H12B13708   4.059   5.381   3.631 -0.0818  2.4202  1.9910
  128SOPE   C1113709   4.233   5.252   3.573 -0.4824 -0.2816  0.4328
  128SOPE  H11A13710   4.325   5.255   3.511 -0.0714  0.9778  1.0730
  128SOPE  H11B13711   4.160   5.199   3.507 -0.7733  0.4443  0.1604
  128SOPE     P13712   4.321   5.049   3.692  0.1584  0.1945  0.1677
  128SOPE   O1313713   4.437   5.040   3.595  0.4158 -0.4542  0.0330
  128SOPE   O1413714   4.209   4.954   3.664  0.3511 -0.6189 -0.0432
  128SOPE   O1213715   4.255   5.185   3.699  0.2644  0.2545  1.0639
  128SOPE   O1113716   4.382   5.027   3.834  0.4613 -0.5464 -0.2519
  128SOPE    C113717   4.421   5.126   3.928 -0.0472 -1.0156  0.3987
  128SOPE    HA13718   4.407   5.228   3.885 -0.1279 -0.6862  1.1832
  128SOPE    HB13719   4.528   5.120   3.956  0.0084 -0.1385  0.4202
  128SOPE    C213720   4.330   5.128   4.047  1.0163  0.4948 -0.1970
  128SOPE    HS13721   4.311   5.235   4.071 -0.9314 -0.2165  1.7169
  128SOPE   O2113722   4.379   5.067   4.168 -0.8280  0.3352  0.6313
  128SOPE   C2113723   4.494   5.124   4.217 -0.6706  0.2087  0.4832
  128SOPE   O2213724   4.553   5.224   4.175 -0.8367 -0.1695  0.2507
  128SOPE   C2213725   4.526   5.050   4.344 -0.1959  0.0764 -0.2072
  128SOPE   H2R13726   4.634   5.022   4.348  0.0782  1.2430  1.5084
  128SOPE   H2S13727   4.464   4.958   4.353 -2.2608  1.1092 -2.5452
  128SOPE    C313728   4.183   5.067   4.021 -0.5500 -0.1017  0.1461
  128SOPE    HX13729   4.202   4.968   3.974  2.3090  0.7293 -0.6788
  128SOPE    HY13730   4.137   5.136   3.947 -0.3960 -0.8722 -0.6935
  128SOPE   O3113731   4.112   5.061   4.144  0.3902  0.0854 -0.4435
  128SOPE   C3113732   4.063   5.172   4.194  0.1456  0.6458  0.1756
  128SOPE   O3213733   4.069   5.280   4.138 -0.6094  0.1102  0.8061
  128SOPE   C3213734   4.013   5.152   4.341 -0.0585  0.3476  0.0833
  128SOPE   H2X13735   4.041   5.046   4.363  0.5476  0.4388 -0.2335
  128SOPE   H2Y13736   3.903   5.160   4.327  0.0228 -1.3613 -2.1303
  128SOPE   C2313737   4.495   5.147   4.463 -0.0743 -0.1022  0.1150
  128SOPE   H3R13738   4.394   5.193   4.455  0.4343  0.7868 -1.7218
  128SOPE   H3S13739   4.568   5.230   4.460 -1.9634  1.6039 -1.8640
  128SOPE   C2413740   4.515   5.059   4.592  0.2070  0.1153  0.6579
  128SOPE   H4R13741   4.439   4.979   4.590 -0.1160  0.4092  1.0238
  128SOPE   H4S13742   4.619   5.020   4.592  0.9292  1.9303 -0.4782
  128SOPE   C2513743   4.491   5.143   4.726  0.2112  0.1590  0.2377
  128SOPE   H5R13744   4.572   5.219   4.724 -0.4829  1.0323  2.3424
  128SOPE   H5S13745   4.396   5.196   4.705 -0.3733 -0.0709  2.1147
  128SOPE   C2613746   4.485   5.059   4.859 -0.5424  0.3081 -0.5614
  128SOPE   H6R13747   4.399   4.988   4.859 -0.3609  0.0783 -0.0775
  128SOPE   H6S13748   4.587   5.014   4.862  0.9104  3.3885 -0.2163
  128SOPE   C2713749   4.481   5.150   4.982  0.9292  0.1679  0.1573
  128SOPE   H7R13750   4.577   5.206   4.982  1.2198 -0.2772 -1.9022
  128SOPE   H7S13751   4.400   5.225   4.965 -2.3151 -3.3192 -1.2749
  128SOPE   C2813752   4.474   5.088   5.124  0.5082 -0.1253 -0.0344
  128SOPE   H8R13753   4.469   5.171   5.197 -0.5934 -0.2516  0.0570
  128SOPE   H8S13754   4.377   5.034   5.125  0.2862  0.2797  0.3216
  128SOPE   C2913755   4.586   4.996   5.165 -0.7728 -0.0952 -0.1365
  128SOPE   H9113756   4.607   4.913   5.096  1.5503  0.3939 -0.1200
  128SOPE  C21013757   4.659   5.006   5.277  0.4802 -0.1326  0.7024
  128SOPE  H10113758   4.748   4.941   5.290  0.1322 -0.5712  0.9104
  128SOPE  C21113759   4.651   5.099   5.395 -0.6729  0.0071 -0.5995
  128SOPE  H11R13760   4.554   5.151   5.410  0.1406  1.5829 -0.5367
  128SOPE  H11S13761   4.728   5.178   5.380  1.3011 -1.4752  1.1843
  128SOPE  C21213762   4.684   5.019   5.521  0.4713 -0.4514 -0.0518
  128SOPE  H12R13763   4.774   4.955   5.510 -0.1242 -1.1136 -1.3394
  128SOPE  H12S13764   4.609   4.941   5.547  0.0084  0.5357  1.7966
  128SOPE  C21313765   4.706   5.107   5.643  0.1121 -0.0065  0.3424
  128SOPE  H13R13766   4.611   5.161   5.667 -0.9362 -2.1798  1.3920
  128SOPE  H13S13767   4.783   5.180   5.609 -1.0552  0.4855 -1.4187
  128SOPE  C21413768   4.736   5.024   5.768 -0.6436  0.3158 -0.8010
  128SOPE  H14R13769   4.821   4.954   5.757  0.0157  0.8514  0.7005
  128SOPE  H14S13770   4.647   4.958   5.774  1.0315 -2.0601 -0.8638
  128SOPE  C21513771   4.755   5.105   5.897  0.2977  0.7466 -0.2457
  128SOPE  H15R13772   4.660   5.152   5.931  1.4533  0.5576  3.7797
  128SOPE  H15S13773   4.827   5.183   5.866  0.0505  0.8158 -0.6542
  128SOPE  C21613774   4.816   5.032   6.008  0.5547 -0.1675 -0.3968
  128SOPE  H16R13775   4.830   5.098   6.097 -1.4960  0.3808 -0.4220
  128SOPE  H16S13776   4.912   4.985   5.981  1.5538  1.4793  0.1264
  128SOPE  C21713777   4.729   4.919   6.064 -0.1497 -0.5582 -0.7154
  128SOPE  H17R13778   4.734   4.838   5.989  0.0763 -1.5284  0.3291
  128SOPE  H17S13779   4.626   4.958   6.082  0.5495  0.1796  2.2149
  128SOPE  C21813780   4.781   4.856   6.198 -0.2544  0.0368  0.5982
  128SOPE  H18R13781   4.754   4.918   6.286  0.4741  0.7465  0.3368
  128SOPE  H18S13782   4.892   4.856   6.202 -0.2597  1.4905  1.8611
  128SOPE  H18T13783   4.759   4.747   6.204  0.7204 -0.1569  0.8450
  128SOPE   C3313784   4.069   5.261   4.445  0.1587 -0.7167 -0.1673
  128SOPE   H3X13785   4.010   5.351   4.419  1.5842  0.1884 -0.3666
  128SOPE   H3Y13786   4.177   5.280   4.428 -0.3039  1.4826 -0.9567
  128SOPE   C3413787   4.059   5.223   4.587 -0.3056 -0.0729  0.4822
  128SOPE   H4X13788   4.103   5.121   4.590 -0.5497 -0.2152 -0.5280
  128SOPE   H4Y13789   3.951   5.219   4.614 -0.9322  0.0527 -1.8031
  128SOPE   C3513790   4.133   5.328   4.682  0.1171 -0.9059 -0.2897
  128SOPE   H5X13791   4.096   5.431   4.664  1.0985 -0.6085 -0.6815
  128SOPE   H5Y13792   4.244   5.320   4.674 -0.0641 -2.0165 -2.5251
  128SOPE   C3613793   4.117   5.293   4.830 -0.0785 -0.0860 -0.2196
  128SOPE   H6X13794   4.202   5.225   4.850 -1.3657 -1.4553  0.8269
  128SOPE   H6Y13795   4.027   5.230   4.843  1.1044 -1.5907  0.9699
  128SOPE   C3713796   4.117   5.419   4.919 -0.5231  0.6727 -0.0786
  128SOPE   H7X13797   4.041   5.491   4.880 -1.4412 -0.4807 -0.5046
  128SOPE   H7Y13798   4.217   5.466   4.923  0.3324 -1.1232  0.3580
  128SOPE   C3813799   4.070   5.392   5.060  0.5852 -0.2244  0.1026
  128SOPE   H8X13800   3.968   5.348   5.059  0.4921 -0.0221  0.5069
  128SOPE   H8Y13801   4.060   5.492   5.107  0.6046 -1.1657  2.2282
  128SOPE   C3913802   4.157   5.304   5.143 -0.8748 -0.0558 -0.5948
  128SOPE   H9X13803   4.258   5.351   5.140 -0.3462 -1.1929 -1.2830
  128SOPE   H9Y13804   4.178   5.199   5.114  1.0575  0.1779 -0.2345
  128SOPE  C31013805   4.106   5.307   5.284  0.6234  0.2400 -0.1034
  128SOPE  H10X13806   3.998   5.283   5.295  0.6690  0.4827  0.9831
  128SOPE  H10Y13807   4.122   5.410   5.323  0.8555  1.1469 -2.4203
  128SOPE  C31113808   4.196   5.219   5.377  0.5416 -0.5892 -0.1633
  128SOPE  H11X13809   4.299   5.262   5.378  0.2534  0.1559 -1.1642
  128SOPE  H11Y13810   4.213   5.121   5.327 -1.7203 -2.5380  2.5748
  128SOPE  C31213811   4.162   5.207   5.528 -0.2623  0.3178 -0.0222
  128SOPE  H12X13812   4.256   5.162   5.567  1.8564  1.9349 -2.8726
  128SOPE  H12Y13813   4.081   5.135   5.552 -0.6948  0.9480  0.4312
  128SOPE  C31313814   4.128   5.340   5.596 -0.1786  0.3639  0.3079
  128SOPE  H13X13815   4.061   5.395   5.526  0.1805 -0.3665 -0.6418
  128SOPE  H13Y13816   4.213   5.409   5.614  0.4403 -0.3109  0.0215
  128SOPE  C31413817   4.043   5.320   5.726  0.1367 -0.2249  0.5522
  128SOPE  H14X13818   3.946   5.272   5.700  0.1717 -0.5149  0.9499
  128SOPE  H14Y13819   4.029   5.426   5.756  1.6355 -0.2004  1.2210
  128SOPE  C31513820   4.117   5.235   5.827  0.6246 -0.1888  0.1885
  128SOPE  H15X13821   4.223   5.218   5.796  0.6256 -0.4292  0.3251
  128SOPE  H15Y13822   4.070   5.135   5.825  0.2621 -0.0295  0.6465
  128SOPE  C31613823   4.116   5.286   5.970 -0.9913 -0.4515 -0.5265
  128SOPE  H16X13824   4.197   5.360   5.985  0.7324 -2.6191  1.4259
  128SOPE  H16Y13825   4.134   5.201   6.039 -0.9926  0.4252  0.5889
  128SOPE  C31713826   3.987   5.358   6.014 -0.0090  0.0345 -0.0945
  128SOPE  H17X13827   3.967   5.456   5.965 -0.0696 -0.0827 -0.3051
  128SOPE  H17Y13828   3.998   5.391   6.120 -0.2487 -0.2167  0.0111
  128SOPE  C31813829   3.858   5.273   6.015  0.6641 -0.2165  0.0407
  128SOPE  H18X13830   3.830   5.241   5.912  0.7127  0.1581 -0.0914
  128SOPE  H18Y13831   3.775   5.323   6.070  1.7703  0.8925  0.7537
  128SOPE  H18Z13832   3.872   5.181   6.076 -1.2346  0.3252  1.3951
  129OSM      N13833   2.937   5.089   8.103 -0.0955 -0.6430 -0.4706
  129OSM    C1513834   2.869   4.966   8.062 -0.0905  0.8348 -0.3071
  129OSM   H15A13835   2.763   4.980   8.046 -0.2322 -0.6354 -0.7773
  129OSM   H15B13836   2.878   4.899   8.145  0.3171  2.9375  1.4492
  129OSM   H15C13837   2.916   4.919   7.977 -0.2194  0.1502 -0.0031
  129OSM    C1413838   3.085   5.061   8.100  0.2175 -0.3626  0.6649
  129OSM   H14A13839   3.140   5.138   8.152 -2.8450  2.7214 -0.3132
  129OSM   H14B13840   3.108   5.056   7.995 -0.4510 -0.6719  0.5264
  129OSM   H14C13841   3.109   4.963   8.140 -0.5575 -0.4176  1.0072
  129OSM    C1313842   2.898   5.196   8.007  1.0747  0.5476 -0.0704
  129OSM   H13A13843   2.796   5.218   8.033  0.7907 -0.0365 -0.6710
  129OSM   H13B13844   2.903   5.171   7.902 -0.6537  2.2603 -0.6275
  129OSM   H13C13845   2.967   5.279   8.017 -0.7963  2.0162  1.3634
  129OSM    C1213846   2.895   5.145   8.243 -0.2935  0.2760 -0.6691
  129OSM   H12A13847   2.928   5.246   8.264  0.9547  0.2727 -2.4081
  129OSM   H12B13848   2.938   5.077   8.315 -2.9240 -0.1133  0.6630
  129OSM    C1113849   2.747   5.137   8.286 -0.2215 -0.3253  0.3106
  129OSM   H11A13850   2.746   5.164   8.394 -0.4483  0.9704 -0.0046
  129OSM   H11B13851   2.707   5.034   8.271 -1.2161  0.0249  0.4468
  129OSM      P13852   2.524   5.239   8.194 -0.2108 -0.4433  0.3919
  129OSM    O1313853   2.465   5.109   8.231  0.4883  0.1889 -0.7071
  129OSM    O1413854   2.489   5.357   8.271 -0.9638 -0.7735  0.4128
  129OSM    O1113855   2.488   5.248   8.040 -0.4822  0.1476  0.0511
  129OSM    O1213856   2.680   5.230   8.202  0.2535  0.2354  0.3944
  129OSM    C1S13857   2.543   5.351   7.966 -0.3941 -0.1605  0.1855
  129OSM    H1S13858   2.654   5.356   7.974 -0.3615 -0.5848 -0.0097
  129OSM    H1T13859   2.513   5.452   8.003  3.4715  1.1013  0.3330
  129OSM     NF13860   2.582   5.423   7.737 -0.0980  0.2965 -0.2162
  129OSM    HNF13861   2.541   5.490   7.676 -0.3247  0.0793 -0.3048
  129OSM    C2S13862   2.489   5.342   7.820  0.3201  0.6547  0.6654
  129OSM    H2S13863   2.482   5.236   7.788 -3.5871  0.5215  1.4995
  129OSM    C3S13864   2.336   5.381   7.832 -0.5019 -0.1428 -0.1245
  129OSM    H3S13865   2.327   5.476   7.890 -0.1876  0.5268 -1.1472
  129OSM     O313866   2.260   5.284   7.910 -0.3272 -0.5507  0.9731
  129OSM    HO313867   2.327   5.238   7.961 -0.5080 -2.9370 -0.7951
  129OSM    C4S13868   2.282   5.399   7.690 -0.1023  0.2854 -0.1905
  129OSM    H4S13869   2.253   5.501   7.658  0.7947  0.3600 -0.7833
  129OSM    C5S13870   2.259   5.302   7.597 -0.2070  0.0570 -0.7263
  129OSM    H5S13871   2.291   5.197   7.611 -1.0088 -0.0065  0.7471
  129OSM    C6S13872   2.209   5.332   7.462  0.7882  0.0915 -0.0015
  129OSM    H6S13873   2.166   5.434   7.468  0.1940 -0.2353  2.1447
  129OSM    H6T13874   2.121   5.266   7.448  0.1688  0.7556  0.6809
  129OSM    C7S13875   2.311   5.323   7.354 -0.4367  1.6470  0.0661
  129OSM    H7S13876   2.357   5.222   7.354  1.4876  2.4704 -1.1755
  129OSM    H7T13877   2.402   5.385   7.370  0.7148  0.4446 -1.4790
  129OSM    C8S13878   2.259   5.352   7.217 -0.4444  0.4928  0.0415
  129OSM    H8S13879   2.252   5.461   7.198 -3.0508  0.0941 -1.8123
  129OSM    H8T13880   2.153   5.319   7.208 -0.1132 -0.8060  0.7157
  129OSM    C9S13881   2.355   5.303   7.106 -0.0034  0.0178  0.1565
  129OSM    H9S13882   2.366   5.192   7.112 -0.6021 -0.0359  0.4129
  129OSM    H9T13883   2.453   5.347   7.133  0.9112 -2.3155  0.8750
  129OSM   C10S13884   2.301   5.338   6.964 -0.6356 -0.4501 -0.0129
  129OSM   H10S13885   2.282   5.443   6.933  0.1349 -0.3371 -0.1157
  129OSM   H10T13886   2.207   5.280   6.957  0.4280 -2.1162 -1.3495
  129OSM   C11S13887   2.383   5.274   6.855  0.2723  0.2914 -0.3048
  129OSM   H11S13888   2.442   5.187   6.892  0.9922  0.6724 -0.5336
  129OSM   H11T13889   2.464   5.340   6.817  1.6474 -0.1242  1.7397
  129OSM   C12S13890   2.312   5.220   6.728  0.4442 -0.0266  0.1228
  129OSM   H12S13891   2.263   5.305   6.676  0.1853 -1.5105 -2.1979
  129OSM   H12T13892   2.226   5.161   6.765 -0.2599  0.6521 -0.3897
  129OSM   C13S13893   2.400   5.137   6.634  0.5353 -0.2036 -0.1342
  129OSM   H13S13894   2.338   5.070   6.570  2.0824 -0.5730 -1.3051
  129OSM   H13T13895   2.474   5.077   6.691 -0.7510 -0.9263  0.8246
  129OSM   C14S13896   2.483   5.222   6.538 -0.0955  0.3134 -0.2896
  129OSM   H14S13897   2.567   5.278   6.584 -0.1589 -0.4525  0.7910
  129OSM   H14T13898   2.418   5.295   6.485  0.1018  0.4995 -0.2782
  129OSM   C15S13899   2.539   5.133   6.427 -0.0317 -0.3077 -0.7836
  129OSM   H15S13900   2.460   5.065   6.391 -0.9684  0.0330  0.5585
  129OSM   H15T13901   2.616   5.066   6.471  0.6724  0.2249 -1.1848
  129OSM   C16S13902   2.599   5.219   6.315  0.1727 -0.0030 -0.3046
  129OSM   H16S13903   2.691   5.274   6.344 -0.7807  2.1313 -1.0995
  129OSM   H16T13904   2.519   5.287   6.279 -1.1923 -0.2658  1.9799
  129OSM   C17S13905   2.644   5.132   6.194  0.2344  0.0408  0.3212
  129OSM   H17S13906   2.569   5.062   6.152 -1.8479  2.6127 -0.5810
  129OSM   H17T13907   2.729   5.070   6.230 -1.1737 -1.5341  1.0577
  129OSM   C18S13908   2.703   5.214   6.075  0.0404 -0.2495  0.0574
  129OSM   H18S13909   2.801   5.261   6.099  1.3973 -1.8628 -1.9557
  129OSM   H18T13910   2.629   5.293   6.053  0.4697 -0.1338 -1.0022
  129OSM   H18U13911   2.705   5.141   5.992 -1.2504  0.8505 -0.9858
  129OSM    C1F13912   2.700   5.371   7.706 -0.1131 -0.1586  0.3895
  129OSM     OF13913   2.758   5.288   7.770 -0.2624  0.3273  0.3367
  129OSM    C2F13914   2.773   5.431   7.585 -0.4224 -0.7051 -0.0456
  129OSM    H2F13915   2.882   5.416   7.601  0.3118  3.3845 -0.0763
  129OSM    H2G13916   2.755   5.538   7.564  2.8200 -0.7812 -4.5940
  129OSM    C3F13917   2.730   5.352   7.459  0.1582  0.8904 -0.3448
  129OSM    H3F13918   2.629   5.388   7.432  0.2079  0.1352 -1.6067
  129OSM    H3G13919   2.723   5.245   7.487 -1.5691  1.0346 -0.1660
  129OSM    C4F13920   2.815   5.374   7.339  0.6692 -0.5885 -0.3471
  129OSM    H4F13921   2.907   5.318   7.365 -0.6511 -1.1981  3.8989
  129OSM    H4G13922   2.843   5.477   7.308  0.6393 -0.5430 -0.2226
  129OSM    C5F13923   2.739   5.321   7.216 -0.4527 -0.1093  0.7283
  129OSM    H5F13924   2.654   5.384   7.185 -0.6956 -0.5161  0.5591
  129OSM    H5G13925   2.706   5.215   7.227  1.3986 -1.1307 -2.1720
  129OSM    C6F13926   2.824   5.319   7.088  0.3414 -0.3502 -0.1046
  129OSM    H6F13927   2.918   5.263   7.109  0.3795 -0.0572  0.5534
  129OSM    H6G13928   2.862   5.419   7.056  1.4080 -0.3424  1.0975
  129OSM    C7F13929   2.738   5.264   6.969  0.3270  0.5497 -0.1378
  129OSM    H7F13930   2.642   5.319   6.978  1.4083  2.3699  0.8484
  129OSM    H7G13931   2.714   5.156   6.983 -1.5671  0.9098 -0.3448
  129OSM    C8F13932   2.794   5.292   6.835 -0.1138  0.0498 -0.1547
  129OSM    H8F13933   2.777   5.402   6.831 -0.0229  0.0445 -0.7459
  129OSM    H8G13934   2.729   5.243   6.760 -1.5192  1.2688  0.2159
  129OSM    C9F13935   2.939   5.244   6.821 -0.1584  0.3542 -0.5709
  129OSM    H9F13936   2.984   5.205   6.914 -1.1955 -0.0495 -0.2250
  129OSM   C10F13937   3.012   5.217   6.714 -0.2238  0.1322  0.3536
  129OSM   H10F13938   3.119   5.196   6.721 -0.7431 -2.7787  0.6667
  129OSM   C11F13939   2.960   5.235   6.569  0.3071 -1.0073 -0.1047
  129OSM   H11F13940   2.876   5.308   6.560  3.0107  2.1776 -1.2637
  129OSM   H11G13941   2.934   5.140   6.518 -2.0938 -1.2426  1.4148
  129OSM   C12F13942   3.059   5.312   6.486 -0.5255  0.7381  1.1103
  129OSM   H12F13943   3.139   5.236   6.485  0.8404  2.0338 -2.5369
  129OSM   H12G13944   3.092   5.407   6.533  0.2493  2.1960 -2.1157
  129OSM   C13F13945   3.033   5.325   6.337  0.3899  0.4698  0.0318
  129OSM   H13F13946   2.951   5.399   6.323 -0.9825 -1.2264 -1.4620
  129OSM   H13G13947   3.003   5.229   6.289  0.7034 -0.2016  1.1443
  129OSM   C14F13948   3.170   5.373   6.268  0.3794 -0.3824  0.6508
  129OSM   H14F13949   3.237   5.285   6.266  1.9496  0.7896 -0.1296
  129OSM   H14G13950   3.215   5.452   6.332  0.6672  0.4179 -0.4989
  129OSM   C15F13951   3.140   5.422   6.122  0.2098  1.2054  0.3622
  129OSM   H15F13952   3.192   5.519   6.104  1.6915  0.4603  0.4404
  129OSM   H15G13953   3.032   5.444   6.112  0.3532  1.2238 -1.4267
  129OSM   C16F13954   3.202   5.325   6.011  0.2840 -0.0127  0.3355
  129OSM   H16F13955   3.153   5.225   6.010  0.9561 -0.3711  1.4743
  129OSM   H16G13956   3.310   5.303   6.025  0.6889  2.3807  1.3132
  129OSM   C17F13957   3.199   5.383   5.872 -0.5095  0.4896  0.3212
  129OSM   H17F13958   3.275   5.464   5.866 -0.9958  0.8551 -1.2018
  129OSM   H17G13959   3.098   5.427   5.858 -0.6142 -0.3434 -1.8680
  129OSM   C18F13960   3.231   5.273   5.769  0.3875  0.4067 -0.2291
  129OSM   H18F13961   3.338   5.245   5.780  0.7439  0.4413 -2.8225
  129OSM   H18G13962   3.224   5.316   5.666 -0.1801 -0.0953 -0.3989
  129OSM   H18H13963   3.183   5.174   5.773  0.0537  0.4992 -1.4713
  130OSM      N13964   2.652   6.604   8.221 -0.3257 -0.2526  0.9541
  130OSM    C1513965   2.735   6.622   8.092  0.4430  0.8022  0.5386
  130OSM   H15A13966   2.671   6.650   8.010 -0.9221  0.1736  1.3614
  130OSM   H15B13967   2.782   6.526   8.075 -0.8244 -0.3926  3.1682
  130OSM   H15C13968   2.813   6.696   8.100  0.2463  1.1736 -0.7328
  130OSM    C1413969   2.753   6.548   8.325  0.6781 -0.3398  0.4044
  130OSM   H14A13970   2.795   6.454   8.294  0.4628  0.0428 -1.1153
  130OSM   H14B13971   2.706   6.535   8.421 -2.4800  1.3583 -0.7875
  130OSM   H14C13972   2.844   6.607   8.338  1.4892 -1.4020 -0.3147
  130OSM    C1313973   2.590   6.724   8.275 -0.6292 -0.3829  0.4351
  130OSM   H13A13974   2.552   6.696   8.372 -0.7048  0.5505  0.6826
  130OSM   H13B13975   2.514   6.776   8.218 -3.1685 -0.2724  3.6575
  130OSM   H13C13976   2.665   6.800   8.289  1.1193 -1.3192 -2.7833
  130OSM    C1213977   2.546   6.503   8.182  1.0557  0.4444 -0.4483
  130OSM   H12A13978   2.511   6.453   8.272  0.2644  2.0723  0.1927
  130OSM   H12B13979   2.588   6.418   8.130 -1.3351 -2.3916  1.8746
  130OSM    C1113980   2.411   6.533   8.102  0.0714 -0.5582 -0.4712
  130OSM   H11A13981   2.366   6.432   8.088  0.3742 -0.8261  0.4397
  130OSM   H11B13982   2.431   6.579   8.003  1.4451  1.3041  0.6032
  130OSM      P13983   2.265   6.742   8.114 -0.1685  0.2029 -0.1620
  130OSM    O1313984   2.166   6.804   8.209 -0.4245 -0.3669  0.7182
  130OSM    O1413985   2.374   6.822   8.059  0.4885  0.5533  0.7737
  130OSM    O1113986   2.195   6.679   7.994 -0.3168 -0.4246  0.3182
  130OSM    O1213987   2.328   6.618   8.184 -0.3006 -0.1675  0.1991
  130OSM    C1S13988   2.128   6.763   7.896  0.5211  0.3218  0.3961
  130OSM    H1S13989   2.112   6.869   7.925 -0.0899  0.1923  0.5639
  130OSM    H1T13990   2.030   6.711   7.890  1.0568 -0.5267 -1.3661
  130OSM     NF13991   2.126   6.864   7.670 -0.1287 -0.5467  0.1765
  130OSM    HNF13992   2.044   6.820   7.633 -0.1666 -0.4025  0.0895
  130OSM    C2S13993   2.195   6.771   7.756  0.8852  0.4353  0.2761
  130OSM    H2S13994   2.297   6.813   7.758  0.0301  2.6346  0.5529
  130OSM    C3S13995   2.208   6.632   7.690 -0.3837 -0.3212 -0.4185
  130OSM    H3S13996   2.111   6.578   7.691 -0.1963 -0.6599  0.7787
  130OSM     O313997   2.295   6.542   7.755 -0.3035  0.7426 -0.4080
  130OSM    HO313998   2.310   6.580   7.842  2.3800 -1.1255  0.0629
  130OSM    C4S13999   2.248   6.636   7.547  0.0718 -0.1424  0.6497
  130OSM    H4S14000   2.351   6.670   7.527  0.5470 -2.1229 -0.5191
  130OSM    C5S14001   2.175   6.595   7.440 -0.3710  0.4307 -0.0893
  130OSM    H5S14002   2.082   6.539   7.456 -0.3227  0.7358  1.3226
  130OSM    C6S14003   2.225   6.603   7.298  0.5744 -0.5052  0.5172
  130OSM    H6S14004   2.242   6.503   7.252  0.5005 -0.7108  0.9334
  130OSM    H6T14005   2.325   6.651   7.299  0.2032  0.2799  0.5178
  130OSM    C7S14006   2.125   6.679   7.211 -0.9004  0.0069  0.8734
  130OSM    H7S14007   2.092   6.772   7.261 -1.1132  0.9941 -1.0213
  130OSM    H7T14008   2.045   6.608   7.184  0.8224 -1.5350 -0.4361
  130OSM    C8S14009   2.186   6.708   7.076  0.5579 -0.5225  0.1936
  130OSM    H8S14010   2.217   6.615   7.023  0.2058 -1.3133  1.3477
  130OSM    H8T14011   2.270   6.778   7.095 -0.3540  0.6533  0.0081
  130OSM    C9S14012   2.091   6.790   6.990 -0.1583 -0.1973  0.0863
  130OSM    H9S14013   2.070   6.880   7.053 -0.8794 -0.8465  0.7954
  130OSM    H9T14014   1.994   6.736   6.986 -1.1077  1.3631  0.8052
  130OSM   C10S14015   2.145   6.808   6.851 -0.6165 -1.0320  0.1080
  130OSM   H10S14016   2.237   6.868   6.867 -1.4298 -0.3118  2.4271
  130OSM   H10T14017   2.087   6.888   6.799  0.3516  1.3348  2.4439
  130OSM   C11S14018   2.149   6.683   6.764  0.4503 -0.4823 -0.1056
  130OSM   H11S14019   2.041   6.663   6.747  0.4854  0.8857 -2.2582
  130OSM   H11T14020   2.202   6.593   6.803  0.6255 -1.0115 -1.5147
  130OSM   C12S14021   2.194   6.711   6.618  0.4572  0.8878  0.3525
  130OSM   H12S14022   2.293   6.759   6.636 -0.9851  4.6150 -0.7508
  130OSM   H12T14023   2.129   6.789   6.573  0.7720  0.6279 -0.5623
  130OSM   C13S14024   2.199   6.583   6.539 -0.1729  0.7996  0.0025
  130OSM   H13S14025   2.104   6.526   6.552  0.2750  0.0188 -0.1078
  130OSM   H13T14026   2.279   6.512   6.569  0.2236  0.7390 -1.1492
  130OSM   C14S14027   2.221   6.614   6.389 -0.7795  0.2789 -0.5248
  130OSM   H14S14028   2.328   6.642   6.384 -0.7945  0.9484  1.8981
  130OSM   H14T14029   2.156   6.691   6.343 -0.2531  0.4169 -1.0442
  130OSM   C15S14030   2.206   6.484   6.314  0.2972  0.2709  0.3253
  130OSM   H15S14031   2.097   6.467   6.299  0.7289 -0.7761 -2.1554
  130OSM   H15T14032   2.247   6.404   6.379  1.4592  0.9239  0.4186
  130OSM   C16S14033   2.275   6.487   6.171 -0.0402 -0.0276 -0.9525
  130OSM   H16S14034   2.268   6.390   6.118 -0.2912 -0.5890  0.0883
  130OSM   H16T14035   2.380   6.519   6.185 -0.7318  2.4432 -0.9378
  130OSM   C17S14036   2.212   6.590   6.080 -0.4697 -0.2535  0.6698
  130OSM   H17S14037   2.200   6.685   6.137  4.4625  1.2493 -0.2614
  130OSM   H17T14038   2.112   6.553   6.048 -0.7014  0.0201  1.0682
  130OSM   C18S14039   2.293   6.639   5.956  0.8038 -0.2124  0.0717
  130OSM   H18S14040   2.393   6.677   5.986  0.2665  1.1913  0.2086
  130OSM   H18T14041   2.242   6.720   5.900  1.1914 -0.0537 -0.0575
  130OSM   H18U14042   2.307   6.559   5.880  2.9907  0.5551 -0.3987
  130OSM    C1F14043   2.131   7.000   7.676 -0.3712  0.1667  0.0388
  130OSM     OF14044   2.214   7.050   7.749  0.8562 -0.0571  0.3417
  130OSM    C2F14045   2.032   7.080   7.596 -0.2194  0.0849  0.2121
  130OSM    H2F14046   1.952   7.119   7.662  1.2909  0.4045  1.9265
  130OSM    H2G14047   1.988   7.020   7.513 -1.5262 -1.1046  1.7181
  130OSM    C3F14048   2.114   7.192   7.529 -0.3981  0.0801  0.2862
  130OSM    H3F14049   2.208   7.211   7.585 -0.4619  3.6447 -0.5573
  130OSM    H3G14050   2.054   7.285   7.537  2.9987  2.3407  1.7403
  130OSM    C4F14051   2.142   7.184   7.368 -0.0786  0.3142 -0.4872
  130OSM    H4F14052   2.186   7.283   7.345  0.7417  0.2615  0.7376
  130OSM    H4G14053   2.041   7.178   7.323  0.2926 -0.5457 -1.2432
  130OSM    C5F14054   2.237   7.070   7.322  0.6516  0.3706 -0.6411
  130OSM    H5F14055   2.221   7.042   7.216  0.5960  2.9076 -1.3720
  130OSM    H5G14056   2.214   6.980   7.384 -1.5955  1.5189  0.3201
  130OSM    C6F14057   2.383   7.107   7.343  0.1683 -0.5393  0.0152
  130OSM    H6F14058   2.407   7.135   7.448 -0.2258 -1.0208  0.2375
  130OSM    H6G14059   2.409   7.197   7.283 -0.7728  0.0351  0.4417
  130OSM    C7F14060   2.470   6.984   7.301  0.9394 -0.1421 -0.7797
  130OSM    H7F14061   2.402   6.898   7.315 -1.5900  2.1437  2.8790
  130OSM    H7G14062   2.552   6.965   7.374  1.6660 -0.2611 -1.6168
  130OSM    C8F14063   2.547   6.996   7.168 -0.3032 -0.3721 -0.0049
  130OSM    H8F14064   2.613   6.906   7.168  0.7108  0.3455 -1.0252
  130OSM    H8G14065   2.611   7.085   7.183 -0.6437 -0.2435  0.6981
  130OSM    C9F14066   2.468   7.010   7.036  0.0966 -0.0054 -0.2564
  130OSM    H9F14067   2.394   6.929   7.035  0.0210  0.0631 -0.2097
  130OSM   C10F14068   2.469   7.106   6.947 -0.0331  0.2962 -0.1166
  130OSM   H10F14069   2.407   7.094   6.857 -0.0269 -0.5974 -0.0158
  130OSM   C11F14070   2.561   7.227   6.929 -0.0067 -0.2935  0.3181
  130OSM   H11F14071   2.619   7.230   7.024  0.5946  0.2226 -0.0565
  130OSM   H11G14072   2.512   7.323   6.903  1.4670  0.1795 -0.9171
  130OSM   C12F14073   2.670   7.206   6.814  0.2922 -0.3006 -0.3086
  130OSM   H12F14074   2.612   7.244   6.727 -0.9276  0.4952  0.8095
  130OSM   H12G14075   2.697   7.098   6.809 -1.5883 -0.9571  1.9295
  130OSM   C13F14076   2.786   7.300   6.834 -0.2759 -0.1195 -0.0785
  130OSM   H13F14077   2.830   7.288   6.936 -0.3887 -0.3786 -0.0602
  130OSM   H13G14078   2.759   7.408   6.827  1.4787  0.4273  0.7390
  130OSM   C14F14079   2.896   7.278   6.730 -0.0589  0.1838 -0.3717
  130OSM   H14F14080   2.925   7.171   6.740  1.1728  0.6054  0.7631
  130OSM   H14G14081   2.982   7.347   6.746 -0.9499  1.3181 -0.3606
  130OSM   C15F14082   2.849   7.294   6.579  0.4772  0.5330 -0.9868
  130OSM   H15F14083   2.818   7.400   6.564  1.0880  1.0185  0.9025
  130OSM   H15G14084   2.749   7.246   6.566  2.1541 -3.4133 -0.7480
  130OSM   C16F14085   2.945   7.231   6.482  0.0993  0.0127 -0.5111
  130OSM   H16F14086   2.962   7.126   6.516  0.7001  0.7018  1.4703
  130OSM   H16G14087   3.041   7.286   6.490  0.2974 -0.4054  0.0681
  130OSM   C17F14088   2.889   7.221   6.336  0.5904  0.6798 -0.6544
  130OSM   H17F14089   2.849   7.319   6.303 -1.1053 -0.1343 -1.1148
  130OSM   H17G14090   2.804   7.151   6.350  0.4928  1.3052  2.8788
  130OSM   C18F14091   2.979   7.152   6.239 -0.2636 -0.4218 -0.3398
  130OSM   H18F14092   2.927   7.147   6.141  1.0167  0.5588 -1.1150
  130OSM   H18G14093   3.032   7.058   6.264  0.6584  0.0313 -0.5321
  130OSM   H18H14094   3.055   7.227   6.206  0.9065 -1.5254 -0.2427
  131OSM      N14095   2.867   1.774   8.581 -0.3010 -0.3727  0.0324
  131OSM    C1514096   2.971   1.681   8.637  0.9267 -0.0282 -0.2209
  131OSM   H15A14097   2.945   1.576   8.635 -1.8714  0.6070 -0.5870
  131OSM   H15B14098   2.976   1.692   8.745 -0.4749 -1.2038 -0.0025
  131OSM   H15C14099   3.063   1.692   8.581  2.2529 -1.4316  1.5560
  131OSM    C1414100   2.826   1.741   8.438  0.2314 -0.5882  0.3074
  131OSM   H14A14101   2.739   1.801   8.420 -0.4632 -1.3749  0.9368
  131OSM   H14B14102   2.808   1.636   8.418 -2.6625 -0.1035 -0.0603
  131OSM   H14C14103   2.903   1.769   8.367  1.0726 -0.8109  1.0990
  131OSM    C1314104   2.744   1.753   8.668  0.0549  0.2411 -0.1148
  131OSM   H13A14105   2.684   1.841   8.656  0.1462  0.3129 -0.0455
  131OSM   H13B14106   2.779   1.747   8.770 -1.6827 -0.5753  0.4671
  131OSM   H13C14107   2.697   1.659   8.644  0.4029 -0.2118  0.9037
  131OSM    C1214108   2.912   1.918   8.590 -0.0493  0.9085  0.0456
  131OSM   H12A14109   3.000   1.937   8.531  0.3050 -0.8233 -0.0152
  131OSM   H12B14110   2.949   1.937   8.690  0.5296  0.7421 -0.1302
  131OSM    C1114111   2.809   2.030   8.549 -0.8119 -0.2993  0.4701
  131OSM   H11A14112   2.779   2.020   8.443  1.4082  2.8016 -0.5871
  131OSM   H11B14113   2.875   2.119   8.550 -0.4032 -0.5632 -0.9680
  131OSM      P14114   2.590   2.149   8.614  0.0492 -0.2867 -0.2948
  131OSM    O1314115   2.516   2.163   8.745 -0.2780  0.4057 -0.0474
  131OSM    O1414116   2.649   2.268   8.555 -0.0933 -0.2568 -0.2878
  131OSM    O1114117   2.480   2.090   8.510  0.1563 -0.9383 -0.1203
  131OSM    O1214118   2.692   2.036   8.626 -0.1835 -0.2318 -0.4429
  131OSM    C1S14119   2.430   2.162   8.397 -0.1948  0.1348 -0.0716
  131OSM    H1S14120   2.432   2.272   8.412  0.2418 -0.0593  1.4194
  131OSM    H1T14121   2.327   2.123   8.378  0.9556 -2.4283 -1.5630
  131OSM     NF14122   2.459   2.205   8.156 -0.0082 -0.3077 -0.0553
  131OSM    HNF14123   2.384   2.154   8.115 -0.8194 -1.7605  2.9265
  131OSM    C2S14124   2.512   2.123   8.268 -0.2129 -0.2650  0.7823
  131OSM    H2S14125   2.618   2.151   8.279  0.2672 -2.2370  1.6342
  131OSM    C3S14126   2.492   1.969   8.251  0.7434  0.6946  0.1259
  131OSM    H3S14127   2.382   1.957   8.260  0.6170  0.9704 -0.9328
  131OSM     O314128   2.544   1.900   8.362  0.4537  0.2131 -0.0361
  131OSM    HO314129   2.554   1.957   8.438  0.7787 -0.4508  0.4299
  131OSM    C4S14130   2.549   1.915   8.128 -0.0707  0.4127  0.4941
  131OSM    H4S14131   2.653   1.946   8.111 -1.0340  4.1750  0.5922
  131OSM    C5S14132   2.483   1.869   8.020  0.1225  0.1062  0.5790
  131OSM    H5S14133   2.375   1.886   8.023  0.2366  0.7190  2.1392
  131OSM    C6S14134   2.540   1.823   7.893 -0.2452  0.2386  0.2219
  131OSM    H6S14135   2.470   1.738   7.874 -0.3625 -0.1918  2.2985
  131OSM    H6T14136   2.649   1.802   7.889 -0.2129  0.2698  0.8133
  131OSM    C7S14137   2.494   1.915   7.772 -0.6920  1.5316  0.3000
  131OSM    H7S14138   2.557   2.006   7.764  4.8734 -1.8512  0.5659
  131OSM    H7T14139   2.385   1.935   7.784 -1.1295  0.7408 -1.8657
  131OSM    C8S14140   2.497   1.818   7.647 -0.4355 -0.1534 -0.1849
  131OSM    H8S14141   2.451   1.722   7.678 -0.3509  0.0855  0.7350
  131OSM    H8T14142   2.607   1.809   7.634 -0.2340  0.7728  0.7198
  131OSM    C9S14143   2.433   1.868   7.525  0.6739 -0.4561  0.4206
  131OSM    H9S14144   2.476   1.963   7.487 -1.1037  0.3813  0.4437
  131OSM    H9T14145   2.323   1.874   7.537  0.3980 -1.2418 -1.3309
  131OSM   C10S14146   2.448   1.761   7.413 -0.5127 -0.3632  0.2403
  131OSM   H10S14147   2.421   1.661   7.455  1.0281 -0.3282  1.3927
  131OSM   H10T14148   2.550   1.756   7.370 -0.6053 -2.6062  0.1641
  131OSM   C11S14149   2.354   1.785   7.295 -0.6071  0.5704 -0.3308
  131OSM   H11S14150   2.410   1.851   7.226  0.6812  0.6183  0.7194
  131OSM   H11T14151   2.260   1.830   7.334  0.8640  1.2047  2.8095
  131OSM   C12S14152   2.309   1.655   7.231  0.0342 -0.4281 -0.0997
  131OSM   H12S14153   2.233   1.604   7.294 -0.8728  0.6994 -0.2429
  131OSM   H12T14154   2.398   1.587   7.230  1.0071  0.7509  1.9277
  131OSM   C13S14155   2.256   1.680   7.085  0.3573  0.2154 -0.0912
  131OSM   H13S14156   2.219   1.785   7.082 -0.4895  0.0019  1.6536
  131OSM   H13T14157   2.182   1.599   7.069 -0.3588  0.6263  1.0571
  131OSM   C14S14158   2.353   1.657   6.974  0.6741  0.2845 -0.3688
  131OSM   H14S14159   2.288   1.643   6.885 -0.5462 -0.5491  0.6217
  131OSM   H14T14160   2.417   1.566   6.978  0.5905  0.2579  0.6731
  131OSM   C15S14161   2.428   1.792   6.950 -0.2247  0.0272 -0.5454
  131OSM   H15S14162   2.506   1.814   7.026 -1.4136  1.0594  0.4200
  131OSM   H15T14163   2.357   1.878   6.947  0.4498  0.5907 -0.4869
  131OSM   C16S14164   2.484   1.794   6.805  0.5605  0.3090  0.1354
  131OSM   H16S14165   2.408   1.757   6.733  2.2350 -2.2242 -0.4569
  131OSM   H16T14166   2.566   1.720   6.799 -1.3486 -2.0107  1.1117
  131OSM   C17S14167   2.551   1.935   6.766 -0.2375  0.0910 -0.1294
  131OSM   H17S14168   2.630   1.910   6.691  0.2493  1.0274  0.0489
  131OSM   H17T14169   2.622   1.966   6.846  1.2880 -1.0612 -0.9883
  131OSM   C18S14170   2.446   2.027   6.696 -0.0823 -0.4837  0.1264
  131OSM   H18S14171   2.363   2.054   6.765  0.9465 -0.7056  1.4889
  131OSM   H18T14172   2.405   1.982   6.604  0.9970  0.4559 -0.8480
  131OSM   H18U14173   2.500   2.120   6.667  1.1397 -1.8248 -2.1494
  131OSM    C1F14174   2.490   2.333   8.132 -0.0082  0.0062 -0.6610
  131OSM     OF14175   2.592   2.376   8.179  0.0614 -0.0012  0.2268
  131OSM    C2F14176   2.402   2.408   8.044  0.6030 -0.6955  0.1182
  131OSM    H2F14177   2.455   2.491   7.992 -0.0561 -1.3851 -1.7292
  131OSM    H2G14178   2.326   2.462   8.105  0.3655 -2.5392  1.5454
  131OSM    C3F14179   2.343   2.334   7.928 -0.8623 -0.5674  0.1129
  131OSM    H3F14180   2.263   2.264   7.960 -1.2204  0.0959  0.6938
  131OSM    H3G14181   2.415   2.263   7.881 -1.2364 -0.0263 -1.3402
  131OSM    C4F14182   2.305   2.415   7.803  0.0128 -0.3460  0.8785
  131OSM    H4F14183   2.379   2.495   7.781 -0.5389  0.2283  1.0520
  131OSM    H4G14184   2.213   2.475   7.820  0.2105  0.6111 -1.1925
  131OSM    C5F14185   2.300   2.340   7.671  0.3477 -0.0765 -0.0027
  131OSM    H5F14186   2.249   2.243   7.691 -0.4694 -0.0058 -1.5969
  131OSM    H5G14187   2.403   2.314   7.638  0.2907 -0.6425  0.2510
  131OSM    C6F14188   2.237   2.414   7.556  0.3154 -0.1924 -0.2095
  131OSM    H6F14189   2.312   2.490   7.528 -1.0251  1.4995  0.6048
  131OSM    H6G14190   2.141   2.459   7.590 -0.5774 -1.5205 -0.8854
  131OSM    C7F14191   2.212   2.331   7.433 -0.0312  0.2870  0.4667
  131OSM    H7F14192   2.132   2.360   7.362  1.2707  1.2498 -0.6334
  131OSM    H7G14193   2.184   2.228   7.466  3.1267 -1.1847 -1.0745
  131OSM    C8F14194   2.331   2.326   7.345 -0.3841  0.1098 -0.2458
  131OSM    H8F14195   2.417   2.300   7.410 -0.0219  1.7590 -0.0071
  131OSM    H8G14196   2.349   2.431   7.311 -2.6636  1.2626  1.8055
  131OSM    C9F14197   2.327   2.219   7.238  0.0529  0.2279 -0.2597
  131OSM    H9F14198   2.293   2.126   7.286  0.6939  0.1005 -0.0381
  131OSM   C10F14199   2.358   2.228   7.110  0.0754  0.6828  0.5516
  131OSM   H10F14200   2.362   2.139   7.045 -0.1399  0.4817  0.8116
  131OSM   C11F14201   2.403   2.352   7.033  0.1737 -0.2232 -0.3448
  131OSM   H11F14202   2.508   2.383   7.051  0.4763 -0.1388 -2.0872
  131OSM   H11G14203   2.332   2.431   7.064  0.9574  1.4925 -2.6531
  131OSM   C12F14204   2.394   2.334   6.882 -0.0299 -0.4759 -0.7613
  131OSM   H12F14205   2.454   2.252   6.837 -0.2332  0.5112 -2.9773
  131OSM   H12G14206   2.445   2.422   6.837  1.5421  0.4043  2.4648
  131OSM   C13F14207   2.249   2.325   6.830 -0.5878  0.1371 -0.7180
  131OSM   H13F14208   2.198   2.399   6.896 -1.8663  1.1017 -2.6835
  131OSM   H13G14209   2.210   2.221   6.831  2.3976 -1.0915 -0.8556
  131OSM   C14F14210   2.237   2.375   6.685  0.4627 -0.2011 -0.0690
  131OSM   H14F14211   2.311   2.312   6.632  0.5080  0.7347 -1.1571
  131OSM   H14G14212   2.268   2.481   6.675 -3.0704  1.1463  1.6801
  131OSM   C15F14213   2.094   2.354   6.637 -0.6123  0.2227 -0.3453
  131OSM   H15F14214   2.030   2.427   6.690  0.2692  2.3481 -2.0995
  131OSM   H15G14215   2.050   2.261   6.681 -0.0367 -1.2948 -2.7832
  131OSM   C16F14216   2.067   2.372   6.487 -0.0466  0.4547 -0.7104
  131OSM   H16F14217   2.079   2.482   6.476  0.8100  0.5689  1.0434
  131OSM   H16G14218   1.960   2.343   6.475 -0.0863 -0.3880  1.3388
  131OSM   C17F14219   2.167   2.301   6.392  0.2737 -0.0831  0.0414
  131OSM   H17F14220   2.174   2.192   6.407 -1.6700 -0.7716 -3.1532
  131OSM   H17G14221   2.265   2.354   6.397  0.3247 -0.2685  3.5720
  131OSM   C18F14222   2.128   2.309   6.239  0.7028  0.2305  0.2710
  131OSM   H18F14223   2.134   2.411   6.195  1.2322 -0.9152 -2.5089
  131OSM   H18G14224   2.030   2.258   6.226  2.0995 -2.3108 -0.9837
  131OSM   H18H14225   2.198   2.249   6.178  0.0661 -0.4732  0.2172
  132OSM      N14226   2.435   0.256   0.032  0.6514  0.5204  0.0480
  132OSM    C1514227   2.540   0.195  -0.060 -0.3306  0.2885 -0.4103
  132OSM   H15A14228   2.543   0.088  -0.050 -0.5655  0.4076  1.3808
  132OSM   H15B14229   2.639   0.222  -0.027 -0.4674 -0.3206  0.5604
  132OSM   H15C14230   2.535   0.235  -0.160 -1.3816 -0.0574 -0.5015
  132OSM    C1414231   2.303   0.180  -0.007 -0.5520 -0.1631  0.2185
  132OSM   H14A14232   2.231   0.195   0.072 -2.3367  0.2248 -1.4005
  132OSM   H14B14233   2.316   0.075  -0.032  0.5904 -0.1905  0.8591
  132OSM   H14C14234   2.274   0.234  -0.095  0.9119  5.1332  2.5919
  132OSM    C1314235   2.468   0.226   0.179 -0.7521 -1.0681  0.0680
  132OSM   H13A14236   2.571   0.237   0.208 -0.7845  0.5611 -0.3508
  132OSM   H13B14237   2.445   0.123   0.202 -2.8448 -0.3920  1.2714
  132OSM   H13C14238   2.402   0.282   0.243 -0.2904  0.3448 -0.6572
  132OSM    C1214239   2.424   0.406   0.010  0.3835  0.5358  0.0457
  132OSM   H12A14240   2.517   0.457   0.027  0.3786 -0.0301  1.9988
  132OSM   H12B14241   2.355   0.445   0.083  1.7271 -2.3169  3.0943
  132OSM    C1114242   2.378   0.441  -0.134 -0.3296  1.0519  0.1837
  132OSM   H11A14243   2.451   0.402  -0.209 -0.4907  2.2370 -0.6096
  132OSM   H11B14244   2.378   0.550  -0.151 -1.4227  0.8684 -1.1126
  132OSM      P14245   2.184   0.419  -0.306 -0.2244  0.1238  0.0612
  132OSM    O1314246   2.050   0.364  -0.305  0.0483 -0.4755 -0.3785
  132OSM    O1414247   2.208   0.556  -0.357  0.2883  0.2247  0.2751
  132OSM    O1114248   2.282   0.315  -0.373 -0.4849 -0.4248  0.0088
  132OSM    O1214249   2.241   0.411  -0.162  0.6318  0.1840  0.8460
  132OSM    C1S14250   2.300   0.317  -0.517 -0.3226  0.1194 -0.1396
  132OSM    H1S14251   2.223   0.377  -0.569 -1.0936  0.4007  1.2812
  132OSM    H1T14252   2.283   0.212  -0.551 -0.3988  0.4120 -1.0147
  132OSM     NF14253   2.435   0.417  -0.697 -0.6903 -0.5229 -0.6712
  132OSM    HNF14254   2.452   0.358  -0.775 -0.3775 -1.6580  0.2228
  132OSM    C2S14255   2.445   0.372  -0.558  0.3051  0.6396  0.4153
  132OSM    H2S14256   2.468   0.459  -0.494 -0.4407  1.2052 -0.0604
  132OSM    C3S14257   2.536   0.256  -0.526 -0.1301  0.7126  0.4079
  132OSM    H3S14258   2.490   0.171  -0.581 -1.2938  1.4484  0.2137
  132OSM     O314259   2.543   0.220  -0.387 -0.2128 -0.4881 -0.0470
  132OSM    HO314260   2.462   0.251  -0.347  1.3240  3.1542  0.6541
  132OSM    C4S14261   2.674   0.292  -0.573  0.1813  0.7945  0.2807
  132OSM    H4S14262   2.724   0.365  -0.507 -0.4014  2.4723 -1.0809
  132OSM    C5S14263   2.748   0.229  -0.665  0.2422 -0.2180  0.5317
  132OSM    H5S14264   2.703   0.137  -0.706  0.1437 -1.1698  2.6222
  132OSM    C6S14265   2.890   0.258  -0.700  0.1789  0.1837 -0.0284
  132OSM    H6S14266   2.947   0.164  -0.687 -1.8422 -1.1771 -0.5755
  132OSM    H6T14267   2.926   0.333  -0.626  0.5100  0.3794 -0.3867
  132OSM    C7S14268   2.915   0.315  -0.846 -0.0351 -0.4011 -0.3941
  132OSM    H7S14269   2.852   0.401  -0.878  3.4769  2.0232 -1.3819
  132OSM    H7T14270   2.892   0.231  -0.915  0.7495 -1.0785  0.1399
  132OSM    C8S14271   3.057   0.376  -0.871  0.0623  0.7936  0.0555
  132OSM    H8S14272   3.136   0.303  -0.846 -0.3600 -0.2452 -1.4827
  132OSM    H8T14273   3.053   0.449  -0.787 -1.7696 -2.1442  2.7405
  132OSM    C9S14274   3.081   0.444  -1.004  0.1984  0.1440 -0.5502
  132OSM    H9S14275   2.995   0.512  -1.018  0.0416  1.4084  4.6261
  132OSM    H9T14276   3.094   0.358  -1.074 -2.6021 -0.6851 -0.1950
  132OSM   C10S14277   3.206   0.529  -1.003 -1.3896 -0.6454  0.7612
  132OSM   H10S14278   3.299   0.475  -0.975 -1.2699  0.6878  3.2655
  132OSM   H10T14279   3.198   0.611  -0.929  0.6832 -0.2277  0.5759
  132OSM   C11S14280   3.226   0.595  -1.143 -0.4485 -0.1538  0.2449
  132OSM   H11S14281   3.140   0.658  -1.172 -1.2196 -1.2004  0.2003
  132OSM   H11T14282   3.245   0.512  -1.215  0.8848  2.0185 -2.1070
  132OSM   C12S14283   3.359   0.671  -1.148 -0.0017 -0.6556 -0.0317
  132OSM   H12S14284   3.440   0.613  -1.100  0.0715  0.7363  1.6453
  132OSM   H12T14285   3.346   0.759  -1.082 -1.3435 -2.5561  2.3871
  132OSM   C13S14286   3.410   0.711  -1.285  0.5134 -0.1283  0.0069
  132OSM   H13S14287   3.340   0.751  -1.361  1.9499 -1.5970 -2.1803
  132OSM   H13T14288   3.452   0.621  -1.335  1.1666  1.4561 -2.4955
  132OSM   C14S14289   3.523   0.814  -1.280 -0.1655  0.4499  0.8972
  132OSM   H14S14290   3.584   0.816  -1.187  2.0413 -0.1414 -0.4413
  132OSM   H14T14291   3.483   0.917  -1.274  0.9155  0.7920  2.9624
  132OSM   C15S14292   3.607   0.817  -1.410 -0.1763  0.0187  0.2134
  132OSM   H15S14293   3.665   0.912  -1.416  0.8308 -0.5928 -0.1997
  132OSM   H15T14294   3.553   0.812  -1.507  2.0207  1.5428 -1.1892
  132OSM   C16S14295   3.702   0.694  -1.423  0.4816 -0.2919 -0.5427
  132OSM   H16S14296   3.649   0.597  -1.427 -1.5694  0.6389  1.4702
  132OSM   H16T14297   3.769   0.689  -1.334 -1.2452 -1.8941  0.7428
  132OSM   C17S14298   3.785   0.697  -1.550 -0.1911  0.4073 -0.6208
  132OSM   H17S14299   3.817   0.803  -1.563 -1.4735  0.7609 -0.9985
  132OSM   H17T14300   3.717   0.686  -1.637  0.1711  0.5737 -0.9305
  132OSM   C18S14301   3.897   0.592  -1.554  0.3185  0.4370 -0.4503
  132OSM   H18S14302   3.940   0.578  -1.453  0.5319 -1.7841 -0.7834
  132OSM   H18T14303   3.983   0.623  -1.616  0.5493 -1.6344 -1.2725
  132OSM   H18U14304   3.866   0.489  -1.582 -0.1070 -0.0594  1.6713
  132OSM    C1F14305   2.387   0.536  -0.734 -0.2819  0.2821 -0.2212
  132OSM     OF14306   2.372   0.626  -0.651  1.0074 -0.3531  0.1106
  132OSM    C2F14307   2.344   0.533  -0.877 -0.1146 -0.4911 -0.3445
  132OSM    H2F14308   2.246   0.480  -0.875  0.5931 -1.9297 -1.2602
  132OSM    H2G14309   2.416   0.471  -0.935 -0.0814 -0.2853 -0.5250
  132OSM    C3F14310   2.321   0.680  -0.936  0.2456 -0.1945 -0.0592
  132OSM    H3F14311   2.404   0.751  -0.914  0.9138 -1.6127  2.4639
  132OSM    H3G14312   2.226   0.713  -0.888  0.6950 -0.4237  1.0254
  132OSM    C4F14313   2.294   0.670  -1.092  0.5279  0.5768 -0.0819
  132OSM    H4F14314   2.188   0.639  -1.100  0.3130  1.7937 -2.9660
  132OSM    H4G14315   2.367   0.596  -1.131  2.1794  0.6417  2.5760
  132OSM    C5F14316   2.313   0.798  -1.172 -1.0263 -0.0913  0.4172
  132OSM    H5F14317   2.418   0.834  -1.163 -1.1043  0.4230 -0.5728
  132OSM    H5G14318   2.256   0.883  -1.128 -0.9312  0.3271 -0.2464
  132OSM    C6F14319   2.295   0.780  -1.317  0.1393 -0.1739  0.8181
  132OSM    H6F14320   2.373   0.713  -1.358 -1.0659  0.6665 -3.2210
  132OSM    H6G14321   2.314   0.878  -1.365 -1.0210  0.8167  2.2821
  132OSM    C7F14322   2.158   0.731  -1.378 -0.3431 -0.8114  0.0563
  132OSM    H7F14323   2.076   0.794  -1.338  1.0623  2.6261 -2.0559
  132OSM    H7G14324   2.129   0.624  -1.365  0.4292 -0.8048  2.4772
  132OSM    C8F14325   2.164   0.770  -1.530 -0.2674 -0.0928 -0.6058
  132OSM    H8F14326   2.188   0.877  -1.547  1.2804 -0.1654  0.7755
  132OSM    H8G14327   2.068   0.741  -1.577 -0.0898 -0.6913 -0.6101
  132OSM    C9F14328   2.250   0.670  -1.596 -0.4619 -0.1357 -0.7740
  132OSM    H9F14329   2.249   0.567  -1.555 -1.2400  1.2724  3.1813
  132OSM   C10F14330   2.321   0.678  -1.706 -0.0821 -0.0460  0.5016
  132OSM   H10F14331   2.375   0.585  -1.729  1.5854  1.1561 -0.7273
  132OSM   C11F14332   2.336   0.792  -1.800 -0.0259 -0.2672 -0.1724
  132OSM   H11F14333   2.292   0.892  -1.782  1.7877  0.9533 -1.9295
  132OSM   H11G14334   2.295   0.764  -1.900  0.9823  0.9307 -0.9514
  132OSM   C12F14335   2.480   0.850  -1.816 -0.0207  0.7665  0.1853
  132OSM   H12F14336   2.539   0.760  -1.843 -2.2496 -0.6365 -0.2721
  132OSM   H12G14337   2.523   0.895  -1.724  0.7685  2.2810 -0.8738
  132OSM   C13F14338   2.501   0.949  -1.927 -0.1823  0.8254 -0.1805
  132OSM   H13F14339   2.442   1.040  -1.905 -0.2989  0.7347 -0.1204
  132OSM   H13G14340   2.455   0.915  -2.022 -1.2559  0.0302  0.5961
  132OSM   C14F14341   2.650   0.987  -1.946 -0.6821  0.0300  0.7911
  132OSM   H14F14342   2.682   1.048  -1.859 -1.5376 -0.2671  1.3264
  132OSM   H14G14343   2.661   1.051  -2.036 -0.2841 -3.0864 -1.5207
  132OSM   C15F14344   2.751   0.871  -1.951  0.3516  0.5050  0.1516
  132OSM   H15F14345   2.708   0.777  -1.993  0.2211  0.1740  1.0043
  132OSM   H15G14346   2.766   0.838  -1.846 -1.3195 -0.0647  0.2472
  132OSM   C16F14347   2.885   0.903  -2.015  0.0028 -0.2012 -0.7878
  132OSM   H16F14348   2.948   0.952  -1.938 -0.3648 -0.3019 -0.4187
  132OSM   H16G14349   2.861   0.976  -2.095 -0.3770  0.8185  0.2309
  132OSM   C17F14350   2.958   0.780  -2.069  0.1739 -0.5063  0.2407
  132OSM   H17F14351   2.896   0.742  -2.153 -2.3600  3.3939  0.0943
  132OSM   H17G14352   2.964   0.720  -1.975  2.1014 -1.3909 -0.3991
  132OSM   C18F14353   3.096   0.804  -2.135 -0.2387 -0.5268  0.1629
  132OSM   H18F14354   3.122   0.726  -2.211 -0.9036 -0.7801  0.1844
  132OSM   H18G14355   3.179   0.791  -2.063 -0.1259 -2.0523 -0.1971
  132OSM   H18H14356   3.094   0.902  -2.187  1.4953 -0.3201  0.4249
  133OSM      N14357   6.551   6.270   8.381 -0.0105  0.4318  0.6229
  133OSM    C1514358   6.459   6.213   8.482 -0.3190  0.4511  0.4955
  133OSM   H15A14359   6.355   6.237   8.472 -0.2944  0.1477 -0.5518
  133OSM   H15B14360   6.483   6.242   8.584 -3.9952  3.8074  0.6354
  133OSM   H15C14361   6.462   6.105   8.479 -0.2464  0.3435  2.5588
  133OSM    C1414362   6.688   6.192   8.398  0.4290 -0.2317  0.3532
  133OSM   H14A14363   6.730   6.214   8.495  1.1426  5.9563 -0.9432
  133OSM   H14B14364   6.759   6.224   8.323 -2.0944 -0.0830 -2.1727
  133OSM   H14C14365   6.660   6.088   8.387 -0.5417  0.0374  0.1755
  133OSM    C1314366   6.486   6.241   8.244 -0.3660  0.2078  0.1609
  133OSM   H13A14367   6.558   6.241   8.163 -1.5492 -0.4030 -0.9237
  133OSM   H13B14368   6.427   6.329   8.224  0.1276  0.4509 -0.2492
  133OSM   H13C14369   6.422   6.155   8.257 -0.3337  0.1316 -0.1774
  133OSM    C1214370   6.575   6.417   8.406  0.5108  1.6136 -0.3841
  133OSM   H12A14371   6.639   6.418   8.493  1.3176  0.8352 -0.9547
  133OSM   H12B14372   6.482   6.464   8.435  0.2082  1.3980 -0.9847
  133OSM    C1114373   6.642   6.489   8.286  0.3001 -0.7502  0.0104
  133OSM   H11A14374   6.629   6.597   8.307 -0.3902 -0.7326 -0.4824
  133OSM   H11B14375   6.597   6.460   8.189 -1.3466 -1.4698  0.9526
  133OSM      P14376   6.895   6.547   8.319  0.6167  0.0273 -0.1234
  133OSM    O1314377   6.879   6.609   8.456 -0.5752  0.1217  0.3455
  133OSM    O1414378   7.025   6.474   8.300  0.5062  0.3067  0.6097
  133OSM    O1114379   6.880   6.661   8.203  0.5939  0.0234 -0.3316
  133OSM    O1214380   6.778   6.448   8.292 -0.1210  0.0447  0.6467
  133OSM    C1S14381   6.908   6.626   8.070 -0.2578  0.4877  0.4034
  133OSM    H1S14382   6.933   6.518   8.058  1.7215  0.7502  1.5793
  133OSM    H1T14383   7.004   6.677   8.044  0.8478 -1.3346  0.7329
  133OSM     NF14384   6.839   6.611   7.827 -0.3088 -0.6015  0.2431
  133OSM    HNF14385   6.908   6.659   7.773 -1.0455 -0.7736 -0.8888
  133OSM    C2S14386   6.812   6.672   7.963  0.5488  0.4066  0.4661
  133OSM    H2S14387   6.709   6.646   7.996  0.4880  0.8278  0.6295
  133OSM    C3S14388   6.814   6.829   7.962  0.2150 -0.0035  0.2427
  133OSM    H3S14389   6.918   6.860   7.937  0.6096 -0.4393  1.2891
  133OSM     O314390   6.786   6.875   8.095 -0.0285 -0.5672 -0.5474
  133OSM    HO314391   6.793   6.792   8.143  0.3209 -1.0324 -1.3618
  133OSM    C4S14392   6.723   6.872   7.852  0.5748 -0.3051  0.0592
  133OSM    H4S14393   6.775   6.894   7.757  0.1428 -1.6174 -0.5104
  133OSM    C5S14394   6.589   6.882   7.848 -0.0704  0.0533 -0.0368
  133OSM    H5S14395   6.546   6.852   7.945  1.2661 -0.4516  0.4231
  133OSM    C6S14396   6.505   6.941   7.733  0.2787  0.4233 -0.2216
  133OSM    H6S14397   6.474   7.047   7.746  0.7377  0.7821 -1.8784
  133OSM    H6T14398   6.408   6.887   7.734  1.6218 -2.1644 -0.1226
  133OSM    C7S14399   6.583   6.926   7.597  0.3931 -0.4222 -0.3147
  133OSM    H7S14400   6.624   6.827   7.569 -1.6052 -0.9719 -1.4501
  133OSM    H7T14401   6.670   6.994   7.609  0.5428 -0.7175  0.3579
  133OSM    C8S14402   6.498   6.986   7.484  0.5539  0.2073 -0.6765
  133OSM    H8S14403   6.445   7.079   7.512  1.2736  0.4792 -0.1769
  133OSM    H8T14404   6.420   6.910   7.466 -1.0436  1.4251  0.8127
  133OSM    C9S14405   6.576   7.007   7.357  0.2949 -0.3801  0.5838
  133OSM    H9S14406   6.671   7.059   7.378  0.0066  1.1788 -1.6199
  133OSM    H9T14407   6.526   7.083   7.293  5.0870  2.4984 -0.1982
  133OSM   C10S14408   6.589   6.877   7.280 -0.1194  0.4449  0.3197
  133OSM   H10S14409   6.493   6.828   7.252 -1.9301  3.9286 -0.0930
  133OSM   H10T14410   6.659   6.811   7.337 -2.1808 -1.4794  0.8087
  133OSM   C11S14411   6.650   6.896   7.147 -0.4373  0.2949 -0.9035
  133OSM   H11S14412   6.659   6.799   7.093  1.8250  0.1924 -0.4375
  133OSM   H11T14413   6.757   6.925   7.159 -1.0708  1.9865  1.3269
  133OSM   C12S14414   6.576   6.986   7.039 -0.1624 -0.0456 -0.2114
  133OSM   H12S14415   6.532   7.081   7.077  0.4176  0.6541 -1.2378
  133OSM   H12T14416   6.487   6.925   7.017 -0.5069  0.3848 -0.0336
  133OSM   C13S14417   6.648   6.982   6.898 -0.0341  0.2021  0.6341
  133OSM   H13S14418   6.676   6.878   6.871  2.6719  1.1289 -0.4290
  133OSM   H13T14419   6.743   7.039   6.907 -0.8984  1.5463  1.6268
  133OSM   C14S14420   6.568   7.053   6.784 -0.3973  0.4913 -0.7526
  133OSM   H14S14421   6.594   7.161   6.793 -0.2850  0.3897  0.2344
  133OSM   H14T14422   6.459   7.052   6.805 -0.4728  0.3156 -1.1463
  133OSM   C15S14423   6.614   7.007   6.646 -0.1423  0.3868 -0.8490
  133OSM   H15S14424   6.604   6.896   6.647  1.5486  0.2002 -0.9788
  133OSM   H15T14425   6.715   7.048   6.628  0.0911 -0.1086 -0.7063
  133OSM   C16S14426   6.519   7.050   6.539  0.3922 -0.2313  0.2271
  133OSM   H16S14427   6.512   7.160   6.526 -0.5219 -0.2931  0.1197
  133OSM   H16T14428   6.415   7.012   6.550  0.7787 -2.1452 -1.8746
  133OSM   C17S14429   6.555   6.980   6.403  0.3456 -0.4126  0.3311
  133OSM   H17S14430   6.529   6.872   6.417 -1.0642 -0.0049  1.0885
  133OSM   H17T14431   6.664   7.000   6.400 -0.1460  2.6674 -0.1415
  133OSM   C18S14432   6.494   7.020   6.265  0.1950 -0.0918  0.6428
  133OSM   H18S14433   6.399   6.966   6.246  0.0926  0.0366  0.7841
  133OSM   H18T14434   6.556   6.991   6.178 -1.1170  1.7234 -0.9755
  133OSM   H18U14435   6.478   7.129   6.252  0.2128 -0.3710 -2.2057
  133OSM    C1F14436   6.808   6.482   7.801 -0.0092  0.4369  0.1147
  133OSM     OF14437   6.735   6.418   7.871  0.4508 -0.0105 -0.6811
  133OSM    C2F14438   6.850   6.426   7.663  0.0486 -0.2779 -0.2661
  133OSM    H2F14439   6.960   6.414   7.662 -0.0954 -1.8940  0.5956
  133OSM    H2G14440   6.818   6.500   7.586 -0.0558  1.2085  1.1332
  133OSM    C3F14441   6.790   6.289   7.642 -0.1432 -0.3239  0.2538
  133OSM    H3F14442   6.679   6.290   7.646 -0.1895 -1.4071 -0.3655
  133OSM    H3G14443   6.833   6.224   7.721 -0.6246 -1.2875 -0.2497
  133OSM    C4F14444   6.831   6.246   7.499  0.0606 -0.5136 -0.0699
  133OSM    H4F14445   6.942   6.255   7.491  0.2954 -2.7479 -0.2516
  133OSM    H4G14446   6.779   6.313   7.428 -0.9278 -0.3025  0.8329
  133OSM    C5F14447   6.788   6.096   7.476 -0.3764  0.2329 -0.2476
  133OSM    H5F14448   6.678   6.089   7.486 -0.1956 -1.3015  1.3016
  133OSM    H5G14449   6.835   6.037   7.558  3.3070  0.8319 -1.7361
  133OSM    C6F14450   6.836   6.022   7.353  0.3634 -0.0039 -0.1006
  133OSM    H6F14451   6.776   6.058   7.266  0.2785 -1.6474 -0.7634
  133OSM    H6G14452   6.810   5.917   7.377 -1.7641  0.7461  1.1716
  133OSM    C7F14453   6.981   6.043   7.323 -0.8722 -0.4413  0.3510
  133OSM    H7F14454   7.035   6.001   7.410 -2.8053 -1.7076  0.9830
  133OSM    H7G14455   7.013   6.149   7.312  2.3555 -1.2077  1.1398
  133OSM    C8F14456   7.021   5.967   7.192 -0.3790  0.0347  0.0114
  133OSM    H8F14457   6.958   6.001   7.107 -3.9968  0.2522  2.5664
  133OSM    H8G14458   6.987   5.863   7.212  3.2561 -1.3148 -0.1043
  133OSM    C9F14459   7.173   5.980   7.181 -0.2474 -0.2419 -0.2737
  133OSM    H9F14460   7.227   5.903   7.237  0.6010  0.1002 -0.6131
  133OSM   C10F14461   7.247   6.057   7.102 -0.3709  0.1015  0.0491
  133OSM   H10F14462   7.357   6.055   7.110 -0.3819  2.2332  1.7710
  133OSM   C11F14463   7.199   6.174   7.025  0.6281  0.1883  0.0976
  133OSM   H11F14464   7.257   6.266   7.046  0.5448 -0.0467  1.5066
  133OSM   H11G14465   7.091   6.188   7.050  0.7057  0.8549  0.0637
  133OSM   C12F14466   7.212   6.137   6.878 -0.2987 -0.1617 -0.3297
  133OSM   H12F14467   7.322   6.134   6.862 -0.0267 -0.1804  1.3796
  133OSM   H12G14468   7.179   6.223   6.815 -0.4596  0.2460  0.3055
  133OSM   C13F14469   7.150   6.012   6.815 -0.2069 -1.3422 -0.2224
  133OSM   H13F14470   7.040   6.026   6.819  0.1606  2.1351  1.2650
  133OSM   H13G14471   7.172   5.924   6.879  3.3210  0.9462  2.0276
  133OSM   C14F14472   7.188   5.981   6.669  0.0027  0.1562  0.2226
  133OSM   H14F14473   7.290   5.939   6.654 -0.4575 -1.1101  0.5705
  133OSM   H14G14474   7.179   6.077   6.613  3.5853 -0.2367 -1.2893
  133OSM   C15F14475   7.080   5.885   6.606  0.1400 -0.1369 -0.6755
  133OSM   H15F14476   6.978   5.908   6.643  1.6940  2.3940  2.6639
  133OSM   H15G14477   7.106   5.787   6.651  0.3254  0.6274  0.9829
  133OSM   C16F14478   7.063   5.868   6.459 -0.3412  0.4680  0.8094
  133OSM   H16F14479   7.167   5.851   6.423 -0.2444  2.6424 -0.0894
  133OSM   H16G14480   7.013   5.954   6.409 -1.5878 -1.4793 -1.5806
  133OSM   C17F14481   6.984   5.749   6.399 -0.0406  0.4389  0.1531
  133OSM   H17F14482   6.980   5.764   6.289 -0.7675 -2.1396 -0.2421
  133OSM   H17G14483   6.879   5.747   6.435 -0.5957  1.8314 -1.2709
  133OSM   C18F14484   7.051   5.614   6.426 -0.1785 -0.3581  0.6566
  133OSM   H18F14485   7.081   5.608   6.533  0.7884  0.8066  0.4703
  133OSM   H18G14486   7.148   5.617   6.372  0.2190 -1.4701  1.2794
  133OSM   H18H14487   6.989   5.528   6.393  2.1780 -1.7292 -0.4730
  134OSM      N14488   1.917   4.435   8.185 -0.3521 -0.6510 -0.2124
  134OSM    C1514489   2.009   4.438   8.307 -0.3439 -0.3661 -0.2003
  134OSM   H15A14490   2.108   4.406   8.278  0.7968  2.2741  0.4314
  134OSM   H15B14491   1.985   4.378   8.393  0.3904  1.3104  1.2308
  134OSM   H15C14492   2.023   4.541   8.336  0.4171 -0.5034 -0.0576
  134OSM    C1414493   1.994   4.525   8.094 -0.4479 -0.4699 -0.4387
  134OSM   H14A14494   1.953   4.539   7.995 -1.5163 -2.9925 -0.4235
  134OSM   H14B14495   2.095   4.488   8.088  0.0481  0.9541 -1.8271
  134OSM   H14C14496   2.015   4.625   8.129  0.6106 -0.5180 -0.9124
  134OSM    C1314497   1.905   4.296   8.136 -0.0119 -0.8096  0.0502
  134OSM   H13A14498   1.864   4.241   8.219 -0.7905  0.7451  0.7200
  134OSM   H13B14499   1.997   4.256   8.095 -1.0663 -0.5214 -2.8083
  134OSM   H13C14500   1.837   4.292   8.052 -1.7563 -0.5553  1.4164
  134OSM    C1214501   1.781   4.500   8.221  0.0185  0.3346  0.2389
  134OSM   H12A14502   1.803   4.601   8.254  2.4855  0.5276 -1.6920
  134OSM   H12B14503   1.740   4.437   8.299 -0.9388 -1.1767 -1.4185
  134OSM    C1114504   1.676   4.498   8.113  0.6533 -0.4747  0.8947
  134OSM   H11A14505   1.731   4.535   8.024  2.1270 -0.1514  1.9070
  134OSM   H11B14506   1.596   4.574   8.123 -0.8451 -1.7728 -0.5927
  134OSM      P14507   1.521   4.317   8.217  0.0172  0.0834 -0.0650
  134OSM    O1314508   1.609   4.249   8.307 -0.1235 -0.2414  0.0807
  134OSM    O1414509   1.442   4.427   8.272  0.3799  0.7760 -0.2692
  134OSM    O1114510   1.423   4.207   8.150  0.1231 -0.1173 -0.8420
  134OSM    O1214511   1.616   4.370   8.096 -0.1140  0.7159 -0.5184
  134OSM    C1S14512   1.365   4.227   8.017 -0.2259  0.5267 -0.0585
  134OSM    H1S14513   1.353   4.335   7.992  0.1999  1.1834  2.3165
  134OSM    H1T14514   1.262   4.186   8.021  0.5511 -1.4345  2.6374
  134OSM     NF14515   1.366   4.144   7.786  0.1015  0.7110  0.2035
  134OSM    HNF14516   1.366   4.046   7.767 -0.7997  0.2207  2.3954
  134OSM    C2S14517   1.452   4.166   7.905 -0.0854 -0.1712  0.2342
  134OSM    H2S14518   1.522   4.247   7.877  0.1270 -0.0565  1.0983
  134OSM    C3S14519   1.541   4.046   7.956 -0.2536  0.0446  0.4065
  134OSM    H3S14520   1.483   3.981   8.024 -1.9925  2.1424  1.0522
  134OSM     O314521   1.648   4.083   8.049  0.3516 -0.0518  0.6382
  134OSM    HO314522   1.618   4.166   8.088  2.3452  0.3567  1.3753
  134OSM    C4S14523   1.611   3.988   7.840  0.1050  0.1309  0.7094
  134OSM    H4S14524   1.684   4.054   7.792 -0.9392  1.7747  1.2508
  134OSM    C5S14525   1.586   3.863   7.803 -0.4651 -0.4817  0.4384
  134OSM    H5S14526   1.500   3.814   7.852 -2.3618  0.6040 -1.5935
  134OSM    C6S14527   1.656   3.796   7.697 -0.7052  0.6022 -0.1989
  134OSM    H6S14528   1.674   3.690   7.723 -3.8998  0.3074  1.2489
  134OSM    H6T14529   1.754   3.846   7.679 -0.2826 -0.3995 -0.7502
  134OSM    C7S14530   1.583   3.804   7.559  0.4803 -0.2440 -0.2225
  134OSM    H7S14531   1.583   3.910   7.525  1.7892  0.6507  2.3360
  134OSM    H7T14532   1.483   3.760   7.574 -0.0022  0.5934 -0.8809
  134OSM    C8S14533   1.642   3.721   7.450 -0.2001 -0.3601  0.2534
  134OSM    H8S14534   1.677   3.631   7.505 -0.9467  0.5659  2.3591
  134OSM    H8T14535   1.724   3.783   7.411 -1.8231  1.1601 -0.8859
  134OSM    C9S14536   1.542   3.675   7.339  0.5704 -0.2660 -0.2716
  134OSM    H9S14537   1.464   3.624   7.400  0.9880  1.9918  2.3347
  134OSM    H9T14538   1.588   3.593   7.280  0.1411 -0.3557 -0.4836
  134OSM   C10S14539   1.479   3.784   7.250 -0.1306 -0.0278  0.0857
  134OSM   H10S14540   1.563   3.834   7.196  1.7591 -3.3107 -0.2830
  134OSM   H10T14541   1.424   3.850   7.321 -2.4387  1.8642 -3.1580
  134OSM   C11S14542   1.389   3.720   7.151 -0.0612  0.2628 -0.2205
  134OSM   H11S14543   1.318   3.657   7.209 -0.2217 -0.1345 -0.8322
  134OSM   H11T14544   1.446   3.646   7.091 -1.4555 -0.8457 -0.2429
  134OSM   C12S14545   1.313   3.821   7.061 -0.2412 -0.0655  0.0310
  134OSM   H12S14546   1.384   3.876   6.995 -0.4282  1.1551  0.8198
  134OSM   H12T14547   1.267   3.890   7.135  0.1926 -0.1735  0.4066
  134OSM   C13S14548   1.196   3.757   6.981 -0.4280  0.0914 -0.1210
  134OSM   H13S14549   1.128   3.713   7.057 -0.9471  1.0382 -0.0197
  134OSM   H13T14550   1.250   3.679   6.924  1.2182  0.8198  0.3722
  134OSM   C14S14551   1.133   3.851   6.875  0.1909  0.1866 -0.8508
  134OSM   H14S14552   1.126   3.953   6.918  1.3848  0.0090 -0.1860
  134OSM   H14T14553   1.028   3.818   6.859  0.2676  0.5889 -2.3688
  134OSM   C15S14554   1.219   3.862   6.741 -0.3677 -0.5979 -0.2396
  134OSM   H15S14555   1.250   3.767   6.693  0.2830 -0.0142 -0.9960
  134OSM   H15T14556   1.317   3.901   6.778 -0.8423  0.4002  0.0194
  134OSM   C16S14557   1.154   3.951   6.636  0.0024  0.1385 -0.7890
  134OSM   H16S14558   1.162   4.050   6.687  0.3359 -0.4058  0.2440
  134OSM   H16T14559   1.050   3.920   6.612  0.5409 -1.8004 -0.7145
  134OSM   C17S14560   1.237   3.976   6.516  0.2154 -1.5146  0.2855
  134OSM   H17S14561   1.255   3.883   6.458  0.3423 -0.6578 -1.1170
  134OSM   H17T14562   1.329   4.020   6.561 -1.3823  2.3242  0.2206
  134OSM   C18S14563   1.183   4.082   6.423  0.9042 -0.8574  0.3782
  134OSM   H18S14564   1.166   4.177   6.479  1.8343 -0.0939 -0.5809
  134OSM   H18T14565   1.089   4.046   6.378 -0.0405  0.8064  0.9094
  134OSM   H18U14566   1.261   4.102   6.346 -0.5128  0.4948 -0.7671
  134OSM    C1F14567   1.304   4.240   7.723  0.0182  0.7966  0.3211
  134OSM     OF14568   1.314   4.353   7.762  0.1187 -0.1247 -0.5714
  134OSM    C2F14569   1.238   4.200   7.601 -0.4582  0.2110 -0.1882
  134OSM    H2F14570   1.131   4.192   7.629 -0.6707  3.1200  0.1696
  134OSM    H2G14571   1.278   4.106   7.559  0.4509  0.1828  0.7213
  134OSM    C3F14572   1.252   4.320   7.507 -0.2053  0.3887 -0.5679
  134OSM    H3F14573   1.359   4.346   7.496 -0.0843 -0.3483 -1.2038
  134OSM    H3G14574   1.184   4.405   7.529 -1.7337 -1.2708  1.5421
  134OSM    C4F14575   1.212   4.280   7.365  0.1180  0.0544  0.0331
  134OSM    H4F14576   1.108   4.242   7.368 -0.2486  0.8573 -1.4404
  134OSM    H4G14577   1.277   4.193   7.342 -0.3765 -0.5780  0.9581
  134OSM    C5F14578   1.240   4.398   7.276 -0.3196 -0.4294  0.5714
  134OSM    H5F14579   1.348   4.422   7.289 -0.7882  2.1003  0.2628
  134OSM    H5G14580   1.173   4.480   7.310  0.1636 -0.5494  1.8255
  134OSM    C6F14581   1.210   4.370   7.127 -0.7355 -0.3917  0.5404
  134OSM    H6F14582   1.262   4.274   7.106  1.3982  0.4823  1.4898
  134OSM    H6G14583   1.266   4.440   7.061 -1.2743  0.6557  1.1597
  134OSM    C7F14584   1.061   4.359   7.094 -0.0403 -0.2207 -0.5159
  134OSM    H7F14585   1.006   4.432   7.157 -3.3170 -4.5842  2.3219
  134OSM    H7G14586   1.024   4.262   7.134 -1.7175  0.5846 -0.0273
  134OSM    C8F14587   1.023   4.384   6.947 -0.1420 -0.0710  0.5052
  134OSM    H8F14588   1.039   4.491   6.924 -0.5146 -0.4880 -1.9714
  134OSM    H8G14589   0.917   4.356   6.935 -0.0043 -0.6385  0.5807
  134OSM    C9F14590   1.104   4.298   6.856  0.0046 -0.3455 -0.1420
  134OSM    H9F14591   1.106   4.190   6.874 -2.7605 -0.7864 -1.9833
  134OSM   C10F14592   1.177   4.341   6.752  0.2124 -0.1060 -0.5068
  134OSM   H10F14593   1.249   4.269   6.709 -0.4315 -0.6154 -0.7499
  134OSM   C11F14594   1.188   4.483   6.696  0.6172  0.2379  0.3894
  134OSM   H11F14595   1.289   4.523   6.716  1.0602 -0.0979 -1.0345
  134OSM   H11G14596   1.111   4.550   6.739  1.1675  0.3914  1.1517
  134OSM   C12F14597   1.165   4.477   6.540 -0.5502  0.2375 -0.0158
  134OSM   H12F14598   1.075   4.417   6.517 -1.0245  0.3109  1.5878
  134OSM   H12G14599   1.249   4.436   6.480  0.0380  2.3684 -0.7485
  134OSM   C13F14600   1.133   4.611   6.477  0.0207 -0.8361 -0.1850
  134OSM   H13F14601   1.053   4.662   6.533 -0.3999 -1.3422 -0.3185
  134OSM   H13G14602   1.093   4.579   6.378  0.8920 -0.2536 -0.7456
  134OSM   C14F14603   1.256   4.699   6.457  0.2509 -0.3366  0.4737
  134OSM   H14F14604   1.345   4.636   6.436 -0.2363 -1.3082  1.2194
  134OSM   H14G14605   1.278   4.747   6.555  0.1502 -0.6120  0.6352
  134OSM   C15F14606   1.236   4.809   6.351  0.0088  0.0579 -0.4442
  134OSM   H15F14607   1.196   4.762   6.258  2.6447 -2.7837 -0.2897
  134OSM   H15G14608   1.337   4.846   6.324 -0.6943  1.3047 -1.4884
  134OSM   C16F14609   1.147   4.922   6.408  0.5070  0.2553  0.4694
  134OSM   H16F14610   1.177   4.929   6.515  0.2925 -1.9807  0.7309
  134OSM   H16G14611   1.041   4.892   6.396 -0.1612  2.3186  0.8803
  134OSM   C17F14612   1.176   5.053   6.343  0.0892  0.8187  0.6864
  134OSM   H17F14613   1.152   5.047   6.234 -1.0241  1.4018  0.8818
  134OSM   H17G14614   1.286   5.068   6.350 -0.0268  1.7760  0.6131
  134OSM   C18F14615   1.108   5.170   6.412 -0.8677  0.0894 -0.0060
  134OSM   H18F14616   1.025   5.219   6.358 -1.4349  0.8715  1.5293
  134OSM   H18G14617   1.186   5.248   6.429  0.3273 -0.9362 -0.5475
  134OSM   H18H14618   1.079   5.144   6.516 -1.3402  2.5386  0.5303
  135OSM      N14619   1.590   2.960   8.646  1.0300 -0.2505 -0.0107
  135OSM    C1514620   1.479   3.042   8.704  0.7568  0.6907  0.3053
  135OSM   H15A14621   1.411   2.977   8.756 -0.3917  0.6885 -1.1234
  135OSM   H15B14622   1.430   3.113   8.638 -0.3645 -0.4659 -0.1398
  135OSM   H15C14623   1.526   3.104   8.779 -1.6238 -0.8635  3.3176
  135OSM    C1414624   1.688   3.054   8.581 -0.2369  0.6534 -0.2881
  135OSM   H14A14625   1.775   2.992   8.565  0.6179  2.2108 -1.9916
  135OSM   H14B14626   1.716   3.127   8.656 -2.8209  1.2376  0.2106
  135OSM   H14C14627   1.657   3.101   8.489  0.1404  1.3282 -0.0814
  135OSM    C1314628   1.664   2.904   8.760  0.5966  0.7681 -0.9762
  135OSM   H13A14629   1.598   2.851   8.827 -0.3330  2.7823 -0.2085
  135OSM   H13B14630   1.705   2.993   8.806  1.6766 -0.1122 -0.1608
  135OSM   H13C14631   1.744   2.846   8.716 -0.0820 -0.2344 -0.8978
  135OSM    C1214632   1.544   2.857   8.550 -0.5727  1.0031 -0.0111
  135OSM   H12A14633   1.462   2.797   8.585 -0.1885  0.1677 -0.5168
  135OSM   H12B14634   1.621   2.785   8.525 -0.4532  0.8055  0.8880
  135OSM    C1114635   1.485   2.901   8.413 -0.1860 -0.1879  0.3746
  135OSM   H11A14636   1.459   2.816   8.347 -4.1490  0.4733  0.8561
  135OSM   H11B14637   1.571   2.954   8.367  0.1056 -2.5524 -2.0076
  135OSM      P14638   1.232   2.918   8.467  0.1089  0.0972  0.2436
  135OSM    O1314639   1.249   2.782   8.520  0.2818 -0.1765 -0.0999
  135OSM    O1414640   1.145   3.008   8.549 -0.6797  0.4678  0.8646
  135OSM    O1114641   1.175   2.909   8.322 -0.1154 -0.1526 -0.4229
  135OSM    O1214642   1.375   2.983   8.439  0.9766 -0.0102  0.3136
  135OSM    C1S14643   1.040   2.852   8.307 -0.0925  0.1005 -0.2134
  135OSM    H1S14644   0.970   2.925   8.354  0.6651 -0.3111  1.6276
  135OSM    H1T14645   1.027   2.756   8.361  0.2173  1.4210  2.3396
  135OSM     NF14646   0.851   2.808   8.159 -0.5931 -0.0013 -0.7181
  135OSM    HNF14647   0.833   2.710   8.155  0.2549 -0.2406  0.7844
  135OSM    C2S14648   0.990   2.842   8.160  0.4686 -0.2860 -0.5673
  135OSM    H2S14649   1.014   2.947   8.132  0.8689 -0.0759  0.5056
  135OSM    C3S14650   1.081   2.747   8.075  0.4125 -0.0259 -0.5112
  135OSM    H3S14651   1.068   2.649   8.127 -3.5228  0.8008  0.4249
  135OSM     O314652   1.221   2.782   8.093 -0.0545 -0.0690  0.2742
  135OSM    HO314653   1.217   2.849   8.162  0.0104 -0.7543  0.9515
  135OSM    C4S14654   1.037   2.727   7.931  0.2817 -0.4723 -0.4080
  135OSM    H4S14655   0.941   2.674   7.922  1.6423 -3.0972 -0.4655
  135OSM    C5S14656   1.078   2.799   7.826 -0.0095  0.3372  0.2506
  135OSM    H5S14657   1.161   2.871   7.834  1.5150 -1.5099  2.2065
  135OSM    C6S14658   1.019   2.799   7.688 -0.2243  0.0081 -0.3357
  135OSM    H6S14659   1.025   2.696   7.646  0.5782  0.1676 -0.6308
  135OSM    H6T14660   1.081   2.865   7.625  0.5328 -0.3439  0.0251
  135OSM    C7S14661   0.869   2.840   7.678 -0.1622 -0.1358  0.2277
  135OSM    H7S14662   0.855   2.949   7.692 -1.5648 -0.4133  1.1821
  135OSM    H7T14663   0.814   2.795   7.763  0.4904  1.6988  1.6722
  135OSM    C8S14664   0.805   2.794   7.543 -0.2424  0.2040 -0.2144
  135OSM    H8S14665   0.701   2.767   7.572 -0.2572  1.5573  1.1368
  135OSM    H8T14666   0.847   2.696   7.513  2.1613  1.2662 -0.4967
  135OSM    C9S14667   0.835   2.893   7.424 -0.3934 -0.1458 -0.4137
  135OSM    H9S14668   0.945   2.892   7.410 -0.3358  0.2633 -0.0339
  135OSM    H9T14669   0.793   2.994   7.447  1.5159  0.3101  1.3969
  135OSM   C10S14670   0.765   2.846   7.288  0.7456  0.0507 -0.5925
  135OSM   H10S14671   0.659   2.823   7.308  1.2587 -1.3960  0.7067
  135OSM   H10T14672   0.802   2.746   7.255 -2.4681 -1.3280 -0.3055
  135OSM   C11S14673   0.790   2.942   7.176 -0.5126  0.5282 -0.4238
  135OSM   H11S14674   0.896   2.921   7.149  0.4497  1.9851  1.8951
  135OSM   H11T14675   0.777   3.048   7.206 -1.7394  0.1230  0.5659
  135OSM   C12S14676   0.712   2.908   7.047 -0.4971 -0.2550  0.3521
  135OSM   H12S14677   0.610   2.951   7.052 -0.4477 -0.2978  2.5401
  135OSM   H12T14678   0.703   2.797   7.054  0.9927 -0.3541  1.0996
  135OSM   C13S14679   0.778   2.954   6.912 -1.4122  0.5075 -0.3143
  135OSM   H13S14680   0.885   2.923   6.918 -1.4827  0.2369 -0.4714
  135OSM   H13T14681   0.775   3.066   6.909 -2.1988  0.5061  0.1673
  135OSM   C14S14682   0.715   2.894   6.790  0.4182  0.1146 -0.0199
  135OSM   H14S14683   0.605   2.904   6.800  0.1777 -2.4304  0.7267
  135OSM   H14T14684   0.743   2.787   6.780 -1.4395 -0.3707 -0.3508
  135OSM   C15S14685   0.767   2.948   6.664 -0.0561  0.2572  0.1346
  135OSM   H15S14686   0.878   2.944   6.663 -0.0880 -2.1104 -0.4718
  135OSM   H15T14687   0.736   3.054   6.651  0.6390  0.3820 -0.5988
  135OSM   C16S14688   0.715   2.875   6.532  0.2983  0.2151  0.2633
  135OSM   H16S14689   0.623   2.816   6.550  0.9524 -0.8101  0.3187
  135OSM   H16T14690   0.798   2.810   6.496  0.2986  0.7292 -0.6904
  135OSM   C17S14691   0.687   2.969   6.411  0.5551 -0.0908 -0.2933
  135OSM   H17S14692   0.762   3.049   6.396  0.2260  0.4795  0.9486
  135OSM   H17T14693   0.591   3.017   6.439  0.0178 -0.0781 -2.0939
  135OSM   C18S14694   0.665   2.881   6.284 -0.1930  0.4234 -0.5102
  135OSM   H18S14695   0.602   2.933   6.209 -0.9231  0.4761  0.1285
  135OSM   H18T14696   0.619   2.783   6.310 -0.1264  0.2214 -1.1270
  135OSM   H18U14697   0.769   2.873   6.244  0.0697  0.5577  0.1282
  135OSM    C1F14698   0.751   2.893   8.178  0.3894  0.1077  0.9338
  135OSM     OF14699   0.767   3.007   8.232  0.1102  0.0768  0.5263
  135OSM    C2F14700   0.614   2.833   8.153 -0.5760  0.0304  0.8883
  135OSM    H2F14701   0.531   2.895   8.193 -0.0344  1.7365 -0.5258
  135OSM    H2G14702   0.611   2.734   8.202  2.9445 -1.2113 -1.0969
  135OSM    C3F14703   0.590   2.795   7.999 -0.1293 -0.0277 -0.2853
  135OSM    H3F14704   0.510   2.718   8.003 -1.0258  0.8935 -0.3448
  135OSM    H3G14705   0.680   2.754   7.947  1.8636  1.5129  1.7205
  135OSM    C4F14706   0.541   2.917   7.921 -0.2161 -0.6734  1.3038
  135OSM    H4F14707   0.479   2.980   7.988  2.4330 -0.0165  3.3122
  135OSM    H4G14708   0.626   2.984   7.899 -0.9093 -0.6991 -1.8745
  135OSM    C5F14709   0.458   2.882   7.802  0.4528 -0.3454 -0.0369
  135OSM    H5F14710   0.368   2.822   7.827 -0.3399  0.3876 -1.0478
  135OSM    H5G14711   0.515   2.816   7.733 -1.1671 -0.6320 -1.1659
  135OSM    C6F14712   0.395   2.997   7.718 -0.7853 -0.1120 -0.0099
  135OSM    H6F14713   0.469   3.060   7.664  1.9420 -3.3406 -0.3812
  135OSM    H6G14714   0.342   3.078   7.773 -1.2665 -1.1282  1.0507
  135OSM    C7F14715   0.293   2.945   7.614 -0.0363 -0.5187 -0.0193
  135OSM    H7F14716   0.226   3.029   7.586 -0.8427 -0.6768  1.3219
  135OSM    H7G14717   0.233   2.866   7.665 -1.6948  0.7673  0.1129
  135OSM    C8F14718   0.359   2.883   7.489 -0.1436  0.2406 -0.3882
  135OSM    H8F14719   0.286   2.808   7.454  0.2131 -0.9573  1.2990
  135OSM    H8G14720   0.441   2.823   7.535  1.1976  1.3177 -1.2679
  135OSM    C9F14721   0.416   2.978   7.392 -0.2341  0.7160 -0.3551
  135OSM    H9F14722   0.509   3.030   7.417  0.6168 -0.9383  0.0221
  135OSM   C10F14723   0.375   2.988   7.261 -0.9452 -0.1142  0.1036
  135OSM   H10F14724   0.427   3.053   7.190 -0.6866 -2.6362 -2.1996
  135OSM   C11F14725   0.254   2.924   7.199 -0.3433 -0.0223 -0.1730
  135OSM   H11F14726   0.218   2.838   7.259  1.5342 -1.1236 -0.5749
  135OSM   H11G14727   0.278   2.875   7.103 -3.7455  0.3445 -1.3481
  135OSM   C12F14728   0.148   3.036   7.180  0.2304 -0.0954  0.3740
  135OSM   H12F14729   0.070   2.989   7.115 -1.6634 -1.5560  3.4363
  135OSM   H12G14730   0.203   3.106   7.114  2.6695 -0.5664  1.8096
  135OSM   C13F14731   0.083   3.102   7.303  0.1844  0.2171  0.4167
  135OSM   H13F14732   0.154   3.172   7.352  0.6946  0.2672 -0.3577
  135OSM   H13G14733   0.053   3.018   7.370  0.4101 -0.2323 -0.0339
  135OSM   C14F14734  -0.046   3.178   7.256  0.4658  0.4546 -0.1641
  135OSM   H14F14735  -0.018   3.228   7.161  2.4129  1.7457  1.0037
  135OSM   H14G14736  -0.089   3.246   7.333  0.2427  0.3820 -0.2254
  135OSM   C15F14737  -0.162   3.082   7.218 -0.0608 -0.8723 -0.1435
  135OSM   H15F14738  -0.129   3.015   7.136  1.0434  0.0137 -0.4548
  135OSM   H15G14739  -0.238   3.155   7.184  0.2837 -0.0366  0.8105
  135OSM   C16F14740  -0.230   3.011   7.334  0.0590  0.2726  0.0085
  135OSM   H16F14741  -0.277   3.084   7.404 -1.0268  2.4257 -2.7748
  135OSM   H16G14742  -0.159   2.952   7.396  1.3545  0.9339 -0.8134
  135OSM   C17F14743  -0.349   2.923   7.291 -0.6609 -0.3892  0.0568
  135OSM   H17F14744  -0.405   2.881   7.377 -1.8544  0.5798 -0.2210
  135OSM   H17G14745  -0.314   2.835   7.233  1.7583 -0.2178  1.1512
  135OSM   C18F14746  -0.469   2.995   7.222 -0.2282 -0.4586  0.4355
  135OSM   H18F14747  -0.546   2.920   7.193 -0.9467  0.0036  1.1150
  135OSM   H18G14748  -0.435   3.054   7.134 -2.8174 -1.5988 -1.4431
  135OSM   H18H14749  -0.508   3.058   7.304 -0.4341 -0.4974  0.3663
  136OSM      N14750   3.380   4.775   8.733  0.3998  0.4205  0.3399
  136OSM    C1514751   3.259   4.688   8.734 -0.3735  0.8514  0.2052
  136OSM   H15A14752   3.238   4.647   8.636  1.9294 -1.9225  0.7421
  136OSM   H15B14753   3.176   4.747   8.770 -2.3572 -0.8886 -1.2278
  136OSM   H15C14754   3.269   4.610   8.808 -3.0418 -0.2362 -0.4625
  136OSM    C1414755   3.359   4.870   8.837 -0.0944 -0.4343  1.3429
  136OSM   H14A14756   3.314   4.828   8.925 -2.8128 -1.7477 -0.5285
  136OSM   H14B14757   3.298   4.949   8.796  0.8879 -0.2864  0.0902
  136OSM   H14C14758   3.461   4.903   8.854  0.0306  1.0366 -1.5307
  136OSM    C1314759   3.495   4.686   8.773  0.1017 -0.1109  0.1942
  136OSM   H13A14760   3.505   4.600   8.708  1.4871 -0.3657  0.7203
  136OSM   H13B14761   3.488   4.649   8.874  0.8702 -2.8743 -0.6849
  136OSM   H13C14762   3.587   4.740   8.761  0.9205 -1.3863  0.5339
  136OSM    C1214763   3.402   4.834   8.591  0.1272  0.5424  0.1304
  136OSM   H12A14764   3.501   4.879   8.590 -0.4252  1.7749 -0.3471
  136OSM   H12B14765   3.331   4.913   8.573 -1.3822 -0.1604  2.5354
  136OSM    C1114766   3.391   4.740   8.475 -0.1347 -0.5736 -0.3242
  136OSM   H11A14767   3.445   4.644   8.479 -0.1918 -0.5779  0.6894
  136OSM   H11B14768   3.442   4.790   8.391 -1.5397 -0.7909 -1.3525
  136OSM      P14769   3.165   4.822   8.378 -0.4661  0.0519  0.2140
  136OSM    O1314770   3.031   4.770   8.380  0.2365  0.1337  0.1453
  136OSM    O1414771   3.188   4.949   8.446 -0.0607 -0.0276  0.3947
  136OSM    O1114772   3.230   4.842   8.233  0.0803 -0.9395 -0.2064
  136OSM    O1214773   3.254   4.711   8.442  0.4329 -0.2553 -0.4134
  136OSM    C1S14774   3.297   4.752   8.154  0.3753  1.1676  0.2824
  136OSM    H1S14775   3.230   4.674   8.114  1.8234  0.0094  0.0158
  136OSM    H1T14776   3.372   4.701   8.218 -1.5041  1.0539  2.5200
  136OSM     NF14777   3.415   4.696   7.942 -0.1806  0.5029  0.5813
  136OSM    HNF14778   3.514   4.693   7.929 -0.3761  0.7557 -1.3799
  136OSM    C2S14779   3.364   4.802   8.025 -0.5323  0.0801 -0.8583
  136OSM    H2S14780   3.285   4.855   7.967 -0.3132  0.8334 -0.4809
  136OSM    C3S14781   3.468   4.910   8.058  0.9844  0.5039  0.1643
  136OSM    H3S14782   3.553   4.858   8.106  0.2427  0.2359  1.2186
  136OSM     O314783   3.431   5.001   8.161  0.7331 -0.0299  0.2769
  136OSM    HO314784   3.346   4.966   8.189 -0.0648  0.7976 -1.0193
  136OSM    C4S14785   3.525   4.980   7.939  0.0489  0.2017  0.7350
  136OSM    H4S14786   3.609   4.928   7.891 -0.7912  0.1137 -0.6922
  136OSM    C5S14787   3.490   5.096   7.882 -0.4232  0.5017  0.1437
  136OSM    H5S14788   3.416   5.163   7.929 -1.6456 -0.1223 -0.8708
  136OSM    C6S14789   3.551   5.161   7.757  0.1630 -0.2150 -1.2839
  136OSM    H6S14790   3.565   5.271   7.768  0.3679 -0.0820 -2.6840
  136OSM    H6T14791   3.484   5.146   7.670 -0.8417 -1.6420 -0.2990
  136OSM    C7S14792   3.671   5.094   7.702 -0.4201 -0.0195  0.1984
  136OSM    H7S14793   3.697   5.147   7.608 -1.0878  0.9772  0.5661
  136OSM    H7T14794   3.643   4.989   7.675 -0.9475  0.5462 -1.6420
  136OSM    C8S14795   3.800   5.103   7.787 -0.3572 -0.0330  0.3193
  136OSM    H8S14796   3.821   5.002   7.828  1.8773 -2.0538 -4.9191
  136OSM    H8T14797   3.778   5.171   7.872 -2.2373  0.9440 -0.8972
  136OSM    C9S14798   3.916   5.160   7.715 -0.1172 -0.2655  0.2173
  136OSM    H9S14799   3.887   5.259   7.675 -2.5746 -1.7653 -2.0894
  136OSM    H9T14800   3.948   5.090   7.634  0.5200 -0.9451  1.0469
  136OSM   C10S14801   4.045   5.175   7.817 -0.2258  0.0015 -0.3361
  136OSM   H10S14802   4.090   5.074   7.829  0.1273  0.0878 -0.8745
  136OSM   H10T14803   3.994   5.212   7.908  1.4986  0.2310  0.5818
  136OSM   C11S14804   4.150   5.278   7.777 -0.6176 -0.1150  0.0760
  136OSM   H11S14805   4.232   5.252   7.847 -2.6212 -2.2005  1.8304
  136OSM   H11T14806   4.122   5.381   7.807  1.6717  0.8419 -0.8602
  136OSM   C12S14807   4.187   5.294   7.629 -0.6585 -0.2460 -0.4488
  136OSM   H12S14808   4.102   5.333   7.569 -3.9303 -0.9610  3.2861
  136OSM   H12T14809   4.209   5.194   7.586  0.9980  0.5379 -1.5450
  136OSM   C13S14810   4.306   5.391   7.611 -0.3213 -0.0433 -0.2845
  136OSM   H13S14811   4.371   5.378   7.699  0.1672 -3.3740 -0.9980
  136OSM   H13T14812   4.270   5.496   7.607 -0.8806 -0.2603 -1.7618
  136OSM   C14S14813   4.397   5.345   7.499 -0.3892 -0.2390 -0.0943
  136OSM   H14S14814   4.338   5.335   7.406 -1.2139 -0.9479  0.4906
  136OSM   H14T14815   4.439   5.247   7.528  1.3718  0.7475  0.8554
  136OSM   C15S14816   4.530   5.415   7.478  0.4788  0.2112 -0.2774
  136OSM   H15S14817   4.600   5.341   7.435  0.7316  1.0075 -1.2649
  136OSM   H15T14818   4.567   5.451   7.577  0.8440 -0.8697 -0.0029
  136OSM   C16S14819   4.535   5.526   7.377 -0.0783 -0.7384  0.4445
  136OSM   H16S14820   4.454   5.598   7.401  0.5219  0.1745 -0.1992
  136OSM   H16T14821   4.521   5.497   7.271  0.0189  1.0124 -0.0713
  136OSM   C17S14822   4.661   5.612   7.377 -0.0168  0.2216 -0.0738
  136OSM   H17S14823   4.758   5.558   7.367 -0.5628 -0.6183 -1.0508
  136OSM   H17T14824   4.661   5.674   7.469 -1.7769  1.0109 -0.5744
  136OSM   C18S14825   4.651   5.709   7.259 -0.4396  0.9044 -0.2566
  136OSM   H18S14826   4.661   5.652   7.165  0.8247  0.9951 -0.1838
  136OSM   H18T14827   4.727   5.790   7.261  1.3792 -0.7074  2.1598
  136OSM   H18U14828   4.553   5.762   7.261 -1.1806 -0.4503  0.4531
  136OSM    C1F14829   3.342   4.603   7.878  1.0444  0.5457  0.0501
  136OSM     OF14830   3.220   4.590   7.896  0.4882  0.8690 -0.0143
  136OSM    C2F14831   3.396   4.512   7.775  0.0918  0.1850  0.2074
  136OSM    H2F14832   3.376   4.407   7.806 -1.9380  0.8177  1.2182
  136OSM    H2G14833   3.506   4.528   7.774 -0.0461  1.2136 -1.0677
  136OSM    C3F14834   3.330   4.538   7.637 -0.0657  0.0260  0.1847
  136OSM    H3F14835   3.368   4.630   7.587 -0.6875 -0.6477 -1.5990
  136OSM    H3G14836   3.219   4.534   7.645 -0.2480 -0.3358 -2.0001
  136OSM    C4F14837   3.381   4.437   7.536 -0.0523 -0.3804  0.3912
  136OSM    H4F14838   3.373   4.341   7.591 -0.6224 -0.4254  0.2378
  136OSM    H4G14839   3.486   4.457   7.507 -0.7535  1.9620 -0.7792
  136OSM    C5F14840   3.290   4.430   7.400  0.4353  0.8457  0.4119
  136OSM    H5F14841   3.293   4.537   7.370  0.0204  0.7779  0.1115
  136OSM    H5G14842   3.186   4.397   7.418  0.0512 -0.6719 -3.5555
  136OSM    C6F14843   3.357   4.349   7.292 -0.1956 -0.5440  0.3034
  136OSM    H6F14844   3.349   4.242   7.321 -0.4502 -0.7525 -0.5071
  136OSM    H6G14845   3.465   4.372   7.279 -0.5667  1.5551  0.6400
  136OSM    C7F14846   3.288   4.373   7.155 -0.0091  0.5046  0.2420
  136OSM    H7F14847   3.316   4.479   7.135 -0.7652  0.6525 -0.0424
  136OSM    H7G14848   3.179   4.383   7.171 -0.0105 -0.7043  1.0571
  136OSM    C8F14849   3.333   4.284   7.037 -0.6919 -0.4303 -0.3739
  136OSM    H8F14850   3.311   4.178   7.060  2.1299 -0.5467  2.6597
  136OSM    H8G14851   3.444   4.291   7.034 -0.8034  3.0263 -0.7409
  136OSM    C9F14852   3.258   4.324   6.913  0.5429 -0.7341 -0.4662
  136OSM    H9F14853   3.166   4.267   6.895  0.3259  0.0411 -1.9694
  136OSM   C10F14854   3.293   4.413   6.817 -0.1041 -0.5205  0.3063
  136OSM   H10F14855   3.228   4.431   6.730 -0.3651  0.4687  0.6946
  136OSM   C11F14856   3.412   4.501   6.812  0.1062  0.1871  0.2708
  136OSM   H11F14857   3.501   4.438   6.833  0.2959  0.4729  0.3296
  136OSM   H11G14858   3.403   4.592   6.876 -1.5895  1.2349 -1.3518
  136OSM   C12F14859   3.430   4.552   6.669 -0.2763 -0.0169 -0.5601
  136OSM   H12F14860   3.524   4.611   6.683  0.1565 -1.0444  1.2845
  136OSM   H12G14861   3.355   4.629   6.641 -0.9354 -1.1757 -2.1533
  136OSM   C13F14862   3.444   4.454   6.552  0.1887 -0.1716  0.1959
  136OSM   H13F14863   3.349   4.397   6.539  1.3911 -1.9093 -1.4369
  136OSM   H13G14864   3.516   4.371   6.564  1.8634  0.5533 -3.5796
  136OSM   C14F14865   3.487   4.512   6.421  0.0784  0.0652  0.5961
  136OSM   H14F14866   3.401   4.575   6.390  0.2925  0.2010  0.2771
  136OSM   H14G14867   3.482   4.426   6.351 -0.1725  1.4303 -1.1114
  136OSM   C15F14868   3.616   4.591   6.426  0.6178  0.6770 -0.8468
  136OSM   H15F14869   3.690   4.526   6.478 -0.2348  0.6551  0.3798
  136OSM   H15G14870   3.605   4.681   6.490 -2.3275 -0.2935  0.1561
  136OSM   C16F14871   3.658   4.635   6.285 -0.1449  0.4235  0.3533
  136OSM   H16F14872   3.575   4.691   6.239  1.2457  3.0001  0.7578
  136OSM   H16G14873   3.688   4.552   6.218 -2.7379  0.8661 -1.4651
  136OSM   C17F14874   3.781   4.734   6.300  0.5146  0.0453  0.4845
  136OSM   H17F14875   3.848   4.677   6.367 -0.6289 -0.1449  1.4816
  136OSM   H17G14876   3.752   4.829   6.350 -0.5456 -1.0364  2.0030
  136OSM   C18F14877   3.849   4.766   6.166  0.0817  0.3687  0.0285
  136OSM   H18F14878   3.948   4.717   6.157  0.2379  0.7207 -0.1882
  136OSM   H18G14879   3.857   4.875   6.150 -1.7704  0.3498 -1.3160
  136OSM   H18H14880   3.781   4.725   6.089  0.7684  1.0015 -0.9308
  137OSM      N14881   1.114   3.349   8.324  1.1122 -0.6721 -0.3722
  137OSM    C1514882   1.002   3.246   8.318  0.4078 -0.0010 -0.4847
  137OSM   H15A14883   1.034   3.150   8.356 -1.7643  0.2962  2.4621
  137OSM   H15B14884   0.962   3.237   8.218  2.5007 -0.4200 -1.3255
  137OSM   H15C14885   0.917   3.277   8.378  1.8996  2.3909  0.5234
  137OSM    C1414886   1.171   3.357   8.461 -0.1017  0.3827 -0.5144
  137OSM   H14A14887   1.214   3.265   8.498  1.8170  1.5129  0.2513
  137OSM   H14B14888   1.098   3.383   8.536 -0.0318 -2.4878  0.6799
  137OSM   H14C14889   1.247   3.434   8.470  0.2996 -0.1330  0.6991
  137OSM    C1314890   1.224   3.293   8.232 -0.3252  0.2645 -0.0521
  137OSM   H13A14891   1.267   3.204   8.276  0.0833 -0.8834 -2.6060
  137OSM   H13B14892   1.301   3.365   8.214 -1.3622  0.9855 -1.8455
  137OSM   H13C14893   1.196   3.265   8.131 -0.7801 -1.4985  0.5147
  137OSM    C1214894   1.069   3.478   8.269 -1.2471  0.2810  0.0270
  137OSM   H12A14895   1.044   3.457   8.166  0.5550  0.0889 -0.4056
  137OSM   H12B14896   1.154   3.545   8.270 -0.8942 -0.1716  1.0304
  137OSM    C1114897   0.955   3.549   8.330  0.2416 -0.4044  0.3127
  137OSM   H11A14898   0.956   3.654   8.293  2.3723 -1.3889 -2.7745
  137OSM   H11B14899   0.970   3.547   8.440  1.7311 -2.7928  0.1438
  137OSM      P14900   0.722   3.463   8.402 -0.2400 -0.4669  0.2399
  137OSM    O1314901   0.747   3.336   8.463 -0.3622  0.3843  0.5099
  137OSM    O1414902   0.731   3.576   8.494  0.0791 -0.2187 -0.2432
  137OSM    O1114903   0.576   3.478   8.347 -0.6615  0.4538  1.0974
  137OSM    O1214904   0.825   3.491   8.281  0.6827 -0.2525 -0.3769
  137OSM    C1S14905   0.537   3.472   8.213  0.1351  0.2207  0.1015
  137OSM    H1S14906   0.616   3.501   8.140  0.1341  1.2988  0.5159
  137OSM    H1T14907   0.453   3.542   8.197  0.4429  0.6306  0.2700
  137OSM     NF14908   0.458   3.326   8.023  0.2669 -0.8390 -0.0144
  137OSM    HNF14909   0.364   3.338   7.990  0.5163  0.9288 -0.1592
  137OSM    C2S14910   0.490   3.330   8.167  0.5829  0.0095 -0.0352
  137OSM    H2S14911   0.564   3.252   8.193  1.6274  1.0301  0.1156
  137OSM    C3S14912   0.364   3.279   8.252  0.3592 -0.1577  0.0348
  137OSM    H3S14913   0.273   3.332   8.215  0.5607  1.3077  1.5215
  137OSM     O314914   0.375   3.309   8.389 -0.2450  0.2340  0.3106
  137OSM    HO314915   0.454   3.363   8.385  0.3470 -0.6382 -0.2558
  137OSM    C4S14916   0.352   3.129   8.232  0.7047 -0.4648  0.4424
  137OSM    H4S14917   0.420   3.053   8.273 -0.7566 -2.4404 -0.5872
  137OSM    C5S14918   0.247   3.082   8.162  0.5055 -0.0486 -0.3460
  137OSM    H5S14919   0.178   3.153   8.114  0.2399  0.1051  0.2492
  137OSM    C6S14920   0.202   2.939   8.142  0.1012 -0.2845 -0.7973
  137OSM    H6S14921   0.235   2.872   8.224 -0.6439  1.9078  1.4003
  137OSM    H6T14922   0.250   2.899   8.050  1.6423  1.2710 -0.7217
  137OSM    C7S14923   0.051   2.935   8.132 -0.3401 -0.4447 -0.1613
  137OSM    H7S14924   0.020   2.974   8.232  1.4755 -0.2842  0.3738
  137OSM    H7T14925   0.027   2.827   8.138  2.8344 -1.1856  1.3228
  137OSM    C8S14926  -0.028   3.017   8.032 -0.0596  0.3000 -0.2415
  137OSM    H8S14927  -0.014   3.126   8.049 -0.0319  0.7542 -2.7359
  137OSM    H8T14928  -0.136   3.001   8.050  0.0284 -1.5048 -1.0697
  137OSM    C9S14929   0.018   2.983   7.883  0.1888 -0.2034 -1.0248
  137OSM    H9S14930   0.018   2.872   7.876 -2.5681 -0.2853 -0.7344
  137OSM    H9T14931   0.124   3.014   7.876  0.6936 -1.4445  0.4052
  137OSM   C10S14932  -0.076   3.040   7.771 -0.1039  0.3297  0.5555
  137OSM   H10S14933  -0.180   3.021   7.808 -1.1294  3.3100 -0.4962
  137OSM   H10T14934  -0.055   2.979   7.681 -0.7071 -0.3651  0.8711
  137OSM   C11S14935  -0.042   3.185   7.741 -0.5150 -0.6776 -0.0005
  137OSM   H11S14936   0.060   3.199   7.698 -0.5031 -0.9679 -0.0663
  137OSM   H11T14937  -0.055   3.247   7.833  2.7233  1.3267 -0.7044
  137OSM   C12S14938  -0.139   3.251   7.633 -0.0100  0.1093 -0.5225
  137OSM   H12S14939  -0.126   3.194   7.539  0.3089  1.0506 -1.0665
  137OSM   H12T14940  -0.114   3.357   7.613 -2.5783  1.0359  0.7174
  137OSM   C13S14941  -0.289   3.234   7.665 -0.1371 -0.5211 -0.1760
  137OSM   H13S14942  -0.322   3.128   7.670 -0.0556 -0.5241  0.3476
  137OSM   H13T14943  -0.352   3.275   7.583  0.2081  1.3101  0.4274
  137OSM   C14S14944  -0.346   3.321   7.784 -0.1768  0.1906  0.5594
  137OSM   H14S14945  -0.295   3.292   7.879 -0.4007  1.4414  1.0798
  137OSM   H14T14946  -0.455   3.300   7.786 -0.9332  3.1384 -2.0847
  137OSM   C15S14947  -0.321   3.473   7.772 -0.5015  0.6054  0.8737
  137OSM   H15S14948  -0.374   3.510   7.681 -2.0713  0.7529  1.8057
  137OSM   H15T14949  -0.214   3.502   7.773 -0.2866 -0.0558 -0.4241
  137OSM   C16S14950  -0.391   3.537   7.894 -0.9836  0.2837  0.7096
  137OSM   H16S14951  -0.348   3.504   7.991  1.3282 -1.8036 -0.9358
  137OSM   H16T14952  -0.492   3.491   7.900 -1.3441  0.7683 -1.0204
  137OSM   C17S14953  -0.389   3.690   7.890 -0.0595  0.1674 -0.7194
  137OSM   H17S14954  -0.474   3.723   7.955 -1.4933 -1.9476 -1.4068
  137OSM   H17T14955  -0.412   3.724   7.787  0.6389  1.3009 -0.5222
  137OSM   C18S14956  -0.262   3.746   7.950 -0.6171 -0.3983  0.0799
  137OSM   H18S14957  -0.273   3.851   7.983  0.0417 -0.5947  0.9778
  137OSM   H18T14958  -0.194   3.753   7.862 -1.1429 -2.3704 -0.5408
  137OSM   H18U14959  -0.223   3.677   8.028  0.8302  0.3503  0.0475
  137OSM    C1F14960   0.565   3.320   7.947  0.1810  0.6439 -0.6645
  137OSM     OF14961   0.676   3.307   8.004  0.4490  0.4657  0.9196
  137OSM    C2F14962   0.563   3.332   7.804  0.5390  0.2858 -0.5223
  137OSM    H2F14963   0.584   3.437   7.775  0.9269 -0.2405 -2.2629
  137OSM    H2G14964   0.459   3.303   7.776 -0.4911  2.9916  0.1159
  137OSM    C3F14965   0.669   3.255   7.724  0.4379 -0.2290  1.0249
  137OSM    H3F14966   0.684   3.148   7.747 -1.6536 -0.4272  1.6364
  137OSM    H3G14967   0.766   3.307   7.739 -0.2148  2.6608 -2.9163
  137OSM    C4F14968   0.638   3.262   7.566  0.2391  0.4349 -0.4707
  137OSM    H4F14969   0.535   3.222   7.550  0.4253 -0.1605 -0.1974
  137OSM    H4G14970   0.710   3.200   7.508  0.4944 -0.2205  0.5329
  137OSM    C5F14971   0.652   3.409   7.518 -0.0697 -0.0970  0.0246
  137OSM    H5F14972   0.742   3.449   7.569  0.0773 -0.7126  0.2607
  137OSM    H5G14973   0.569   3.468   7.562  0.2911  0.0004  0.5979
  137OSM    C6F14974   0.669   3.437   7.370 -0.5108 -0.1696 -0.8896
  137OSM    H6F14975   0.761   3.384   7.338 -0.0078 -1.1120  1.8670
  137OSM    H6G14976   0.681   3.542   7.338  3.4231 -0.4128 -0.6652
  137OSM    C7F14977   0.547   3.389   7.280 -0.0663 -0.1200 -0.1854
  137OSM    H7F14978   0.448   3.411   7.328 -2.0066 -0.1095 -3.8457
  137OSM    H7G14979   0.565   3.281   7.268  0.5147 -0.2013  1.2073
  137OSM    C8F14980   0.541   3.441   7.142 -0.1744 -0.1468 -0.0001
  137OSM    H8F14981   0.522   3.550   7.151 -0.2309 -0.0490 -1.1827
  137OSM    H8G14982   0.456   3.388   7.094  0.6060 -0.9600 -0.5071
  137OSM    C9F14983   0.666   3.409   7.059  0.1735  0.2438 -0.4086
  137OSM    H9F14984   0.753   3.469   7.088 -1.3162  1.1780  2.6064
  137OSM   C10F14985   0.669   3.337   6.950  0.0049  0.4465  0.1206
  137OSM   H10F14986   0.764   3.329   6.894 -0.1270 -2.6014  0.1874
  137OSM   C11F14987   0.556   3.246   6.895  0.0842  0.0849 -0.2247
  137OSM   H11F14988   0.481   3.214   6.970 -1.1777 -3.1040 -2.5989
  137OSM   H11G14989   0.596   3.151   6.852 -0.3648  0.4345 -1.4842
  137OSM   C12F14990   0.484   3.298   6.770  0.2044  0.1487 -0.0642
  137OSM   H12F14991   0.554   3.304   6.684  0.3327 -3.7814 -0.4353
  137OSM   H12G14992   0.446   3.388   6.822 -1.8610 -1.0974  0.6997
  137OSM   C13F14993   0.381   3.198   6.710  0.2192  0.2638 -0.5365
  137OSM   H13F14994   0.427   3.106   6.669  0.8051  0.9644 -1.4910
  137OSM   H13G14995   0.319   3.243   6.629 -3.3429 -1.3477  1.0891
  137OSM   C14F14996   0.273   3.158   6.819 -0.0378 -0.0701  0.2375
  137OSM   H14F14997   0.240   3.251   6.869  1.0338 -0.4976  1.8382
  137OSM   H14G14998   0.323   3.085   6.886 -1.0209 -0.3999  0.6283
  137OSM   C15F14999   0.154   3.090   6.752 -0.2161  0.8194  0.0154
  137OSM   H15F15000   0.170   2.983   6.775  0.4307  1.6192  3.8957
  137OSM   H15G15001   0.152   3.098   6.641 -1.0218 -0.1918 -0.0566
  137OSM   C16F15002   0.017   3.133   6.811 -0.9248  0.8983 -0.1156
  137OSM   H16F15003   0.014   3.244   6.805  0.0244  1.0233  1.1490
  137OSM   H16G15004   0.024   3.114   6.920  1.6924  0.9315 -0.1991
  137OSM   C17F15005  -0.102   3.058   6.752 -0.6808  0.1579 -0.7090
  137OSM   H17F15006  -0.176   3.104   6.821  1.6408  1.6970  0.8982
  137OSM   H17G15007  -0.080   2.952   6.778 -1.8152 -0.1922 -1.0831
  137OSM   C18F15008  -0.135   3.080   6.607  0.4492 -0.3453  0.4470
  137OSM   H18F15009  -0.047   3.054   6.544 -0.3619 -0.5811 -0.6016
  137OSM   H18G15010  -0.161   3.188   6.595  4.2642  0.4540 -2.3835
  137OSM   H18H15011  -0.225   3.021   6.582  0.9418 -2.5272  3.2716
  138OSM      N15012   1.460   1.640   8.321  0.3074 -0.1475  0.1497
  138OSM    C1515013   1.441   1.530   8.417 -0.1078  0.0267  0.1250
  138OSM   H15A15014   1.514   1.543   8.496  1.3022  0.3631 -1.1986
  138OSM   H15B15015   1.459   1.435   8.369 -0.9271  0.2517 -0.6610
  138OSM   H15C15016   1.344   1.535   8.465 -0.9191 -3.8285 -0.7590
  138OSM    C1415017   1.424   1.769   8.388 -0.8483 -0.9747 -0.3869
  138OSM   H14A15018   1.418   1.853   8.319 -1.5340 -0.0952  0.7072
  138OSM   H14B15019   1.506   1.799   8.452  0.2924  2.2295 -3.0221
  138OSM   H14C15020   1.331   1.762   8.441 -2.1890  1.8796 -2.1206
  138OSM    C1315021   1.605   1.650   8.286  0.1342 -0.0719  0.2552
  138OSM   H13A15022   1.663   1.666   8.376  0.1103  3.3017 -0.2109
  138OSM   H13B15023   1.614   1.739   8.226  1.3761 -0.3731 -0.0257
  138OSM   H13C15024   1.636   1.559   8.236  2.3949 -0.3742  2.0124
  138OSM    C1215025   1.375   1.625   8.198 -0.1349 -0.0325  0.3194
  138OSM   H12A15026   1.385   1.707   8.128  0.9515 -0.6524 -0.2672
  138OSM   H12B15027   1.274   1.634   8.234 -0.8052  2.3311 -1.8558
  138OSM    C1115028   1.390   1.493   8.122  0.5860  0.3721  0.6373
  138OSM   H11A15029   1.497   1.464   8.114  0.8856  1.7964 -1.1613
  138OSM   H11B15030   1.349   1.505   8.019  1.5591 -1.1306  0.0229
  138OSM      P15031   1.167   1.350   8.146 -0.2860 -0.0597 -0.3422
  138OSM    O1315032   1.133   1.230   8.228  0.0126  0.5104 -0.3039
  138OSM    O1415033   1.086   1.468   8.161  0.9636  0.0691  0.0359
  138OSM    O1115034   1.177   1.297   8.000  0.0787 -0.1982 -0.2045
  138OSM    O1215035   1.318   1.395   8.186  0.1328  0.6969 -1.0669
  138OSM    C1S15036   1.255   1.195   7.944  0.1281  0.3679  0.0105
  138OSM    H1S15037   1.243   1.100   8.000 -0.0328  0.5524  0.2925
  138OSM    H1T15038   1.363   1.220   7.950  0.3174 -0.2248 -0.7223
  138OSM     NF15039   1.222   1.032   7.746 -0.7015 -0.0236 -0.1254
  138OSM    HNF15040   1.276   1.016   7.664  0.4066  0.9684  0.3735
  138OSM    C2S15041   1.205   1.167   7.801 -0.2690 -0.2267  0.9930
  138OSM    H2S15042   1.095   1.182   7.794 -0.2840 -0.9173 -1.2436
  138OSM    C3S15043   1.276   1.273   7.712 -0.2861  0.3192 -0.1639
  138OSM    H3S15044   1.384   1.260   7.736 -0.5659 -0.1739  0.9148
  138OSM     O315045   1.245   1.410   7.746 -0.1293  0.0956 -0.5535
  138OSM    HO315046   1.195   1.404   7.827  1.0141 -0.5355  0.1404
  138OSM    C4S15047   1.242   1.255   7.569 -0.6784 -0.2768  0.4357
  138OSM    H4S15048   1.143   1.293   7.538  0.5179  2.1368 -0.6333
  138OSM    C5S15049   1.332   1.226   7.479  0.4062  0.1123  1.1495
  138OSM    H5S15050   1.439   1.237   7.503  0.9450  1.5514 -1.4342
  138OSM    C6S15051   1.308   1.224   7.328 -0.4601 -0.2166  0.1208
  138OSM    H6S15052   1.304   1.117   7.298 -0.3921 -0.4993  1.0890
  138OSM    H6T15053   1.397   1.268   7.278 -1.8635  3.1798  0.3165
  138OSM    C7S15054   1.186   1.303   7.264 -0.1208  0.3166  0.3336
  138OSM    H7S15055   1.160   1.386   7.333 -1.4695 -0.6081  0.9785
  138OSM    H7T15056   1.099   1.235   7.255 -0.9090  1.5306 -1.8612
  138OSM    C8S15057   1.212   1.371   7.127 -0.1116 -0.7349 -0.0019
  138OSM    H8S15058   1.273   1.307   7.059 -0.0164 -0.2178 -0.4175
  138OSM    H8T15059   1.287   1.451   7.146  0.3794 -0.9160 -1.0537
  138OSM    C9S15060   1.096   1.440   7.061  0.1831  0.0137 -0.9593
  138OSM    H9S15061   1.048   1.509   7.134  0.1800 -2.6415  1.7250
  138OSM    H9T15062   1.013   1.368   7.048 -1.3128  0.9301  2.3912
  138OSM   C10S15063   1.142   1.503   6.929  0.0574 -0.0037  1.3718
  138OSM   H10S15064   1.158   1.417   6.860 -1.0863  0.5078  0.4287
  138OSM   H10T15065   1.245   1.543   6.936 -0.1298  1.0498 -0.9583
  138OSM   C11S15066   1.038   1.599   6.858 -0.4746  0.0397 -0.3732
  138OSM   H11S15067   1.019   1.678   6.934  0.0233 -1.5537  1.5021
  138OSM   H11T15068   0.934   1.565   6.838 -1.2291  1.2122  1.3271
  138OSM   C12S15069   1.072   1.648   6.716 -0.1369 -0.5770  0.2303
  138OSM   H12S15070   1.098   1.557   6.658  3.7955  1.4730 -1.5679
  138OSM   H12T15071   1.166   1.707   6.713 -0.9675  0.7648 -0.0816
  138OSM   C13S15072   0.961   1.720   6.636  0.4893 -0.0385 -0.7447
  138OSM   H13S15073   0.939   1.814   6.692 -0.5654 -0.2661 -0.7544
  138OSM   H13T15074   0.870   1.658   6.625  1.5817 -1.4503 -2.3298
  138OSM   C14S15075   1.020   1.764   6.497  0.4708  1.2077 -0.5189
  138OSM   H14S15076   1.119   1.813   6.505  1.4077 -0.6226 -0.4162
  138OSM   H14T15077   0.947   1.829   6.445 -0.8660 -0.8474 -1.3306
  138OSM   C15S15078   1.035   1.656   6.389 -0.7497  0.5111 -0.3437
  138OSM   H15S15079   1.104   1.581   6.435 -1.0781  0.8428  0.7203
  138OSM   H15T15080   1.096   1.698   6.307 -0.0954 -0.2300 -0.2603
  138OSM   C16S15081   0.910   1.587   6.336 -0.2003  0.5804  0.7219
  138OSM   H16S15082   0.845   1.667   6.296  0.5488  0.1880 -1.4263
  138OSM   H16T15083   0.865   1.534   6.423  1.4341 -0.8495  0.7625
  138OSM   C17S15084   0.940   1.483   6.225 -0.2297  0.1572  1.2208
  138OSM   H17S15085   1.027   1.420   6.253  1.6905  0.4896 -3.1671
  138OSM   H17T15086   0.978   1.527   6.130  1.3271 -1.1659  1.1917
  138OSM   C18S15087   0.812   1.407   6.198  0.0319  0.1455  0.0280
  138OSM   H18S15088   0.793   1.336   6.281 -2.1818 -0.3482 -0.8191
  138OSM   H18T15089   0.835   1.339   6.113 -1.7238  0.2514 -0.5682
  138OSM   H18U15090   0.719   1.459   6.168 -0.5693 -1.3669 -0.8650
  138OSM    C1F15091   1.166   0.926   7.801 -0.2479  1.2449 -0.5413
  138OSM     OF15092   1.080   0.948   7.879  0.1484 -0.3856  0.1803
  138OSM    C2F15093   1.219   0.788   7.764  0.0362  0.2087 -0.0567
  138OSM    H2F15094   1.268   0.740   7.851  0.1204 -0.0741 -0.2602
  138OSM    H2G15095   1.284   0.800   7.675 -0.3006 -1.6935 -0.6057
  138OSM    C3F15096   1.113   0.698   7.704 -0.1663  0.4764 -0.3501
  138OSM    H3F15097   1.045   0.677   7.790  0.9671 -1.0729  0.2195
  138OSM    H3G15098   1.166   0.609   7.664 -0.9826  0.9185 -2.5528
  138OSM    C4F15099   1.056   0.758   7.579  0.4011  0.0499 -0.1715
  138OSM    H4F15100   1.035   0.864   7.605  2.7765  0.0606  2.0694
  138OSM    H4G15101   0.960   0.707   7.554  0.7809 -0.7170 -0.1007
  138OSM    C5F15102   1.146   0.734   7.450  0.2195  0.1532 -0.9642
  138OSM    H5F15103   1.157   0.626   7.428 -0.9260 -0.7530  2.2308
  138OSM    H5G15104   1.250   0.769   7.469  0.2947 -0.6542  0.2270
  138OSM    C6F15105   1.082   0.793   7.328 -0.8252 -0.2285 -0.4744
  138OSM    H6F15106   1.080   0.904   7.338  0.7578 -0.1220 -1.0041
  138OSM    H6G15107   0.976   0.761   7.330 -0.7156 -0.6483 -1.0193
  138OSM    C7F15108   1.156   0.769   7.195 -0.0894  0.1983  0.1378
  138OSM    H7F15109   1.160   0.658   7.191  0.2452  0.0825  2.3396
  138OSM    H7G15110   1.262   0.800   7.199 -0.5791  2.5773 -2.3751
  138OSM    C8F15111   1.079   0.799   7.065  0.0742  0.5120  0.4451
  138OSM    H8F15112   0.978   0.753   7.075  0.3634 -1.3918 -3.3390
  138OSM    H8G15113   1.115   0.744   6.975  0.3190 -0.6125  1.2076
  138OSM    C9F15114   1.073   0.943   7.051  0.3100 -0.1305  0.9059
  138OSM    H9F15115   1.001   1.002   7.109  0.2025 -0.5304  1.1844
  138OSM   C10F15116   1.168   1.015   6.980  0.2738 -0.0936 -0.7219
  138OSM   H10F15117   1.137   1.118   6.959 -0.8415 -0.3846 -0.5766
  138OSM   C11F15118   1.278   0.954   6.900  0.6035  0.1033  0.2339
  138OSM   H11F15119   1.256   0.849   6.872 -0.2998  0.6464 -1.2452
  138OSM   H11G15120   1.379   0.962   6.947  1.5350 -1.5508 -1.3676
  138OSM   C12F15121   1.283   1.037   6.772 -0.4923 -0.4206 -0.0909
  138OSM   H12F15122   1.289   1.142   6.806 -0.1187 -1.0380  1.8571
  138OSM   H12G15123   1.188   1.036   6.714 -0.4067  1.8559 -0.3270
  138OSM   C13F15124   1.394   0.985   6.674  0.0643  0.2003  0.0508
  138OSM   H13F15125   1.389   0.875   6.682 -2.4243  0.2512 -0.1700
  138OSM   H13G15126   1.489   1.033   6.705  0.7659 -1.4018  0.4586
  138OSM   C14F15127   1.361   1.009   6.528 -0.1172 -0.6975  0.5856
  138OSM   H14F15128   1.381   1.115   6.500  2.3164 -1.0085  0.8588
  138OSM   H14G15129   1.257   0.981   6.501 -0.4220 -1.4025  2.3655
  138OSM   C15F15130   1.453   0.915   6.438  0.1900  0.6462 -0.5179
  138OSM   H15F15131   1.424   0.936   6.333  2.7086 -1.7444 -1.7848
  138OSM   H15G15132   1.433   0.807   6.454  1.7454  0.1810 -1.5405
  138OSM   C16F15133   1.602   0.945   6.446  0.7885  0.2384  0.4014
  138OSM   H16F15134   1.662   0.874   6.386 -1.9874  0.6364 -3.1307
  138OSM   H16G15135   1.629   0.943   6.554  4.2445  0.8883 -0.3193
  138OSM   C17F15136   1.629   1.087   6.394 -0.8850  0.0083 -0.1353
  138OSM   H17F15137   1.570   1.163   6.450  0.5234  0.8586  0.2400
  138OSM   H17G15138   1.605   1.093   6.286  1.0403 -0.1899 -0.6064
  138OSM   C18F15139   1.778   1.124   6.409  0.4260 -0.0281  0.0630
  138OSM   H18F15140   1.826   1.133   6.508  1.4300 -0.9973 -0.3105
  138OSM   H18G15141   1.793   1.227   6.370  0.5784  0.1155  0.5013
  138OSM   H18H15142   1.837   1.048   6.354 -1.0956 -2.8541  2.0809
  139OSM      N15143   4.284   5.672   8.642  0.1463  0.0490  0.0441
  139OSM    C1515144   4.363   5.768   8.728  0.2723 -0.1567  0.1275
  139OSM   H15A15145   4.316   5.865   8.726  0.3900 -0.1012 -0.7880
  139OSM   H15B15146   4.467   5.783   8.701  0.9145 -0.3275  2.2929
  139OSM   H15C15147   4.383   5.734   8.828 -1.1249 -0.6894  0.2409
  139OSM    C1415148   4.138   5.665   8.679  0.0898  0.1566  0.4645
  139OSM   H14A15149   4.092   5.762   8.694  1.0534  0.8286 -0.7883
  139OSM   H14B15150   4.131   5.635   8.783  0.0169  2.3195  1.1396
  139OSM   H14C15151   4.082   5.603   8.611 -1.7437 -0.0103  2.0245
  139OSM    C1315152   4.289   5.715   8.497  0.2188 -1.4543  0.0570
  139OSM   H13A15153   4.229   5.639   8.448  0.1288  0.0056 -2.2582
  139OSM   H13B15154   4.387   5.716   8.453  0.7271 -1.0891  1.1586
  139OSM   H13C15155   4.232   5.806   8.492  0.1663 -1.3308  2.1130
  139OSM    C1215156   4.344   5.531   8.656  0.0337  0.2656  0.3683
  139OSM   H12A15157   4.290   5.451   8.607  1.1926  0.3582 -1.1544
  139OSM   H12B15158   4.327   5.493   8.756  0.5631 -0.1987  0.2888
  139OSM    C1115159   4.501   5.518   8.636 -0.3678  0.3433  0.8270
  139OSM   H11A15160   4.536   5.419   8.671  0.0147 -0.1034 -0.7352
  139OSM   H11B15161   4.556   5.595   8.695  0.3391  1.7520 -1.5055
  139OSM      P15162   4.650   5.620   8.442 -0.4444  0.0803  0.0395
  139OSM    O1315163   4.601   5.757   8.468  0.3150  0.2756  0.0491
  139OSM    O1415164   4.775   5.571   8.510  0.1229  0.1092 -0.1471
  139OSM    O1115165   4.656   5.590   8.288  0.1335  0.2534 -0.4318
  139OSM    O1215166   4.538   5.523   8.488  0.0653 -0.1075 -0.0415
  139OSM    C1S15167   4.676   5.458   8.236  0.0028 -0.3248 -0.7075
  139OSM    H1S15168   4.580   5.402   8.246 -0.1623 -0.9106 -4.3876
  139OSM    H1T15169   4.763   5.415   8.290 -0.0667  0.7189  0.2715
  139OSM     NF15170   4.721   5.323   8.024  0.1036 -0.2655 -0.4542
  139OSM    HNF15171   4.807   5.275   8.036  0.1885 -0.6643 -2.4438
  139OSM    C2S15172   4.716   5.458   8.078 -0.2258 -0.4701 -0.6519
  139OSM    H2S15173   4.644   5.517   8.018 -1.0267 -1.4324 -0.6546
  139OSM    C3S15174   4.849   5.539   8.053 -0.0097 -0.1964  0.1668
  139OSM    H3S15175   4.922   5.505   8.129  1.4379 -2.1237 -1.9680
  139OSM     O315176   4.829   5.674   8.085  0.3546 -0.0134 -0.3515
  139OSM    HO315177   4.750   5.662   8.139 -0.6389  1.9626 -1.2292
  139OSM    C4S15178   4.900   5.530   7.909 -0.2588 -0.3644 -0.1832
  139OSM    H4S15179   4.842   5.583   7.832  0.2704 -1.2935 -1.2617
  139OSM    C5S15180   5.013   5.465   7.880 -0.3738  0.3432 -0.1258
  139OSM    H5S15181   5.067   5.411   7.960 -1.3877 -1.7503 -0.7862
  139OSM    C6S15182   5.065   5.448   7.744 -0.3301  0.2309  0.2405
  139OSM    H6S15183   5.164   5.396   7.752  0.2114  1.3766  1.4252
  139OSM    H6T15184   5.084   5.550   7.705  1.9442  0.7234  2.3217
  139OSM    C7S15185   4.970   5.378   7.645  0.1566  0.5355 -0.3788
  139OSM    H7S15186   4.865   5.413   7.656 -0.9411 -2.5112 -0.2536
  139OSM    H7T15187   4.955   5.270   7.664 -1.8747  0.7950 -0.3532
  139OSM    C8S15188   5.024   5.390   7.504  0.7600  0.8507  0.6403
  139OSM    H8S15189   5.128   5.351   7.502 -0.5871 -3.1468 -1.1874
  139OSM    H8T15190   5.021   5.497   7.473  0.3365  0.8766  0.7608
  139OSM    C9S15191   4.952   5.297   7.406 -0.0331  0.4984  0.1133
  139OSM    H9S15192   4.841   5.300   7.414  0.0139  0.3062  0.9058
  139OSM    H9T15193   4.974   5.191   7.429  0.2122  0.5544  0.1461
  139OSM   C10S15194   4.986   5.344   7.267 -0.6732  0.2682 -0.0480
  139OSM   H10S15195   5.095   5.366   7.267 -0.5746 -0.1577 -1.0771
  139OSM   H10T15196   4.934   5.440   7.243 -0.7768  1.3925  3.9869
  139OSM   C11S15197   4.967   5.232   7.161 -0.4226  0.4729 -0.1896
  139OSM   H11S15198   4.859   5.206   7.163 -0.6852  1.0858 -2.8929
  139OSM   H11T15199   5.027   5.142   7.188 -0.0765  0.6226 -0.4571
  139OSM   C12S15200   5.005   5.279   7.018  0.4624 -0.0560  0.6385
  139OSM   H12S15201   5.111   5.309   7.004 -0.0468  1.3060 -0.6236
  139OSM   H12T15202   4.939   5.368   7.017  2.0898  1.1922 -0.5070
  139OSM   C13S15203   4.954   5.185   6.910  0.8710 -0.4059  0.0909
  139OSM   H13S15204   4.863   5.131   6.944  1.0134  0.3227  1.7133
  139OSM   H13T15205   5.034   5.109   6.903  0.5818 -0.9459  2.0964
  139OSM   C14S15206   4.917   5.255   6.778  0.2178  0.0943 -0.3150
  139OSM   H14S15207   5.014   5.280   6.729  2.0909 -0.9901  2.5699
  139OSM   H14T15208   4.879   5.356   6.806  1.0886  0.2459  0.3887
  139OSM   C15S15209   4.805   5.184   6.699 -0.4485  0.1363 -0.0417
  139OSM   H15S15210   4.718   5.175   6.767 -1.2407 -1.4466 -1.2129
  139OSM   H15T15211   4.852   5.085   6.682  1.9269  1.1723  0.1128
  139OSM   C16S15212   4.769   5.243   6.559  0.2758 -0.3121  0.6355
  139OSM   H16S15213   4.866   5.236   6.504 -0.1282  2.1734 -0.5318
  139OSM   H16T15214   4.749   5.352   6.566  2.8899  0.1526  2.3729
  139OSM   C17S15215   4.667   5.149   6.492  0.2091  0.1003  0.1945
  139OSM   H17S15216   4.570   5.151   6.548 -0.9678 -0.7003 -1.7262
  139OSM   H17T15217   4.705   5.046   6.502 -0.3656 -0.0350  1.2126
  139OSM   C18S15218   4.652   5.176   6.336 -0.5812 -0.4843 -0.6726
  139OSM   H18S15219   4.642   5.284   6.313 -1.3037 -0.4866 -0.4198
  139OSM   H18T15220   4.564   5.127   6.288  0.3733 -1.4899 -1.4564
  139OSM   H18U15221   4.740   5.132   6.285 -1.5892 -0.7516 -2.2836
  139OSM    C1F15222   4.613   5.243   8.011 -0.1251 -0.3882  1.6075
  139OSM     OF15223   4.503   5.289   8.004  0.0977 -0.9063  0.1013
  139OSM    C2F15224   4.629   5.095   8.002 -0.7136 -0.3552 -0.3110
  139OSM    H2F15225   4.555   5.042   8.066  0.5649 -2.3941 -0.4299
  139OSM    H2G15226   4.732   5.074   8.038 -0.4445  1.0830 -0.1754
  139OSM    C3F15227   4.619   5.038   7.853  0.1237  0.1645  0.2763
  139OSM    H3F15228   4.520   5.060   7.808  0.9157  1.2136 -1.0079
  139OSM    H3G15229   4.638   4.928   7.860 -1.1232 -0.2413 -1.9569
  139OSM    C4F15230   4.726   5.107   7.766  0.3322 -0.5327 -0.8328
  139OSM    H4F15231   4.829   5.084   7.798 -0.1572  1.0889  2.2751
  139OSM    H4G15232   4.703   5.216   7.772  0.0618 -0.6858  1.9553
  139OSM    C5F15233   4.715   5.065   7.623  0.3012 -0.3021 -0.1533
  139OSM    H5F15234   4.759   5.144   7.559  0.5239  0.1297  0.5178
  139OSM    H5G15235   4.609   5.060   7.590  1.0439  1.0289 -3.0447
  139OSM    C6F15236   4.768   4.919   7.597  0.1185 -0.2795  0.5576
  139OSM    H6F15237   4.708   4.840   7.646  0.3252 -1.4958 -1.0704
  139OSM    H6G15238   4.873   4.905   7.632 -0.2782 -4.2543  0.5767
  139OSM    C7F15239   4.752   4.870   7.446  0.3407  0.6875 -0.0711
  139OSM    H7F15240   4.642   4.862   7.435  0.3436 -1.2381  0.7739
  139OSM    H7G15241   4.787   4.764   7.444 -0.8911  0.2646  0.2408
  139OSM    C8F15242   4.803   4.947   7.325  0.1204 -0.2650 -0.5270
  139OSM    H8F15243   4.911   4.969   7.336  0.2588 -0.6243 -1.1512
  139OSM    H8G15244   4.734   5.035   7.329 -0.7368 -0.7345 -3.1502
  139OSM    C9F15245   4.790   4.882   7.193 -0.1178 -0.9480 -0.2879
  139OSM    H9F15246   4.878   4.821   7.168  1.0629  0.5406  0.0816
  139OSM   C10F15247   4.692   4.907   7.105  0.0940  0.0723  0.2186
  139OSM   H10F15248   4.693   4.842   7.016 -0.3565 -0.9644  0.9511
  139OSM   C11F15249   4.571   4.990   7.119  0.0895 -0.5796  0.1861
  139OSM   H11F15250   4.539   5.002   7.225  0.9332 -0.8301  0.4728
  139OSM   H11G15251   4.485   4.939   7.071 -0.5420 -1.0411  1.7326
  139OSM   C12F15252   4.586   5.123   7.045  0.4093  0.1249 -0.4029
  139OSM   H12F15253   4.590   5.095   6.938  0.1395  0.9368 -0.6312
  139OSM   H12G15254   4.673   5.182   7.082 -0.4073 -0.0198  1.9538
  139OSM   C13F15255   4.470   5.221   7.057 -0.7845 -0.7327 -0.2626
  139OSM   H13F15256   4.485   5.296   7.138 -0.7817 -1.6584  0.6072
  139OSM   H13G15257   4.376   5.163   7.066 -1.1068 -0.8922 -3.4327
  139OSM   C14F15258   4.456   5.297   6.924  0.3136 -1.0535  0.8400
  139OSM   H14F15259   4.487   5.235   6.838  3.6330  0.9690  0.4230
  139OSM   H14G15260   4.525   5.384   6.925 -2.1378  1.0063  1.1016
  139OSM   C15F15261   4.314   5.352   6.915 -0.5658  0.0604  0.4018
  139OSM   H15F15262   4.298   5.414   7.006 -0.8995  2.2346 -1.0789
  139OSM   H15G15263   4.250   5.261   6.925 -0.7606  0.0366 -0.9513
  139OSM   C16F15264   4.274   5.433   6.794  0.7133  0.5918  0.5426
  139OSM   H16F15265   4.315   5.536   6.791  1.1322  0.4017 -0.7651
  139OSM   H16G15266   4.163   5.445   6.797  0.7090  0.5183  0.7173
  139OSM   C17F15267   4.316   5.375   6.657  0.3002 -0.0874  0.7211
  139OSM   H17F15268   4.279   5.270   6.650  2.1064 -0.8003  1.1748
  139OSM   H17G15269   4.426   5.369   6.642  0.2145 -0.3464  0.1689
  139OSM   C18F15270   4.254   5.458   6.539  0.1742 -0.0625 -0.5054
  139OSM   H18F15271   4.299   5.413   6.448  0.0867 -1.3598  0.0865
  139OSM   H18G15272   4.273   5.568   6.538 -1.3414  0.2636  1.4702
  139OSM   H18H15273   4.145   5.438   6.532  0.3222 -1.4293  0.7499
  140OSM      N15274   0.145   4.515   8.272 -0.4752 -0.2421 -0.4216
  140OSM    C1515275   0.272   4.476   8.358  0.6842 -0.1040  0.2872
  140OSM   H15A15276   0.336   4.410   8.302 -0.2227 -2.8613  2.2491
  140OSM   H15B15277   0.233   4.406   8.431  0.3143 -0.9651 -0.7031
  140OSM   H15C15278   0.319   4.560   8.406  1.9109 -0.7259  0.2185
  140OSM    C1415279   0.050   4.587   8.365 -0.2442  0.1817  0.7899
  140OSM   H14A15280  -0.049   4.588   8.322  0.4180 -0.2379 -0.7871
  140OSM   H14B15281   0.091   4.687   8.377  0.5285 -0.2451  1.9533
  140OSM   H14C15282   0.026   4.532   8.455 -1.9388 -0.2474  0.1129
  140OSM    C1315283   0.199   4.611   8.173 -0.1490 -0.1322 -1.1320
  140OSM   H13A15284   0.127   4.640   8.099 -1.5990  1.7816  0.8902
  140OSM   H13B15285   0.286   4.556   8.139  0.7760 -0.2704  1.2148
  140OSM   H13C15286   0.249   4.700   8.209  0.1084  0.0959 -2.0390
  140OSM    C1215287   0.081   4.394   8.203  0.2594 -0.2582 -0.4087
  140OSM   H12A15288   0.047   4.334   8.286  1.6464 -0.7688 -0.1742
  140OSM   H12B15289   0.153   4.338   8.145  1.0852 -0.2682  0.6027
  140OSM    C1115290  -0.039   4.427   8.113  0.1178  0.4262  0.3303
  140OSM   H11A15291  -0.074   4.337   8.058 -0.6950 -0.4011  2.1287
  140OSM   H11B15292  -0.004   4.495   8.032  1.5763 -0.2243  0.3784
  140OSM      P15293  -0.240   4.383   8.282 -0.1927 -0.0955  0.0370
  140OSM    O1315294  -0.155   4.313   8.378 -0.2133 -0.2934 -0.6116
  140OSM    O1415295  -0.360   4.452   8.330 -0.1041 -0.1068 -0.5263
  140OSM    O1115296  -0.294   4.278   8.169  0.1189  0.8581 -0.3792
  140OSM    O1215297  -0.154   4.480   8.186  0.0304 -0.3441 -0.2736
  140OSM    C1S15298  -0.351   4.333   8.044  0.8679  0.4821 -0.7703
  140OSM    H1S15299  -0.287   4.411   7.998  1.1006  0.0165 -1.2432
  140OSM    H1T15300  -0.445   4.386   8.073  0.6701  0.7486 -1.8410
  140OSM     NF15301  -0.446   4.276   7.814  0.2247 -0.1615  0.0173
  140OSM    HNF15302  -0.545   4.285   7.808  0.4318  1.7098 -2.7122
  140OSM    C2S15303  -0.397   4.227   7.938 -0.0252  1.2037  0.2073
  140OSM    H2S15304  -0.310   4.166   7.906 -1.3615 -0.1271 -1.0713
  140OSM    C3S15305  -0.492   4.128   8.009  0.4522 -0.1379  0.2383
  140OSM    H3S15306  -0.576   4.194   8.042 -0.2958 -1.0673  0.2490
  140OSM     O315307  -0.446   4.065   8.129  0.1625  0.5695  0.2530
  140OSM    HO315308  -0.374   4.119   8.163  0.2939  1.0402 -0.7299
  140OSM    C4S15309  -0.551   4.027   7.912  0.5790 -0.2241 -0.0834
  140OSM    H4S15310  -0.466   3.973   7.867  1.3952  1.1308 -0.2413
  140OSM    C5S15311  -0.674   4.007   7.858  0.5105 -0.0020  0.1357
  140OSM    H5S15312  -0.767   4.058   7.888  0.7856  0.6022 -0.0264
  140OSM    C6S15313  -0.699   3.889   7.763  0.2846 -0.6824  0.2570
  140OSM    H6S15314  -0.802   3.849   7.775 -0.6379  1.5378  0.1259
  140OSM    H6T15315  -0.628   3.806   7.785  1.4616  0.3788  0.5703
  140OSM    C7S15316  -0.694   3.954   7.620  0.6402  0.5568  0.8722
  140OSM    H7S15317  -0.599   4.011   7.620  0.5516  0.7068  1.3073
  140OSM    H7T15318  -0.779   4.025   7.613 -1.2233 -1.5772  0.6792
  140OSM    C8S15319  -0.703   3.851   7.504 -0.0862 -0.3738 -0.4001
  140OSM    H8S15320  -0.802   3.802   7.520 -1.1956  1.5870 -0.9149
  140OSM    H8T15321  -0.623   3.775   7.520  1.1641  1.3500  2.3166
  140OSM    C9S15322  -0.703   3.914   7.368  0.0719  0.1169 -0.0097
  140OSM    H9S15323  -0.600   3.955   7.360  0.4169 -0.9332 -1.3410
  140OSM    H9T15324  -0.776   3.998   7.369  0.0373  0.0968  1.5973
  140OSM   C10S15325  -0.727   3.810   7.252 -0.4194  0.0525  0.1025
  140OSM   H10S15326  -0.830   3.779   7.281 -0.8325  2.4815  1.5306
  140OSM   H10T15327  -0.657   3.727   7.274 -1.3935 -0.5136  1.1836
  140OSM   C11S15328  -0.728   3.869   7.113 -0.3195 -0.0035 -0.1143
  140OSM   H11S15329  -0.645   3.941   7.125 -1.0698  1.0272 -0.9605
  140OSM   H11T15330  -0.824   3.924   7.115  0.3392  1.2188  3.0050
  140OSM   C12S15331  -0.716   3.762   7.004 -0.6165 -1.4234 -0.0046
  140OSM   H12S15332  -0.806   3.699   7.020 -1.9333  0.8073  2.2479
  140OSM   H12T15333  -0.619   3.710   7.019 -1.5298 -3.2058 -0.0726
  140OSM   C13S15334  -0.721   3.813   6.856  0.4620  0.3057  0.3193
  140OSM   H13S15335  -0.633   3.879   6.839  1.9394 -1.6685 -0.0966
  140OSM   H13T15336  -0.812   3.875   6.840  1.3214  1.3858 -0.4842
  140OSM   C14S15337  -0.729   3.702   6.744 -0.7460  0.2526 -0.3449
  140OSM   H14S15338  -0.813   3.637   6.773 -0.6673  0.8474  1.3074
  140OSM   H14T15339  -0.633   3.651   6.767 -0.3612  0.4455 -1.4708
  140OSM   C15S15340  -0.726   3.746   6.598 -0.0949  0.6240 -0.3526
  140OSM   H15S15341  -0.639   3.813   6.580  0.1139  0.8476  1.3391
  140OSM   H15T15342  -0.822   3.796   6.572 -1.5108 -1.2670  0.9142
  140OSM   C16S15343  -0.705   3.619   6.511  0.3264 -0.3512  0.3502
  140OSM   H16S15344  -0.786   3.551   6.545  0.2801 -0.3206  0.3010
  140OSM   H16T15345  -0.606   3.577   6.540 -0.7192 -0.5677  4.1764
  140OSM   C17S15346  -0.711   3.649   6.357  0.2330  1.0090 -0.3530
  140OSM   H17S15347  -0.624   3.598   6.311  0.5027  0.1057  1.0734
  140OSM   H17T15348  -0.701   3.759   6.347  2.5454  0.9407  0.5602
  140OSM   C18S15349  -0.842   3.594   6.284 -0.1561 -0.9512  0.5585
  140OSM   H18S15350  -0.920   3.672   6.292  0.7379  0.0624 -0.1495
  140OSM   H18T15351  -0.866   3.496   6.330  3.9189 -1.9462  0.9446
  140OSM   H18U15352  -0.821   3.593   6.175 -2.9212  2.0173 -0.1347
  140OSM    C1F15353  -0.377   4.351   7.730 -0.6049 -0.4787 -0.2335
  140OSM     OF15354  -0.266   4.393   7.757  0.0232 -0.1098  0.3474
  140OSM    C2F15355  -0.441   4.389   7.601  0.8374  0.2428 -0.4373
  140OSM    H2F15356  -0.426   4.498   7.588  3.2478  0.1662  1.2057
  140OSM    H2G15357  -0.552   4.377   7.598  0.4935  2.6759  0.4397
  140OSM    C3F15358  -0.370   4.318   7.484  0.4747 -0.1259  0.2781
  140OSM    H3F15359  -0.373   4.207   7.497 -1.1933 -0.1442 -0.0256
  140OSM    H3G15360  -0.261   4.340   7.487  0.8457 -1.7821  0.2105
  140OSM    C4F15361  -0.441   4.363   7.349 -0.1578 -0.4347  0.3311
  140OSM    H4F15362  -0.542   4.318   7.358 -0.1144 -0.5697  0.1434
  140OSM    H4G15363  -0.388   4.313   7.265  0.6429  0.4409  0.2936
  140OSM    C5F15364  -0.462   4.510   7.324  0.0769 -0.4742  0.7602
  140OSM    H5F15365  -0.531   4.545   7.403 -0.8536 -0.4634 -0.0408
  140OSM    H5G15366  -0.511   4.515   7.225 -1.8029 -1.6260  1.5780
  140OSM    C6F15367  -0.335   4.596   7.338  0.5591 -0.1610 -0.5057
  140OSM    H6F15368  -0.258   4.544   7.278  0.9424 -0.1431 -0.0344
  140OSM    H6G15369  -0.292   4.567   7.436 -4.1258  0.9884  2.2166
  140OSM    C7F15370  -0.345   4.745   7.322  0.2877 -0.0161 -0.4117
  140OSM    H7F15371  -0.257   4.787   7.375  0.8304  0.1053 -1.3957
  140OSM    H7G15372  -0.435   4.783   7.375  0.4206 -0.3080  0.0314
  140OSM    C8F15373  -0.349   4.796   7.173 -0.6645  0.7269  0.3588
  140OSM    H8F15374  -0.386   4.899   7.158 -0.5009  0.9215  1.2379
  140OSM    H8G15375  -0.425   4.738   7.117 -0.2779  3.3626 -3.2449
  140OSM    C9F15376  -0.217   4.777   7.097  0.5194 -0.4331 -0.2374
  140OSM    H9F15377  -0.129   4.820   7.147  2.3491 -2.9289 -1.1023
  140OSM   C10F15378  -0.187   4.709   6.996 -0.7852  0.5905  0.9568
  140OSM   H10F15379  -0.081   4.716   6.967 -0.8877  1.6461  0.8069
  140OSM   C11F15380  -0.272   4.617   6.914 -0.5331  0.1559 -0.3901
  140OSM   H11F15381  -0.368   4.671   6.898 -0.7181  0.4266  1.4432
  140OSM   H11G15382  -0.305   4.533   6.979  1.0350  0.9574  1.5487
  140OSM   C12F15383  -0.206   4.548   6.790  0.2548  0.6243  0.0525
  140OSM   H12F15384  -0.130   4.475   6.826 -0.0183  0.1747 -0.2710
  140OSM   H12G15385  -0.145   4.622   6.734 -1.7609  0.7055 -2.1810
  140OSM   C13F15386  -0.300   4.465   6.713  0.0305 -0.2948  0.2881
  140OSM   H13F15387  -0.393   4.524   6.699  0.7842  1.1191  1.0653
  140OSM   H13G15388  -0.322   4.377   6.776  1.0693 -0.4236  0.4996
  140OSM   C14F15389  -0.245   4.412   6.577  0.2137  0.1532  0.1508
  140OSM   H14F15390  -0.221   4.501   6.514 -0.5093 -1.0946 -2.0073
  140OSM   H14G15391  -0.334   4.366   6.530  0.5158  0.2724 -0.5491
  140OSM   C15F15392  -0.128   4.313   6.577  0.3261 -0.0124  0.2109
  140OSM   H15F15393  -0.155   4.217   6.626  0.5656  0.4323  1.2412
  140OSM   H15G15394  -0.053   4.361   6.644 -0.8324  2.7655 -0.3236
  140OSM   C16F15395  -0.064   4.309   6.432  0.6825  0.0848  1.0195
  140OSM   H16F15396   0.034   4.258   6.444  1.4500  1.7974  2.4523
  140OSM   H16G15397  -0.051   4.414   6.398  0.2357 -0.1074  0.2239
  140OSM   C17F15398  -0.146   4.221   6.332 -0.2567  0.2412 -0.1532
  140OSM   H17F15399  -0.247   4.261   6.312 -1.1469 -2.2181 -0.9031
  140OSM   H17G15400  -0.151   4.119   6.375  0.2972  0.8271  1.3860
  140OSM   C18F15401  -0.074   4.224   6.194  0.0180 -0.6567 -0.0191
  140OSM   H18F15402  -0.129   4.174   6.110 -2.0892 -0.6031  1.2515
  140OSM   H18G15403   0.031   4.190   6.200 -0.0979 -1.4279 -1.7422
  140OSM   H18H15404  -0.067   4.331   6.164  1.2438 -1.0225 -1.1395
  141OSM      N15405   3.847   2.824   8.263 -0.0196  0.4305  1.0026
  141OSM    C1515406   3.798   2.960   8.236  0.4027 -0.3369 -0.0607
  141OSM   H15A15407   3.853   3.001   8.153 -0.2614 -1.6635 -1.2121
  141OSM   H15B15408   3.817   3.022   8.322 -1.5232 -1.2262  1.0967
  141OSM   H15C15409   3.690   2.960   8.227  0.3181 -1.8279  0.6643
  141OSM    C1415410   3.791   2.735   8.157  0.2271  0.2422 -0.5138
  141OSM   H14A15411   3.841   2.743   8.061  0.7259  1.5114 -0.1567
  141OSM   H14B15412   3.686   2.744   8.136  0.3894 -0.3406 -1.6916
  141OSM   H14C15413   3.813   2.632   8.183  0.5167 -0.4895 -3.3116
  141OSM    C1315414   3.990   2.820   8.262 -0.2295 -0.5033  0.3606
  141OSM   H13A15415   4.022   2.885   8.342  0.4169  1.6235 -1.5440
  141OSM   H13B15416   4.033   2.858   8.171 -0.1333  0.7722  0.9192
  141OSM   H13C15417   4.038   2.725   8.283  1.2401 -0.5010 -2.5193
  141OSM    C1215418   3.791   2.784   8.405  0.2142 -0.4757 -0.0637
  141OSM   H12A15419   3.842   2.840   8.481 -4.0427  1.7169  1.5427
  141OSM   H12B15420   3.825   2.684   8.426  0.6307 -0.3490 -0.1314
  141OSM    C1115421   3.639   2.802   8.435  0.0307 -0.2621  0.3692
  141OSM   H11A15422   3.605   2.905   8.412  0.0147 -0.5924 -1.1667
  141OSM   H11B15423   3.632   2.798   8.546  0.3252  0.2922  0.4115
  141OSM      P15424   3.563   2.556   8.419 -0.5418  0.1888 -0.1386
  141OSM    O1315425   3.665   2.538   8.526  0.2208  0.6184  0.0248
  141OSM    O1415426   3.430   2.518   8.458  0.4086 -0.2961  0.2347
  141OSM    O1115427   3.599   2.476   8.290 -0.2581  0.8705 -0.1148
  141OSM    O1215428   3.553   2.705   8.367 -0.3339 -0.5647  0.1981
  141OSM    C1S15429   3.533   2.478   8.164 -0.0855 -0.6115 -0.5081
  141OSM    H1S15430   3.499   2.580   8.134 -0.7590 -0.7525 -0.2383
  141OSM    H1T15431   3.435   2.427   8.169  0.0145 -0.6945  1.7559
  141OSM     NF15432   3.543   2.432   7.919  0.0059 -0.7134  0.4680
  141OSM    HNF15433   3.507   2.355   7.867  0.3177 -0.1120 -0.6438
  141OSM    C2S15434   3.617   2.416   8.047 -0.1867 -0.4121 -0.1800
  141OSM    H2S15435   3.708   2.477   8.032  0.4787 -0.9531  1.4241
  141OSM    C3S15436   3.661   2.277   8.073  0.2647 -0.4526  0.1006
  141OSM    H3S15437   3.567   2.218   8.073  0.3122 -0.5546 -1.5188
  141OSM     O315438   3.719   2.256   8.200  0.1164  0.5521  0.1768
  141OSM    HO315439   3.705   2.340   8.245  1.9128  0.4188  1.0938
  141OSM    C4S15440   3.747   2.232   7.958  0.2827 -0.0899  0.0136
  141OSM    H4S15441   3.847   2.278   7.965  0.8332 -1.4563  1.6713
  141OSM    C5S15442   3.714   2.139   7.867  0.3341  0.3250 -0.0593
  141OSM    H5S15443   3.619   2.084   7.863  1.3746 -1.7300  1.7005
  141OSM    C6S15444   3.814   2.096   7.758  0.5176 -0.1290 -0.0400
  141OSM    H6S15445   3.848   1.993   7.785 -0.5704  0.0010  2.1078
  141OSM    H6T15446   3.906   2.158   7.752  0.5686 -0.0351  1.2547
  141OSM    C7S15447   3.746   2.075   7.616  0.2533 -0.4522 -0.0613
  141OSM    H7S15448   3.663   2.002   7.625 -0.0116 -0.0006  1.3045
  141OSM    H7T15449   3.830   2.031   7.557 -0.4675 -0.2228 -1.2880
  141OSM    C8S15450   3.709   2.205   7.536 -0.6386  0.1753  0.6285
  141OSM    H8S15451   3.786   2.281   7.558  0.5718 -0.7949 -0.0996
  141OSM    H8T15452   3.609   2.239   7.571 -1.5258 -0.1233 -1.5042
  141OSM    C9S15453   3.704   2.186   7.384  0.4847  0.5144  0.3055
  141OSM    H9S15454   3.658   2.090   7.353  0.3290  0.6588  0.0902
  141OSM    H9T15455   3.808   2.180   7.345  0.4778 -1.4724  0.4939
  141OSM   C10S15456   3.635   2.300   7.315 -0.4217 -0.3294  1.2691
  141OSM   H10S15457   3.682   2.393   7.354 -0.0297 -0.7613  1.8473
  141OSM   H10T15458   3.525   2.296   7.330 -1.0226  2.2616 -1.4848
  141OSM   C11S15459   3.662   2.297   7.163 -0.3224 -0.0875 -0.4560
  141OSM   H11S15460   3.618   2.203   7.124  1.9654 -0.9056 -1.2306
  141OSM   H11T15461   3.772   2.302   7.148 -0.1682 -2.4137 -0.4518
  141OSM   C12S15462   3.594   2.410   7.090 -0.8551 -0.7758 -0.5468
  141OSM   H12S15463   3.654   2.503   7.098 -1.1650 -0.5186 -1.2021
  141OSM   H12T15464   3.491   2.419   7.131 -0.9101 -0.0879 -0.8271
  141OSM   C13S15465   3.590   2.373   6.937 -0.4117  0.1711 -0.7086
  141OSM   H13S15466   3.528   2.282   6.924  0.0636 -0.0527 -1.4991
  141OSM   H13T15467   3.693   2.347   6.905  0.0671  2.3539 -1.1112
  141OSM   C14S15468   3.548   2.487   6.841  0.1425  0.4976 -0.8251
  141OSM   H14S15469   3.602   2.582   6.860  0.1615  0.0874  1.3691
  141OSM   H14T15470   3.438   2.504   6.847 -0.1408 -1.2461 -0.4132
  141OSM   C15S15471   3.583   2.447   6.687  0.2029  0.1837 -0.0550
  141OSM   H15S15472   3.507   2.371   6.658  0.6726 -0.9323  1.5337
  141OSM   H15T15473   3.683   2.400   6.696  0.1922  0.5682  3.0107
  141OSM   C16S15474   3.579   2.561   6.584  0.5456  0.2736  0.3148
  141OSM   H16S15475   3.612   2.532   6.482  0.9944 -0.6799  0.7217
  141OSM   H16T15476   3.644   2.642   6.624  1.2246 -0.0758 -0.0675
  141OSM   C17S15477   3.443   2.628   6.560  0.7415 -0.3583  0.0255
  141OSM   H17S15478   3.398   2.686   6.643 -2.9737  0.0725 -2.0886
  141OSM   H17T15479   3.360   2.557   6.548 -0.7231  1.5766 -2.1785
  141OSM   C18S15480   3.441   2.726   6.442 -0.1101  0.0646 -0.9275
  141OSM   H18S15481   3.518   2.806   6.447  1.9452 -1.6865 -2.5864
  141OSM   H18T15482   3.342   2.775   6.437  0.9975  2.8492  1.2353
  141OSM   H18U15483   3.466   2.669   6.350  1.9081 -3.2200  1.4368
  141OSM    C1F15484   3.521   2.554   7.869  0.1342  0.0901 -0.5373
  141OSM     OF15485   3.580   2.650   7.920  0.0921  0.0915 -0.8214
  141OSM    C2F15486   3.422   2.558   7.752  0.1201 -0.5826 -0.7244
  141OSM    H2F15487   3.338   2.492   7.784  0.9664 -1.1562  0.3595
  141OSM    H2G15488   3.468   2.514   7.661  1.6753 -2.7542  1.0139
  141OSM    C3F15489   3.381   2.704   7.708 -0.4386  0.2972  0.4378
  141OSM    H3F15490   3.479   2.750   7.683  0.2256 -0.0339  2.2210
  141OSM    H3G15491   3.332   2.751   7.796 -1.3456 -0.0479  0.1279
  141OSM    C4F15492   3.287   2.692   7.587 -0.0029 -0.3576 -0.0779
  141OSM    H4F15493   3.340   2.660   7.495  0.1276 -1.0510  0.2305
  141OSM    H4G15494   3.234   2.788   7.568 -2.0204 -1.3040  0.5107
  141OSM    C5F15495   3.168   2.586   7.603  0.1570 -0.2059 -0.4681
  141OSM    H5F15496   3.126   2.581   7.706 -0.3446 -0.3912 -0.6767
  141OSM    H5G15497   3.208   2.493   7.558  0.1951  0.5596 -2.0603
  141OSM    C6F15498   3.039   2.607   7.518  0.8927 -0.7497  0.8731
  141OSM    H6F15499   2.990   2.698   7.561  1.5311  0.5709 -1.0489
  141OSM    H6G15500   2.959   2.530   7.526  0.2124 -0.1559  0.0074
  141OSM    C7F15501   3.066   2.641   7.372  0.3384  0.6992 -0.1895
  141OSM    H7F15502   3.160   2.589   7.344 -0.5152 -1.6086  0.9820
  141OSM    H7G15503   3.077   2.751   7.356  2.5609  0.3971 -1.2401
  141OSM    C8F15504   2.963   2.587   7.269 -0.0387  0.3501  0.4902
  141OSM    H8F15505   2.860   2.622   7.294 -0.7003 -1.7501  0.9390
  141OSM    H8G15506   2.954   2.479   7.293  1.0646 -0.2498 -1.5666
  141OSM    C9F15507   3.014   2.612   7.133 -0.0444  0.7564  0.1335
  141OSM    H9F15508   3.114   2.658   7.126  0.5209 -0.3802  0.4432
  141OSM   C10F15509   2.941   2.578   7.023 -0.9528 -0.0229  0.0423
  141OSM   H10F15510   2.982   2.605   6.924 -2.0228  2.5958  0.2301
  141OSM   C11F15511   2.802   2.515   7.028 -0.5147  0.3426 -0.0340
  141OSM   H11F15512   2.722   2.589   7.010 -1.2994  0.3216  2.8572
  141OSM   H11G15513   2.775   2.475   7.128 -1.0543 -0.1562 -0.3683
  141OSM   C12F15514   2.779   2.390   6.942  0.3868  0.9747 -0.2314
  141OSM   H12F15515   2.679   2.343   6.953 -0.1569  1.6664 -1.8782
  141OSM   H12G15516   2.847   2.306   6.970 -0.2616  0.8847  1.1750
  141OSM   C13F15517   2.787   2.415   6.794 -0.4068 -0.1508 -0.6500
  141OSM   H13F15518   2.887   2.458   6.770 -0.4476 -0.6104 -1.6948
  141OSM   H13G15519   2.703   2.482   6.768  0.9681  2.9905  2.1994
  141OSM   C14F15520   2.778   2.279   6.716 -0.5835  0.0332  0.7858
  141OSM   H14F15521   2.687   2.224   6.748 -1.3431  1.4489  1.1332
  141OSM   H14G15522   2.870   2.227   6.750  0.8560  0.1510 -2.5487
  141OSM   C15F15523   2.779   2.297   6.573 -0.0622  0.6648  0.6819
  141OSM   H15F15524   2.866   2.362   6.552  2.1944 -1.9969  1.1808
  141OSM   H15G15525   2.687   2.355   6.549 -0.9052 -1.1517 -0.7575
  141OSM   C16F15526   2.783   2.157   6.498  0.0265 -0.1853 -0.1608
  141OSM   H16F15527   2.716   2.088   6.554  0.5593 -0.6784 -0.1249
  141OSM   H16G15528   2.885   2.115   6.506  1.2737  2.2270 -1.9576
  141OSM   C17F15529   2.738   2.161   6.356  0.7983 -0.2645 -0.0874
  141OSM   H17F15530   2.806   2.229   6.300 -1.2407  0.9898 -1.1968
  141OSM   H17G15531   2.639   2.211   6.350  0.1212 -1.6749 -1.2674
  141OSM   C18F15532   2.726   2.033   6.276  0.1776 -0.2252 -0.2673
  141OSM   H18F15533   2.818   1.972   6.281 -0.7186 -1.5762  1.0583
  141OSM   H18G15534   2.710   2.054   6.168  1.5616 -1.0756 -0.6530
  141OSM   H18H15535   2.639   1.977   6.316  0.5438 -0.8825 -0.3873
  142OSM      N15536   5.074   3.987   8.715  0.2141  0.3672  0.4420
  142OSM    C1515537   5.096   3.834   8.726  0.1065  0.0300  0.0299
  142OSM   H15A15538   5.016   3.776   8.768 -2.3638  0.8894 -3.1346
  142OSM   H15B15539   5.189   3.813   8.777 -0.2381 -0.1495  0.5802
  142OSM   H15C15540   5.120   3.800   8.626  1.4533 -0.6040  0.5448
  142OSM    C1415541   4.926   4.002   8.680 -0.4392 -0.6667 -0.0288
  142OSM   H14A15542   4.904   3.937   8.597  2.4533 -1.8801  0.0492
  142OSM   H14B15543   4.895   4.100   8.645 -1.3008 -0.7337  0.4987
  142OSM   H14C15544   4.850   3.978   8.754 -2.2781  0.4390 -1.4562
  142OSM    C1315545   5.095   4.052   8.847 -0.1186 -0.4640 -0.5660
  142OSM   H13A15546   5.057   4.153   8.857 -1.3880 -0.8378 -1.3704
  142OSM   H13B15547   5.200   4.050   8.871 -0.0145  2.5810 -0.2732
  142OSM   H13C15548   5.042   3.990   8.918 -0.5171 -2.5597 -2.5941
  142OSM    C1215549   5.159   4.047   8.603 -0.7928  0.7853 -0.5202
  142OSM   H12A15550   5.260   4.024   8.637 -0.5962  1.3098 -0.7404
  142OSM   H12B15551   5.148   4.154   8.607 -0.8326  0.7784  2.4180
  142OSM    C1115552   5.138   4.000   8.455 -0.5767  0.4318  0.1707
  142OSM   H11A15553   5.216   4.051   8.395 -0.0621 -0.7870 -0.2364
  142OSM   H11B15554   5.034   4.029   8.430 -0.0121  1.7528 -0.7463
  142OSM      P15555   5.311   3.807   8.416 -0.7667 -0.0657  0.5357
  142OSM    O1315556   5.404   3.859   8.518  0.2890  0.0452  0.1278
  142OSM    O1415557   5.302   3.660   8.422  0.2433  0.5911 -0.0172
  142OSM    O1115558   5.361   3.841   8.270  0.1664 -0.6104  0.7987
  142OSM    O1215559   5.168   3.864   8.438  0.1433  0.2042 -0.1407
  142OSM    C1S15560   5.274   3.816   8.155  0.1010  0.2042 -1.1201
  142OSM    H1S15561   5.194   3.893   8.158 -1.6105 -1.5334 -0.1287
  142OSM    H1T15562   5.241   3.711   8.167  3.6150 -0.9731 -0.4761
  142OSM     NF15563   5.249   3.788   7.918  0.0150 -0.0077 -0.6430
  142OSM    HNF15564   5.260   3.700   7.872 -0.8743 -0.4192 -0.0842
  142OSM    C2S15565   5.346   3.809   8.027  0.2555  0.4816  0.2733
  142OSM    H2S15566   5.377   3.910   7.991 -3.3703  1.2748 -0.9875
  142OSM    C3S15567   5.467   3.715   8.028  0.5876  0.4673 -0.3980
  142OSM    H3S15568   5.429   3.612   8.045 -1.0953  0.6997 -2.3649
  142OSM     O315569   5.556   3.738   8.133  0.1966 -0.0186  0.3801
  142OSM    HO315570   5.518   3.810   8.184  1.5606  0.1814  1.1663
  142OSM    C4S15571   5.542   3.722   7.899 -0.4926 -0.2695 -0.7350
  142OSM    H4S15572   5.553   3.820   7.850  1.4822  0.1229  0.3796
  142OSM    C5S15573   5.582   3.616   7.828  0.1827 -0.1630  0.6137
  142OSM    H5S15574   5.548   3.517   7.862 -0.2420  0.0916  0.9525
  142OSM    C6S15575   5.638   3.613   7.685 -0.3432 -0.1889 -0.9404
  142OSM    H6S15576   5.568   3.569   7.610 -0.2083 -2.3521  0.1355
  142OSM    H6T15577   5.734   3.557   7.691 -1.1750 -1.5218  0.8492
  142OSM    C7S15578   5.670   3.747   7.628 -0.7301  0.5602  0.1985
  142OSM    H7S15579   5.743   3.792   7.698  0.8456 -1.0072 -0.3738
  142OSM    H7T15580   5.581   3.813   7.619 -0.0396  1.2899 -1.7601
  142OSM    C8S15581   5.742   3.737   7.499 -0.6611  0.0380  0.3327
  142OSM    H8S15582   5.817   3.655   7.503  1.1053  1.5053 -0.8162
  142OSM    H8T15583   5.808   3.825   7.483  1.0258 -1.2825 -0.2641
  142OSM    C9S15584   5.646   3.728   7.372 -0.5728 -0.1243  0.2414
  142OSM    H9S15585   5.564   3.804   7.380  1.0640  1.6286  1.2552
  142OSM    H9T15586   5.593   3.631   7.378 -0.9282  0.0440 -0.1049
  142OSM   C10S15587   5.717   3.770   7.241  0.1100 -0.1690 -0.3062
  142OSM   H10S15588   5.805   3.704   7.250 -1.0503 -1.6479  0.7510
  142OSM   H10T15589   5.732   3.880   7.233  1.7206 -0.4341 -1.4892
  142OSM   C11S15590   5.647   3.725   7.115  0.0440  0.0864 -0.4531
  142OSM   H11S15591   5.560   3.791   7.095  1.8555  2.1651 -1.9319
  142OSM   H11T15592   5.624   3.616   7.123 -1.3471  0.2393 -1.7968
  142OSM   C12S15593   5.738   3.740   6.997  0.0034  0.1281 -0.3540
  142OSM   H12S15594   5.827   3.674   7.008  0.7108  1.1631  0.1941
  142OSM   H12T15595   5.801   3.831   7.008  1.3397 -0.8931  0.9334
  142OSM   C13S15596   5.667   3.729   6.861 -0.4669 -0.3667 -0.4054
  142OSM   H13S15597   5.576   3.793   6.864 -1.3478 -1.5994 -0.1435
  142OSM   H13T15598   5.637   3.622   6.853 -1.1015 -0.4937  2.6140
  142OSM   C14S15599   5.753   3.758   6.740  0.1182  0.0083 -0.1412
  142OSM   H14S15600   5.838   3.687   6.738  0.4307  0.1102 -5.4063
  142OSM   H14T15601   5.789   3.862   6.750  0.7664 -0.1431 -0.8250
  142OSM   C15S15602   5.674   3.737   6.618 -1.3107  0.4806 -0.3265
  142OSM   H15S15603   5.570   3.772   6.630 -1.6496  0.8195 -3.4050
  142OSM   H15T15604   5.669   3.627   6.609  1.8701  0.2744 -0.8695
  142OSM   C16S15605   5.750   3.794   6.496  0.6990 -0.5405 -0.0719
  142OSM   H16S15606   5.846   3.737   6.490  0.6698 -0.7651  1.2831
  142OSM   H16T15607   5.767   3.903   6.511 -0.4696  0.0976 -2.7918
  142OSM   C17S15608   5.666   3.770   6.369 -0.0539 -0.1407 -0.2582
  142OSM   H17S15609   5.712   3.821   6.281  1.7946 -1.2929 -0.0198
  142OSM   H17T15610   5.567   3.818   6.382 -0.2968 -0.4094 -1.0684
  142OSM   C18S15611   5.641   3.624   6.347  0.6869  0.8470 -0.3686
  142OSM   H18S15612   5.730   3.568   6.385  1.0754  2.4401  1.2158
  142OSM   H18T15613   5.634   3.594   6.240  0.5258  0.8876 -0.3680
  142OSM   H18U15614   5.552   3.600   6.409  0.1355 -1.6043 -1.9795
  142OSM    C1F15615   5.147   3.868   7.890  0.7155 -0.3408  0.3104
  142OSM     OF15616   5.161   3.985   7.940 -0.0391  0.6916 -0.1723
  142OSM    C2F15617   5.033   3.807   7.812 -0.0174  0.4515  0.0234
  142OSM    H2F15618   4.965   3.746   7.874 -1.2794  2.9964  1.3281
  142OSM    H2G15619   5.081   3.737   7.740  0.3658 -0.3633  1.0544
  142OSM    C3F15620   4.940   3.906   7.735 -1.0044 -0.0351 -0.4321
  142OSM    H3F15621   5.004   3.964   7.665  1.7523 -3.0316 -0.6336
  142OSM    H3G15622   4.890   3.973   7.809 -2.3164 -0.5555 -0.8125
  142OSM    C4F15623   4.822   3.831   7.676  0.4327 -0.4135  0.9048
  142OSM    H4F15624   4.743   3.901   7.640  0.4899  0.4426  2.3542
  142OSM    H4G15625   4.772   3.764   7.749 -1.8911  1.6082  1.3314
  142OSM    C5F15626   4.866   3.744   7.554 -0.1419 -0.0129  1.1164
  142OSM    H5F15627   4.954   3.680   7.578  0.7212  0.6105 -0.2613
  142OSM    H5G15628   4.912   3.815   7.482  0.6910  0.7903  2.3881
  142OSM    C6F15629   4.755   3.653   7.495  0.7868  0.4863  0.4760
  142OSM    H6F15630   4.661   3.706   7.470 -1.1274 -3.3217 -1.3772
  142OSM    H6G15631   4.723   3.586   7.578  3.1628  0.1155  1.1640
  142OSM    C7F15632   4.802   3.562   7.377  0.5110  0.6827  0.0932
  142OSM    H7F15633   4.716   3.497   7.348  1.3207 -0.6706  0.6128
  142OSM    H7G15634   4.883   3.493   7.410 -0.4598 -0.5302  0.0087
  142OSM    C8F15635   4.856   3.638   7.258 -0.5123  0.0530  0.9375
  142OSM    H8F15636   4.898   3.581   7.172 -0.9103  1.6252 -0.3506
  142OSM    H8G15637   4.938   3.706   7.291  1.5259 -0.4326 -2.5962
  142OSM    C9F15638   4.753   3.730   7.203  0.2440 -0.3402 -0.2844
  142OSM    H9F15639   4.718   3.819   7.258 -1.0043 -0.8325 -0.2280
  142OSM   C10F15640   4.685   3.723   7.091 -0.2991 -0.5155  0.5774
  142OSM   H10F15641   4.611   3.801   7.066 -0.7337 -1.4190 -1.0961
  142OSM   C11F15642   4.699   3.612   6.987 -0.4936 -0.2370  0.2186
  142OSM   H11F15643   4.662   3.512   7.017 -1.3558 -0.2583 -0.8390
  142OSM   H11G15644   4.807   3.593   6.970 -1.1531 -4.2959 -0.3021
  142OSM   C12F15645   4.636   3.669   6.849 -0.2611 -0.4508  0.3975
  142OSM   H12F15646   4.681   3.769   6.832 -1.7425 -0.0624 -1.5392
  142OSM   H12G15647   4.530   3.688   6.874 -0.2596  0.2551 -0.1035
  142OSM   C13F15648   4.662   3.571   6.735 -0.1343 -0.3331 -0.3796
  142OSM   H13F15649   4.585   3.586   6.656 -0.2235  1.4417  0.0126
  142OSM   H13G15650   4.660   3.466   6.773 -0.5670 -0.3654 -0.4807
  142OSM   C14F15651   4.801   3.600   6.678 -0.0662 -0.2241 -0.0414
  142OSM   H14F15652   4.876   3.606   6.758 -1.4178  0.2244  1.2382
  142OSM   H14G15653   4.785   3.703   6.639  0.8097 -1.2267 -3.4161
  142OSM   C15F15654   4.824   3.510   6.552  0.0674 -0.1788 -0.7790
  142OSM   H15F15655   4.835   3.407   6.593 -1.1215  0.1241  0.3718
  142OSM   H15G15656   4.924   3.545   6.521  1.0028 -0.6264  1.5376
  142OSM   C16F15657   4.710   3.511   6.444 -0.5933 -0.6455  0.4970
  142OSM   H16F15658   4.693   3.619   6.427 -1.6987 -0.9788 -0.6700
  142OSM   H16G15659   4.612   3.465   6.468 -0.1067 -0.5480  3.0009
  142OSM   C17F15660   4.755   3.452   6.307  0.3264  0.2014  0.1207
  142OSM   H17F15661   4.757   3.341   6.307  0.2716  0.2008  0.5950
  142OSM   H17G15662   4.853   3.494   6.276  0.4875  0.1783  0.5945
  142OSM   C18F15663   4.660   3.512   6.191 -0.7746  0.2316  0.6941
  142OSM   H18F15664   4.655   3.441   6.106 -3.0463  0.8037  0.2807
  142OSM   H18G15665   4.695   3.611   6.156 -0.4548 -0.0261  0.2721
  142OSM   H18H15666   4.556   3.523   6.229 -1.7703 -1.4424 -1.3310
  143OSM      N15667   5.287   6.058   0.059  0.0395  0.4525  0.3340
  143OSM    C1515668   5.306   6.125  -0.075 -0.5991  0.2100 -0.2614
  143OSM   H15A15669   5.238   6.099  -0.154 -0.0429 -0.8796 -0.4008
  143OSM   H15B15670   5.410   6.106  -0.099 -0.8759 -2.6003  0.4445
  143OSM   H15C15671   5.307   6.230  -0.050 -1.0727  0.0201  0.5925
  143OSM    C1415672   5.299   5.913   0.030 -0.5813 -0.9590  0.2671
  143OSM   H14A15673   5.255   5.886  -0.064  0.3261 -1.1946 -0.1034
  143OSM   H14B15674   5.277   5.843   0.109 -1.7018 -0.1477  0.7019
  143OSM   H14C15675   5.402   5.894   0.001 -0.7577 -0.5597 -0.6551
  143OSM    C1315676   5.394   6.096   0.154 -0.0798  0.0621 -0.1702
  143OSM   H13A15677   5.485   6.085   0.097  0.5087 -0.5171  0.8511
  143OSM   H13B15678   5.428   6.034   0.236  1.5559  0.0509 -0.8080
  143OSM   H13C15679   5.387   6.198   0.191 -1.4312 -0.6635  1.7180
  143OSM    C1215680   5.155   6.084   0.116  0.3657 -0.6723 -0.2700
  143OSM   H12A15681   5.132   6.188   0.133 -0.9747 -1.2123  1.4437
  143OSM   H12B15682   5.156   6.071   0.223  0.2763  1.6501  0.0608
  143OSM    C1115683   5.026   6.015   0.067 -0.1202  0.2478  0.2335
  143OSM   H11A15684   4.941   6.061   0.122 -0.5117 -0.3181  0.1195
  143OSM   H11B15685   5.037   5.908   0.096  2.5452  0.2649 -0.4991
  143OSM      P15686   4.911   6.110  -0.150  0.1648  0.1135 -0.3040
  143OSM    O1315687   4.780   6.050  -0.151  0.1867 -0.4160  0.0798
  143OSM    O1415688   4.926   6.242  -0.102 -0.2016 -0.0007  0.2722
  143OSM    O1115689   4.970   6.114  -0.299 -0.4258  0.2409  0.0540
  143OSM    O1215690   5.009   6.014  -0.077 -0.3653  0.8137  0.2639
  143OSM    C1S15691   4.903   6.031  -0.398 -0.2161 -0.3209  0.8160
  143OSM    H1S15692   4.820   6.093  -0.437  1.7974  2.4017  0.5460
  143OSM    H1T15693   4.857   5.937  -0.362 -0.4751  0.6004  3.0619
  143OSM     NF15694   4.909   5.969  -0.636  0.3158 -0.1230  0.1010
  143OSM    HNF15695   4.886   5.874  -0.659 -0.9567  0.3077 -0.5021
  143OSM    C2S15696   4.997   5.995  -0.518  0.2428  0.0638 -0.3172
  143OSM    H2S15697   5.057   6.083  -0.551 -0.2083 -0.1685 -1.8611
  143OSM    C3S15698   5.092   5.876  -0.477  0.0680  0.5842  0.1859
  143OSM    H3S15699   5.033   5.784  -0.457  2.0262 -0.4920  1.3576
  143OSM     O315700   5.153   5.894  -0.349  0.0169 -0.4443 -0.0905
  143OSM    HO315701   5.096   5.952  -0.299 -0.1007 -1.5740  1.1440
  143OSM    C4S15702   5.186   5.841  -0.593 -0.6562 -0.0108  0.5321
  143OSM    H4S15703   5.158   5.755  -0.657 -1.0734  0.6292 -0.1676
  143OSM    C5S15704   5.301   5.903  -0.623 -0.1205  0.2830 -0.9522
  143OSM    H5S15705   5.340   5.987  -0.563  1.6776 -0.4592 -1.0242
  143OSM    C6S15706   5.400   5.857  -0.726 -0.2585  0.6569  0.3958
  143OSM    H6S15707   5.368   5.761  -0.772 -0.6715  0.3212  1.3554
  143OSM    H6T15708   5.503   5.844  -0.685 -1.4376  0.2670  3.5055
  143OSM    C7S15709   5.405   5.953  -0.844 -0.0790  0.2917  0.1579
  143OSM    H7S15710   5.441   6.051  -0.806  0.9154  0.1741 -0.4715
  143OSM    H7T15711   5.305   5.964  -0.892 -1.5791 -2.2831  2.3764
  143OSM    C8S15712   5.506   5.902  -0.954  0.2584  0.4714  0.2119
  143OSM    H8S15713   5.487   5.798  -0.986  0.7703  0.5470 -0.3509
  143OSM    H8T15714   5.610   5.897  -0.914  0.0182  2.4736  1.2473
  143OSM    C9S15715   5.508   5.995  -1.077 -0.6797  0.1097  0.4749
  143OSM    H9S15716   5.598   5.969  -1.136 -1.3841  1.6501 -1.3679
  143OSM    H9T15717   5.523   6.098  -1.038  0.6131 -0.2840  1.0998
  143OSM   C10S15718   5.386   5.983  -1.165  0.5942  0.4312 -0.0420
  143OSM   H10S15719   5.292   6.001  -1.109  0.3057  0.5186 -0.5472
  143OSM   H10T15720   5.388   5.874  -1.191  0.6102  0.5480 -0.5480
  143OSM   C11S15721   5.399   6.054  -1.299  0.5682 -0.3312  0.2146
  143OSM   H11S15722   5.422   6.158  -1.268 -0.0870 -0.0338 -0.2913
  143OSM   H11T15723   5.300   6.062  -1.349 -0.7248 -1.8406  2.3527
  143OSM   C12S15724   5.497   5.993  -1.395 -0.0377  0.4288  0.0253
  143OSM   H12S15725   5.478   5.884  -1.401 -1.7937  0.6268  1.2266
  143OSM   H12T15726   5.597   6.017  -1.353 -0.1436  0.8474  0.0471
  143OSM   C13S15727   5.481   6.047  -1.545  0.6205 -0.3351 -0.6321
  143OSM   H13S15728   5.499   6.156  -1.539 -1.0379 -0.0775  0.2990
  143OSM   H13T15729   5.372   6.032  -1.561  0.3243  1.5774 -0.5583
  143OSM   C14S15730   5.563   5.971  -1.649 -0.1202  0.0261 -0.9679
  143OSM   H14S15731   5.550   5.862  -1.659  1.5108 -0.1878 -1.0443
  143OSM   H14T15732   5.669   6.002  -1.632  0.4131 -1.8637 -0.6767
  143OSM   C15S15733   5.543   6.027  -1.792 -0.2661 -0.0322 -0.0756
  143OSM   H15S15734   5.556   6.137  -1.795  1.7515 -0.2247  0.0214
  143OSM   H15T15735   5.440   6.003  -1.825 -0.0447  0.3055 -1.0457
  143OSM   C16S15736   5.652   5.965  -1.887  0.3718  0.1515 -0.9491
  143OSM   H16S15737   5.663   5.855  -1.878  2.3836  0.4709  1.6588
  143OSM   H16T15738   5.754   6.003  -1.863  1.5862 -2.7477 -1.0621
  143OSM   C17S15739   5.609   6.001  -2.032  0.7524  0.3642  0.6386
  143OSM   H17S15740   5.600   6.111  -2.046 -0.6761  0.3794  1.5694
  143OSM   H17T15741   5.511   5.954  -2.055  2.4361 -3.0026 -0.3296
  143OSM   C18S15742   5.706   5.951  -2.139 -0.0613 -0.5663 -0.2412
  143OSM   H18S15743   5.666   5.974  -2.240 -1.0781 -1.8193 -0.1493
  143OSM   H18T15744   5.720   5.842  -2.121  1.1122  0.0304  3.1485
  143OSM   H18U15745   5.811   5.988  -2.136 -0.5386  0.8400  1.6705
  143OSM    C1F15746   4.878   6.074  -0.717 -0.0638  0.0569  0.4908
  143OSM     OF15747   4.906   6.191  -0.688 -0.0179 -0.2021  0.0653
  143OSM    C2F15748   4.805   6.053  -0.849 -0.1400 -0.1440 -0.2204
  143OSM    H2F15749   4.721   6.126  -0.851 -0.0880 -0.1056 -1.3966
  143OSM    H2G15750   4.761   5.951  -0.836 -0.6796 -0.2344 -2.4115
  143OSM    C3F15751   4.896   6.074  -0.966 -0.1590 -0.3639 -0.3092
  143OSM    H3F15752   4.945   6.174  -0.963 -3.2338  1.2224  0.8811
  143OSM    H3G15753   4.842   6.076  -1.062 -3.3964 -0.8409  1.3812
  143OSM    C4F15754   5.007   5.964  -0.981  0.4265 -0.4422 -0.0646
  143OSM    H4F15755   4.996   5.888  -0.901  0.2813 -1.1138 -0.7067
  143OSM    H4G15756   5.111   6.003  -0.985  0.0820  0.3915 -1.0909
  143OSM    C5F15757   4.997   5.882  -1.112 -0.2295  0.2276  0.0345
  143OSM    H5F15758   4.893   5.844  -1.121  0.3140 -1.0861 -1.0980
  143OSM    H5G15759   5.065   5.798  -1.090 -1.2338 -0.3333  1.0835
  143OSM    C6F15760   5.018   5.951  -1.248 -0.4809 -0.0591  0.3656
  143OSM    H6F15761   5.126   5.953  -1.271 -0.4063 -0.3231  0.6748
  143OSM    H6G15762   4.981   6.056  -1.240 -2.3425 -0.6632  0.2640
  143OSM    C7F15763   4.944   5.898  -1.367  0.1551  0.2793  1.1689
  143OSM    H7F15764   4.951   5.974  -1.448 -0.2619 -0.9488 -0.0567
  143OSM    H7G15765   4.838   5.874  -1.345 -0.5469 -0.5069 -2.4732
  143OSM    C8F15766   5.008   5.769  -1.427  0.5068  0.9933 -0.4329
  143OSM    H8F15767   4.946   5.748  -1.516 -0.4823  4.2816 -0.6199
  143OSM    H8G15768   4.985   5.685  -1.357 -0.1123 -1.7747 -3.6675
  143OSM    C9F15769   5.160   5.772  -1.466 -0.5180 -0.2412 -0.4774
  143OSM    H9F15770   5.227   5.832  -1.403 -0.8013  1.3209 -1.5948
  143OSM   C10F15771   5.215   5.743  -1.583  0.3039  0.1921  0.6929
  143OSM   H10F15772   5.321   5.761  -1.605  0.3430  0.0395  0.7565
  143OSM   C11F15773   5.145   5.686  -1.705  0.2871  0.2077  0.2420
  143OSM   H11F15774   5.044   5.651  -1.677  0.7061 -0.4398  0.9960
  143OSM   H11G15775   5.203   5.603  -1.749 -0.0429  0.9148 -1.6257
  143OSM   C12F15776   5.139   5.796  -1.817  0.2647 -0.0036  0.5049
  143OSM   H12F15777   5.239   5.794  -1.866 -0.9255 -2.1399 -2.0714
  143OSM   H12G15778   5.116   5.901  -1.790  2.1128  1.7317 -3.7394
  143OSM   C13F15779   5.043   5.779  -1.940  0.0488 -0.2955 -0.1427
  143OSM   H13F15780   5.077   5.685  -1.989 -0.9108  0.7796 -3.1066
  143OSM   H13G15781   5.056   5.861  -2.015  0.6648  0.4789  0.7879
  143OSM   C14F15782   4.894   5.783  -1.916 -0.1729 -0.2305 -0.0519
  143OSM   H14F15783   4.852   5.875  -1.870 -0.0817 -0.4254  0.4277
  143OSM   H14G15784   4.872   5.694  -1.852  1.7334 -0.8303 -0.1734
  143OSM   C15F15785   4.814   5.760  -2.043  0.4418  0.3116  0.1897
  143OSM   H15F15786   4.832   5.849  -2.107  1.2125 -1.8898 -2.9280
  143OSM   H15G15787   4.705   5.756  -2.023  0.1748 -1.6065 -1.2930
  143OSM   C16F15788   4.845   5.648  -2.138 -0.5553  0.0704  0.5976
  143OSM   H16F15789   4.844   5.552  -2.081 -1.0488  1.0446  2.3180
  143OSM   H16G15790   4.951   5.651  -2.171 -0.8257 -1.0102 -0.4167
  143OSM   C17F15791   4.760   5.628  -2.264  0.4993  0.3721  0.0303
  143OSM   H17F15792   4.799   5.556  -2.339 -0.8020  0.3277 -0.6332
  143OSM   H17G15793   4.756   5.722  -2.322  0.5087 -0.1070 -0.7640
  143OSM   C18F15794   4.612   5.593  -2.220 -0.5813  0.2264  0.0038
  143OSM   H18F15795   4.552   5.572  -2.311 -0.5615 -0.2538  0.0968
  143OSM   H18G15796   4.561   5.678  -2.170 -0.0021  1.0420 -0.7723
  143OSM   H18H15797   4.607   5.504  -2.153 -1.9407 -0.0668 -0.4562
  144OSM      N15798   5.094   5.596   8.639 -0.9913  0.4438 -0.1727
  144OSM    C1515799   5.019   5.720   8.680 -0.6649 -0.1970  0.3136
  144OSM   H15A15800   5.062   5.803   8.627  0.7135 -0.9777  0.1606
  144OSM   H15B15801   5.020   5.729   8.788 -0.2798 -0.2466  0.3127
  144OSM   H15C15802   4.915   5.707   8.652 -0.3256 -1.7507 -0.3274
  144OSM    C1415803   5.238   5.581   8.672 -0.0870 -0.3290 -0.2563
  144OSM   H14A15804   5.268   5.481   8.647  2.6660  0.5767 -0.9682
  144OSM   H14B15805   5.249   5.591   8.779 -3.0745  1.9774 -0.0159
  144OSM   H14C15806   5.305   5.659   8.637 -0.9067  1.1628  1.3160
  144OSM    C1315807   5.014   5.486   8.708  0.1790 -0.5638 -0.1013
  144OSM   H13A15808   4.907   5.498   8.697 -0.0910  0.0605  2.6018
  144OSM   H13B15809   5.037   5.493   8.813  0.8493  1.3800 -0.3342
  144OSM   H13C15810   5.053   5.394   8.668  1.4829  0.2123 -0.7047
  144OSM    C1215811   5.066   5.586   8.494 -0.5638 -0.4965 -0.1993
  144OSM   H12A15812   5.086   5.679   8.442 -0.6247 -0.8528 -0.8712
  144OSM   H12B15813   4.960   5.568   8.482 -0.9906  2.2305 -1.3610
  144OSM    C1115814   5.138   5.488   8.403  0.6485 -0.1580  0.0286
  144OSM   H11A15815   5.247   5.506   8.400  0.5035  0.6719 -0.5631
  144OSM   H11B15816   5.111   5.513   8.298 -0.0738 -0.4516  0.1354
  144OSM      P15817   5.192   5.236   8.435  0.0011 -0.1263  0.1100
  144OSM    O1315818   5.298   5.236   8.537 -0.5109  0.1037  1.0928
  144OSM    O1415819   5.106   5.117   8.427 -0.5348 -0.0886 -0.6487
  144OSM    O1115820   5.264   5.266   8.295  0.0832 -0.1006  0.1653
  144OSM    O1215821   5.092   5.354   8.446 -0.3278  0.0764 -0.1532
  144OSM    C1S15822   5.333   5.169   8.222  0.2417  0.7790  0.7774
  144OSM    H1S15823   5.293   5.066   8.230  1.6314  0.0325 -1.0917
  144OSM    H1T15824   5.437   5.157   8.259 -0.4948 -1.6354  2.2280
  144OSM     NF15825   5.386   5.107   7.987 -0.0331  0.2059  0.1917
  144OSM    HNF15826   5.482   5.099   7.964 -0.4382  1.0805 -2.0307
  144OSM    C2S15827   5.345   5.212   8.075  0.4903 -0.6627  0.2035
  144OSM    H2S15828   5.249   5.250   8.035  0.8228  1.5610  1.3796
  144OSM    C3S15829   5.440   5.337   8.077  0.0228  0.3626 -0.5543
  144OSM    H3S15830   5.535   5.291   8.112  0.6794  0.1306 -2.5314
  144OSM     O315831   5.394   5.444   8.168  0.1245  0.0444  0.1072
  144OSM    HO315832   5.327   5.394   8.216 -0.0266  0.6578  0.5574
  144OSM    C4S15833   5.465   5.390   7.935 -0.3915  0.0397 -0.2750
  144OSM    H4S15834   5.522   5.314   7.879  3.0724  0.9649  1.6870
  144OSM    C5S15835   5.427   5.508   7.876  0.5835 -0.4041 -0.2014
  144OSM    H5S15836   5.346   5.563   7.927 -1.4303  0.6486 -4.1241
  144OSM    C6S15837   5.447   5.537   7.728 -0.7153  0.6334 -0.0965
  144OSM    H6S15838   5.544   5.589   7.714 -0.5945  0.5992  0.6233
  144OSM    H6T15839   5.370   5.606   7.685  0.3702  1.9450 -0.0213
  144OSM    C7S15840   5.431   5.414   7.639  0.0472  0.1715  0.4089
  144OSM    H7S15841   5.327   5.380   7.657 -0.8835  2.0899 -1.0415
  144OSM    H7T15842   5.517   5.346   7.656  1.5853  2.3258  1.7543
  144OSM    C8S15843   5.449   5.460   7.490 -0.7512  0.4768  0.3181
  144OSM    H8S15844   5.554   5.494   7.476 -0.6175 -0.9827 -3.2828
  144OSM    H8T15845   5.370   5.535   7.467  0.4179  1.4259 -0.7601
  144OSM    C9S15846   5.436   5.348   7.386 -0.7806  0.6361 -0.4219
  144OSM    H9S15847   5.336   5.302   7.399 -1.2903  1.7438 -0.3442
  144OSM    H9T15848   5.524   5.280   7.392 -0.5854  0.6515 -2.3416
  144OSM   C10S15849   5.425   5.417   7.244 -0.2528 -0.4430  0.1219
  144OSM   H10S15850   5.526   5.459   7.226 -0.1063 -0.8464 -0.0185
  144OSM   H10T15851   5.349   5.497   7.244  1.9055  1.7156  0.4303
  144OSM   C11S15852   5.391   5.321   7.135  0.3534  0.0836 -0.0916
  144OSM   H11S15853   5.288   5.288   7.161  1.0887 -3.6609 -1.2433
  144OSM   H11T15854   5.462   5.235   7.132  2.9170  1.9515  1.7501
  144OSM   C12S15855   5.391   5.387   6.993 -0.5408 -0.1374  0.0149
  144OSM   H12S15856   5.325   5.476   6.986 -0.4149 -0.0509 -0.0569
  144OSM   H12T15857   5.349   5.313   6.921  0.4728  0.6620 -1.4587
  144OSM   C13S15858   5.529   5.430   6.944  0.2054 -0.0266  0.2585
  144OSM   H13S15859   5.594   5.341   6.960  0.8853  0.2935 -0.6070
  144OSM   H13T15860   5.571   5.522   6.990 -0.8857  1.7639 -2.1286
  144OSM   C14S15861   5.528   5.468   6.795 -0.2780  0.1218  0.4268
  144OSM   H14S15862   5.496   5.382   6.732 -0.2280  0.9038 -0.7032
  144OSM   H14T15863   5.626   5.504   6.758 -0.6953  0.7658 -0.0666
  144OSM   C15S15864   5.429   5.581   6.767 -0.0345  0.1617  0.0254
  144OSM   H15S15865   5.465   5.665   6.830  1.5204 -1.5076  1.4659
  144OSM   H15T15866   5.327   5.546   6.796  0.4565 -0.4303  1.0717
  144OSM   C16S15867   5.437   5.610   6.621 -0.1182  0.5873 -0.4207
  144OSM   H16S15868   5.415   5.514   6.569 -1.1893  0.6351 -0.0655
  144OSM   H16T15869   5.542   5.623   6.587  0.1232 -2.7944 -1.3152
  144OSM   C17S15870   5.337   5.720   6.572 -0.2015 -0.2235 -0.5590
  144OSM   H17S15871   5.351   5.818   6.624 -3.1934  0.3664 -0.6691
  144OSM   H17T15872   5.233   5.692   6.601  0.3725 -1.0519  0.8306
  144OSM   C18S15873   5.346   5.743   6.418  0.2204  0.4280 -0.4278
  144OSM   H18S15874   5.260   5.802   6.382  0.3513 -0.2538 -1.9303
  144OSM   H18T15875   5.360   5.649   6.361  0.9584 -0.0052  0.4465
  144OSM   H18U15876   5.446   5.793   6.418  1.0068 -1.0368  0.9207
  144OSM    C1F15877   5.306   5.009   7.950 -0.0223  0.3135 -0.2433
  144OSM     OF15878   5.187   5.005   7.989 -0.0843 -0.0411 -0.4202
  144OSM    C2F15879   5.356   4.914   7.843  0.4402  0.9862 -0.2162
  144OSM    H2F15880   5.396   4.820   7.885 -1.1284  0.3119 -0.1907
  144OSM    H2G15881   5.440   4.962   7.788  1.7604 -1.1598 -0.1567
  144OSM    C3F15882   5.243   4.886   7.741 -0.0627  0.7491 -0.3485
  144OSM    H3F15883   5.165   4.832   7.798  0.8042  1.2667  1.4208
  144OSM    H3G15884   5.280   4.808   7.672  1.6908 -0.5143  1.8566
  144OSM    C4F15885   5.184   5.007   7.669  0.1386 -0.0913  0.2996
  144OSM    H4F15886   5.132   5.069   7.745 -1.0830 -0.9313  0.1914
  144OSM    H4G15887   5.096   4.978   7.607 -0.2985  0.7393  0.5222
  144OSM    C5F15888   5.276   5.097   7.590 -0.9474  0.2783 -0.8870
  144OSM    H5F15889   5.363   5.137   7.646  1.0274 -1.9040 -2.1979
  144OSM    H5G15890   5.228   5.189   7.549  2.9128  3.3475  0.8073
  144OSM    C6F15891   5.337   5.019   7.477  0.3234  0.5401 -0.3140
  144OSM    H6F15892   5.385   4.925   7.509 -2.8842 -1.3448 -0.6154
  144OSM    H6G15893   5.402   5.093   7.425 -0.5941  0.7537 -1.1886
  144OSM    C7F15894   5.232   4.962   7.377 -0.2731  0.5548  0.9059
  144OSM    H7F15895   5.172   5.050   7.344 -2.2600 -0.5818  1.3752
  144OSM    H7G15896   5.173   4.878   7.419 -0.5173  0.1036 -0.2954
  144OSM    C8F15897   5.303   4.917   7.243  0.6897  0.3251 -0.0346
  144OSM    H8F15898   5.356   4.823   7.269 -1.6433 -0.7454  1.1719
  144OSM    H8G15899   5.376   4.990   7.203  2.2637 -1.4261 -0.5129
  144OSM    C9F15900   5.193   4.878   7.146  0.6420  0.3094 -0.1273
  144OSM    H9F15901   5.114   4.815   7.188  2.9067 -2.0906  0.7682
  144OSM   C10F15902   5.194   4.918   7.014  0.2849 -0.0787  0.0256
  144OSM   H10F15903   5.106   4.884   6.958 -0.4817  0.5553  0.8147
  144OSM   C11F15904   5.305   4.998   6.945  0.1085  0.5725  0.0524
  144OSM   H11F15905   5.396   4.995   7.008  2.6202 -1.8969 -3.2915
  144OSM   H11G15906   5.280   5.106   6.954 -1.3847  0.2122  0.5608
  144OSM   C12F15907   5.338   4.962   6.798 -0.6048 -0.2738  0.2627
  144OSM   H12F15908   5.239   4.971   6.749 -1.2778 -0.8506  1.4675
  144OSM   H12G15909   5.380   4.859   6.788  3.6657  1.2242  0.5403
  144OSM   C13F15910   5.447   5.046   6.737 -0.1896  0.2335 -0.3325
  144OSM   H13F15911   5.547   5.016   6.775  0.6791 -0.6026 -3.0744
  144OSM   H13G15912   5.436   5.155   6.756 -1.1593  0.4232 -1.8121
  144OSM   C14F15913   5.474   5.032   6.584  0.0777  0.1193 -0.0899
  144OSM   H14F15914   5.500   4.926   6.566  0.6525  0.2808 -0.2389
  144OSM   H14G15915   5.566   5.092   6.566 -0.5195  2.1198  2.7577
  144OSM   C15F15916   5.360   5.073   6.492  0.4155 -0.2169  1.0329
  144OSM   H15F15917   5.270   5.009   6.508  0.1982  0.1992  1.4963
  144OSM   H15G15918   5.387   5.040   6.389  1.4030 -0.9322  1.5122
  144OSM   C16F15919   5.310   5.222   6.503 -0.6971 -0.2270  0.1706
  144OSM   H16F15920   5.384   5.288   6.453 -1.0522 -1.4505 -2.0882
  144OSM   H16G15921   5.313   5.249   6.611  2.1410 -0.7439  0.2837
  144OSM   C17F15922   5.171   5.243   6.447 -0.0355  0.3160 -0.1414
  144OSM   H17F15923   5.108   5.196   6.525 -0.6290 -0.3896 -1.0241
  144OSM   H17G15924   5.149   5.181   6.358 -2.8575 -0.4943  1.0366
  144OSM   C18F15925   5.126   5.385   6.408  0.2186  0.0231  0.5063
  144OSM   H18F15926   5.017   5.370   6.390  0.6218 -2.3095 -0.2657
  144OSM   H18G15927   5.189   5.417   6.322  1.7864 -2.0568  0.8105
  144OSM   H18H15928   5.139   5.461   6.488  2.6862 -0.4958  0.6797
  145OSM      N15929   6.386   1.731   8.618 -0.1566  0.0930 -0.0780
  145OSM    C1515930   6.238   1.754   8.610 -0.3284 -0.3069 -0.1993
  145OSM   H15A15931   6.204   1.753   8.507  1.7172  1.5947 -0.9646
  145OSM   H15B15932   6.226   1.854   8.650  2.1198  0.3651 -0.9895
  145OSM   H15C15933   6.190   1.680   8.671 -3.5797  2.1839  0.5772
  145OSM    C1415934   6.453   1.832   8.534  0.3033  0.0485  0.2806
  145OSM   H14A15935   6.444   1.813   8.428  0.4365  2.5720 -0.2525
  145OSM   H14B15936   6.554   1.851   8.567  0.1304  0.7972  0.4109
  145OSM   H14C15937   6.401   1.927   8.537 -1.1703 -0.6160 -1.6394
  145OSM    C1315938   6.427   1.767   8.758  0.4234  0.4156  0.1444
  145OSM   H13A15939   6.535   1.780   8.763  0.2004  3.6958 -1.2321
  145OSM   H13B15940   6.389   1.685   8.817 -1.2118  0.2147 -1.1281
  145OSM   H13C15941   6.376   1.858   8.783 -1.7266 -0.6321 -0.2339
  145OSM    C1215942   6.418   1.583   8.583 -0.0868 -0.1498  0.1124
  145OSM   H12A15943   6.378   1.545   8.490 -0.1495 -1.2282  0.5563
  145OSM   H12B15944   6.380   1.512   8.656  1.9573 -1.7329 -0.2767
  145OSM    C1115945   6.564   1.543   8.582  0.2313 -0.0823 -0.1952
  145OSM   H11A15946   6.589   1.565   8.688 -1.7109  0.3362  0.2127
  145OSM   H11B15947   6.631   1.600   8.514  1.7003  1.0260  2.0725
  145OSM      P15948   6.571   1.317   8.427 -0.1066 -0.8593  0.1419
  145OSM    O1315949   6.701   1.254   8.397  0.1458 -0.5820 -0.1475
  145OSM    O1415950   6.457   1.223   8.441  0.0138  0.3388  0.1204
  145OSM    O1115951   6.542   1.429   8.320 -0.3518 -0.9554 -0.7492
  145OSM    O1215952   6.580   1.398   8.563  0.2913 -0.3107  1.0443
  145OSM    C1S15953   6.650   1.491   8.254 -0.0855  0.0291 -0.0949
  145OSM    H1S15954   6.745   1.472   8.309 -0.0953 -0.6187 -0.2934
  145OSM    H1T15955   6.644   1.602   8.256  1.6895  0.1575  0.8146
  145OSM     NF15956   6.805   1.492   8.061  1.0079 -0.1610 -0.4169
  145OSM    HNF15957   6.804   1.569   7.997 -0.0870  1.4074  1.3854
  145OSM    C2S15958   6.672   1.449   8.098 -0.1148 -0.1319  0.2329
  145OSM    H2S15959   6.666   1.338   8.097  0.8604 -0.2092 -1.5412
  145OSM    C3S15960   6.568   1.508   8.007 -0.1338 -0.4278 -0.2039
  145OSM    H3S15961   6.581   1.618   8.007  0.6656 -0.5145 -0.1990
  145OSM     O315962   6.437   1.477   8.042 -0.3272  0.7890 -0.3239
  145OSM    HO315963   6.433   1.448   8.133 -0.0697 -0.9270 -0.8195
  145OSM    C4S15964   6.593   1.464   7.866 -0.3791  0.6385 -0.7236
  145OSM    H4S15965   6.584   1.357   7.843 -0.1771  1.0694 -3.0220
  145OSM    C5S15966   6.621   1.554   7.769 -0.6538  0.2121  0.8523
  145OSM    H5S15967   6.620   1.663   7.788 -4.2555  0.8634 -1.9124
  145OSM    C6S15968   6.656   1.524   7.622  0.1921  0.7778 -0.4138
  145OSM    H6S15969   6.631   1.420   7.593  1.8013  0.6112 -1.3485
  145OSM    H6T15970   6.764   1.529   7.596  0.7193 -1.7294  1.0233
  145OSM    C7S15971   6.587   1.622   7.521 -0.2451 -0.1972 -0.2827
  145OSM    H7S15972   6.627   1.723   7.545  0.5090 -0.4940 -0.2640
  145OSM    H7T15973   6.478   1.643   7.527 -0.0926  0.4837  0.2211
  145OSM    C8S15974   6.628   1.593   7.377 -0.4046  0.2169 -0.4304
  145OSM    H8S15975   6.604   1.487   7.355  1.3249 -0.7958  2.0759
  145OSM    H8T15976   6.738   1.604   7.373 -0.0211 -2.1788  1.2578
  145OSM    C9S15977   6.549   1.669   7.275  0.6490 -0.5839 -0.3210
  145OSM    H9S15978   6.555   1.779   7.287  1.1420 -0.7476  1.1526
  145OSM    H9T15979   6.445   1.632   7.288  0.9471 -0.6455  2.6290
  145OSM   C10S15980   6.595   1.639   7.139  0.1940 -0.1165 -0.2475
  145OSM   H10S15981   6.587   1.531   7.118 -0.6684 -0.0400 -0.3182
  145OSM   H10T15982   6.704   1.664   7.139 -0.0277  0.9110 -0.5699
  145OSM   C11S15983   6.521   1.725   7.032 -0.4107 -0.3062 -0.0080
  145OSM   H11S15984   6.545   1.832   7.050  1.8693 -0.8434  0.4951
  145OSM   H11T15985   6.411   1.719   7.037 -0.6308 -0.0549 -2.7583
  145OSM   C12S15986   6.570   1.687   6.888  0.1051  0.0253 -0.7492
  145OSM   H12S15987   6.563   1.576   6.893 -0.2633  0.1069  1.3360
  145OSM   H12T15988   6.678   1.713   6.882 -0.2663  1.8124 -0.2731
  145OSM   C13S15989   6.487   1.748   6.777 -0.2349 -0.6291  0.2301
  145OSM   H13S15990   6.492   1.859   6.777  2.6066 -0.6789 -0.1421
  145OSM   H13T15991   6.383   1.717   6.800 -1.4981  3.6369  1.0493
  145OSM   C14S15992   6.545   1.706   6.642  0.2063  0.1975 -0.4667
  145OSM   H14S15993   6.517   1.600   6.629 -3.9783  1.1188 -0.2917
  145OSM   H14T15994   6.652   1.734   6.637  0.7539 -1.5103  0.8441
  145OSM   C15S15995   6.461   1.762   6.522 -0.0743  0.4581  0.2500
  145OSM   H15S15996   6.471   1.872   6.507 -3.0601  0.3892 -4.1947
  145OSM   H15T15997   6.354   1.744   6.547 -0.8581 -0.1570 -3.1233
  145OSM   C16S15998   6.499   1.711   6.382  0.1192  0.6544 -0.0740
  145OSM   H16S15999   6.427   1.749   6.306 -0.2549 -1.9536 -1.1225
  145OSM   H16T16000   6.500   1.600   6.391  1.9205  0.6655  0.1699
  145OSM   C17S16001   6.635   1.758   6.335  0.2608 -0.2292 -0.3812
  145OSM   H17S16002   6.713   1.742   6.413  1.2335  4.0207 -0.2105
  145OSM   H17T16003   6.626   1.867   6.315 -0.9337 -0.1702  0.3975
  145OSM   C18S16004   6.677   1.689   6.203  0.0725  0.9205  0.5683
  145OSM   H18S16005   6.689   1.579   6.211 -0.9630  0.8366  1.0543
  145OSM   H18T16006   6.770   1.739   6.168 -0.2498  1.1713  0.0575
  145OSM   H18U16007   6.595   1.707   6.131 -0.4753 -0.8139  0.7072
  145OSM    C1F16008   6.911   1.430   8.106 -1.0232 -0.6025  0.2543
  145OSM     OF16009   6.907   1.317   8.161  0.1747  0.1925  0.3168
  145OSM    C2F16010   7.048   1.492   8.091 -0.0431 -0.2606 -0.3409
  145OSM    H2F16011   7.120   1.421   8.135  0.1114 -0.0947 -0.3263
  145OSM    H2G16012   7.052   1.578   8.161 -0.0900 -1.5680  1.3079
  145OSM    C3F16013   7.097   1.525   7.952 -0.2228  0.7205  0.4960
  145OSM    H3F16014   7.088   1.634   7.936 -0.4656  0.5322 -0.7664
  145OSM    H3G16015   7.051   1.464   7.871 -2.7464  1.3082  1.4146
  145OSM    C4F16016   7.252   1.510   7.941 -0.6213  0.3982  0.8131
  145OSM    H4F16017   7.267   1.406   7.905 -1.0037  1.8256 -4.2929
  145OSM    H4G16018   7.309   1.527   8.034  0.1036 -0.1231  0.4732
  145OSM    C5F16019   7.327   1.603   7.838 -0.4492 -0.7180 -0.5881
  145OSM    H5F16020   7.437   1.600   7.853 -0.2793  2.7180 -0.3627
  145OSM    H5G16021   7.296   1.706   7.864  1.2999 -0.6901  1.6552
  145OSM    C6F16022   7.292   1.568   7.695 -0.0652  0.1856  0.6707
  145OSM    H6F16023   7.185   1.589   7.673  0.5159  4.2518  1.0146
  145OSM    H6G16024   7.296   1.460   7.670 -2.2318  0.3551 -0.6667
  145OSM    C7F16025   7.369   1.646   7.587  0.6903  0.2955  0.1326
  145OSM    H7F16026   7.477   1.626   7.608  0.1796 -1.8803  1.0250
  145OSM    H7G16027   7.351   1.755   7.599  1.0906  0.3508  0.2490
  145OSM    C8F16028   7.339   1.624   7.442 -0.3542  0.1891  0.7903
  145OSM    H8F16029   7.389   1.533   7.402 -0.2062  0.4352  0.4064
  145OSM    H8G16030   7.393   1.706   7.391  0.4692 -0.6739  0.2321
  145OSM    C9F16031   7.191   1.609   7.411 -0.0794 -0.1089  0.3707
  145OSM    H9F16032   7.144   1.525   7.464 -2.5541  0.9826  0.0660
  145OSM   C10F16033   7.110   1.696   7.347 -0.4867  0.2505 -0.1442
  145OSM   H10F16034   7.002   1.683   7.337 -0.5945  0.7451  0.3557
  145OSM   C11F16035   7.162   1.828   7.285  0.1902  0.7182  0.0725
  145OSM   H11F16036   7.250   1.861   7.344  1.5548 -0.0710 -1.4225
  145OSM   H11G16037   7.079   1.900   7.301 -0.3309 -0.2025  1.7783
  145OSM   C12F16038   7.192   1.799   7.140 -0.3988 -0.1244 -0.2781
  145OSM   H12F16039   7.246   1.703   7.123  0.0276 -0.4187  2.3134
  145OSM   H12G16040   7.254   1.883   7.102 -1.6503  1.4323  0.9549
  145OSM   C13F16041   7.062   1.788   7.058 -0.0883 -0.3622 -0.0880
  145OSM   H13F16042   7.010   1.884   7.036  0.2328 -0.1705 -0.0206
  145OSM   H13G16043   6.991   1.717   7.106  0.2589  0.8821  2.4581
  145OSM   C14F16044   7.078   1.717   6.918  0.3492 -0.0406  0.1982
  145OSM   H14F16045   6.977   1.718   6.872  0.3000  1.5469  0.2728
  145OSM   H14G16046   7.113   1.612   6.921 -2.2179 -0.9980 -0.3945
  145OSM   C15F16047   7.174   1.795   6.823  0.6794 -0.3688  0.0822
  145OSM   H15F16048   7.167   1.751   6.721  1.0766  1.2482 -0.6685
  145OSM   H15G16049   7.275   1.777   6.866  0.2310 -2.6760  0.2609
  145OSM   C16F16050   7.158   1.950   6.820 -0.2795  0.9261 -0.3635
  145OSM   H16F16051   7.247   1.981   6.762 -0.5931  1.3682 -0.6096
  145OSM   H16G16052   7.165   1.993   6.923 -0.9411  0.7288 -0.2246
  145OSM   C17F16053   7.022   1.993   6.762 -0.0589 -0.4765 -0.1916
  145OSM   H17F16054   6.937   1.966   6.830  0.5829 -0.3199  0.6941
  145OSM   H17G16055   7.010   1.938   6.667  1.2790  0.0771 -0.7063
  145OSM   C18F16056   7.031   2.145   6.729 -0.8043  0.2609  0.3321
  145OSM   H18F16057   7.052   2.208   6.818  0.9431 -0.0508  0.1875
  145OSM   H18G16058   6.941   2.182   6.677 -0.5848  0.7159  0.2693
  145OSM   H18H16059   7.115   2.157   6.657 -1.4697 -1.8271 -0.8830
  146OSM      N16060   3.198   2.768   8.156 -0.3144 -0.0682  0.8692
  146OSM    C1516061   3.282   2.762   8.277  0.1908 -0.1022  0.4815
  146OSM   H15A16062   3.383   2.777   8.241 -0.4333  1.7522 -0.6788
  146OSM   H15B16063   3.265   2.676   8.339 -1.7276  0.5269  0.9283
  146OSM   H15C16064   3.267   2.845   8.345 -0.9845  0.0134  0.1052
  146OSM    C1416065   3.236   2.659   8.063 -0.2150  1.0844 -0.1031
  146OSM   H14A16066   3.249   2.565   8.115 -1.3145  1.6554  1.2832
  146OSM   H14B16067   3.332   2.686   8.021 -0.0549  2.4613  1.0444
  146OSM   H14C16068   3.158   2.636   7.992 -0.9797  0.9953  0.7562
  146OSM    C1316069   3.056   2.749   8.198 -0.4171  0.1410  0.0161
  146OSM   H13A16070   2.998   2.708   8.116  0.8423 -0.9050 -0.3921
  146OSM   H13B16071   3.017   2.838   8.246  2.2399 -0.0344  2.8238
  146OSM   H13C16072   3.045   2.677   8.279 -2.3348 -1.0876 -1.2466
  146OSM    C1216073   3.207   2.902   8.090  0.1522  0.3714 -0.7503
  146OSM   H12A16074   3.179   2.967   8.173 -1.9507 -1.3388 -0.0150
  146OSM   H12B16075   3.138   2.927   8.011  2.2428  0.6903 -2.5419
  146OSM    C1116076   3.349   2.946   8.040  0.8242 -0.1067  0.3556
  146OSM   H11A16077   3.324   3.028   7.969  1.5490  0.2594  0.5142
  146OSM   H11B16078   3.394   2.860   7.985 -4.7524 -3.2830 -0.0399
  146OSM      P16079   3.410   3.117   8.234 -0.1349  0.4207 -0.2930
  146OSM    O1316080   3.275   3.115   8.290  0.6160 -0.3384  0.3672
  146OSM    O1416081   3.525   3.134   8.330 -0.0627 -0.3063  0.8492
  146OSM    O1116082   3.421   3.234   8.129 -0.5106  0.8497  0.0155
  146OSM    O1216083   3.432   2.979   8.151  0.0132  0.1692  0.0424
  146OSM    C1S16084   3.536   3.264   8.047 -0.4807 -0.2891  0.2493
  146OSM    H1S16085   3.581   3.172   8.004  0.0310  0.3932 -0.7169
  146OSM    H1T16086   3.617   3.315   8.103 -1.3092  1.3291  0.0612
  146OSM     NF16087   3.602   3.341   7.812 -0.4625 -0.7114  0.0482
  146OSM    HNF16088   3.647   3.429   7.797  1.0822 -1.3143  0.9130
  146OSM    C2S16089   3.495   3.343   7.918  0.1980  0.4662  0.0902
  146OSM    H2S16090   3.411   3.281   7.879  1.2225 -2.6775  2.4599
  146OSM    C3S16091   3.450   3.482   7.960  0.0712  0.3341 -0.1800
  146OSM    H3S16092   3.539   3.539   7.995 -0.6475  1.3908 -0.0410
  146OSM     O316093   3.361   3.487   8.071  0.1437  0.0755  0.8671
  146OSM    HO316094   3.384   3.407   8.118 -0.4231 -1.6217 -1.5266
  146OSM    C4S16095   3.386   3.560   7.841 -0.0285 -0.1455 -0.5201
  146OSM    H4S16096   3.310   3.496   7.794 -0.0511 -0.0795 -0.5729
  146OSM    C5S16097   3.437   3.678   7.792  0.2183 -0.5637  0.4437
  146OSM    H5S16098   3.525   3.723   7.841 -0.7618  2.7352 -0.5902
  146OSM    C6S16099   3.367   3.748   7.679  0.3568  0.0532 -0.3892
  146OSM    H6S16100   3.323   3.843   7.716 -0.2751  0.1321 -1.3262
  146OSM    H6T16101   3.279   3.692   7.642  0.3629 -2.6527  3.0908
  146OSM    C7S16102   3.473   3.776   7.570 -0.7314 -0.0247 -0.5214
  146OSM    H7S16103   3.520   3.679   7.542 -0.7237  0.2345 -1.4480
  146OSM    H7T16104   3.555   3.847   7.593 -2.6860  1.9662  0.7610
  146OSM    C8S16105   3.406   3.824   7.440  0.2506 -0.4125 -0.0146
  146OSM    H8S16106   3.375   3.929   7.459 -0.0606 -0.3031 -1.0751
  146OSM    H8T16107   3.315   3.761   7.428 -1.2210  1.8005 -0.9977
  146OSM    C9S16108   3.485   3.803   7.318 -0.3794 -0.7349  0.5918
  146OSM    H9S16109   3.493   3.697   7.285  0.1105 -1.8600  3.9902
  146OSM    H9T16110   3.592   3.831   7.320 -0.7463  0.7096  0.6190
  146OSM   C10S16111   3.434   3.889   7.202 -0.5215  0.1773 -0.1816
  146OSM   H10S16112   3.436   3.995   7.234  2.1492 -0.0001  0.4794
  146OSM   H10T16113   3.330   3.857   7.178 -0.8097  1.7340 -1.1448
  146OSM   C11S16114   3.501   3.855   7.070 -0.1295 -0.3662  0.1077
  146OSM   H11S16115   3.484   3.746   7.053 -0.0604 -0.3145 -0.2907
  146OSM   H11T16116   3.610   3.872   7.069  0.1235 -1.8026 -0.9172
  146OSM   C12S16117   3.435   3.945   6.966 -0.2741  0.4623  0.2563
  146OSM   H12S16118   3.464   4.050   6.985  0.8217 -0.1441  2.3079
  146OSM   H12T16119   3.327   3.932   6.988 -0.1620  0.2301  0.6817
  146OSM   C13S16120   3.463   3.909   6.822 -0.1361 -1.1772 -0.6445
  146OSM   H13S16121   3.449   3.804   6.789  0.3711 -2.0044  1.6161
  146OSM   H13T16122   3.572   3.919   6.808 -0.0210 -1.9094 -0.3234
  146OSM   C14S16123   3.389   4.011   6.726 -0.4192 -0.0448 -0.2238
  146OSM   H14S16124   3.417   4.118   6.737 -1.0803  0.2135 -0.9132
  146OSM   H14T16125   3.278   4.003   6.736 -0.2827 -1.0703  0.5237
  146OSM   C15S16126   3.403   3.989   6.568  0.0378 -0.7658  0.5793
  146OSM   H15S16127   3.398   3.880   6.550  3.8867 -1.1032  0.6988
  146OSM   H15T16128   3.504   4.026   6.540 -1.2760  1.8160 -1.1679
  146OSM   C16S16129   3.308   4.075   6.486  0.2997  0.8112  0.4889
  146OSM   H16S16130   3.325   4.178   6.524  1.0658  0.8588  0.0324
  146OSM   H16T16131   3.202   4.052   6.513  0.8825 -0.4476  1.8927
  146OSM   C17S16132   3.333   4.071   6.330 -0.3215 -0.5590 -0.3065
  146OSM   H17S16133   3.254   4.141   6.297  0.6566  1.0815  0.6565
  146OSM   H17T16134   3.308   3.975   6.280 -2.1730  0.8110 -2.1525
  146OSM   C18S16135   3.463   4.126   6.274  0.5958  0.2321  0.1757
  146OSM   H18S16136   3.452   4.171   6.173 -1.1098 -0.2069  0.1366
  146OSM   H18T16137   3.530   4.038   6.265 -2.1091 -1.7955 -1.5055
  146OSM   H18U16138   3.508   4.207   6.337 -1.7827  2.8989 -1.2877
  146OSM    C1F16139   3.644   3.241   7.741  0.6778 -0.1736 -0.4083
  146OSM     OF16140   3.596   3.130   7.755  0.4848  0.3192  0.3241
  146OSM    C2F16141   3.734   3.267   7.625 -0.4971  0.3636 -0.3350
  146OSM    H2F16142   3.727   3.374   7.595 -0.0184  1.3717  2.7903
  146OSM    H2G16143   3.691   3.210   7.541  2.8680 -0.4807 -1.6435
  146OSM    C3F16144   3.872   3.210   7.661  0.4709  0.0341 -0.0639
  146OSM    H3F16145   3.861   3.107   7.701  1.8373  0.0013  0.2728
  146OSM    H3G16146   3.920   3.274   7.738  0.4067  1.6115 -1.2923
  146OSM    C4F16147   3.962   3.193   7.541  0.2963 -0.4692  0.6844
  146OSM    H4F16148   3.911   3.146   7.454  1.6215  2.7394 -2.0513
  146OSM    H4G16149   4.049   3.133   7.575  1.3407  1.6757  2.0501
  146OSM    C5F16150   4.012   3.327   7.487 -0.8430 -0.1304 -0.5337
  146OSM    H5F16151   4.046   3.385   7.575  0.8170 -0.4952 -0.8992
  146OSM    H5G16152   3.923   3.379   7.445 -0.0045  2.2512  0.4936
  146OSM    C6F16153   4.128   3.319   7.386  0.1928 -0.3242 -0.2796
  146OSM    H6F16154   4.140   3.427   7.363  0.9402 -0.6757 -1.6370
  146OSM    H6G16155   4.103   3.279   7.286 -0.9030  0.3612 -0.2833
  146OSM    C7F16156   4.257   3.255   7.438 -0.3119  0.6647  0.3466
  146OSM    H7F16157   4.232   3.148   7.453  1.4749  0.1991  0.1621
  146OSM    H7G16158   4.280   3.276   7.545 -0.1707 -1.8157  0.8473
  146OSM    C8F16159   4.374   3.258   7.336 -0.7393 -0.7226  0.5824
  146OSM    H8F16160   4.337   3.206   7.245 -0.5296 -2.0247  1.2225
  146OSM    H8G16161   4.449   3.188   7.380 -0.4836 -1.6836 -1.2684
  146OSM    C9F16162   4.428   3.398   7.304 -0.2787 -1.3453 -0.0824
  146OSM    H9F16163   4.484   3.452   7.382 -0.2115  0.2015 -1.1441
  146OSM   C10F16164   4.402   3.471   7.187 -0.4561  0.4921  0.4195
  146OSM   H10F16165   4.445   3.572   7.188 -1.7613  1.1180 -1.2179
  146OSM   C11F16166   4.318   3.424   7.069  0.4822  0.5014  0.6533
  146OSM   H11F16167   4.231   3.491   7.054  0.2779  0.0595 -0.2541
  146OSM   H11G16168   4.268   3.327   7.087  1.3118  0.0642  0.6542
  146OSM   C12F16169   4.399   3.418   6.938  1.1133  0.2071 -0.4667
  146OSM   H12F16170   4.475   3.337   6.948  1.7789  0.7913 -0.7410
  146OSM   H12G16171   4.458   3.512   6.933  0.3964  0.7274  0.4237
  146OSM   C13F16172   4.307   3.410   6.808  0.8042  0.6666 -0.2526
  146OSM   H13F16173   4.240   3.498   6.799 -2.5650 -1.3995  2.1657
  146OSM   H13G16174   4.233   3.330   6.829  0.2790  0.5144 -2.5293
  146OSM   C14F16175   4.371   3.400   6.673  0.0601  0.5846 -0.0497
  146OSM   H14F16176   4.419   3.495   6.642 -1.1320  0.9480 -0.8499
  146OSM   H14G16177   4.457   3.331   6.683  0.5384  0.7604 -2.3623
  146OSM   C15F16178   4.276   3.351   6.564  0.3483  0.0449 -0.2864
  146OSM   H15F16179   4.202   3.431   6.539  0.8602  0.4139 -0.6517
  146OSM   H15G16180   4.216   3.260   6.580 -2.1426  1.6576  0.1133
  146OSM   C16F16181   4.349   3.331   6.432  0.2184  0.8052 -0.3907
  146OSM   H16F16182   4.444   3.275   6.444  0.3610  0.7878 -1.4550
  146OSM   H16G16183   4.391   3.428   6.400  0.6652  0.2211 -1.6400
  146OSM   C17F16184   4.251   3.298   6.318  0.4069  0.9723  0.2353
  146OSM   H17F16185   4.164   3.364   6.334 -1.0831 -0.7769 -0.3582
  146OSM   H17G16186   4.226   3.190   6.323 -0.5034  1.1847  0.3496
  146OSM   C18F16187   4.313   3.332   6.177  0.5985  0.9915 -0.7638
  146OSM   H18F16188   4.251   3.293   6.094 -1.3031  1.4324  0.3907
  146OSM   H18G16189   4.418   3.299   6.163 -0.3367 -2.1104 -1.0989
  146OSM   H18H16190   4.315   3.443   6.170  0.0323  1.2307  1.8242
  147OSM      N16191   4.035   0.205   3.724  0.2775 -1.1898  0.7322
  147OSM    C1516192   4.022   0.060   3.756 -0.0765  0.1550 -0.9761
  147OSM   H15A16193   4.111   0.027   3.809 -1.0363 -0.6804  0.1851
  147OSM   H15B16194   4.001   0.004   3.666  0.8945  0.7878 -1.6103
  147OSM   H15C16195   3.935   0.040   3.817  0.1892 -1.0357 -0.9495
  147OSM    C1416196   4.161   0.224   3.635  0.3098  0.2360 -0.1677
  147OSM   H14A16197   4.163   0.320   3.584 -0.5958  0.2913 -0.1230
  147OSM   H14B16198   4.171   0.138   3.572  0.5482  1.3065 -1.6500
  147OSM   H14C16199   4.245   0.214   3.703 -0.0136  0.3645  0.2569
  147OSM    C1316200   3.922   0.272   3.641  0.2957 -0.5086  0.2849
  147OSM   H13A16201   3.956   0.374   3.627  0.0068 -0.5290 -0.5755
  147OSM   H13B16202   3.825   0.261   3.688 -1.7356  1.7821 -2.9957
  147OSM   H13C16203   3.915   0.236   3.540 -1.6385  1.8360 -0.5248
  147OSM    C1216204   4.041   0.289   3.857  0.2805  0.3508  0.3436
  147OSM   H12A16205   3.947   0.263   3.904  0.4387 -1.5561 -0.3220
  147OSM   H12B16206   4.039   0.397   3.849  2.5364  0.6628  2.9097
  147OSM    C1116207   4.161   0.272   3.947  0.4341  0.1496 -0.1749
  147OSM   H11A16208   4.169   0.168   3.987 -2.4474  0.6123  1.9326
  147OSM   H11B16209   4.165   0.335   4.038  2.3348  0.8942 -0.7277
  147OSM      P16210   4.423   0.261   3.930 -0.0017 -0.3284 -0.2373
  147OSM    O1316211   4.465   0.139   3.850  1.1016 -0.6165 -0.1350
  147OSM    O1416212   4.513   0.375   3.924 -0.3527 -0.1156  1.0241
  147OSM    O1116213   4.400   0.224   4.084  0.3575 -0.1150 -0.0387
  147OSM    O1216214   4.278   0.311   3.875 -0.0398  0.0583 -0.0663
  147OSM    C1S16215   4.422   0.083   4.125  0.2247 -0.2362 -0.2157
  147OSM    H1S16216   4.525   0.045   4.109 -0.4525 -1.3480 -2.3301
  147OSM    H1T16217   4.351   0.018   4.069 -0.0480 -0.8353  0.7926
  147OSM     NF16218   4.465  -0.058   4.328 -0.1691  0.0220 -0.4632
  147OSM    HNF16219   4.407  -0.133   4.358 -0.6826  0.0313 -1.3937
  147OSM    C2S16220   4.401   0.065   4.283  0.0104 -0.6156  0.2360
  147OSM    H2S16221   4.458   0.138   4.344 -1.2210  0.1183  0.5228
  147OSM    C3S16222   4.252   0.077   4.308 -1.0375  0.6526 -0.2065
  147OSM    H3S16223   4.205  -0.003   4.245  0.1745  0.4444 -0.8865
  147OSM     O316224   4.188   0.191   4.251  0.3495  0.1979  0.2497
  147OSM    HO316225   4.258   0.234   4.201  1.1491 -1.5187 -0.1628
  147OSM    C4S16226   4.217   0.058   4.452  0.0899 -0.3009 -0.8215
  147OSM    H4S16227   4.168  -0.037   4.477 -2.2810  0.5839 -1.8091
  147OSM    C5S16228   4.227   0.146   4.552 -0.2783  0.2948  0.0384
  147OSM    H5S16229   4.268   0.248   4.544 -2.4855  1.3970  1.6614
  147OSM    C6S16230   4.171   0.127   4.689 -0.1329 -0.2088 -1.0827
  147OSM    H6S16231   4.089   0.201   4.703 -0.9801 -1.1373 -1.0139
  147OSM    H6T16232   4.238   0.144   4.776 -3.1761  0.7716  1.2439
  147OSM    C7S16233   4.105  -0.006   4.719 -0.3580  0.1097  0.1010
  147OSM    H7S16234   4.186  -0.081   4.703  2.1803  3.1483 -2.7337
  147OSM    H7T16235   4.027  -0.025   4.642 -0.3242 -1.5254  0.4260
  147OSM    C8S16236   4.033  -0.002   4.857  0.9813  0.2533  0.3319
  147OSM    H8S16237   3.951   0.070   4.839  1.2371 -0.0083 -2.3694
  147OSM    H8T16238   4.096   0.049   4.933 -1.0898  1.1740  1.5260
  147OSM    C9S16239   3.977  -0.141   4.901  0.1212 -0.4899 -0.0506
  147OSM    H9S16240   4.063  -0.210   4.914  0.7798  0.0401 -1.4753
  147OSM    H9T16241   3.919  -0.179   4.814  0.1722 -2.4202  0.6898
  147OSM   C10S16242   3.890  -0.149   5.022 -0.9867 -0.2120 -0.0596
  147OSM   H10S16243   3.864  -0.257   5.027  1.9750 -0.9607  1.8981
  147OSM   H10T16244   3.818  -0.069   4.997  1.7283  1.5927 -2.8710
  147OSM   C11S16245   3.971  -0.110   5.152  0.3003 -0.4665  1.0120
  147OSM   H11S16246   3.994  -0.002   5.140 -0.1007 -0.6601 -2.1157
  147OSM   H11T16247   4.073  -0.154   5.152  0.1423 -1.0061 -1.7849
  147OSM   C12S16248   3.912  -0.136   5.296  0.2386  0.0255 -0.5040
  147OSM   H12S16249   3.878  -0.241   5.305 -2.0799  0.8509  1.4215
  147OSM   H12T16250   3.835  -0.058   5.314  2.3821  2.3808 -0.8300
  147OSM   C13S16251   4.019  -0.122   5.408  0.1767  0.6671  0.0676
  147OSM   H13S16252   4.051  -0.015   5.411  0.4024  0.5974  3.2937
  147OSM   H13T16253   4.106  -0.187   5.388  1.8836  2.9095 -0.1992
  147OSM   C14S16254   3.971  -0.166   5.545  0.1767  0.5870 -0.0491
  147OSM   H14S16255   3.959  -0.276   5.539 -0.3331  0.6312  0.0668
  147OSM   H14T16256   3.874  -0.116   5.569  0.1903  0.3928  0.4156
  147OSM   C15S16257   4.076  -0.139   5.647  0.2702  0.3713 -0.4833
  147OSM   H15S16258   4.107  -0.033   5.641  0.8095  0.2441 -0.0418
  147OSM   H15T16259   4.170  -0.198   5.642  0.4638  0.7699 -1.9286
  147OSM   C16S16260   4.015  -0.161   5.788 -0.1048  1.0164 -0.1068
  147OSM   H16S16261   3.968  -0.261   5.801  3.8384 -0.8441  1.9167
  147OSM   H16T16262   3.938  -0.084   5.808 -1.4571 -0.1227 -0.7611
  147OSM   C17S16263   4.122  -0.159   5.902  0.3886  0.1791 -0.5927
  147OSM   H17S16264   4.158  -0.055   5.890 -2.0942  1.0773 -0.8864
  147OSM   H17T16265   4.210  -0.224   5.884 -1.0286 -1.8539 -0.5045
  147OSM   C18S16266   4.056  -0.186   6.041 -0.6249 -0.4850 -0.4672
  147OSM   H18S16267   4.114  -0.129   6.118  2.7869 -0.5654 -2.7526
  147OSM   H18T16268   4.069  -0.294   6.061 -2.5755 -0.4379  1.3388
  147OSM   H18U16269   3.951  -0.152   6.047 -0.5850 -0.3268 -0.6405
  147OSM    C1F16270   4.600  -0.080   4.319  0.3123 -1.0330 -0.1700
  147OSM     OF16271   4.675   0.014   4.281 -0.0685 -0.0272  0.2906
  147OSM    C2F16272   4.652  -0.218   4.347  0.3471 -0.7417 -0.2498
  147OSM    H2F16273   4.671  -0.260   4.246 -0.0651 -0.3132 -0.5145
  147OSM    H2G16274   4.572  -0.274   4.400  1.2120 -0.2187  1.6856
  147OSM    C3F16275   4.780  -0.213   4.438  0.5012  1.0049 -0.1903
  147OSM    H3F16276   4.848  -0.135   4.399 -0.0163  1.7943  0.4593
  147OSM    H3G16277   4.815  -0.319   4.445 -2.6642 -0.2342 -1.3211
  147OSM    C4F16278   4.745  -0.169   4.588 -0.1756  0.5713 -0.0465
  147OSM    H4F16279   4.674  -0.084   4.585  2.5520  2.9869 -1.5909
  147OSM    H4G16280   4.842  -0.144   4.637  1.5527 -0.6758 -2.5580
  147OSM    C5F16281   4.690  -0.280   4.678  0.3571  1.0510  0.5844
  147OSM    H5F16282   4.749  -0.374   4.685 -2.8388 -1.0307  2.3106
  147OSM    H5G16283   4.599  -0.313   4.623  2.4426 -1.0147 -1.9580
  147OSM    C6F16284   4.658  -0.234   4.821 -0.5978 -1.0394 -0.7910
  147OSM    H6F16285   4.755  -0.193   4.855 -1.5737  0.3637  0.4015
  147OSM    H6G16286   4.630  -0.313   4.894 -0.3256  0.2222  0.7286
  147OSM    C7F16287   4.562  -0.110   4.835 -0.5562 -0.0152 -0.5565
  147OSM    H7F16288   4.470  -0.126   4.775  0.0898 -1.4334 -1.2268
  147OSM    H7G16289   4.618  -0.025   4.790 -1.1038  1.7435  1.8996
  147OSM    C8F16290   4.532  -0.089   4.985 -0.7140 -0.4605 -0.9945
  147OSM    H8F16291   4.487   0.011   5.000  0.5143  0.3084 -2.2220
  147OSM    H8G16292   4.632  -0.082   5.034 -1.1212 -0.3979 -0.1748
  147OSM    C9F16293   4.442  -0.203   5.029 -0.1575 -0.2371  0.0061
  147OSM    H9F16294   4.340  -0.201   4.989 -0.4148  0.1500  0.6532
  147OSM   C10F16295   4.464  -0.303   5.113 -0.8692 -0.2816 -0.2946
  147OSM   H10F16296   4.385  -0.376   5.134 -0.5781 -0.5407 -0.0794
  147OSM   C11F16297   4.595  -0.327   5.184 -0.3125  0.1824  0.3212
  147OSM   H11F16298   4.647  -0.229   5.193  1.8450 -0.7221 -1.2940
  147OSM   H11G16299   4.664  -0.404   5.142 -0.3698  0.9465 -1.2475
  147OSM   C12F16300   4.585  -0.386   5.333  0.7641 -0.1527  0.2404
  147OSM   H12F16301   4.534  -0.484   5.319  0.2219  0.0117  1.0144
  147OSM   H12G16302   4.519  -0.324   5.398 -2.5550 -2.7919 -0.3016
  147OSM   C13F16303   4.737  -0.407   5.379  0.3744 -0.4617  0.1398
  147OSM   H13F16304   4.777  -0.304   5.367 -0.0132 -0.5446 -2.4779
  147OSM   H13G16305   4.792  -0.472   5.307  0.1082  1.0125 -1.4784
  147OSM   C14F16306   4.747  -0.471   5.525 -0.5195  0.0485  0.3288
  147OSM   H14F16307   4.848  -0.509   5.548 -1.6587 -2.8529  0.8843
  147OSM   H14G16308   4.672  -0.553   5.530 -1.7039  1.1090  0.5968
  147OSM   C15F16309   4.726  -0.360   5.632  0.0449  0.1514  0.4240
  147OSM   H15F16310   4.653  -0.283   5.602  0.0879 -0.0723 -0.2705
  147OSM   H15G16311   4.815  -0.296   5.651 -2.1527  3.7241 -0.4829
  147OSM   C16F16312   4.688  -0.435   5.763 -0.4817 -0.0124  0.0925
  147OSM   H16F16313   4.745  -0.392   5.849 -1.6921 -0.8513  1.3652
  147OSM   H16G16314   4.721  -0.541   5.754 -0.4936 -0.0558  0.5117
  147OSM   C17F16315   4.549  -0.422   5.819  0.2258  0.0963 -0.0843
  147OSM   H17F16316   4.485  -0.507   5.787  0.2025  0.4396 -0.9695
  147OSM   H17G16317   4.516  -0.322   5.786 -0.2488 -0.4940 -1.4949
  147OSM   C18F16318   4.552  -0.431   5.974  0.6230 -0.2604  0.1409
  147OSM   H18F16319   4.591  -0.528   6.012 -2.5259 -1.8080 -0.2691
  147OSM   H18G16320   4.447  -0.424   6.009  1.5743  1.7561  3.0253
  147OSM   H18H16321   4.605  -0.340   6.008  2.0639 -0.5796 -1.1331
  148OSM      N16322   3.067   5.963   3.634 -0.4497  0.4152 -0.0208
  148OSM    C1516323   3.014   6.098   3.678 -0.5167 -0.4454  0.7056
  148OSM   H15A16324   2.987   6.086   3.781 -0.3684 -1.7167  0.6043
  148OSM   H15B16325   2.925   6.125   3.624 -0.3712  0.8146  1.0486
  148OSM   H15C16326   3.079   6.185   3.668 -2.5886  1.0611 -0.4300
  148OSM    C1416327   2.956   5.866   3.643 -0.2719 -1.3863 -0.1949
  148OSM   H14A16328   2.925   5.840   3.742 -1.0012 -1.1728 -0.3629
  148OSM   H14B16329   2.988   5.776   3.591 -0.4408 -0.9133 -1.1551
  148OSM   H14C16330   2.868   5.899   3.590 -1.3372 -2.7131  0.7174
  148OSM    C1316331   3.096   5.963   3.487  0.5110 -0.5594 -0.3373
  148OSM   H13A16332   3.150   5.875   3.456 -0.7566 -1.2470 -0.6601
  148OSM   H13B16333   3.150   6.053   3.463 -0.6370  0.3620  0.4429
  148OSM   H13C16334   2.997   5.968   3.444  0.4950  1.2296 -0.1795
  148OSM    C1216335   3.191   5.928   3.724 -0.7598 -0.0725 -0.2083
  148OSM   H12A16336   3.278   5.990   3.706 -0.7916  0.2905  0.8274
  148OSM   H12B16337   3.217   5.825   3.703  0.0027 -0.5446  2.7036
  148OSM    C1116338   3.165   5.934   3.875  0.0072  1.1055  0.0467
  148OSM   H11A16339   3.139   6.037   3.907  2.1011  1.4816  0.7179
  148OSM   H11B16340   3.262   5.911   3.925  0.0194  1.1510  0.0442
  148OSM      P16341   3.098   5.696   3.966  0.2306  0.1180  0.0166
  148OSM    O1316342   2.971   5.635   4.007 -0.3805 -0.2352 -0.1937
  148OSM    O1416343   3.175   5.628   3.863  0.1369  0.5676  0.1490
  148OSM    O1116344   3.182   5.742   4.087 -0.2846 -0.3180  0.2067
  148OSM    O1216345   3.060   5.840   3.908 -0.4229 -0.7916 -0.4595
  148OSM    C1S16346   3.124   5.835   4.179  0.9937  0.1912 -0.9202
  148OSM    H1S16347   3.013   5.837   4.176  0.6802 -4.9882 -0.9710
  148OSM    H1T16348   3.157   5.939   4.155  1.5971  0.0067 -0.8953
  148OSM     NF16349   3.084   5.899   4.410 -0.4153 -0.4667 -0.2168
  148OSM    HNF16350   3.131   5.984   4.430 -3.9541  3.0130 -4.4513
  148OSM    C2S16351   3.149   5.799   4.329 -0.5829  0.4894 -0.1326
  148OSM    H2S16352   3.112   5.702   4.368 -2.8989  1.6307  0.7173
  148OSM    C3S16353   3.305   5.792   4.354 -0.5222 -0.0175 -0.0131
  148OSM    H3S16354   3.338   5.898   4.352  0.3073 -0.2591  0.2536
  148OSM     O316355   3.382   5.730   4.252  0.1926  0.0147  0.1885
  148OSM    HO316356   3.310   5.728   4.188  1.9020 -2.2698 -1.8469
  148OSM    C4S16357   3.331   5.748   4.491 -1.1670 -0.0648  0.1485
  148OSM    H4S16358   3.336   5.837   4.556 -0.4895  0.4545 -0.6011
  148OSM    C5S16359   3.363   5.624   4.536  0.2755  1.0173 -0.6103
  148OSM    H5S16360   3.370   5.541   4.463  1.5818 -0.8646  1.5118
  148OSM    C6S16361   3.382   5.596   4.686 -0.0094  0.1174  0.5468
  148OSM    H6S16362   3.488   5.581   4.717  0.2779  1.7897  0.4533
  148OSM    H6T16363   3.316   5.509   4.708 -0.0591  0.1204  0.4084
  148OSM    C7S16364   3.342   5.702   4.783  0.2164 -0.5959  0.5126
  148OSM    H7S16365   3.256   5.763   4.747 -1.0450 -2.6006 -0.0185
  148OSM    H7T16366   3.423   5.777   4.794  0.5149 -0.4845 -1.9365
  148OSM    C8S16367   3.304   5.641   4.920  0.2168  0.0245  0.0346
  148OSM    H8S16368   3.392   5.596   4.971  1.9271  1.9641 -1.1053
  148OSM    H8T16369   3.220   5.569   4.907 -0.4753  0.9915 -0.9375
  148OSM    C9S16370   3.248   5.743   5.019 -0.1715 -0.3805  0.2157
  148OSM    H9S16371   3.161   5.795   4.973  1.0220  2.2644  0.7780
  148OSM    H9T16372   3.321   5.821   5.050 -0.0449 -0.5295  0.2910
  148OSM   C10S16373   3.197   5.683   5.155  0.5424 -0.0665 -0.6523
  148OSM   H10S16374   3.111   5.613   5.141 -0.3521  0.2528  2.4393
  148OSM   H10T16375   3.157   5.766   5.217  2.3807  1.2653 -1.1507
  148OSM   C11S16376   3.313   5.608   5.235 -0.3291  0.1573 -0.0260
  148OSM   H11S16377   3.400   5.676   5.246  0.6905 -1.1702  0.5004
  148OSM   H11T16378   3.334   5.515   5.177 -0.2189  0.4319 -0.4286
  148OSM   C12S16379   3.266   5.573   5.380 -0.1195 -0.7172 -0.4892
  148OSM   H12S16380   3.364   5.532   5.413  0.8993  0.7369 -1.6027
  148OSM   H12T16381   3.198   5.486   5.371  0.5935 -1.2629 -0.7368
  148OSM   C13S16382   3.228   5.700   5.462  0.1796  0.5939  0.4429
  148OSM   H13S16383   3.124   5.724   5.432  1.1671  2.6705 -1.6518
  148OSM   H13T16384   3.300   5.782   5.441 -1.1166  1.1972 -2.0889
  148OSM   C14S16385   3.227   5.673   5.613 -0.7447 -0.3052 -0.1989
  148OSM   H14S16386   3.333   5.669   5.644  0.2919  1.4704 -3.0642
  148OSM   H14T16387   3.164   5.584   5.636 -0.0766 -1.1587 -1.5312
  148OSM   C15S16388   3.149   5.791   5.684  0.1366  0.8187 -0.2471
  148OSM   H15S16389   3.045   5.803   5.648  0.5065  0.8656 -1.3437
  148OSM   H15T16390   3.200   5.888   5.664  2.0599 -0.2647 -0.9282
  148OSM   C16S16391   3.168   5.782   5.838 -0.0508 -0.4991 -0.1158
  148OSM   H16S16392   3.275   5.798   5.859  0.5036 -2.4404 -1.2140
  148OSM   H16T16393   3.141   5.676   5.859  2.7167 -1.8053 -2.5083
  148OSM   C17S16394   3.078   5.874   5.921 -0.8546  1.0440 -0.3132
  148OSM   H17S16395   3.061   5.979   5.890 -3.8696  1.0209  0.9589
  148OSM   H17T16396   3.129   5.889   6.018  1.7635 -2.2423 -0.9733
  148OSM   C18S16397   2.936   5.816   5.928  0.0352 -0.0274 -0.3764
  148OSM   H18S16398   2.884   5.869   6.010  0.8577 -1.5323  1.1808
  148OSM   H18T16399   2.932   5.707   5.951  1.5197 -0.6118 -2.5436
  148OSM   H18U16400   2.885   5.850   5.835  3.3994  1.7937 -1.7122
  148OSM    C1F16401   2.955   5.903   4.429 -0.1942 -0.1896 -0.2977
  148OSM     OF16402   2.895   5.803   4.395 -0.0876  0.5961 -0.1155
  148OSM    C2F16403   2.895   6.029   4.486  0.0046  0.0207  0.6860
  148OSM    H2F16404   2.817   6.064   4.415  0.9948 -1.4206 -1.2095
  148OSM    H2G16405   2.973   6.108   4.496  1.5919 -1.4896  0.7721
  148OSM    C3F16406   2.828   6.026   4.625 -0.2678  0.1857  0.6581
  148OSM    H3F16407   2.734   5.970   4.606  0.5134 -0.9042 -0.1380
  148OSM    H3G16408   2.790   6.128   4.646 -0.6785  0.2924 -0.5397
  148OSM    C4F16409   2.912   5.953   4.727  0.0002 -0.0732 -0.9080
  148OSM    H4F16410   3.009   6.006   4.730 -0.0724  0.1615 -2.1602
  148OSM    H4G16411   2.943   5.848   4.708  0.0776 -0.5953  1.7696
  148OSM    C5F16412   2.832   5.952   4.859 -0.6530  0.6029 -0.4075
  148OSM    H5F16413   2.745   5.882   4.856  2.0116 -3.0445  0.0455
  148OSM    H5G16414   2.782   6.051   4.858  0.7872  1.3570  0.0515
  148OSM    C6F16415   2.920   5.927   4.976  0.0066 -0.3315 -0.4945
  148OSM    H6F16416   3.013   5.986   4.961 -0.1030  0.5906  1.9715
  148OSM    H6G16417   2.955   5.823   4.991  2.9046  0.5763 -0.4084
  148OSM    C7F16418   2.863   5.988   5.107 -0.2384  0.1251  0.3206
  148OSM    H7F16419   2.773   5.929   5.133 -0.5148 -0.4747 -1.8134
  148OSM    H7G16420   2.816   6.087   5.086 -1.5092 -1.1210 -3.7866
  148OSM    C8F16421   2.958   5.977   5.226  0.2118  0.0699  0.0511
  148OSM    H8F16422   3.008   5.877   5.226 -1.4082 -0.7745  1.0746
  148OSM    H8G16423   2.902   5.963   5.321  1.4643 -0.3695  0.7588
  148OSM    C9F16424   3.077   6.074   5.251 -0.0073 -0.6162  1.1433
  148OSM    H9F16425   3.156   6.076   5.174 -0.7827 -1.0453  0.3311
  148OSM   C10F16426   3.113   6.138   5.364  0.1949  0.2094  0.5692
  148OSM   H10F16427   3.199   6.207   5.361  0.1718  0.2346  0.4819
  148OSM   C11F16428   3.037   6.123   5.495  0.2763 -0.3893  1.1324
  148OSM   H11F16429   3.099   6.145   5.585  0.8483  2.1215  0.1833
  148OSM   H11G16430   3.018   6.013   5.502  1.2609 -0.7364 -0.8857
  148OSM   C12F16431   2.907   6.209   5.499 -1.0489  0.8582 -0.1538
  148OSM   H12F16432   2.862   6.193   5.399 -1.9329 -0.6190  0.4660
  148OSM   H12G16433   2.930   6.315   5.525 -2.6078  0.5663  2.6967
  148OSM   C13F16434   2.804   6.155   5.595  0.0094 -0.6702  0.4740
  148OSM   H13F16435   2.816   6.045   5.590  2.0147 -0.4550 -0.4602
  148OSM   H13G16436   2.699   6.180   5.569 -0.0647 -1.0457  0.4162
  148OSM   C14F16437   2.825   6.209   5.736  0.7097 -0.0353  0.5182
  148OSM   H14F16438   2.853   6.316   5.745 -0.1791  0.5152 -2.2163
  148OSM   H14G16439   2.916   6.155   5.770  1.0659 -0.5438 -1.1384
  148OSM   C15F16440   2.705   6.188   5.833 -0.3225  0.3355  0.3313
  148OSM   H15F16441   2.674   6.082   5.824  1.1949 -0.0750 -0.4034
  148OSM   H15G16442   2.630   6.269   5.820  0.8567  1.5804  0.9685
  148OSM   C16F16443   2.770   6.224   5.977  0.3119 -0.0106 -0.3255
  148OSM   H16F16444   2.814   6.326   5.983  0.5288 -0.0617 -0.9341
  148OSM   H16G16445   2.844   6.142   5.989  1.6296  0.3916 -4.2102
  148OSM   C17F16446   2.663   6.240   6.084 -0.5114  0.3150 -0.1968
  148OSM   H17F16447   2.628   6.136   6.103  0.3193  0.0161 -0.2647
  148OSM   H17G16448   2.571   6.295   6.054 -2.2363 -1.9308  0.6638
  148OSM   C18F16449   2.713   6.296   6.219 -0.5440 -0.0319  1.7446
  148OSM   H18F16450   2.640   6.275   6.300 -2.5255  0.0356  0.0620
  148OSM   H18G16451   2.734   6.405   6.221  0.2437 -0.1333  0.4410
  148OSM   H18H16452   2.804   6.235   6.240 -1.6749 -1.9858  1.2775
  149OSM      N16453   4.728   4.775   3.571 -0.5133  0.5201 -0.5739
  149OSM    C1516454   4.632   4.801   3.688 -0.7217  0.1078 -0.0322
  149OSM   H15A16455   4.589   4.712   3.732 -0.5732  0.3674  0.6469
  149OSM   H15B16456   4.549   4.862   3.656  1.9311  3.4988 -1.0233
  149OSM   H15C16457   4.685   4.859   3.761  1.7667 -2.9063  0.7582
  149OSM    C1416458   4.659   4.699   3.461 -0.6931 -0.1353  1.1057
  149OSM   H14A16459   4.576   4.754   3.419  1.8719  3.0032 -0.3282
  149OSM   H14B16460   4.616   4.605   3.492  1.5680 -0.5776  3.3161
  149OSM   H14C16461   4.714   4.692   3.368 -2.7409  1.9605 -0.3667
  149OSM    C1316462   4.769   4.909   3.515  0.8561 -0.3690  0.0074
  149OSM   H13A16463   4.844   4.962   3.571 -0.1036 -0.6999  1.6733
  149OSM   H13B16464   4.684   4.975   3.504  2.2880  1.3883 -1.1402
  149OSM   H13C16465   4.808   4.893   3.416 -0.1329 -1.1668 -0.2704
  149OSM    C1216466   4.852   4.700   3.632 -0.4227  0.4214  0.8265
  149OSM   H12A16467   4.916   4.691   3.546 -0.2190 -0.4684  1.0700
  149OSM   H12B16468   4.825   4.597   3.650  0.0025 -0.0080 -0.7980
  149OSM    C1116469   4.929   4.750   3.750 -0.5609  0.1883 -0.5046
  149OSM   H11A16470   5.012   4.682   3.779 -0.6481 -0.1912 -1.1141
  149OSM   H11B16471   4.854   4.747   3.832  0.0747  0.0963  0.0799
  149OSM      P16472   5.094   4.928   3.644 -0.1789 -0.6045  0.3122
  149OSM    O1316473   5.128   4.803   3.572  0.3079  0.0984 -0.2095
  149OSM    O1416474   5.050   5.040   3.553 -0.2419  0.1314 -0.5317
  149OSM    O1116475   5.213   4.975   3.738  0.5820  0.2361  1.0871
  149OSM    O1216476   4.977   4.888   3.745  0.2473  0.5380  0.0286
  149OSM    C1S16477   5.202   5.061   3.844 -0.2722 -0.1694 -0.2038
  149OSM    H1S16478   5.125   5.138   3.821  1.3511  1.5893  0.0273
  149OSM    H1T16479   5.298   5.114   3.863 -1.1525  1.6986 -0.7840
  149OSM     NF16480   5.161   5.101   4.087 -0.7767 -0.5641  0.1802
  149OSM    HNF16481   5.243   5.097   4.145  0.3098 -0.2536 -1.2841
  149OSM    C2S16482   5.169   4.994   3.979  0.2175 -0.2005 -0.4650
  149OSM    H2S16483   5.067   4.951   3.964 -1.4492  3.0622  0.6622
  149OSM    C3S16484   5.264   4.871   4.000  0.0685 -0.7171 -0.0659
  149OSM    H3S16485   5.359   4.920   4.031 -0.3049  0.1535 -0.2862
  149OSM     O316486   5.300   4.781   3.898 -0.1680  0.0714 -0.3261
  149OSM    HO316487   5.263   4.826   3.821 -0.1458  1.0349  0.2137
  149OSM    C4S16488   5.220   4.798   4.125 -0.0075  0.2575 -0.4222
  149OSM    H4S16489   5.262   4.834   4.220 -0.1130 -1.4940  0.3243
  149OSM    C5S16490   5.120   4.708   4.128 -0.1303  0.0319 -0.2917
  149OSM    H5S16491   5.053   4.688   4.043  0.8385 -0.9676 -0.8437
  149OSM    C6S16492   5.080   4.636   4.253 -0.6063  0.2723 -0.1449
  149OSM    H6S16493   5.074   4.526   4.237 -3.0972  0.3798 -0.4493
  149OSM    H6T16494   4.986   4.671   4.301 -0.7381  1.7906 -1.4137
  149OSM    C7S16495   5.168   4.662   4.373 -0.8894 -0.6114 -0.2268
  149OSM    H7S16496   5.168   4.770   4.400  0.1863 -0.4546 -0.8240
  149OSM    H7T16497   5.269   4.632   4.337 -0.1336 -3.9092  3.8121
  149OSM    C8S16498   5.126   4.588   4.501  0.1484  0.0385 -0.2289
  149OSM    H8S16499   5.156   4.484   4.477  0.2065  0.1310 -0.5664
  149OSM    H8T16500   5.017   4.604   4.512  0.2167 -1.1868  4.1239
  149OSM    C9S16501   5.214   4.632   4.615  0.1638 -0.1036  0.4499
  149OSM    H9S16502   5.192   4.739   4.637  1.1228 -0.0364  1.1226
  149OSM    H9T16503   5.320   4.621   4.583 -0.0838  0.4931 -0.6390
  149OSM   C10S16504   5.186   4.562   4.748 -0.3784  0.0333 -0.2550
  149OSM   H10S16505   5.208   4.453   4.749 -1.6628 -0.2434  1.2022
  149OSM   H10T16506   5.079   4.570   4.777 -0.2297  0.8888  0.0902
  149OSM   C11S16507   5.271   4.625   4.866  0.1628  0.0679  0.5495
  149OSM   H11S16508   5.237   4.728   4.889 -0.1152  0.2699 -0.6868
  149OSM   H11T16509   5.382   4.628   4.852 -0.1056  0.8486 -1.6279
  149OSM   C12S16510   5.234   4.543   4.991 -0.0988 -0.6653  0.8222
  149OSM   H12S16511   5.236   4.434   4.970  0.5519 -0.4458 -0.3551
  149OSM   H12T16512   5.135   4.580   5.024 -0.8881 -1.4648 -0.5800
  149OSM   C13S16513   5.333   4.564   5.100  0.5440 -0.5544 -0.9027
  149OSM   H13S16514   5.344   4.669   5.135  0.1117 -0.6408 -0.4857
  149OSM   H13T16515   5.435   4.533   5.071  0.3509  0.1124 -2.3501
  149OSM   C14S16516   5.305   4.501   5.242  0.6528  0.3089  0.7174
  149OSM   H14S16517   5.275   4.395   5.229 -1.0374  0.7822  0.4895
  149OSM   H14T16518   5.224   4.557   5.293  1.1921  2.3049 -0.4849
  149OSM   C15S16519   5.435   4.504   5.327 -0.6452 -0.0787 -0.0637
  149OSM   H15S16520   5.486   4.600   5.303  0.5675 -1.1772 -2.2793
  149OSM   H15T16521   5.508   4.436   5.279 -1.0614  0.7837 -2.0243
  149OSM   C16S16522   5.404   4.481   5.479 -0.3967  0.1628 -0.1721
  149OSM   H16S16523   5.364   4.378   5.489  0.2240  0.1055  2.5146
  149OSM   H16T16524   5.322   4.548   5.514 -0.6387 -0.4600  0.4633
  149OSM   C17S16525   5.524   4.507   5.568 -0.1004 -1.1282  0.7230
  149OSM   H17S16526   5.549   4.614   5.552 -0.8266 -0.8977  1.0769
  149OSM   H17T16527   5.611   4.450   5.528 -0.9769 -2.3292  0.4779
  149OSM   C18S16528   5.504   4.460   5.715  0.3864  0.6470 -0.1522
  149OSM   H18S16529   5.515   4.350   5.726 -2.0243  0.3390 -0.3822
  149OSM   H18T16530   5.402   4.479   5.755  1.3082  0.7799  2.3123
  149OSM   H18U16531   5.580   4.508   5.780  1.0083  1.2219 -1.2682
  149OSM    C1F16532   5.064   5.193   4.094 -0.0356  0.1708  0.5770
  149OSM     OF16533   4.969   5.171   4.020 -0.2353 -0.0951  0.3607
  149OSM    C2F16534   5.076   5.312   4.188 -0.0443  0.2804 -0.5646
  149OSM    H2F16535   5.116   5.402   4.136  1.6028 -0.0709  0.0256
  149OSM    H2G16536   5.145   5.280   4.269 -0.6150 -1.7402 -0.8337
  149OSM    C3F16537   4.941   5.334   4.263 -0.2283  0.3217  0.1493
  149OSM    H3F16538   4.868   5.374   4.189 -0.5439 -1.1536 -0.3690
  149OSM    H3G16539   4.973   5.419   4.327 -0.0701  2.6421 -2.7653
  149OSM    C4F16540   4.878   5.211   4.340 -0.1152 -0.1155  0.3019
  149OSM    H4F16541   4.862   5.120   4.277 -0.9587  0.6463 -0.6190
  149OSM    H4G16542   4.783   5.241   4.389  0.9645 -2.3371  4.1857
  149OSM    C5F16543   4.968   5.168   4.452  0.3841 -0.3399 -0.0296
  149OSM    H5F16544   4.989   5.253   4.520 -0.2040  0.6449 -1.0441
  149OSM    H5G16545   5.061   5.127   4.408  1.4595  1.7680  0.1510
  149OSM    C6F16546   4.911   5.047   4.532  0.3271 -0.2400 -0.6074
  149OSM    H6F16547   4.887   4.959   4.469  0.0707  0.0440 -0.9132
  149OSM    H6G16548   4.815   5.082   4.577  0.3222 -1.1193  0.1095
  149OSM    C7F16549   5.022   5.011   4.636  0.3763  0.1410  0.2303
  149OSM    H7F16550   5.073   5.097   4.684 -0.4922 -0.1921  1.8163
  149OSM    H7G16551   5.101   4.955   4.581  0.9024  3.0302 -2.2425
  149OSM    C8F16552   4.967   4.919   4.749 -0.2165 -0.5481 -1.2052
  149OSM    H8F16553   5.059   4.875   4.792  0.1563  1.6600  0.4294
  149OSM    H8G16554   4.903   4.837   4.710 -0.3791  0.0763 -2.2970
  149OSM    C9F16555   4.887   4.999   4.849 -0.2576  1.0698  0.2663
  149OSM    H9F16556   4.811   5.068   4.809 -2.3527 -0.0281  2.1343
  149OSM   C10F16557   4.911   4.998   4.982  0.6939 -0.2617 -0.4492
  149OSM   H10F16558   4.858   5.075   5.041  1.2043  0.9806 -1.5611
  149OSM   C11F16559   5.008   4.919   5.064 -0.5134 -0.7200 -0.5703
  149OSM   H11F16560   5.075   4.863   4.996 -1.3096 -1.3816 -0.8380
  149OSM   H11G16561   4.953   4.850   5.132 -0.7825  0.5697  0.5562
  149OSM   C12F16562   5.096   5.004   5.152  0.3290 -0.2970  0.0908
  149OSM   H12F16563   5.037   5.081   5.206 -0.3908 -0.2489 -0.7400
  149OSM   H12G16564   5.164   5.060   5.085  0.8309 -0.3558  0.5478
  149OSM   C13F16565   5.181   4.940   5.262 -0.1672  0.6998  0.3505
  149OSM   H13F16566   5.254   5.018   5.294  2.0801  1.2291 -4.9683
  149OSM   H13G16567   5.244   4.861   5.216 -2.0504 -0.5770 -0.1743
  149OSM   C14F16568   5.105   4.873   5.373  0.0669 -0.2741  0.0736
  149OSM   H14F16569   5.073   4.771   5.344  0.2161 -2.0494  5.1725
  149OSM   H14G16570   5.016   4.937   5.391  1.5277  2.0626 -0.5571
  149OSM   C15F16571   5.180   4.853   5.504  0.2031  0.5282 -0.5695
  149OSM   H15F16572   5.234   4.933   5.561 -1.1093  0.0153  1.5314
  149OSM   H15G16573   5.257   4.774   5.495 -0.9344 -1.2711  3.3599
  149OSM   C16F16574   5.073   4.807   5.605  0.0069 -0.4399  0.5747
  149OSM   H16F16575   5.018   4.720   5.564 -0.1986  0.6238 -1.5486
  149OSM   H16G16576   5.003   4.890   5.627  1.0369  0.3510  0.9554
  149OSM   C17F16577   5.132   4.749   5.736  0.9814 -0.0096 -0.6870
  149OSM   H17F16578   5.179   4.830   5.797  0.3580 -0.5393  0.5331
  149OSM   H17G16579   5.204   4.674   5.698 -1.5151 -2.8892 -0.0848
  149OSM   C18F16580   5.030   4.686   5.828  0.4339  0.2592  0.4247
  149OSM   H18F16581   5.013   4.761   5.909  1.0134 -0.4801  1.2463
  149OSM   H18G16582   5.058   4.592   5.880 -1.8560 -1.3085 -1.0027
  149OSM   H18H16583   4.930   4.665   5.784  1.0808 -0.7670 -0.5950
  150OSM      N16584   3.114   4.395   3.890  0.4940 -0.6061  0.1201
  150OSM    C1516585   3.080   4.249   3.912 -0.4215  0.2949  0.0785
  150OSM   H15A16586   3.005   4.201   3.851  3.3950 -3.2470 -2.3629
  150OSM   H15B16587   3.055   4.227   4.015  1.1802 -4.5234 -0.2907
  150OSM   H15C16588   3.163   4.183   3.892 -0.3817 -0.0710  1.3375
  150OSM    C1416589   3.095   4.444   3.752 -0.6966 -0.3725 -0.3490
  150OSM   H14A16590   3.002   4.406   3.713 -1.2213 -0.0121  0.5209
  150OSM   H14B16591   3.174   4.409   3.688  1.3536  3.2479 -0.0909
  150OSM   H14C16592   3.090   4.552   3.744  2.6069 -0.0792  0.1890
  150OSM    C1316593   3.022   4.474   3.981  0.1318  0.8161  0.1732
  150OSM   H13A16594   3.042   4.580   3.983 -1.5725  1.1705 -0.0267
  150OSM   H13B16595   3.022   4.434   4.082 -0.4954 -0.6193 -0.3615
  150OSM   H13C16596   2.920   4.473   3.944  0.2155  2.4077 -0.1502
  150OSM    C1216597   3.261   4.421   3.925 -0.2779 -0.2314  0.0613
  150OSM   H12A16598   3.258   4.399   4.031 -1.3666  1.7224  0.4805
  150OSM   H12B16599   3.284   4.527   3.923  0.0109 -0.2968 -0.0331
  150OSM    C1116600   3.375   4.339   3.847 -0.4487  0.2901 -0.1279
  150OSM   H11A16601   3.472   4.374   3.888 -0.5191  0.0164  0.2754
  150OSM   H11B16602   3.368   4.380   3.744  0.6288 -1.6759 -1.0348
  150OSM      P16603   3.445   4.121   3.745  0.1183 -0.2151  0.1650
  150OSM    O1316604   3.346   4.044   3.662  0.1106 -0.0640 -0.0785
  150OSM    O1416605   3.541   4.214   3.684 -0.0428  0.0161 -0.5316
  150OSM    O1116606   3.520   4.010   3.827  0.1314 -0.1243 -0.2975
  150OSM    O1216607   3.374   4.197   3.856  0.4943 -0.7300  0.1292
  150OSM    C1S16608   3.629   4.050   3.914 -0.6497  0.7718  0.0352
  150OSM    H1S16609   3.688   4.136   3.874  1.4138  0.7325  2.7840
  150OSM    H1T16610   3.707   3.973   3.902  1.7998  3.0075  0.6417
  150OSM     NF16611   3.704   4.160   4.123 -0.0017 -0.1240  0.2879
  150OSM    HNF16612   3.766   4.110   4.182 -0.6869 -1.8182 -0.3743
  150OSM    C2S16613   3.596   4.090   4.065  0.2303 -0.4364  0.5089
  150OSM    H2S16614   3.518   4.169   4.057  2.0890  1.4950  0.6175
  150OSM    C3S16615   3.534   3.965   4.146  0.1325  0.8796 -0.0634
  150OSM    H3S16616   3.618   3.897   4.171 -0.4353 -0.1383 -0.8306
  150OSM     O316617   3.440   3.880   4.074 -0.2131  0.0009 -0.1423
  150OSM    HO316618   3.457   3.895   3.981  0.2266 -2.5021 -0.5373
  150OSM    C4S16619   3.465   4.002   4.276  0.7306  0.7946  0.0152
  150OSM    H4S16620   3.362   4.032   4.254  0.7257  1.8659  1.3925
  150OSM    C5S16621   3.529   4.008   4.396  0.5168 -0.7775 -0.2769
  150OSM    H5S16622   3.637   3.995   4.406  0.7702  0.6708 -0.9419
  150OSM    C6S16623   3.459   4.067   4.516  0.4468 -0.3737 -0.4370
  150OSM    H6S16624   3.351   4.042   4.513  0.2778  0.1390  0.8868
  150OSM    H6T16625   3.463   4.177   4.503  1.6217 -0.4690 -0.9980
  150OSM    C7S16626   3.512   4.025   4.653 -0.1791  0.3796 -0.6395
  150OSM    H7S16627   3.622   4.040   4.659 -0.2270  0.1028  3.2331
  150OSM    H7T16628   3.501   3.915   4.645  0.5410  0.3937 -2.4382
  150OSM    C8S16629   3.434   4.086   4.768  0.0467 -0.5585 -0.8494
  150OSM    H8S16630   3.328   4.058   4.751 -0.3442  0.5351 -0.3194
  150OSM    H8T16631   3.445   4.196   4.781 -0.8729 -0.6381  0.8950
  150OSM    C9S16632   3.480   4.020   4.900 -0.2128  0.3616  0.7071
  150OSM    H9S16633   3.591   4.019   4.894 -0.0935  3.7974  0.3684
  150OSM    H9T16634   3.435   3.919   4.892  0.8358  0.0152 -1.4157
  150OSM   C10S16635   3.447   4.102   5.023  0.4103  0.2016  0.4541
  150OSM   H10S16636   3.338   4.124   5.022  0.4357  0.3343  0.7301
  150OSM   H10T16637   3.504   4.198   5.019  0.8982 -0.0687  0.8085
  150OSM   C11S16638   3.470   4.033   5.154 -0.0709 -0.5984 -0.0046
  150OSM   H11S16639   3.578   4.024   5.179 -0.2979 -0.1724  1.1761
  150OSM   H11T16640   3.423   3.932   5.153 -0.2019 -0.6133  2.2277
  150OSM   C12S16641   3.409   4.114   5.274 -0.1576  0.2275  0.0907
  150OSM   H12S16642   3.299   4.100   5.265 -0.0079 -0.4882 -0.7211
  150OSM   H12T16643   3.437   4.221   5.283  2.3302 -0.2067 -1.5475
  150OSM   C13S16644   3.466   4.061   5.402 -0.0884 -0.2425 -0.1805
  150OSM   H13S16645   3.575   4.047   5.382 -0.4260 -2.1457 -0.9639
  150OSM   H13T16646   3.409   3.967   5.416  1.5036 -1.0375  1.3730
  150OSM   C14S16647   3.428   4.157   5.521  0.1052  0.5396  0.2435
  150OSM   H14S16648   3.317   4.154   5.528  0.1304  2.2471  2.5359
  150OSM   H14T16649   3.459   4.262   5.506  0.2005  0.5941  0.7831
  150OSM   C15S16650   3.483   4.112   5.656 -0.1308  0.3777 -0.8066
  150OSM   H15S16651   3.450   4.198   5.719  0.6406  1.2728 -1.5846
  150OSM   H15T16652   3.594   4.117   5.646 -0.0910 -0.2777 -0.7074
  150OSM   C16S16653   3.430   3.977   5.715  0.3397  0.1028  0.4558
  150OSM   H16S16654   3.486   3.961   5.809 -0.4654  0.3928  1.0019
  150OSM   H16T16655   3.450   3.886   5.655 -1.0948 -0.0913  0.2229
  150OSM   C17S16656   3.285   3.985   5.763 -0.0140 -0.1460 -0.1823
  150OSM   H17S16657   3.245   3.884   5.787  1.5215 -1.1524 -1.6538
  150OSM   H17T16658   3.222   4.020   5.678  1.1516  2.1242 -0.1814
  150OSM   C18S16659   3.269   4.077   5.885  0.4438  0.4018 -0.2989
  150OSM   H18S16660   3.346   4.062   5.963 -1.9139 -0.7176  1.9345
  150OSM   H18T16661   3.170   4.055   5.930  1.8581 -0.3280  2.6848
  150OSM   H18U16662   3.264   4.183   5.852  2.5400 -0.2696 -3.2344
  150OSM    C1F16663   3.750   4.282   4.084  0.3674  0.0443 -0.8291
  150OSM     OF16664   3.702   4.339   3.988  0.0461  0.5282 -0.1912
  150OSM    C2F16665   3.855   4.344   4.165 -1.0977  0.0701  0.7234
  150OSM    H2F16666   3.838   4.454   4.157  2.7607  0.8290  0.9856
  150OSM    H2G16667   3.956   4.332   4.121 -1.3356  0.1130  0.1499
  150OSM    C3F16668   3.879   4.291   4.306  0.0161 -0.0269 -0.1402
  150OSM    H3F16669   3.976   4.336   4.336  0.5054 -0.1461 -1.4850
  150OSM    H3G16670   3.902   4.183   4.295 -0.6144 -0.5895  3.2276
  150OSM    C4F16671   3.786   4.327   4.416 -0.5773  0.1264 -0.3946
  150OSM    H4F16672   3.701   4.256   4.425 -0.1313 -0.5252 -1.2263
  150OSM    H4G16673   3.743   4.429   4.403 -0.2955  0.5929  1.8668
  150OSM    C5F16674   3.864   4.332   4.545  0.4690 -0.1996  0.1329
  150OSM    H5F16675   3.922   4.426   4.537 -0.1140  0.0645 -1.4003
  150OSM    H5G16676   3.929   4.241   4.552  1.4742  0.2134 -2.4364
  150OSM    C6F16677   3.774   4.323   4.674  0.2754 -0.4758 -0.3342
  150OSM    H6F16678   3.715   4.230   4.688 -1.2252  0.5335  0.3237
  150OSM    H6G16679   3.705   4.410   4.670 -0.4960 -1.0838 -0.2829
  150OSM    C7F16680   3.868   4.355   4.795 -0.7278 -0.0420  0.2299
  150OSM    H7F16681   3.908   4.457   4.774  1.4310 -1.1142 -1.2423
  150OSM    H7G16682   3.957   4.289   4.798 -0.3288  0.4818  0.1521
  150OSM    C8F16683   3.790   4.352   4.926 -0.4368  0.5980 -0.2737
  150OSM    H8F16684   3.749   4.250   4.945 -0.3951  0.7264  0.5144
  150OSM    H8G16685   3.706   4.423   4.919 -1.2601 -0.4456 -1.6229
  150OSM    C9F16686   3.879   4.412   5.034 -0.2388 -0.1283  0.3481
  150OSM    H9F16687   3.949   4.489   4.997 -2.5553  1.8432 -0.2706
  150OSM   C10F16688   3.889   4.368   5.157  0.0310 -0.3080 -0.4516
  150OSM   H10F16689   3.952   4.421   5.230 -0.5248  1.5532 -1.2433
  150OSM   C11F16690   3.810   4.257   5.218 -0.0086 -0.8535  0.3516
  150OSM   H11F16691   3.783   4.179   5.144 -1.2717  1.4664 -1.7769
  150OSM   H11G16692   3.718   4.304   5.260 -0.2433 -0.3390 -0.7156
  150OSM   C12F16693   3.884   4.195   5.339 -0.0134  0.1016 -0.4317
  150OSM   H12F16694   3.977   4.139   5.315 -0.2062 -0.5269  0.2803
  150OSM   H12G16695   3.816   4.115   5.374  3.6218 -3.7819 -1.3342
  150OSM   C13F16696   3.904   4.292   5.446 -0.4089 -0.0350 -0.1602
  150OSM   H13F16697   3.819   4.363   5.447  1.6554  2.6872 -1.7292
  150OSM   H13G16698   3.983   4.368   5.427  0.7392 -0.8922  1.0954
  150OSM   C14F16699   3.923   4.227   5.580 -0.2474 -0.5811  0.4175
  150OSM   H14F16700   3.992   4.141   5.564 -1.4600 -1.4849 -0.1806
  150OSM   H14G16701   3.828   4.180   5.615 -1.0534  0.9297  0.3602
  150OSM   C15F16702   3.968   4.310   5.695 -0.7069  0.1752  0.6305
  150OSM   H15F16703   4.077   4.299   5.709 -0.6934 -1.6134 -0.5048
  150OSM   H15G16704   3.929   4.290   5.797  1.1338  3.4093  2.1378
  150OSM   C16F16705   3.937   4.457   5.678 -0.4944  0.0476 -0.2703
  150OSM   H16F16706   3.829   4.460   5.652 -0.3877  1.5280 -0.6174
  150OSM   H16G16707   3.995   4.503   5.594  0.5347  0.7397  0.7796
  150OSM   C17F16708   3.959   4.546   5.794 -0.4554 -0.0509 -0.1623
  150OSM   H17F16709   4.067   4.536   5.818 -0.6134 -0.1203  0.5394
  150OSM   H17G16710   3.906   4.509   5.884 -2.0607  1.6154 -0.3468
  150OSM   C18F16711   3.910   4.689   5.759  0.3371  0.2305 -0.3283
  150OSM   H18F16712   3.972   4.725   5.674  0.3102  0.1445 -0.3839
  150OSM   H18G16713   3.930   4.756   5.846 -1.3376  0.7761 -0.3326
  150OSM   H18H16714   3.805   4.695   5.722 -0.6826 -2.2817  1.8942
  151OSM      N16715   0.468   5.707   3.434  0.0388  0.0250  0.2289
  151OSM    C1516716   0.509   5.837   3.369 -0.2371  0.1072  0.1577
  151OSM   H15A16717   0.431   5.911   3.379  1.3240  2.0526 -1.3609
  151OSM   H15B16718   0.537   5.834   3.265  1.0590  1.7961  0.4107
  151OSM   H15C16719   0.592   5.890   3.413  1.4979  1.3896 -4.1309
  151OSM    C1416720   0.397   5.752   3.558 -0.2246 -0.4681  0.3216
  151OSM   H14A16721   0.323   5.828   3.539  2.2992  2.2836  0.7801
  151OSM   H14B16722   0.471   5.805   3.616 -1.9277  1.0437  1.1831
  151OSM   H14C16723   0.354   5.663   3.601  0.2114 -0.8791 -0.0693
  151OSM    C1316724   0.368   5.652   3.345  0.6115 -0.0351 -0.1629
  151OSM   H13A16725   0.402   5.661   3.242  1.2429 -1.0027 -0.0574
  151OSM   H13B16726   0.276   5.708   3.336 -0.0216 -1.2441 -2.0002
  151OSM   H13C16727   0.347   5.547   3.360  0.4626  0.1278  0.8153
  151OSM    C1216728   0.586   5.616   3.447 -0.2809  0.1276 -0.2529
  151OSM   H12A16729   0.677   5.673   3.462  0.1402 -0.0919 -1.7360
  151OSM   H12B16730   0.614   5.577   3.350 -2.2622  2.8370 -2.0902
  151OSM    C1116731   0.569   5.491   3.533  0.4639  0.0573  0.1582
  151OSM   H11A16732   0.518   5.527   3.625  1.4731  0.9508  0.3861
  151OSM   H11B16733   0.670   5.453   3.559  0.8756  1.1034  0.1303
  151OSM      P16734   0.423   5.271   3.550 -0.2769 -0.0401 -0.1328
  151OSM    O1316735   0.275   5.278   3.549 -0.3879 -0.1845  0.4083
  151OSM    O1416736   0.481   5.143   3.495 -0.0330  0.3858 -0.4317
  151OSM    O1116737   0.468   5.297   3.699  0.2421  0.5151  0.2780
  151OSM    O1216738   0.492   5.389   3.463 -0.6263  0.6231 -0.3110
  151OSM    C1S16739   0.454   5.188   3.801 -0.2972  0.4401 -0.0407
  151OSM    H1S16740   0.514   5.102   3.766 -0.6939  0.6943 -1.3981
  151OSM    H1T16741   0.346   5.166   3.810  0.0648 -1.0625  0.9199
  151OSM     NF16742   0.514   5.104   4.018  0.4416  0.6797 -0.3474
  151OSM    HNF16743   0.460   5.103   4.102  0.2039 -0.8813 -0.4963
  151OSM    C2S16744   0.507   5.226   3.940 -0.3862  0.1150 -0.4349
  151OSM    H2S16745   0.608   5.271   3.936  0.2409 -1.1638  0.4479
  151OSM    C3S16746   0.407   5.331   4.002  0.4611 -0.1192  0.2361
  151OSM    H3S16747   0.313   5.273   4.015 -0.3755  0.9822 -0.7120
  151OSM     O316748   0.387   5.440   3.916  0.5953  0.3538 -0.1430
  151OSM    HO316749   0.425   5.412   3.833  1.7435  1.5114 -0.0387
  151OSM    C4S16750   0.470   5.388   4.129 -0.1868  0.6859  0.1940
  151OSM    H4S16751   0.551   5.460   4.114  1.3028 -0.4570  2.3203
  151OSM    C5S16752   0.441   5.339   4.252  0.2471  0.3518 -0.1518
  151OSM    H5S16753   0.379   5.248   4.260  1.6542 -0.7729 -1.4186
  151OSM    C6S16754   0.515   5.389   4.384  0.4682  0.2623  0.2297
  151OSM    H6S16755   0.439   5.455   4.431 -1.7848 -1.0580 -1.3169
  151OSM    H6T16756   0.602   5.456   4.370  0.4275  0.2747  0.0220
  151OSM    C7S16757   0.534   5.268   4.478 -0.3411  0.1705  0.5613
  151OSM    H7S16758   0.606   5.208   4.418 -0.5552 -0.0794  0.5527
  151OSM    H7T16759   0.442   5.215   4.512 -0.3250 -0.3131 -0.1125
  151OSM    C8S16760   0.612   5.314   4.601  0.4468  0.7334  0.3286
  151OSM    H8S16761   0.547   5.385   4.657 -2.2322  0.2680 -1.9773
  151OSM    H8T16762   0.696   5.379   4.570  1.0637 -0.5406 -0.7985
  151OSM    C9S16763   0.657   5.200   4.688  0.3404 -0.6300 -0.4395
  151OSM    H9S16764   0.737   5.147   4.633  0.3368 -0.0660 -1.0007
  151OSM    H9T16765   0.569   5.134   4.709 -0.5096  0.5749 -0.0885
  151OSM   C10S16766   0.711   5.270   4.819  0.5137 -0.0627  0.5032
  151OSM   H10S16767   0.640   5.350   4.849  0.0572 -0.8238  1.5188
  151OSM   H10T16768   0.803   5.329   4.801 -0.7129  1.5315 -0.9386
  151OSM   C11S16769   0.747   5.172   4.934 -0.0205  0.0882 -0.0544
  151OSM   H11S16770   0.803   5.090   4.886  3.0446  0.8633  1.8909
  151OSM   H11T16771   0.645   5.135   4.959 -0.0280  0.6876  0.8658
  151OSM   C12S16772   0.808   5.225   5.068  0.0696  0.5387  0.5157
  151OSM   H12S16773   0.744   5.310   5.101 -1.5037 -0.9383  1.4028
  151OSM   H12T16774   0.906   5.272   5.045  0.2063 -0.2831 -0.6436
  151OSM   C13S16775   0.834   5.122   5.179 -0.4031 -0.6906  0.0121
  151OSM   H13S16776   0.917   5.059   5.141  0.9659  1.4461 -0.7280
  151OSM   H13T16777   0.735   5.076   5.200 -1.4821  1.6054  0.2449
  151OSM   C14S16778   0.864   5.177   5.321 -0.1899 -0.3958 -0.7867
  151OSM   H14S16779   0.953   5.243   5.325 -0.4363 -0.1154  0.9978
  151OSM   H14T16780   0.879   5.092   5.392  0.9028  0.2463 -0.2227
  151OSM   C15S16781   0.749   5.254   5.389  0.6133 -0.2455  0.1895
  151OSM   H15S16782   0.659   5.189   5.394 -0.4108  1.2088  1.8248
  151OSM   H15T16783   0.707   5.338   5.330 -1.4349 -1.5199 -0.2770
  151OSM   C16S16784   0.775   5.294   5.536  0.6953 -0.5156  0.6951
  151OSM   H16S16785   0.825   5.393   5.546  1.0017 -0.4705 -1.0411
  151OSM   H16T16786   0.833   5.215   5.589 -0.0213 -1.4453  0.1360
  151OSM   C17S16787   0.649   5.310   5.611  1.1139 -0.3205 -0.4108
  151OSM   H17S16788   0.585   5.224   5.579  1.5652 -0.1593 -1.8258
  151OSM   H17T16789   0.592   5.399   5.576 -0.9267 -0.6141  1.8839
  151OSM   C18S16790   0.661   5.301   5.763  0.5752 -0.5921 -0.3061
  151OSM   H18S16791   0.560   5.292   5.807 -0.8742  2.2323 -2.6159
  151OSM   H18T16792   0.710   5.386   5.815 -0.4252 -1.5118  2.2435
  151OSM   H18U16793   0.726   5.212   5.777  1.5140  0.2060  0.5889
  151OSM    C1F16794   0.602   5.011   3.998  0.6318  0.3971  0.4942
  151OSM     OF16795   0.693   5.036   3.923  0.0960 -0.2039  0.2640
  151OSM    C2F16796   0.585   4.892   4.088  0.4077 -0.1165 -0.1767
  151OSM    H2F16797   0.662   4.818   4.057  1.0903  0.1705  0.7821
  151OSM    H2G16798   0.482   4.851   4.083  0.4615 -0.3136  0.3117
  151OSM    C3F16799   0.609   4.940   4.234 -0.2204 -0.5723  0.7102
  151OSM    H3F16800   0.529   5.011   4.262  0.5663  0.4991  0.3146
  151OSM    H3G16801   0.706   4.995   4.235 -1.1514  1.1350  1.5501
  151OSM    C4F16802   0.606   4.824   4.336  0.5720  0.6084  0.1076
  151OSM    H4F16803   0.692   4.759   4.309  0.5485  1.9340 -3.7359
  151OSM    H4G16804   0.515   4.762   4.318 -0.1202  2.0154 -1.3967
  151OSM    C5F16805   0.609   4.877   4.481  0.0323 -0.2279  0.0280
  151OSM    H5F16806   0.535   4.958   4.499 -1.2518 -1.1088 -1.0387
  151OSM    H5G16807   0.707   4.926   4.498 -0.2565 -0.4356  2.9335
  151OSM    C6F16808   0.598   4.770   4.591  0.3253 -0.4069  0.4942
  151OSM    H6F16809   0.666   4.686   4.563  1.7718  0.8208  0.2323
  151OSM    H6G16810   0.493   4.733   4.600  0.2560  0.0275  1.5515
  151OSM    C7F16811   0.642   4.821   4.724  0.2657 -0.5162  0.0735
  151OSM    H7F16812   0.565   4.889   4.767  0.0315 -0.8930  0.2585
  151OSM    H7G16813   0.737   4.877   4.713 -1.5393  3.2039  1.7288
  151OSM    C8F16814   0.649   4.713   4.834 -0.0804  0.7362  0.3985
  151OSM    H8F16815   0.719   4.635   4.796 -1.0227  0.6662 -1.3005
  151OSM    H8G16816   0.554   4.656   4.841  0.0728  0.0101 -2.2695
  151OSM    C9F16817   0.669   4.774   4.965 -0.0841  0.5401 -0.7571
  151OSM    H9F16818   0.580   4.835   4.988  0.2473  0.8985 -0.3895
  151OSM   C10F16819   0.770   4.775   5.049 -0.1804  0.3622 -1.1809
  151OSM   H10F16820   0.769   4.843   5.135  0.3417  1.7365 -2.2234
  151OSM   C11F16821   0.892   4.685   5.035 -0.6382 -0.5935  0.0649
  151OSM   H11F16822   0.877   4.636   4.937  0.0191  1.4128 -1.0933
  151OSM   H11G16823   0.898   4.609   5.115 -0.2819 -0.5982  0.0316
  151OSM   C12F16824   1.030   4.756   5.056 -0.2563 -0.0880 -0.0895
  151OSM   H12F16825   1.092   4.690   5.121  0.5486 -2.2534 -2.8595
  151OSM   H12G16826   1.003   4.841   5.122  2.2994 -1.0224  2.3446
  151OSM   C13F16827   1.113   4.790   4.931  0.4981 -0.2047 -0.2129
  151OSM   H13F16828   1.157   4.703   4.877  0.3881  0.9676 -2.3165
  151OSM   H13G16829   1.193   4.859   4.967 -1.1420  2.7382 -1.8676
  151OSM   C14F16830   1.032   4.875   4.834  0.3027  0.4457  0.5210
  151OSM   H14F16831   0.992   4.962   4.889 -0.2602 -0.3659  1.4294
  151OSM   H14G16832   0.948   4.817   4.789  0.3618  1.3110 -0.7574
  151OSM   C15F16833   1.114   4.902   4.707  0.3838  0.4959  0.4408
  151OSM   H15F16834   1.189   4.821   4.691 -0.3353 -0.3890  1.3892
  151OSM   H15G16835   1.174   4.993   4.728 -2.1583  2.0660  1.2778
  151OSM   C16F16836   1.027   4.933   4.585 -0.2611  0.5868 -0.5536
  151OSM   H16F16837   0.960   5.020   4.600 -2.1916 -0.9517  0.0131
  151OSM   H16G16838   0.949   4.855   4.579 -2.4787  2.5813  0.6137
  151OSM   C17F16839   1.103   4.928   4.449  0.1615 -0.0370  0.5401
  151OSM   H17F16840   1.186   4.854   4.448 -0.2247 -0.5021 -1.9999
  151OSM   H17G16841   1.159   5.024   4.443  0.2109 -0.1211 -0.4787
  151OSM   C18F16842   1.009   4.902   4.327  0.3016  0.0652  0.0875
  151OSM   H18F16843   0.975   4.798   4.347 -0.1323  0.3764  1.0081
  151OSM   H18G16844   1.048   4.916   4.224  1.5314  2.8978  0.8594
  151OSM   H18H16845   0.918   4.964   4.341  0.5847  0.5623 -0.2606
  152OSM      N16846   4.648   5.793   3.589  0.3881 -0.2446 -0.2591
  152OSM    C1516847   4.567   5.687   3.517  0.2985  0.2834  0.1227
  152OSM   H15A16848   4.537   5.618   3.595  2.1002  0.1986  0.8037
  152OSM   H15B16849   4.621   5.622   3.450 -1.5376 -0.3177 -0.8403
  152OSM   H15C16850   4.473   5.726   3.481 -0.3559 -0.2368  1.2135
  152OSM    C1416851   4.725   5.729   3.698 -0.1149 -0.2987 -0.2624
  152OSM   H14A16852   4.786   5.800   3.753 -1.9852  0.6360  0.6971
  152OSM   H14B16853   4.792   5.653   3.661  1.8684  1.4116 -0.4181
  152OSM   H14C16854   4.661   5.698   3.779  1.2832 -1.0718  0.6002
  152OSM    C1316855   4.744   5.859   3.499  0.5456  0.1234 -0.3556
  152OSM   H13A16856   4.809   5.791   3.447  1.4120  0.8882 -0.2917
  152OSM   H13B16857   4.791   5.941   3.551  0.4852  1.3725 -2.1922
  152OSM   H13C16858   4.689   5.897   3.415 -1.9571 -1.3199  0.5249
  152OSM    C1216859   4.558   5.902   3.643 -0.0826  0.6921 -0.2587
  152OSM   H12A16860   4.618   5.988   3.668  2.5151 -0.3137 -2.5032
  152OSM   H12B16861   4.519   5.865   3.737 -0.0196 -0.7137 -0.7681
  152OSM    C1116862   4.436   5.952   3.569  0.6055 -0.4044 -0.2781
  152OSM   H11A16863   4.462   5.973   3.463 -0.9172  1.5041 -0.3362
  152OSM   H11B16864   4.397   6.047   3.612 -0.7396 -1.5214  1.0754
  152OSM      P16865   4.221   5.860   3.680  0.1609  0.0271  0.0112
  152OSM    O1316866   4.128   5.969   3.643  0.6684 -0.5151 -0.0463
  152OSM    O1416867   4.160   5.727   3.686  0.2040  0.0341  0.1204
  152OSM    O1116868   4.305   5.887   3.811 -0.3089  0.0975 -0.3201
  152OSM    O1216869   4.338   5.850   3.574  0.1856  0.1246 -0.2235
  152OSM    C1S16870   4.242   5.855   3.939 -0.4625  0.6145 -0.2320
  152OSM    H1S16871   4.203   5.751   3.931  0.4486  0.1490  0.9562
  152OSM    H1T16872   4.155   5.921   3.960  0.1971  0.9089  1.8391
  152OSM     NF16873   4.269   5.817   4.175 -0.9813 -0.0082  0.1020
  152OSM    HNF16874   4.204   5.880   4.215  0.7284  0.9088  1.5490
  152OSM    C2S16875   4.339   5.859   4.050  0.5076  0.5881 -0.2683
  152OSM    H2S16876   4.427   5.792   4.039  1.2001  1.2458  0.9923
  152OSM    C3S16877   4.400   6.000   4.059  0.3684 -0.3374  0.8509
  152OSM    H3S16878   4.319   6.075   4.049 -1.1472 -1.9250  0.8552
  152OSM     O316879   4.492   6.014   3.951 -0.6558  0.6745  0.6273
  152OSM    HO316880   4.454   5.948   3.894 -0.1521 -0.7088  1.8356
  152OSM    C4S16881   4.481   6.038   4.179 -0.1960 -0.4924  0.2462
  152OSM    H4S16882   4.553   5.960   4.208  1.5585  1.0697  0.3518
  152OSM    C5S16883   4.462   6.140   4.258  0.3928 -0.2543 -0.4718
  152OSM    H5S16884   4.375   6.201   4.227  1.1039  1.2402  0.3758
  152OSM    C6S16885   4.520   6.182   4.385 -0.5774 -0.2611  0.7308
  152OSM    H6S16886   4.508   6.293   4.386 -2.0706 -0.3361 -1.7694
  152OSM    H6T16887   4.629   6.163   4.380 -0.2698  1.5448 -0.2712
  152OSM    C7S16888   4.458   6.110   4.501 -0.2096  0.0231 -0.2722
  152OSM    H7S16889   4.474   6.000   4.502 -1.5679 -0.2110  0.8896
  152OSM    H7T16890   4.347   6.122   4.509 -0.2607 -0.6839  0.1456
  152OSM    C8S16891   4.525   6.162   4.629  0.6121 -0.6294 -1.2617
  152OSM    H8S16892   4.483   6.262   4.654 -1.4064 -1.6151 -0.5792
  152OSM    H8T16893   4.635   6.178   4.622  0.6672  1.2392  1.8602
  152OSM    C9S16894   4.493   6.073   4.754  0.6385  0.5471  0.1539
  152OSM    H9S16895   4.520   5.966   4.737  2.4578  1.0644 -0.3885
  152OSM    H9T16896   4.383   6.063   4.763  0.5643  0.5788 -0.6475
  152OSM   C10S16897   4.551   6.120   4.883 -0.6862  0.1185  0.0103
  152OSM   H10S16898   4.527   6.225   4.910  1.6072  0.7261 -0.0489
  152OSM   H10T16899   4.660   6.137   4.868 -0.9850  0.8634 -1.4638
  152OSM   C11S16900   4.529   6.039   5.018 -0.6968  0.5332 -0.0213
  152OSM   H11S16901   4.548   5.932   4.997  0.9762  0.4674  1.5309
  152OSM   H11T16902   4.423   6.051   5.049 -0.4491 -0.6793  1.4138
  152OSM   C12S16903   4.623   6.079   5.129 -0.4070 -0.0994 -0.5263
  152OSM   H12S16904   4.599   6.187   5.139 -2.7106 -0.5449 -0.7173
  152OSM   H12T16905   4.729   6.064   5.098  0.0102 -2.2984  1.7096
  152OSM   C13S16906   4.590   6.001   5.257  0.2080  0.7326  0.1804
  152OSM   H13S16907   4.603   5.891   5.251  0.6915  0.8131 -0.3700
  152OSM   H13T16908   4.481   6.017   5.272  0.3424  0.3152  1.7695
  152OSM   C14S16909   4.675   6.049   5.373 -0.2899  0.3751 -0.8494
  152OSM   H14S16910   4.660   6.157   5.395 -0.7985  0.1836 -0.2193
  152OSM   H14T16911   4.780   6.024   5.350  0.6701  0.5303  2.8239
  152OSM   C15S16912   4.624   5.970   5.497 -0.0562  0.4563 -0.6244
  152OSM   H15S16913   4.635   5.862   5.475  1.1676  0.5134 -0.3610
  152OSM   H15T16914   4.517   5.977   5.524  0.2495  1.5653  0.3768
  152OSM   C16S16915   4.705   5.986   5.626 -0.4985 -0.7042 -0.1996
  152OSM   H16S16916   4.753   6.086   5.616 -1.1285 -0.0055  2.7737
  152OSM   H16T16917   4.773   5.899   5.640 -2.1283 -2.0353 -0.2340
  152OSM   C17S16918   4.600   5.997   5.742  0.1639  0.4593 -0.3316
  152OSM   H17S16919   4.541   5.903   5.750 -1.5697  1.4510 -1.0699
  152OSM   H17T16920   4.516   6.068   5.727 -1.8017 -1.3786  1.3556
  152OSM   C18S16921   4.669   6.027   5.881  0.3022  0.4494  0.4778
  152OSM   H18S16922   4.724   5.936   5.912  1.2738  0.8474 -0.0197
  152OSM   H18T16923   4.582   6.042   5.948 -0.5783 -0.0636 -0.5264
  152OSM   H18U16924   4.733   6.118   5.876 -0.5039  1.1388  1.8533
  152OSM    C1F16925   4.271   5.684   4.209 -0.1012 -0.9252 -0.6207
  152OSM     OF16926   4.321   5.602   4.134  0.6283  0.3106  0.0735
  152OSM    C2F16927   4.199   5.640   4.340 -1.0597 -0.2159  0.3426
  152OSM    H2F16928   4.264   5.554   4.368  0.3260  0.7165  0.1047
  152OSM    H2G16929   4.095   5.605   4.325 -0.6467 -1.6369  0.6422
  152OSM    C3F16930   4.210   5.754   4.452  0.0337  0.2225  1.1914
  152OSM    H3F16931   4.125   5.824   4.436  0.9121  1.4445  1.6923
  152OSM    H3G16932   4.305   5.811   4.440 -0.7196  1.1201 -0.9348
  152OSM    C4F16933   4.203   5.707   4.592  0.2735  0.2823  0.8836
  152OSM    H4F16934   4.291   5.642   4.610  0.7077 -0.2193 -2.3774
  152OSM    H4G16935   4.107   5.653   4.607 -1.4526  3.0246  0.5400
  152OSM    C5F16936   4.195   5.811   4.703 -0.6819 -0.2076  0.6142
  152OSM    H5F16937   4.101   5.868   4.689 -0.9094  0.1143  3.0564
  152OSM    H5G16938   4.289   5.869   4.702 -0.4823 -0.5272  1.0389
  152OSM    C6F16939   4.191   5.751   4.844  0.0843  0.4730  0.6551
  152OSM    H6F16940   4.284   5.690   4.854 -0.1421 -0.0810 -0.4995
  152OSM    H6G16941   4.097   5.693   4.851  1.0714 -1.3982 -0.7076
  152OSM    C7F16942   4.171   5.858   4.951  0.5008 -0.0116  0.1512
  152OSM    H7F16943   4.090   5.931   4.929  2.3206  1.7637 -0.9932
  152OSM    H7G16944   4.270   5.907   4.949  1.5321 -1.9499  1.0271
  152OSM    C8F16945   4.156   5.786   5.078  0.2599 -0.9441 -0.7763
  152OSM    H8F16946   4.250   5.733   5.106  0.9921 -0.2925 -1.9490
  152OSM    H8G16947   4.078   5.709   5.059 -1.9474  1.0619 -0.4080
  152OSM    C9F16948   4.109   5.877   5.190 -0.1833  0.1225  0.7090
  152OSM    H9F16949   4.049   5.964   5.160  1.2127  0.5110 -1.1665
  152OSM   C10F16950   4.150   5.870   5.312 -0.4070 -0.3199 -0.5222
  152OSM   H10F16951   4.119   5.943   5.390 -1.5632 -0.4598 -0.8383
  152OSM   C11F16952   4.239   5.758   5.364  0.0341 -0.2926  0.2323
  152OSM   H11F16953   4.338   5.770   5.317 -0.0696 -1.2056 -0.2326
  152OSM   H11G16954   4.199   5.660   5.330 -1.0082  0.0080  0.5360
  152OSM   C12F16955   4.261   5.754   5.521  0.7186 -0.3164 -0.0973
  152OSM   H12F16956   4.305   5.848   5.560  1.5431 -0.5286 -0.4945
  152OSM   H12G16957   4.326   5.666   5.542 -2.0068 -1.9569  2.2488
  152OSM   C13F16958   4.144   5.737   5.620 -0.2979 -0.6557 -0.1284
  152OSM   H13F16959   4.087   5.649   5.585  1.6279 -1.3685 -1.6678
  152OSM   H13G16960   4.076   5.824   5.612  1.0224  0.4429  0.2554
  152OSM   C14F16961   4.201   5.733   5.762  0.3325  0.7338  0.4052
  152OSM   H14F16962   4.265   5.821   5.787  2.5702 -0.2090 -1.6122
  152OSM   H14G16963   4.267   5.643   5.763 -0.3722  0.1300 -1.9276
  152OSM   C15F16964   4.088   5.723   5.871  0.5627  0.0499  0.1314
  152OSM   H15F16965   4.008   5.648   5.857  0.2056  0.5397 -0.5076
  152OSM   H15G16966   4.033   5.819   5.871  1.3392  0.5180 -0.8122
  152OSM   C16F16967   4.140   5.712   6.016 -0.4138  0.1914  0.1055
  152OSM   H16F16968   4.216   5.787   6.046  1.4536 -1.8753  0.7952
  152OSM   H16G16969   4.189   5.615   6.034 -2.0910 -0.3038  2.6626
  152OSM   C17F16970   4.022   5.710   6.112  0.1256 -0.4911 -1.0612
  152OSM   H17F16971   3.947   5.637   6.075  1.3882 -1.5721 -1.5857
  152OSM   H17G16972   3.967   5.805   6.094  0.2708 -0.4230 -1.1509
  152OSM   C18F16973   4.049   5.706   6.260 -0.6970  0.1441 -0.1818
  152OSM   H18F16974   4.119   5.789   6.285  2.3150 -1.8050 -1.5028
  152OSM   H18G16975   4.107   5.614   6.285 -0.5944 -0.6765 -3.0356
  152OSM   H18H16976   3.969   5.704   6.336  0.0164  0.4316  0.5921
  153OSM      N16977   1.475   6.168   3.749 -0.2827 -0.0468 -0.6826
  153OSM    C1516978   1.325   6.174   3.727  0.1024  0.8006 -0.5296
  153OSM   H15A16979   1.282   6.092   3.784 -0.0948 -0.0186 -1.8117
  153OSM   H15B16980   1.292   6.166   3.625  0.9738 -2.7775 -0.6756
  153OSM   H15C16981   1.289   6.263   3.777  1.8614  0.0887  2.2515
  153OSM    C1416982   1.488   6.165   3.898  0.2795 -0.5550 -0.7859
  153OSM   H14A16983   1.591   6.187   3.925 -0.3847  1.9928 -0.0644
  153OSM   H14B16984   1.448   6.077   3.946 -3.6190  0.5260 -1.7539
  153OSM   H14C16985   1.440   6.248   3.947  0.4414 -2.7730  3.6777
  153OSM    C1316986   1.513   6.037   3.684 -0.1577  0.2075  0.3211
  153OSM   H13A16987   1.458   5.963   3.740  0.4696  0.2887  1.0575
  153OSM   H13B16988   1.615   6.010   3.705  0.6321  0.2114 -2.9971
  153OSM   H13C16989   1.482   6.035   3.581  0.4757  2.1462  0.0526
  153OSM    C1216990   1.543   6.280   3.695  0.4440 -0.6153  0.0246
  153OSM   H12A16991   1.501   6.296   3.598 -1.7028  0.2426  1.0361
  153OSM   H12B16992   1.648   6.259   3.680  0.7096  2.3247 -3.6079
  153OSM    C1116993   1.532   6.417   3.770  0.8125  0.2743 -0.0912
  153OSM   H11A16994   1.594   6.497   3.727  0.1422  1.1928  0.6046
  153OSM   H11B16995   1.580   6.405   3.870  1.0945  3.2561  0.2169
  153OSM      P16996   1.334   6.520   3.916 -0.1558  0.2168  0.0086
  153OSM    O1316997   1.290   6.662   3.888 -0.5859  0.2362  0.7794
  153OSM    O1416998   1.239   6.427   3.975  0.8502 -0.1042 -0.0814
  153OSM    O1116999   1.461   6.534   4.009  0.2405  0.2086  0.1167
  153OSM    O1217000   1.394   6.460   3.782  0.1501  0.6401 -0.5030
  153OSM    C1S17001   1.451   6.608   4.123 -0.1860  0.1252  0.6535
  153OSM    H1S17002   1.365   6.677   4.114 -0.6991 -0.6183 -0.3775
  153OSM    H1T17003   1.548   6.662   4.130 -0.1399  0.2927 -0.9408
  153OSM     NF17004   1.411   6.594   4.360  0.3377  0.0305 -0.3149
  153OSM    HNF17005   1.479   6.606   4.431 -1.5161 -1.5288  1.8582
  153OSM    C2S17006   1.434   6.517   4.249  0.5642 -0.3514 -0.4151
  153OSM    H2S17007   1.347   6.449   4.238 -0.7037  0.9856  0.8893
  153OSM    C3S17008   1.562   6.431   4.262  0.2546  0.0174  1.4791
  153OSM    H3S17009   1.643   6.505   4.281  0.6886 -0.1467  0.3972
  153OSM     O317010   1.587   6.360   4.142 -0.6854 -0.4565  0.2437
  153OSM    HO317011   1.538   6.417   4.082 -0.1304  0.2626  0.4630
  153OSM    C4S17012   1.564   6.333   4.372  0.0698 -0.1350  0.0222
  153OSM    H4S17013   1.513   6.241   4.341 -0.4215 -0.1515  0.8338
  153OSM    C5S17014   1.599   6.360   4.497 -0.6817 -0.2222 -0.5093
  153OSM    H5S17015   1.624   6.464   4.522 -2.4061 -0.3044  1.8811
  153OSM    C6S17016   1.603   6.259   4.611 -0.2555  0.0488 -0.5910
  153OSM    H6S17017   1.710   6.241   4.635 -0.1057 -0.1278 -1.3718
  153OSM    H6T17018   1.557   6.164   4.576 -0.7721  0.0213  0.1337
  153OSM    C7S17019   1.524   6.301   4.738  0.7546 -0.6078  0.0443
  153OSM    H7S17020   1.474   6.214   4.785  0.3104  0.0744  0.8681
  153OSM    H7T17021   1.446   6.377   4.717  0.2096 -1.1156  0.2081
  153OSM    C8S17022   1.622   6.371   4.829  0.8222  0.0644  0.3017
  153OSM    H8S17023   1.619   6.481   4.810  2.2301  0.3004  1.2726
  153OSM    H8T17024   1.726   6.336   4.812  0.9485 -1.0903  2.8968
  153OSM    C9S17025   1.580   6.356   4.972  0.2138  0.1087  0.0018
  153OSM    H9S17026   1.488   6.410   5.003  0.4003 -1.0920  3.0587
  153OSM    H9T17027   1.654   6.410   5.035 -2.5390  0.6642  3.0759
  153OSM   C10S17028   1.580   6.209   5.023  0.4141 -0.0454 -0.4991
  153OSM   H10S17029   1.679   6.170   4.992  0.6281  0.9458 -1.0992
  153OSM   H10T17030   1.503   6.146   4.974  1.0335 -0.7292 -0.6175
  153OSM   C11S17031   1.572   6.198   5.182  0.0703 -0.4436  0.4895
  153OSM   H11S17032   1.468   6.208   5.219 -0.0660  0.4344 -0.0967
  153OSM   H11T17033   1.626   6.282   5.229  0.0006  0.2687 -0.6645
  153OSM   C12S17034   1.630   6.062   5.231  0.5443 -0.1399 -0.1052
  153OSM   H12S17035   1.737   6.089   5.217  0.1362  2.5303  1.1757
  153OSM   H12T17036   1.603   5.978   5.164 -2.0280 -0.7843  1.5760
  153OSM   C13S17037   1.600   6.032   5.381  0.7926 -0.5049  0.5859
  153OSM   H13S17038   1.629   5.928   5.404 -0.5203 -0.3431  3.3958
  153OSM   H13T17039   1.490   6.049   5.389  0.5735  0.2449 -2.5438
  153OSM   C14S17040   1.678   6.126   5.473  1.0122  0.3415  0.1892
  153OSM   H14S17041   1.667   6.223   5.419  1.6740 -0.0208 -0.6284
  153OSM   H14T17042   1.786   6.098   5.478  0.5200 -1.4499  1.3081
  153OSM   C15S17043   1.638   6.130   5.619  0.0155 -0.6357  0.2958
  153OSM   H15S17044   1.598   6.029   5.645  0.6213 -0.8018  0.6031
  153OSM   H15T17045   1.560   6.206   5.642  0.6623 -0.1477  0.9193
  153OSM   C16S17046   1.752   6.152   5.721 -0.8449 -0.0929 -0.3409
  153OSM   H16S17047   1.809   6.246   5.706 -0.7799  0.0633  0.7534
  153OSM   H16T17048   1.820   6.066   5.705 -0.1414  0.7295 -2.0253
  153OSM   C17S17049   1.695   6.167   5.858  0.2087 -0.1842 -0.0370
  153OSM   H17S17050   1.610   6.097   5.873 -0.4277  0.9468  1.9509
  153OSM   H17T17051   1.656   6.271   5.856 -1.4156 -0.7643 -0.3595
  153OSM   C18S17052   1.807   6.144   5.959 -0.5159  0.8597 -0.8345
  153OSM   H18S17053   1.883   6.223   5.942 -0.7977  0.9825 -1.5901
  153OSM   H18T17054   1.863   6.049   5.943  1.3256  1.4329  1.6378
  153OSM   H18U17055   1.774   6.145   6.065 -1.4279 -0.2399 -1.0832
  153OSM    C1F17056   1.292   6.655   4.385  0.1239 -0.0487  0.6087
  153OSM     OF17057   1.204   6.657   4.299 -0.1436  0.3375 -0.2806
  153OSM    C2F17058   1.273   6.714   4.527  0.1638 -0.5941  0.0236
  153OSM    H2F17059   1.313   6.817   4.523 -0.2643 -0.3265  1.7566
  153OSM    H2G17060   1.310   6.649   4.609 -0.9454 -0.7162  0.4449
  153OSM    C3F17061   1.122   6.723   4.560  0.3770 -0.0872 -0.0039
  153OSM    H3F17062   1.067   6.626   4.558 -0.9277  0.4985  2.7542
  153OSM    H3G17063   1.060   6.791   4.498  0.2317 -0.6868 -0.5292
  153OSM    C4F17064   1.098   6.774   4.702  0.7041 -0.5118 -0.2461
  153OSM    H4F17065   1.134   6.879   4.694  2.6825 -1.1199  0.1404
  153OSM    H4G17066   1.168   6.728   4.774  1.5232 -2.1138 -1.9736
  153OSM    C5F17067   0.952   6.771   4.744 -0.3372  0.0610 -0.1297
  153OSM    H5F17068   0.928   6.664   4.756  0.3499 -0.0152  0.6424
  153OSM    H5G17069   0.885   6.805   4.662 -1.3600  0.2743  0.7677
  153OSM    C6F17070   0.899   6.842   4.867 -0.1700 -0.1988 -0.5649
  153OSM    H6F17071   0.797   6.805   4.887  0.2339 -0.3641  1.3813
  153OSM    H6G17072   0.888   6.949   4.839  0.1823 -0.5501 -2.1187
  153OSM    C7F17073   0.985   6.825   4.991  0.3770 -0.3894 -0.0781
  153OSM    H7F17074   1.086   6.864   4.968  0.6917 -0.8237  0.5189
  153OSM    H7G17075   0.994   6.715   5.004 -2.8500 -0.7543 -0.1607
  153OSM    C8F17076   0.929   6.883   5.127 -0.6900 -0.3798 -0.2531
  153OSM    H8F17077   0.926   6.994   5.132 -0.4992 -0.3833 -0.0573
  153OSM    H8G17078   1.006   6.853   5.201 -3.3679 -3.3927  1.5739
  153OSM    C9F17079   0.796   6.819   5.160  0.5025 -0.2844  0.4916
  153OSM    H9F17080   0.713   6.817   5.089  0.5063  1.2696  0.3944
  153OSM   C10F17081   0.759   6.776   5.281 -0.0679 -0.1250 -0.0379
  153OSM   H10F17082   0.664   6.722   5.287 -0.3737  0.4692  0.4907
  153OSM   C11F17083   0.849   6.750   5.395 -0.3977 -0.0024 -0.6106
  153OSM   H11F17084   0.953   6.775   5.365 -0.2220 -3.6623 -3.8915
  153OSM   H11G17085   0.865   6.641   5.410  0.9232  0.1497 -0.8058
  153OSM   C12F17086   0.793   6.826   5.517  0.4705  0.0145  0.0352
  153OSM   H12F17087   0.810   6.936   5.506 -1.4266  0.6300  2.4880
  153OSM   H12G17088   0.857   6.804   5.605 -2.4284  2.1490  2.8936
  153OSM   C13F17089   0.648   6.805   5.557 -0.0066 -0.6743  0.4442
  153OSM   H13F17090   0.573   6.820   5.476  0.0685  0.6433  0.5900
  153OSM   H13G17091   0.624   6.876   5.640  3.8811 -0.4482  1.5753
  153OSM   C14F17092   0.636   6.659   5.601 -0.1210  0.2194  0.2759
  153OSM   H14F17093   0.715   6.625   5.670  0.6698  1.3759 -0.0310
  153OSM   H14G17094   0.641   6.588   5.516 -0.8308  1.0462 -0.4939
  153OSM   C15F17095   0.499   6.629   5.666 -0.2287  0.5914  0.0428
  153OSM   H15F17096   0.464   6.525   5.650  1.6045 -0.1965  0.8758
  153OSM   H15G17097   0.420   6.704   5.645 -0.7213 -0.0623 -0.5039
  153OSM   C16F17098   0.508   6.635   5.821  0.3080  0.2193 -0.9689
  153OSM   H16F17099   0.569   6.723   5.848 -0.0764 -0.0188  0.8155
  153OSM   H16G17100   0.569   6.549   5.854  1.3864  0.6140 -1.8964
  153OSM   C17F17101   0.375   6.622   5.887 -0.1749 -0.2665  0.3130
  153OSM   H17F17102   0.387   6.592   5.994  1.4905  0.1543  0.2768
  153OSM   H17G17103   0.314   6.535   5.855  0.7847 -0.5773 -0.7113
  153OSM   C18F17104   0.289   6.747   5.879  0.1879  0.3351  0.7828
  153OSM   H18F17105   0.348   6.839   5.899  1.6415  0.7951 -4.0817
  153OSM   H18G17106   0.190   6.738   5.927 -0.1453  0.0758  0.0697
  153OSM   H18H17107   0.261   6.751   5.771 -0.9990  0.2031  1.0803
  154OSM      N17108   1.392   4.563   3.172  0.3768  0.1898 -0.0516
  154OSM    C1517109   1.319   4.521   3.040  0.2035  0.0458 -0.1365
  154OSM   H15A17110   1.239   4.591   3.024  1.6952  2.4733  2.2348
  154OSM   H15B17111   1.268   4.427   3.053  1.9630 -0.7367  1.5904
  154OSM   H15C17112   1.392   4.509   2.961  1.0129 -1.3368  0.7714
  154OSM    C1417113   1.498   4.454   3.198  0.2369  0.2087  0.8586
  154OSM   H14A17114   1.441   4.364   3.219 -1.6409  1.3256  0.7118
  154OSM   H14B17115   1.556   4.483   3.285  2.8909  1.3373 -1.1747
  154OSM   H14C17116   1.565   4.440   3.115 -0.4569  2.9629 -0.2439
  154OSM    C1317117   1.460   4.691   3.144  0.4706 -0.2535 -0.2506
  154OSM   H13A17118   1.494   4.732   3.238 -0.1906  0.9621 -0.5138
  154OSM   H13B17119   1.392   4.762   3.098 -0.7569 -1.1574  0.1276
  154OSM   H13C17120   1.542   4.679   3.075  0.6874 -0.8310  0.0990
  154OSM    C1217121   1.288   4.564   3.283  0.4478 -0.0946  0.0026
  154OSM   H12A17122   1.250   4.465   3.308  0.9824 -0.0549  1.0285
  154OSM   H12B17123   1.203   4.623   3.254  0.7691  0.2033 -0.3346
  154OSM    C1117124   1.330   4.620   3.421  0.6018  0.0891  0.0286
  154OSM   H11A17125   1.416   4.563   3.462  1.3152  0.8148 -0.4421
  154OSM   H11B17126   1.241   4.599   3.485 -0.8318  1.0797 -1.5301
  154OSM      P17127   1.242   4.866   3.445 -0.2862  0.1630  0.1112
  154OSM    O1317128   1.312   5.003   3.449  0.2184  0.4694 -0.0764
  154OSM    O1417129   1.149   4.830   3.339  0.3194 -0.5698  0.7710
  154OSM    O1117130   1.174   4.835   3.581 -0.3539 -0.8661 -0.2771
  154OSM    O1217131   1.363   4.761   3.433 -0.3506  0.0438  0.6258
  154OSM    C1S17132   1.248   4.817   3.701 -0.0747 -0.0335 -0.5372
  154OSM    H1S17133   1.294   4.915   3.726 -1.5770 -0.0533  2.6726
  154OSM    H1T17134   1.325   4.740   3.677 -0.6761 -1.0744  0.7479
  154OSM     NF17135   1.228   4.787   3.942 -0.4608 -0.4409 -0.3148
  154OSM    HNF17136   1.267   4.703   3.981 -3.8886 -1.4090  1.3683
  154OSM    C2S17137   1.157   4.770   3.817  0.1393  0.3299  0.1281
  154OSM    H2S17138   1.069   4.838   3.823 -0.2350 -0.2363  1.4230
  154OSM    C3S17139   1.108   4.623   3.784 -0.5579 -0.8485 -0.0654
  154OSM    H3S17140   1.196   4.556   3.791 -1.1744 -1.6678  0.0153
  154OSM     O317141   1.052   4.589   3.656  0.2156  0.0339 -0.9515
  154OSM    HO317142   1.085   4.661   3.601  2.4050 -0.1667 -0.0157
  154OSM    C4S17143   1.009   4.595   3.899  0.2020 -0.2995  0.3324
  154OSM    H4S17144   0.928   4.668   3.908 -0.7516 -1.2920 -0.0699
  154OSM    C5S17145   1.003   4.492   3.981 -0.1374 -0.2088 -0.5659
  154OSM    H5S17146   1.068   4.407   3.959  1.1477  0.5250  0.2835
  154OSM    C6S17147   0.901   4.486   4.097 -0.3515 -0.7634  0.1181
  154OSM    H6S17148   0.802   4.456   4.057 -0.5797  1.1717 -0.8463
  154OSM    H6T17149   0.880   4.588   4.136  0.1337 -0.7320  0.3052
  154OSM    C7S17150   0.950   4.407   4.217 -0.3968  0.1707  0.0198
  154OSM    H7S17151   0.963   4.299   4.194 -3.3935  0.1362 -2.0026
  154OSM    H7T17152   0.864   4.414   4.287 -0.5104 -0.4110 -0.0567
  154OSM    C8S17153   1.076   4.470   4.286  0.0719  0.5091 -0.0174
  154OSM    H8S17154   1.086   4.573   4.247 -3.5858  1.4532  1.1468
  154OSM    H8T17155   1.172   4.417   4.268  0.1762  0.6739  0.0491
  154OSM    C9S17156   1.054   4.471   4.442  0.2489 -0.4709  0.9545
  154OSM    H9S17157   1.004   4.373   4.459 -0.1188 -0.2906  0.9189
  154OSM    H9T17158   0.981   4.549   4.471 -0.8539 -0.9372 -0.4632
  154OSM   C10S17159   1.185   4.492   4.518 -0.2572 -0.2437 -0.2784
  154OSM   H10S17160   1.222   4.592   4.485 -0.6476 -0.3239 -0.9806
  154OSM   H10T17161   1.266   4.421   4.493  0.3845 -0.0296  1.1185
  154OSM   C11S17162   1.165   4.479   4.675 -1.5823 -0.3178  0.6621
  154OSM   H11S17163   1.076   4.536   4.708 -1.0708  1.5119 -0.9617
  154OSM   H11T17164   1.260   4.516   4.720 -0.5145 -0.5339 -1.2925
  154OSM   C12S17165   1.150   4.339   4.724  0.3635  0.0264  0.2848
  154OSM   H12S17166   1.232   4.268   4.701 -0.5936 -0.4189 -2.0614
  154OSM   H12T17167   1.057   4.301   4.677  0.1155  1.3100 -0.3019
  154OSM   C13S17168   1.110   4.327   4.872 -0.2988 -0.1312  0.0296
  154OSM   H13S17169   1.052   4.235   4.896 -1.9973  0.8692 -0.0931
  154OSM   H13T17170   1.035   4.405   4.898 -0.8036  0.2519 -2.3982
  154OSM   C14S17171   1.215   4.346   4.983  0.7182 -0.0376  0.2571
  154OSM   H14S17172   1.281   4.428   4.947  1.3681 -0.3754  0.6478
  154OSM   H14T17173   1.285   4.260   4.992  3.4893  2.0384 -0.2202
  154OSM   C15S17174   1.153   4.381   5.118  0.4357 -0.5609  0.2436
  154OSM   H15S17175   1.114   4.293   5.173  1.1817 -0.7656  0.4449
  154OSM   H15T17176   1.069   4.452   5.099  1.1240 -0.1885 -1.6235
  154OSM   C16S17177   1.259   4.449   5.206  0.3779 -0.2738 -0.4751
  154OSM   H16S17178   1.271   4.547   5.154 -1.9435  1.3216  1.7728
  154OSM   H16T17179   1.357   4.397   5.201  0.0873 -0.9449  0.6495
  154OSM   C17S17180   1.231   4.472   5.359 -1.2986  0.4403  0.4022
  154OSM   H17S17181   1.302   4.547   5.399  1.5186 -0.5826 -2.2759
  154OSM   H17T17182   1.235   4.371   5.404 -2.5017 -0.8098 -2.0962
  154OSM   C18S17183   1.096   4.527   5.396 -0.4988  0.8244  0.2730
  154OSM   H18S17184   1.015   4.460   5.361  0.0590 -0.1535  0.8018
  154OSM   H18T17185   1.085   4.627   5.349  0.7131  0.0045 -1.8963
  154OSM   H18U17186   1.085   4.527   5.507 -1.5423  0.2378  0.1833
  154OSM    C1F17187   1.259   4.900   3.997  0.1486 -0.1643  0.0559
  154OSM     OF17188   1.223   5.003   3.949 -0.4412  0.4241  0.6925
  154OSM    C2F17189   1.333   4.894   4.132  0.2566 -0.7935 -0.2599
  154OSM    H2F17190   1.408   4.812   4.128  0.6578 -0.4843  0.5296
  154OSM    H2G17191   1.252   4.880   4.207 -0.8931  3.5253 -0.4127
  154OSM    C3F17192   1.420   5.025   4.159  0.1327  0.8017  0.0724
  154OSM    H3F17193   1.348   5.110   4.163  1.3083  1.9353 -1.6531
  154OSM    H3G17194   1.500   5.043   4.084  1.4289 -1.0797  0.9256
  154OSM    C4F17195   1.487   5.026   4.300  0.3325  0.3601  0.1591
  154OSM    H4F17196   1.574   4.957   4.291 -1.5583 -2.1095 -0.1842
  154OSM    H4G17197   1.421   4.959   4.360  1.1659 -2.2827 -1.6803
  154OSM    C5F17198   1.526   5.166   4.359 -0.8390 -0.0585  0.2615
  154OSM    H5F17199   1.430   5.221   4.368 -1.4174 -0.9740 -0.1192
  154OSM    H5G17200   1.593   5.208   4.281  0.9043  1.0631  2.2846
  154OSM    C6F17201   1.593   5.155   4.492 -0.0999 -0.4877  0.0049
  154OSM    H6F17202   1.678   5.084   4.485  0.2822 -0.0019 -0.3404
  154OSM    H6G17203   1.522   5.108   4.564  1.2739 -3.4857 -0.4383
  154OSM    C7F17204   1.639   5.294   4.534  0.5247  0.0132 -0.4121
  154OSM    H7F17205   1.697   5.340   4.452  1.7336  0.0997  0.4708
  154OSM    H7G17206   1.703   5.279   4.623 -0.8522  1.7665  0.9312
  154OSM    C8F17207   1.530   5.398   4.569  0.7956  0.4838 -0.3431
  154OSM    H8F17208   1.466   5.357   4.650 -2.8637  1.3513 -2.5486
  154OSM    H8G17209   1.453   5.413   4.490 -0.6674  0.5980  1.0534
  154OSM    C9F17210   1.594   5.525   4.622  0.7227 -0.0671 -0.2424
  154OSM    H9F17211   1.601   5.595   4.537 -1.7845 -0.8527 -1.2029
  154OSM   C10F17212   1.613   5.554   4.752  0.4341 -0.1088  0.2189
  154OSM   H10F17213   1.663   5.647   4.780  0.7539 -0.5262  1.0826
  154OSM   C11F17214   1.569   5.470   4.871  0.0643 -0.0274 -1.2107
  154OSM   H11F17215   1.573   5.363   4.841 -1.5674 -0.0596 -1.4051
  154OSM   H11G17216   1.465   5.492   4.902  0.5023  0.7192 -0.2474
  154OSM   C12F17217   1.666   5.485   4.991 -0.8060 -0.5850  0.8764
  154OSM   H12F17218   1.675   5.592   5.019  1.2754 -1.2022  2.9090
  154OSM   H12G17219   1.762   5.459   4.940 -1.1137 -0.9199  0.4638
  154OSM   C13F17220   1.633   5.405   5.116  0.2559  0.0717  0.1192
  154OSM   H13F17221   1.622   5.298   5.091 -0.9394  0.2999 -0.4100
  154OSM   H13G17222   1.535   5.439   5.157  0.5460 -0.3045  1.1467
  154OSM   C14F17223   1.729   5.417   5.231 -0.0460  0.2866 -0.0199
  154OSM   H14F17224   1.711   5.520   5.271 -0.7851  0.0960  0.1655
  154OSM   H14G17225   1.836   5.406   5.204  0.0021  2.2806 -0.8848
  154OSM   C15F17226   1.687   5.332   5.352  0.4969  0.8364 -0.0820
  154OSM   H15F17227   1.664   5.228   5.320  0.0668  1.6501 -2.5806
  154OSM   H15G17228   1.607   5.396   5.395  1.6498  2.5793 -0.4152
  154OSM   C16F17229   1.795   5.320   5.461 -0.5807 -1.0844  0.4353
  154OSM   H16F17230   1.829   5.424   5.480 -1.2017 -0.6211 -0.8856
  154OSM   H16G17231   1.886   5.274   5.418 -0.2499  0.4429 -0.5706
  154OSM   C17F17232   1.752   5.265   5.598  1.4006 -0.2867  0.2417
  154OSM   H17F17233   1.733   5.157   5.582  1.1264 -0.1792 -0.1632
  154OSM   H17G17234   1.654   5.307   5.631  1.0151 -1.4211  0.6028
  154OSM   C18F17235   1.853   5.288   5.710 -0.7991  0.4592 -0.1813
  154OSM   H18F17236   1.834   5.222   5.798 -0.4036 -0.3245 -0.6698
  154OSM   H18G17237   1.833   5.394   5.737 -0.3421  0.8651 -1.3485
  154OSM   H18H17238   1.956   5.278   5.670 -0.5800 -1.6841  0.7571
  155OSM      N17239   3.451   1.244   3.916  0.2753 -0.8161 -0.2894
  155OSM    C1517240   3.353   1.181   4.002 -0.2445 -0.1292  0.0674
  155OSM   H15A17241   3.263   1.159   3.946 -0.5813  0.8338  0.2138
  155OSM   H15B17242   3.335   1.251   4.082 -0.3286 -0.9741  0.8005
  155OSM   H15C17243   3.387   1.087   4.044 -0.3932 -1.3046 -2.2639
  155OSM    C1417244   3.487   1.149   3.811 -0.1151 -0.2452  0.7388
  155OSM   H14A17245   3.552   1.198   3.740 -1.3442 -1.1783 -1.0897
  155OSM   H14B17246   3.396   1.109   3.769  0.4803 -2.5760  1.5406
  155OSM   H14C17247   3.534   1.058   3.845 -0.9165 -1.9144 -2.2300
  155OSM    C1317248   3.386   1.364   3.848 -0.2369 -0.4229  0.4295
  155OSM   H13A17249   3.298   1.346   3.788  0.1006  2.8637 -1.2851
  155OSM   H13B17250   3.451   1.407   3.774  0.0745 -0.3075  0.7663
  155OSM   H13C17251   3.351   1.438   3.919  0.9640  0.3435  0.2419
  155OSM    C1217252   3.570   1.299   3.996 -0.1924  0.1715  0.5139
  155OSM   H12A17253   3.612   1.214   4.047 -2.3461 -0.1708  1.8139
  155OSM   H12B17254   3.543   1.375   4.068  1.9842  2.1088 -0.5816
  155OSM    C1117255   3.683   1.363   3.916 -0.4031  0.0523  0.2381
  155OSM   H11A17256   3.732   1.282   3.858  1.7697  2.2094 -1.1010
  155OSM   H11B17257   3.751   1.407   3.993 -3.8713  0.9266  3.1056
  155OSM      P17258   3.701   1.609   3.833 -0.2386  0.2678  0.2575
  155OSM    O1317259   3.843   1.616   3.799  0.0020  0.2956  0.4915
  155OSM    O1417260   3.612   1.696   3.755  0.5397  0.6922 -0.1883
  155OSM    O1117261   3.683   1.643   3.987  0.0728 -0.4175 -0.0748
  155OSM    O1217262   3.647   1.463   3.824  0.3949 -0.3712 -0.3234
  155OSM    C1S17263   3.552   1.671   4.038  0.4796 -0.4523  0.3017
  155OSM    H1S17264   3.468   1.625   3.982 -0.8493  1.0383  0.9835
  155OSM    H1T17265   3.533   1.781   4.032 -2.5887 -0.9726 -1.4099
  155OSM     NF17266   3.408   1.677   4.241  1.2388  0.4203 -0.4437
  155OSM    HNF17267   3.411   1.752   4.306  0.3518 -0.5965  0.8176
  155OSM    C2S17268   3.544   1.633   4.191  0.0309 -1.1546  0.7165
  155OSM    H2S17269   3.544   1.523   4.211 -1.5632 -0.8666  2.5746
  155OSM    C3S17270   3.659   1.708   4.269 -0.3155 -0.0866  0.1748
  155OSM    H3S17271   3.649   1.816   4.245 -0.5488 -0.4267 -1.3928
  155OSM     O317272   3.784   1.664   4.231  0.1173  0.2667 -0.3334
  155OSM    HO317273   3.781   1.617   4.147 -0.3246 -1.1400  0.4245
  155OSM    C4S17274   3.625   1.685   4.414  0.2358  0.9394 -0.2419
  155OSM    H4S17275   3.592   1.772   4.472  0.3484  0.4513  0.5675
  155OSM    C5S17276   3.632   1.564   4.470  0.5147  0.0976 -0.0998
  155OSM    H5S17277   3.665   1.476   4.413 -0.9075  0.2547 -1.2221
  155OSM    C6S17278   3.593   1.543   4.613  0.4308  0.7234  0.0847
  155OSM    H6S17279   3.511   1.615   4.635 -1.8373 -1.5385 -0.5135
  155OSM    H6T17280   3.680   1.560   4.680  1.3882 -1.5417 -0.4978
  155OSM    C7S17281   3.545   1.395   4.630  0.4050 -0.2639  0.2029
  155OSM    H7S17282   3.635   1.342   4.590  1.7842  2.6109 -0.7690
  155OSM    H7T17283   3.454   1.366   4.573 -0.6930  1.2812  1.1143
  155OSM    C8S17284   3.525   1.351   4.773  0.8042 -0.4036 -0.4052
  155OSM    H8S17285   3.609   1.383   4.838 -1.6360  3.0831  1.3104
  155OSM    H8T17286   3.520   1.240   4.770  2.5107 -0.5270  0.3508
  155OSM    C9S17287   3.403   1.411   4.843  0.8710 -0.3582 -0.3972
  155OSM    H9S17288   3.321   1.373   4.779 -0.6254  2.1410 -0.0942
  155OSM    H9T17289   3.402   1.522   4.846 -1.1096 -0.3832  1.5343
  155OSM   C10S17290   3.394   1.357   4.984  0.4244  0.4145  0.1808
  155OSM   H10S17291   3.478   1.402   5.041  1.3590 -0.7860 -0.2111
  155OSM   H10T17292   3.416   1.248   4.987  0.6835  0.4771  2.0291
  155OSM   C11S17293   3.264   1.404   5.055 -0.0622  0.6138 -0.2836
  155OSM   H11S17294   3.179   1.334   5.039  0.8915 -1.6298  3.3001
  155OSM   H11T17295   3.228   1.502   5.018 -0.2526  0.3065 -0.9292
  155OSM   C12S17296   3.269   1.443   5.201 -0.2226 -0.0763  0.0931
  155OSM   H12S17297   3.189   1.511   5.236  1.1890  1.5820  0.2140
  155OSM   H12T17298   3.362   1.496   5.229  0.3240  0.1249 -1.9313
  155OSM   C13S17299   3.233   1.328   5.293 -0.3626  0.1961  0.5564
  155OSM   H13S17300   3.312   1.253   5.273  1.1721  1.9918 -0.4443
  155OSM   H13T17301   3.131   1.290   5.272 -0.4988  1.5827 -1.6504
  155OSM   C14S17302   3.246   1.356   5.446  0.3213  0.1083  0.1863
  155OSM   H14S17303   3.165   1.420   5.487  2.5027  2.3475  1.1852
  155OSM   H14T17304   3.347   1.400   5.458  0.9677 -0.3757 -2.7373
  155OSM   C15S17305   3.237   1.222   5.519 -0.6154 -0.0618 -0.2250
  155OSM   H15S17306   3.285   1.142   5.457  0.2957  0.8633 -0.7422
  155OSM   H15T17307   3.129   1.202   5.533 -0.6423 -0.7497 -1.2400
  155OSM   C16S17308   3.299   1.216   5.658  0.5710  0.5822  0.0930
  155OSM   H16S17309   3.409   1.219   5.639  1.1218  0.6968  2.9229
  155OSM   H16T17310   3.285   1.117   5.706  0.8059  0.9010  0.8447
  155OSM   C17S17311   3.274   1.320   5.765  0.2110 -0.1029  0.1477
  155OSM   H17S17312   3.337   1.409   5.744 -0.2957 -0.1019 -1.5893
  155OSM   H17T17313   3.310   1.278   5.861  1.5854 -2.1515 -1.1909
  155OSM   C18S17314   3.128   1.366   5.775  0.0334  0.1701  0.1491
  155OSM   H18S17315   3.096   1.415   5.680 -0.5695 -0.8474 -0.1869
  155OSM   H18T17316   3.124   1.446   5.852  1.7076 -1.8933  2.5116
  155OSM   H18U17317   3.060   1.281   5.794  0.1477  0.0862  0.1814
  155OSM    C1F17318   3.295   1.615   4.212 -0.4674 -0.6801  0.6051
  155OSM     OF17319   3.296   1.517   4.132  0.2856  0.3664  0.3339
  155OSM    C2F17320   3.172   1.660   4.279  0.3942 -0.2838 -0.1267
  155OSM    H2F17321   3.140   1.751   4.223  0.2686 -0.1727  0.1232
  155OSM    H2G17322   3.197   1.693   4.382  0.9197  3.4965 -1.3283
  155OSM    C3F17323   3.055   1.562   4.278 -0.1047  0.3813 -0.3421
  155OSM    H3F17324   3.082   1.466   4.328  0.8345  1.1792  0.7300
  155OSM    H3G17325   3.032   1.553   4.170  1.8664  0.9445 -0.8459
  155OSM    C4F17326   2.936   1.607   4.352  0.2171 -0.8863 -0.1471
  155OSM    H4F17327   2.877   1.516   4.379 -0.8515  0.5596  2.7701
  155OSM    H4G17328   2.885   1.684   4.292 -1.3117 -0.1222  1.9931
  155OSM    C5F17329   2.965   1.673   4.489  0.1743 -0.2351 -0.4016
  155OSM    H5F17330   3.019   1.767   4.466  1.1645 -0.9895 -1.2771
  155OSM    H5G17331   3.027   1.597   4.542 -0.4271 -1.3251 -1.2098
  155OSM    C6F17332   2.839   1.726   4.564 -0.1940  0.2659  0.3022
  155OSM    H6F17333   2.784   1.790   4.492 -2.2692 -2.5803 -0.8784
  155OSM    H6G17334   2.869   1.780   4.656  1.2914 -1.4066  0.8435
  155OSM    C7F17335   2.731   1.613   4.589  0.0472 -1.3214 -0.2902
  155OSM    H7F17336   2.701   1.555   4.499 -3.7905  1.0717 -0.7812
  155OSM    H7G17337   2.630   1.648   4.618  1.2436  0.0580  2.6003
  155OSM    C8F17338   2.754   1.515   4.708  0.1456 -0.0641 -0.7045
  155OSM    H8F17339   2.691   1.426   4.689 -1.3549  0.6750  0.5441
  155OSM    H8G17340   2.707   1.560   4.798 -2.5837  1.1821 -2.6401
  155OSM    C9F17341   2.891   1.449   4.720  0.2253  0.2434 -0.6235
  155OSM    H9F17342   2.935   1.436   4.621  1.3953 -0.4865 -0.0289
  155OSM   C10F17343   2.963   1.438   4.835 -0.1017  0.4335 -0.0044
  155OSM   H10F17344   3.051   1.371   4.837 -0.8128 -0.5344 -0.2360
  155OSM   C11F17345   2.912   1.474   4.968  0.2226 -0.3543 -0.8507
  155OSM   H11F17346   2.881   1.580   4.975  3.0564  0.4899  0.1924
  155OSM   H11G17347   2.999   1.466   5.036  2.4714  2.7205 -3.1308
  155OSM   C12F17348   2.800   1.386   5.036 -0.1052 -0.1316 -0.0037
  155OSM   H12F17349   2.817   1.278   5.014 -0.8931 -0.6592  1.7520
  155OSM   H12G17350   2.700   1.411   4.995  0.7769  1.3882 -1.3455
  155OSM   C13F17351   2.804   1.410   5.190  0.5261 -0.3236 -0.7931
  155OSM   H13F17352   2.893   1.356   5.229 -0.4955 -2.2286 -0.9413
  155OSM   H13G17353   2.722   1.340   5.219 -0.4817  1.1921  0.1467
  155OSM   C14F17354   2.793   1.560   5.236 -0.6476 -0.1659 -0.0431
  155OSM   H14F17355   2.699   1.597   5.191 -1.2860 -0.5064  0.9783
  155OSM   H14G17356   2.882   1.618   5.205 -1.1506  0.7784  0.2445
  155OSM   C15F17357   2.771   1.561   5.381  0.2636 -0.8331 -0.3739
  155OSM   H15F17358   2.691   1.499   5.427 -1.2285  1.8647  0.9833
  155OSM   H15G17359   2.722   1.654   5.417 -0.5200 -1.4339  0.1440
  155OSM   C16F17360   2.898   1.542   5.473  0.6282 -0.8452  1.5440
  155OSM   H16F17361   2.977   1.588   5.409  0.4939 -0.6528  1.5132
  155OSM   H16G17362   2.922   1.434   5.477  1.8990 -0.7640 -1.2867
  155OSM   C17F17363   2.881   1.594   5.616 -0.1576 -0.6405 -0.1247
  155OSM   H17F17364   2.855   1.702   5.612 -0.0448 -0.5171  1.6665
  155OSM   H17G17365   2.983   1.599   5.659 -0.0685  0.4984 -0.4423
  155OSM   C18F17366   2.780   1.513   5.695  0.0824  0.2834  0.3882
  155OSM   H18F17367   2.781   1.549   5.800  1.6954  0.8067  0.2217
  155OSM   H18G17368   2.806   1.405   5.697  0.1133  0.2916  0.4181
  155OSM   H18H17369   2.681   1.540   5.651  0.2685  0.8463  0.3060
  156OSM      N17370   4.892   6.747   3.520 -0.3104  0.2686  0.6475
  156OSM    C1517371   4.755   6.799   3.521 -0.3876 -0.4370  0.4787
  156OSM   H15A17372   4.674   6.729   3.533 -2.7155  1.9845 -0.0295
  156OSM   H15B17373   4.744   6.853   3.428  0.1543  0.4522  0.9194
  156OSM   H15C17374   4.741   6.865   3.605 -0.8303  0.2413 -0.1169
  156OSM    C1417375   4.874   6.623   3.431 -0.6601  0.1560 -1.0219
  156OSM   H14A17376   4.967   6.570   3.414 -0.2102  0.8990 -0.9271
  156OSM   H14B17377   4.841   6.647   3.331 -0.9755 -1.6896 -1.4011
  156OSM   H14C17378   4.798   6.551   3.458 -1.0378  0.3694 -1.4935
  156OSM    C1317379   4.993   6.833   3.460  0.2560  0.3781  0.0686
  156OSM   H13A17380   5.087   6.781   3.457  0.0781  0.0884 -0.9384
  156OSM   H13B17381   5.003   6.921   3.522  1.5326  0.5346 -0.3488
  156OSM   H13C17382   4.971   6.857   3.357 -1.3581  1.4989  0.6334
  156OSM    C1217383   4.932   6.711   3.659 -0.5463 -0.0082 -0.1238
  156OSM   H12A17384   5.024   6.654   3.660  0.1579  1.0365 -1.6182
  156OSM   H12B17385   4.856   6.644   3.697  1.3515 -1.2069  1.8893
  156OSM    C1117386   4.954   6.819   3.770  0.8343 -0.3770 -0.7896
  156OSM   H11A17387   4.941   6.761   3.864 -1.3159 -1.2047 -1.5139
  156OSM   H11B17388   4.870   6.892   3.771 -0.8109 -2.1185  2.0389
  156OSM      P17389   5.214   6.814   3.819 -0.0820  0.1578  0.0318
  156OSM    O1317390   5.185   6.687   3.888 -0.1372 -0.0828  0.9674
  156OSM    O1417391   5.331   6.821   3.735 -0.2676 -0.0309 -0.2125
  156OSM    O1117392   5.237   6.925   3.934 -0.1010 -0.2941 -0.4283
  156OSM    O1217393   5.087   6.873   3.752  0.3082  0.0377 -0.3314
  156OSM    C1S17394   5.152   7.025   3.987  0.1337 -0.6019 -0.3346
  156OSM    H1S17395   5.072   7.057   3.917 -1.4294  2.5943  2.6171
  156OSM    H1T17396   5.212   7.119   3.986 -0.5844 -0.1085  0.7577
  156OSM     NF17397   5.026   7.065   4.216  0.0496 -0.1047  0.1048
  156OSM    HNF17398   5.069   7.127   4.281  0.6725 -0.5123  0.0831
  156OSM    C2S17399   5.108   6.972   4.133  0.2179 -0.1211  0.2726
  156OSM    H2S17400   5.048   6.881   4.112  0.7468 -0.8885  1.9697
  156OSM    C3S17401   5.234   6.916   4.215 -0.5654  0.3526  0.2867
  156OSM    H3S17402   5.301   7.001   4.240 -0.7284  0.0625  1.8030
  156OSM     O317403   5.298   6.806   4.149 -0.2369 -0.4924  0.1710
  156OSM    HO317404   5.268   6.816   4.058  1.7877  2.1981 -0.3258
  156OSM    C4S17405   5.192   6.874   4.364 -0.1005  0.3797  0.5685
  156OSM    H4S17406   5.164   6.965   4.419  1.3802  1.8327 -0.9568
  156OSM    C5S17407   5.183   6.748   4.419 -0.4196 -0.7179  0.2499
  156OSM    H5S17408   5.218   6.663   4.357 -0.3588 -1.0086  0.6794
  156OSM    C6S17409   5.140   6.723   4.559 -0.3753 -0.5632  0.3117
  156OSM    H6S17410   5.227   6.683   4.615  0.4760  0.1962 -0.4455
  156OSM    H6T17411   5.064   6.642   4.558  0.7814 -1.6904  1.0363
  156OSM    C7S17412   5.071   6.845   4.631  0.6994 -0.3016  0.7824
  156OSM    H7S17413   4.969   6.867   4.595  0.0253 -0.1772  2.6826
  156OSM    H7T17414   5.127   6.941   4.618 -0.1964  0.4255  2.0546
  156OSM    C8S17415   5.054   6.815   4.783  0.5003 -0.1604 -0.1101
  156OSM    H8S17416   5.159   6.805   4.819 -0.1919  0.8740  2.4209
  156OSM    H8T17417   5.001   6.723   4.816  1.1435 -0.5063 -0.0204
  156OSM    C9S17418   4.990   6.935   4.862  0.1247  0.1897  0.0914
  156OSM    H9S17419   4.883   6.943   4.833 -0.2519 -2.1735  0.5693
  156OSM    H9T17420   5.045   7.025   4.830  1.4069 -1.0104 -1.2184
  156OSM   C10S17421   5.007   6.918   5.012  0.0430 -0.3010  0.3708
  156OSM   H10S17422   5.012   7.012   5.070  0.4087 -1.2664  1.9510
  156OSM   H10T17423   5.104   6.865   5.026  0.5738 -0.5898 -3.2389
  156OSM   C11S17424   4.892   6.842   5.078 -0.0338  0.5691  0.5862
  156OSM   H11S17425   4.851   6.761   5.014 -1.1552 -0.0024  1.9623
  156OSM   H11T17426   4.808   6.916   5.081 -0.3434  0.4246 -2.1986
  156OSM   C12S17427   4.915   6.797   5.218  0.4626 -0.0662  0.6661
  156OSM   H12S17428   4.984   6.710   5.211  1.5918  0.8904 -0.6235
  156OSM   H12T17429   4.827   6.750   5.267 -0.1178 -0.2450 -0.5081
  156OSM   C13S17430   4.963   6.897   5.319  0.0872 -0.4122 -0.1959
  156OSM   H13S17431   4.884   6.974   5.308  2.0123  1.3242 -3.4641
  156OSM   H13T17432   5.058   6.951   5.296 -0.4517  1.7136  2.1630
  156OSM   C14S17433   4.957   6.836   5.459 -0.4046  0.3991 -0.3134
  156OSM   H14S17434   5.045   6.774   5.486  0.1911  1.3892  0.0642
  156OSM   H14T17435   4.867   6.774   5.482 -0.0646  0.0285  0.0247
  156OSM   C15S17436   4.942   6.946   5.572  0.0101  0.5137  0.8499
  156OSM   H15S17437   4.841   6.990   5.557 -1.4901 -3.0279 -0.4843
  156OSM   H15T17438   5.016   7.029   5.570 -2.3652  2.7818 -1.9170
  156OSM   C16S17439   4.940   6.888   5.714  0.0748  0.3422  0.0551
  156OSM   H16S17440   5.003   6.963   5.768  2.0187  0.7488 -2.5294
  156OSM   H16T17441   5.007   6.800   5.702  0.9731  0.7811  1.5907
  156OSM   C17S17442   4.814   6.838   5.778  0.2091  0.7084 -0.2951
  156OSM   H17S17443   4.756   6.777   5.704 -1.1803 -1.2869  2.2711
  156OSM   H17T17444   4.752   6.920   5.819  0.5990  0.8351  0.0381
  156OSM   C18S17445   4.839   6.749   5.899  0.2069  0.4250  0.1100
  156OSM   H18S17446   4.923   6.788   5.960  1.1019  1.0289 -1.4708
  156OSM   H18T17447   4.876   6.650   5.864 -0.0833  0.3608 -0.0119
  156OSM   H18U17448   4.747   6.731   5.958 -0.2050  0.4211 -0.5284
  156OSM    C1F17449   4.908   7.099   4.168  0.1985  0.3399  0.1660
  156OSM     OF17450   4.860   7.034   4.070 -0.0575  0.9808  0.4469
  156OSM    C2F17451   4.840   7.223   4.226 -0.2060 -0.0409  0.8117
  156OSM    H2F17452   4.772   7.274   4.154  2.1849 -0.4651 -1.9115
  156OSM    H2G17453   4.914   7.302   4.254  0.6074 -0.0831 -1.1151
  156OSM    C3F17454   4.745   7.211   4.353  0.4338  0.3283  0.3296
  156OSM    H3F17455   4.678   7.128   4.323 -0.7750  2.1704 -2.5676
  156OSM    H3G17456   4.678   7.300   4.355  1.5160  1.1628  0.6407
  156OSM    C4F17457   4.823   7.181   4.479  0.5027  0.0151  0.8796
  156OSM    H4F17458   4.859   7.274   4.527  1.0825 -0.4979  1.4526
  156OSM    H4G17459   4.907   7.111   4.459 -1.8163 -2.6771 -0.2632
  156OSM    C5F17460   4.741   7.104   4.584  0.0205 -0.1730 -0.5893
  156OSM    H5F17461   4.811   7.079   4.668  0.1457 -1.6199 -1.0930
  156OSM    H5G17462   4.704   7.011   4.537  1.0757 -1.1588  0.4600
  156OSM    C6F17463   4.620   7.194   4.634  0.0804  0.3069 -0.0285
  156OSM    H6F17464   4.552   7.231   4.554  0.5428  1.5795  0.1405
  156OSM    H6G17465   4.667   7.284   4.679  0.4131 -1.0524  2.5364
  156OSM    C7F17466   4.531   7.140   4.745 -0.4741 -0.3665  0.2867
  156OSM    H7F17467   4.596   7.114   4.831  1.1082  0.8568 -0.4923
  156OSM    H7G17468   4.492   7.043   4.709  1.6576 -1.4382  0.7310
  156OSM    C8F17469   4.416   7.233   4.787  0.5832  0.8201 -0.3408
  156OSM    H8F17470   4.350   7.181   4.859  0.7064  0.5183 -0.4465
  156OSM    H8G17471   4.337   7.246   4.709 -0.2080  1.3911  0.5337
  156OSM    C9F17472   4.457   7.373   4.828  0.2665  1.0665  0.2259
  156OSM    H9F17473   4.436   7.446   4.748 -0.3227  0.6224 -0.0368
  156OSM   C10F17474   4.517   7.415   4.938 -0.6502  0.4471  0.7175
  156OSM   H10F17475   4.551   7.520   4.941 -0.0514  0.2897 -0.3133
  156OSM   C11F17476   4.560   7.330   5.055  0.0315 -0.1487 -0.3342
  156OSM   H11F17477   4.656   7.364   5.100  0.3919 -1.1918 -0.2656
  156OSM   H11G17478   4.589   7.227   5.024  0.2141 -0.6985  1.5318
  156OSM   C12F17479   4.454   7.302   5.163 -0.1080 -0.4712 -0.0827
  156OSM   H12F17480   4.386   7.229   5.115 -0.6540 -0.3380  0.4811
  156OSM   H12G17481   4.405   7.395   5.200  0.6570 -0.5580  1.2180
  156OSM   C13F17482   4.504   7.216   5.280 -1.1656 -0.1343  0.4799
  156OSM   H13F17483   4.496   7.273   5.375  2.6547 -1.9952  2.1329
  156OSM   H13G17484   4.608   7.183   5.260 -1.1140 -0.0481  0.6004
  156OSM   C14F17485   4.418   7.094   5.310 -0.2849 -0.1498  0.6986
  156OSM   H14F17486   4.410   7.045   5.211  1.1543 -0.4720  0.7202
  156OSM   H14G17487   4.320   7.130   5.349 -0.0742  0.0951  1.0131
  156OSM   C15F17488   4.497   6.988   5.403  0.1174 -0.2867 -0.1692
  156OSM   H15F17489   4.536   7.048   5.488 -0.6907  0.0864 -0.0503
  156OSM   H15G17490   4.586   6.954   5.346 -0.6213 -2.0069 -0.3821
  156OSM   C16F17491   4.409   6.868   5.450 -0.1114 -0.4351 -0.2387
  156OSM   H16F17492   4.398   6.797   5.365  0.4558  0.9246 -1.5004
  156OSM   H16G17493   4.307   6.908   5.468 -1.3920 -2.9823 -1.2925
  156OSM   C17F17494   4.473   6.794   5.567 -0.0939 -0.2836  0.4471
  156OSM   H17F17495   4.581   6.786   5.542 -0.0095  1.2111  0.2656
  156OSM   H17G17496   4.437   6.689   5.572 -2.9823  0.6042 -0.1576
  156OSM   C18F17497   4.461   6.860   5.702 -0.4618  0.3702  0.2822
  156OSM   H18F17498   4.518   6.955   5.703 -2.2273  1.4808  0.5452
  156OSM   H18G17499   4.509   6.794   5.777  1.1904  0.5035 -0.6169
  156OSM   H18H17500   4.354   6.889   5.714 -0.4959 -0.3907  2.0978
  157OSM      N17501   4.749   1.058   4.380  0.1863  0.3374  0.4137
  157OSM    C1517502   4.814   1.092   4.510  0.4902 -0.3849 -0.7568
  157OSM   H15A17503   4.752   1.039   4.581  0.4230  2.4706  1.5101
  157OSM   H15B17504   4.795   1.196   4.530 -0.3987 -0.6420 -0.2358
  157OSM   H15C17505   4.913   1.052   4.526  0.0227 -0.6338  2.0534
  157OSM    C1417506   4.758   0.908   4.364  0.1440 -0.0490 -0.3316
  157OSM   H14A17507   4.860   0.876   4.352  0.2254  0.2892 -0.5543
  157OSM   H14B17508   4.704   0.876   4.276 -1.5806  0.4723  0.4807
  157OSM   H14C17509   4.711   0.855   4.446 -1.7504 -0.4852 -1.6234
  157OSM    C1317510   4.604   1.100   4.380  0.1505 -0.3225 -0.6994
  157OSM   H13A17511   4.597   1.205   4.404 -1.2750 -0.9387  1.8754
  157OSM   H13B17512   4.544   1.048   4.453  0.8356 -2.5397 -1.6247
  157OSM   H13C17513   4.559   1.094   4.282 -2.8748 -0.3660  0.5967
  157OSM    C1217514   4.815   1.128   4.256  0.4453  0.2488 -0.2893
  157OSM   H12A17515   4.910   1.079   4.242  0.4048 -0.1424  0.6877
  157OSM   H12B17516   4.825   1.233   4.278  0.1537  0.2926 -0.3695
  157OSM    C1117517   4.742   1.103   4.119 -0.0820 -0.0742  0.1655
  157OSM   H11A17518   4.733   0.995   4.095  2.2688 -1.6285  4.9448
  157OSM   H11B17519   4.818   1.140   4.047 -0.1834  1.3179  0.7438
  157OSM      P17520   4.598   1.309   4.031  0.2939 -0.3457  0.1341
  157OSM    O1317521   4.663   1.301   3.896 -0.2530 -0.3932  0.4579
  157OSM    O1417522   4.454   1.344   4.023 -0.9742 -0.0688 -0.5300
  157OSM    O1117523   4.661   1.425   4.116 -0.0589  0.4474 -0.0748
  157OSM    O1217524   4.615   1.164   4.110  0.2679  0.3494  0.3208
  157OSM    C1S17525   4.609   1.437   4.252 -0.0711 -0.6529 -0.6747
  157OSM    H1S17526   4.636   1.357   4.324 -0.4619  0.1543  0.4000
  157OSM    H1T17527   4.498   1.432   4.254 -0.0227 -2.8632 -1.1446
  157OSM     NF17528   4.637   1.562   4.466 -0.0807  0.1731  0.3400
  157OSM    HNF17529   4.564   1.608   4.515 -0.5727 -0.9071  0.6625
  157OSM    C2S17530   4.655   1.574   4.322 -0.4345 -0.1114  0.9245
  157OSM    H2S17531   4.760   1.588   4.289 -0.5156  0.8088  1.0259
  157OSM    C3S17532   4.569   1.688   4.268 -0.3987 -0.0475  0.5830
  157OSM    H3S17533   4.468   1.675   4.313  0.1325  0.6856  2.0531
  157OSM     O317534   4.565   1.680   4.125 -0.4593  0.3524 -0.5235
  157OSM    HO317535   4.616   1.599   4.121  0.0179  0.3770  2.5806
  157OSM    C4S17536   4.631   1.827   4.304  0.0144 -0.0017 -0.0638
  157OSM    H4S17537   4.716   1.856   4.240 -1.2323  1.5209 -1.1132
  157OSM    C5S17538   4.599   1.915   4.397  0.2430  0.1802 -0.1617
  157OSM    H5S17539   4.516   1.878   4.459  1.3111 -0.3720  1.0041
  157OSM    C6S17540   4.667   2.045   4.429  0.1419 -0.4276  0.0337
  157OSM    H6S17541   4.596   2.128   4.446  0.2654 -0.1250 -0.8351
  157OSM    H6T17542   4.735   2.086   4.350  0.1007 -0.1520  0.1398
  157OSM    C7S17543   4.736   2.037   4.559 -0.1769 -0.3531  0.5722
  157OSM    H7S17544   4.783   2.137   4.573 -1.4295  0.3890 -0.3215
  157OSM    H7T17545   4.817   1.962   4.546 -1.4894 -2.0845  1.9036
  157OSM    C8S17546   4.655   2.008   4.689 -0.1113 -1.1933 -0.5466
  157OSM    H8S17547   4.624   1.902   4.691 -3.0046 -0.4177 -0.1289
  157OSM    H8T17548   4.555   2.057   4.682  0.4797  0.0405 -0.7325
  157OSM    C9S17549   4.728   2.055   4.818 -0.8591 -0.2338  0.2184
  157OSM    H9S17550   4.758   2.162   4.812  1.7916 -0.9418 -0.6199
  157OSM    H9T17551   4.817   1.989   4.815 -1.2350 -0.7435  0.2217
  157OSM   C10S17552   4.642   2.029   4.945 -0.1075  0.0322  0.4139
  157OSM   H10S17553   4.606   1.924   4.945 -0.3028  0.0917  1.2334
  157OSM   H10T17554   4.550   2.090   4.945  0.0699  0.3702 -1.4592
  157OSM   C11S17555   4.709   2.065   5.076 -0.4432 -0.7479 -0.2296
  157OSM   H11S17556   4.710   2.176   5.090  0.6742 -0.6477 -1.0062
  157OSM   H11T17557   4.816   2.039   5.061 -0.3718  0.6705 -2.6655
  157OSM   C12S17558   4.667   1.986   5.191 -0.2458 -0.9556 -0.6060
  157OSM   H12S17559   4.673   1.876   5.177  0.3656 -0.9032 -0.7584
  157OSM   H12T17560   4.559   2.005   5.208 -0.5339 -1.7160 -1.4713
  157OSM   C13S17561   4.739   2.009   5.326 -0.4172  0.7177  0.4759
  157OSM   H13S17562   4.775   2.114   5.327 -1.8028  1.2624 -1.5171
  157OSM   H13T17563   4.830   1.946   5.335 -1.7445 -1.2872  0.4244
  157OSM   C14S17564   4.640   1.995   5.440  0.7708 -0.3615 -0.1724
  157OSM   H14S17565   4.590   1.896   5.435 -1.0627  0.5594 -1.8834
  157OSM   H14T17566   4.559   2.071   5.429  0.4498 -0.4794  1.1961
  157OSM   C15S17567   4.707   2.015   5.575 -0.0208 -0.0239  0.1268
  157OSM   H15S17568   4.772   2.106   5.572  0.9184 -0.6958 -0.3105
  157OSM   H15T17569   4.773   1.927   5.589 -0.6482 -0.9539 -2.3139
  157OSM   C16S17570   4.603   2.021   5.683 -0.1746  0.9596  0.5311
  157OSM   H16S17571   4.579   1.915   5.705  1.7896  0.1969 -0.7459
  157OSM   H16T17572   4.510   2.074   5.651 -1.1955 -1.3869 -0.6986
  157OSM   C17S17573   4.653   2.083   5.810 -0.0486  0.3888 -0.8704
  157OSM   H17S17574   4.677   2.190   5.793 -1.7146  0.5500 -2.5599
  157OSM   H17T17575   4.749   2.031   5.830 -0.2193 -0.3260 -1.8459
  157OSM   C18S17576   4.552   2.063   5.924 -0.1372 -0.1316 -0.2660
  157OSM   H18S17577   4.538   1.957   5.954 -1.8987  0.6908  2.0434
  157OSM   H18T17578   4.454   2.097   5.885  0.5262 -0.1937 -2.1358
  157OSM   H18U17579   4.584   2.130   6.007  0.6835  0.7882 -1.2904
  157OSM    C1F17580   4.718   1.475   4.528 -0.1489  0.2013 -0.1806
  157OSM     OF17581   4.815   1.422   4.474 -0.0492  0.2076  0.6558
  157OSM    C2F17582   4.683   1.440   4.665 -0.0990 -0.3718 -0.3457
  157OSM    H2F17583   4.632   1.342   4.675  0.6260 -0.7274 -0.0414
  157OSM    H2G17584   4.611   1.515   4.704  0.0624 -0.4801  0.1743
  157OSM    C3F17585   4.814   1.446   4.753  0.7613 -0.0278  0.0017
  157OSM    H3F17586   4.895   1.375   4.727  1.2953  0.0106  1.4634
  157OSM    H3G17587   4.779   1.421   4.855  0.0959 -1.7311 -0.6097
  157OSM    C4F17588   4.862   1.599   4.757  0.6621 -0.4356 -0.3475
  157OSM    H4F17589   4.814   1.649   4.671 -0.4321  0.9364  0.9957
  157OSM    H4G17590   4.972   1.602   4.740  0.7770  2.4821  0.3369
  157OSM    C5F17591   4.832   1.679   4.891 -0.2851  0.7699  0.5723
  157OSM    H5F17592   4.722   1.692   4.904 -1.0182 -2.5418 -1.2352
  157OSM    H5G17593   4.875   1.781   4.877  0.3883  0.9194  3.2679
  157OSM    C6F17594   4.917   1.619   5.002  0.6125 -0.6241  0.9452
  157OSM    H6F17595   5.025   1.618   4.975  0.6199 -2.2703  0.9640
  157OSM    H6G17596   4.888   1.515   5.025 -3.0547  0.3348  1.3237
  157OSM    C7F17597   4.905   1.710   5.127  0.3990  0.7824  0.3432
  157OSM    H7F17598   4.796   1.720   5.142  0.5954  1.7171  1.3014
  157OSM    H7G17599   4.944   1.811   5.103 -1.8826  1.7536  0.4702
  157OSM    C8F17600   4.983   1.647   5.243 -0.3300  0.7526 -1.4734
  157OSM    H8F17601   5.004   1.715   5.328  1.6423  1.4679 -2.4610
  157OSM    H8G17602   5.083   1.618   5.203  0.0973  0.8437 -0.4867
  157OSM    C9F17603   4.922   1.520   5.297  0.4125  0.3324 -0.4850
  157OSM    H9F17604   4.955   1.426   5.251  0.5946  1.1945 -2.1909
  157OSM   C10F17605   4.819   1.520   5.389 -1.1084 -0.1399  0.0295
  157OSM   H10F17606   4.781   1.424   5.426 -0.9228 -0.5433 -0.7888
  157OSM   C11F17607   4.765   1.649   5.457  0.3028  0.5823 -0.1360
  157OSM   H11F17608   4.680   1.689   5.398 -0.1025 -0.6127 -0.3924
  157OSM   H11G17609   4.832   1.737   5.455 -1.1486  1.7098 -1.6932
  157OSM   C12F17610   4.703   1.636   5.603  0.3896  0.3544  0.3680
  157OSM   H12F17611   4.616   1.567   5.600  0.5521  0.1254  0.8777
  157OSM   H12G17612   4.655   1.734   5.624 -1.7678 -0.6815  0.5605
  157OSM   C13F17613   4.802   1.597   5.712 -0.2673  0.4388 -0.0707
  157OSM   H13F17614   4.884   1.672   5.707 -0.8568  1.2717  1.9155
  157OSM   H13G17615   4.842   1.497   5.684 -1.5350  0.1620 -0.9840
  157OSM   C14F17616   4.724   1.586   5.850  0.0264 -0.0906 -0.0372
  157OSM   H14F17617   4.786   1.541   5.931  1.0234  1.0837 -0.1246
  157OSM   H14G17618   4.631   1.527   5.834 -0.6740  0.1459  2.6630
  157OSM   C15F17619   4.663   1.710   5.913 -0.6027  0.1761 -0.6623
  157OSM   H15F17620   4.579   1.754   5.856  0.1350  1.2366 -0.9457
  157OSM   H15G17621   4.740   1.789   5.918 -0.5536  0.1032 -0.1880
  157OSM   C16F17622   4.606   1.685   6.052 -0.5454 -0.1225 -0.6435
  157OSM   H16F17623   4.594   1.782   6.105  1.6507 -0.6592  0.9985
  157OSM   H16G17624   4.688   1.633   6.105 -0.1636  1.5343  0.4636
  157OSM   C17F17625   4.477   1.603   6.063  0.5946  0.3889  0.9705
  157OSM   H17F17626   4.452   1.585   6.169  2.9432 -1.5536  1.2757
  157OSM   H17G17627   4.488   1.505   6.011  2.8046  1.4342 -0.6846
  157OSM   C18F17628   4.365   1.677   5.998 -0.2650 -0.0361 -0.4928
  157OSM   H18F17629   4.373   1.698   5.889  0.0837 -1.0123 -0.6653
  157OSM   H18G17630   4.343   1.769   6.055 -2.6521  1.3648 -3.3879
  157OSM   H18H17631   4.269   1.621   6.007 -0.3975  0.2121 -0.3521
  158OSM      N17632   0.958   5.170   3.676 -0.1498 -0.1306  0.5199
  158OSM    C1517633   0.835   5.257   3.676  0.1421 -0.0012  0.6730
  158OSM   H15A17634   0.754   5.217   3.736  0.4572  3.4484  3.8003
  158OSM   H15B17635   0.800   5.261   3.574 -0.1284  1.5129  0.8084
  158OSM   H15C17636   0.853   5.353   3.722  2.5972 -0.0028 -0.1476
  158OSM    C1417637   0.971   5.123   3.822 -0.0953 -0.3730 -0.2107
  158OSM   H14A17638   0.997   5.210   3.881 -2.8056  0.5029 -0.1665
  158OSM   H14B17639   1.045   5.045   3.827 -0.5127 -0.9082 -1.8222
  158OSM   H14C17640   0.877   5.087   3.860  0.1615 -0.9339 -0.1009
  158OSM    C1317641   0.935   5.049   3.593  0.3046 -0.3170  0.0652
  158OSM   H13A17642   0.861   4.982   3.632  0.9787 -1.3339 -0.3675
  158OSM   H13B17643   1.026   4.993   3.579 -0.1656 -0.7635 -1.4874
  158OSM   H13C17644   0.923   5.069   3.487  0.0832  1.0237  0.3208
  158OSM    C1217645   1.085   5.245   3.633  0.3723 -0.2507  0.3863
  158OSM   H12A17646   1.169   5.177   3.632  1.0556  0.5686 -0.4013
  158OSM   H12B17647   1.116   5.314   3.710 -2.0039  1.5144 -0.1239
  158OSM    C1117648   1.096   5.325   3.495  0.0754 -0.1982  0.7230
  158OSM   H11A17649   1.060   5.269   3.406  0.9517  1.1671 -0.5259
  158OSM   H11B17650   1.201   5.360   3.479  0.3628 -1.4489 -0.3208
  158OSM      P17651   1.061   5.584   3.489 -0.0073  0.1316  0.1795
  158OSM    O1317652   1.138   5.586   3.365  0.0268  0.3565 -0.1458
  158OSM    O1417653   0.964   5.692   3.510 -0.4930 -0.2629  0.0487
  158OSM    O1117654   1.169   5.597   3.610 -0.8105 -0.4073 -0.1110
  158OSM    O1217655   1.001   5.439   3.510 -0.1704  0.6007 -0.4526
  158OSM    C1S17656   1.122   5.588   3.740  0.8389 -0.3357  1.1883
  158OSM    H1S17657   1.054   5.503   3.760  1.0392 -0.6432  0.5746
  158OSM    H1T17658   1.073   5.684   3.765  1.8556  0.0880  1.6030
  158OSM     NF17659   1.193   5.551   3.982 -0.3593  0.1879 -0.0448
  158OSM    HNF17660   1.196   5.629   4.044  0.7942  2.7437 -3.0377
  158OSM    C2S17661   1.238   5.589   3.846  0.1525  0.2637 -0.5203
  158OSM    H2S17662   1.308   5.509   3.811 -0.8133 -2.2870  2.8879
  158OSM    C3S17663   1.317   5.721   3.834  0.5995  0.5655 -0.2303
  158OSM    H3S17664   1.240   5.801   3.840 -2.1426 -1.9820  1.8773
  158OSM     O317665   1.381   5.746   3.714 -0.1024  0.2623  0.4059
  158OSM    HO317666   1.342   5.678   3.657  1.7087 -0.3688 -0.1453
  158OSM    C4S17667   1.420   5.735   3.940  0.9043  0.2840 -0.3881
  158OSM    H4S17668   1.509   5.672   3.925 -0.1287 -1.1141 -0.7543
  158OSM    C5S17669   1.419   5.809   4.049 -0.0543 -0.2339 -0.3531
  158OSM    H5S17670   1.338   5.878   4.078  1.7116  0.9165  2.2444
  158OSM    C6S17671   1.532   5.824   4.150 -0.2055 -0.3890  0.3712
  158OSM    H6S17672   1.565   5.929   4.166  0.2013 -0.5908  0.8638
  158OSM    H6T17673   1.621   5.763   4.123 -0.7824 -2.6086  3.0932
  158OSM    C7S17674   1.482   5.770   4.287  0.1959  0.3212  0.3036
  158OSM    H7S17675   1.575   5.756   4.347  1.0885  2.3393 -0.5107
  158OSM    H7T17676   1.426   5.677   4.266  1.0915 -0.3896  0.9472
  158OSM    C8S17677   1.396   5.847   4.382 -0.1409 -0.4223 -0.1730
  158OSM    H8S17678   1.297   5.864   4.335 -1.2654 -0.8979  1.9078
  158OSM    H8T17679   1.433   5.952   4.385  0.0370 -0.4308 -1.4957
  158OSM    C9S17680   1.393   5.782   4.526  0.5853  0.1262  0.1902
  158OSM    H9S17681   1.496   5.795   4.565  1.4267 -0.3418 -1.7752
  158OSM    H9T17682   1.366   5.675   4.513  1.0580  0.0553 -0.2519
  158OSM   C10S17683   1.296   5.862   4.618 -0.2201 -0.1654  0.2429
  158OSM   H10S17684   1.203   5.886   4.563  0.0607  2.5114  0.7692
  158OSM   H10T17685   1.334   5.966   4.631  1.5478 -0.7083 -0.3173
  158OSM   C11S17686   1.262   5.795   4.748 -0.1079 -0.7022  0.6206
  158OSM   H11S17687   1.332   5.711   4.770  3.4854  1.9984  0.4161
  158OSM   H11T17688   1.157   5.758   4.743 -0.4568  0.3636 -0.4285
  158OSM   C12S17689   1.267   5.896   4.861 -0.9090 -0.5228 -0.3307
  158OSM   H12S17690   1.182   5.968   4.862 -1.6641 -1.3549  1.6205
  158OSM   H12T17691   1.364   5.949   4.853 -0.6731 -1.0969 -1.4640
  158OSM   C13S17692   1.250   5.819   4.995 -0.1005 -0.0815 -0.0598
  158OSM   H13S17693   1.176   5.737   4.981  0.2862 -0.2885 -0.9350
  158OSM   H13T17694   1.210   5.887   5.074 -1.0917 -1.1149  0.3669
  158OSM   C14S17695   1.372   5.746   5.058 -0.7215 -0.1575 -0.2282
  158OSM   H14S17696   1.458   5.816   5.061 -1.6163  1.0256 -1.4063
  158OSM   H14T17697   1.419   5.682   4.980  1.0994 -0.4911  1.0640
  158OSM   C15S17698   1.358   5.657   5.180  0.2112  0.6653 -0.6299
  158OSM   H15S17699   1.457   5.624   5.217  0.0775 -0.4691 -1.2369
  158OSM   H15T17700   1.301   5.565   5.151  0.3855  0.6416 -0.8992
  158OSM   C16S17701   1.288   5.721   5.304  0.1866  0.7954  0.2834
  158OSM   H16S17702   1.181   5.745   5.287  0.0122 -0.2229 -0.1764
  158OSM   H16T17703   1.347   5.814   5.319 -0.5449  1.5598 -1.3407
  158OSM   C17S17704   1.288   5.632   5.433  0.2331 -0.0085  0.2332
  158OSM   H17S17705   1.216   5.678   5.504 -0.4107 -0.8181  0.1236
  158OSM   H17T17706   1.391   5.643   5.474  0.3097  2.9382 -0.4877
  158OSM   C18S17707   1.254   5.486   5.418  0.3568  0.7476 -0.1214
  158OSM   H18S17708   1.327   5.433   5.353  2.2307  0.1235  2.3422
  158OSM   H18T17709   1.151   5.478   5.378  0.8925 -2.1008 -1.1851
  158OSM   H18U17710   1.270   5.434   5.515  1.1985  2.4424  0.7063
  158OSM    C1F17711   1.141   5.437   4.018 -0.1016  0.6501  0.5827
  158OSM     OF17712   1.157   5.335   3.953  0.3510 -0.7281 -0.3089
  158OSM    C2F17713   1.056   5.443   4.144 -0.3833  0.0799  0.6508
  158OSM    H2F17714   1.009   5.543   4.145 -3.3073 -1.0538 -2.5167
  158OSM    H2G17715   1.126   5.425   4.229  1.3002 -0.2418 -0.7441
  158OSM    C3F17716   0.936   5.343   4.141 -0.1789  0.0728  0.3604
  158OSM    H3F17717   0.978   5.241   4.126  1.0499  0.6274 -0.1226
  158OSM    H3G17718   0.858   5.367   4.065 -2.1066 -1.7782  1.6347
  158OSM    C4F17719   0.851   5.336   4.274  0.4394  0.3838 -0.8639
  158OSM    H4F17720   0.767   5.272   4.240 -0.8990  1.4894  0.2513
  158OSM    H4G17721   0.812   5.436   4.302 -1.9222 -0.9001  0.8554
  158OSM    C5F17722   0.927   5.264   4.379  0.0729  0.4400 -0.4836
  158OSM    H5F17723   1.002   5.199   4.329 -0.4822  1.4797 -2.8061
  158OSM    H5G17724   0.865   5.189   4.433 -1.1224 -1.1693 -3.8070
  158OSM    C6F17725   0.995   5.355   4.483 -0.0386  0.0664 -0.0465
  158OSM    H6F17726   0.923   5.385   4.562 -1.4467  0.9342 -1.5860
  158OSM    H6G17727   1.024   5.445   4.424 -1.6707  0.1216 -0.8343
  158OSM    C7F17728   1.114   5.295   4.554  0.2881 -0.3751 -0.2812
  158OSM    H7F17729   1.180   5.253   4.476 -0.5678  0.6119 -1.5704
  158OSM    H7G17730   1.083   5.212   4.622  1.8624 -1.0788 -0.3693
  158OSM    C8F17731   1.185   5.395   4.646 -0.4561  0.6191 -0.1852
  158OSM    H8F17732   1.216   5.477   4.578 -2.5940  1.2775 -0.4337
  158OSM    H8G17733   1.279   5.344   4.677 -1.8164 -1.9694 -0.0245
  158OSM    C9F17734   1.098   5.442   4.763 -0.4216 -0.0761  0.5175
  158OSM    H9F17735   1.027   5.525   4.748 -2.1755 -0.9552  3.2434
  158OSM   C10F17736   1.098   5.385   4.882  0.3356  0.3281  0.1833
  158OSM   H10F17737   1.045   5.427   4.969 -1.6644  0.0989 -0.8664
  158OSM   C11F17738   1.170   5.262   4.918 -0.5969  0.4729  0.0449
  158OSM   H11F17739   1.265   5.247   4.863  0.4993  0.3469  1.8929
  158OSM   H11G17740   1.108   5.171   4.902 -0.6786  0.4870  0.2786
  158OSM   C12F17741   1.209   5.256   5.069 -0.0914 -0.5491  0.2357
  158OSM   H12F17742   1.116   5.267   5.129  0.7901  2.2519  1.2375
  158OSM   H12G17743   1.261   5.349   5.100  0.0083  0.4926 -2.7249
  158OSM   C13F17744   1.279   5.127   5.119 -0.6435 -0.5811 -0.3911
  158OSM   H13F17745   1.381   5.125   5.075 -0.6517  1.2565 -0.5879
  158OSM   H13G17746   1.230   5.034   5.083  1.4801 -1.6502 -0.6836
  158OSM   C14F17747   1.272   5.125   5.273 -0.6295 -0.0730 -0.4232
  158OSM   H14F17748   1.217   5.213   5.313  1.1498  0.1703  1.6752
  158OSM   H14G17749   1.373   5.149   5.311 -1.0357 -0.6007  1.0782
  158OSM   C15F17750   1.228   4.996   5.332  0.0394 -0.2434 -0.6063
  158OSM   H15F17751   1.273   4.909   5.279  1.0348 -0.2127  0.1620
  158OSM   H15G17752   1.117   4.996   5.343  0.1179 -1.0779  0.2773
  158OSM   C16F17753   1.299   4.979   5.476 -0.6818  0.1233  0.5851
  158OSM   H16F17754   1.213   4.932   5.528 -1.1439  0.5963  0.2630
  158OSM   H16G17755   1.322   5.076   5.526 -0.2824  0.3788 -0.0841
  158OSM   C17F17756   1.424   4.891   5.491 -0.1461  0.0289 -0.1398
  158OSM   H17F17757   1.491   4.934   5.414  1.6284  0.4012  1.5190
  158OSM   H17G17758   1.405   4.784   5.468 -2.0468 -0.0220  1.3877
  158OSM   C18F17759   1.492   4.883   5.627  0.3953 -0.2280 -1.0770
  158OSM   H18F17760   1.420   4.837   5.698  0.7274  0.7306 -0.0914
  158OSM   H18G17761   1.515   4.989   5.652 -0.1849  0.4505 -3.2144
  158OSM   H18H17762   1.580   4.817   5.639 -0.3937 -0.9004  1.8285
  159OSM      N17763   5.048   0.725   3.748  0.6216 -0.2741  0.5181
  159OSM    C1517764   5.032   0.873   3.733  0.1381 -0.3868 -0.2130
  159OSM   H15A17765   5.129   0.920   3.734 -0.6061  1.2278  0.9393
  159OSM   H15B17766   4.972   0.905   3.818 -0.1571  0.1271 -0.6106
  159OSM   H15C17767   4.981   0.894   3.640  0.1046  0.3918 -0.0312
  159OSM    C1417768   4.912   0.671   3.748  0.0845 -0.0580  0.7454
  159OSM   H14A17769   4.862   0.720   3.830 -3.0237 -1.5274 -0.1246
  159OSM   H14B17770   4.905   0.565   3.762 -1.8420 -0.2780 -1.2612
  159OSM   H14C17771   4.867   0.680   3.650  0.5131 -1.1073  0.4375
  159OSM    C1317772   5.125   0.665   3.632 -0.8282  0.1421 -0.2072
  159OSM   H13A17773   5.221   0.715   3.634  1.6199 -4.0666  2.4735
  159OSM   H13B17774   5.074   0.677   3.538  0.8331  2.2855 -0.9205
  159OSM   H13C17775   5.154   0.563   3.650  0.3238  0.3564 -0.7555
  159OSM    C1217776   5.125   0.688   3.880 -0.6508  0.4953 -0.0273
  159OSM   H12A17777   5.062   0.728   3.958 -0.9407 -0.7255  0.3946
  159OSM   H12B17778   5.222   0.732   3.891  0.4834 -1.9643  0.6048
  159OSM    C1117779   5.133   0.535   3.909  0.2130 -0.0623  0.0430
  159OSM   H11A17780   5.034   0.494   3.882 -0.5572  2.4629 -1.2459
  159OSM   H11B17781   5.154   0.521   4.018  1.2050  3.4030  0.4208
  159OSM      P17782   5.387   0.492   3.847  0.0295 -0.3350 -0.0547
  159OSM    O1317783   5.450   0.407   3.737  0.2383 -0.0115  0.2473
  159OSM    O1417784   5.410   0.635   3.846 -0.3955  0.4231  0.4798
  159OSM    O1117785   5.426   0.435   3.988  0.8981 -0.2755  0.4354
  159OSM    O1217786   5.230   0.467   3.833  0.5282  0.2835 -0.0025
  159OSM    C1S17787   5.449   0.511   4.104 -0.4685 -0.2628 -0.1638
  159OSM    H1S17788   5.360   0.574   4.125  1.1334  2.1173 -0.1956
  159OSM    H1T17789   5.523   0.592   4.086  0.2216 -0.8593 -0.0976
  159OSM     NF17790   5.531   0.534   4.341  0.4243  0.3876 -0.8654
  159OSM    HNF17791   5.623   0.524   4.377 -0.5772 -0.5750  1.6593
  159OSM    C2S17792   5.488   0.438   4.238  0.1217 -0.2329  0.6908
  159OSM    H2S17793   5.395   0.389   4.273  0.3845 -2.1931 -1.1283
  159OSM    C3S17794   5.587   0.315   4.219 -0.8624 -0.0787 -0.5179
  159OSM    H3S17795   5.684   0.352   4.181  0.8118 -1.8546  1.7562
  159OSM     O317796   5.533   0.234   4.116  0.3752 -0.0680  0.3347
  159OSM    HO317797   5.473   0.300   4.082 -3.4457 -1.6643  3.2126
  159OSM    C4S17798   5.613   0.220   4.336 -0.0873  0.0138  0.2968
  159OSM    H4S17799   5.517   0.201   4.386 -0.2162  1.8957  0.8588
  159OSM    C5S17800   5.725   0.157   4.380  0.8508 -0.6003  0.8173
  159OSM    H5S17801   5.822   0.181   4.333  0.1134  3.4025  1.0196
  159OSM    C6S17802   5.752   0.064   4.496  0.1807  0.4541 -1.0059
  159OSM    H6S17803   5.858   0.076   4.529 -0.0196 -1.0931  0.2886
  159OSM    H6T17804   5.748  -0.042   4.464  0.1926  0.1938 -0.1719
  159OSM    C7S17805   5.649   0.072   4.612 -0.3369 -0.1861 -0.2072
  159OSM    H7S17806   5.556   0.019   4.582  0.5420 -0.3512 -2.8653
  159OSM    H7T17807   5.617   0.176   4.635  1.5386  0.3099  0.3517
  159OSM    C8S17808   5.720   0.012   4.736  0.4803 -0.3238  0.0004
  159OSM    H8S17809   5.810   0.063   4.779  0.2455 -1.0192  1.3782
  159OSM    H8T17810   5.736  -0.097   4.724  0.0189 -0.3361 -0.5321
  159OSM    C9S17811   5.617   0.014   4.853  0.4988  0.3324  0.0749
  159OSM    H9S17812   5.532  -0.047   4.815  1.7551 -1.0890 -0.5521
  159OSM    H9T17813   5.586   0.121   4.851  1.0975  0.5132 -2.2263
  159OSM   C10S17814   5.661  -0.037   4.991 -0.0084  0.7301  0.2643
  159OSM   H10S17815   5.744   0.031   5.021 -0.7995  0.7599  2.5237
  159OSM   H10T17816   5.697  -0.142   4.982  0.2061  0.8013  0.2887
  159OSM   C11S17817   5.555  -0.029   5.101  0.2699 -0.2198  0.2004
  159OSM   H11S17818   5.471  -0.098   5.080 -1.0761  2.1399 -2.9241
  159OSM   H11T17819   5.502   0.069   5.105  1.2664  0.2978  1.5135
  159OSM   C12S17820   5.606  -0.059   5.249 -0.0100 -0.0527 -0.0801
  159OSM   H12S17821   5.660   0.036   5.267 -2.4835  1.6667 -1.2006
  159OSM   H12T17822   5.665  -0.154   5.251 -3.9196 -2.7524 -0.5385
  159OSM   C13S17823   5.485  -0.081   5.338 -0.8437  0.3964  0.2642
  159OSM   H13S17824   5.422  -0.162   5.294  1.1928 -0.7858 -0.6454
  159OSM   H13T17825   5.424   0.011   5.323 -0.0458  1.0318  0.8983
  159OSM   C14S17826   5.513  -0.100   5.485 -0.4827  0.4195  0.0604
  159OSM   H14S17827   5.573  -0.015   5.525 -1.5585  0.3706  1.9086
  159OSM   H14T17828   5.560  -0.195   5.519 -2.0040  0.0113  1.1200
  159OSM   C15S17829   5.378  -0.095   5.563 -0.0763  0.5670 -0.0427
  159OSM   H15S17830   5.307  -0.169   5.521 -0.2984  0.3648  0.6787
  159OSM   H15T17831   5.345   0.010   5.552  2.0303  1.1617 -1.4238
  159OSM   C16S17832   5.405  -0.121   5.712  0.1328 -0.0898 -0.3928
  159OSM   H16S17833   5.463  -0.035   5.753 -2.0437  1.0309  0.4966
  159OSM   H16T17834   5.465  -0.213   5.726 -0.4438 -0.6637 -1.5388
  159OSM   C17S17835   5.270  -0.120   5.778 -0.0927  0.4355  0.2871
  159OSM   H17S17836   5.201  -0.189   5.725  0.5852 -0.2012  0.2081
  159OSM   H17T17837   5.234  -0.016   5.761 -0.1628  0.1119 -1.8555
  159OSM   C18S17838   5.259  -0.156   5.927  0.0027 -0.3758  0.1767
  159OSM   H18S17839   5.344  -0.108   5.980  2.5396 -3.1932 -1.0033
  159OSM   H18T17840   5.278  -0.264   5.946 -0.5306 -0.1877  1.9068
  159OSM   H18U17841   5.156  -0.147   5.967  0.9724  1.0022  2.5656
  159OSM    C1F17842   5.456   0.635   4.385  0.4839  0.2340  0.9018
  159OSM     OF17843   5.330   0.625   4.378  0.0992  0.5808  0.3388
  159OSM    C2F17844   5.524   0.756   4.438  0.1708 -0.8514  0.3840
  159OSM    H2F17845   5.587   0.794   4.355 -0.0426  1.3646  1.1793
  159OSM    H2G17846   5.594   0.737   4.523  0.9492  0.0645 -0.0329
  159OSM    C3F17847   5.442   0.875   4.491  0.1264  0.2550  1.0393
  159OSM    H3F17848   5.363   0.897   4.416  0.8118  0.8724  0.4828
  159OSM    H3G17849   5.503   0.965   4.513  0.2197  0.0121  1.7831
  159OSM    C4F17850   5.381   0.843   4.630 -0.5603  0.3056 -0.1711
  159OSM    H4F17851   5.452   0.782   4.690 -0.6796  1.1003  0.8105
  159OSM    H4G17852   5.293   0.776   4.619 -0.6240  0.2822  0.4074
  159OSM    C5F17853   5.340   0.969   4.707  1.2848 -0.5389 -0.6333
  159OSM    H5F17854   5.288   1.034   4.633  0.5550  1.4446  1.4714
  159OSM    H5G17855   5.426   1.034   4.735 -0.3524  0.7111  1.8625
  159OSM    C6F17856   5.254   0.945   4.834 -0.6698 -0.1453  0.0148
  159OSM    H6F17857   5.259   1.034   4.901 -1.5077 -0.6610  0.7911
  159OSM    H6G17858   5.296   0.862   4.896 -0.0853  0.8654  1.0087
  159OSM    C7F17859   5.107   0.918   4.809  0.6435  0.3888 -0.2797
  159OSM    H7F17860   5.095   0.832   4.740  1.6060  0.8429 -1.0470
  159OSM    H7G17861   5.070   1.012   4.762  0.2529  1.9801  2.9255
  159OSM    C8F17862   5.025   0.882   4.936  0.0656 -0.5217  0.3150
  159OSM    H8F17863   5.089   0.813   4.996  2.2542  0.4503 -0.7560
  159OSM    H8G17864   4.927   0.835   4.916 -1.4861  2.4614  0.2939
  159OSM    C9F17865   4.998   1.002   5.023  0.1722 -0.2146 -0.1200
  159OSM    H9F17866   4.983   1.093   4.962 -0.1364 -0.9289 -1.1494
  159OSM   C10F17867   4.968   1.008   5.155  0.3520  0.6714 -0.4415
  159OSM   H10F17868   4.949   1.105   5.202  0.5823  0.4062  0.2083
  159OSM   C11F17869   4.956   0.885   5.246  0.1469  0.1222  0.3380
  159OSM   H11F17870   5.023   0.898   5.334  2.3777  1.8607 -1.4743
  159OSM   H11G17871   4.997   0.797   5.191 -1.4216  1.5648 -3.5032
  159OSM   C12F17872   4.813   0.875   5.293 -0.8561 -0.1689  0.6568
  159OSM   H12F17873   4.745   0.861   5.206  0.4127  0.0257 -0.3911
  159OSM   H12G17874   4.793   0.969   5.349 -1.6958 -0.8974  1.6208
  159OSM   C13F17875   4.791   0.758   5.391  1.3133  0.7018  1.0450
  159OSM   H13F17876   4.873   0.757   5.466 -0.0911  0.2400  2.6074
  159OSM   H13G17877   4.806   0.665   5.331  1.8985  1.7955 -0.5869
  159OSM   C14F17878   4.645   0.762   5.451 -0.2123 -0.0572  0.0599
  159OSM   H14F17879   4.572   0.776   5.369  0.5234  2.1789 -0.2761
  159OSM   H14G17880   4.648   0.852   5.515 -2.4097 -0.0460  0.2136
  159OSM   C15F17881   4.599   0.646   5.539  0.1157  0.1594  0.2090
  159OSM   H15F17882   4.571   0.559   5.477 -2.2536  0.9540  0.0901
  159OSM   H15G17883   4.507   0.680   5.591 -1.3678 -2.0222 -0.8576
  159OSM   C16F17884   4.693   0.600   5.642 -0.3249 -0.2070 -0.3991
  159OSM   H16F17885   4.723   0.682   5.711  0.5861  0.3746 -1.4664
  159OSM   H16G17886   4.790   0.579   5.592 -0.5045  0.4067 -1.0096
  159OSM   C17F17887   4.639   0.487   5.734 -0.1084  0.0490  0.5702
  159OSM   H17F17888   4.602   0.407   5.666 -0.2384  0.3630  0.2664
  159OSM   H17G17889   4.556   0.533   5.792 -0.7152 -2.1021  1.4913
  159OSM   C18F17890   4.746   0.440   5.829 -0.4261 -0.2353  0.0907
  159OSM   H18F17891   4.712   0.357   5.893  0.9222 -0.5150  0.4815
  159OSM   H18G17892   4.791   0.516   5.896  2.9104 -2.1669  0.2752
  159OSM   H18H17893   4.839   0.402   5.782 -1.4567 -2.1584 -0.4729
  160OSM      N17894   2.574   5.195   3.404 -0.3648  0.0001 -0.0587
  160OSM    C1517895   2.563   5.069   3.327  0.0109  0.0218  0.1463
  160OSM   H15A17896   2.458   5.044   3.328 -0.4709  1.8842 -0.8688
  160OSM   H15B17897   2.617   4.988   3.375 -2.3752 -1.0263  1.2285
  160OSM   H15C17898   2.593   5.082   3.224 -0.5110 -0.2616 -0.0479
  160OSM    C1417899   2.718   5.233   3.414 -0.4308 -0.2261  0.3417
  160OSM   H14A17900   2.720   5.332   3.456  3.2387 -0.4660  1.0221
  160OSM   H14B17901   2.773   5.222   3.322  2.4055 -0.1608  1.9302
  160OSM   H14C17902   2.781   5.166   3.470  0.6358 -0.9903 -1.6867
  160OSM    C1317903   2.510   5.306   3.320 -0.1091  0.3685  0.3700
  160OSM   H13A17904   2.405   5.283   3.306 -0.2006 -0.5427  2.2615
  160OSM   H13B17905   2.555   5.318   3.222  0.1164  0.7313  0.5175
  160OSM   H13C17906   2.508   5.398   3.375 -1.7313  1.1386 -0.8890
  160OSM    C1217907   2.503   5.181   3.532  0.1610  0.4822  0.5302
  160OSM   H12A17908   2.403   5.143   3.519  0.7396 -0.3684 -2.2197
  160OSM   H12B17909   2.481   5.280   3.568  1.1499  1.3825 -1.1945
  160OSM    C1117910   2.563   5.097   3.649  0.0048  0.3845 -0.6788
  160OSM   H11A17911   2.556   4.989   3.625 -0.7684 -0.4883  2.9355
  160OSM   H11B17912   2.489   5.105   3.731 -0.2953 -0.7105 -0.8294
  160OSM      P17913   2.805   5.043   3.732  0.1642 -0.0907  0.0023
  160OSM    O1317914   2.835   4.958   3.610 -0.0738 -0.6984 -0.1468
  160OSM    O1417915   2.926   5.113   3.783  0.4516 -0.2992  0.0893
  160OSM    O1117916   2.751   4.940   3.844  0.1439 -0.0717  0.0073
  160OSM    O1217917   2.689   5.151   3.696 -0.2363  0.2361 -0.6194
  160OSM    C1S17918   2.698   4.988   3.965 -0.2348  0.4266  0.1891
  160OSM    H1S17919   2.612   5.053   3.939 -0.6147 -1.0272 -2.5141
  160OSM    H1T17920   2.772   5.056   4.014  1.0216 -1.6709  1.3475
  160OSM     NF17921   2.597   4.948   4.181 -0.0683  0.0479 -0.4665
  160OSM    HNF17922   2.648   4.937   4.266 -0.6869  0.3733 -0.0458
  160OSM    C2S17923   2.663   4.882   4.069 -0.0389 -0.5048  0.1837
  160OSM    H2S17924   2.586   4.816   4.022  2.2372 -2.0993 -1.5289
  160OSM    C3S17925   2.778   4.783   4.105 -0.2053 -0.1358 -0.0147
  160OSM    H3S17926   2.860   4.841   4.153 -0.0662 -1.3768  1.3241
  160OSM     O317927   2.842   4.729   3.990  0.5349 -0.1437 -0.4761
  160OSM    HO317928   2.800   4.768   3.913  3.4585  0.8197 -1.7425
  160OSM    C4S17929   2.734   4.681   4.207 -0.0012  0.4774 -0.5464
  160OSM    H4S17930   2.723   4.721   4.309  1.5873 -4.2059  1.7622
  160OSM    C5S17931   2.702   4.554   4.195  0.4700 -0.2638 -0.3578
  160OSM    H5S17932   2.708   4.504   4.097  0.8422 -0.8248 -0.0549
  160OSM    C6S17933   2.644   4.460   4.298 -0.2591 -0.2289  0.6136
  160OSM    H6S17934   2.672   4.355   4.276 -1.7770 -0.3318 -0.9762
  160OSM    H6T17935   2.534   4.467   4.288 -0.2671 -0.6886  0.3921
  160OSM    C7S17936   2.675   4.479   4.447 -0.0278  0.2018 -0.3275
  160OSM    H7S17937   2.622   4.571   4.479 -0.1951  0.6735 -1.8558
  160OSM    H7T17938   2.779   4.504   4.479 -0.2554  0.3384  0.3177
  160OSM    C8S17939   2.625   4.358   4.537 -0.0182 -0.7006 -0.2453
  160OSM    H8S17940   2.672   4.353   4.637  0.6033  1.6207 -0.3459
  160OSM    H8T17941   2.653   4.272   4.473 -0.8817 -0.6408 -0.7263
  160OSM    C9S17942   2.478   4.363   4.550  0.7218 -0.1359  0.3010
  160OSM    H9S17943   2.425   4.379   4.454  1.8104  0.7357 -0.1813
  160OSM    H9T17944   2.447   4.456   4.603 -1.3807 -0.0800 -0.9382
  160OSM   C10S17945   2.403   4.258   4.633  0.0988 -0.1739 -0.2765
  160OSM   H10S17946   2.402   4.164   4.573 -1.1084 -1.3454  1.4717
  160OSM   H10T17947   2.299   4.294   4.651  0.0896 -0.0584 -0.5590
  160OSM   C11S17948   2.468   4.230   4.767  0.7973  0.2038  0.3101
  160OSM   H11S17949   2.571   4.191   4.752  0.1037 -1.7235  0.3145
  160OSM   H11T17950   2.414   4.151   4.824  1.0496 -0.1468  0.0663
  160OSM   C12S17951   2.454   4.357   4.858  0.4634 -0.3826  0.0672
  160OSM   H12S17952   2.352   4.396   4.834  0.1212 -1.0402  0.4397
  160OSM   H12T17953   2.522   4.439   4.828 -0.0904  0.2911  0.6235
  160OSM   C13S17954   2.466   4.331   5.008  0.4572 -0.4035  0.1193
  160OSM   H13S17955   2.568   4.294   5.031 -0.2085 -0.8960  2.6036
  160OSM   H13T17956   2.390   4.255   5.038  1.2609 -0.6840  1.5401
  160OSM   C14S17957   2.443   4.469   5.087  0.2078  0.1607 -0.3335
  160OSM   H14S17958   2.366   4.531   5.036  0.1045  0.1876 -0.1448
  160OSM   H14T17959   2.541   4.521   5.075  0.4860  0.0954  1.4527
  160OSM   C15S17960   2.413   4.452   5.235  0.0065 -0.4252 -0.2358
  160OSM   H15S17961   2.510   4.410   5.271 -0.6832 -0.7391  1.3887
  160OSM   H15T17962   2.325   4.383   5.236 -0.1392 -0.2472 -0.8175
  160OSM   C16S17963   2.385   4.578   5.310  0.1497  0.1014  0.0027
  160OSM   H16S17964   2.274   4.584   5.316  0.3425  3.9025  3.3490
  160OSM   H16T17965   2.410   4.671   5.254  2.4576  0.2473  1.1514
  160OSM   C17S17966   2.436   4.584   5.453 -0.8406  0.1875  0.3689
  160OSM   H17S17967   2.547   4.583   5.444 -0.4740  0.1327  3.5235
  160OSM   H17T17968   2.415   4.490   5.508  0.8934  0.6989  1.9981
  160OSM   C18S17969   2.391   4.701   5.535  0.1437 -0.2064 -0.4586
  160OSM   H18S17970   2.414   4.797   5.485 -1.1797  0.5406  0.3154
  160OSM   H18T17971   2.421   4.694   5.642 -2.0496 -1.2042  0.1326
  160OSM   H18U17972   2.281   4.696   5.525 -0.1354  1.7151  1.1401
  160OSM    C1F17973   2.478   5.010   4.174 -0.2520  0.3012 -0.2106
  160OSM     OF17974   2.407   5.028   4.072 -0.4602  0.1432  0.1945
  160OSM    C2F17975   2.426   5.065   4.303  0.1585 -0.2570 -0.3141
  160OSM    H2F17976   2.490   5.147   4.342 -0.5062 -0.6705  1.7987
  160OSM    H2G17977   2.439   4.987   4.382 -0.3455 -1.3712 -1.3047
  160OSM    C3F17978   2.278   5.108   4.303 -0.4021 -0.2656 -0.3463
  160OSM    H3F17979   2.210   5.022   4.287  0.2192 -2.2742  5.5665
  160OSM    H3G17980   2.279   5.193   4.231  1.7009  0.1682  0.1451
  160OSM    C4F17981   2.235   5.172   4.434  0.2010  0.4234 -0.5029
  160OSM    H4F17982   2.174   5.263   4.413  0.9195  1.3344  1.1575
  160OSM    H4G17983   2.318   5.219   4.489  1.2924 -1.4839 -0.4209
  160OSM    C5F17984   2.172   5.073   4.535  0.2859  0.0678 -0.1946
  160OSM    H5F17985   2.259   5.014   4.572  0.7846  0.2613 -1.0384
  160OSM    H5G17986   2.089   5.015   4.489  0.4332 -0.7423  0.5317
  160OSM    C6F17987   2.130   5.146   4.670  0.2377  0.4599  0.0707
  160OSM    H6F17988   2.176   5.247   4.676 -0.1782  0.6385  0.2591
  160OSM    H6G17989   2.157   5.084   4.758  1.1059 -1.1138 -1.2446
  160OSM    C7F17990   1.981   5.193   4.673  0.4716  0.7218  0.0004
  160OSM    H7F17991   1.912   5.106   4.676  1.3537  0.0210  2.4306
  160OSM    H7G17992   1.958   5.251   4.581 -0.1370 -0.8227 -0.8585
  160OSM    C8F17993   1.948   5.284   4.792  0.1155 -0.0955 -0.1689
  160OSM    H8F17994   1.846   5.323   4.769  0.6217  0.1614 -2.1313
  160OSM    H8G17995   2.014   5.373   4.785 -2.4896  2.0835  1.0905
  160OSM    C9F17996   1.945   5.212   4.928  0.5121 -0.2065  0.4936
  160OSM    H9F17997   1.889   5.118   4.931  0.7567 -0.3722  3.4078
  160OSM   C10F17998   2.014   5.257   5.039 -0.0161 -0.7322  0.0783
  160OSM   H10F17999   2.027   5.193   5.127 -3.3601 -2.9733 -0.8712
  160OSM   C11F18000   2.083   5.394   5.047  0.6150  0.2612 -0.5923
  160OSM   H11F18001   2.078   5.434   5.151  0.5695  1.5161 -1.0623
  160OSM   H11G18002   2.021   5.455   4.978 -0.0795 -0.3497 -0.5195
  160OSM   C12F18003   2.224   5.403   4.987 -0.2494 -0.1245  0.3173
  160OSM   H12F18004   2.257   5.508   4.976  1.4722 -0.3598  2.4657
  160OSM   H12G18005   2.228   5.343   4.893 -0.0272 -0.9098  0.8240
  160OSM   C13F18006   2.324   5.352   5.094  0.5544  1.2117  0.1205
  160OSM   H13F18007   2.275   5.263   5.137  2.6032  0.2245  0.4997
  160OSM   H13G18008   2.339   5.429   5.173 -1.4193  2.0675 -0.2684
  160OSM   C14F18009   2.453   5.308   5.035 -1.0008 -0.3178  0.9374
  160OSM   H14F18010   2.493   5.404   4.996 -0.6026  0.5281  3.2668
  160OSM   H14G18011   2.438   5.238   4.950 -3.5445  1.8825 -0.6008
  160OSM   C15F18012   2.561   5.264   5.133 -0.6791 -0.1208  0.1558
  160OSM   H15F18013   2.649   5.232   5.072 -1.6568 -2.7985  0.0195
  160OSM   H15G18014   2.531   5.175   5.192  0.5681  0.6431  2.0075
  160OSM   C16F18015   2.610   5.373   5.235  0.9640  0.2635 -0.3838
  160OSM   H16F18016   2.522   5.404   5.294 -1.3351  0.0482 -3.4567
  160OSM   H16G18017   2.652   5.456   5.175  0.5331 -0.1554 -1.2847
  160OSM   C17F18018   2.722   5.323   5.330  0.2311 -0.2495  0.6142
  160OSM   H17F18019   2.775   5.406   5.379  0.5886 -0.4449  0.5599
  160OSM   H17G18020   2.795   5.266   5.268 -0.9457 -2.0857  0.8270
  160OSM   C18F18021   2.677   5.225   5.435  0.3408 -0.5656  0.0979
  160OSM   H18F18022   2.636   5.278   5.524 -0.5852 -0.6703 -0.2502
  160OSM   H18G18023   2.761   5.169   5.481 -1.1967 -0.6905  2.9914
  160OSM   H18H18024   2.602   5.149   5.404 -0.5101  0.4686 -0.4463
  161OSM      N18025   5.858   0.326   3.790 -0.6113 -0.0879 -0.4003
  161OSM    C1518026   5.721   0.316   3.851 -0.9513 -0.2416 -0.0486
  161OSM   H15A18027   5.640   0.350   3.788  0.1519  1.2603 -0.7319
  161OSM   H15B18028   5.711   0.373   3.942  2.1449  0.9465 -0.3379
  161OSM   H15C18029   5.703   0.212   3.872  0.4035 -0.3166  0.8748
  161OSM    C1418030   5.858   0.227   3.671  0.0584 -0.3115  0.1399
  161OSM   H14A18031   5.960   0.227   3.636  0.2522 -0.1174  0.6940
  161OSM   H14B18032   5.788   0.261   3.597  1.2936  2.5466  0.1698
  161OSM   H14C18033   5.824   0.131   3.707 -2.6388  0.5106  0.0166
  161OSM    C1318034   5.871   0.463   3.729 -0.5154  0.2289 -0.0313
  161OSM   H13A18035   5.884   0.532   3.812 -0.4684 -2.1446  2.0707
  161OSM   H13B18036   5.790   0.505   3.672 -0.7077  2.6816  1.8890
  161OSM   H13C18037   5.958   0.463   3.665 -1.7528  0.6653 -1.7704
  161OSM    C1218038   5.961   0.287   3.889 -0.3757  0.4925  0.3880
  161OSM   H12A18039   6.054   0.275   3.836 -0.6054 -2.1289  0.4093
  161OSM   H12B18040   5.939   0.190   3.932  0.1405 -0.0649 -0.5788
  161OSM    C1118041   5.983   0.382   4.004 -0.3224  0.1727 -0.0156
  161OSM   H11A18042   6.029   0.327   4.090  0.5888  0.6080 -0.2185
  161OSM   H11B18043   5.883   0.417   4.037  0.3349  0.9830  1.2003
  161OSM      P18044   6.037   0.646   4.025  0.1017 -0.3360  0.0005
  161OSM    O1318045   6.168   0.719   4.024 -0.9340  0.2901  1.2318
  161OSM    O1418046   5.918   0.711   3.964 -0.1748 -0.1973 -0.4471
  161OSM    O1118047   6.000   0.623   4.173 -0.2775  0.1935 -0.6080
  161OSM    O1218048   6.061   0.497   3.968  0.3143 -0.5359 -0.1179
  161OSM    C1S18049   6.094   0.562   4.268 -0.8497 -0.3005  0.3185
  161OSM    H1S18050   6.189   0.619   4.261 -2.5003  2.7605  0.9047
  161OSM    H1T18051   6.119   0.460   4.233  0.9385 -0.6389  2.3459
  161OSM     NF18052   6.144   0.538   4.510 -0.1112  0.1370 -0.2918
  161OSM    HNF18053   6.162   0.448   4.549 -0.5327  0.1967  0.0416
  161OSM    C2S18054   6.041   0.561   4.407 -0.1464 -0.3578 -0.5533
  161OSM    H2S18055   6.005   0.665   4.418  0.4498 -0.2286  0.2654
  161OSM    C3S18056   5.908   0.484   4.420 -0.6521  0.6106  0.9842
  161OSM    H3S18057   5.928   0.376   4.402  0.9614  1.1023 -0.5196
  161OSM     O318058   5.817   0.534   4.320 -0.1432  0.3066 -0.8697
  161OSM    HO318059   5.874   0.545   4.243  0.4363 -0.6292 -0.5866
  161OSM    C4S18060   5.848   0.508   4.545  0.1186  0.5055  0.0651
  161OSM    H4S18061   5.860   0.607   4.592  0.7961  0.1161  0.7406
  161OSM    C5S18062   5.813   0.405   4.627  0.2901  0.3133  0.3532
  161OSM    H5S18063   5.852   0.307   4.598  3.9003  1.9898 -1.1727
  161OSM    C6S18064   5.778   0.424   4.769 -0.1277 -0.3632 -0.2057
  161OSM    H6S18065   5.705   0.347   4.802 -1.8590  1.8515  1.4989
  161OSM    H6T18066   5.731   0.524   4.786 -0.4370 -0.5398 -0.0103
  161OSM    C7S18067   5.906   0.418   4.857 -0.4526  0.5437  0.3859
  161OSM    H7S18068   5.965   0.512   4.857  2.0814 -0.8907 -1.5054
  161OSM    H7T18069   5.985   0.355   4.811  0.4471  1.0647  1.1793
  161OSM    C8S18070   5.878   0.371   5.002  0.5234 -0.0359 -0.0744
  161OSM    H8S18071   5.972   0.345   5.056 -1.4001 -3.8651  1.9531
  161OSM    H8T18072   5.813   0.281   5.010  2.1720 -1.3064 -0.4861
  161OSM    C9S18073   5.804   0.483   5.077  0.8514  0.2319 -0.5567
  161OSM    H9S18074   5.698   0.497   5.046  0.8279  0.8196 -0.2310
  161OSM    H9T18075   5.867   0.574   5.073  0.7443  0.3337 -0.0898
  161OSM   C10S18076   5.803   0.439   5.228  0.0145 -0.0939  0.4055
  161OSM   H10S18077   5.910   0.409   5.237  0.3162  0.5223 -0.8622
  161OSM   H10T18078   5.737   0.353   5.253  0.9044 -0.5352  1.3081
  161OSM   C11S18079   5.766   0.557   5.323 -0.1812  0.4962 -0.1927
  161OSM   H11S18080   5.658   0.581   5.323 -0.4423 -0.4282  2.0388
  161OSM   H11T18081   5.821   0.652   5.306  1.1617 -0.2824 -0.4219
  161OSM   C12S18082   5.800   0.513   5.464  0.7265  0.4753 -0.6515
  161OSM   H12S18083   5.886   0.445   5.479  0.4843  0.3434  0.1871
  161OSM   H12T18084   5.717   0.443   5.485  0.9100 -0.0623 -1.6794
  161OSM   C13S18085   5.818   0.627   5.569  1.1114 -0.1929  0.7270
  161OSM   H13S18086   5.802   0.583   5.670 -2.7049 -0.0852  0.3083
  161OSM   H13T18087   5.732   0.694   5.550 -0.0510 -1.4858  1.2408
  161OSM   C14S18088   5.949   0.694   5.584  0.1693  0.1773 -0.1626
  161OSM   H14S18089   6.004   0.721   5.491  1.6015  3.5221  1.4598
  161OSM   H14T18090   6.011   0.628   5.649  0.3460 -0.7491 -1.2493
  161OSM   C15S18091   5.934   0.840   5.635 -0.5018  0.2357 -0.1029
  161OSM   H15S18092   5.873   0.838   5.728 -1.8887  0.7605 -0.9752
  161OSM   H15T18093   5.870   0.887   5.558 -2.1475  0.4242  1.3158
  161OSM   C16S18094   6.070   0.914   5.659  0.9908  0.1345 -0.0148
  161OSM   H16S18095   6.044   1.022   5.657 -0.7758 -0.2782 -0.6611
  161OSM   H16T18096   6.127   0.895   5.565  2.7013  0.9872  0.7932
  161OSM   C17S18097   6.141   0.866   5.786  0.5080  0.3002  0.4663
  161OSM   H17S18098   6.160   0.760   5.761  0.0599  0.0114  1.3121
  161OSM   H17T18099   6.064   0.878   5.865 -3.3838 -0.0000 -2.9131
  161OSM   C18S18100   6.273   0.932   5.817 -0.3283 -0.1574  0.7911
  161OSM   H18S18101   6.260   1.033   5.862  0.3220  1.6128 -2.6555
  161OSM   H18T18102   6.324   0.955   5.721 -0.7902 -0.3770  0.4887
  161OSM   H18U18103   6.327   0.861   5.883  2.1270 -0.8632 -1.7716
  161OSM    C1F18104   6.242   0.623   4.532  0.0222  0.2798  0.1386
  161OSM     OF18105   6.221   0.742   4.518  0.1818  0.0058 -0.3637
  161OSM    C2F18106   6.374   0.565   4.588 -0.0391 -0.2507  0.3532
  161OSM    H2F18107   6.430   0.534   4.497  0.0619 -1.4083  0.7921
  161OSM    H2G18108   6.365   0.470   4.645 -2.4561 -0.7197 -0.6996
  161OSM    C3F18109   6.445   0.668   4.675  0.3647  0.3401  0.3575
  161OSM    H3F18110   6.469   0.755   4.610  3.7681 -1.6875 -1.4042
  161OSM    H3G18111   6.546   0.626   4.692  0.5731  0.0398 -1.4344
  161OSM    C4F18112   6.373   0.697   4.800 -0.1931  0.3036 -0.1747
  161OSM    H4F18113   6.280   0.753   4.777  0.0246 -0.0039 -1.9263
  161OSM    H4G18114   6.428   0.767   4.867  1.5653 -0.1963 -1.0338
  161OSM    C5F18115   6.356   0.568   4.892  0.6048  1.0089  0.3386
  161OSM    H5F18116   6.446   0.506   4.872 -1.5514 -1.8062 -1.4778
  161OSM    H5G18117   6.273   0.500   4.866  0.3986  1.7394 -0.9873
  161OSM    C6F18118   6.351   0.605   5.046  0.1373 -0.5219  0.1412
  161OSM    H6F18119   6.424   0.686   5.070  0.3706 -1.3031  2.2339
  161OSM    H6G18120   6.369   0.519   5.113  1.5892 -1.5210 -1.4790
  161OSM    C7F18121   6.210   0.642   5.084 -0.5419  0.7642 -0.2464
  161OSM    H7F18122   6.149   0.552   5.060 -0.5865 -0.3579  3.4260
  161OSM    H7G18123   6.174   0.736   5.037  0.3278  0.3830 -1.7499
  161OSM    C8F18124   6.209   0.646   5.236  0.5388  0.3434 -0.3571
  161OSM    H8F18125   6.254   0.553   5.276  1.5089  1.3672  1.0052
  161OSM    H8G18126   6.100   0.641   5.260  0.2322 -1.1090 -1.8766
  161OSM    C9F18127   6.269   0.771   5.303 -0.0111 -0.3761 -0.2677
  161OSM    H9F18128   6.216   0.866   5.283  2.1255  0.7065 -1.1458
  161OSM   C10F18129   6.376   0.782   5.385 -0.3333 -0.7133  0.3601
  161OSM   H10F18130   6.407   0.881   5.422  0.9849 -0.8292 -0.3760
  161OSM   C11F18131   6.465   0.662   5.424 -0.5814  0.0708  0.8835
  161OSM   H11F18132   6.549   0.642   5.354 -0.9186 -0.0975  0.5216
  161OSM   H11G18133   6.399   0.573   5.416 -0.3669  0.0667 -2.0689
  161OSM   C12F18134   6.524   0.675   5.559 -0.4106 -0.0777  0.0919
  161OSM   H12F18135   6.573   0.577   5.580  2.9080  1.4876  0.2579
  161OSM   H12G18136   6.444   0.701   5.632 -1.0955 -1.0362 -0.2904
  161OSM   C13F18137   6.644   0.773   5.571  0.5201 -0.1121  0.9440
  161OSM   H13F18138   6.607   0.877   5.567 -1.6522 -0.8509  0.5045
  161OSM   H13G18139   6.716   0.743   5.491 -1.0157 -0.4637 -0.3542
  161OSM   C14F18140   6.723   0.748   5.698  0.4010 -0.2440  0.0639
  161OSM   H14F18141   6.816   0.808   5.702 -0.4405  1.0474  1.6446
  161OSM   H14G18142   6.743   0.639   5.684  1.0703 -0.1419  0.1689
  161OSM   C15F18143   6.648   0.773   5.833  0.2964 -0.1424  0.1731
  161OSM   H15F18144   6.548   0.723   5.830  0.2814 -0.0879 -0.2531
  161OSM   H15G18145   6.628   0.882   5.843  1.2725 -0.0790  1.6702
  161OSM   C16F18146   6.726   0.735   5.958 -0.0481  0.1596 -0.4604
  161OSM   H16F18147   6.661   0.752   6.046 -0.4562 -1.3088 -0.4502
  161OSM   H16G18148   6.816   0.798   5.969 -1.2071  1.7026  0.4204
  161OSM   C17F18149   6.768   0.583   5.966  0.5195 -0.4873  0.2887
  161OSM   H17F18150   6.814   0.578   6.067  0.0909  3.1656  0.8068
  161OSM   H17G18151   6.842   0.571   5.884  1.3089  1.2052  0.7252
  161OSM   C18F18152   6.661   0.479   5.955 -0.5488  0.2589 -0.1923
  161OSM   H18F18153   6.699   0.381   5.991 -1.5582  0.4072  1.3492
  161OSM   H18G18154   6.636   0.464   5.848  0.6852  1.9025 -0.7556
  161OSM   H18H18155   6.577   0.508   6.021  0.1154 -1.4306  1.4687
  162OSM      N18156   1.213   1.462   3.606 -0.6833  0.1378 -0.1715
  162OSM    C1518157   1.126   1.339   3.627  0.4036 -0.7454 -0.4163
  162OSM   H15A18158   1.064   1.317   3.541  1.9754  1.2483 -2.1695
  162OSM   H15B18159   1.069   1.354   3.717 -0.4539  2.1194 -1.3418
  162OSM   H15C18160   1.195   1.256   3.635  2.3952  0.9226  0.6324
  162OSM    C1418161   1.313   1.435   3.489  0.4576 -0.4141 -0.3174
  162OSM   H14A18162   1.275   1.386   3.402  0.2585  1.3472 -1.2692
  162OSM   H14B18163   1.401   1.383   3.527  1.0449 -0.2128 -1.3724
  162OSM   H14C18164   1.356   1.528   3.454  1.2157  0.2645  2.1585
  162OSM    C1318165   1.133   1.580   3.571 -0.6229  0.4197  0.0940
  162OSM   H13A18166   1.196   1.667   3.576  2.6170 -1.6035 -1.5912
  162OSM   H13B18167   1.048   1.602   3.633 -1.5907  0.8849 -1.3358
  162OSM   H13C18168   1.096   1.572   3.470 -0.1529 -2.4359  0.0425
  162OSM    C1218169   1.299   1.493   3.728 -0.2442 -0.1935  0.1249
  162OSM   H12A18170   1.236   1.530   3.808  2.2502  0.5508  1.8724
  162OSM   H12B18171   1.359   1.582   3.712  0.4330 -0.5654  0.5311
  162OSM    C1118172   1.399   1.390   3.794  0.2144  0.4226  0.8931
  162OSM   H11A18173   1.337   1.305   3.829  0.9233  0.3567  2.0095
  162OSM   H11B18174   1.435   1.439   3.887 -2.0228  0.1981  1.9503
  162OSM      P18175   1.596   1.222   3.731  0.1606 -0.4885  0.4393
  162OSM    O1318176   1.518   1.106   3.694  0.4066  0.3953  0.1175
  162OSM    O1418177   1.732   1.239   3.669 -0.0661 -0.2380 -0.2481
  162OSM    O1118178   1.614   1.217   3.885 -0.1497  0.0714  0.5918
  162OSM    O1218179   1.507   1.356   3.714 -0.5755 -0.0733  0.4303
  162OSM    C1S18180   1.678   1.321   3.959 -0.4315  0.7325 -0.6383
  162OSM    H1S18181   1.669   1.419   3.909 -0.9311 -0.9224 -4.0678
  162OSM    H1T18182   1.785   1.289   3.960 -0.8445 -0.8653  1.7594
  162OSM     NF18183   1.679   1.444   4.176  0.5544  0.2073  0.2873
  162OSM    HNF18184   1.749   1.423   4.244  1.1153 -0.4686 -0.4826
  162OSM    C2S18185   1.620   1.325   4.105 -0.4143 -0.6772 -0.7488
  162OSM    H2S18186   1.510   1.342   4.094 -0.4002 -0.2653 -0.2843
  162OSM    C3S18187   1.642   1.194   4.181  0.1296 -0.3339 -0.0218
  162OSM    H3S18188   1.752   1.179   4.177 -0.0446 -1.3135 -2.3270
  162OSM     O318189   1.596   1.077   4.112  0.7065 -0.0888  0.2507
  162OSM    HO318190   1.587   1.102   4.019 -1.5438 -2.0634 -0.1573
  162OSM    C4S18191   1.581   1.205   4.321  0.1592 -0.2249 -0.0620
  162OSM    H4S18192   1.653   1.233   4.399 -0.9596  0.4156  0.7699
  162OSM    C5S18193   1.459   1.182   4.367 -0.6005  0.5677  0.3599
  162OSM    H5S18194   1.390   1.138   4.294  0.8373 -0.1980 -0.5894
  162OSM    C6S18195   1.401   1.212   4.506 -0.0794  0.2657  0.1161
  162OSM    H6S18196   1.373   1.119   4.559 -0.5054 -0.0082 -0.5742
  162OSM    H6T18197   1.308   1.269   4.484 -1.9601 -1.7366  2.3860
  162OSM    C7S18198   1.499   1.300   4.594 -0.0499 -0.7762  0.3018
  162OSM    H7S18199   1.518   1.399   4.548 -1.7683 -0.5610 -0.0135
  162OSM    H7T18200   1.587   1.238   4.619 -1.8852 -3.5935  0.2638
  162OSM    C8S18201   1.437   1.342   4.726  0.7539  0.9400 -0.5149
  162OSM    H8S18202   1.386   1.264   4.786 -0.6949  1.1934 -1.3707
  162OSM    H8T18203   1.354   1.400   4.681  0.5002  1.1676  0.2236
  162OSM    C9S18204   1.510   1.436   4.820 -0.0646  0.2445  0.4002
  162OSM    H9S18205   1.548   1.529   4.773 -0.4309 -1.3586 -3.4218
  162OSM    H9T18206   1.594   1.381   4.868 -0.0955  0.1084  0.3019
  162OSM   C10S18207   1.411   1.478   4.927  0.3735  0.3537 -0.0329
  162OSM   H10S18208   1.371   1.384   4.972 -0.8440  0.5914 -0.5791
  162OSM   H10T18209   1.331   1.541   4.882 -0.5616 -1.2145 -0.6582
  162OSM   C11S18210   1.472   1.553   5.045  0.1929 -0.2771 -0.0676
  162OSM   H11S18211   1.505   1.655   5.017 -1.2229 -0.0414 -0.9582
  162OSM   H11T18212   1.564   1.497   5.074  1.4234  0.3150 -2.5574
  162OSM   C12S18213   1.379   1.547   5.168  0.2066  0.2297 -0.7094
  162OSM   H12S18214   1.383   1.440   5.199 -2.6295 -0.0322 -1.0167
  162OSM   H12T18215   1.277   1.576   5.136  0.4631  1.0844 -0.7867
  162OSM   C13S18216   1.431   1.632   5.287  0.2830  0.0558  0.0985
  162OSM   H13S18217   1.526   1.686   5.266  0.3242  0.3156  0.9037
  162OSM   H13T18218   1.434   1.566   5.377 -0.3185  0.8581  0.7250
  162OSM   C14S18219   1.333   1.745   5.322 -0.4504  0.1088  0.0508
  162OSM   H14S18220   1.238   1.701   5.359 -0.5533  1.2984  1.2760
  162OSM   H14T18221   1.303   1.797   5.228 -0.3044  1.7000  0.8386
  162OSM   C15S18222   1.394   1.866   5.401  1.1931  0.1824  0.3867
  162OSM   H15S18223   1.307   1.935   5.410 -1.3168 -2.8186  0.9034
  162OSM   H15T18224   1.473   1.912   5.338  0.2849  1.1260 -0.1101
  162OSM   C16S18225   1.441   1.818   5.535  0.3346 -0.2034 -0.1809
  162OSM   H16S18226   1.528   1.751   5.521  1.1991  1.0201 -0.8437
  162OSM   H16T18227   1.355   1.759   5.574 -0.1186  0.9853  0.7130
  162OSM   C17S18228   1.455   1.930   5.632 -0.4833  0.7542 -0.7562
  162OSM   H17S18229   1.481   1.882   5.729 -1.7445  0.3564 -0.6055
  162OSM   H17T18230   1.363   1.987   5.656 -0.2784  0.2431  1.4048
  162OSM   C18S18231   1.572   2.030   5.605  1.0438  0.0591  0.4161
  162OSM   H18S18232   1.673   1.995   5.636  2.5137  1.3011 -2.5259
  162OSM   H18T18233   1.554   2.132   5.643 -3.5115 -0.7370  0.9892
  162OSM   H18U18234   1.585   2.032   5.494  0.3944  0.4120  0.3393
  162OSM    C1F18235   1.646   1.569   4.145  0.0443 -0.2534  0.2388
  162OSM     OF18236   1.547   1.593   4.083 -0.6500 -0.5764  0.3886
  162OSM    C2F18237   1.746   1.674   4.178 -0.0265  0.0332 -0.1251
  162OSM    H2F18238   1.781   1.717   4.081  0.9253  0.0758  0.2346
  162OSM    H2G18239   1.835   1.625   4.222  0.3316  0.7916  0.0136
  162OSM    C3F18240   1.716   1.804   4.272  0.9811 -0.1020  0.1335
  162OSM    H3F18241   1.606   1.796   4.285  0.8956 -1.7573 -1.1903
  162OSM    H3G18242   1.727   1.898   4.214  0.3095 -0.6409 -0.8880
  162OSM    C4F18243   1.782   1.786   4.417 -0.1210 -0.6061 -0.3367
  162OSM    H4F18244   1.891   1.798   4.400 -0.1076  1.1462  0.6945
  162OSM    H4G18245   1.762   1.681   4.448  0.3091 -0.2069  1.3718
  162OSM    C5F18246   1.731   1.893   4.516  0.7009 -0.2162 -0.8047
  162OSM    H5F18247   1.622   1.900   4.496  0.6911  1.0400 -0.3770
  162OSM    H5G18248   1.776   1.989   4.483 -2.9649  1.3279 -1.6885
  162OSM    C6F18249   1.737   1.843   4.662  1.0530  0.0817  0.4364
  162OSM    H6F18250   1.844   1.827   4.688  1.0682  2.2784  2.1013
  162OSM    H6G18251   1.685   1.746   4.679  0.6363  0.3785  0.9234
  162OSM    C7F18252   1.676   1.938   4.768  1.0579 -0.6049 -0.0402
  162OSM    H7F18253   1.571   1.960   4.740  1.7107  3.1618  0.0103
  162OSM    H7G18254   1.713   2.041   4.749 -1.8912  0.5979  0.3158
  162OSM    C8F18255   1.695   1.903   4.912  0.7398 -0.6188  0.4942
  162OSM    H8F18256   1.661   1.798   4.916 -0.1522 -0.3669 -0.2184
  162OSM    H8G18257   1.635   1.960   4.987  1.0721 -2.6371  2.3950
  162OSM    C9F18258   1.839   1.920   4.954 -0.2260  0.5674 -0.0706
  162OSM    H9F18259   1.913   1.865   4.894 -1.3405 -0.0224 -0.9361
  162OSM   C10F18260   1.871   1.995   5.059 -0.2916 -0.9295  0.0246
  162OSM   H10F18261   1.979   2.003   5.080 -0.3137  1.4471 -0.4872
  162OSM   C11F18262   1.793   2.088   5.141  0.1713 -0.7874 -0.2491
  162OSM   H11F18263   1.708   2.131   5.084  0.4631  0.2238  0.0701
  162OSM   H11G18264   1.852   2.181   5.156  0.4805 -0.8375 -1.1384
  162OSM   C12F18265   1.751   2.032   5.277  1.2153  0.1957  0.6988
  162OSM   H12F18266   1.689   1.939   5.274  0.4588  0.7034  0.2767
  162OSM   H12G18267   1.688   2.110   5.325  2.1313  1.1913  0.3213
  162OSM   C13F18268   1.865   1.995   5.375 -0.2952 -0.6007 -0.5568
  162OSM   H13F18269   1.937   1.928   5.324  0.2950 -0.6006  0.2622
  162OSM   H13G18270   1.818   1.935   5.456 -0.6621 -0.9215 -1.0025
  162OSM   C14F18271   1.929   2.121   5.423  0.2249  0.8658  0.8751
  162OSM   H14F18272   1.844   2.186   5.452 -0.6107  0.2669 -0.1071
  162OSM   H14G18273   1.974   2.170   5.334  0.7008 -0.1501  0.5421
  162OSM   C15F18274   2.026   2.105   5.543  0.3543 -0.7540  0.1786
  162OSM   H15F18275   1.966   2.116   5.636 -0.2223  0.6720 -0.3324
  162OSM   H15G18276   2.103   2.184   5.535  0.2453 -0.4358  1.8311
  162OSM   C16F18277   2.100   1.971   5.555 -0.1028 -0.4324 -0.0808
  162OSM   H16F18278   2.159   1.967   5.461  1.0723  0.2272  0.5963
  162OSM   H16G18279   2.043   1.877   5.568 -1.9443  0.7507  0.8196
  162OSM   C17F18280   2.209   1.977   5.668 -0.2920  0.2081  0.0721
  162OSM   H17F18281   2.255   2.078   5.673 -1.3284  0.6384  2.0633
  162OSM   H17G18282   2.284   1.901   5.637 -1.0595 -0.5560  0.0250
  162OSM   C18F18283   2.151   1.941   5.806 -1.0013 -0.0861  0.3313
  162OSM   H18F18284   2.233   1.953   5.880 -0.6468  2.5827 -0.3832
  162OSM   H18G18285   2.104   1.841   5.808 -1.1586 -0.0594 -1.1434
  162OSM   H18H18286   2.068   2.013   5.825 -1.6673  0.5476 -3.9632
  163OSM      N18287   3.926   2.326   4.034 -0.2201 -0.2631  0.4997
  163OSM    C1518288   3.917   2.185   4.088 -0.2913  0.1136 -0.0620
  163OSM   H15A18289   3.978   2.115   4.032  0.1238 -0.4080  1.0268
  163OSM   H15B18290   3.816   2.147   4.083 -1.0053  1.8560  0.4640
  163OSM   H15C18291   3.949   2.190   4.191  0.3287  0.3204 -0.2604
  163OSM    C1418292   4.075   2.348   4.049 -0.4588 -0.4883  0.0270
  163OSM   H14A18293   4.106   2.349   4.152  0.3136  0.9760 -0.1972
  163OSM   H14B18294   4.098   2.449   4.018 -2.6484  0.4213  1.1857
  163OSM   H14C18295   4.138   2.273   4.003  1.7540  1.1410  0.2361
  163OSM    C1318296   3.882   2.335   3.887 -0.3540  0.0608  0.2325
  163OSM   H13A18297   3.954   2.267   3.843  0.3533  0.4137  0.8400
  163OSM   H13B18298   3.892   2.437   3.854 -1.5164 -0.4980 -2.1303
  163OSM   H13C18299   3.780   2.301   3.873 -0.6425  0.7248  0.6886
  163OSM    C1218300   3.844   2.421   4.123 -0.3627 -0.2749 -0.3192
  163OSM   H12A18301   3.872   2.408   4.226  0.1667  1.0533 -0.2756
  163OSM   H12B18302   3.740   2.394   4.119 -0.6763  0.7848  0.3297
  163OSM    C1118303   3.861   2.573   4.105  0.4202 -0.3998  0.6076
  163OSM   H11A18304   3.964   2.599   4.137 -0.7108  2.4550  2.3596
  163OSM   H11B18305   3.797   2.633   4.173  0.2732 -1.2541  1.2419
  163OSM      P18306   3.945   2.706   3.892 -0.4335 -0.1534 -0.5630
  163OSM    O1318307   4.045   2.616   3.832 -0.3081  0.2304  0.3870
  163OSM    O1418308   3.870   2.800   3.808 -0.2677 -0.3637 -0.1453
  163OSM    O1118309   4.018   2.781   4.011 -0.3655  0.1695 -0.4041
  163OSM    O1218310   3.839   2.620   3.968  0.0129 -0.4895  0.0831
  163OSM    C1S18311   3.947   2.884   4.080 -0.5398 -0.1916  0.5333
  163OSM    H1S18312   3.852   2.849   4.126 -1.2020 -0.8637 -1.2831
  163OSM    H1T18313   3.927   2.969   4.012  2.0060  0.5492  0.5814
  163OSM     NF18314   3.936   3.045   4.270 -0.0820 -0.6162  0.8774
  163OSM    HNF18315   3.952   3.142   4.251 -0.3541 -1.1202 -2.5413
  163OSM    C2S18316   4.020   2.961   4.197 -0.3632  0.1507  0.1065
  163OSM    H2S18317   4.066   2.884   4.262  2.5293  0.3994 -1.4628
  163OSM    C3S18318   4.154   3.027   4.144  0.5860  0.4764 -0.2977
  163OSM    H3S18319   4.122   3.102   4.069 -1.0689 -0.7386 -0.8872
  163OSM     O318320   4.245   2.933   4.084 -0.3347  0.2523  0.2648
  163OSM    HO318321   4.202   2.848   4.093  1.4272 -0.6720  0.5359
  163OSM    C4S18322   4.225   3.102   4.255 -0.5041 -0.2768  0.5517
  163OSM    H4S18323   4.243   3.210   4.242  4.7400 -0.6058  2.5278
  163OSM    C5S18324   4.310   3.050   4.343  0.1044 -0.5316  0.3987
  163OSM    H5S18325   4.339   2.944   4.338  0.9154 -0.3599  1.1804
  163OSM    C6S18326   4.413   3.137   4.417  0.5075 -0.0707  0.0923
  163OSM    H6S18327   4.374   3.238   4.442  1.8861  0.5201 -0.0719
  163OSM    H6T18328   4.496   3.155   4.345  0.4054  0.1784  0.0354
  163OSM    C7S18329   4.473   3.083   4.547 -0.0425 -0.1197  0.0237
  163OSM    H7S18330   4.539   3.167   4.576 -2.7818  2.2913 -0.3015
  163OSM    H7T18331   4.528   2.988   4.529 -0.3459 -0.9717  3.0286
  163OSM    C8S18332   4.372   3.062   4.655  0.8496  0.8425 -0.4215
  163OSM    H8S18333   4.295   2.995   4.610  0.2907  1.0327  0.2346
  163OSM    H8T18334   4.315   3.152   4.686  0.3941 -0.2752  2.2688
  163OSM    C9S18335   4.429   2.993   4.784  0.1620 -0.7010  0.5241
  163OSM    H9S18336   4.523   3.050   4.802 -1.2993  1.8187  0.6869
  163OSM    H9T18337   4.454   2.885   4.782  2.2092 -0.3260  2.1097
  163OSM   C10S18338   4.331   3.021   4.900  0.4877 -0.4480  0.3010
  163OSM   H10S18339   4.232   2.974   4.880  0.5345 -0.3772 -0.1095
  163OSM   H10T18340   4.304   3.128   4.918 -2.4113 -0.5319 -2.6565
  163OSM   C11S18341   4.379   2.961   5.034 -0.0419 -0.4279  0.1039
  163OSM   H11S18342   4.481   2.999   5.060  0.7547 -1.8769 -0.7851
  163OSM   H11T18343   4.389   2.852   5.019 -2.5263 -1.0011  1.9775
  163OSM   C12S18344   4.287   2.989   5.160  0.2797  0.5977 -0.2302
  163OSM   H12S18345   4.199   2.922   5.149  0.8176 -0.2955  0.7888
  163OSM   H12T18346   4.244   3.091   5.171 -1.9708 -0.5461  2.8493
  163OSM   C13S18347   4.348   2.948   5.292 -0.7295  0.0856  0.3730
  163OSM   H13S18348   4.441   3.008   5.300  0.1830 -1.3819  1.2152
  163OSM   H13T18349   4.383   2.843   5.291  0.3309  0.3422 -3.2135
  163OSM   C14S18350   4.263   2.975   5.413 -0.0217 -0.1534  1.0369
  163OSM   H14S18351   4.165   2.928   5.390  0.2342  0.1692 -0.9354
  163OSM   H14T18352   4.233   3.082   5.411 -4.1219 -1.1126 -1.3119
  163OSM   C15S18353   4.319   2.929   5.549 -0.2689 -0.3943 -0.2443
  163OSM   H15S18354   4.421   2.969   5.566  0.2600 -0.8907 -2.0770
  163OSM   H15T18355   4.323   2.818   5.543 -1.0469 -0.3664 -1.8255
  163OSM   C16S18356   4.228   2.981   5.657  0.2121 -0.0292 -0.7249
  163OSM   H16S18357   4.137   2.919   5.664  0.3987 -0.1619  1.5824
  163OSM   H16T18358   4.212   3.089   5.634 -1.7184 -0.3057 -0.8332
  163OSM   C17S18359   4.288   2.984   5.802 -0.3539 -0.3340  0.1944
  163OSM   H17S18360   4.222   3.056   5.857 -1.8368 -1.4808 -0.0149
  163OSM   H17T18361   4.391   3.015   5.827 -0.4556  0.3812 -0.2290
  163OSM   C18S18362   4.272   2.848   5.870 -0.1596  0.3429 -0.0782
  163OSM   H18S18363   4.307   2.846   5.976  0.4087 -4.9076 -0.0548
  163OSM   H18T18364   4.332   2.769   5.820 -0.7122  1.7338 -3.1339
  163OSM   H18U18365   4.162   2.832   5.866 -0.5449  2.7040 -0.2441
  163OSM    C1F18366   3.848   2.995   4.355  1.0154 -0.3068 -0.4501
  163OSM     OF18367   3.831   2.874   4.377  0.2752 -0.3715 -0.0245
  163OSM    C2F18368   3.769   3.103   4.438  0.2303  0.5024  0.7115
  163OSM    H2F18369   3.707   3.158   4.364 -2.5352 -0.3812  2.2128
  163OSM    H2G18370   3.844   3.177   4.474  0.7634  1.2759 -1.7776
  163OSM    C3F18371   3.677   3.050   4.549 -0.5274  0.6979 -0.5952
  163OSM    H3F18372   3.738   3.001   4.627 -0.2221  2.9389  0.6567
  163OSM    H3G18373   3.608   2.975   4.505  0.6602  1.5350 -4.3049
  163OSM    C4F18374   3.583   3.151   4.607  0.7223  0.2673  0.3535
  163OSM    H4F18375   3.546   3.211   4.521  0.9915 -0.4518 -0.2738
  163OSM    H4G18376   3.650   3.214   4.670  1.0432  1.1703 -0.8466
  163OSM    C5F18377   3.476   3.090   4.701  0.3096 -0.1721  0.1637
  163OSM    H5F18378   3.520   2.999   4.747  0.7630  0.0681  0.2100
  163OSM    H5G18379   3.385   3.055   4.648  1.1701 -2.0858 -0.1536
  163OSM    C6F18380   3.419   3.178   4.816  0.1649 -1.2896  0.0939
  163OSM    H6F18381   3.317   3.148   4.850  0.0181  0.9752  1.8822
  163OSM    H6G18382   3.403   3.281   4.779 -4.4456 -0.9798  2.2171
  163OSM    C7F18383   3.503   3.185   4.945 -0.0298 -0.2187  1.0358
  163OSM    H7F18384   3.604   3.220   4.912 -1.5906  1.2923 -2.7722
  163OSM    H7G18385   3.510   3.084   4.990 -1.9777 -1.6898 -1.6635
  163OSM    C8F18386   3.454   3.293   5.035  0.2060 -0.0957 -0.0123
  163OSM    H8F18387   3.348   3.269   5.055 -0.2016  1.1041 -0.6595
  163OSM    H8G18388   3.454   3.396   4.992  2.8092  1.6623  3.6561
  163OSM    C9F18389   3.541   3.293   5.155  0.3623 -0.0435 -0.0637
  163OSM    H9F18390   3.635   3.349   5.154  0.8153 -0.5788  2.9997
  163OSM   C10F18391   3.527   3.225   5.274  0.3817  0.0056 -0.3398
  163OSM   H10F18392   3.604   3.253   5.348 -1.6656  0.7876  1.6154
  163OSM   C11F18393   3.414   3.136   5.315 -0.2263 -0.8406 -0.1516
  163OSM   H11F18394   3.472   3.044   5.335  1.8097  0.4098  0.0183
  163OSM   H11G18395   3.355   3.121   5.222 -0.5081  2.6279 -0.6811
  163OSM   C12F18396   3.343   3.165   5.443 -0.3268  0.0601  0.9464
  163OSM   H12F18397   3.275   3.078   5.456 -0.0532 -0.4669 -0.8234
  163OSM   H12G18398   3.279   3.252   5.418  1.0621  0.6121 -0.8827
  163OSM   C13F18399   3.435   3.180   5.567  0.2097  0.0360 -0.0400
  163OSM   H13F18400   3.499   3.270   5.557  0.5555 -0.3161 -1.2368
  163OSM   H13G18401   3.502   3.091   5.565  0.5705  0.3135 -1.1307
  163OSM   C14F18402   3.370   3.187   5.707  0.1016  0.1042  0.2262
  163OSM   H14F18403   3.435   3.138   5.783 -0.4774  0.6177  1.0645
  163OSM   H14G18404   3.276   3.129   5.709  0.9368 -1.3980 -1.1119
  163OSM   C15F18405   3.346   3.334   5.746  0.3420  0.4769 -0.8804
  163OSM   H15F18406   3.278   3.305   5.829 -0.0884 -1.0388 -1.7256
  163OSM   H15G18407   3.284   3.380   5.667 -1.8572  0.8478  0.9572
  163OSM   C16F18408   3.472   3.414   5.779  0.3679 -0.0249 -0.5973
  163OSM   H16F18409   3.517   3.439   5.681  0.3180 -0.2307 -0.6722
  163OSM   H16G18410   3.531   3.351   5.849  1.3926  0.6073 -0.8697
  163OSM   C17F18411   3.428   3.534   5.849  0.7115  0.1385 -0.1340
  163OSM   H17F18412   3.360   3.511   5.934 -0.8895 -0.2231 -1.4655
  163OSM   H17G18413   3.354   3.583   5.782 -1.7099 -2.2488  0.6605
  163OSM   C18F18414   3.523   3.647   5.891  0.0440 -0.1316  0.5545
  163OSM   H18F18415   3.586   3.608   5.974  2.3504  3.4416  0.6862
  163OSM   H18G18416   3.473   3.738   5.930  0.5394  0.5888 -0.4602
  163OSM   H18H18417   3.584   3.683   5.805  2.0263  0.2837  2.0492
  164OSM      N18418   6.343   4.246   3.405 -0.1867  0.3820  0.0516
  164OSM    C1518419   6.225   4.162   3.379  0.0125  0.4186  0.0356
  164OSM   H15A18420   6.211   4.081   3.448 -2.2553 -0.8705 -1.8003
  164OSM   H15B18421   6.219   4.119   3.280 -0.3483  0.9074 -0.1539
  164OSM   H15C18422   6.135   4.218   3.396 -0.0240  0.2550  0.3892
  164OSM    C1418423   6.460   4.158   3.420  0.8034 -0.0510  0.1160
  164OSM   H14A18424   6.552   4.215   3.429  0.3474  0.7065  0.0840
  164OSM   H14B18425   6.460   4.092   3.335  0.7362 -0.9045  0.7643
  164OSM   H14C18426   6.468   4.101   3.511  2.1149  0.8858  0.6231
  164OSM    C1318427   6.348   4.349   3.292 -0.1990  0.1571 -0.0498
  164OSM   H13A18428   6.387   4.319   3.196 -0.9907 -3.0887  0.5209
  164OSM   H13B18429   6.417   4.424   3.326  1.9560 -2.1436  0.9793
  164OSM   H13C18430   6.256   4.404   3.279  0.8450  1.6232 -1.4753
  164OSM    C1218431   6.326   4.317   3.536  0.2516 -0.4939 -0.8477
  164OSM   H12A18432   6.321   4.244   3.616 -1.3441  0.1565 -0.3109
  164OSM   H12B18433   6.226   4.356   3.545 -0.4229 -2.1605 -0.7040
  164OSM    C1118434   6.427   4.417   3.575 -0.5703 -0.7169  0.0601
  164OSM   H11A18435   6.403   4.483   3.661  0.0379 -1.7320  1.0243
  164OSM   H11B18436   6.428   4.498   3.498 -0.3926 -1.9503 -1.2928
  164OSM      P18437   6.634   4.294   3.703 -0.1565  0.2740  0.0276
  164OSM    O1318438   6.712   4.183   3.648 -0.9775  0.2056  0.0506
  164OSM    O1418439   6.704   4.403   3.777  0.2453 -0.0551  0.8228
  164OSM    O1118440   6.510   4.237   3.783 -0.1965  0.2937  0.1584
  164OSM    O1218441   6.564   4.368   3.574  0.1829  0.0580  0.1996
  164OSM    C1S18442   6.522   4.146   3.893  0.5181 -0.0171 -0.3401
  164OSM    H1S18443   6.624   4.106   3.910  0.3462  0.3299  1.7480
  164OSM    H1T18444   6.454   4.059   3.878  1.0828 -0.2752 -1.5540
  164OSM     NF18445   6.493   4.090   4.136  0.1459 -0.1546 -0.5066
  164OSM    HNF18446   6.412   4.069   4.191  0.3285 -0.1617 -0.2375
  164OSM    C2S18447   6.492   4.197   4.037 -0.0118 -0.2595  0.3463
  164OSM    H2S18448   6.576   4.267   4.059 -0.9613  1.0848 -0.1674
  164OSM    C3S18449   6.368   4.284   4.043 -0.1792 -0.1634  0.5775
  164OSM    H3S18450   6.285   4.213   4.022  0.1612 -1.1476  2.3489
  164OSM     O318451   6.365   4.387   3.944 -0.2336  0.1484  0.7387
  164OSM    HO318452   6.433   4.364   3.879 -0.2111  0.4861  0.6383
  164OSM    C4S18453   6.344   4.352   4.174  0.1607 -0.3432 -0.1332
  164OSM    H4S18454   6.283   4.291   4.242  2.9122 -0.6289  2.3055
  164OSM    C5S18455   6.398   4.468   4.217  0.0854  0.4717 -0.1957
  164OSM    H5S18456   6.470   4.521   4.152 -0.2044  0.1243 -0.8111
  164OSM    C6S18457   6.376   4.530   4.349  0.6913  0.1250 -0.3721
  164OSM    H6S18458   6.267   4.538   4.373  0.2110  0.1553 -2.3974
  164OSM    H6T18459   6.409   4.636   4.341 -0.1501  0.2411 -3.2293
  164OSM    C7S18460   6.449   4.448   4.453  0.2830 -0.2302  0.2781
  164OSM    H7S18461   6.557   4.440   4.431  0.2944  0.6593 -0.0596
  164OSM    H7T18462   6.405   4.347   4.469 -2.2392  0.6761 -0.3621
  164OSM    C8S18463   6.445   4.524   4.588 -0.4078  0.1406 -0.2740
  164OSM    H8S18464   6.350   4.579   4.603  0.2445  1.5624 -1.2202
  164OSM    H8T18465   6.537   4.586   4.599  0.4480 -1.1586  0.1689
  164OSM    C9S18466   6.457   4.438   4.715  0.3725  0.1107 -0.0743
  164OSM    H9S18467   6.559   4.393   4.706  0.9172  1.1977  0.4481
  164OSM    H9T18468   6.376   4.362   4.715 -0.3450  0.8311  1.8697
  164OSM   C10S18469   6.464   4.517   4.847 -1.1136 -0.0733 -0.3694
  164OSM   H10S18470   6.386   4.597   4.845 -0.6254  0.4506  0.7082
  164OSM   H10T18471   6.567   4.559   4.851 -0.6150 -0.9424 -2.5445
  164OSM   C11S18472   6.434   4.435   4.969 -0.2981 -0.0695 -0.1469
  164OSM   H11S18473   6.477   4.333   4.964  1.1580  0.5814 -2.8980
  164OSM   H11T18474   6.324   4.426   4.966 -0.3736  0.4652  0.6299
  164OSM   C12S18475   6.474   4.502   5.106 -0.4128 -0.0722 -0.3681
  164OSM   H12S18476   6.411   4.594   5.114 -2.3233 -1.4504  1.6570
  164OSM   H12T18477   6.577   4.541   5.121 -0.5040 -0.3253  1.0001
  164OSM   C13S18478   6.427   4.413   5.224 -0.2284 -0.1841  0.3392
  164OSM   H13S18479   6.502   4.331   5.225 -1.5079 -1.4296 -0.6472
  164OSM   H13T18480   6.325   4.379   5.196 -0.8200  1.6337  0.1491
  164OSM   C14S18481   6.436   4.484   5.359 -0.6723  0.5117 -1.0538
  164OSM   H14S18482   6.381   4.580   5.360 -1.8282 -0.0702  1.6579
  164OSM   H14T18483   6.541   4.504   5.388 -0.8309  3.6983 -2.3477
  164OSM   C15S18484   6.375   4.397   5.468 -0.1280 -0.0952 -0.1529
  164OSM   H15S18485   6.434   4.302   5.465 -0.3489 -0.2138 -1.5724
  164OSM   H15T18486   6.268   4.378   5.449 -0.6494 -1.1961  3.1838
  164OSM   C16S18487   6.384   4.459   5.614 -0.8803  0.8594  0.1080
  164OSM   H16S18488   6.353   4.563   5.588  1.9045  1.1849 -2.6522
  164OSM   H16T18489   6.491   4.470   5.643 -0.5888 -2.0222  0.3865
  164OSM   C17S18490   6.302   4.382   5.727  0.3124 -0.3532 -0.1818
  164OSM   H17S18491   6.197   4.363   5.698  0.5572 -0.3114 -1.1462
  164OSM   H17T18492   6.295   4.450   5.815 -0.7512  2.4206 -2.2412
  164OSM   C18S18493   6.365   4.253   5.788 -0.2442  0.1324  0.4748
  164OSM   H18S18494   6.318   4.217   5.882 -2.1142 -0.6483 -0.7136
  164OSM   H18T18495   6.469   4.281   5.818  0.6392 -0.8205 -1.5186
  164OSM   H18U18496   6.374   4.170   5.715 -0.3353  0.3039  0.2708
  164OSM    C1F18497   6.582   4.000   4.148  0.8106 -0.0422  0.0565
  164OSM     OF18498   6.689   4.014   4.099 -0.1370 -0.2273  0.6437
  164OSM    C2F18499   6.552   3.882   4.238 -0.3255  0.9814  0.6184
  164OSM    H2F18500   6.523   3.797   4.173  1.7563 -0.6606  1.7337
  164OSM    H2G18501   6.478   3.912   4.316 -2.1773 -0.1235 -0.6426
  164OSM    C3F18502   6.686   3.844   4.317 -0.7541  0.0656 -0.1172
  164OSM    H3F18503   6.729   3.933   4.367  0.4779 -0.6624  0.1616
  164OSM    H3G18504   6.757   3.800   4.244  0.2566 -0.8920  1.3864
  164OSM    C4F18505   6.651   3.744   4.432  0.3892  0.0944 -0.0775
  164OSM    H4F18506   6.737   3.677   4.456 -1.1644 -0.8711  3.3575
  164OSM    H4G18507   6.568   3.675   4.403  1.2218 -1.2038  0.5081
  164OSM    C5F18508   6.618   3.817   4.563 -0.4664  0.3350 -0.5586
  164OSM    H5F18509   6.542   3.895   4.540  2.5152  3.3266 -0.9421
  164OSM    H5G18510   6.707   3.867   4.606  0.0071 -0.0766 -1.0529
  164OSM    C6F18511   6.551   3.740   4.680  0.7053  0.5155  0.0928
  164OSM    H6F18512   6.621   3.664   4.721  0.2812  0.1370  0.1210
  164OSM    H6G18513   6.477   3.671   4.635  0.1484  0.5353  0.9614
  164OSM    C7F18514   6.489   3.822   4.795 -0.4203  0.0214  0.4633
  164OSM    H7F18515   6.434   3.749   4.858 -0.2223 -1.4092 -0.9500
  164OSM    H7G18516   6.411   3.889   4.753 -0.0054  0.3102  0.1418
  164OSM    C8F18517   6.592   3.894   4.887  0.5525  0.1380 -0.1774
  164OSM    H8F18518   6.662   3.957   4.829 -0.4235  2.6081  1.1967
  164OSM    H8G18519   6.649   3.807   4.927 -1.3155 -1.9261 -1.7769
  164OSM    C9F18520   6.516   3.981   4.982 -0.4169 -0.4430 -0.7289
  164OSM    H9F18521   6.455   4.068   4.954  0.5092  0.5055  0.1125
  164OSM   C10F18522   6.519   3.961   5.117  0.0790  0.4869  0.8470
  164OSM   H10F18523   6.462   4.029   5.183  0.7872  3.0098 -0.9734
  164OSM   C11F18524   6.604   3.864   5.196 -0.3871  0.3630 -0.4600
  164OSM   H11F18525   6.653   3.783   5.138  0.0606  1.8997 -2.3399
  164OSM   H11G18526   6.551   3.804   5.273 -0.1566 -1.6639 -1.8205
  164OSM   C12F18527   6.716   3.936   5.275  0.6156  0.2915 -0.5870
  164OSM   H12F18528   6.753   4.028   5.225 -0.0825  0.2313 -1.2357
  164OSM   H12G18529   6.797   3.862   5.296 -1.1518 -1.8787 -1.0201
  164OSM   C13F18530   6.666   3.983   5.412  0.5338 -0.2200  0.7259
  164OSM   H13F18531   6.614   3.903   5.470  0.7518 -0.3647  0.7224
  164OSM   H13G18532   6.600   4.069   5.385  2.0635  0.3122 -1.6191
  164OSM   C14F18533   6.776   4.047   5.493 -0.6467  0.0869 -0.9324
  164OSM   H14F18534   6.817   4.132   5.434 -0.5962  0.0017 -1.0208
  164OSM   H14G18535   6.858   3.972   5.505 -1.6377 -0.7183  1.3008
  164OSM   C15F18536   6.729   4.098   5.629 -1.1002 -0.5057  0.1015
  164OSM   H15F18537   6.708   4.014   5.698  0.8513 -1.3297 -0.2509
  164OSM   H15G18538   6.643   4.164   5.606 -2.0441 -1.6039  0.3565
  164OSM   C16F18539   6.855   4.158   5.693 -0.6268 -0.0242 -0.5006
  164OSM   H16F18540   6.918   4.226   5.632  0.5592 -1.2814 -0.7037
  164OSM   H16G18541   6.925   4.076   5.716 -1.9829 -1.0084  0.2853
  164OSM   C17F18542   6.815   4.240   5.822 -0.2598 -0.3613  0.2991
  164OSM   H17F18543   6.906   4.240   5.886 -1.0203 -0.9015  1.4001
  164OSM   H17G18544   6.738   4.184   5.879 -0.3346 -1.2356 -0.6429
  164OSM   C18F18545   6.772   4.386   5.804  0.6650 -0.3373 -0.1099
  164OSM   H18F18546   6.729   4.389   5.701 -1.3870 -0.2034  0.6995
  164OSM   H18G18547   6.856   4.458   5.806 -0.4985  1.0959 -0.8089
  164OSM   H18H18548   6.683   4.421   5.860  0.6437 -0.7954  0.1419
  165SAPS     N18549   3.168   5.898   8.289 -1.3137  0.7878 -0.8772
  165SAPS   HN118550   3.155   5.795   8.286  2.9646  0.0988 -0.9577
  165SAPS   HN218551   3.089   5.953   8.249 -1.1347  1.9472  0.2906
  165SAPS   HN318552   3.245   5.913   8.221 -1.9039 -1.0927 -2.0444
  165SAPS   C1218553   3.192   5.932   8.425  0.3731 -0.2481 -0.1989
  165SAPS  H12A18554   3.110   5.885   8.477  0.5168  1.5651  1.7682
  165SAPS   C1318555   3.331   5.884   8.488  0.2134  0.5669 -0.3751
  165SAPS  O13A18556   3.411   5.810   8.427  0.1842  0.1004  0.4732
  165SAPS  O13B18557   3.346   5.914   8.611 -0.5662  0.5704 -0.0149
  165SAPS   C1118558   3.170   6.086   8.444 -0.2936  0.4310  0.2883
  165SAPS  H11A18559   3.250   6.128   8.378 -0.4662  0.8753  0.3597
  165SAPS  H11B18560   3.185   6.117   8.549 -2.4049 -0.1735  0.8112
  165SAPS     P18561   2.996   6.271   8.393 -0.0068  0.2031 -0.1072
  165SAPS   O1318562   2.850   6.257   8.385 -0.0075  0.4443 -0.2606
  165SAPS   O1418563   3.051   6.333   8.515  0.4042 -0.2415 -0.1494
  165SAPS   O1218564   3.048   6.125   8.388 -0.4258 -0.2145 -0.2184
  165SAPS   O1118565   3.049   6.342   8.270  0.3072 -0.4137 -0.0152
  165SAPS    C118566   3.091   6.260   8.149  0.0483  0.0040 -0.3154
  165SAPS    HA18567   3.195   6.289   8.122 -0.2887 -0.1704 -1.9169
  165SAPS    HB18568   3.104   6.152   8.170  0.4184  0.4932  2.3247
  165SAPS    C218569   2.992   6.282   8.032  0.2856 -0.2898  0.1184
  165SAPS    HS18570   3.039   6.225   7.949 -0.6421 -0.0057 -0.6266
  165SAPS   O2118571   2.985   6.423   7.999  0.1002  0.0151 -0.8589
  165SAPS   C2118572   3.101   6.474   7.948 -0.0946 -0.3179  0.0970
  165SAPS   O2218573   3.201   6.402   7.917 -0.1376  0.6286 -0.2967
  165SAPS   C2218574   3.089   6.630   7.929  0.0936  0.5030 -0.4323
  165SAPS   H2R18575   2.979   6.643   7.932  0.0952  0.4280  0.0119
  165SAPS   H2S18576   3.135   6.684   8.014 -0.5135  1.2794 -0.5764
  165SAPS    C318577   2.848   6.234   8.054  0.1581 -0.1824  0.3919
  165SAPS    HX18578   2.785   6.309   8.107 -2.9483  0.1336 -3.3157
  165SAPS    HY18579   2.866   6.144   8.116 -0.1917 -0.7888 -0.3757
  165SAPS   O3118580   2.803   6.192   7.925 -0.1863  0.5886  0.0602
  165SAPS   C3118581   2.686   6.233   7.897 -0.0059  0.0377  0.8239
  165SAPS   O3218582   2.617   6.312   7.957  0.1976 -0.4319 -0.4031
  165SAPS   C3218583   2.640   6.165   7.770  0.1599  0.6907 -0.3120
  165SAPS   H2X18584   2.629   6.056   7.790 -0.2791  0.7123 -0.4247
  165SAPS   H2Y18585   2.709   6.199   7.690  0.1763 -0.4994 -0.8175
  165SAPS   C2318586   3.130   6.677   7.785  0.7113 -0.3783 -0.6203
  165SAPS   H3R18587   3.091   6.613   7.703  0.2150 -0.3715 -0.3928
  165SAPS   H3S18588   3.241   6.668   7.778  0.7155  0.0614 -1.1679
  165SAPS   C2418589   3.095   6.825   7.756  0.0095  0.3656  0.0318
  165SAPS   H4R18590   3.157   6.878   7.831  1.0276  0.9041 -1.1762
  165SAPS   H4S18591   2.992   6.844   7.794 -0.1544 -1.8341  0.8923
  165SAPS   C2518592   3.128   6.881   7.623 -0.1246 -1.1574  0.7596
  165SAPS   H5R18593   3.235   6.908   7.614 -0.8959  2.2766  0.4743
  165SAPS   C2618594   3.043   6.916   7.520 -0.2290 -0.8822  0.5509
  165SAPS   H6R18595   3.083   6.959   7.427  1.5291 -1.3439  1.0359
  165SAPS   C2718596   2.894   6.899   7.523 -0.3268 -0.2168  0.5666
  165SAPS   H7R18597   2.861   6.793   7.528 -0.5384 -0.1843 -0.1463
  165SAPS   H7S18598   2.869   6.924   7.418  1.0851 -1.4853 -0.1145
  165SAPS   C2818599   2.816   6.978   7.625  0.0571  0.8304  0.3373
  165SAPS   H8R18600   2.859   7.074   7.659 -1.2039  1.5398 -0.0131
  165SAPS   C2918601   2.690   6.947   7.667 -0.0652  0.4789  0.2773
  165SAPS   H9R18602   2.643   7.010   7.744 -1.1728  1.4257 -1.1153
  165SAPS  C21018603   2.605   6.823   7.628  0.0303 -0.3716 -0.0679
  165SAPS  H10R18604   2.620   6.774   7.530  1.6219 -1.2568  0.5932
  165SAPS  H10S18605   2.501   6.862   7.628  0.3625  0.5525 -0.8520
  165SAPS  C21118606   2.618   6.705   7.730  0.4311  0.0922  0.2202
  165SAPS  H11R18607   2.560   6.709   7.823  0.7166  0.7450  0.3775
  165SAPS  C21218608   2.652   6.581   7.693  0.1639  0.2858  0.0822
  165SAPS  H12R18609   2.645   6.504   7.771  1.8226 -0.7075 -0.6818
  165SAPS  C21318610   2.708   6.536   7.556 -0.2744  0.0642 -0.6515
  165SAPS  H13R18611   2.794   6.468   7.573  1.2224  2.0534  0.0842
  165SAPS  H13S18612   2.757   6.614   7.494 -0.0413  0.5573  0.1484
  165SAPS  C21418613   2.598   6.472   7.474 -0.4008 -0.0494  0.5256
  165SAPS  H14R18614   2.503   6.444   7.521 -1.9425  0.7051 -1.9453
  165SAPS  C21518615   2.612   6.437   7.339  0.5510  0.0870 -0.5728
  165SAPS  H15R18616   2.526   6.387   7.291 -0.8032 -1.6721  3.2911
  165SAPS  C21618617   2.728   6.450   7.244 -0.3045  0.2201  0.6208
  165SAPS  H16R18618   2.812   6.493   7.303  0.3396 -0.2585  0.0675
  165SAPS  H16S18619   2.696   6.513   7.159  1.5203  0.3434 -0.0242
  165SAPS  C21718620   2.778   6.312   7.203  0.2711 -0.7507 -0.5641
  165SAPS  H17R18621   2.793   6.234   7.281  3.6013  2.1163  2.0166
  165SAPS  H17S18622   2.878   6.329   7.158  1.2983 -0.3377  1.7166
  165SAPS  C21818623   2.688   6.255   7.103  0.3122 -0.4290 -0.6389
  165SAPS  H18R18624   2.660   6.330   7.026 -0.9816 -0.4627 -0.2233
  165SAPS  H18S18625   2.596   6.219   7.154  0.2728 -0.5644 -0.8018
  165SAPS  C21918626   2.762   6.138   7.032  0.1819  0.8064 -0.0504
  165SAPS  H19R18627   2.781   6.064   7.113 -0.2379 -0.4008 -1.0267
  165SAPS  H19S18628   2.856   6.174   6.986  0.8921  0.8002  1.3552
  165SAPS  C22018629   2.672   6.060   6.931 -0.0459 -0.4687  0.1580
  165SAPS  H20R18630   2.632   6.130   6.855  0.8994 -0.8296 -0.6997
  165SAPS  H20S18631   2.587   6.015   6.987 -0.1253 -0.2267  0.2336
  165SAPS  H20T18632   2.741   5.986   6.884  1.1929  1.5383 -1.3583
  165SAPS   C3318633   2.496   6.212   7.736  0.8622  0.0608 -0.3636
  165SAPS   H3X18634   2.495   6.323   7.732  0.9207  0.2569  2.8929
  165SAPS   H3Y18635   2.428   6.199   7.823 -0.1618 -2.3918 -1.4569
  165SAPS   C3418636   2.447   6.148   7.601  0.6417 -0.1011 -0.7237
  165SAPS   H4X18637   2.448   6.037   7.606 -0.0198 -0.0654  0.8369
  165SAPS   H4Y18638   2.523   6.181   7.527  1.2539 -0.9699 -0.5036
  165SAPS   C3518639   2.311   6.208   7.571  0.3068 -0.1773 -0.2506
  165SAPS   H5X18640   2.315   6.319   7.563  1.4942  0.0950  2.6450
  165SAPS   H5Y18641   2.235   6.188   7.650 -0.5667  1.4048 -0.6477
  165SAPS   C3618642   2.241   6.145   7.451  0.2853  0.0368 -0.5303
  165SAPS   H6X18643   2.132   6.165   7.455 -0.1698 -2.3211  0.6588
  165SAPS   H6Y18644   2.254   6.035   7.449  1.2993  0.1591 -1.2887
  165SAPS   C3718645   2.291   6.205   7.319 -0.1534  0.8574 -0.9942
  165SAPS   H7X18646   2.401   6.225   7.311  0.6312 -2.2466  0.5284
  165SAPS   H7Y18647   2.228   6.295   7.303 -1.5885  0.0789  0.0732
  165SAPS   C3818648   2.250   6.123   7.200  0.3097  0.0924 -0.2724
  165SAPS   H8X18649   2.140   6.108   7.200  0.2263  0.5942  0.5323
  165SAPS   H8Y18650   2.302   6.025   7.205  0.5296  0.2110 -0.2119
  165SAPS   C3918651   2.288   6.186   7.075  0.1525 -0.0481  1.0086
  165SAPS   H9X18652   2.398   6.199   7.076  0.3527 -1.0779 -1.4539
  165SAPS   H9Y18653   2.241   6.287   7.070  2.2941  0.9744  0.2946
  165SAPS  C31018654   2.244   6.095   6.959 -0.3698  0.0392  0.8560
  165SAPS  H10X18655   2.140   6.064   6.980 -0.2390 -0.3220  0.9897
  165SAPS  H10Y18656   2.313   6.008   6.957 -0.2093  0.1771 -0.7569
  165SAPS  C31118657   2.268   6.170   6.830 -0.2878  0.3238  0.1378
  165SAPS  H11X18658   2.373   6.204   6.818 -0.7101  1.4949 -0.4592
  165SAPS  H11Y18659   2.203   6.260   6.819 -0.9649 -0.2308 -0.5637
  165SAPS  C31218660   2.256   6.078   6.700  0.3787 -0.4115 -1.2458
  165SAPS  H12X18661   2.151   6.082   6.664 -0.5548 -3.8555  0.6677
  165SAPS  H12Y18662   2.278   5.970   6.713 -3.5298 -1.4274 -2.0012
  165SAPS  C31318663   2.338   6.137   6.597 -0.9685  0.8754 -0.2172
  165SAPS  H13X18664   2.442   6.105   6.621 -0.2529  0.3496 -3.6190
  165SAPS  H13Y18665   2.339   6.248   6.598 -1.3237  0.8828  0.6545
  165SAPS  C31418666   2.318   6.090   6.447  0.0444 -0.0551 -0.1845
  165SAPS  H14X18667   2.288   6.178   6.386 -0.8213 -1.0889 -1.2912
  165SAPS  H14Y18668   2.239   6.013   6.461 -2.6844  2.8165  1.5114
  165SAPS  C31518669   2.452   6.038   6.393  0.1165  0.5897  0.1617
  165SAPS  H15X18670   2.498   5.959   6.455  1.7953 -0.7314 -2.5616
  165SAPS  H15Y18671   2.536   6.111   6.394  0.9476 -0.3436  0.1954
  165SAPS  C31618672   2.439   5.973   6.249  0.0983  0.2497 -0.2253
  165SAPS  H16X18673   2.542   5.947   6.220  0.7691 -0.0797  2.2392
  165SAPS  H16Y18674   2.387   6.040   6.177 -0.8986  0.9072  1.0540
  165SAPS  C31718675   2.364   5.832   6.253 -0.6327  0.1690  0.0169
  165SAPS  H17X18676   2.256   5.860   6.255 -0.8056 -0.5092  0.3849
  165SAPS  H17Y18677   2.383   5.773   6.345  0.4150  0.7332  0.1756
  165SAPS  C31818678   2.387   5.746   6.123 -0.0265 -0.0468  0.3767
  165SAPS  H18X18679   2.480   5.689   6.144 -0.6985 -0.3566  2.8666
  165SAPS  H18Y18680   2.379   5.805   6.029  0.0283 -1.0068 -0.2386
  165SAPS  H18Z18681   2.317   5.660   6.122 -0.7673  0.5361  0.8389
  166SAPS     N18682   5.664   0.746   8.539 -0.1537 -0.6237  0.0289
  166SAPS   HN118683   5.757   0.734   8.585 -0.9744 -0.3764  1.8666
  166SAPS   HN218684   5.592   0.716   8.608 -0.0930 -0.4816  0.1540
  166SAPS   HN318685   5.661   0.691   8.451 -0.6976  0.6346 -0.7620
  166SAPS   C1218686   5.647   0.894   8.518 -0.1914  0.1218  0.5883
  166SAPS  H12A18687   5.567   0.909   8.448  1.4876 -0.8487 -1.6723
  166SAPS   C1318688   5.617   0.967   8.652 -0.0243 -0.0319  0.2088
  166SAPS  O13A18689   5.613   0.905   8.762  0.2253 -0.0775 -0.2135
  166SAPS  O13B18690   5.591   1.091   8.644  0.2958 -0.8902 -0.1185
  166SAPS   C1118691   5.772   0.956   8.450 -0.9700  0.3428 -0.0329
  166SAPS  H11A18692   5.748   1.063   8.434 -2.5878 -0.0966 -0.7457
  166SAPS  H11B18693   5.774   0.908   8.350  3.5715 -1.7716  0.8048
  166SAPS     P18694   6.000   1.045   8.545 -0.1856  0.6275  0.1016
  166SAPS   O1318695   5.945   1.133   8.655 -0.3509 -0.9140  0.3596
  166SAPS   O1418696   6.137   0.989   8.566  0.4210 -0.2836  0.5386
  166SAPS   O1218697   5.892   0.931   8.521  0.1652  0.2666  0.3676
  166SAPS   O1118698   6.003   1.115   8.406 -0.3661 -0.2457 -0.3569
  166SAPS    C118699   6.127   1.124   8.336  0.5455 -0.2647 -0.4050
  166SAPS    HA18700   6.196   1.180   8.402 -0.5034 -0.8548  1.2495
  166SAPS    HB18701   6.165   1.022   8.315 -0.7434 -0.5307 -1.6468
  166SAPS    C218702   6.113   1.200   8.198 -0.5849 -0.2762 -0.2002
  166SAPS    HS18703   6.135   1.306   8.223 -0.7233 -0.2460 -0.2069
  166SAPS   O2118704   5.987   1.181   8.134  0.2476  0.2940 -0.2628
  166SAPS   C2118705   5.956   1.068   8.080  0.0064  0.7423 -0.4825
  166SAPS   O2218706   6.028   0.967   8.087  0.7497 -0.0615 -0.1912
  166SAPS   C2218707   5.833   1.097   8.005  0.4668  0.3386  0.1831
  166SAPS   H2R18708   5.752   1.044   8.060  0.2728 -0.0683 -0.4860
  166SAPS   H2S18709   5.818   1.207   8.005 -0.3853  0.2279  0.1109
  166SAPS    C318710   6.233   1.179   8.106  0.0831 -0.2213  0.5949
  166SAPS    HX18711   6.241   1.070   8.082  0.8985 -0.1762  0.6563
  166SAPS    HY18712   6.327   1.216   8.150  0.8875  3.2449 -3.4167
  166SAPS   O3118713   6.223   1.249   7.982 -1.2565 -0.1782 -0.1004
  166SAPS   C3118714   6.318   1.228   7.894 -0.5029 -0.2035 -0.1968
  166SAPS   O3218715   6.418   1.163   7.917 -0.1925 -0.4532  0.3445
  166SAPS   C3218716   6.288   1.316   7.766 -0.1004  0.3214  0.0013
  166SAPS   H2X18717   6.321   1.419   7.791  4.4210 -0.9751  0.2137
  166SAPS   H2Y18718   6.178   1.308   7.752 -0.3964 -2.0840  2.7324
  166SAPS   C2318719   5.836   1.050   7.855  0.4038  0.3759  0.2790
  166SAPS   H3R18720   5.730   1.047   7.821  0.5980  0.4356 -0.3445
  166SAPS   H3S18721   5.866   0.943   7.853 -0.7236  0.0559 -0.3355
  166SAPS   C2418722   5.933   1.128   7.764  0.7305  0.9882  0.0610
  166SAPS   H4R18723   5.958   1.066   7.675  0.2857 -0.7257  1.0744
  166SAPS   H4S18724   6.019   1.153   7.831  1.2620 -1.1532  0.2494
  166SAPS   C2518725   5.866   1.248   7.717 -0.2567 -0.2164 -0.5260
  166SAPS   H5R18726   5.791   1.291   7.786  1.1945  0.2014  0.8482
  166SAPS   C2618727   5.877   1.302   7.593 -0.6329  0.0370  0.2532
  166SAPS   H6R18728   5.813   1.388   7.569 -1.0403 -0.1212  0.7635
  166SAPS   C2718729   5.970   1.259   7.481  0.1327  0.3989 -0.4613
  166SAPS   H7R18730   6.061   1.219   7.532 -0.4182 -0.5776 -0.2194
  166SAPS   H7S18731   6.009   1.348   7.427 -0.2977  0.6360 -0.3769
  166SAPS   C2818732   5.915   1.146   7.396  0.4842 -0.3825  0.1958
  166SAPS   H8R18733   5.861   1.062   7.442  0.1371 -0.2878 -0.0366
  166SAPS   C2918734   5.903   1.156   7.260  0.4383  0.3764 -0.1852
  166SAPS   H9R18735   5.863   1.073   7.201  2.6646  0.4010 -1.8491
  166SAPS  C21018736   5.936   1.271   7.170  0.1658  0.2268 -0.2891
  166SAPS  H10R18737   5.990   1.235   7.080 -1.6627  0.3057 -1.4710
  166SAPS  H10S18738   6.000   1.349   7.217 -0.4263  0.2825  0.4572
  166SAPS  C21118739   5.801   1.329   7.120  0.0541  0.4139  0.8000
  166SAPS  H11R18740   5.743   1.377   7.200 -1.9787  1.6222 -1.2548
  166SAPS  C21218741   5.743   1.312   6.996  0.4252  0.8355  0.6395
  166SAPS  H12R18742   5.646   1.359   6.975  0.2891 -0.9321 -3.6682
  166SAPS  C21318743   5.798   1.239   6.879 -0.2948 -0.0105 -0.3427
  166SAPS  H13R18744   5.717   1.205   6.811  2.1427 -2.8892 -2.0783
  166SAPS  H13S18745   5.842   1.139   6.899 -0.3927 -0.0785 -0.4648
  166SAPS  C21418746   5.886   1.331   6.808  0.4131  0.8979  0.2575
  166SAPS  H14R18747   5.990   1.336   6.844  0.7786  0.1715 -0.6896
  166SAPS  C21518748   5.864   1.380   6.687 -0.8573 -0.1241  0.0731
  166SAPS  H15R18749   5.946   1.437   6.642  1.3177 -1.6628  1.8847
  166SAPS  C21618750   5.744   1.360   6.590 -0.0211 -0.2032 -0.7187
  166SAPS  H16R18751   5.751   1.439   6.512 -0.7896  0.5634 -0.0360
  166SAPS  H16S18752   5.647   1.373   6.643  1.0151  1.2502  0.9646
  166SAPS  C21718753   5.761   1.230   6.505  0.0193 -0.4275 -0.0809
  166SAPS  H17R18754   5.660   1.205   6.466 -0.6986  3.0933 -0.7934
  166SAPS  H17S18755   5.793   1.140   6.562 -0.2862 -0.3493  0.2176
  166SAPS  C21818756   5.857   1.247   6.385 -0.2560  0.2772  0.2850
  166SAPS  H18R18757   5.849   1.346   6.337  0.0353  0.0920 -0.1560
  166SAPS  H18S18758   5.837   1.163   6.315  1.1918 -0.1074  0.2780
  166SAPS  C21918759   6.004   1.229   6.428 -0.3108 -1.1074  0.1337
  166SAPS  H19R18760   6.042   1.294   6.509  0.5844  0.2849 -1.3303
  166SAPS  H19S18761   6.062   1.265   6.340 -2.7054  0.2048 -1.0053
  166SAPS  C22018762   6.035   1.079   6.450 -0.5985  0.5486  0.4627
  166SAPS  H20R18763   5.975   1.019   6.377 -1.2194  3.4967 -1.6566
  166SAPS  H20S18764   5.997   1.041   6.548 -1.9579 -1.3019 -0.6956
  166SAPS  H20T18765   6.142   1.058   6.431 -0.9249  0.4350 -1.4081
  166SAPS   C3318766   6.371   1.265   7.649 -0.5193 -0.1118 -0.1291
  166SAPS   H3X18767   6.347   1.156   7.645  0.8490 -0.5934  2.2637
  166SAPS   H3Y18768   6.479   1.279   7.669 -0.3352  3.3717 -2.6789
  166SAPS   C3418769   6.338   1.342   7.520 -0.3828 -0.8968  0.2836
  166SAPS   H4X18770   6.388   1.441   7.526 -1.0971 -0.6310  3.6311
  166SAPS   H4Y18771   6.229   1.361   7.506  0.0968  3.0969  0.8044
  166SAPS   C3518772   6.364   1.269   7.384  0.2870 -0.2532 -0.2034
  166SAPS   H5X18773   6.309   1.173   7.379 -1.5929  0.8452 -2.8454
  166SAPS   H5Y18774   6.474   1.259   7.368  0.5324 -0.1707  1.2866
  166SAPS   C3618775   6.291   1.333   7.259 -0.2271 -1.2726 -0.1051
  166SAPS   H6X18776   6.285   1.440   7.290  1.5546 -1.0587 -0.3974
  166SAPS   H6Y18777   6.189   1.290   7.250 -0.3931 -1.1378  0.9798
  166SAPS   C3718778   6.361   1.308   7.122 -0.1340 -0.0956 -0.8481
  166SAPS   H7X18779   6.349   1.202   7.090 -1.0156 -0.0740 -0.6263
  166SAPS   H7Y18780   6.468   1.332   7.141 -0.6773  1.3661  0.6604
  166SAPS   C3818781   6.314   1.396   7.008 -0.2570  1.1125  0.2622
  166SAPS   H8X18782   6.343   1.501   7.032  3.7064 -0.1962  2.1013
  166SAPS   H8Y18783   6.204   1.394   6.991 -0.0181  0.0545 -1.4394
  166SAPS   C3918784   6.364   1.364   6.866 -0.1455  0.4935 -0.0828
  166SAPS   H9X18785   6.473   1.379   6.852  0.1208 -0.9613  0.3424
  166SAPS   H9Y18786   6.312   1.439   6.801 -2.2199 -1.4059 -0.7525
  166SAPS  C31018787   6.322   1.220   6.816  0.6962 -0.1928  0.1124
  166SAPS  H10X18788   6.227   1.203   6.871  0.8589  0.0693  0.4755
  166SAPS  H10Y18789   6.400   1.147   6.846  1.1825  0.3820  0.2464
  166SAPS  C31118790   6.302   1.204   6.661  0.1224  0.1616 -0.7569
  166SAPS  H11X18791   6.235   1.284   6.622 -0.0033  0.4375  0.0043
  166SAPS  H11Y18792   6.248   1.108   6.645  0.2571 -0.5364  2.3837
  166SAPS  C31218793   6.441   1.191   6.591  0.5712  0.4075 -0.4338
  166SAPS  H12X18794   6.478   1.086   6.591 -2.0997 -0.6326 -1.7425
  166SAPS  H12Y18795   6.510   1.259   6.645  1.0769 -1.2669  1.1497
  166SAPS  C31318796   6.418   1.246   6.454 -0.7151 -0.2550  0.4680
  166SAPS  H13X18797   6.357   1.339   6.448 -1.6784 -0.9094 -0.4577
  166SAPS  H13Y18798   6.357   1.175   6.394 -0.1417 -0.5879  0.2730
  166SAPS  C31418799   6.544   1.271   6.381 -0.2179  0.0933 -0.4695
  166SAPS  H14X18800   6.617   1.342   6.426 -0.4907 -0.1511  0.3760
  166SAPS  H14Y18801   6.513   1.315   6.283 -0.9753 -1.4383 -0.9474
  166SAPS  C31518802   6.615   1.142   6.331 -0.2764  0.1591 -0.1690
  166SAPS  H15X18803   6.550   1.091   6.256  0.1090 -0.7187  0.0818
  166SAPS  H15Y18804   6.623   1.070   6.415 -0.7552  0.3788  0.0641
  166SAPS  C31618805   6.752   1.155   6.262 -0.0890  0.1159 -0.7325
  166SAPS  H16X18806   6.826   1.196   6.334  2.1349 -0.0398 -2.8134
  166SAPS  H16Y18807   6.752   1.228   6.178 -0.4180 -0.0493 -0.8796
  166SAPS  C31718808   6.808   1.029   6.210 -0.5145  0.1712  0.1808
  166SAPS  H17X18809   6.754   0.996   6.119  0.3760 -1.6858  0.2770
  166SAPS  H17Y18810   6.787   0.944   6.279 -2.2355  1.1092  0.8874
  166SAPS  C31818811   6.961   1.040   6.183 -0.0677 -0.0165 -0.0837
  166SAPS  H18X18812   6.971   1.086   6.082 -0.0146 -0.3886 -0.2515
  166SAPS  H18Y18813   6.996   0.935   6.178  1.1877  0.4167 -0.8232
  166SAPS  H18Z18814   7.014   1.088   6.268 -0.1918 -0.2934  0.1524
  167SAPS     N18815   2.446   1.125   0.008  0.6027 -0.1803 -0.5084
  167SAPS   HN118816   2.353   1.078   0.003 -0.2036  1.4305 -1.5430
  167SAPS   HN218817   2.510   1.068  -0.052  0.0385 -2.2226  0.7284
  167SAPS   HN318818   2.470   1.128   0.109 -0.3942 -0.3072 -0.2597
  167SAPS   C1218819   2.453   1.264  -0.046 -0.4668  0.3734 -0.6523
  167SAPS  H12A18820   2.384   1.318   0.018  1.7088  1.7634  0.6834
  167SAPS   C1318821   2.588   1.335  -0.020 -0.0323  0.7050  0.1964
  167SAPS  O13A18822   2.681   1.274   0.037  0.0047  0.0872 -0.4915
  167SAPS  O13B18823   2.611   1.447  -0.072 -0.3393  0.0815  0.3781
  167SAPS   C1118824   2.392   1.274  -0.189  0.2047 -0.0356 -0.3264
  167SAPS  H11A18825   2.463   1.225  -0.260  0.4721 -0.0744 -0.0357
  167SAPS  H11B18826   2.398   1.382  -0.214  0.6393 -0.3438 -1.6782
  167SAPS     P18827   2.194   1.150  -0.309  0.3556 -0.3353 -0.2499
  167SAPS   O1318828   2.202   1.006  -0.270 -0.2420  0.2896  0.2351
  167SAPS   O1418829   2.059   1.196  -0.337  0.2706  0.3395 -0.2496
  167SAPS   O1218830   2.251   1.236  -0.196  0.1355  0.2803  0.0898
  167SAPS   O1118831   2.287   1.171  -0.438 -0.5791 -0.2533  0.8580
  167SAPS    C118832   2.307   1.301  -0.493 -0.4039  0.0093 -0.1757
  167SAPS    HA18833   2.242   1.379  -0.448 -0.3954 -0.2229  0.2496
  167SAPS    HB18834   2.407   1.346  -0.476 -0.4698 -0.0113  0.2682
  167SAPS    C218835   2.290   1.286  -0.639  0.9134 -0.5594  0.0644
  167SAPS    HS18836   2.189   1.241  -0.654  0.0409  1.4660 -0.5815
  167SAPS   O2118837   2.393   1.203  -0.692  0.0884  0.2549  0.2527
  167SAPS   C2118838   2.357   1.135  -0.796  0.0858 -0.1716 -0.3889
  167SAPS   O2218839   2.243   1.117  -0.837 -0.5742  0.7781  0.1117
  167SAPS   C2218840   2.480   1.055  -0.853  0.0606 -0.3367 -0.2279
  167SAPS   H2R18841   2.504   0.980  -0.774  1.0278  0.6793  0.4811
  167SAPS   H2S18842   2.438   1.007  -0.944  2.1980 -0.3701 -1.2339
  167SAPS    C318843   2.280   1.419  -0.720 -0.1946  0.0298 -0.0759
  167SAPS    HX18844   2.368   1.487  -0.712  0.0779 -0.1568 -1.2707
  167SAPS    HY18845   2.199   1.476  -0.670 -1.0381  0.4565 -1.8342
  167SAPS   O3118846   2.251   1.399  -0.863 -0.1455  0.2756 -0.4936
  167SAPS   C3118847   2.172   1.480  -0.930 -0.4754 -1.0147 -0.0489
  167SAPS   O3218848   2.114   1.578  -0.889  0.3165  0.1448 -0.0418
  167SAPS   C3218849   2.139   1.421  -1.070 -0.3829 -0.1876 -0.8738
  167SAPS   H2X18850   2.045   1.470  -1.103 -0.3134  0.1318 -0.6084
  167SAPS   H2Y18851   2.118   1.312  -1.062  2.2367 -0.9542 -3.0555
  167SAPS   C2318852   2.594   1.145  -0.893 -0.0306  0.3792  0.2574
  167SAPS   H3R18853   2.683   1.082  -0.870  0.8543  1.4950 -0.0213
  167SAPS   H3S18854   2.602   1.242  -0.839  0.3837  0.8723 -0.6584
  167SAPS   C2418855   2.581   1.177  -1.048  0.6664 -0.2150 -0.3021
  167SAPS   H4R18856   2.495   1.246  -1.060 -0.2293 -1.0074  1.1840
  167SAPS   H4S18857   2.580   1.086  -1.111  5.0315 -0.8952  0.2509
  167SAPS   C2518858   2.707   1.250  -1.095 -0.0220 -0.1329 -0.2405
  167SAPS   H5R18859   2.774   1.287  -1.016  0.1330 -0.2956 -0.2954
  167SAPS   C2618860   2.743   1.279  -1.219 -1.0164 -0.2225  0.1357
  167SAPS   H6R18861   2.825   1.349  -1.244 -0.9269  0.2381  1.6328
  167SAPS   C2718862   2.668   1.239  -1.347  0.2995  0.0480 -0.1122
  167SAPS   H7R18863   2.581   1.174  -1.324  0.8164 -0.2254  1.2077
  167SAPS   H7S18864   2.734   1.161  -1.391 -1.0669 -0.8123 -0.6905
  167SAPS   C2818865   2.620   1.351  -1.426 -0.4890  0.4202 -0.1635
  167SAPS   H8R18866   2.527   1.400  -1.394 -0.3439  0.7069 -0.1781
  167SAPS   C2918867   2.686   1.401  -1.530 -0.0173 -0.4668 -0.0022
  167SAPS   H9R18868   2.654   1.496  -1.574  2.9295  0.7898  0.3038
  167SAPS  C21018869   2.819   1.351  -1.578 -0.5550  0.2623 -0.0127
  167SAPS  H10R18870   2.810   1.254  -1.630 -0.5402 -1.9269  3.7488
  167SAPS  H10S18871   2.881   1.322  -1.490 -0.7438 -0.4083 -0.0988
  167SAPS  C21118872   2.901   1.444  -1.663  0.0301  0.1672 -0.0526
  167SAPS  H11R18873   2.978   1.507  -1.617  2.9208 -0.6317 -3.3636
  167SAPS  C21218874   2.890   1.456  -1.796  0.8026 -0.6304 -0.6592
  167SAPS  H12R18875   2.961   1.522  -1.847 -0.8570  2.1891  0.4614
  167SAPS  C21318876   2.804   1.376  -1.893 -0.8577  0.0005  0.1414
  167SAPS  H13R18877   2.786   1.272  -1.859 -0.5850  0.6710  2.5097
  167SAPS  H13S18878   2.862   1.370  -1.987  0.0871 -1.4135  0.7842
  167SAPS  C21418879   2.674   1.450  -1.899 -0.3193  0.0617  0.1200
  167SAPS  H14R18880   2.644   1.513  -1.814 -0.5714  0.0899  0.0125
  167SAPS  C21518881   2.587   1.435  -1.998 -0.2034  0.4147  0.3755
  167SAPS  H15R18882   2.495   1.496  -1.998  1.1598  2.5791  1.4446
  167SAPS  C21618883   2.599   1.340  -2.113  0.3432  0.6761  0.3188
  167SAPS  H16R18884   2.515   1.267  -2.114  0.4252  0.5851 -0.3245
  167SAPS  H16S18885   2.689   1.276  -2.098  1.6013  2.3734  0.2479
  167SAPS  C21718886   2.606   1.398  -2.254 -0.3599 -0.0841 -0.2948
  167SAPS  H17R18887   2.700   1.457  -2.248  0.7801 -1.7870 -0.5345
  167SAPS  H17S18888   2.521   1.464  -2.280  0.2928  0.3017 -1.5300
  167SAPS  C21818889   2.623   1.288  -2.361  0.0050  0.1468  0.8328
  167SAPS  H18R18890   2.534   1.223  -2.349 -0.4020  0.6616  0.6804
  167SAPS  H18S18891   2.720   1.236  -2.345 -0.2585 -1.1880 -1.3991
  167SAPS  C21918892   2.634   1.330  -2.514  0.7842 -0.3323 -0.3824
  167SAPS  H19R18893   2.737   1.367  -2.528  0.9720 -0.4519  0.6287
  167SAPS  H19S18894   2.572   1.422  -2.525  0.4250 -0.0009  3.0800
  167SAPS  C22018895   2.619   1.219  -2.616 -0.1725  0.6368  0.0617
  167SAPS  H20R18896   2.716   1.170  -2.639 -0.3264  0.5829 -0.4642
  167SAPS  H20S18897   2.576   1.261  -2.709 -2.0683 -0.2993  0.4665
  167SAPS  H20T18898   2.550   1.137  -2.587 -1.0118  1.9629  2.1012
  167SAPS   C3318899   2.259   1.445  -1.161  0.1648  0.4124  0.0149
  167SAPS   H3X18900   2.346   1.389  -1.120 -1.1717 -1.3349  0.5606
  167SAPS   H3Y18901   2.285   1.553  -1.152  1.4110  0.0496  1.0725
  167SAPS   C3418902   2.232   1.398  -1.311 -0.0993 -1.0575 -0.4061
  167SAPS   H4X18903   2.318   1.441  -1.368 -0.5015 -1.3347 -1.2220
  167SAPS   H4Y18904   2.136   1.437  -1.350  1.8016  5.0017 -0.1042
  167SAPS   C3518905   2.214   1.244  -1.315 -1.5593 -0.2899 -0.0643
  167SAPS   H5X18906   2.107   1.221  -1.299 -1.4058 -0.1716  1.1832
  167SAPS   H5Y18907   2.279   1.193  -1.240  1.4264  2.1230 -0.8167
  167SAPS   C3618908   2.257   1.182  -1.451  0.1065 -0.2162 -0.1437
  167SAPS   H6X18909   2.233   1.074  -1.444 -1.0762  0.1146  1.4297
  167SAPS   H6Y18910   2.367   1.195  -1.454  0.0650  0.2652  0.2543
  167SAPS   C3718911   2.177   1.239  -1.569 -0.0269  0.4889  0.3408
  167SAPS   H7X18912   2.193   1.349  -1.569 -3.4197  1.0935  0.6357
  167SAPS   H7Y18913   2.068   1.231  -1.550 -0.5738  1.2932 -2.1305
  167SAPS   C3818914   2.234   1.198  -1.708 -0.2195 -0.2695  0.3728
  167SAPS   H8X18915   2.237   1.087  -1.713  2.3957 -0.2488 -0.0702
  167SAPS   H8Y18916   2.341   1.230  -1.707  1.2078 -4.4429  1.8119
  167SAPS   C3918917   2.151   1.260  -1.827 -0.1943 -0.2100 -0.2380
  167SAPS   H9X18918   2.183   1.366  -1.830  1.3192 -0.6546 -1.9832
  167SAPS   H9Y18919   2.040   1.257  -1.818 -0.1999 -0.8327 -0.4386
  167SAPS  C31018920   2.195   1.216  -1.969  0.1531 -0.2755 -0.4167
  167SAPS  H10X18921   2.172   1.107  -1.973  1.4284 -0.6932  1.5588
  167SAPS  H10Y18922   2.306   1.220  -1.977  0.1378  0.5502 -0.2962
  167SAPS  C31118923   2.138   1.307  -2.075  0.3698  0.0559 -0.1762
  167SAPS  H11X18924   2.165   1.411  -2.046  0.3736  0.1415 -0.4782
  167SAPS  H11Y18925   2.027   1.301  -2.071  0.4000  0.1758  2.2610
  167SAPS  C31218926   2.195   1.282  -2.218  0.9109  0.2199 -0.4097
  167SAPS  H12X18927   2.155   1.186  -2.257  2.9115 -0.4464 -0.9491
  167SAPS  H12Y18928   2.306   1.274  -2.218  1.1246  2.3879 -2.5022
  167SAPS  C31318929   2.163   1.396  -2.310  0.0234 -0.3915  0.7848
  167SAPS  H13X18930   2.204   1.490  -2.266  0.0686 -0.2922  0.5308
  167SAPS  H13Y18931   2.053   1.398  -2.326  0.0663  0.7552  0.5440
  167SAPS  C31418932   2.224   1.378  -2.450 -0.1012 -0.0368  0.1166
  167SAPS  H14X18933   2.174   1.293  -2.501  1.6387 -0.6429 -0.6327
  167SAPS  H14Y18934   2.331   1.352  -2.437 -0.1149  0.3615  1.1326
  167SAPS  C31518935   2.218   1.506  -2.535 -0.3476  0.1240 -0.0044
  167SAPS  H15X18936   2.114   1.543  -2.540 -1.3452 -1.6536  3.7172
  167SAPS  H15Y18937   2.242   1.483  -2.641 -5.0091 -1.1575 -1.0152
  167SAPS  C31618938   2.305   1.621  -2.489  0.2580 -0.4193  0.6632
  167SAPS  H16X18939   2.406   1.590  -2.456  0.4461  0.1108  0.6052
  167SAPS  H16Y18940   2.255   1.659  -2.397 -1.3974 -0.8182 -0.0275
  167SAPS  C31718941   2.323   1.738  -2.590 -0.6747 -0.2025  0.4488
  167SAPS  H17X18942   2.221   1.762  -2.629 -0.0231 -0.8384 -1.7774
  167SAPS  H17Y18943   2.367   1.692  -2.681 -0.6353  1.3506 -0.3525
  167SAPS  C31818944   2.399   1.856  -2.535  0.7739 -0.3521 -0.0973
  167SAPS  H18X18945   2.325   1.904  -2.468 -0.3375  2.0900 -2.8566
  167SAPS  H18Y18946   2.427   1.935  -2.608  2.2975  1.1816  2.0149
  167SAPS  H18Z18947   2.489   1.828  -2.476 -0.4741 -0.8126  1.6768
  168SAPS     N18948   1.924   5.683   8.329 -0.3626 -0.1360 -0.3905
  168SAPS   HN118949   1.851   5.610   8.321  0.8203 -1.2262 -1.6648
  168SAPS   HN218950   2.005   5.657   8.269  0.0727 -0.7945  0.4704
  168SAPS   HN318951   1.953   5.687   8.429  0.6017  1.6734 -0.6941
  168SAPS   C1218952   1.854   5.811   8.289 -0.2207  0.0150 -1.4485
  168SAPS  H12A18953   1.795   5.847   8.372  2.5273 -0.2712  0.7848
  168SAPS   C1318954   1.964   5.919   8.272  0.0929  0.0510  0.4273
  168SAPS  O13A18955   2.068   5.909   8.344  0.2130  0.1390  0.2604
  168SAPS  O13B18956   1.919   6.032   8.236  0.0361 -0.1945 -0.0438
  168SAPS   C1118957   1.763   5.793   8.164  0.0391  1.3821  0.0332
  168SAPS  H11A18958   1.818   5.743   8.082 -0.6814  0.6491 -0.0125
  168SAPS  H11B18959   1.729   5.893   8.129  0.5034  2.0824  1.4817
  168SAPS     P18960   1.639   5.562   8.186 -0.0397 -0.5096 -0.0408
  168SAPS   O1318961   1.750   5.512   8.269 -0.1828 -0.0313  0.7813
  168SAPS   O1418962   1.502   5.527   8.227 -0.0537  0.5019 -0.1263
  168SAPS   O1218963   1.644   5.722   8.206 -0.6274 -0.4418  0.5337
  168SAPS   O1118964   1.676   5.536   8.034  0.6579 -0.7333 -0.2755
  168SAPS    C118965   1.631   5.621   7.929 -0.5940  1.0977 -0.1299
  168SAPS    HA18966   1.547   5.685   7.964 -1.6022 -0.6343  0.7639
  168SAPS    HB18967   1.721   5.681   7.903  0.0299 -0.6769 -2.2649
  168SAPS    C218968   1.564   5.546   7.808  0.2061 -0.1010  0.6992
  168SAPS    HS18969   1.550   5.619   7.726 -0.4884  0.6024  1.4276
  168SAPS   O2118970   1.440   5.490   7.859 -0.6067  0.5170 -0.5228
  168SAPS   C2118971   1.339   5.490   7.766 -0.0041 -0.2638  0.3379
  168SAPS   O2218972   1.349   5.540   7.655 -0.1730 -0.4058  0.1531
  168SAPS   C2218973   1.221   5.414   7.814  0.6058  0.2324  0.2691
  168SAPS   H2R18974   1.259   5.314   7.845  3.1010  0.6024 -1.2744
  168SAPS   H2S18975   1.169   5.470   7.894 -2.4119  0.5095 -1.7196
  168SAPS    C318976   1.656   5.431   7.757 -0.5595  0.0791  0.1426
  168SAPS    HX18977   1.642   5.360   7.841 -1.0674 -0.3863 -0.3267
  168SAPS    HY18978   1.762   5.465   7.755 -0.2657 -0.5763  2.0330
  168SAPS   O3118979   1.608   5.381   7.631  0.0589  0.4316 -0.1798
  168SAPS   C3118980   1.694   5.278   7.594  0.3007 -0.0663 -0.6609
  168SAPS   O3218981   1.788   5.238   7.665 -0.6487 -0.7199 -0.3937
  168SAPS   C3218982   1.660   5.249   7.448  0.3199 -0.4832 -0.2472
  168SAPS   H2X18983   1.636   5.347   7.400  0.3840 -0.1620  0.3669
  168SAPS   H2Y18984   1.579   5.173   7.439 -0.6394  0.4320  0.3598
  168SAPS   C2318985   1.111   5.394   7.710  0.5515  0.5278 -0.5820
  168SAPS   H3R18986   1.082   5.487   7.658 -1.2058  0.6470  0.5490
  168SAPS   H3S18987   1.018   5.359   7.760  1.2574 -0.4819  0.0721
  168SAPS   C2418988   1.149   5.294   7.603 -0.2220 -0.1644 -0.4913
  168SAPS   H4R18989   1.197   5.208   7.655 -0.9563 -0.1001  0.3179
  168SAPS   H4S18990   1.234   5.329   7.541  0.3242 -1.4568 -0.5148
  168SAPS   C2518991   1.031   5.238   7.527  0.1531 -0.4721  0.7293
  168SAPS   H5R18992   0.957   5.189   7.592 -0.5184  0.9990  1.0986
  168SAPS   C2618993   0.997   5.240   7.397 -0.9105  0.2001 -0.2612
  168SAPS   H6R18994   0.895   5.209   7.367 -0.9768  0.9136 -0.8058
  168SAPS   C2718995   1.082   5.290   7.286 -0.2039 -1.0040  0.3617
  168SAPS   H7R18996   1.102   5.215   7.207 -1.7614 -0.6617 -0.4048
  168SAPS   H7S18997   1.182   5.319   7.324 -1.4200 -1.5201  4.3807
  168SAPS   C2818998   1.022   5.411   7.237  0.1569 -0.3097  0.2479
  168SAPS   H8R18999   1.072   5.504   7.268  1.2300 -0.6307 -0.4756
  168SAPS   C2919000   0.932   5.430   7.134 -0.3672  0.6074  0.0546
  168SAPS   H9R19001   0.899   5.534   7.119 -1.5039  0.1156 -0.8968
  168SAPS  C21019002   0.886   5.309   7.054  0.1281 -0.4716 -0.1022
  168SAPS  H10R19003   0.824   5.239   7.114 -0.3220 -0.9015 -1.0379
  168SAPS  H10S19004   0.973   5.254   7.014  0.3941  0.3158 -0.6270
  168SAPS  C21119005   0.791   5.355   6.945  0.0600 -0.4471 -0.3487
  168SAPS  H11R19006   0.797   5.459   6.908 -0.6416 -0.5710 -0.8375
  168SAPS  C21219007   0.698   5.280   6.883  0.8921  0.7208 -0.0790
  168SAPS  H12R19008   0.638   5.333   6.807  0.5193 -0.4292 -0.6094
  168SAPS  C21319009   0.654   5.137   6.913 -0.5448 -0.1177  0.5397
  168SAPS  H13R19010   0.696   5.101   7.009 -1.1077  1.6132  1.4719
  168SAPS  H13S19011   0.677   5.075   6.824 -1.2786 -0.2149  0.4067
  168SAPS  C21419012   0.508   5.150   6.938  0.0760 -0.2146  0.0506
  168SAPS  H14R19013   0.439   5.125   6.856  0.2430 -0.9639  0.1353
  168SAPS  C21519014   0.447   5.171   7.055 -0.4339  0.0611  0.2293
  168SAPS  H15R19015   0.338   5.161   7.058 -0.8016  2.7557 -1.2840
  168SAPS  C21619016   0.524   5.185   7.184  0.2154  0.0730 -0.4241
  168SAPS  H16R19017   0.469   5.269   7.232 -1.7587 -2.3534  1.8630
  168SAPS  H16S19018   0.630   5.218   7.176  1.1658 -2.3113  1.2461
  168SAPS  C21719019   0.503   5.073   7.288 -0.1943  0.2521  0.3390
  168SAPS  H17R19020   0.519   4.976   7.236 -0.5385  0.7657 -0.7590
  168SAPS  H17S19021   0.400   5.077   7.331 -0.5456 -0.7250 -0.3758
  168SAPS  C21819022   0.601   5.100   7.403  0.1374  0.2535 -0.1770
  168SAPS  H18R19023   0.698   5.123   7.355 -0.0971 -0.1445 -0.8699
  168SAPS  H18S19024   0.614   5.015   7.473  1.1482 -0.5901 -1.3573
  168SAPS  C21919025   0.560   5.220   7.501  0.9419  0.1706  0.2718
  168SAPS  H19R19026   0.455   5.210   7.536  0.9992 -2.2287 -0.0861
  168SAPS  H19S19027   0.573   5.310   7.437 -0.6150 -0.0327 -0.3798
  168SAPS  C22019028   0.653   5.228   7.623 -0.2100 -0.3694  0.2106
  168SAPS  H20R19029   0.654   5.140   7.690  1.1660 -1.7819 -1.5678
  168SAPS  H20S19030   0.651   5.325   7.676  4.1493  0.5295 -0.9184
  168SAPS  H20T19031   0.752   5.225   7.573 -0.3307  1.0162 -0.1581
  168SAPS   C3319032   1.781   5.189   7.369 -0.4714 -0.1461  0.4508
  168SAPS   H3X19033   1.811   5.089   7.408  0.0191 -0.1448  0.0782
  168SAPS   H3Y19034   1.872   5.247   7.394 -0.7769  0.0141  1.2436
  168SAPS   C3419035   1.753   5.174   7.219  0.7729 -0.0211 -0.1072
  168SAPS   H4X19036   1.644   5.160   7.204  0.6533  0.1545  0.5764
  168SAPS   H4Y19037   1.811   5.088   7.178  1.0078  0.2389 -0.3231
  168SAPS   C3519038   1.795   5.292   7.141  0.4758 -0.2986 -0.4455
  168SAPS   H5X19039   1.905   5.305   7.129  0.3619 -0.3903 -1.7176
  168SAPS   H5Y19040   1.753   5.388   7.178 -2.0049 -2.1749  1.9807
  168SAPS   C3619041   1.743   5.287   6.995  0.0316  0.0101 -0.0838
  168SAPS   H6X19042   1.732   5.393   6.962  0.9201 -0.2464 -1.2942
  168SAPS   H6Y19043   1.643   5.237   6.996  0.7781 -1.6154 -1.3154
  168SAPS   C3719044   1.851   5.231   6.905  0.2548 -0.0157  0.2598
  168SAPS   H7X19045   1.853   5.121   6.922  1.7162 -0.0084  0.2371
  168SAPS   H7Y19046   1.950   5.274   6.932 -0.7072  2.3259  0.3365
  168SAPS   C3819047   1.827   5.251   6.755  0.3500 -0.2960 -0.5757
  168SAPS   H8X19048   1.787   5.350   6.726 -3.3533 -1.7646 -1.0609
  168SAPS   H8Y19049   1.741   5.186   6.728  0.8931 -0.5565 -1.7497
  168SAPS   C3919050   1.958   5.221   6.675  0.7807 -0.0784  1.0166
  168SAPS   H9X19051   1.998   5.123   6.708  0.3116 -0.1057  1.5213
  168SAPS   H9Y19052   2.037   5.293   6.706 -0.0340  1.0182  0.6013
  168SAPS  C31019053   1.933   5.222   6.519 -0.2454 -0.2067 -0.1428
  168SAPS  H10X19054   1.901   5.327   6.501  1.5382  0.2924 -0.6546
  168SAPS  H10Y19055   1.854   5.147   6.501 -0.8437  0.9434 -2.6657
  168SAPS  C31119056   2.060   5.187   6.433  0.6658  0.4360 -0.0239
  168SAPS  H11X19057   2.096   5.091   6.477 -0.0066 -0.7925 -1.9846
  168SAPS  H11Y19058   2.128   5.273   6.451  0.6672  0.3209  0.5477
  168SAPS  C31219059   2.038   5.169   6.283  0.5173  0.4325 -0.3136
  168SAPS  H12X19060   1.993   5.266   6.254 -2.2367  0.4042  3.2269
  168SAPS  H12Y19061   1.958   5.092   6.272  1.4342 -0.2771 -2.6902
  168SAPS  C31319062   2.161   5.135   6.209  0.2206 -0.1531 -0.1106
  168SAPS  H13X19063   2.222   5.056   6.259 -1.4092 -0.6998  1.0655
  168SAPS  H13Y19064   2.230   5.222   6.201  0.9761 -0.7452 -0.1298
  168SAPS  C31419065   2.142   5.072   6.068  0.5657 -0.7215 -0.0045
  168SAPS  H14X19066   2.078   5.138   6.006 -0.4978 -2.3167 -0.6852
  168SAPS  H14Y19067   2.086   4.976   6.072  1.1944 -1.0903  0.0466
  168SAPS  C31519068   2.276   5.059   6.006  0.5260  0.6812  0.6127
  168SAPS  H15X19069   2.348   5.004   6.070  1.9285 -2.1373 -3.0096
  168SAPS  H15Y19070   2.323   5.158   5.990  0.0778  0.4952 -2.7726
  168SAPS  C31619071   2.268   4.984   5.869 -0.2043 -0.2403 -0.9172
  168SAPS  H16X19072   2.214   5.049   5.798  2.6402  4.1589  0.5107
  168SAPS  H16Y19073   2.209   4.893   5.894  1.5748 -0.9468  1.0871
  168SAPS  C31719074   2.396   4.942   5.808  0.9420  0.3009 -0.3596
  168SAPS  H17X19075   2.371   4.932   5.700  0.7229  2.7726 -0.5904
  168SAPS  H17Y19076   2.415   4.843   5.854 -0.7677  0.4229  0.7238
  168SAPS  C31819077   2.514   5.034   5.831 -0.5722  0.2102  0.2129
  168SAPS  H18X19078   2.521   5.053   5.941 -1.0177  3.3261 -0.2056
  168SAPS  H18Y19079   2.509   5.129   5.774  2.0267 -0.0282 -0.5269
  168SAPS  H18Z19080   2.609   4.981   5.809 -0.7621 -0.9015  1.8933
  169SAPS     N19081   1.800   0.446   8.429 -0.0228  0.0790 -0.2011
  169SAPS   HN119082   1.800   0.549   8.412 -0.2154  0.2894  1.0410
  169SAPS   HN219083   1.898   0.414   8.446 -0.6062 -1.6064  0.1807
  169SAPS   HN319084   1.766   0.394   8.345 -2.1299  1.8709 -0.5481
  169SAPS   C1219085   1.717   0.431   8.544 -0.2040 -0.4348 -0.5339
  169SAPS  H12A19086   1.701   0.325   8.559 -1.4424 -0.4480 -1.6664
  169SAPS   C1319087   1.781   0.485   8.678 -0.5604 -0.3369  0.0023
  169SAPS  O13A19088   1.900   0.520   8.671  0.0642  0.1342 -0.0584
  169SAPS  O13B19089   1.733   0.448   8.787 -0.0256 -0.0147  0.1968
  169SAPS   C1119090   1.579   0.503   8.516  0.0778  0.0761 -0.1812
  169SAPS  H11A19091   1.591   0.613   8.514 -0.8765  0.1960  0.1262
  169SAPS  H11B19092   1.511   0.479   8.601 -0.0744  0.6826 -0.1290
  169SAPS     P19093   1.472   0.324   8.369  0.2041  0.0180  0.2461
  169SAPS   O1319094   1.585   0.239   8.345 -0.0739 -0.0505 -0.4002
  169SAPS   O1419095   1.380   0.293   8.476 -0.0791  0.1907 -0.0954
  169SAPS   O1219096   1.527   0.473   8.386  0.3409  0.3104 -0.3336
  169SAPS   O1119097   1.383   0.320   8.236  0.0056 -0.1237  0.3249
  169SAPS    C119098   1.299   0.429   8.198  1.4058  0.0639 -0.7492
  169SAPS    HA19099   1.196   0.398   8.228  1.8474 -0.1924  0.5852
  169SAPS    HB19100   1.316   0.521   8.257  1.8254 -0.1727 -0.4931
  169SAPS    C219101   1.307   0.454   8.047 -0.2610 -0.5263 -0.2607
  169SAPS    HS19102   1.214   0.501   8.008  0.6014  1.4560 -0.0463
  169SAPS   O2119103   1.328   0.334   7.969 -0.4417 -0.9214 -0.1905
  169SAPS   C2119104   1.229   0.243   7.964 -0.7639  0.1540 -0.1113
  169SAPS   O2219105   1.114   0.258   8.000 -0.3284 -0.0265 -0.1350
  169SAPS   C2219106   1.295   0.114   7.897 -0.5591 -0.3451  0.4304
  169SAPS   H2R19107   1.295   0.145   7.790  3.3075  0.5907  0.5545
  169SAPS   H2S19108   1.403   0.106   7.920 -0.8872 -0.3911  2.0572
  169SAPS    C319109   1.423   0.556   8.023  0.0151 -0.4020 -0.0008
  169SAPS    HX19110   1.515   0.543   8.084 -0.4192  2.3619  1.3697
  169SAPS    HY19111   1.376   0.650   8.057  1.1426  0.1475  0.0705
  169SAPS   O3119112   1.447   0.576   7.880  0.2305  0.5087 -0.5402
  169SAPS   C3119113   1.562   0.531   7.824 -0.4894 -0.4230 -0.8979
  169SAPS   O3219114   1.655   0.484   7.889  0.0139 -0.5131 -0.2299
  169SAPS   C3219115   1.557   0.567   7.672 -0.0633 -0.9970 -0.0057
  169SAPS   H2X19116   1.518   0.670   7.658 -1.0665 -1.0788  1.8993
  169SAPS   H2Y19117   1.481   0.505   7.620 -0.7075  1.5722 -2.3927
  169SAPS   C2319118   1.226  -0.022   7.920 -0.1487  0.4733  0.2648
  169SAPS   H3R19119   1.241  -0.039   8.029 -1.5295 -1.2892  0.2193
  169SAPS   H3S19120   1.287  -0.107   7.883 -1.9169 -0.3337 -0.9252
  169SAPS   C2419121   1.077  -0.041   7.875 -0.1056  0.3329  0.0944
  169SAPS   H4R19122   1.074  -0.029   7.764  1.5423 -0.3585 -0.0606
  169SAPS   H4S19123   1.022   0.039   7.928 -0.8523  2.0296 -3.0114
  169SAPS   C2519124   1.023  -0.178   7.906 -0.3325 -0.2417 -0.2878
  169SAPS   H5R19125   0.972  -0.180   8.003 -0.4100  0.6653 -0.3046
  169SAPS   C2619126   1.020  -0.283   7.814  0.3026  0.6054 -0.8514
  169SAPS   H6R19127   0.975  -0.370   7.864  2.1321 -0.2143 -0.5415
  169SAPS   C2719128   1.064  -0.286   7.663  0.8366 -0.2799 -0.7176
  169SAPS   H7R19129   0.993  -0.221   7.608 -0.8381 -1.3421  0.0955
  169SAPS   H7S19130   1.040  -0.389   7.630 -0.3645 -0.8608  1.7266
  169SAPS   C2819131   1.202  -0.252   7.630 -0.8045  0.0933  0.6932
  169SAPS   H8R19132   1.269  -0.248   7.717 -0.4051 -0.3797  0.4114
  169SAPS   C2919133   1.242  -0.244   7.500 -0.5192  0.2039  0.0609
  169SAPS   H9R19134   1.347  -0.212   7.489 -0.7424  1.7519  1.8177
  169SAPS  C21019135   1.155  -0.254   7.378  0.2037  0.1514 -0.1657
  169SAPS  H10R19136   1.078  -0.174   7.380 -1.3843 -1.3042  2.0419
  169SAPS  H10S19137   1.112  -0.356   7.382 -2.6119  1.2822  1.4237
  169SAPS  C21119138   1.246  -0.228   7.259 -0.3867 -0.0903  0.7094
  169SAPS  H11R19139   1.356  -0.236   7.262 -0.2107 -0.2570 -2.5291
  169SAPS  C21219140   1.199  -0.171   7.142 -0.6626  0.7242 -0.7401
  169SAPS  H12R19141   1.273  -0.175   7.061 -0.2681  1.8168 -0.4445
  169SAPS  C21319142   1.064  -0.131   7.091  0.7706 -0.0951  0.3910
  169SAPS  H13R19143   1.060  -0.020   7.095  0.2304 -0.1013  0.0733
  169SAPS  H13S19144   0.988  -0.159   7.166  0.2992  2.8637  1.1595
  169SAPS  C21419145   1.031  -0.190   6.957  0.1892  0.6346 -0.3803
  169SAPS  H14R19146   1.042  -0.299   6.951 -3.0416  0.2078 -0.3801
  169SAPS  C21519147   0.985  -0.124   6.851  0.0854 -0.5315  0.3148
  169SAPS  H15R19148   0.953  -0.187   6.767  1.6577  0.0472 -0.7692
  169SAPS  C21619149   0.976   0.034   6.831 -0.3579  0.5286 -0.2673
  169SAPS  H16R19150   0.975   0.075   6.934 -1.4362 -4.0810  1.8122
  169SAPS  H16S19151   0.881   0.066   6.782 -0.7959  0.2684  0.4030
  169SAPS  C21719152   1.097   0.069   6.747  0.1718 -0.4584  0.3680
  169SAPS  H17R19153   1.108  -0.001   6.662  4.1382 -1.9396  1.8498
  169SAPS  H17S19154   1.191   0.056   6.806  1.6425 -0.2117 -1.8206
  169SAPS  C21819155   1.095   0.216   6.694  0.7365  0.3294  0.0441
  169SAPS  H18R19156   1.116   0.277   6.785 -1.2996 -1.8356  2.0996
  169SAPS  H18S19157   0.986   0.233   6.680  0.1331 -1.6975  1.8002
  169SAPS  C21919158   1.189   0.242   6.572 -0.6986  0.5665  0.3794
  169SAPS  H19R19159   1.156   0.345   6.545 -0.8254  0.1556 -1.1134
  169SAPS  H19S19160   1.157   0.172   6.492  0.2140  0.6754 -0.0911
  169SAPS  C22019161   1.334   0.225   6.606  0.6197  0.4769 -0.0676
  169SAPS  H20R19162   1.393   0.294   6.542 -0.4421  0.9961 -0.5138
  169SAPS  H20S19163   1.363   0.118   6.613 -2.6412 -0.4260  1.3325
  169SAPS  H20T19164   1.356   0.270   6.705 -0.3377 -0.7959  0.7504
  169SAPS   C3319165   1.690   0.556   7.600  0.4410 -0.4101 -0.0893
  169SAPS   H3X19166   1.748   0.469   7.635  0.6103 -0.0947  0.4337
  169SAPS   H3Y19167   1.752   0.642   7.636  2.3221 -0.9588 -1.8636
  169SAPS   C3419168   1.700   0.560   7.445 -0.3195 -0.3225  0.4772
  169SAPS   H4X19169   1.810   0.564   7.429 -0.3769 -2.4833 -0.8022
  169SAPS   H4Y19170   1.644   0.653   7.421 -0.9733 -0.6299  0.7861
  169SAPS   C3519171   1.646   0.427   7.387  0.3671 -0.7778 -0.5452
  169SAPS   H5X19172   1.542   0.395   7.408  0.9270 -2.1759  0.2960
  169SAPS   H5Y19173   1.710   0.347   7.430  0.6772 -0.1151  0.2436
  169SAPS   C3619174   1.650   0.441   7.239  0.1448 -0.2560 -0.2411
  169SAPS   H6X19175   1.588   0.525   7.202 -1.1151  0.4229  3.1005
  169SAPS   H6Y19176   1.611   0.347   7.194 -3.3431  0.7663  0.3846
  169SAPS   C3719177   1.794   0.457   7.177 -1.4148 -0.4826 -0.5573
  169SAPS   H7X19178   1.859   0.381   7.226 -1.2300  0.1738  0.2301
  169SAPS   H7Y19179   1.828   0.559   7.203 -0.8758 -0.9923  0.8125
  169SAPS   C3819180   1.810   0.440   7.027 -0.0623  0.9058  1.0058
  169SAPS   H8X19181   1.834   0.539   6.981 -1.8150  1.0252  0.2746
  169SAPS   H8Y19182   1.720   0.390   6.986  0.4191  1.3247 -0.6034
  169SAPS   C3919183   1.930   0.349   6.988  0.2042  0.4692  0.6201
  169SAPS   H9X19184   1.897   0.248   7.020 -3.9336  0.9470 -1.4346
  169SAPS   H9Y19185   2.025   0.372   7.040 -0.0958 -0.7344  1.7480
  169SAPS  C31019186   1.955   0.336   6.830 -0.1451 -0.5243  0.3584
  169SAPS  H10X19187   1.861   0.339   6.771  0.2753 -1.9124 -0.4426
  169SAPS  H10Y19188   2.009   0.242   6.806 -1.9797 -1.5100 -0.0890
  169SAPS  C31119189   2.042   0.447   6.773 -0.2508  0.1480 -0.0063
  169SAPS  H11X19190   2.138   0.459   6.828 -0.8269  0.0752  1.0369
  169SAPS  H11Y19191   1.986   0.541   6.792 -0.3090 -0.1797  1.5670
  169SAPS  C31219192   2.069   0.447   6.623 -0.0263 -0.0021 -0.0896
  169SAPS  H12X19193   2.121   0.542   6.599 -0.7256  0.8475  1.5883
  169SAPS  H12Y19194   1.974   0.438   6.567  0.4076  0.5823 -0.9452
  169SAPS  C31319195   2.145   0.324   6.570 -0.0363  0.0035  0.0916
  169SAPS  H13X19196   2.175   0.345   6.465 -1.3576 -1.7488 -0.6793
  169SAPS  H13Y19197   2.069   0.246   6.549 -1.1970  0.7932  1.1949
  169SAPS  C31419198   2.270   0.280   6.648 -0.1787  0.1503 -0.1904
  169SAPS  H14X19199   2.253   0.181   6.696 -0.1523  0.3547  0.2392
  169SAPS  H14Y19200   2.276   0.368   6.716 -3.2601  1.6078 -1.6277
  169SAPS  C31519201   2.397   0.267   6.560  0.2228 -0.0527 -0.3533
  169SAPS  H15X19202   2.477   0.249   6.635  0.3884 -0.6385 -0.6657
  169SAPS  H15Y19203   2.421   0.357   6.498 -0.1197  2.0004  2.3399
  169SAPS  C31619204   2.397   0.154   6.462  0.0916 -0.3282  1.0327
  169SAPS  H16X19205   2.326   0.174   6.379  0.9415  0.2859  0.4428
  169SAPS  H16Y19206   2.370   0.055   6.506  0.9611 -0.3903  1.4502
  169SAPS  C31719207   2.536   0.134   6.388  0.9141 -0.2467 -1.1469
  169SAPS  H17X19208   2.578   0.231   6.353 -2.1846  1.1143 -1.4572
  169SAPS  H17Y19209   2.528   0.071   6.297 -0.3601 -2.6636  0.5211
  169SAPS  C31819210   2.638   0.078   6.486 -0.1021  0.3323 -0.1604
  169SAPS  H18X19211   2.734   0.122   6.453 -1.7102  1.3120 -4.0630
  169SAPS  H18Y19212   2.632  -0.033   6.490 -0.5496  0.3809  1.2585
  169SAPS  H18Z19213   2.634   0.111   6.592  0.1264 -0.8588  0.2420
  170SAPS     N19214   3.838   4.001   8.479 -0.0445 -0.2666 -0.0836
  170SAPS   HN119215   3.781   3.961   8.557 -0.1980 -0.5606 -0.3416
  170SAPS   HN219216   3.913   3.937   8.446 -0.5997 -1.0190  0.0785
  170SAPS   HN319217   3.879   4.092   8.508 -0.5631 -0.7334  2.2629
  170SAPS   C1219218   3.751   4.026   8.362 -0.0328 -0.4347  0.5563
  170SAPS  H12A19219   3.772   3.943   8.295 -0.3148 -0.0838  0.0254
  170SAPS   C1319220   3.595   4.022   8.393 -0.0726 -0.0093  0.5205
  170SAPS  O13A19221   3.565   4.058   8.510  0.5963  0.1292 -0.1990
  170SAPS  O13B19222   3.514   4.044   8.302 -0.2134  0.1492  0.5468
  170SAPS   C1119223   3.782   4.154   8.280 -0.3670 -0.4409 -0.1065
  170SAPS  H11A19224   3.722   4.232   8.332 -3.2544 -1.4080 -1.8027
  170SAPS  H11B19225   3.734   4.123   8.184  1.9518 -2.7738 -0.6352
  170SAPS     P19226   3.957   4.299   8.170 -0.1632  0.2557  0.0709
  170SAPS   O1319227   3.884   4.415   8.219  0.4053 -0.6600 -0.4651
  170SAPS   O1419228   4.104   4.313   8.170  0.3752  0.4194 -0.2874
  170SAPS   O1219229   3.918   4.181   8.265  0.3828  0.4278 -0.3871
  170SAPS   O1119230   3.904   4.248   8.034  1.0524 -0.1800 -1.3201
  170SAPS    C119231   3.980   4.147   7.963  0.2746  0.4952  0.0541
  170SAPS    HA19232   4.090   4.160   7.964  0.6321 -1.5578 -2.6546
  170SAPS    HB19233   3.960   4.046   8.005 -0.5281  0.9696  0.8402
  170SAPS    C219234   3.941   4.130   7.810 -0.2446  0.3289 -0.0958
  170SAPS    HS19235   3.998   4.042   7.775 -1.8206 -0.5031 -0.6726
  170SAPS   O2119236   3.981   4.252   7.739  0.0144  0.2391 -0.2136
  170SAPS   C2119237   4.115   4.256   7.715  0.2220 -0.3318 -0.3011
  170SAPS   O2219238   4.194   4.166   7.742  0.3262  0.5514  0.1074
  170SAPS   C2219239   4.148   4.402   7.679 -0.7809  0.3735 -0.0810
  170SAPS   H2R19240   4.056   4.449   7.637 -0.7379  0.5324  0.0045
  170SAPS   H2S19241   4.168   4.460   7.771  0.1722  0.6127 -0.4335
  170SAPS    C319242   3.786   4.091   7.811 -0.0072 -0.3884  0.0303
  170SAPS    HX19243   3.723   4.161   7.871  1.6063  0.5707  0.6772
  170SAPS    HY19244   3.789   3.999   7.873 -1.6365 -1.0325 -0.7783
  170SAPS   O3119245   3.731   4.045   7.681 -0.6240 -0.3269 -0.5060
  170SAPS   C3119246   3.686   4.144   7.615 -0.0754 -0.6677  0.9591
  170SAPS   O3219247   3.682   4.260   7.652 -0.3521 -0.2138 -0.3616
  170SAPS   C3219248   3.649   4.106   7.473 -0.2122  0.8789  0.1891
  170SAPS   H2X19249   3.539   4.120   7.470 -0.1772  1.2541  0.5494
  170SAPS   H2Y19250   3.669   3.997   7.458  0.7634  1.1579 -0.6242
  170SAPS   C2319251   4.262   4.405   7.583  0.5672 -0.5498  0.7048
  170SAPS   H3R19252   4.331   4.331   7.627 -0.1327 -1.7525 -0.1576
  170SAPS   H3S19253   4.306   4.507   7.590 -1.0176  0.2847 -0.7999
  170SAPS   C2419254   4.224   4.359   7.444 -0.0014  0.1558  0.8102
  170SAPS   H4R19255   4.165   4.266   7.453  2.9489 -2.0062 -0.6428
  170SAPS   H4S19256   4.315   4.325   7.390 -0.1533 -0.5751  1.0081
  170SAPS   C2519257   4.158   4.473   7.370 -0.0083  0.3546  0.5394
  170SAPS   H5R19258   4.048   4.477   7.375  0.0612  2.0081  1.2245
  170SAPS   C2619259   4.214   4.567   7.290 -0.6990  0.4873  0.3078
  170SAPS   H6R19260   4.152   4.641   7.237 -1.7754  0.3555  1.3386
  170SAPS   C2719261   4.363   4.577   7.276 -0.7825 -0.1744 -0.5269
  170SAPS   H7R19262   4.407   4.475   7.270  0.1816  0.0362  2.0384
  170SAPS   H7S19263   4.415   4.612   7.368 -0.0694 -1.4911 -0.4061
  170SAPS   C2819264   4.410   4.663   7.163  0.6301  0.2637  0.3843
  170SAPS   H8R19265   4.407   4.769   7.192 -1.0566  0.6511 -1.0857
  170SAPS   C2919266   4.427   4.625   7.035  0.0634 -0.4399  0.4323
  170SAPS   H9R19267   4.455   4.709   6.970 -0.3573  0.2231  1.0866
  170SAPS  C21019268   4.417   4.491   6.974  0.3599  0.2492  0.3986
  170SAPS  H10R19269   4.452   4.412   7.044 -0.6151  0.7676  1.4983
  170SAPS  H10S19270   4.486   4.484   6.888  0.3768 -0.6912  0.4705
  170SAPS  C21119271   4.272   4.466   6.935 -0.1095 -0.1092  0.0113
  170SAPS  H11R19272   4.201   4.468   7.019 -1.1787 -0.5248 -0.8564
  170SAPS  C21219273   4.225   4.409   6.823 -0.2000  0.6446  0.4294
  170SAPS  H12R19274   4.118   4.415   6.800 -0.4169  0.4694  1.3431
  170SAPS  C21319275   4.307   4.364   6.702  0.7361  0.2222 -0.2907
  170SAPS  H13R19276   4.256   4.283   6.647  1.2859  0.2547 -0.8621
  170SAPS  H13S19277   4.403   4.322   6.741  1.5558  1.6934 -0.6520
  170SAPS  C21419278   4.355   4.476   6.610  0.2137 -0.1190 -0.2054
  170SAPS  H14R19279   4.432   4.542   6.652 -0.2691  0.5650 -0.3819
  170SAPS  C21519280   4.322   4.494   6.477  0.0225  0.6793  0.1700
  170SAPS  H15R19281   4.364   4.578   6.421  0.6868 -0.6472 -1.4087
  170SAPS  C21619282   4.221   4.419   6.397  0.0060  0.1068  0.0820
  170SAPS  H16R19283   4.127   4.475   6.377  0.7326  0.7028 -1.8078
  170SAPS  H16S19284   4.190   4.324   6.446  0.8297 -0.6932 -0.9131
  170SAPS  C21719285   4.283   4.379   6.263  0.0498  0.2851 -0.1125
  170SAPS  H17R19286   4.220   4.297   6.223  0.9867  0.4482 -2.0439
  170SAPS  H17S19287   4.375   4.319   6.280 -1.1675 -1.1943  1.6229
  170SAPS  C21819288   4.291   4.491   6.163 -0.1170 -0.0711  0.0366
  170SAPS  H18R19289   4.391   4.537   6.179  0.8932 -2.1941  0.3123
  170SAPS  H18S19290   4.210   4.562   6.188 -2.2900 -2.2378 -0.4371
  170SAPS  C21919291   4.262   4.443   6.016  1.3625 -0.2298 -0.3446
  170SAPS  H19R19292   4.257   4.531   5.948 -1.4861  0.1654  0.2657
  170SAPS  H19S19293   4.163   4.393   6.021  0.8271  0.8698  0.4048
  170SAPS  C22019294   4.377   4.346   5.977 -0.3701  0.2194 -0.0115
  170SAPS  H20R19295   4.475   4.396   5.992  0.1431 -0.9152  0.5459
  170SAPS  H20S19296   4.385   4.312   5.872  1.9539  0.5250  0.0121
  170SAPS  H20T19297   4.378   4.258   6.045  2.2380  2.0508  2.5703
  170SAPS   C3319298   3.699   4.194   7.354 -0.2241  0.3837  0.1747
  170SAPS   H3X19299   3.679   4.299   7.385  1.8394  0.0600  2.9236
  170SAPS   H3Y19300   3.630   4.175   7.269 -0.6947 -1.6330  0.9373
  170SAPS   C3419301   3.848   4.170   7.316 -0.0223  0.1874 -0.3352
  170SAPS   H4X19302   3.852   4.061   7.293  0.5645  0.2309 -0.4712
  170SAPS   H4Y19303   3.916   4.181   7.403 -0.7536 -0.3769  0.3205
  170SAPS   C3519304   3.898   4.250   7.196  0.5370  0.2746 -0.2447
  170SAPS   H5X19305   4.002   4.214   7.188  0.0446 -1.0323 -1.1824
  170SAPS   H5Y19306   3.898   4.358   7.221  0.0360  0.3892 -0.7262
  170SAPS   C3619307   3.825   4.231   7.065 -0.3094  0.4662 -0.0259
  170SAPS   H6X19308   3.841   4.323   7.006  0.1513  0.3666 -0.0643
  170SAPS   H6Y19309   3.717   4.225   7.090 -0.1711  0.2031  0.5421
  170SAPS   C3719310   3.873   4.106   6.991 -0.3806  0.2019 -0.5119
  170SAPS   H7X19311   3.850   4.007   7.036 -2.2746  0.0181 -1.7624
  170SAPS   H7Y19312   3.981   4.107   6.966  0.0541  0.3071  1.2443
  170SAPS   C3819313   3.802   4.097   6.848  0.4936  0.6241 -1.3954
  170SAPS   H8X19314   3.691   4.104   6.849  0.4681  0.3648  0.0718
  170SAPS   H8Y19315   3.820   3.995   6.810  0.7250 -1.3528  3.3489
  170SAPS   C3919316   3.862   4.181   6.742  0.6203  0.4316 -0.1373
  170SAPS   H9X19317   3.968   4.148   6.734  0.1387 -0.7831 -2.0413
  170SAPS   H9Y19318   3.863   4.289   6.768  0.1249  0.1609  1.0424
  170SAPS  C31019319   3.800   4.166   6.604  0.5571 -0.2753  0.5830
  170SAPS  H10X19320   3.708   4.227   6.613  1.0400  0.3630  1.3389
  170SAPS  H10Y19321   3.768   4.063   6.575  1.0126 -0.0660 -0.7533
  170SAPS  C31119322   3.886   4.236   6.492 -0.3325 -0.0976  0.5729
  170SAPS  H11X19323   3.984   4.185   6.485  0.2667  0.7956  1.9521
  170SAPS  H11Y19324   3.902   4.344   6.514 -0.7225  0.7066 -2.5750
  170SAPS  C31219325   3.813   4.248   6.352 -0.5062 -0.0395  0.4265
  170SAPS  H12X19326   3.737   4.327   6.369  0.5887  0.8287  1.5208
  170SAPS  H12Y19327   3.769   4.148   6.330 -2.1924  0.1797  2.4601
  170SAPS  C31319328   3.916   4.278   6.239  0.4287  0.2438 -0.2710
  170SAPS  H13X19329   3.986   4.193   6.235  0.4746  0.1695  1.6197
  170SAPS  H13Y19330   3.978   4.368   6.260  0.9422  0.1551 -1.3316
  170SAPS  C31419331   3.857   4.305   6.101  0.3475 -0.0275  0.0972
  170SAPS  H14X19332   3.944   4.345   6.045 -0.5358  0.3187 -1.0633
  170SAPS  H14Y19333   3.788   4.388   6.125  2.5649  1.2946  2.4853
  170SAPS  C31519334   3.793   4.183   6.043  0.5867  0.1222 -0.2098
  170SAPS  H15X19335   3.729   4.217   5.959  1.6065  0.0319 -1.0499
  170SAPS  H15Y19336   3.731   4.136   6.122 -0.9857 -1.3828 -2.2294
  170SAPS  C31619337   3.885   4.075   5.997 -0.2124 -0.5396 -0.5635
  170SAPS  H16X19338   3.943   4.036   6.084 -1.6504  0.4948  0.9288
  170SAPS  H16Y19339   3.964   4.128   5.941 -1.2236 -0.3866 -1.8961
  170SAPS  C31719340   3.821   3.972   5.911  0.2491 -0.2308  0.4581
  170SAPS  H17X19341   3.759   4.024   5.835  2.8210 -0.0014 -1.6641
  170SAPS  H17Y19342   3.742   3.916   5.964 -2.3987  0.7702 -2.1402
  170SAPS  C31819343   3.911   3.876   5.832  0.1024 -0.0346  0.2434
  170SAPS  H18X19344   3.998   3.936   5.797  0.0011 -1.0795 -1.9954
  170SAPS  H18Y19345   3.868   3.823   5.745  1.7184 -0.7643 -0.1505
  170SAPS  H18Z19346   3.952   3.799   5.900  1.6112  1.0949  0.6820
  171SAPS     N19347   4.159   0.507   8.665  0.4107 -0.0764  0.2833
  171SAPS   HN119348   4.196   0.412   8.643  0.7383  0.2249 -0.5057
  171SAPS   HN219349   4.076   0.483   8.723 -0.6365  0.6884 -0.8298
  171SAPS   HN319350   4.122   0.558   8.582  0.4816 -2.2096 -1.1568
  171SAPS   C1219351   4.252   0.585   8.756  0.9583 -0.8313  0.9165
  171SAPS  H12A19352   4.200   0.672   8.793 -2.4640 -1.4000 -2.0562
  171SAPS   C1319353   4.301   0.496   8.874  0.8327 -0.1918 -0.3285
  171SAPS  O13A19354   4.242   0.386   8.896  0.0041  0.5472  0.2630
  171SAPS  O13B19355   4.380   0.542   8.957 -0.4093 -0.1560 -0.4056
  171SAPS   C1119356   4.376   0.631   8.684  0.6759 -0.0354  0.1067
  171SAPS  H11A19357   4.441   0.556   8.633  1.6947 -0.1091  1.4474
  171SAPS  H11B19358   4.442   0.676   8.761 -0.1836 -0.7826  1.3128
  171SAPS     P19359   4.435   0.790   8.491 -0.0499 -0.5678 -0.0457
  171SAPS   O1319360   4.525   0.684   8.455  0.0435  0.2138  0.5571
  171SAPS   O1419361   4.352   0.847   8.381  0.7486  0.3862  0.2698
  171SAPS   O1219362   4.340   0.743   8.602 -0.2112  0.1028  0.2319
  171SAPS   O1119363   4.507   0.903   8.573 -0.0630  0.4012  0.1844
  171SAPS    C119364   4.479   1.037   8.548 -0.0496 -0.6589 -0.1450
  171SAPS    HA19365   4.372   1.049   8.524  0.4586  3.3888 -1.1746
  171SAPS    HB19366   4.505   1.106   8.631 -1.8833  1.9725 -1.6146
  171SAPS    C219367   4.558   1.107   8.431  0.5820  0.3378 -0.6447
  171SAPS    HS19368   4.539   1.041   8.344 -1.1609 -0.1177  0.0447
  171SAPS   O2119369   4.694   1.099   8.471  0.5640  0.6272  0.0836
  171SAPS   C2119370   4.780   1.082   8.374  0.0032 -0.3839 -0.1743
  171SAPS   O2219371   4.759   1.054   8.256 -0.2319 -0.2999 -0.3327
  171SAPS   C2219372   4.918   1.096   8.441 -0.1257 -0.6019 -0.6259
  171SAPS   H2R19373   4.905   1.112   8.550 -1.7899 -0.8547 -0.7687
  171SAPS   H2S19374   4.980   1.006   8.423 -1.2471 -2.0417  2.1874
  171SAPS    C319375   4.511   1.254   8.411  0.3526  0.4514  0.0690
  171SAPS    HX19376   4.543   1.312   8.500  3.3903  0.0841 -0.6748
  171SAPS    HY19377   4.400   1.259   8.407  0.2719 -0.6704  0.5263
  171SAPS   O3119378   4.569   1.328   8.301 -0.3148 -0.5018  0.1266
  171SAPS   C3119379   4.516   1.295   8.176  0.3292 -0.4417  0.3970
  171SAPS   O3219380   4.417   1.230   8.159 -0.0971  0.3599  0.6619
  171SAPS   C3219381   4.595   1.367   8.059 -0.7923 -0.4543 -0.1650
  171SAPS   H2X19382   4.689   1.405   8.105 -0.3431  1.2775 -2.3444
  171SAPS   H2Y19383   4.541   1.461   8.039  1.9626  1.2873 -0.0065
  171SAPS   C2319384   4.992   1.214   8.376 -0.2193 -0.1659  0.0713
  171SAPS   H3R19385   5.016   1.179   8.274 -1.2392  1.8765 -0.9176
  171SAPS   H3S19386   5.087   1.230   8.431  0.2194  0.5137 -0.8777
  171SAPS   C2419387   4.910   1.346   8.374 -0.0805 -0.5338  0.4533
  171SAPS   H4R19388   4.815   1.329   8.319  0.6030  0.2827 -1.0476
  171SAPS   H4S19389   4.961   1.414   8.301 -2.5302  1.4555  0.4554
  171SAPS   C2519390   4.909   1.419   8.506  0.1431 -0.3835  0.1324
  171SAPS   H5R19391   4.936   1.359   8.594  1.2058 -0.8778 -0.5041
  171SAPS   C2619392   4.865   1.546   8.535 -0.8295  0.0580  0.9327
  171SAPS   H6R19393   4.882   1.584   8.637 -0.4440 -0.1498  0.9472
  171SAPS   C2719394   4.819   1.647   8.432 -0.1319 -0.0128  0.0543
  171SAPS   H7R19395   4.757   1.716   8.493  0.9216  0.2037  0.9057
  171SAPS   H7S19396   4.750   1.593   8.363  0.9105  0.1480 -1.1564
  171SAPS   C2819397   4.924   1.730   8.355 -0.1599  0.8640  0.3113
  171SAPS   H8R19398   4.992   1.796   8.411  0.4061  1.6588 -1.2571
  171SAPS   C2919399   4.917   1.748   8.219  0.4250  0.5402  0.1790
  171SAPS   H9R19400   4.989   1.820   8.179  2.2757 -1.6236 -0.6153
  171SAPS  C21019401   4.827   1.678   8.117 -0.3736 -0.8682  0.3207
  171SAPS  H10R19402   4.722   1.710   8.137 -1.2992 -2.4669 -1.6489
  171SAPS  H10S19403   4.830   1.570   8.144 -2.9385 -0.2940  3.5248
  171SAPS  C21119404   4.871   1.697   7.978 -1.1247 -0.3846  0.2546
  171SAPS  H11R19405   4.971   1.655   7.959 -2.1842 -1.9807 -2.2582
  171SAPS  C21219406   4.822   1.775   7.880  0.5119  0.3180 -0.1989
  171SAPS  H12R19407   4.863   1.786   7.779 -0.3213  1.3456 -0.4509
  171SAPS  C21319408   4.698   1.863   7.900  0.9557 -0.1137 -0.3338
  171SAPS  H13R19409   4.616   1.815   7.959  2.1917 -0.4950  1.1509
  171SAPS  H13S19410   4.649   1.889   7.804  0.1259 -0.5411 -0.0443
  171SAPS  C21419411   4.745   1.994   7.960  0.0582  0.0926 -0.2715
  171SAPS  H14R19412   4.803   1.972   8.050  0.7600  1.0059 -0.4861
  171SAPS  C21519413   4.745   2.116   7.909 -1.1155 -0.9281 -0.2320
  171SAPS  H15R19414   4.791   2.196   7.969 -2.3260  0.0918 -0.6189
  171SAPS  C21619415   4.711   2.189   7.790  0.0858  0.4443 -0.2630
  171SAPS  H16R19416   4.685   2.121   7.707 -0.5480  0.4599 -0.0836
  171SAPS  H16S19417   4.795   2.252   7.754  2.8762 -3.0602 -0.4130
  171SAPS  C21719418   4.584   2.280   7.800 -0.1318 -0.5928 -0.0446
  171SAPS  H17R19419   4.582   2.334   7.896 -0.5616 -0.9028  0.1265
  171SAPS  H17S19420   4.494   2.215   7.803 -0.1643 -0.6904 -1.7578
  171SAPS  C21819421   4.577   2.390   7.691  0.5197  0.4924  0.1272
  171SAPS  H18R19422   4.661   2.461   7.682 -0.0391  0.9966 -1.5178
  171SAPS  H18S19423   4.484   2.444   7.717  0.6559  0.6410  0.3050
  171SAPS  C21919424   4.562   2.331   7.545 -0.3865 -0.3506  0.5290
  171SAPS  H19R19425   4.487   2.251   7.561 -3.0924  1.7755 -0.7153
  171SAPS  H19S19426   4.655   2.275   7.520  0.2100  0.1573  1.5499
  171SAPS  C22019427   4.513   2.440   7.453 -0.3065 -0.7526 -0.3948
  171SAPS  H20R19428   4.417   2.483   7.490  0.0516  3.2783 -3.4054
  171SAPS  H20S19429   4.495   2.417   7.346 -2.0463  1.2948 -0.6188
  171SAPS  H20T19430   4.582   2.525   7.470 -0.8694 -0.4330  0.3545
  171SAPS   C3319431   4.622   1.281   7.928 -0.2798 -0.2289 -0.0656
  171SAPS   H3X19432   4.534   1.253   7.867 -0.6768 -1.1086  0.8798
  171SAPS   H3Y19433   4.662   1.188   7.974 -1.3559 -0.5315  0.2858
  171SAPS   C3419434   4.726   1.346   7.831  0.3652  0.0854  0.2783
  171SAPS   H4X19435   4.813   1.281   7.812  0.3355  0.1991 -0.2462
  171SAPS   H4Y19436   4.780   1.435   7.869 -1.0694  1.9393 -1.8016
  171SAPS   C3519437   4.668   1.385   7.694 -0.2691  0.8222  0.0644
  171SAPS   H5X19438   4.601   1.473   7.706  1.0528  1.7482  1.0035
  171SAPS   H5Y19439   4.619   1.297   7.648 -0.7311  0.8329  0.5282
  171SAPS   C3619440   4.788   1.433   7.620 -0.4979  0.1955  0.0722
  171SAPS   H6X19441   4.874   1.362   7.621  0.5937  1.3446 -2.2173
  171SAPS   H6Y19442   4.831   1.530   7.651  0.9823 -0.5965  0.6333
  171SAPS   C3719443   4.754   1.441   7.469  0.7196 -0.2782 -0.5772
  171SAPS   H7X19444   4.674   1.516   7.451  2.7583  1.7189 -1.7522
  171SAPS   H7Y19445   4.694   1.350   7.447 -1.2425  0.4454  1.4278
  171SAPS   C3819446   4.873   1.462   7.378  0.0163  0.0496 -0.5100
  171SAPS   H8X19447   4.944   1.376   7.381  2.3635  1.6878 -3.7372
  171SAPS   H8Y19448   4.932   1.547   7.418 -0.7599 -0.0744  0.9883
  171SAPS   C3919449   4.841   1.488   7.234  0.5700 -0.3762  0.5122
  171SAPS   H9X19450   4.790   1.587   7.228  0.1447 -0.4840  1.9515
  171SAPS   H9Y19451   4.763   1.415   7.204 -0.7212  2.3807 -3.8000
  171SAPS  C31019452   4.951   1.485   7.132 -0.0945  0.8690 -0.0474
  171SAPS  H10X19453   5.013   1.395   7.152 -1.0787 -0.1152 -1.2418
  171SAPS  H10Y19454   5.011   1.578   7.143  0.2888  0.5718  0.4293
  171SAPS  C31119455   4.895   1.473   6.991  0.6696 -0.3204  0.3216
  171SAPS  H11X19456   4.841   1.565   6.958 -1.7351 -0.7989  2.5628
  171SAPS  H11Y19457   4.824   1.390   6.970  0.7535 -0.2468 -0.2882
  171SAPS  C31219458   5.012   1.436   6.897  0.7503  0.2138  0.3460
  171SAPS  H12X19459   5.077   1.354   6.937  1.2402  0.3456 -0.1631
  171SAPS  H12Y19460   5.085   1.519   6.887  0.9128  0.4019  2.5065
  171SAPS  C31319461   4.972   1.388   6.755  0.5281  0.2993  0.2056
  171SAPS  H13X19462   4.919   1.291   6.771  1.9648 -0.5753 -0.1514
  171SAPS  H13Y19463   5.063   1.362   6.697 -0.4212 -1.2039 -0.6788
  171SAPS  C31419464   4.895   1.496   6.678  0.0409  0.1704 -0.7807
  171SAPS  H14X19465   4.947   1.593   6.696  1.7327 -1.2969  3.4943
  171SAPS  H14Y19466   4.796   1.497   6.727  0.3442  0.4640 -0.1610
  171SAPS  C31519467   4.885   1.475   6.522 -0.1627 -0.3383  0.1236
  171SAPS  H15X19468   4.838   1.569   6.486 -1.6560 -0.7607  0.8645
  171SAPS  H15Y19469   4.818   1.389   6.499 -0.3014  0.0848 -1.1086
  171SAPS  C31619470   5.020   1.463   6.445  0.6189 -0.1016  0.3762
  171SAPS  H16X19471   5.078   1.378   6.488 -0.4004 -1.3608 -0.6609
  171SAPS  H16Y19472   5.089   1.550   6.449  0.8223 -0.0994 -1.7894
  171SAPS  C31719473   5.009   1.424   6.295 -0.0672 -0.0123  0.8819
  171SAPS  H17X19474   4.950   1.330   6.295  0.0195 -0.1514 -1.6701
  171SAPS  H17Y19475   5.110   1.406   6.252  0.6018  1.6971  1.6489
  171SAPS  C31819476   4.938   1.522   6.205 -0.5856 -0.6055  0.0414
  171SAPS  H18X19477   4.979   1.625   6.215 -1.0252 -0.2669 -1.3476
  171SAPS  H18Y19478   4.835   1.521   6.248 -0.2116 -0.8923  0.9633
  171SAPS  H18Z19479   4.944   1.486   6.100 -1.8312 -0.2213 -0.1890
  172SAPS     N19480   4.185   6.433   8.487 -0.0044 -0.1934 -0.2468
  172SAPS   HN119481   4.111   6.449   8.415  1.3820  1.4107 -1.4290
  172SAPS   HN219482   4.236   6.521   8.507 -1.0723 -0.1092  2.4367
  172SAPS   HN319483   4.251   6.363   8.448 -0.1152 -0.8285  0.7037
  172SAPS   C1219484   4.124   6.391   8.614  0.5542 -0.7292  0.8464
  172SAPS  H12A19485   4.211   6.364   8.673  2.4012  2.9919  0.1857
  172SAPS   C1319486   4.046   6.508   8.686  0.6309 -0.1620  0.5333
  172SAPS  O13A19487   4.031   6.618   8.623 -0.5172 -0.0858  0.8397
  172SAPS  O13B19488   4.022   6.501   8.807 -0.1677  0.1759 -0.1170
  172SAPS   C1119489   4.034   6.269   8.602  0.0069 -0.4333 -0.4630
  172SAPS  H11A19490   3.947   6.311   8.546  0.9362  0.5327 -1.2456
  172SAPS  H11B19491   4.001   6.229   8.700  0.8282  1.7706  0.7893
  172SAPS     P19492   4.005   6.034   8.505 -0.5402  0.3622 -0.1037
  172SAPS   O1319493   4.014   5.952   8.629  0.0674 -0.0444 -0.3620
  172SAPS   O1419494   3.872   6.074   8.454 -0.2505 -0.1602 -0.8094
  172SAPS   O1219495   4.094   6.165   8.524  0.2503 -0.4764 -0.1125
  172SAPS   O1119496   4.079   5.955   8.390  0.0276 -0.0400 -0.4518
  172SAPS    C119497   4.202   5.998   8.329 -0.6359  1.0663  0.1527
  172SAPS    HA19498   4.279   6.036   8.400  0.9868 -1.5687 -0.0655
  172SAPS    HB19499   4.245   5.909   8.278 -1.5910  0.8457 -0.2838
  172SAPS    C219500   4.174   6.102   8.222 -0.2013 -0.4195 -0.2694
  172SAPS    HS19501   4.125   6.192   8.265 -0.3365 -0.4701 -0.3173
  172SAPS   O2119502   4.085   6.044   8.134  0.2036  0.2285  0.0802
  172SAPS   C2119503   3.998   6.109   8.077 -0.2733 -0.2470 -0.2062
  172SAPS   O2219504   3.983   6.235   8.085 -0.4206  0.2482  0.0922
  172SAPS   C2219505   3.901   6.017   8.008  0.5731 -0.2066 -0.0943
  172SAPS   H2R19506   3.957   5.947   7.943 -1.6216 -0.4529 -1.8459
  172SAPS   H2S19507   3.851   5.951   8.082 -1.9495  2.4636  0.7872
  172SAPS    C319508   4.305   6.130   8.152 -0.6085 -0.6417 -0.7407
  172SAPS    HX19509   4.336   6.028   8.120 -2.7648 -1.5195 -0.1509
  172SAPS    HY19510   4.390   6.166   8.215 -1.4912 -1.3864  0.9545
  172SAPS   O3119511   4.294   6.206   8.034 -0.4496  0.3117 -0.0094
  172SAPS   C3119512   4.287   6.339   8.048 -0.0370 -0.5482  0.0655
  172SAPS   O3219513   4.283   6.395   8.157  0.3740  0.0560  0.0101
  172SAPS   C3219514   4.289   6.417   7.916 -0.3382 -0.4239 -0.6259
  172SAPS   H2X19515   4.367   6.496   7.929  0.5435 -1.5268  1.2290
  172SAPS   H2Y19516   4.199   6.481   7.906 -0.4105 -0.6798 -1.7613
  172SAPS   C2319517   3.797   6.081   7.919  0.8755  0.6646 -0.0093
  172SAPS   H3R19518   3.735   6.149   7.982 -0.6647 -0.4637 -0.2459
  172SAPS   H3S19519   3.720   6.007   7.889  0.1821  0.6585  1.6797
  172SAPS   C2419520   3.866   6.160   7.810  0.8961 -0.2003  0.0581
  172SAPS   H4R19521   3.924   6.087   7.750  1.5919 -0.6259  1.2051
  172SAPS   H4S19522   3.953   6.218   7.846  2.4366 -3.0516  1.2809
  172SAPS   C2519523   3.769   6.244   7.733  0.3056  0.3620  0.0327
  172SAPS   H5R19524   3.704   6.307   7.795  1.4980  0.0869  1.6008
  172SAPS   C2619525   3.762   6.257   7.595  0.7360 -0.0560  0.1375
  172SAPS   H6R19526   3.690   6.334   7.565  0.2379 -0.2379  0.8326
  172SAPS   C2719527   3.848   6.187   7.499  0.2934 -0.6930  0.0071
  172SAPS   H7R19528   3.955   6.189   7.528  0.0965  0.4171  0.7259
  172SAPS   H7S19529   3.847   6.256   7.413  0.1783 -3.3094 -2.2152
  172SAPS   C2819530   3.813   6.047   7.445  0.2923  0.0751 -0.0408
  172SAPS   H8R19531   3.862   5.956   7.483 -0.4292  0.0608  0.8737
  172SAPS   C2919532   3.713   6.034   7.348  0.0820 -0.2345 -0.1412
  172SAPS   H9R19533   3.687   5.935   7.306 -0.9663  1.3142 -3.4913
  172SAPS  C21019534   3.642   6.156   7.280 -0.1050  1.0940  0.1414
  172SAPS  H10R19535   3.702   6.249   7.290 -0.3758  1.0826  2.2668
  172SAPS  H10S19536   3.543   6.189   7.319 -2.3397 -1.0256 -3.1789
  172SAPS  C21119537   3.628   6.123   7.137  0.0712 -0.1931 -0.8302
  172SAPS  H11R19538   3.722   6.121   7.080 -0.0883 -0.9510 -1.0719
  172SAPS  C21219539   3.513   6.105   7.067  0.0594  0.6080 -0.3693
  172SAPS  H12R19540   3.514   6.067   6.963 -0.4831 -0.8351  0.1177
  172SAPS  C21319541   3.386   6.073   7.133  0.6696  0.0204 -0.2622
  172SAPS  H13R19542   3.399   6.006   7.220 -1.9006 -1.1107 -0.6619
  172SAPS  H13S19543   3.335   6.011   7.056  0.8348  0.6304 -0.8772
  172SAPS  C21419544   3.317   6.209   7.157 -0.4814 -0.0670 -0.3020
  172SAPS  H14R19545   3.337   6.261   7.251 -0.9921  0.0155 -0.2371
  172SAPS  C21519546   3.221   6.258   7.073  0.7527 -0.9858  0.1164
  172SAPS  H15R19547   3.186   6.361   7.088  0.2290 -0.8262 -1.9721
  172SAPS  C21619548   3.184   6.193   6.939 -0.1490  0.1164  0.1500
  172SAPS  H16R19549   3.132   6.099   6.968  0.0479  0.0092  0.1570
  172SAPS  H16S19550   3.282   6.170   6.891  1.2047  1.6321  1.9895
  172SAPS  C21719551   3.109   6.287   6.844 -0.0025 -0.5640  0.0329
  172SAPS  H17R19552   3.178   6.370   6.815  0.2055 -1.4567 -2.2908
  172SAPS  H17S19553   3.018   6.321   6.896  0.1931 -0.3338  0.2280
  172SAPS  C21819554   3.061   6.221   6.712  0.7020 -0.6223 -0.1762
  172SAPS  H18R19555   3.026   6.119   6.737 -1.2899  0.5043  2.0557
  172SAPS  H18S19556   3.155   6.208   6.654  0.8334  1.6187 -0.5708
  172SAPS  C21919557   2.955   6.298   6.638 -0.2960  0.1805  0.2309
  172SAPS  H19R19558   3.007   6.383   6.590  0.2363  0.5002  1.3409
  172SAPS  H19S19559   2.883   6.340   6.712 -0.7600 -2.3576  1.3427
  172SAPS  C22019560   2.868   6.217   6.545 -0.0343 -0.2971 -0.6276
  172SAPS  H20R19561   2.935   6.169   6.471 -0.6966 -2.8921  0.3685
  172SAPS  H20S19562   2.797   6.283   6.490 -0.6522  0.5266  1.0681
  172SAPS  H20T19563   2.808   6.141   6.598  0.3865  0.7622  1.4660
  172SAPS   C3319564   4.306   6.331   7.789 -0.3786 -0.0531  0.0334
  172SAPS   H3X19565   4.233   6.248   7.787  0.9956 -1.3308  0.9459
  172SAPS   H3Y19566   4.409   6.289   7.788 -1.3729 -2.8397  2.2439
  172SAPS   C3419567   4.272   6.411   7.660  0.8923  0.3047 -0.3450
  172SAPS   H4X19568   4.312   6.364   7.568 -1.6956  0.8448 -1.8499
  172SAPS   H4Y19569   4.331   6.505   7.653 -1.1291  1.8694  1.9986
  172SAPS   C3519570   4.129   6.438   7.620 -0.2339 -0.8411 -0.4111
  172SAPS   H5X19571   4.085   6.501   7.699 -1.4513 -1.9118 -0.1993
  172SAPS   H5Y19572   4.066   6.346   7.610  1.9756 -2.5113  0.1261
  172SAPS   C3619573   4.119   6.528   7.494  1.0405  0.5572 -0.0904
  172SAPS   H6X19574   4.186   6.617   7.492  1.2300  0.4067 -0.7356
  172SAPS   H6Y19575   4.018   6.575   7.491  1.0771  0.5994 -1.7195
  172SAPS   C3719576   4.146   6.454   7.359  0.1041 -0.4653 -0.3943
  172SAPS   H7X19577   4.123   6.349   7.387  0.0540 -0.2997  0.2200
  172SAPS   H7Y19578   4.254   6.447   7.336  0.5645 -0.2440  1.4725
  172SAPS   C3819579   4.066   6.511   7.237  0.6381  0.6070 -0.4449
  172SAPS   H8X19580   4.098   6.616   7.220  0.1267  0.5813 -1.6496
  172SAPS   H8Y19581   3.960   6.508   7.270  0.6674 -2.1669 -0.3779
  172SAPS   C3919582   4.081   6.421   7.109  0.8861  0.2751 -0.4370
  172SAPS   H9X19583   4.186   6.405   7.076  1.1354 -1.3825  1.0096
  172SAPS   H9Y19584   4.026   6.479   7.032  1.0340  1.2990  0.2207
  172SAPS  C31019585   4.011   6.282   7.121  0.2459 -0.1096 -0.0633
  172SAPS  H10X19586   3.902   6.293   7.141 -0.4407 -0.3420 -3.1849
  172SAPS  H10Y19587   4.058   6.228   7.206 -0.9243 -2.1063 -0.6099
  172SAPS  C31119588   4.014   6.197   6.989  0.7265 -0.1060 -0.6869
  172SAPS  H11X19589   3.957   6.104   7.009 -1.1273  0.5894 -2.3687
  172SAPS  H11Y19590   4.116   6.184   6.948  1.4106 -0.1839  0.9838
  172SAPS  C31219591   3.943   6.259   6.871  0.3882 -0.3987  0.0217
  172SAPS  H12X19592   3.995   6.350   6.835 -2.9427  1.1394 -1.3047
  172SAPS  H12Y19593   3.844   6.307   6.887  0.4480  0.3553 -1.6195
  172SAPS  C31319594   3.916   6.164   6.757 -0.5567  0.5430  0.3477
  172SAPS  H13X19595   3.862   6.074   6.793 -0.8055  0.0497 -1.1613
  172SAPS  H13Y19596   4.012   6.125   6.718 -1.3066 -0.2158 -0.8095
  172SAPS  C31419597   3.831   6.225   6.640  0.2718  0.3775  0.1570
  172SAPS  H14X19598   3.725   6.239   6.672  0.2906 -1.4904  1.1642
  172SAPS  H14Y19599   3.824   6.148   6.560  1.6470  0.1135  0.2801
  172SAPS  C31519600   3.892   6.354   6.588 -0.3272 -0.4489 -0.1738
  172SAPS  H15X19601   3.999   6.340   6.562  0.1362 -0.3043  1.5061
  172SAPS  H15Y19602   3.887   6.434   6.665  0.8296  1.7210 -2.2266
  172SAPS  C31619603   3.809   6.417   6.472  0.3623  0.0051  0.4722
  172SAPS  H16X19604   3.842   6.364   6.380  1.0167 -0.1387  0.7827
  172SAPS  H16Y19605   3.703   6.394   6.495  0.2670 -0.1492 -0.1192
  172SAPS  C31719606   3.834   6.562   6.457 -0.3778  0.0756  0.2696
  172SAPS  H17X19607   3.845   6.613   6.556  2.3177 -0.1210  0.1431
  172SAPS  H17Y19608   3.749   6.601   6.398 -0.6737 -1.3005 -0.2367
  172SAPS  C31819609   3.975   6.599   6.394  0.1275  0.6838 -0.7853
  172SAPS  H18X19610   3.987   6.553   6.293  1.1048  2.3531 -1.4616
  172SAPS  H18Y19611   4.057   6.562   6.460 -0.9805  0.3257  0.4357
  172SAPS  H18Z19612   3.978   6.710   6.396 -0.7018  0.6979  0.3198
  173SAPS     N19613   6.652   5.978   3.828 -0.5638 -0.0422  0.1182
  173SAPS   HN119614   6.728   5.934   3.883  2.0301 -1.1345 -3.9322
  173SAPS   HN219615   6.620   6.057   3.888 -0.8095 -1.0789  1.4216
  173SAPS   HN319616   6.565   5.921   3.820 -0.0524 -0.6009 -2.1485
  173SAPS   C1219617   6.699   6.027   3.700 -1.3089 -0.1142 -0.0407
  173SAPS  H12A19618   6.727   5.942   3.639 -0.8036  1.4752 -2.1125
  173SAPS   C1319619   6.592   6.099   3.615  0.1896  0.2605 -0.2501
  173SAPS  O13A19620   6.472   6.103   3.663 -0.5118  0.1050  0.2716
  173SAPS  O13B19621   6.614   6.117   3.492 -0.9144 -0.7007 -0.4282
  173SAPS   C1119622   6.826   6.127   3.716 -0.6822 -0.7256 -0.3929
  173SAPS  H11A19623   6.795   6.217   3.773 -0.3713 -0.0114 -1.3373
  173SAPS  H11B19624   6.863   6.158   3.617  1.4213 -1.5067  0.0917
  173SAPS     P19625   7.079   6.042   3.721 -0.0912 -0.0802 -0.1340
  173SAPS   O1319626   7.060   5.994   3.585  0.2111  0.1193 -0.4643
  173SAPS   O1419627   7.155   6.168   3.735 -0.3448 -0.2390  0.8712
  173SAPS   O1219628   6.938   6.065   3.786 -0.1744  0.1849  0.5325
  173SAPS   O1119629   7.146   5.931   3.810 -0.6046 -0.3760 -0.0581
  173SAPS    C119630   7.069   5.819   3.855  0.2134 -0.9717  0.2587
  173SAPS    HA19631   6.967   5.809   3.811  0.4409  1.5786 -1.0308
  173SAPS    HB19632   7.110   5.723   3.817  0.3328  0.2331 -2.8879
  173SAPS    C219633   7.072   5.807   4.019  0.5930  0.5694  0.2962
  173SAPS    HS19634   7.004   5.723   4.044 -0.7399  1.1567 -1.1676
  173SAPS   O2119635   7.039   5.932   4.086 -0.3490 -0.7022 -0.0636
  173SAPS   C2119636   6.905   5.957   4.076 -0.2242  0.3979  0.0282
  173SAPS   O2219637   6.826   5.888   4.015 -0.0442  0.1322  0.2316
  173SAPS   C2219638   6.871   6.082   4.142 -0.7041 -0.1267 -0.6024
  173SAPS   H2R19639   6.891   6.172   4.080 -2.4084  0.9796  0.3755
  173SAPS   H2S19640   6.760   6.092   4.136 -0.4955  2.5250 -1.4214
  173SAPS    C319641   7.223   5.767   4.058 -0.5569  0.6426  0.4774
  173SAPS    HX19642   7.283   5.855   4.026  0.2023  0.1212  0.4590
  173SAPS    HY19643   7.248   5.679   3.995  2.7311  2.6684 -1.3221
  173SAPS   O3119644   7.239   5.727   4.195  0.3948  0.2268  0.5811
  173SAPS   C3119645   7.281   5.828   4.280  0.4515  0.3113  0.4188
  173SAPS   O3219646   7.309   5.942   4.239  0.4765  0.0761 -0.0808
  173SAPS   C3219647   7.309   5.774   4.418  0.8919  0.2626  0.3235
  173SAPS   H2X19648   7.406   5.822   4.443 -0.2377  2.1173  1.4259
  173SAPS   H2Y19649   7.307   5.664   4.402  2.3311  0.3112 -0.3721
  173SAPS   C2319650   6.928   6.103   4.285 -0.2140 -0.9637 -0.2369
  173SAPS   H3R19651   6.912   6.211   4.308 -0.1556 -1.2614  1.3125
  173SAPS   H3S19652   7.038   6.109   4.271 -0.0534 -2.5356  0.2268
  173SAPS   C2419653   6.874   6.016   4.396 -0.0993 -0.5100  0.1458
  173SAPS   H4R19654   6.945   6.039   4.478 -1.0223 -0.6850  1.0261
  173SAPS   H4S19655   6.871   5.907   4.377 -0.3125 -0.4598 -0.1250
  173SAPS   C2519656   6.737   6.065   4.425 -0.2962  0.4533 -0.4326
  173SAPS   H5R19657   6.662   6.025   4.354  1.3876 -3.7930 -0.1459
  173SAPS   C2619658   6.690   6.138   4.525 -0.4465 -0.5625  0.5171
  173SAPS   H6R19659   6.586   6.175   4.526  0.6217  2.8424  0.6455
  173SAPS   C2719660   6.778   6.186   4.637 -0.4813 -0.1845 -0.1895
  173SAPS   H7R19661   6.876   6.215   4.593 -1.3942 -0.2207 -2.4005
  173SAPS   H7S19662   6.805   6.096   4.696  0.9024 -0.7369 -1.5982
  173SAPS   C2819663   6.723   6.297   4.718  0.0858  0.4177 -1.2960
  173SAPS   H8R19664   6.694   6.388   4.663  0.9870  1.4405 -0.1625
  173SAPS   C2919665   6.732   6.314   4.850 -0.2112 -0.5186 -0.3047
  173SAPS   H9R19666   6.680   6.404   4.888 -0.5795 -0.6698 -0.4507
  173SAPS  C21019667   6.788   6.216   4.953  0.4787 -0.2333 -0.3191
  173SAPS  H10R19668   6.860   6.143   4.911  3.2144  0.5822  2.5841
  173SAPS  H10S19669   6.703   6.162   5.000  0.0673 -0.6360 -1.4786
  173SAPS  C21119670   6.864   6.286   5.060 -0.2406 -0.1656  0.1079
  173SAPS  H11R19671   6.901   6.386   5.034 -3.2067  1.2909  0.9923
  173SAPS  C21219672   6.878   6.244   5.186  0.1468 -0.0185 -1.0859
  173SAPS  H12R19673   6.939   6.310   5.250 -2.1821  2.6639 -1.4275
  173SAPS  C21319674   6.808   6.128   5.250  0.6533  0.0438 -0.4375
  173SAPS  H13R19675   6.709   6.111   5.201  1.6249 -0.0968 -2.4187
  173SAPS  H13S19676   6.786   6.158   5.355 -0.7841  0.9716 -0.9578
  173SAPS  C21419677   6.892   6.004   5.253  0.6551  0.0986  0.4170
  173SAPS  H14R19678   6.987   6.017   5.199  0.7593 -1.5980  0.1184
  173SAPS  C21519679   6.866   5.892   5.319  0.5497 -0.0433  0.1629
  173SAPS  H15R19680   6.932   5.805   5.327  1.4876  0.6736  0.4684
  173SAPS  C21619681   6.738   5.874   5.400  0.9293  0.2820 -0.8866
  173SAPS  H16R19682   6.669   5.816   5.336 -0.7612  1.0171  0.2083
  173SAPS  H16S19683   6.684   5.966   5.431  0.2502 -0.7390  1.1426
  173SAPS  C21719684   6.742   5.780   5.526 -0.1839 -0.5672  0.4125
  173SAPS  H17R19685   6.819   5.701   5.517 -0.2891 -0.6646  0.3773
  173SAPS  H17S19686   6.644   5.732   5.544 -0.9520  1.2429  1.3930
  173SAPS  C21819687   6.791   5.860   5.647 -0.9780 -0.6037 -0.1833
  173SAPS  H18R19688   6.730   5.945   5.684  0.4093  0.1306  0.5276
  173SAPS  H18S19689   6.897   5.892   5.636 -0.9336  0.3390  2.2518
  173SAPS  C21919690   6.804   5.761   5.766 -1.1821 -0.3475 -0.3784
  173SAPS  H19R19691   6.841   5.662   5.733 -0.4615 -1.2815  2.8435
  173SAPS  H19S19692   6.705   5.738   5.811 -0.0433 -1.0086  1.9583
  173SAPS  C22019693   6.899   5.816   5.867  0.0632  0.6266  0.1929
  173SAPS  H20R19694   6.989   5.867   5.827  0.2046  1.6412  1.7342
  173SAPS  H20S19695   6.944   5.746   5.940 -0.2249  0.4948  0.2477
  173SAPS  H20T19696   6.841   5.890   5.926 -2.2902 -0.4444 -0.6496
  173SAPS   C3319697   7.195   5.810   4.518 -0.2996  0.3810 -0.0440
  173SAPS   H3X19698   7.115   5.738   4.493  0.3621 -0.8268  1.1765
  173SAPS   H3Y19699   7.160   5.915   4.508 -2.9010 -0.1812  2.1766
  173SAPS   C3419700   7.251   5.794   4.664  0.4579 -0.4592  0.4983
  173SAPS   H4X19701   7.334   5.864   4.690  1.9509  0.6608 -5.6921
  173SAPS   H4Y19702   7.292   5.692   4.678  1.1783 -0.2150  0.2009
  173SAPS   C3519703   7.136   5.815   4.760 -0.4036 -0.5654 -0.5686
  173SAPS   H5X19704   7.061   5.735   4.744 -0.4197 -0.3156 -1.7909
  173SAPS   H5Y19705   7.083   5.910   4.735 -0.7243  0.2160  2.6198
  173SAPS   C3619706   7.174   5.820   4.909 -0.3720  0.1877 -0.6221
  173SAPS   H6X19707   7.084   5.852   4.966  1.7483  0.7509  2.6588
  173SAPS   H6Y19708   7.250   5.899   4.925 -1.4871  1.0306  0.7373
  173SAPS   C3719709   7.207   5.678   4.962  0.0337  0.0788  0.2153
  173SAPS   H7X19710   7.303   5.642   4.918 -0.9773 -2.1746 -0.2981
  173SAPS   H7Y19711   7.131   5.603   4.933 -0.8564  0.2415  1.9988
  173SAPS   C3819712   7.215   5.665   5.115  0.6025  0.0520 -0.1733
  173SAPS   H8X19713   7.122   5.707   5.158  0.7597  1.1235 -0.8560
  173SAPS   H8Y19714   7.299   5.726   5.156  1.2978 -0.3989 -0.9055
  173SAPS   C3919715   7.235   5.520   5.159 -0.5036  0.1086 -0.3947
  173SAPS   H9X19716   7.319   5.482   5.098  0.5183  0.9033  0.4869
  173SAPS   H9Y19717   7.145   5.456   5.142 -0.6311 -0.4302  1.9640
  173SAPS  C31019718   7.281   5.522   5.309 -0.0090 -0.6178 -0.6767
  173SAPS  H10X19719   7.390   5.544   5.304 -0.2844  0.7642 -1.2473
  173SAPS  H10Y19720   7.273   5.420   5.352 -1.0469 -0.7557 -1.1840
  173SAPS  C31119721   7.207   5.628   5.399 -0.4578  0.4833  0.0658
  173SAPS  H11X19722   7.099   5.606   5.407 -0.0943 -0.9411  1.7218
  173SAPS  H11Y19723   7.235   5.731   5.368 -0.2052 -0.6911 -4.1234
  173SAPS  C31219724   7.257   5.620   5.541 -0.7943 -0.0618  0.4718
  173SAPS  H12X19725   7.367   5.632   5.551 -0.9568  0.3356  2.1669
  173SAPS  H12Y19726   7.251   5.519   5.586  3.4861 -1.8379 -2.3436
  173SAPS  C31319727   7.186   5.718   5.631 -0.2702 -0.3257 -0.1922
  173SAPS  H13X19728   7.076   5.703   5.628 -0.5872  1.5526  0.5054
  173SAPS  H13Y19729   7.194   5.819   5.587 -2.7527 -0.0715 -0.1803
  173SAPS  C31419730   7.245   5.736   5.769 -0.3240  0.7930  0.0343
  173SAPS  H14X19731   7.203   5.828   5.815  0.6850  1.9571 -1.2793
  173SAPS  H14Y19732   7.354   5.756   5.760  0.1297 -1.3415  0.2876
  173SAPS  C31519733   7.220   5.617   5.859 -0.5393  0.7814  0.6442
  173SAPS  H15X19734   7.236   5.518   5.810 -2.3561  0.6067  0.3354
  173SAPS  H15Y19735   7.111   5.617   5.876 -0.2450 -1.0969  3.0621
  173SAPS  C31619736   7.300   5.618   5.990 -0.3566  0.5402 -0.2951
  173SAPS  H16X19737   7.410   5.614   5.972  0.4623 -2.7213  3.7510
  173SAPS  H16Y19738   7.278   5.528   6.053  0.2125  0.8822  0.4046
  173SAPS  C31719739   7.264   5.731   6.088  0.1436 -0.2256 -0.4134
  173SAPS  H17X19740   7.158   5.732   6.119  0.0010 -1.1482 -0.8463
  173SAPS  H17Y19741   7.293   5.828   6.043  0.3410 -0.3548 -0.5664
  173SAPS  C31819742   7.355   5.727   6.216  0.1601 -0.4080  0.1379
  173SAPS  H18X19743   7.326   5.655   6.295  1.2642  1.2052  2.0915
  173SAPS  H18Y19744   7.331   5.824   6.265  0.2990  0.2022 -0.9665
  173SAPS  H18Z19745   7.464   5.715   6.204  0.1052  0.0698 -1.0395
  174SAPS     N19746   3.744   4.397   3.733  0.4620  0.2945 -0.3289
  174SAPS   HN119747   3.816   4.324   3.717 -1.0114 -1.3453  0.1256
  174SAPS   HN219748   3.748   4.406   3.836  3.2027 -2.2360 -0.0753
  174SAPS   HN319749   3.658   4.340   3.720  0.8881 -0.8328  1.4466
  174SAPS   C1219750   3.741   4.515   3.644 -0.0565  0.5695 -0.4175
  174SAPS  H12A19751   3.804   4.595   3.679  0.5895 -0.1838  0.1747
  174SAPS   C1319752   3.794   4.482   3.503 -0.0902 -0.0969 -0.0683
  174SAPS  O13A19753   3.852   4.369   3.484  0.3218  0.2060  0.3541
  174SAPS  O13B19754   3.799   4.572   3.411  0.2797  0.8908 -1.0604
  174SAPS   C1119755   3.594   4.568   3.626  0.6705 -0.6127  0.6235
  174SAPS  H11A19756   3.527   4.481   3.610 -2.1612  1.4677  0.4989
  174SAPS  H11B19757   3.594   4.647   3.547  2.3453  0.7932  1.9429
  174SAPS     P19758   3.501   4.767   3.766 -0.2360  0.0933  0.3749
  174SAPS   O1319759   3.599   4.851   3.699 -0.6527  0.3060  0.4571
  174SAPS   O1419760   3.357   4.789   3.734 -0.9023  0.1430 -0.5919
  174SAPS   O1219761   3.546   4.616   3.744 -0.6059  0.1203  0.6068
  174SAPS   O1119762   3.522   4.795   3.910 -0.3761  0.0710  0.1929
  174SAPS    C119763   3.465   4.710   4.015  0.3338  0.3531  0.1575
  174SAPS    HA19764   3.356   4.729   4.030  0.4977  0.8955  0.7338
  174SAPS    HB19765   3.480   4.602   3.997  1.8426  0.4808  0.4991
  174SAPS    C219766   3.531   4.737   4.156 -0.5689 -0.2285 -0.8090
  174SAPS    HS19767   3.477   4.672   4.228 -0.9347 -0.5109 -1.3290
  174SAPS   O2119768   3.513   4.876   4.190 -0.9574  0.0677  0.0129
  174SAPS   C2119769   3.394   4.896   4.255 -0.2292 -0.1897 -0.0434
  174SAPS   O2219770   3.327   4.807   4.304 -0.1455 -0.1069  0.7157
  174SAPS   C2219771   3.364   5.037   4.276  0.3061 -0.4655 -0.4982
  174SAPS   H2R19772   3.451   5.096   4.240 -2.4316  2.6846 -2.5849
  174SAPS   H2S19773   3.282   5.057   4.203 -0.1661 -0.1007  0.1208
  174SAPS    C319774   3.682   4.693   4.151  0.4190 -0.1597  0.2721
  174SAPS    HX19775   3.733   4.762   4.080 -1.4757  1.2944  0.2381
  174SAPS    HY19776   3.698   4.591   4.111  3.0058  0.3441 -0.1227
  174SAPS   O3119777   3.748   4.686   4.276  0.5737 -0.1909 -0.0326
  174SAPS   C3119778   3.811   4.791   4.327 -0.2766  0.2703  0.0881
  174SAPS   O3219779   3.799   4.907   4.285 -0.0738  0.2524 -0.0475
  174SAPS   C3219780   3.880   4.743   4.457  0.4112  0.0502 -0.1647
  174SAPS   H2X19781   3.941   4.826   4.499 -0.8983  0.8444  0.2048
  174SAPS   H2Y19782   3.954   4.672   4.414  1.0482  1.6461 -1.8433
  174SAPS   C2319783   3.317   5.069   4.416 -0.3158  0.5183  1.3195
  174SAPS   H3R19784   3.238   5.000   4.454  1.6112 -2.5908  0.0170
  174SAPS   H3S19785   3.267   5.168   4.412  0.9018  1.1119 -0.2280
  174SAPS   C2419786   3.423   5.066   4.525  0.1234  0.3278  0.2717
  174SAPS   H4R19787   3.483   4.974   4.543  1.3805  1.1995  0.6042
  174SAPS   H4S19788   3.373   5.090   4.621 -1.5851 -0.8957 -0.2446
  174SAPS   C2519789   3.533   5.175   4.500  0.4768  0.1027  0.7585
  174SAPS   H5R19790   3.508   5.236   4.412  3.7025  2.4211  1.2932
  174SAPS   C2619791   3.638   5.202   4.578  0.0816 -0.0725  0.7120
  174SAPS   H6R19792   3.707   5.283   4.550  0.8589 -0.8049  0.4553
  174SAPS   C2719793   3.663   5.133   4.710 -0.9252  0.1927  0.3567
  174SAPS   H7R19794   3.753   5.069   4.701  0.0416  1.5702  0.0780
  174SAPS   H7S19795   3.589   5.052   4.731  0.6087 -0.5122  3.7391
  174SAPS   C2819796   3.667   5.227   4.831 -0.2390  0.1566  0.6733
  174SAPS   H8R19797   3.602   5.314   4.817  0.2907  0.5361  0.5415
  174SAPS   C2919798   3.744   5.204   4.941  0.8800 -0.1927 -0.2570
  174SAPS   H9R19799   3.746   5.285   5.016 -0.8329 -0.0646 -0.3107
  174SAPS  C21019800   3.819   5.083   4.983 -0.0807  0.2548  0.0067
  174SAPS  H10R19801   3.928   5.106   4.989  0.6626 -2.7274 -0.5024
  174SAPS  H10S19802   3.802   4.998   4.914 -1.8502  0.3714  0.2657
  174SAPS  C21119803   3.791   5.038   5.125  0.1535  0.3803  0.3889
  174SAPS  H11R19804   3.729   5.102   5.189 -1.4782 -2.0675  1.3922
  174SAPS  C21219805   3.816   4.913   5.178 -0.0009 -0.6926  0.6282
  174SAPS  H12R19806   3.791   4.902   5.285 -0.2765  0.1752  0.6667
  174SAPS  C21319807   3.878   4.796   5.105 -0.1798  0.1195  0.5197
  174SAPS  H13R19808   3.877   4.823   4.997 -0.8854  1.5143  0.8509
  174SAPS  H13S19809   3.806   4.713   5.119 -0.1723  0.2268  1.2701
  174SAPS  C21419810   4.016   4.746   5.151  1.0196  0.2773 -0.1230
  174SAPS  H14R19811   4.014   4.689   5.245  0.7193 -0.6187 -0.6550
  174SAPS  C21519812   4.129   4.759   5.084 -0.0072  0.3770  0.2428
  174SAPS  H15R19813   4.224   4.724   5.129 -1.0289  0.8952  3.0121
  174SAPS  C21619814   4.146   4.834   4.954  0.1284  0.3103 -0.1259
  174SAPS  H16R19815   4.242   4.890   4.950  0.1378  0.2439 -1.0508
  174SAPS  H16S19816   4.072   4.911   4.925 -0.4752 -0.3449 -0.3809
  174SAPS  C21719817   4.160   4.731   4.840  0.2599  0.8049  0.1025
  174SAPS  H17R19818   4.061   4.682   4.832  0.5401 -0.3320  2.5816
  174SAPS  H17S19819   4.226   4.647   4.873 -1.4657  0.2230  2.2962
  174SAPS  C21819820   4.201   4.800   4.704  0.7908  0.3608 -0.1864
  174SAPS  H18R19821   4.295   4.856   4.726  0.5262  0.9460 -0.5145
  174SAPS  H18S19822   4.110   4.860   4.683 -0.8818 -1.5828  1.2076
  174SAPS  C21919823   4.222   4.696   4.595  0.3586  0.5979 -0.0463
  174SAPS  H19R19824   4.138   4.623   4.597 -0.1368  1.1600  0.2295
  174SAPS  H19S19825   4.304   4.628   4.627 -0.4748 -0.5704 -0.3286
  174SAPS  C22019826   4.266   4.747   4.458  0.4828  0.3096 -0.2472
  174SAPS  H20R19827   4.188   4.818   4.424 -2.2012 -2.1434  0.3775
  174SAPS  H20S19828   4.260   4.670   4.377  2.4441 -0.7910  0.5803
  174SAPS  H20T19829   4.370   4.785   4.453  0.6435 -0.2653 -2.0976
  174SAPS   C3319830   3.773   4.674   4.554 -0.1451 -0.7097  0.8856
  174SAPS   H3X19831   3.817   4.609   4.632 -2.0713 -2.8545  0.3273
  174SAPS   H3Y19832   3.700   4.611   4.499  0.1852 -0.2043 -0.1652
  174SAPS   C3419833   3.690   4.776   4.633  0.8296 -0.1812 -0.2022
  174SAPS   H4X19834   3.612   4.813   4.563  0.7828 -0.0935 -0.1045
  174SAPS   H4Y19835   3.761   4.856   4.666 -0.8764  0.8213  1.2364
  174SAPS   C3519836   3.634   4.713   4.756  0.0949  0.7121  0.1590
  174SAPS   H5X19837   3.705   4.666   4.827 -0.5190 -1.0389 -0.3260
  174SAPS   H5Y19838   3.568   4.633   4.715  0.9255 -0.1732  0.5314
  174SAPS   C3619839   3.544   4.808   4.832 -0.7754 -0.9484 -0.3365
  174SAPS   H6X19840   3.473   4.858   4.763 -0.4769 -0.5976 -0.3907
  174SAPS   H6Y19841   3.604   4.881   4.891 -0.0365  1.2978 -3.5712
  174SAPS   C3719842   3.441   4.738   4.928 -0.4084 -0.0602  0.6435
  174SAPS   H7X19843   3.379   4.668   4.867 -1.2886  1.2096  0.0399
  174SAPS   H7Y19844   3.383   4.829   4.954 -1.4995 -0.5960  0.1493
  174SAPS   C3819845   3.502   4.668   5.045  0.2794 -0.1785 -0.2029
  174SAPS   H8X19846   3.572   4.740   5.091  0.7754 -0.6876 -0.1518
  174SAPS   H8Y19847   3.564   4.585   5.005  1.3396 -0.1802  1.3892
  174SAPS   C3919848   3.403   4.613   5.151 -0.2697  0.1589 -0.0720
  174SAPS   H9X19849   3.341   4.534   5.103  0.0508 -0.8877  1.1912
  174SAPS   H9Y19850   3.335   4.691   5.192  1.3422  0.1220  2.9499
  174SAPS  C31019851   3.476   4.542   5.271  0.0992 -0.0294 -0.1710
  174SAPS  H10X19852   3.553   4.464   5.254  0.7144  0.0085  2.1056
  174SAPS  H10Y19853   3.400   4.489   5.333 -0.2931 -0.7314 -1.2348
  174SAPS  C31119854   3.549   4.642   5.361 -0.3061 -0.5251 -0.6112
  174SAPS  H11X19855   3.477   4.726   5.374  2.0976  2.0282 -2.5003
  174SAPS  H11Y19856   3.644   4.679   5.316  0.8195  0.6977  2.4813
  174SAPS  C31219857   3.583   4.579   5.501  0.2838 -0.9058  0.6946
  174SAPS  H12X19858   3.658   4.640   5.556 -0.8055 -0.5141  1.7936
  174SAPS  H12Y19859   3.646   4.487   5.492  3.0683  0.8682  0.8963
  174SAPS  C31319860   3.468   4.573   5.602 -0.0102  0.3290  0.1163
  174SAPS  H13X19861   3.389   4.507   5.560  0.5494 -1.4929  1.8195
  174SAPS  H13Y19862   3.438   4.678   5.620 -0.9014  0.2565 -0.8371
  174SAPS  C31419863   3.516   4.511   5.744 -0.1939  0.1244  0.5879
  174SAPS  H14X19864   3.608   4.565   5.774 -0.3115  0.2105  0.8002
  174SAPS  H14Y19865   3.540   4.404   5.728 -2.1782 -0.1971 -0.5153
  174SAPS  C31519866   3.402   4.529   5.840 -0.3232  0.3820 -0.4008
  174SAPS  H15X19867   3.311   4.480   5.800 -1.7838  1.1896  1.7593
  174SAPS  H15Y19868   3.372   4.636   5.851  0.1383  0.3422  1.6531
  174SAPS  C31619869   3.427   4.474   5.978 -0.0765 -0.5708  1.0059
  174SAPS  H16X19870   3.480   4.542   6.048  1.0551 -1.0143  0.6008
  174SAPS  H16Y19871   3.495   4.387   5.963  1.7462  1.0243 -0.5411
  174SAPS  C31719872   3.294   4.430   6.054 -0.3114 -0.0730  0.7115
  174SAPS  H17X19873   3.333   4.379   6.144  0.7471 -1.0178 -0.2535
  174SAPS  H17Y19874   3.239   4.368   5.980  0.1076  1.9128 -1.3850
  174SAPS  C31819875   3.212   4.559   6.093  0.1312 -0.0486 -0.1230
  174SAPS  H18X19876   3.283   4.627   6.143  0.6665  0.2669 -1.2851
  174SAPS  H18Y19877   3.129   4.542   6.165 -0.9665 -0.6994 -1.4909
  174SAPS  H18Z19878   3.173   4.617   6.006  0.7692  0.6700  0.0640
  175SAPS     N19879   2.550   0.341   3.849 -0.4911  0.0523 -0.7068
  175SAPS   HN119880   2.540   0.416   3.778 -0.1133  0.7940  0.0079
  175SAPS   HN219881   2.650   0.321   3.871 -1.1286 -0.6989  1.8032
  175SAPS   HN319882   2.514   0.251   3.812 -1.7293 -0.4238  1.5222
  175SAPS   C1219883   2.485   0.389   3.978 -0.0068 -0.2971  0.6208
  175SAPS  H12A19884   2.487   0.497   3.980  1.8239 -0.3005  1.4375
  175SAPS   C1319885   2.335   0.353   4.020 -0.1757  0.0617 -0.0470
  175SAPS  O13A19886   2.258   0.284   3.944 -0.5021 -0.2862  0.5237
  175SAPS  O13B19887   2.293   0.416   4.122  0.4939  0.3750  0.2385
  175SAPS   C1119888   2.590   0.349   4.089 -0.7342  0.1541 -0.4115
  175SAPS  H11A19889   2.571   0.243   4.117 -0.4047  0.3618  0.6661
  175SAPS  H11B19890   2.558   0.391   4.187  3.2620  1.6107  0.4458
  175SAPS     P19891   2.818   0.460   4.122 -0.1631 -0.0794  0.1576
  175SAPS   O1319892   2.961   0.422   4.122 -1.3046 -0.3506 -0.1220
  175SAPS   O1419893   2.781   0.589   4.072  0.5111 -0.7662 -0.1279
  175SAPS   O1219894   2.731   0.355   4.054 -0.1657 -0.1378 -0.3401
  175SAPS   O1119895   2.772   0.466   4.266  0.3809  0.5810 -0.2402
  175SAPS    C119896   2.814   0.356   4.358  0.2015  0.1085  0.2045
  175SAPS    HA19897   2.734   0.344   4.434 -1.8142 -2.0196 -2.0993
  175SAPS    HB19898   2.823   0.252   4.320  0.6336 -0.9758  2.9905
  175SAPS    C219899   2.949   0.392   4.434  0.2818  0.3453  0.0815
  175SAPS    HS19900   3.032   0.404   4.361  2.1201  1.1475  2.1937
  175SAPS   O2119901   2.970   0.284   4.527 -0.1849 -0.0024 -0.3176
  175SAPS   C2119902   3.095   0.251   4.554 -0.5218  0.2292  0.6116
  175SAPS   O2219903   3.192   0.316   4.523 -0.0631  0.0197  0.2815
  175SAPS   C2219904   3.095   0.121   4.637  0.4939  0.0746  0.1243
  175SAPS   H2R19905   3.006   0.066   4.598 -1.3183  1.3175  2.2125
  175SAPS   H2S19906   3.187   0.067   4.607  0.7663  2.1097 -3.2184
  175SAPS    C319907   2.932   0.528   4.511  1.0391  0.3203  0.0383
  175SAPS    HX19908   2.844   0.520   4.579  2.0010 -2.2075  1.1192
  175SAPS    HY19909   2.902   0.612   4.445  1.4556 -0.5292 -1.2864
  175SAPS   O3119910   3.047   0.566   4.588 -0.2325  0.6390 -0.2114
  175SAPS   C3119911   3.144   0.604   4.511 -1.5376  0.5172 -0.2139
  175SAPS   O3219912   3.149   0.604   4.392  0.1561 -0.4921  0.1012
  175SAPS   C3219913   3.257   0.662   4.601 -0.4731 -0.1734  0.3913
  175SAPS   H2X19914   3.249   0.773   4.603 -0.5748  0.0432 -3.8774
  175SAPS   H2Y19915   3.357   0.627   4.568 -0.2119  0.4924  0.4482
  175SAPS   C2319916   3.082   0.135   4.795  0.5220 -0.3368  0.3340
  175SAPS   H3R19917   3.174   0.186   4.832  0.7532  1.2137 -2.1138
  175SAPS   H3S19918   3.084   0.029   4.829  0.3989 -1.1572 -2.0302
  175SAPS   C2419919   2.962   0.211   4.847  0.1339  0.0355 -0.0091
  175SAPS   H4R19920   2.871   0.156   4.816  0.7578 -1.9527  1.5439
  175SAPS   H4S19921   2.964   0.309   4.794 -1.0785  2.2347  3.6513
  175SAPS   C2519922   2.977   0.229   4.999  0.0817  0.5623 -0.5350
  175SAPS   H5R19923   2.972   0.136   5.057 -0.1214  1.7663  1.4561
  175SAPS   C2619924   2.992   0.338   5.076  0.2643 -0.0133 -0.2412
  175SAPS   H6R19925   2.994   0.337   5.186 -2.1339 -0.6867 -0.1595
  175SAPS   C2719926   3.003   0.474   5.021  0.2339 -0.0357 -0.4555
  175SAPS   H7R19927   3.060   0.464   4.927  2.6203 -0.3911  0.9515
  175SAPS   H7S19928   3.057   0.531   5.100 -2.6494  1.3952  0.6755
  175SAPS   C2819929   2.867   0.534   5.004 -0.7470 -0.6100 -0.8890
  175SAPS   H8R19930   2.837   0.552   4.900 -2.8011  1.0038 -0.0830
  175SAPS   C2919931   2.786   0.574   5.101  0.0216 -0.4365 -0.0985
  175SAPS   H9R19932   2.706   0.635   5.057 -0.6128 -1.3307 -0.1962
  175SAPS  C21019933   2.798   0.572   5.254 -0.3164 -1.0527  0.7756
  175SAPS  H10R19934   2.842   0.672   5.278 -0.7631 -0.7170  0.1983
  175SAPS  H10S19935   2.870   0.498   5.296  3.0507  0.9676 -0.9449
  175SAPS  C21119936   2.665   0.559   5.323  0.1135  0.4117  0.8064
  175SAPS  H11R19937   2.580   0.598   5.265  1.5222 -1.2842 -2.7230
  175SAPS  C21219938   2.646   0.520   5.446 -0.2688 -0.0911  0.1554
  175SAPS  H12R19939   2.539   0.516   5.471 -0.7716 -0.9341 -1.9817
  175SAPS  C21319940   2.747   0.475   5.551 -0.4788  0.2508 -0.0137
  175SAPS  H13R19941   2.716   0.517   5.648  1.5504 -0.8545  1.1980
  175SAPS  H13S19942   2.845   0.522   5.529  1.0331 -0.5535  4.0631
  175SAPS  C21419943   2.762   0.325   5.580 -0.2963  0.0949  0.0909
  175SAPS  H14R19944   2.689   0.258   5.533  0.1664 -2.0365  2.2497
  175SAPS  C21519945   2.859   0.272   5.657 -1.0791  0.5470  0.4257
  175SAPS  H15R19946   2.851   0.169   5.694 -0.1826  0.8285  1.4473
  175SAPS  C21619947   2.967   0.349   5.727 -0.6032 -0.3246 -0.2609
  175SAPS  H16R19948   2.971   0.314   5.832 -0.1756 -0.2021 -0.2336
  175SAPS  H16S19949   2.945   0.458   5.736  1.7855  0.4512 -2.5215
  175SAPS  C21719950   3.111   0.322   5.674 -0.1132 -1.2436  0.3364
  175SAPS  H17R19951   3.115   0.212   5.689 -0.8900 -1.0298  2.4976
  175SAPS  H17S19952   3.182   0.374   5.742  1.0333 -0.6398 -1.2695
  175SAPS  C21819953   3.133   0.369   5.526  0.3686 -0.2547 -0.9594
  175SAPS  H18R19954   3.127   0.480   5.521  0.6585 -0.2955 -3.7315
  175SAPS  H18S19955   3.053   0.340   5.455  0.6628  0.2736 -1.5249
  175SAPS  C21919956   3.271   0.327   5.468 -0.4009 -0.0364  0.0439
  175SAPS  H19R19957   3.348   0.380   5.528 -0.5170 -1.7018  1.7635
  175SAPS  H19S19958   3.275   0.368   5.365 -0.7355 -1.3243 -0.4998
  175SAPS  C22019959   3.291   0.177   5.459 -0.0317 -0.1398 -0.4790
  175SAPS  H20R19960   3.216   0.130   5.392  2.0029 -1.1251 -2.1795
  175SAPS  H20S19961   3.287   0.135   5.562  1.2173 -0.7549 -0.6586
  175SAPS  H20T19962   3.390   0.147   5.418  0.1777 -2.6007  1.5904
  175SAPS   C3319963   3.252   0.622   4.753  0.5242 -0.0474 -0.3707
  175SAPS   H3X19964   3.235   0.512   4.756 -0.5350  0.0711 -1.3679
  175SAPS   H3Y19965   3.175   0.677   4.811  1.6273  1.3072 -0.1399
  175SAPS   C3419966   3.394   0.631   4.819  0.2729 -0.2673  0.1605
  175SAPS   H4X19967   3.422   0.739   4.815 -0.4756 -0.0781 -0.1973
  175SAPS   H4Y19968   3.465   0.563   4.767  0.7389 -2.1168  3.0113
  175SAPS   C3519969   3.376   0.601   4.969 -0.7720 -0.5957 -0.0384
  175SAPS   H5X19970   3.386   0.492   4.987  0.0266 -0.2357  1.9208
  175SAPS   H5Y19971   3.287   0.641   5.021  0.1599  0.8477  0.5051
  175SAPS   C3619972   3.499   0.659   5.048  0.2038  0.1013  0.7479
  175SAPS   H6X19973   3.486   0.768   5.032  1.4975  0.0099 -1.2085
  175SAPS   H6Y19974   3.594   0.632   4.998 -0.6802  1.8596 -2.0820
  175SAPS   C3719975   3.490   0.639   5.201  0.1667  0.3049  0.1660
  175SAPS   H7X19976   3.500   0.531   5.224 -0.6685 -0.0289 -0.9707
  175SAPS   H7Y19977   3.385   0.664   5.226  0.3727  0.8028  0.5757
  175SAPS   C3819978   3.587   0.734   5.276  0.2199  1.0479 -0.5626
  175SAPS   H8X19979   3.533   0.831   5.264 -1.9209 -0.2132 -1.6916
  175SAPS   H8Y19980   3.685   0.738   5.224  1.2418  0.7004  1.2624
  175SAPS   C3919981   3.627   0.706   5.418  0.1020 -0.0444  0.3806
  175SAPS   H9X19982   3.681   0.797   5.452 -0.9398  0.6959  0.0801
  175SAPS   H9Y19983   3.680   0.610   5.440 -1.9468 -0.6484  3.3099
  175SAPS  C31019984   3.510   0.716   5.508 -0.8208  0.0452  0.3724
  175SAPS  H10X19985   3.442   0.631   5.486 -3.0435  1.7832  0.0549
  175SAPS  H10Y19986   3.462   0.813   5.480  2.5080  2.7172  2.9877
  175SAPS  C31119987   3.554   0.725   5.652 -0.6112 -0.3348  0.2962
  175SAPS  H11X19988   3.661   0.699   5.664 -0.7377 -1.0806 -0.1095
  175SAPS  H11Y19989   3.490   0.655   5.710 -1.8096 -0.5182 -1.1731
  175SAPS  C31219990   3.530   0.867   5.706  0.0820  0.4105 -0.5695
  175SAPS  H12X19991   3.428   0.906   5.683 -0.3211  0.0547  0.5252
  175SAPS  H12Y19992   3.598   0.942   5.660  0.8329 -1.3904 -2.5882
  175SAPS  C31319993   3.557   0.862   5.857 -0.4440  0.3367 -0.0269
  175SAPS  H13X19994   3.667   0.850   5.868 -0.5325 -0.0730  0.4710
  175SAPS  H13Y19995   3.512   0.769   5.900 -0.5176 -0.0406 -0.9067
  175SAPS  C31419996   3.503   0.990   5.936  0.1867  0.2115 -0.3297
  175SAPS  H14X19997   3.396   1.009   5.912  0.3913  3.0899  0.6703
  175SAPS  H14Y19998   3.553   1.084   5.902  1.7315 -1.3036 -2.5201
  175SAPS  C31519999   3.513   0.970   6.090 -0.1457 -0.2469  0.0361
  175SAPS  H15X20000   3.618   0.991   6.117 -0.2688  1.4587 -0.7091
  175SAPS  H15Y20001   3.486   0.867   6.123 -0.9313 -0.1153 -0.1694
  175SAPS  C31620002   3.412   1.053   6.165 -0.2429  0.6241  0.2859
  175SAPS  H16X20003   3.310   1.016   6.141 -0.3781  0.5300  0.9807
  175SAPS  H16Y20004   3.412   1.160   6.133 -2.0324  0.5427 -0.0702
  175SAPS  C31720005   3.438   1.058   6.315 -0.3530  0.5861 -0.0090
  175SAPS  H17X20006   3.392   1.145   6.367  1.1143 -0.0238  2.4512
  175SAPS  H17Y20007   3.546   1.076   6.331 -0.6690  1.5725  1.1546
  175SAPS  C31820008   3.411   0.933   6.389 -0.1665  0.5732  0.2345
  175SAPS  H18X20009   3.342   0.861   6.340 -0.1869 -0.0651  1.1729
  175SAPS  H18Y20010   3.375   0.954   6.493  0.5202  1.2615  0.3399
  175SAPS  H18Z20011   3.502   0.871   6.402 -1.9881 -2.1409  0.8090
  176SAPS     N20012   2.169   0.927   3.548 -0.3712 -0.2189  0.3568
  176SAPS   HN120013   2.097   0.951   3.619 -2.4133 -1.1225 -1.2961
  176SAPS   HN220014   2.114   0.880   3.473  1.6481 -2.6205  0.2504
  176SAPS   HN320015   2.241   0.867   3.593  1.2978  0.3256 -1.4080
  176SAPS   C1220016   2.243   1.058   3.501 -0.7428 -0.4509 -0.2397
  176SAPS  H12A20017   2.321   1.025   3.434  0.0954  2.2203 -0.6781
  176SAPS   C1320018   2.158   1.154   3.414  0.4216  0.5760 -0.1959
  176SAPS  O13A20019   2.037   1.130   3.401  0.0880  0.4138 -0.2768
  176SAPS  O13B20020   2.212   1.249   3.343  0.3220 -0.0563 -0.3244
  176SAPS   C1120021   2.295   1.132   3.631 -0.3338  0.3216 -1.0030
  176SAPS  H11A20022   2.338   1.052   3.695 -0.6538  1.3215  0.5058
  176SAPS  H11B20023   2.210   1.171   3.691  0.4272 -0.4448  0.6500
  176SAPS     P20024   2.535   1.197   3.570 -0.1953 -0.4055  0.3630
  176SAPS   O1320025   2.553   1.130   3.441  0.3085 -0.0216  0.5837
  176SAPS   O1420026   2.612   1.320   3.594 -0.1553  0.2248  0.3321
  176SAPS   O1220027   2.388   1.229   3.601  0.2563 -0.4621 -0.4639
  176SAPS   O1120028   2.567   1.086   3.676  0.5820 -0.0163  0.3105
  176SAPS    C120029   2.692   1.086   3.754 -0.1180 -0.0742  0.5164
  176SAPS    HA20030   2.719   0.980   3.770  1.0723  0.2403  0.6527
  176SAPS    HB20031   2.775   1.137   3.701 -1.1578  0.1004 -1.0352
  176SAPS    C220032   2.684   1.148   3.893  0.2791 -0.4762  0.4309
  176SAPS    HS20033   2.686   1.258   3.880  1.3600 -0.7393 -2.1858
  176SAPS   O2120034   2.792   1.086   3.974  0.6484  0.3712 -0.4198
  176SAPS   C2120035   2.852   1.178   4.057  0.2430  0.4793 -0.1295
  176SAPS   O2220036   2.815   1.290   4.070  0.0001 -0.1044  0.0131
  176SAPS   C2220037   2.962   1.114   4.137 -0.3255  0.0902 -0.1288
  176SAPS   H2R20038   2.967   1.005   4.115  0.2095  0.3207 -1.2568
  176SAPS   H2S20039   3.053   1.165   4.098  0.1307  0.6881  1.6550
  176SAPS    C320040   2.547   1.119   3.957  0.2253  0.3396  0.0115
  176SAPS    HX20041   2.546   1.012   3.989 -2.1745 -0.8846 -3.5101
  176SAPS    HY20042   2.465   1.129   3.882  0.8447 -1.2992 -0.9346
  176SAPS   O3120043   2.533   1.194   4.079 -0.4248 -0.1469  0.0813
  176SAPS   C3120044   2.419   1.267   4.101 -0.8933  0.1589  0.1224
  176SAPS   O3220045   2.339   1.298   4.019 -0.4827  0.4571 -0.5568
  176SAPS   C3220046   2.428   1.317   4.250 -0.0663 -0.3983 -0.4383
  176SAPS   H2X20047   2.323   1.344   4.276  0.6656  0.6861  1.6095
  176SAPS   H2Y20048   2.473   1.418   4.245 -0.7064 -0.0745  0.1620
  176SAPS   C2320049   2.960   1.131   4.298  0.0983  0.3376  0.0447
  176SAPS   H3R20050   2.869   1.079   4.336  0.3580 -0.6148 -0.5929
  176SAPS   H3S20051   2.944   1.240   4.309 -1.6730  0.3280 -1.7677
  176SAPS   C2420052   3.088   1.090   4.368  0.2503 -0.5181  0.8507
  176SAPS   H4R20053   3.166   1.137   4.304  0.5711 -1.2571  0.6867
  176SAPS   H4S20054   3.090   0.979   4.362 -1.9089 -0.5280 -0.8974
  176SAPS   C2520055   3.106   1.142   4.510 -0.1641  0.1599 -0.1407
  176SAPS   H5R20056   3.179   1.223   4.527  0.6298 -0.6755  0.5318
  176SAPS   C2620057   3.036   1.094   4.616 -0.4227 -0.1085 -0.5667
  176SAPS   H6R20058   3.043   1.143   4.714 -0.8804  0.5031 -0.8381
  176SAPS   C2720059   2.933   0.986   4.612  0.3953  0.5088  0.3827
  176SAPS   H7R20060   2.942   0.929   4.517 -0.1261 -0.1369  0.7145
  176SAPS   H7S20061   2.830   1.027   4.606  0.7398  1.3134 -0.0933
  176SAPS   C2820062   2.939   0.880   4.722 -0.1056  0.1204 -0.0472
  176SAPS   H8R20063   3.022   0.808   4.709  0.6323  1.0504 -0.5993
  176SAPS   C2920064   2.860   0.874   4.830  0.6650  0.5816  0.0613
  176SAPS   H9R20065   2.875   0.792   4.901 -0.4906  0.6259  0.3773
  176SAPS  C21020066   2.757   0.970   4.869  0.1912  0.0979 -0.0924
  176SAPS  H10R20067   2.745   1.041   4.785 -2.5078 -1.3017 -1.0269
  176SAPS  H10S20068   2.797   1.031   4.953  0.3382  0.6255 -0.5415
  176SAPS  C21120069   2.625   0.901   4.901  0.7687  0.4650 -0.2766
  176SAPS  H11R20070   2.572   0.846   4.822 -0.3305 -0.6917  1.1936
  176SAPS  C21220071   2.571   0.889   5.022 -1.0444 -0.2838 -0.0699
  176SAPS  H12R20072   2.492   0.819   5.049 -0.0328 -2.3615 -2.1120
  176SAPS  C21320073   2.639   0.948   5.137 -0.1879  0.3430  0.1101
  176SAPS  H13R20074   2.679   1.048   5.111 -0.5198  0.2317 -0.8828
  176SAPS  H13S20075   2.712   0.871   5.171  1.1037  1.6888  0.4451
  176SAPS  C21420076   2.534   0.978   5.241  0.0597 -0.2716 -0.3426
  176SAPS  H14R20077   2.431   0.980   5.203  0.0516 -3.0447 -0.6473
  176SAPS  C21520078   2.561   1.013   5.371 -0.1430  0.5559 -0.2665
  176SAPS  H15R20079   2.486   1.041   5.447  1.9048 -1.2890  2.6463
  176SAPS  C21620080   2.701   1.044   5.413  0.8562  0.4836 -0.3047
  176SAPS  H16R20081   2.706   1.153   5.429  2.4623  0.4995 -0.6827
  176SAPS  H16S20082   2.784   1.014   5.345  1.9831  2.1245  0.2931
  176SAPS  C21720083   2.730   0.977   5.551 -0.4856  0.7815 -0.5534
  176SAPS  H17R20084   2.837   0.989   5.580 -0.9287  0.9833  1.1283
  176SAPS  H17S20085   2.713   0.868   5.542  0.3019  0.4695  1.1844
  176SAPS  C21820086   2.660   1.045   5.676  0.6274 -0.2766 -0.2602
  176SAPS  H18R20087   2.552   1.025   5.662  0.7532 -0.9133 -0.3526
  176SAPS  H18S20088   2.680   1.154   5.673 -0.9834  0.0632  0.3434
  176SAPS  C21920089   2.696   0.987   5.813 -1.2593 -0.3969  0.7282
  176SAPS  H19R20090   2.621   1.025   5.886 -0.7353  0.5342  0.8092
  176SAPS  H19S20091   2.786   1.044   5.845  0.6702 -1.5370 -2.3242
  176SAPS  C22020092   2.701   0.841   5.823  1.0048  0.3589 -0.2214
  176SAPS  H20R20093   2.722   0.794   5.922  0.7170 -1.2573 -0.8903
  176SAPS  H20S20094   2.785   0.807   5.758  1.2533  1.3619 -0.4334
  176SAPS  H20T20095   2.607   0.796   5.785  0.4409 -2.1582  3.5795
  176SAPS   C3320096   2.491   1.214   4.346 -0.6834 -0.0651  0.2892
  176SAPS   H3X20097   2.601   1.201   4.338 -0.6697 -0.5531  1.1521
  176SAPS   H3Y20098   2.447   1.113   4.333  1.7269 -1.0675 -0.7404
  176SAPS   C3420099   2.465   1.259   4.496 -0.0525  0.5519  0.2901
  176SAPS   H4X20100   2.354   1.262   4.504 -0.4460 -2.9511 -1.7618
  176SAPS   H4Y20101   2.509   1.361   4.507 -1.4678  1.4680 -1.7198
  176SAPS   C3520102   2.526   1.160   4.604  0.6571  0.1672  0.2359
  176SAPS   H5X20103   2.636   1.177   4.604  0.9391 -1.5110  1.0181
  176SAPS   H5Y20104   2.492   1.057   4.580 -1.3307  1.0780 -1.1422
  176SAPS   C3620105   2.472   1.210   4.739 -0.0300 -0.9030 -0.4673
  176SAPS   H6X20106   2.469   1.321   4.743 -3.0689 -0.9314  0.1774
  176SAPS   H6Y20107   2.549   1.176   4.811 -1.4827 -1.6527  0.7936
  176SAPS   C3720108   2.350   1.141   4.790 -0.4300 -0.1182 -0.3398
  176SAPS   H7X20109   2.376   1.033   4.786  2.5921  0.5546 -1.2303
  176SAPS   H7Y20110   2.261   1.175   4.732 -1.5094 -1.5425  0.4086
  176SAPS   C3820111   2.329   1.174   4.944  0.0925 -0.0593  0.7024
  176SAPS   H8X20112   2.299   1.280   4.951 -0.6471 -0.2561  0.6332
  176SAPS   H8Y20113   2.415   1.156   5.011 -1.6558  0.0045  3.1030
  176SAPS   C3920114   2.218   1.087   5.010 -0.2778  0.2848  0.1728
  176SAPS   H9X20115   2.260   0.986   5.023  1.6429  1.2226  1.8082
  176SAPS   H9Y20116   2.130   1.096   4.942 -0.7789 -0.3894  0.7226
  176SAPS  C31020117   2.178   1.150   5.142 -0.3530 -0.9144  0.3771
  176SAPS  H10X20118   2.135   1.252   5.134 -1.3595 -0.9338  3.8480
  176SAPS  H10Y20119   2.269   1.160   5.205  0.7343 -0.9142 -1.1475
  176SAPS  C31120120   2.066   1.074   5.204  0.5209 -0.1214 -0.8635
  176SAPS  H11X20121   2.083   0.965   5.216 -0.8655 -0.2748 -0.0348
  176SAPS  H11Y20122   1.985   1.082   5.129  2.9399  1.5442 -3.4791
  176SAPS  C31220123   2.044   1.148   5.338 -0.1333  0.0661  0.4961
  176SAPS  H12X20124   2.039   1.259   5.340 -1.5702  0.0514 -0.4820
  176SAPS  H12Y20125   2.136   1.130   5.397 -0.7617 -0.4314  1.3396
  176SAPS  C31320126   1.924   1.086   5.414 -0.7721 -0.7532  0.5224
  176SAPS  H13X20127   1.950   0.981   5.440  0.4448  0.1261  3.2782
  176SAPS  H13Y20128   1.831   1.099   5.356  0.4930  3.1265 -0.9017
  176SAPS  C31420129   1.917   1.151   5.559 -0.1582  0.3111  0.6762
  176SAPS  H14X20130   1.904   1.261   5.557  1.0796  0.4607 -0.7835
  176SAPS  H14Y20131   2.020   1.130   5.595 -0.9821  0.4421  3.3337
  176SAPS  C31520132   1.818   1.067   5.644  0.1346 -0.5185  0.0065
  176SAPS  H15X20133   1.832   0.958   5.627  0.3656 -0.5078  0.1278
  176SAPS  H15Y20134   1.715   1.105   5.626  0.2063  0.8596  2.1258
  176SAPS  C31620135   1.844   1.086   5.801 -0.1748  0.0298  0.1195
  176SAPS  H16X20136   1.820   1.188   5.838 -2.2700 -0.5183  0.3809
  176SAPS  H16Y20137   1.949   1.055   5.822  0.1897  0.7250 -0.6372
  176SAPS  C31720138   1.754   0.981   5.883 -0.2691  0.4699  0.7920
  176SAPS  H17X20139   1.786   0.886   5.836  0.2624  0.3674  1.3410
  176SAPS  H17Y20140   1.648   1.001   5.857 -0.4005  1.2505  1.8295
  176SAPS  C31820141   1.773   0.978   6.035  0.5097 -0.6060  0.5218
  176SAPS  H18X20142   1.729   1.063   6.091 -0.6658 -0.4889 -0.5279
  176SAPS  H18Y20143   1.881   0.987   6.059  0.8154 -0.8427 -0.6668
  176SAPS  H18Z20144   1.739   0.882   6.080 -0.4257 -0.4664  0.1480
  177SAPS     N20145   3.249   2.307   3.712 -0.0088 -0.3710  0.4025
  177SAPS   HN120146   3.251   2.346   3.808 -1.6015  0.5958  0.0738
  177SAPS   HN220147   3.175   2.235   3.723 -1.2993  1.0579  1.5383
  177SAPS   HN320148   3.345   2.271   3.693 -0.2730 -1.5807  1.2648
  177SAPS   C1220149   3.207   2.414   3.616  0.0376 -0.2736 -0.3463
  177SAPS  H12A20150   3.289   2.484   3.612  0.5016 -0.7845  0.1085
  177SAPS   C1320151   3.156   2.354   3.476 -0.1419  0.0812 -0.4769
  177SAPS  O13A20152   3.170   2.234   3.450  0.6875  0.5808  0.0109
  177SAPS  O13B20153   3.124   2.438   3.387 -0.0026  0.5686 -0.4576
  177SAPS   C1120154   3.093   2.500   3.678  0.3401 -0.4915 -0.8702
  177SAPS  H11A20155   3.016   2.427   3.708 -0.8579  1.1522  0.2520
  177SAPS  H11B20156   3.039   2.576   3.618 -1.5399 -0.9335  0.2047
  177SAPS     P20157   3.202   2.712   3.780  0.0483 -0.3149  0.1877
  177SAPS   O1320158   3.349   2.698   3.778  0.1209 -0.5421 -0.0114
  177SAPS   O1420159   3.147   2.782   3.662 -0.7964 -0.3620 -0.0373
  177SAPS   O1220160   3.140   2.567   3.801  0.1308  0.4498 -0.1470
  177SAPS   O1120161   3.146   2.788   3.908 -0.0303 -0.3597  0.0612
  177SAPS    C120162   3.177   2.922   3.936  0.3798  0.6399  0.3753
  177SAPS    HA20163   3.286   2.930   3.956  0.3928  1.8121 -0.0904
  177SAPS    HB20164   3.145   2.994   3.858  3.3589 -0.4620 -2.0751
  177SAPS    C220165   3.102   2.967   4.065 -0.1810 -0.0878 -0.1509
  177SAPS    HS20166   3.002   3.004   4.036  0.1066  1.3214  0.6024
  177SAPS   O2120167   3.186   3.061   4.133  0.5656 -0.0142 -0.1559
  177SAPS   C2120168   3.153   3.190   4.118  0.4839  0.6059 -0.1654
  177SAPS   O2220169   3.070   3.239   4.048 -0.1450 -0.5214  0.3880
  177SAPS   C2220170   3.257   3.277   4.201  0.1285 -0.3138 -0.3772
  177SAPS   H2R20171   3.351   3.220   4.221  1.4886  0.8813 -2.8557
  177SAPS   H2S20172   3.287   3.360   4.134  0.4804 -0.8118 -0.8489
  177SAPS    C320173   3.088   2.845   4.162 -0.6445 -0.3597 -0.1401
  177SAPS    HX20174   3.195   2.821   4.184 -0.5652  0.7546  0.7707
  177SAPS    HY20175   3.050   2.757   4.107 -2.1348  0.5167 -0.5485
  177SAPS   O3120176   3.008   2.881   4.274  0.1066  0.2827 -0.1486
  177SAPS   C3120177   3.070   2.883   4.390 -0.1835  0.3288  0.3406
  177SAPS   O3220178   3.192   2.881   4.403  0.5413 -0.2955  0.6421
  177SAPS   C3220179   2.966   2.886   4.495 -0.4133 -0.0070 -0.5180
  177SAPS   H2X20180   2.916   2.787   4.491  0.3688 -0.4065 -0.5397
  177SAPS   H2Y20181   2.893   2.966   4.468 -1.6644 -1.5533 -1.8800
  177SAPS   C2320182   3.195   3.354   4.321  0.4804 -0.0233 -0.2483
  177SAPS   H3R20183   3.097   3.396   4.289 -0.0053 -1.8722 -1.3796
  177SAPS   H3S20184   3.263   3.440   4.343 -1.0999  1.2330 -0.1146
  177SAPS   C2420185   3.184   3.264   4.437  0.0394  0.0931 -0.2299
  177SAPS   H4R20186   3.291   3.250   4.466  0.3265  1.7474 -0.4113
  177SAPS   H4S20187   3.149   3.161   4.412  2.2333 -1.0634  1.0559
  177SAPS   C2520188   3.116   3.331   4.556 -0.6483  0.7356  0.0340
  177SAPS   H5R20189   3.188   3.338   4.639 -1.0163  1.4122  0.3025
  177SAPS   C2620190   2.986   3.355   4.582 -0.0167  1.0257  0.2964
  177SAPS   H6R20191   2.959   3.399   4.679  1.8431  0.2891  1.1926
  177SAPS   C2720192   2.873   3.322   4.486 -0.3665 -0.1729 -0.2805
  177SAPS   H7R20193   2.868   3.211   4.475  0.7791 -0.0585 -2.3252
  177SAPS   H7S20194   2.904   3.348   4.383 -2.4812 -0.0261 -0.9400
  177SAPS   C2820195   2.740   3.396   4.522 -0.2963  0.6277 -0.3554
  177SAPS   H8R20196   2.720   3.476   4.449 -1.2871  0.0967 -0.6776
  177SAPS   C2920197   2.662   3.367   4.623 -0.3057  0.4676 -0.8375
  177SAPS   H9R20198   2.565   3.415   4.642 -0.9395 -1.4759  1.2684
  177SAPS  C21020199   2.688   3.265   4.731  0.1514 -0.3738  0.2036
  177SAPS  H10R20200   2.716   3.321   4.822 -0.4742 -1.1176  0.8638
  177SAPS  H10S20201   2.779   3.201   4.719  0.3880  0.0173 -0.1104
  177SAPS  C21120202   2.566   3.187   4.770  0.1239  0.0701 -0.7446
  177SAPS  H11R20203   2.512   3.231   4.855 -1.1988  0.0758 -1.5646
  177SAPS  C21220204   2.518   3.078   4.710 -0.4639 -1.0685 -0.0272
  177SAPS  H12R20205   2.427   3.037   4.755 -0.5941 -0.5074  0.2317
  177SAPS  C21320206   2.575   3.006   4.583  0.1337 -0.7173  0.1025
  177SAPS  H13R20207   2.543   2.900   4.585 -1.5092 -0.4337 -3.5398
  177SAPS  H13S20208   2.686   3.004   4.594  0.2745  1.6089 -0.2628
  177SAPS  C21420209   2.524   3.082   4.461 -0.5015  0.8080  0.1157
  177SAPS  H14R20210   2.477   3.177   4.488 -1.4888 -0.2172  2.2018
  177SAPS  C21520211   2.523   3.026   4.341 -0.4971 -0.1339 -0.0560
  177SAPS  H15R20212   2.474   3.082   4.260 -0.8910 -0.1673  0.1593
  177SAPS  C21620213   2.568   2.891   4.289  0.1154 -0.4441 -0.8603
  177SAPS  H16R20214   2.483   2.848   4.233  0.5533  0.0917 -1.9644
  177SAPS  H16S20215   2.584   2.820   4.373 -2.0028 -0.2222 -0.2213
  177SAPS  C21720216   2.682   2.904   4.203 -0.4745  0.8702  0.5248
  177SAPS  H17R20217   2.707   2.809   4.152  1.4771  0.9674  1.2262
  177SAPS  H17S20218   2.775   2.927   4.258  0.1552  0.3852 -0.3094
  177SAPS  C21820219   2.666   3.007   4.091  0.0151 -0.6893  0.5704
  177SAPS  H18R20220   2.764   3.011   4.038 -0.6763  0.5283 -0.6911
  177SAPS  H18S20221   2.670   3.111   4.132 -1.2772 -1.0453  1.6691
  177SAPS  C21920222   2.550   2.992   3.988 -0.2676  0.3265  0.0129
  177SAPS  H19R20223   2.469   2.983   4.063 -0.6826 -1.9842 -0.6128
  177SAPS  H19S20224   2.563   2.893   3.939 -0.3061  0.0108  0.6256
  177SAPS  C22020225   2.548   3.113   3.893  0.3015  0.0795  0.3803
  177SAPS  H20R20226   2.638   3.109   3.828 -0.6194 -2.7288 -0.8607
  177SAPS  H20S20227   2.538   3.209   3.948  0.3674 -1.2141  2.8050
  177SAPS  H20T20228   2.462   3.111   3.823 -0.7386 -3.3723  1.5703
  177SAPS   C3320229   3.018   2.905   4.631 -0.8715  0.5605  0.1718
  177SAPS   H3X20230   3.059   3.008   4.638  0.1087  0.0976  1.7138
  177SAPS   H3Y20231   3.095   2.827   4.651 -1.2468  0.4919  1.4426
  177SAPS   C3420232   2.912   2.899   4.743  0.4589 -1.2440 -0.1111
  177SAPS   H4X20233   2.833   2.829   4.710 -0.6745  0.7651 -1.8860
  177SAPS   H4Y20234   2.860   2.995   4.760  0.5965 -1.3822  1.2313
  177SAPS   C3520235   2.972   2.860   4.878  0.9670 -0.0775 -0.8252
  177SAPS   H5X20236   3.015   2.757   4.874  1.3646  0.0961 -1.0179
  177SAPS   H5Y20237   2.886   2.845   4.947  0.7534  0.3030 -1.0036
  177SAPS   C3620238   3.082   2.954   4.938 -0.1552  0.0582  0.4858
  177SAPS   H6X20239   3.178   2.942   4.883 -0.0175  2.2133  0.1657
  177SAPS   H6Y20240   3.097   2.923   5.044 -0.1472  0.2403  0.5388
  177SAPS   C3720241   3.048   3.105   4.939 -0.5249 -0.1197  0.2329
  177SAPS   H7X20242   3.036   3.140   4.835 -1.9971 -2.2063 -0.3645
  177SAPS   H7Y20243   3.130   3.157   4.992  0.4551 -1.4328  0.0570
  177SAPS   C3820244   2.928   3.145   5.019  0.2385 -0.3444  0.5621
  177SAPS   H8X20245   2.839   3.103   4.967 -0.7522 -0.2745  2.1432
  177SAPS   H8Y20246   2.921   3.256   5.015  0.7120 -0.3428 -1.7710
  177SAPS   C3920247   2.928   3.098   5.164  0.3773 -0.2028  0.2973
  177SAPS   H9X20248   3.013   3.154   5.209 -1.2532  3.0444 -0.3542
  177SAPS   H9Y20249   2.949   2.989   5.166 -1.0523 -0.5576 -1.5823
  177SAPS  C31020250   2.802   3.128   5.254 -0.3565 -1.0476 -0.3816
  177SAPS  H10X20251   2.720   3.064   5.215 -1.0477  0.8179 -2.1427
  177SAPS  H10Y20252   2.768   3.230   5.227  1.1113 -0.5532 -0.4661
  177SAPS  C31120253   2.816   3.121   5.411 -0.5973 -0.2521  0.2163
  177SAPS  H11X20254   2.874   3.031   5.437  0.0519  0.6821  2.2053
  177SAPS  H11Y20255   2.717   3.101   5.458 -0.0444  0.5172  1.7767
  177SAPS  C31220256   2.889   3.242   5.475 -0.6289  0.1966 -0.0258
  177SAPS  H12X20257   2.807   3.317   5.476  1.1543  2.3019 -0.8496
  177SAPS  H12Y20258   2.966   3.288   5.408 -0.3326 -1.0260 -0.5446
  177SAPS  C31320259   2.944   3.211   5.618  0.0876 -1.0280 -0.1148
  177SAPS  H13X20260   3.019   3.129   5.620  0.2001 -0.9592 -1.1518
  177SAPS  H13Y20261   2.857   3.171   5.675  0.1560  0.3845  1.0534
  177SAPS  C31420262   3.000   3.333   5.700 -0.0764 -0.2822 -0.0144
  177SAPS  H14X20263   3.077   3.366   5.628 -0.0242 -1.2209 -0.3953
  177SAPS  H14Y20264   3.047   3.284   5.788  0.9896  0.8886  0.0914
  177SAPS  C31520265   2.897   3.435   5.751  0.3905 -0.1212  0.6016
  177SAPS  H15X20266   2.801   3.383   5.772 -0.6879  1.4042 -0.3357
  177SAPS  H15Y20267   2.882   3.509   5.670 -0.2467 -1.7687 -0.8611
  177SAPS  C31620268   2.933   3.509   5.879 -0.3706  0.3888  0.3996
  177SAPS  H16X20269   2.972   3.434   5.951 -0.5445 -0.5437 -0.4421
  177SAPS  H16Y20270   2.847   3.566   5.919  1.1974  2.2604  1.2993
  177SAPS  C31720271   3.045   3.610   5.851  0.6065 -0.2168 -0.1336
  177SAPS  H17X20272   3.012   3.669   5.763 -0.5230 -0.0752  0.3653
  177SAPS  H17Y20273   3.137   3.561   5.813  0.5457 -0.4477  0.0195
  177SAPS  C31820274   3.080   3.714   5.958  0.4311  0.0052 -0.0323
  177SAPS  H18X20275   3.091   3.676   6.062  0.3237  0.6382  0.2133
  177SAPS  H18Y20276   3.008   3.798   5.949 -0.9166 -1.1185 -0.0997
  177SAPS  H18Z20277   3.182   3.748   5.932 -0.0575  1.3025 -0.3351
  178SAPS     N20278   5.625   1.296   4.005  0.1198  0.2372  0.8194
  178SAPS   HN120279   5.632   1.228   4.083 -0.2912 -0.3249  0.3662
  178SAPS   HN220280   5.704   1.364   4.009  1.0720 -0.8714  1.5944
  178SAPS   HN320281   5.532   1.341   4.018 -1.2069 -2.0578 -0.2633
  178SAPS   C1220282   5.624   1.223   3.866  0.6770 -0.0343 -0.5207
  178SAPS  H12A20283   5.531   1.169   3.872  0.6803  0.0777  1.2513
  178SAPS   C1320284   5.618   1.305   3.738 -0.2789  0.7728  0.2782
  178SAPS  O13A20285   5.587   1.426   3.731 -0.5482  0.3384  0.2276
  178SAPS  O13B20286   5.594   1.233   3.635  0.0757 -0.3298  0.1526
  178SAPS   C1120287   5.745   1.119   3.869  0.6558  0.5411 -0.4749
  178SAPS  H11A20288   5.746   1.072   3.768 -1.1132  0.5817 -0.5431
  178SAPS  H11B20289   5.720   1.037   3.940 -1.1762  1.0529 -0.4805
  178SAPS     P20290   5.995   1.172   3.837 -0.0772  0.0899 -0.2296
  178SAPS   O1320291   6.031   1.036   3.795  0.6809 -0.2292  0.2924
  178SAPS   O1420292   5.995   1.276   3.733  0.3239  0.3379  0.5058
  178SAPS   O1220293   5.861   1.180   3.920 -0.4295 -0.1689  0.6012
  178SAPS   O1120294   6.097   1.217   3.942  0.1604 -0.2724 -0.2003
  178SAPS    C120295   6.121   1.149   4.057 -0.0496  0.1147  0.0488
  178SAPS    HA20296   6.119   1.040   4.040  2.8614  0.0912 -0.5972
  178SAPS    HB20297   6.221   1.181   4.094  0.1113  0.2755 -0.5091
  178SAPS    C220298   6.026   1.188   4.176 -0.3193  0.4430  0.4314
  178SAPS    HS20299   5.920   1.184   4.144  0.1125  1.6344 -1.2959
  178SAPS   O2120300   6.070   1.319   4.220  0.6951 -0.5314 -0.5516
  178SAPS   C2120301   5.972   1.392   4.273 -0.2704 -0.0444  0.6631
  178SAPS   O2220302   5.858   1.349   4.292  0.2761  0.4777 -0.0631
  178SAPS   C2220303   6.021   1.538   4.294  0.3279 -0.2943 -0.3336
  178SAPS   H2R20304   6.097   1.561   4.216 -0.6365 -0.6542 -1.3998
  178SAPS   H2S20305   5.935   1.605   4.271  1.8501  1.9831  0.2425
  178SAPS    C320306   6.065   1.092   4.296  0.1496 -0.0606  0.1172
  178SAPS    HX20307   6.173   1.110   4.315  0.1341  2.6046 -1.7603
  178SAPS    HY20308   6.056   0.987   4.259  0.9232 -0.3749  0.7822
  178SAPS   O3120309   5.980   1.122   4.413  0.0037  0.8169  0.6029
  178SAPS   C3120310   5.878   1.043   4.432 -0.2914  0.1685 -0.2728
  178SAPS   O3220311   5.850   0.958   4.351  0.3524 -0.4620  0.8706
  178SAPS   C3220312   5.790   1.087   4.551  0.1759 -0.5922  0.2178
  178SAPS   H2X20313   5.686   1.058   4.522  0.3912 -0.9853 -0.1864
  178SAPS   H2Y20314   5.782   1.197   4.563  1.0433 -0.6900  1.9485
  178SAPS   C2320315   6.081   1.568   4.429  0.3001 -0.4054  0.1750
  178SAPS   H3R20316   6.124   1.670   4.421 -5.1799  2.1862 -0.9358
  178SAPS   H3S20317   6.158   1.496   4.464 -0.8890 -3.0310 -2.1990
  178SAPS   C2420318   5.970   1.595   4.533 -0.5456  0.5881  0.4236
  178SAPS   H4R20319   5.888   1.654   4.488  2.4328  3.7708 -1.2673
  178SAPS   H4S20320   6.013   1.673   4.600 -2.2479  1.2910  0.7478
  178SAPS   C2520321   5.916   1.479   4.610 -1.2942 -0.6111  0.6088
  178SAPS   H5R20322   5.916   1.384   4.555 -1.6554 -0.1769 -0.1468
  178SAPS   C2620323   5.885   1.470   4.738  0.6622  0.1375 -0.2586
  178SAPS   H6R20324   5.850   1.376   4.783  1.3226 -0.4512 -0.9488
  178SAPS   C2720325   5.917   1.582   4.830  0.1114  0.0853  0.2013
  178SAPS   H7R20326   6.012   1.627   4.793  2.0844 -3.8705 -0.1054
  178SAPS   H7S20327   5.941   1.536   4.928  2.1199  1.8856  0.6389
  178SAPS   C2820328   5.813   1.694   4.838 -0.0218 -0.0262  0.0732
  178SAPS   H8R20329   5.796   1.750   4.745  0.6693 -1.5505 -0.9972
  178SAPS   C2920330   5.762   1.735   4.953 -0.3906 -0.7030  0.0358
  178SAPS   H9R20331   5.685   1.813   4.947 -0.3587 -0.5809  0.9403
  178SAPS  C21020332   5.785   1.685   5.095  0.4504 -0.1467 -0.3743
  178SAPS  H10R20333   5.843   1.591   5.098  0.8529  0.0972  2.6458
  178SAPS  H10S20334   5.684   1.652   5.129  0.8610 -1.3220 -0.2449
  178SAPS  C21120335   5.851   1.789   5.179 -0.3966 -0.7848  0.1855
  178SAPS  H11R20336   5.920   1.856   5.126  0.9734 -1.6912  0.7659
  178SAPS  C21220337   5.833   1.810   5.312  0.0870 -0.9041 -0.2634
  178SAPS  H12R20338   5.895   1.889   5.358  0.6074 -1.3946 -0.1188
  178SAPS  C21320339   5.748   1.740   5.417 -0.6167 -0.3898  0.2274
  178SAPS  H13R20340   5.714   1.644   5.373  1.6605 -1.0515 -0.2207
  178SAPS  H13S20341   5.655   1.794   5.444 -0.3049  0.2539  0.0378
  178SAPS  C21420342   5.830   1.703   5.543  0.0977 -0.1081 -0.0988
  178SAPS  H14R20343   5.861   1.597   5.553 -3.9187 -1.6738 -1.9616
  178SAPS  C21520344   5.869   1.793   5.631 -0.1697 -0.1834  0.0453
  178SAPS  H15R20345   5.930   1.756   5.714  0.3331  1.4538  0.4492
  178SAPS  C21620346   5.825   1.935   5.630  0.1473 -0.0214  0.1722
  178SAPS  H16R20347   5.722   1.953   5.592  0.5770  2.2858 -0.0669
  178SAPS  H16S20348   5.894   1.994   5.567  0.0526 -2.7512 -2.7201
  178SAPS  C21720349   5.828   2.017   5.761 -0.1111 -0.5084 -0.0337
  178SAPS  H17R20350   5.779   2.115   5.743 -1.0348 -0.5228  2.1469
  178SAPS  H17S20351   5.935   2.027   5.788 -0.0889 -1.4400  0.2386
  178SAPS  C21820352   5.774   1.952   5.882 -0.1162 -0.0549  0.2378
  178SAPS  H18R20353   5.840   1.868   5.912 -0.3854  0.3828  2.2121
  178SAPS  H18S20354   5.680   1.902   5.849  0.2405 -0.5815  0.0104
  178SAPS  C21920355   5.744   2.052   5.996 -0.4805 -0.3131 -0.6486
  178SAPS  H19R20356   5.828   2.124   6.008 -0.0841 -0.7628 -0.7063
  178SAPS  H19S20357   5.750   1.998   6.093 -1.4261 -0.1842 -0.5060
  178SAPS  C22020358   5.613   2.125   5.992  0.8190 -0.0177 -0.1677
  178SAPS  H20R20359   5.595   2.159   5.888 -1.1382 -0.2814  0.0428
  178SAPS  H20S20360   5.612   2.222   6.047  0.1374  0.4297 -0.9327
  178SAPS  H20T20361   5.527   2.068   6.035  1.2263  0.5109  1.4405
  178SAPS   C3320362   5.809   1.019   4.687  0.0218 -0.6002 -0.7859
  178SAPS   H3X20363   5.739   1.061   4.762  1.3463  0.3699 -0.0435
  178SAPS   H3Y20364   5.915   1.039   4.715  0.5300  1.7676 -3.8717
  178SAPS   C3420365   5.798   0.866   4.684  0.0677 -0.1499 -0.5762
  178SAPS   H4X20366   5.836   0.826   4.588  0.9340  0.9747 -0.7203
  178SAPS   H4Y20367   5.689   0.844   4.695  0.3470 -1.4417 -0.1835
  178SAPS   C3520368   5.876   0.800   4.797 -0.2590  0.3075  0.0745
  178SAPS   H5X20369   5.982   0.831   4.785 -0.4372 -0.1050 -3.4878
  178SAPS   H5Y20370   5.882   0.690   4.780  0.6826  0.6821 -2.4281
  178SAPS   C3620371   5.823   0.841   4.942  0.2551 -0.0331 -0.6704
  178SAPS   H6X20372   5.822   0.952   4.954  2.9363 -0.1246  1.2196
  178SAPS   H6Y20373   5.899   0.797   5.009  0.8827  2.1590  0.1598
  178SAPS   C3720374   5.674   0.793   4.963  0.2715  0.2668 -0.4935
  178SAPS   H7X20375   5.666   0.690   4.922 -0.1622  0.4800 -0.9477
  178SAPS   H7Y20376   5.618   0.858   4.893 -1.1870 -0.5688 -0.1427
  178SAPS   C3820377   5.617   0.800   5.105  0.2057 -0.4309 -0.3322
  178SAPS   H8X20378   5.698   0.750   5.162  1.8804  3.1452  0.7164
  178SAPS   H8Y20379   5.519   0.748   5.107  0.2415 -0.7247 -2.6750
  178SAPS   C3920380   5.616   0.949   5.156  0.3492 -0.8734  0.3979
  178SAPS   H9X20381   5.586   1.022   5.077  0.8110 -0.1717  0.8598
  178SAPS   H9Y20382   5.717   0.983   5.188 -1.0350  1.6982  2.4120
  178SAPS  C31020383   5.526   0.972   5.277 -0.2164 -0.4859 -0.8592
  178SAPS  H10X20384   5.420   0.963   5.245 -0.2355  1.3111 -1.3909
  178SAPS  H10Y20385   5.539   1.074   5.318  0.7760 -1.2772  0.8791
  178SAPS  C31120386   5.565   0.877   5.398  0.4316  0.0428  0.1002
  178SAPS  H11X20387   5.672   0.850   5.387 -0.2766 -2.4561 -1.5632
  178SAPS  H11Y20388   5.511   0.781   5.382  1.2465 -0.3052 -0.6495
  178SAPS  C31220389   5.531   0.924   5.542 -0.4049  0.1027  0.2278
  178SAPS  H12X20390   5.587   1.019   5.553  2.7631 -1.5466 -0.2889
  178SAPS  H12Y20391   5.566   0.849   5.616  1.5394 -0.0237 -0.7413
  178SAPS  C31320392   5.384   0.946   5.573  0.4438  0.6002 -0.4753
  178SAPS  H13X20393   5.338   0.846   5.589  0.0967  0.8764  0.2923
  178SAPS  H13Y20394   5.324   0.987   5.489  0.9007 -0.9165 -1.5949
  178SAPS  C31420395   5.362   1.015   5.697  0.6982 -0.4469  0.0064
  178SAPS  H14X20396   5.271   1.079   5.704  2.4990  2.3619 -0.4136
  178SAPS  H14Y20397   5.439   1.095   5.705  4.0372 -3.4678  0.0378
  178SAPS  C31520398   5.385   0.938   5.822  0.1319 -0.9326 -0.1758
  178SAPS  H15X20399   5.492   0.907   5.823  0.2345 -0.5800  0.5624
  178SAPS  H15Y20400   5.331   0.841   5.816 -0.6397 -0.5335  0.2457
  178SAPS  C31620401   5.359   1.014   5.958 -0.8593 -0.4433  0.2336
  178SAPS  H16X20402   5.376   0.936   6.035 -0.6708  0.6408  1.3003
  178SAPS  H16Y20403   5.253   1.039   5.976  0.0666  2.8830  1.8238
  178SAPS  C31720404   5.440   1.137   5.988 -0.1014 -0.4325 -0.2535
  178SAPS  H17X20405   5.431   1.195   5.894 -1.0276 -0.3550 -0.1289
  178SAPS  H17Y20406   5.541   1.106   6.023 -0.1487  0.1829  0.4498
  178SAPS  C31820407   5.386   1.205   6.115  0.9597 -0.0092  0.0076
  178SAPS  H18X20408   5.463   1.273   6.159  0.7568 -1.1230  2.2390
  178SAPS  H18Y20409   5.344   1.129   6.185 -0.2347  0.3022 -0.3454
  178SAPS  H18Z20410   5.294   1.262   6.091  1.2165  0.4400  0.0770
  179SAPS     N20411   6.239   6.032   3.760  0.1413 -0.1759  0.0397
  179SAPS   HN120412   6.251   6.023   3.863  1.5079 -4.5885 -0.3104
  179SAPS   HN220413   6.335   6.053   3.724  0.4795 -0.5933  0.6642
  179SAPS   HN320414   6.180   6.111   3.728 -1.3569 -1.1364  0.3651
  179SAPS   C1220415   6.194   5.893   3.714 -0.3551  1.0999  0.3498
  179SAPS  H12A20416   6.199   5.877   3.608 -1.9325 -2.3508  0.6677
  179SAPS   C1320417   6.291   5.786   3.777  0.1501  0.3142  0.4103
  179SAPS  O13A20418   6.411   5.819   3.810 -0.2276 -0.1145  0.1941
  179SAPS  O13B20419   6.261   5.665   3.774 -0.5423 -0.0302 -0.2701
  179SAPS   C1120420   6.042   5.858   3.749 -0.5788 -0.1168 -0.1707
  179SAPS  H11A20421   6.040   5.863   3.860  0.2810  1.0635 -0.1869
  179SAPS  H11B20422   6.036   5.755   3.709  1.8959  0.0509 -1.1360
  179SAPS     P20423   5.850   5.892   3.584  0.0802 -0.2235  0.1814
  179SAPS   O1320424   5.758   6.000   3.539 -0.5891 -0.2407  0.1801
  179SAPS   O1420425   5.918   5.821   3.477 -0.1540 -0.0920  0.0264
  179SAPS   O1220426   5.958   5.955   3.685  0.2959  0.1472  0.6221
  179SAPS   O1120427   5.761   5.798   3.668 -0.3162 -0.1361  0.2005
  179SAPS    C120428   5.659   5.844   3.761 -0.2085  0.2978 -0.1014
  179SAPS    HA20429   5.651   5.955   3.754  1.1062  0.3238 -1.6453
  179SAPS    HB20430   5.562   5.798   3.732  0.8767 -1.6034 -0.9067
  179SAPS    C220431   5.701   5.813   3.907 -0.7388  0.4847 -0.4292
  179SAPS    HS20432   5.772   5.887   3.949 -0.8265  0.2882  0.0697
  179SAPS   O2120433   5.753   5.673   3.910  0.2035 -0.2392  0.0350
  179SAPS   C2120434   5.859   5.656   3.983  0.0023 -0.7072 -0.2550
  179SAPS   O2220435   5.898   5.732   4.071  0.3823  0.5329  0.2803
  179SAPS   C2220436   5.944   5.529   3.942  0.6156 -0.2134  0.1989
  179SAPS   H2R20437   5.889   5.479   3.859  0.1807  0.3605  0.1443
  179SAPS   H2S20438   6.033   5.575   3.893 -0.7796  0.2546 -2.0172
  179SAPS    C320439   5.581   5.805   4.005 -0.3301 -0.6049  0.5389
  179SAPS    HX20440   5.503   5.736   3.968  0.3736 -1.9632  1.5189
  179SAPS    HY20441   5.524   5.900   4.009 -0.9197 -0.9573  0.6233
  179SAPS   O3120442   5.607   5.750   4.137 -0.3394 -0.7009 -0.2725
  179SAPS   C3120443   5.675   5.841   4.217  0.1375 -1.0363 -0.5703
  179SAPS   O3220444   5.721   5.946   4.176 -0.1232 -0.4872  0.3938
  179SAPS   C3220445   5.703   5.786   4.354 -0.4996 -0.3600 -0.1377
  179SAPS   H2X20446   5.717   5.676   4.356 -1.2330 -0.4455  1.3573
  179SAPS   H2Y20447   5.623   5.808   4.428  1.2367 -1.7261  2.3002
  179SAPS   C2320448   5.992   5.436   4.054 -1.0235 -0.1089 -0.3017
  179SAPS   H3R20449   6.028   5.346   4.000  2.3061  2.2110 -2.2807
  179SAPS   H3S20450   5.906   5.419   4.123 -0.7969 -1.5671 -0.3448
  179SAPS   C2420451   6.109   5.485   4.135 -0.3143 -0.8477  0.3429
  179SAPS   H4R20452   6.081   5.585   4.175 -0.9777 -0.6584 -0.5573
  179SAPS   H4S20453   6.197   5.504   4.070 -0.1384 -3.3211 -0.2488
  179SAPS   C2520454   6.144   5.385   4.247  0.2924 -0.3627 -0.1681
  179SAPS   H5R20455   6.210   5.300   4.224  2.8549  1.5219 -0.2560
  179SAPS   C2620456   6.090   5.383   4.371  1.0403  0.4369 -0.8087
  179SAPS   H6R20457   6.125   5.296   4.429  2.2519 -0.6239 -2.9962
  179SAPS   C2720458   5.992   5.467   4.450  1.0569  0.7977 -0.2711
  179SAPS   H7R20459   5.988   5.566   4.398  2.1986 -0.1390 -2.2637
  179SAPS   H7S20460   6.030   5.483   4.553  3.6922  0.3302 -1.0900
  179SAPS   C2820461   5.853   5.399   4.444  0.1034  0.0229 -0.0860
  179SAPS   H8R20462   5.831   5.345   4.351  1.2550  2.2747 -1.7712
  179SAPS   C2920463   5.771   5.383   4.545  0.2302 -0.2082 -0.7102
  179SAPS   H9R20464   5.677   5.328   4.527  1.1317 -1.5528 -1.4497
  179SAPS  C21020465   5.781   5.444   4.679 -0.1785 -0.1142 -0.9592
  179SAPS  H10R20466   5.865   5.516   4.690  1.8646 -2.5319 -0.0407
  179SAPS  H10S20467   5.821   5.365   4.745 -1.2244 -0.3807 -0.6242
  179SAPS  C21120468   5.645   5.498   4.726  0.4434  0.2524  0.7070
  179SAPS  H11R20469   5.586   5.556   4.653 -0.9958  0.1227  1.7249
  179SAPS  C21220470   5.586   5.494   4.847 -0.0835  0.2345 -0.4791
  179SAPS  H12R20471   5.481   5.527   4.854 -1.0292 -2.7815  2.2364
  179SAPS  C21320472   5.644   5.422   4.967 -0.3144  0.0091  0.8434
  179SAPS  H13R20473   5.676   5.317   4.946  1.3789  0.3382  1.6105
  179SAPS  H13S20474   5.566   5.408   5.044  1.2607  1.6095  2.8122
  179SAPS  C21420475   5.760   5.486   5.033 -0.0245 -0.5888 -0.3869
  179SAPS  H14R20476   5.840   5.509   4.961 -0.4922  0.4389 -0.5936
  179SAPS  C21520477   5.770   5.505   5.167  0.1723  0.0632  0.0898
  179SAPS  H15R20478   5.864   5.541   5.211  0.8063 -1.1019 -0.2698
  179SAPS  C21620479   5.669   5.490   5.274  0.7837 -0.4275  0.6890
  179SAPS  H16R20480   5.662   5.389   5.318 -1.3412 -0.4591  0.3691
  179SAPS  H16S20481   5.570   5.513   5.229 -1.4593 -3.6046  3.4658
  179SAPS  C21720482   5.674   5.583   5.394 -0.2444 -0.2637 -0.4421
  179SAPS  H17R20483   5.666   5.688   5.358  1.5153  0.0991  0.1050
  179SAPS  H17S20484   5.774   5.563   5.438  0.6738 -1.0481 -2.7380
  179SAPS  C21820485   5.575   5.555   5.510 -0.5529 -0.3158  0.3838
  179SAPS  H18R20486   5.546   5.448   5.500  2.2237 -0.9563 -2.3219
  179SAPS  H18S20487   5.484   5.617   5.498 -0.6331 -0.1740  1.6116
  179SAPS  C21920488   5.635   5.571   5.648  0.1498 -0.4889  0.3423
  179SAPS  H19R20489   5.698   5.661   5.666 -0.6508  0.4159 -1.2070
  179SAPS  H19S20490   5.703   5.485   5.668  1.6846  0.6524  0.1837
  179SAPS  C22020491   5.520   5.570   5.745  0.0884 -0.3325 -0.0653
  179SAPS  H20R20492   5.452   5.657   5.738  2.3039  1.5743  0.7704
  179SAPS  H20S20493   5.561   5.574   5.848 -1.0086 -0.2888  0.3820
  179SAPS  H20T20494   5.467   5.472   5.737 -0.2228 -0.8138  4.8943
  179SAPS   C3320495   5.825   5.853   4.412 -1.2026  0.0847 -0.0204
  179SAPS   H3X20496   5.822   5.964   4.401  2.2206  0.4048  1.1342
  179SAPS   H3Y20497   5.908   5.830   4.342  0.7481  2.2334  1.4343
  179SAPS   C3420498   5.864   5.813   4.552 -0.2751 -0.4691 -0.1994
  179SAPS   H4X20499   5.965   5.853   4.573 -0.6693  0.2380  0.4226
  179SAPS   H4Y20500   5.867   5.704   4.571 -1.6199  0.1797  5.3482
  179SAPS   C3520501   5.762   5.881   4.650 -0.3168  0.5074 -0.5167
  179SAPS   H5X20502   5.663   5.845   4.615 -0.5226  0.6849 -0.1148
  179SAPS   H5Y20503   5.763   5.991   4.640 -0.1173  0.5316 -0.2546
  179SAPS   C3620504   5.785   5.840   4.800 -0.8373  0.4332 -0.2352
  179SAPS   H6X20505   5.803   5.731   4.806 -0.8089  0.4081 -0.7765
  179SAPS   H6Y20506   5.695   5.850   4.864 -1.7942 -1.6123 -1.1586
  179SAPS   C3720507   5.903   5.929   4.849 -0.0734  0.4759 -0.4112
  179SAPS   H7X20508   5.866   6.034   4.853 -1.3356  0.0358 -0.0410
  179SAPS   H7Y20509   5.994   5.921   4.784  0.3475  0.4180  0.1779
  179SAPS   C3820510   5.940   5.885   4.996  0.1715 -1.2358  0.4907
  179SAPS   H8X20511   6.035   5.935   5.024 -0.5262  0.1958  0.3847
  179SAPS   H8Y20512   5.947   5.774   4.991 -1.6184 -1.3418 -1.6510
  179SAPS   C3920513   5.840   5.933   5.095  0.0590 -0.4384  0.1661
  179SAPS   H9X20514   5.738   5.898   5.070  0.0103  0.1054 -0.4195
  179SAPS   H9Y20515   5.838   6.044   5.104 -1.4955 -0.4562  0.3180
  179SAPS  C31020516   5.879   5.884   5.230 -0.2936 -0.2948  0.0199
  179SAPS  H10X20517   5.983   5.853   5.254 -0.5984 -0.6006  1.0432
  179SAPS  H10Y20518   5.825   5.787   5.244  0.8191 -0.9743 -0.2958
  179SAPS  C31120519   5.836   5.975   5.345  0.7629  0.2367  0.2194
  179SAPS  H11X20520   5.732   6.005   5.320  0.5209 -1.2145 -0.6502
  179SAPS  H11Y20521   5.894   6.070   5.342 -1.5770  1.7212 -1.0420
  179SAPS  C31220522   5.838   5.909   5.484  0.8892 -0.2155 -0.3873
  179SAPS  H12X20523   5.925   5.842   5.503 -0.0399 -1.1355  0.7933
  179SAPS  H12Y20524   5.752   5.840   5.498  0.5620  0.6686  2.7476
  179SAPS  C31320525   5.838   6.015   5.593 -0.0972 -0.2822  0.3868
  179SAPS  H13X20526   5.736   6.059   5.585  0.0357 -0.2389 -1.5460
  179SAPS  H13Y20527   5.918   6.090   5.577 -0.2160 -0.3457 -0.5113
  179SAPS  C31420528   5.852   5.941   5.725 -0.7573 -0.4043  0.1768
  179SAPS  H14X20529   5.946   5.882   5.719  0.9592  2.2087 -0.3761
  179SAPS  H14Y20530   5.761   5.880   5.743 -2.0183  1.7644  1.5828
  179SAPS  C31520531   5.853   6.041   5.844 -0.3953  0.2575  0.5997
  179SAPS  H15X20532   5.758   6.096   5.861 -1.2327 -1.6299  2.3192
  179SAPS  H15Y20533   5.934   6.109   5.808 -1.2306  0.9190 -0.0749
  179SAPS  C31620534   5.879   5.969   5.981  0.0084 -0.8266  0.1846
  179SAPS  H16X20535   5.982   5.927   5.978  0.0308 -0.9850 -4.4133
  179SAPS  H16Y20536   5.806   5.886   5.988  0.7210 -1.3995  1.1011
  179SAPS  C31720537   5.880   6.064   6.106  0.0989 -0.1112  0.2298
  179SAPS  H17X20538   5.788   6.125   6.122  1.5140  2.3470 -0.5075
  179SAPS  H17Y20539   5.945   6.151   6.083 -2.5375  1.7280 -0.9031
  179SAPS  C31820540   5.920   5.993   6.239  0.6009 -0.2050  0.1214
  179SAPS  H18X20541   5.955   6.064   6.317 -0.5625  0.5282  0.0027
  179SAPS  H18Y20542   6.010   5.935   6.208  0.5957  0.4692 -1.1912
  179SAPS  H18Z20543   5.846   5.921   6.281  1.5559 -0.2730  1.7968
  180SAPS     N20544   5.589   2.680   3.564 -0.4607 -0.3083 -0.3491
  180SAPS   HN120545   5.557   2.581   3.566 -2.9160  0.2296 -3.8672
  180SAPS   HN220546   5.679   2.692   3.513 -0.9898 -0.9209 -1.4673
  180SAPS   HN320547   5.588   2.726   3.657 -1.4934 -1.1969  0.0900
  180SAPS   C1220548   5.481   2.759   3.486 -1.2195 -0.0504 -0.1267
  180SAPS  H12A20549   5.516   2.860   3.469  0.0808  0.0597  2.7518
  180SAPS   C1320550   5.435   2.708   3.345  0.2262 -0.1443  0.4902
  180SAPS  O13A20551   5.491   2.608   3.298 -0.0116 -0.0935  0.3053
  180SAPS  O13B20552   5.339   2.758   3.281 -0.5996 -0.4483 -0.1713
  180SAPS   C1120553   5.356   2.776   3.575 -0.0015  0.0067 -0.7997
  180SAPS  H11A20554   5.324   2.675   3.608 -1.0841  0.5411 -0.1568
  180SAPS  H11B20555   5.279   2.806   3.501 -0.0344 -2.0507 -1.6673
  180SAPS     P20556   5.257   2.874   3.780 -0.1269  0.0876  0.0163
  180SAPS   O1320557   5.266   2.993   3.866  0.2233 -0.5492 -0.5205
  180SAPS   O1420558   5.124   2.859   3.719 -0.2137 -0.2552  0.1586
  180SAPS   O1220559   5.367   2.880   3.671 -0.0585  0.1013  0.0294
  180SAPS   O1120560   5.289   2.748   3.871  0.1112  0.2254 -0.3529
  180SAPS    C120561   5.421   2.723   3.920 -0.2497 -0.1594  0.0733
  180SAPS    HA20562   5.471   2.649   3.855 -1.5381  0.6701 -1.9638
  180SAPS    HB20563   5.479   2.817   3.931  0.9923 -0.6803 -1.5823
  180SAPS    C220564   5.428   2.654   4.056 -0.2597  0.0660 -0.0187
  180SAPS    HS20565   5.373   2.558   4.048 -1.0926  0.4963  0.2878
  180SAPS   O2120566   5.364   2.743   4.155 -0.5686  0.1809  0.1734
  180SAPS   C2120567   5.332   2.681   4.265 -0.4570 -0.1650 -0.1752
  180SAPS   O2220568   5.306   2.561   4.272 -0.4332  0.5962  0.2960
  180SAPS   C2220569   5.343   2.783   4.382  0.2677  0.0618 -0.5301
  180SAPS   H2R20570   5.425   2.854   4.359  0.5130 -0.3529 -0.9546
  180SAPS   H2S20571   5.243   2.827   4.404  1.0605  0.7432  2.1064
  180SAPS    C320572   5.579   2.625   4.097  0.5186 -0.0999  0.4668
  180SAPS    HX20573   5.637   2.593   4.008  1.3637 -1.3735  1.4479
  180SAPS    HY20574   5.585   2.535   4.162  1.0693 -0.4205 -0.0223
  180SAPS   O3120575   5.628   2.751   4.155  0.5026  0.3696  0.4154
  180SAPS   C3120576   5.751   2.736   4.203 -0.0782  0.0441  0.2593
  180SAPS   O3220577   5.808   2.628   4.207 -0.3020 -0.7345 -0.5122
  180SAPS   C3220578   5.802   2.868   4.259 -1.2296 -0.4161  0.2936
  180SAPS   H2X20579   5.758   2.946   4.194 -0.2101  0.2701  0.4061
  180SAPS   H2Y20580   5.912   2.883   4.253 -1.3695  0.5700  0.1480
  180SAPS   C2320581   5.402   2.713   4.509  0.5475  0.1627 -0.3370
  180SAPS   H3R20582   5.499   2.669   4.476  0.4957  0.2570 -0.6168
  180SAPS   H3S20583   5.333   2.627   4.527 -1.0350  0.9852 -2.1425
  180SAPS   C2420584   5.426   2.793   4.637 -0.3122 -1.2446 -0.4565
  180SAPS   H4R20585   5.327   2.832   4.670  0.4206 -0.6480  1.1584
  180SAPS   H4S20586   5.495   2.871   4.600 -0.4125 -0.9909 -0.1160
  180SAPS   C2520587   5.490   2.710   4.743 -0.0317 -0.4524  0.1383
  180SAPS   H5R20588   5.573   2.649   4.704 -0.4012  0.1229 -1.6616
  180SAPS   C2620589   5.466   2.706   4.874  0.1805  0.0540 -0.5719
  180SAPS   H6R20590   5.518   2.635   4.941 -1.1047  0.4943  0.9439
  180SAPS   C2720591   5.359   2.782   4.951 -0.0339  0.6624  0.8209
  180SAPS   H7R20592   5.288   2.833   4.883  0.2284 -1.3789 -1.0875
  180SAPS   H7S20593   5.410   2.868   4.999  0.3248  0.2724  1.1559
  180SAPS   C2820594   5.282   2.699   5.047 -0.4543 -0.5688  0.3998
  180SAPS   H8R20595   5.195   2.657   4.993  3.0702 -2.8179 -4.2664
  180SAPS   C2920596   5.300   2.711   5.177 -0.2093  0.6133  0.3789
  180SAPS   H9R20597   5.229   2.666   5.247 -0.0634 -1.2672 -0.6270
  180SAPS  C21020598   5.415   2.776   5.245  0.6589 -1.0928  0.0095
  180SAPS  H10R20599   5.502   2.775   5.177 -0.0646 -4.0078 -0.9863
  180SAPS  H10S20600   5.451   2.708   5.325 -2.4400 -0.9005  1.7507
  180SAPS  C21120601   5.385   2.919   5.292  0.1117 -0.4187 -0.1240
  180SAPS  H11R20602   5.387   2.997   5.215 -0.9364  0.1551  0.4076
  180SAPS  C21220603   5.334   2.952   5.410  0.2852  0.0625  0.6923
  180SAPS  H12R20604   5.298   3.056   5.415  0.0290  0.0170 -0.1292
  180SAPS  C21320605   5.310   2.857   5.529  0.5997  0.0176  0.9468
  180SAPS  H13R20606   5.385   2.883   5.607  0.2270  1.8570  0.7257
  180SAPS  H13S20607   5.333   2.754   5.492  3.6605  1.6573 -2.2906
  180SAPS  C21420608   5.173   2.844   5.587 -0.1116  0.5911 -0.8569
  180SAPS  H14R20609   5.101   2.801   5.514 -0.2189 -2.4807  0.8863
  180SAPS  C21520610   5.122   2.890   5.708 -0.5517  0.0074  0.8096
  180SAPS  H15R20611   5.015   2.871   5.725 -0.9305 -1.5460 -2.5243
  180SAPS  C21620612   5.206   2.980   5.800 -1.0447  0.5888  1.0380
  180SAPS  H16R20613   5.261   3.048   5.731 -0.5553 -0.2571  0.5830
  180SAPS  H16S20614   5.279   2.915   5.852  0.6021  1.1540 -0.4861
  180SAPS  C21720615   5.109   3.028   5.905  0.1638 -0.4926 -0.1880
  180SAPS  H17R20616   5.069   2.940   5.960 -0.1534 -0.9509 -1.1282
  180SAPS  H17S20617   5.025   3.082   5.856 -1.3883 -2.7152 -0.1154
  180SAPS  C21820618   5.168   3.137   5.997 -0.2896  0.1201  0.2865
  180SAPS  H18R20619   5.188   3.231   5.941  0.5117  1.6270  2.9765
  180SAPS  H18S20620   5.268   3.113   6.038 -0.0508  2.4195  1.2074
  180SAPS  C21920621   5.073   3.179   6.116  0.0976  0.1415  0.2980
  180SAPS  H19R20622   5.065   3.081   6.167  1.1360 -0.0730  0.0620
  180SAPS  H19S20623   4.978   3.223   6.076 -1.8181 -2.4756  1.6455
  180SAPS  C22020624   5.131   3.269   6.218  0.2752 -1.1308 -0.0613
  180SAPS  H20R20625   5.157   3.370   6.180 -2.6849 -0.0395  0.5448
  180SAPS  H20S20626   5.060   3.299   6.298  2.2720  2.0267  0.7084
  180SAPS  H20T20627   5.229   3.234   6.260  0.5689 -1.8506 -1.3010
  180SAPS   C3320628   5.759   2.882   4.405 -1.2556  0.2111 -0.3863
  180SAPS   H3X20629   5.788   2.790   4.459 -2.2490  0.8223  1.2703
  180SAPS   H3Y20630   5.649   2.891   4.403 -1.5214 -2.0340  0.6594
  180SAPS   C3420631   5.810   3.003   4.481  0.2459 -0.5017  0.5179
  180SAPS   H4X20632   5.777   3.104   4.450  1.8068  0.3545  1.5056
  180SAPS   H4Y20633   5.920   3.006   4.490  0.3031 -1.4176  0.2341
  180SAPS   C3520634   5.774   2.987   4.627  0.0535  0.1773  0.0031
  180SAPS   H5X20635   5.821   2.892   4.658  0.2190  0.4195  0.5045
  180SAPS   H5Y20636   5.663   2.982   4.631 -0.1805  3.1195 -0.2934
  180SAPS   C3620637   5.838   3.101   4.714  0.4957  0.2088 -0.0773
  180SAPS   H6X20638   5.788   3.191   4.671 -0.6632 -1.0070 -1.3759
  180SAPS   H6Y20639   5.943   3.122   4.687 -0.0065  0.8205 -1.6992
  180SAPS   C3720640   5.823   3.093   4.866  0.6469 -0.2839  0.3584
  180SAPS   H7X20641   5.865   3.183   4.916  1.6171 -0.7583  0.4202
  180SAPS   H7Y20642   5.891   3.015   4.906  0.5424 -0.7120 -0.2919
  180SAPS   C3820643   5.676   3.059   4.909 -0.6107  0.3487 -0.8467
  180SAPS   H8X20644   5.644   2.966   4.858 -3.0816  0.2368  0.7724
  180SAPS   H8Y20645   5.605   3.136   4.870 -0.2923 -0.2360 -2.6965
  180SAPS   C3920646   5.657   3.039   5.060 -0.3672 -0.4306 -0.5827
  180SAPS   H9X20647   5.665   2.932   5.088  0.2448 -0.1209  0.4571
  180SAPS   H9Y20648   5.553   3.068   5.088 -0.4696 -0.7728 -0.5951
  180SAPS  C31020649   5.752   3.114   5.155  0.0788 -0.1583 -0.5287
  180SAPS  H10X20650   5.773   3.219   5.123  3.1017  0.0634  1.7191
  180SAPS  H10Y20651   5.843   3.051   5.161  1.5417  1.9777  1.2878
  180SAPS  C31120652   5.686   3.130   5.290  0.0994 -0.4783  0.0542
  180SAPS  H11X20653   5.646   3.032   5.324 -0.7726  0.1751  0.9664
  180SAPS  H11Y20654   5.601   3.201   5.282  1.4616  1.2461  0.2079
  180SAPS  C31220655   5.786   3.180   5.392 -0.5719 -0.0540  0.6153
  180SAPS  H12X20656   5.829   3.278   5.365  0.3473 -0.8465 -0.9633
  180SAPS  H12Y20657   5.865   3.104   5.408 -2.2756 -1.8576  0.8709
  180SAPS  C31320658   5.716   3.187   5.526 -0.7291  0.0213 -0.2572
  180SAPS  H13X20659   5.651   3.098   5.539 -0.1219 -0.0009  4.4670
  180SAPS  H13Y20660   5.651   3.277   5.521  1.6577  2.0058  1.6674
  180SAPS  C31420661   5.824   3.207   5.644  0.1833 -0.4620  0.1513
  180SAPS  H14X20662   5.902   3.130   5.629  1.6103  0.6678  1.5934
  180SAPS  H14Y20663   5.778   3.189   5.743  0.5216  1.4791  0.6995
  180SAPS  C31520664   5.867   3.357   5.620 -0.8946 -0.5258  0.4881
  180SAPS  H15X20665   5.814   3.408   5.537  2.2996 -1.2205 -2.1949
  180SAPS  H15Y20666   5.974   3.349   5.593 -0.6368  1.8240  0.6867
  180SAPS  C31620667   5.861   3.443   5.745  0.0570  0.3576  0.1387
  180SAPS  H16X20668   5.895   3.383   5.832  1.0228  0.2914 -0.2726
  180SAPS  H16Y20669   5.755   3.468   5.768  0.1010 -0.9651  2.0121
  180SAPS  C31720670   5.952   3.564   5.748  0.1689  0.2192  0.3462
  180SAPS  H17X20671   5.937   3.610   5.648  1.2443 -0.9035 -0.3587
  180SAPS  H17Y20672   6.060   3.539   5.756  0.1668 -0.0767 -0.4426
  180SAPS  C31820673   5.918   3.671   5.852  0.4259 -0.3039  0.5472
  180SAPS  H18X20674   5.999   3.744   5.870 -0.1351  0.7431 -0.9726
  180SAPS  H18Y20675   5.906   3.625   5.953 -1.5016  0.0037  0.5063
  180SAPS  H18Z20676   5.825   3.728   5.830 -0.5290 -1.8363  0.4878
  181POPC     N20677   0.851   2.423   0.091 -0.7338  0.2108 -0.5196
  181POPC   C1220678   0.862   2.367  -0.049  0.2983 -0.8198 -0.8358
  181POPC  H12A20679   0.918   2.274  -0.041  0.6952 -0.4897  0.5897
  181POPC  H12B20680   0.934   2.422  -0.108  0.1050 -0.6112 -0.8744
  181POPC   C1320681   0.988   2.454   0.151 -0.2996 -0.0218  0.1933
  181POPC  H13A20682   0.986   2.484   0.255  1.0638 -1.4146  0.6512
  181POPC  H13B20683   1.060   2.377   0.127 -0.2536 -0.4443  1.6140
  181POPC  H13C20684   1.033   2.535   0.096  1.9432 -1.5683 -0.3707
  181POPC   C1420685   0.759   2.543   0.089  0.3262 -0.4601 -0.5093
  181POPC  H14A20686   0.807   2.621   0.033  1.2965 -1.0712 -0.5432
  181POPC  H14B20687   0.662   2.518   0.048  0.2260  0.0553 -0.5881
  181POPC  H14C20688   0.729   2.574   0.188 -2.6239 -0.1828 -1.3875
  181POPC   C1520689   0.791   2.333   0.189  0.6447  0.3168 -0.3331
  181POPC  H15A20690   0.769   2.374   0.286 -1.5554 -2.2127  0.3454
  181POPC  H15B20691   0.853   2.247   0.208 -0.2158  0.1915  2.3218
  181POPC  H15C20692   0.694   2.303   0.154  0.4859  1.7705 -1.2326
  181POPC   C1120693   0.730   2.342  -0.134 -0.7316 -0.0297 -0.1413
  181POPC  H11A20694   0.775   2.324  -0.234  1.0178  0.3493  0.5373
  181POPC  H11B20695   0.674   2.438  -0.134  1.3486  1.2768 -1.5195
  181POPC     P20696   0.504   2.216  -0.075  0.5755  0.0708 -0.2774
  181POPC   O1320697   0.447   2.327   0.002 -0.6776 -0.4432 -0.2878
  181POPC   O1420698   0.473   2.083  -0.022 -0.1207  0.2174 -0.1255
  181POPC   O1220699   0.664   2.226  -0.091 -0.2941 -0.3218 -0.2417
  181POPC   O1120700   0.444   2.224  -0.224 -0.0175  0.0232 -0.0625
  181POPC    C120701   0.504   2.141  -0.323  0.4586 -0.0971 -0.5574
  181POPC    HA20702   0.475   2.034  -0.315  2.3340 -0.7832 -2.1918
  181POPC    HB20703   0.615   2.145  -0.323  0.4425  0.3436 -1.1416
  181POPC    C220704   0.461   2.190  -0.464 -0.2478 -0.4609 -0.1936
  181POPC    HS20705   0.505   2.292  -0.468  1.1797 -1.0435  0.0649
  181POPC   O2120706   0.318   2.192  -0.486  0.4497  0.3048  0.0421
  181POPC   C2120707   0.271   2.304  -0.549 -0.6497  0.3329 -0.0025
  181POPC   O2220708   0.339   2.399  -0.584 -0.0070 -0.3085 -0.5386
  181POPC   C2220709   0.126   2.275  -0.598 -0.2918  0.4940  0.0494
  181POPC   H2R20710   0.102   2.185  -0.538 -0.8966 -0.8441 -2.1358
  181POPC   H2S20711   0.127   2.244  -0.704 -1.0369  3.0119 -0.7550
  181POPC    C320712   0.524   2.102  -0.580 -0.1537 -0.2230  0.9703
  181POPC    HX20713   0.487   1.997  -0.575  1.2875 -0.7341  1.4122
  181POPC    HY20714   0.634   2.090  -0.570 -0.1422  0.6282  1.9766
  181POPC   O3120715   0.490   2.156  -0.712  0.2812 -0.2875  0.6179
  181POPC   C3120716   0.574   2.253  -0.756  0.0778  0.3322  0.8638
  181POPC   O3220717   0.668   2.293  -0.698 -0.1895  0.1382 -0.4228
  181POPC   C3220718   0.523   2.295  -0.897  0.4592 -0.2518 -0.5536
  181POPC   H2X20719   0.420   2.334  -0.886  0.3604 -0.6503  0.0218
  181POPC   H2Y20720   0.514   2.203  -0.958  0.4082  1.0042 -2.5258
  181POPC   C2320721   0.040   2.389  -0.554  0.5230 -0.4581  0.2362
  181POPC   H3R20722   0.094   2.481  -0.523  0.0233 -0.9302  2.7266
  181POPC   H3S20723  -0.019   2.356  -0.466 -1.3595  1.1809 -0.3413
  181POPC   C2420724  -0.050   2.445  -0.667 -0.0214  0.1024  0.4636
  181POPC   H4R20725  -0.088   2.363  -0.732  1.1129  0.7507 -1.0611
  181POPC   H4S20726   0.005   2.510  -0.738 -2.0460 -1.7960 -3.1347
  181POPC   C2520727  -0.157   2.530  -0.614  0.0766 -0.4180 -0.1741
  181POPC   H5R20728  -0.115   2.616  -0.557  1.1218 -1.6175  0.9276
  181POPC   H5S20729  -0.213   2.471  -0.539  0.2859 -2.7925 -1.8033
  181POPC   C2620730  -0.242   2.594  -0.724 -0.2196 -0.2550  0.0867
  181POPC   H6R20731  -0.287   2.502  -0.768  1.4147 -0.6909 -0.7313
  181POPC   H6S20732  -0.168   2.648  -0.786 -1.1354 -1.6652 -2.3625
  181POPC   C2720733  -0.353   2.696  -0.681  0.3023  0.9447 -1.1181
  181POPC   H7R20734  -0.301   2.789  -0.647  0.1597  1.7083 -2.8868
  181POPC   H7S20735  -0.393   2.653  -0.586  4.3624 -1.6523 -0.3360
  181POPC   C2820736  -0.461   2.717  -0.787 -0.6739 -0.0425  0.5851
  181POPC   H8R20737  -0.526   2.805  -0.764 -1.1419  0.0546 -0.9501
  181POPC   H8S20738  -0.530   2.631  -0.800  1.1711 -1.5930  0.7776
  181POPC   C2920739  -0.403   2.752  -0.924  0.6891  0.0481 -0.1639
  181POPC   H9120740  -0.340   2.842  -0.930 -0.8348  1.0662 -3.3253
  181POPC  C21020741  -0.417   2.683  -1.041 -0.5337  0.0580 -0.6746
  181POPC  H10120742  -0.376   2.721  -1.135  1.5175 -1.8728 -0.6378
  181POPC  C21120743  -0.506   2.566  -1.075 -0.3107 -0.1398 -0.0504
  181POPC  H11R20744  -0.579   2.541  -0.996  1.0674 -0.0310  1.3031
  181POPC  H11S20745  -0.440   2.476  -1.081  0.8365  0.6990 -0.3112
  181POPC  C21220746  -0.585   2.552  -1.202 -0.2141 -0.5008 -0.3390
  181POPC  H12R20747  -0.656   2.638  -1.198  1.4605  0.9305 -0.4435
  181POPC  H12S20748  -0.637   2.454  -1.211 -0.4056 -0.6067  1.5572
  181POPC  C21320749  -0.498   2.587  -1.326  0.6562  0.2594  0.1343
  181POPC  H13R20750  -0.405   2.528  -1.330  0.3987 -0.0656 -1.6463
  181POPC  H13S20751  -0.464   2.693  -1.326 -1.3013  0.9642 -1.7697
  181POPC  C21420752  -0.575   2.566  -1.456 -0.3450  0.0610 -0.2189
  181POPC  H14R20753  -0.657   2.640  -1.462  1.8037  2.6686  0.9077
  181POPC  H14S20754  -0.631   2.470  -1.451  1.5077 -1.0133  1.3870
  181POPC  C21520755  -0.480   2.576  -1.580 -0.3692  0.5482 -0.6786
  181POPC  H15R20756  -0.396   2.506  -1.560  2.3578  3.7183 -0.2343
  181POPC  H15S20757  -0.438   2.675  -1.605 -1.0391  0.9136 -0.3862
  181POPC  C21620758  -0.563   2.550  -1.713 -0.2745  0.8923 -0.6265
  181POPC  H16R20759  -0.637   2.633  -1.710  1.3322  2.4840 -2.0916
  181POPC  H16S20760  -0.615   2.453  -1.696  0.0660  0.7045 -0.6540
  181POPC  C21720761  -0.478   2.537  -1.837  0.8898  0.0408  0.1938
  181POPC  H17R20762  -0.556   2.518  -1.913 -0.4846 -1.6431  1.9407
  181POPC  H17S20763  -0.413   2.448  -1.844 -0.2658 -0.7376 -0.9659
  181POPC  C21820764  -0.402   2.666  -1.873 -0.4623 -0.0201  0.4082
  181POPC  H18R20765  -0.333   2.649  -1.959  2.0463 -1.8602  2.6483
  181POPC  H18S20766  -0.340   2.695  -1.786  2.9367 -1.0024 -1.4956
  181POPC  H18T20767  -0.460   2.758  -1.898  0.0432  0.0746 -0.4610
  181POPC   C3320768   0.611   2.389  -0.978 -0.0721 -0.6006  0.0499
  181POPC   H3X20769   0.717   2.354  -0.974  0.4131  0.8741  1.0199
  181POPC   H3Y20770   0.606   2.494  -0.941  0.0580 -0.7487  0.4960
  181POPC   C3420771   0.588   2.383  -1.130  0.1189  0.2815 -0.1269
  181POPC   H4X20772   0.556   2.286  -1.173  3.4277 -0.2434 -1.7354
  181POPC   H4Y20773   0.678   2.413  -1.188 -0.3768 -0.9374 -1.5869
  181POPC   C3520774   0.479   2.478  -1.172 -0.0010 -0.3574 -1.2848
  181POPC   H5X20775   0.500   2.586  -1.156 -0.5137 -0.2966 -1.0029
  181POPC   H5Y20776   0.394   2.473  -1.101  1.2148  2.3617  0.5503
  181POPC   C3620777   0.417   2.466  -1.305  0.3111  0.0392  0.8333
  181POPC   H6X20778   0.327   2.531  -1.299 -0.5456 -0.9370 -0.7256
  181POPC   H6Y20779   0.366   2.372  -1.337 -0.4135  0.7930 -0.3047
  181POPC   C3720780   0.488   2.523  -1.425 -0.3794  0.9403 -0.3724
  181POPC   H7X20781   0.580   2.464  -1.442  0.1099  1.6012 -0.0924
  181POPC   H7Y20782   0.529   2.624  -1.404 -0.7170  0.8907  0.5884
  181POPC   C3820783   0.405   2.534  -1.554 -0.3725 -0.5576 -0.1236
  181POPC   H8X20784   0.327   2.609  -1.530 -0.8064 -1.3053  0.8741
  181POPC   H8Y20785   0.356   2.434  -1.563 -0.1756 -0.5008 -2.3855
  181POPC   C3920786   0.484   2.558  -1.682 -0.3964 -0.2795  0.1439
  181POPC   H9X20787   0.566   2.484  -1.670 -1.0049 -1.8139 -3.5468
  181POPC   H9Y20788   0.529   2.659  -1.682  1.6938 -1.1487  1.8796
  181POPC  C31020789   0.424   2.517  -1.819  0.6395  0.4347  0.2642
  181POPC  H10X20790   0.325   2.564  -1.834 -1.0509 -1.7083  3.4843
  181POPC  H10Y20791   0.408   2.407  -1.823  1.8833  0.2797 -1.3891
  181POPC  C31120792   0.524   2.550  -1.929 -0.0955 -0.3667 -0.8091
  181POPC  H11X20793   0.606   2.477  -1.911 -0.8598 -0.6410  1.9308
  181POPC  H11Y20794   0.561   2.654  -1.921  1.6367 -1.0847  1.3097
  181POPC  C31220795   0.478   2.531  -2.070 -0.1643  0.0462 -0.4664
  181POPC  H12X20796   0.446   2.425  -2.082 -0.9497 -0.3659  3.7441
  181POPC  H12Y20797   0.570   2.551  -2.128  1.1151  2.6838  2.2165
  181POPC  C31320798   0.368   2.625  -2.113  0.2804 -0.5096  0.4091
  181POPC  H13X20799   0.401   2.730  -2.097 -1.1903  0.1018 -0.4454
  181POPC  H13Y20800   0.269   2.611  -2.064 -0.9884  3.4772 -0.6274
  181POPC  C31420801   0.350   2.605  -2.271 -0.2300 -0.6670  0.1739
  181POPC  H14X20802   0.280   2.519  -2.285  0.7493 -1.1072 -2.6055
  181POPC  H14Y20803   0.446   2.576  -2.318 -0.2339  0.8484 -0.8064
  181POPC  C31520804   0.286   2.725  -2.340  0.3528 -0.0111 -0.7336
  181POPC  H15X20805   0.232   2.685  -2.429  0.8076 -0.7825 -0.6706
  181POPC  H15Y20806   0.372   2.787  -2.375  2.1127 -1.7840  0.2179
  181POPC  C31620807   0.190   2.814  -2.258  0.1891 -0.2595 -0.0315
  181POPC  H16X20808   0.234   2.847  -2.161 -1.7572 -0.3594  0.9407
  181POPC  H16Y20809   0.103   2.752  -2.227 -0.8382 -1.1361 -4.0730
  181POPC  H16Z20810   0.171   2.905  -2.318 -0.2886  0.6102  1.3788
  182POPC     N20811   6.767   2.821   0.157  0.4515 -0.2501  0.0436
  182POPC   C1220812   6.740   2.975   0.126 -0.0526  0.3458 -0.1766
  182POPC  H12A20813   6.815   3.006   0.056  0.6870  0.3820  0.6171
  182POPC  H12B20814   6.750   3.034   0.216  0.9371  0.4497 -0.3466
  182POPC   C1320815   6.764   2.748   0.021  0.7187  0.1464 -0.2388
  182POPC  H13A20816   6.842   2.789  -0.041 -0.8466  2.1551 -0.9962
  182POPC  H13B20817   6.788   2.644   0.037  0.8571  0.2932  0.5598
  182POPC  H13C20818   6.663   2.761  -0.014  0.1243 -1.1792  0.8703
  182POPC   C1420819   6.896   2.798   0.213 -0.3259 -0.6413  0.3921
  182POPC  H14A20820   6.911   2.692   0.197 -0.4956 -0.1980 -3.8574
  182POPC  H14B20821   6.976   2.850   0.162  0.3799 -1.5044  0.6003
  182POPC  H14C20822   6.896   2.825   0.317  0.0342  5.0082 -0.7542
  182POPC   C1520823   6.662   2.751   0.241  0.1061 -0.3074 -0.3004
  182POPC  H15A20824   6.686   2.652   0.276  1.1904 -0.2703 -0.8817
  182POPC  H15B20825   6.571   2.750   0.183  0.5852  1.2470 -1.1518
  182POPC  H15C20826   6.645   2.817   0.325 -0.6622  0.9425 -1.4004
  182POPC   C1120827   6.609   3.016   0.062 -0.0586  0.3387  0.8739
  182POPC  H11A20828   6.603   2.973  -0.040 -1.4326  0.8674  0.7116
  182POPC  H11B20829   6.611   3.122   0.026 -0.0575 -0.5587 -2.0249
  182POPC     P20830   6.450   3.080   0.251 -0.5490  0.0148  0.6004
  182POPC   O1320831   6.565   3.114   0.340 -0.4168  0.4190  0.1493
  182POPC   O1420832   6.336   3.027   0.320  0.1180 -0.2112  0.4178
  182POPC   O1220833   6.491   2.986   0.140  0.1677 -0.1805 -0.4545
  182POPC   O1120834   6.404   3.215   0.179 -0.2011 -0.3969 -0.1276
  182POPC    C120835   6.290   3.215   0.094  0.2996 -0.0761  0.8452
  182POPC    HA20836   6.211   3.285   0.131 -0.4944  0.5422 -1.8270
  182POPC    HB20837   6.237   3.118   0.085  0.9375 -0.2995 -0.7050
  182POPC    C220838   6.312   3.255  -0.057  0.0881 -0.0751 -0.2344
  182POPC    HS20839   6.212   3.294  -0.087  0.2727  0.1956 -0.5071
  182POPC   O2120840   6.363   3.145  -0.136 -0.5438  0.0416 -0.0088
  182POPC   C2120841   6.314   3.146  -0.261 -0.4938 -0.6013  0.3031
  182POPC   O2220842   6.214   3.205  -0.299  0.4081 -0.0148  0.2274
  182POPC   C2220843   6.403   3.055  -0.347  0.2292 -0.0799  1.2913
  182POPC   H2R20844   6.367   2.950  -0.341 -0.7850 -0.0163 -1.7138
  182POPC   H2S20845   6.500   3.062  -0.293  1.1423  1.1964 -0.4011
  182POPC    C320846   6.404   3.373  -0.057 -0.1007 -0.3756  0.3257
  182POPC    HX20847   6.505   3.353  -0.016 -0.9038 -1.8811  1.6862
  182POPC    HY20848   6.351   3.453  -0.001 -2.0514 -1.9647  0.8864
  182POPC   O3120849   6.423   3.407  -0.199  0.3118 -0.6765 -0.4166
  182POPC   C3120850   6.462   3.536  -0.214  1.0360  0.7600  0.6334
  182POPC   O3220851   6.459   3.619  -0.125 -0.9824  0.2449 -0.1587
  182POPC   C3220852   6.530   3.557  -0.353 -0.0045  0.2928 -0.8702
  182POPC   H2X20853   6.579   3.463  -0.385  0.5170  0.3568 -0.2837
  182POPC   H2Y20854   6.604   3.639  -0.341 -1.8558  1.7275  1.9617
  182POPC   C2320855   6.423   3.096  -0.497  0.0968  0.2360  1.0874
  182POPC   H3R20856   6.505   3.033  -0.536  0.1186  0.4938  0.7016
  182POPC   H3S20857   6.462   3.198  -0.520 -1.7277  0.5276 -1.1771
  182POPC   C2420858   6.296   3.076  -0.585 -0.6080  0.5276  0.6290
  182POPC   H4R20859   6.221   3.154  -0.557 -0.2282  0.3192  2.2878
  182POPC   H4S20860   6.239   2.981  -0.573 -2.5888  1.4789 -0.5835
  182POPC   C2520861   6.320   3.105  -0.734  0.1792 -0.3974 -0.1828
  182POPC   H5R20862   6.397   3.039  -0.779  0.8329  0.3097 -0.1197
  182POPC   H5S20863   6.369   3.205  -0.735  0.8456 -0.7102  0.4428
  182POPC   C2620864   6.190   3.114  -0.814 -0.2572 -0.2425  0.0461
  182POPC   H6R20865   6.224   3.158  -0.909 -1.9278  0.5408 -0.2292
  182POPC   H6S20866   6.121   3.177  -0.754 -1.4081 -2.8632  1.6693
  182POPC   C2720867   6.130   2.980  -0.840  0.4626  0.4195  0.1999
  182POPC   H7R20868   6.108   2.929  -0.744 -0.3463  1.3954  0.5594
  182POPC   H7S20869   6.207   2.930  -0.903  0.9561  1.3460  0.0488
  182POPC   C2820870   6.003   2.983  -0.928  0.1189 -0.4682 -0.3068
  182POPC   H8R20871   6.044   3.036  -1.017  0.5930  1.8042  1.1549
  182POPC   H8S20872   5.930   3.044  -0.871 -0.2330 -0.7479 -0.4596
  182POPC   C2920873   5.933   2.858  -0.970  0.2470 -0.0614 -0.1728
  182POPC   H9120874   5.882   2.801  -0.890 -3.8210  0.6306 -2.0349
  182POPC  C21020875   5.918   2.810  -1.095 -0.3663 -0.2868 -0.5787
  182POPC  H10120876   5.853   2.721  -1.102  1.2054 -1.4793 -0.6230
  182POPC  C21120877   5.958   2.875  -1.225 -0.3312 -1.0272  0.3861
  182POPC  H11R20878   6.062   2.860  -1.261 -0.6989  1.9450 -2.3694
  182POPC  H11S20879   5.959   2.986  -1.223 -2.2558 -0.9591 -0.0124
  182POPC  C21220880   5.874   2.842  -1.342 -0.2059  0.8569  1.0800
  182POPC  H12R20881   5.766   2.860  -1.320 -0.3713  1.1822  0.0671
  182POPC  H12S20882   5.891   2.734  -1.361  0.5152  1.2588 -0.6952
  182POPC  C21320883   5.902   2.920  -1.469 -0.7307 -0.2149  0.2730
  182POPC  H13R20884   6.012   2.911  -1.483 -0.5568  1.3405  0.3513
  182POPC  H13S20885   5.882   3.029  -1.462 -1.8367 -0.3933 -0.0041
  182POPC  C21420886   5.832   2.854  -1.581 -0.4575  0.7965 -0.5989
  182POPC  H14R20887   5.723   2.862  -1.557  0.1343  2.3654  2.0257
  182POPC  H14S20888   5.865   2.749  -1.598 -0.2254  0.5667  1.1212
  182POPC  C21520889   5.853   2.930  -1.708  0.2790 -0.1687  0.6098
  182POPC  H15R20890   5.861   3.040  -1.692 -1.6091  0.4299 -1.9120
  182POPC  H15S20891   5.757   2.913  -1.761 -0.4325 -1.0898  2.1023
  182POPC  C21620892   5.972   2.886  -1.797 -0.2034  0.3081  0.0991
  182POPC  H16R20893   5.960   2.776  -1.798 -1.2413  0.3877  1.1385
  182POPC  H16S20894   6.065   2.904  -1.738 -0.7748 -0.2829  1.2119
  182POPC  C21720895   5.982   2.949  -1.932  0.4367 -0.6466 -0.8783
  182POPC  H17R20896   5.967   3.059  -1.930 -0.3888 -0.7384 -1.2625
  182POPC  H17S20897   5.903   2.921  -2.006  0.6812  0.6530 -1.6637
  182POPC  C21820898   6.113   2.908  -2.001  0.0997 -0.0865  0.2521
  182POPC  H18R20899   6.114   2.958  -2.100 -2.7583  1.1542  0.7691
  182POPC  H18S20900   6.128   2.798  -2.007  0.9073 -0.0634  1.4614
  182POPC  H18T20901   6.200   2.937  -1.938 -0.3965 -0.7091  1.2546
  182POPC   C3320902   6.443   3.620  -0.464  0.7269  0.2583 -0.2910
  182POPC   H3X20903   6.494   3.642  -0.560  2.7847 -1.7210  0.2426
  182POPC   H3Y20904   6.389   3.713  -0.436  1.1749  0.7243 -0.9414
  182POPC   C3420905   6.339   3.513  -0.498  1.2163 -0.0126  0.0512
  182POPC   H4X20906   6.280   3.471  -0.414  0.9052  2.4849  1.1694
  182POPC   H4Y20907   6.403   3.436  -0.545  2.3101  1.4774 -1.0149
  182POPC   C3520908   6.230   3.562  -0.594  0.5640 -0.5338  0.6128
  182POPC   H5X20909   6.275   3.590  -0.692 -1.2678 -1.3626 -0.5219
  182POPC   H5Y20910   6.172   3.648  -0.554  1.6320 -0.0696  1.2213
  182POPC   C3620911   6.131   3.449  -0.625  0.1805 -0.2475  0.4134
  182POPC   H6X20912   6.097   3.409  -0.527 -3.0286  1.5114  0.1747
  182POPC   H6Y20913   6.183   3.365  -0.676 -2.0029 -2.2211  1.2505
  182POPC   C3720914   6.003   3.486  -0.700  0.3155  0.4166 -0.2585
  182POPC   H7X20915   5.946   3.558  -0.638 -1.7139 -1.3421  0.0211
  182POPC   H7Y20916   5.940   3.395  -0.708  0.4772  0.2147  0.6103
  182POPC   C3820917   6.027   3.542  -0.841  0.2740  0.3654  0.1892
  182POPC   H8X20918   6.085   3.636  -0.853 -1.2446  1.2912 -0.2093
  182POPC   H8Y20919   5.930   3.579  -0.880  0.3374  1.2239  0.8129
  182POPC   C3920920   6.076   3.433  -0.942  0.1418 -0.5730 -0.5991
  182POPC   H9X20921   6.009   3.345  -0.938  1.5148 -1.6208 -0.1444
  182POPC   H9Y20922   6.181   3.405  -0.917  0.9702  0.4624 -2.7039
  182POPC  C31020923   6.084   3.503  -1.079  0.0848  0.7866  0.4866
  182POPC  H10X20924   6.156   3.588  -1.070 -0.5109  1.7971 -3.0404
  182POPC  H10Y20925   5.981   3.534  -1.106 -0.4408 -0.3892  1.0676
  182POPC  C31120926   6.114   3.393  -1.182  0.1618  0.5004  0.3694
  182POPC  H11X20927   6.035   3.315  -1.186 -0.4859  1.1901 -0.6210
  182POPC  H11Y20928   6.206   3.337  -1.154 -2.2246 -4.6096 -0.8500
  182POPC  C31220929   6.120   3.445  -1.322 -0.3658 -0.5051  0.7300
  182POPC  H12X20930   6.200   3.522  -1.328 -1.5826  0.7846  0.7215
  182POPC  H12Y20931   6.026   3.498  -1.345 -1.0493 -1.6714  0.7324
  182POPC  C31320932   6.136   3.330  -1.418  1.0458 -0.3867 -0.4368
  182POPC  H13X20933   6.045   3.267  -1.407  0.4789  0.4302 -0.2934
  182POPC  H13Y20934   6.223   3.263  -1.400  1.2652 -0.2046 -0.8056
  182POPC  C31420935   6.131   3.378  -1.566 -0.1356  0.1854  0.1432
  182POPC  H14X20936   6.221   3.440  -1.587  0.0151 -0.6822 -2.1333
  182POPC  H14Y20937   6.042   3.443  -1.577 -2.5209 -2.0545  3.9306
  182POPC  C31520938   6.122   3.269  -1.669  0.5396  0.0825  0.9429
  182POPC  H15X20939   6.027   3.214  -1.650 -0.4594  0.0663 -3.0976
  182POPC  H15Y20940   6.207   3.200  -1.656  1.8469  1.6697  1.1424
  182POPC  C31620941   6.112   3.322  -1.819 -0.1562 -0.1735 -0.0838
  182POPC  H16X20942   6.210   3.366  -1.847  1.2190 -1.4355  2.4496
  182POPC  H16Y20943   6.020   3.379  -1.845  0.2808  0.0505 -1.1859
  182POPC  H16Z20944   6.112   3.230  -1.883 -0.0885 -0.9470  1.0098
  183POPC     N20945   0.161   0.103   8.604  0.0450  0.1508  0.0190
  183POPC   C1220946   0.182  -0.002   8.498  0.1287 -0.3349  0.2669
  183POPC  H12A20947   0.098  -0.067   8.477 -0.7930  0.5584  1.0766
  183POPC  H12B20948   0.257  -0.067   8.540  2.1644  1.9149  0.3060
  183POPC   C1320949   0.286   0.148   8.657 -0.2550 -0.1610 -0.4439
  183POPC  H13A20950   0.347   0.201   8.586 -1.1148 -0.5719 -1.5081
  183POPC  H13B20951   0.275   0.214   8.742  0.6817 -1.5918  0.8494
  183POPC  H13C20952   0.349   0.069   8.696  1.6458  1.0905 -0.8157
  183POPC   C1420953   0.079   0.219   8.553  0.5641 -0.6211  0.2196
  183POPC  H14A20954  -0.017   0.196   8.509 -0.7122  2.3049  1.2085
  183POPC  H14B20955   0.064   0.296   8.627 -1.9522  0.3729 -1.2122
  183POPC  H14C20956   0.132   0.269   8.473  1.1738 -1.9010 -0.2189
  183POPC   C1520957   0.072   0.044   8.712 -0.3487 -0.4648 -0.7353
  183POPC  H15A20958  -0.021   0.009   8.668 -1.3037  0.7567  0.2369
  183POPC  H15B20959   0.045   0.119   8.785 -0.4656 -0.1814 -1.0657
  183POPC  H15C20960   0.122  -0.035   8.766  3.4159  1.1782 -1.5043
  183POPC   C1120961   0.230   0.050   8.358  0.0227  0.1884  0.3290
  183POPC  H11A20962   0.153   0.108   8.304 -1.4933 -2.1269 -0.1271
  183POPC  H11B20963   0.242  -0.047   8.303 -1.9761 -0.6873  1.3557
  183POPC     P20964   0.493   0.037   8.345 -0.5012  0.1320 -0.2369
  183POPC   O1320965   0.476  -0.097   8.389 -0.2315 -0.3598 -0.5563
  183POPC   O1420966   0.595   0.123   8.414  0.3245 -0.0166  0.2693
  183POPC   O1220967   0.354   0.117   8.363 -0.2819  0.3547 -0.1219
  183POPC   O1120968   0.523   0.044   8.190 -0.1552  0.1328 -0.5881
  183POPC    C120969   0.431   0.082   8.091  0.4399  0.4459  0.5239
  183POPC    HA20970   0.355   0.148   8.138  1.1019  0.3911  1.7318
  183POPC    HB20971   0.380  -0.011   8.059  2.3993 -0.3987 -0.3405
  183POPC    C220972   0.503   0.138   7.966 -0.4181  0.5933  0.1570
  183POPC    HS20973   0.436   0.169   7.883  0.3546  2.2049  0.0946
  183POPC   O2120974   0.601   0.043   7.913 -0.2581  0.3787 -0.3126
  183POPC   C2120975   0.552  -0.067   7.851  0.3992  0.1800 -0.1739
  183POPC   O2220976   0.435  -0.093   7.828  0.2367 -0.1559  0.1561
  183POPC   C2220977   0.674  -0.158   7.824  0.0230 -0.2782  0.0746
  183POPC   H2R20978   0.660  -0.243   7.894  0.2867 -1.4200 -1.2204
  183POPC   H2S20979   0.770  -0.106   7.842 -0.3465  0.2333  0.6183
  183POPC    C320980   0.578   0.274   7.994  0.8284 -0.0779 -0.6556
  183POPC    HX20981   0.662   0.256   8.065 -0.1440  0.4845  0.6933
  183POPC    HY20982   0.490   0.325   8.039 -0.4375 -2.9129  0.3809
  183POPC   O3120983   0.626   0.325   7.868  0.1210 -0.4463  0.6013
  183POPC   C3120984   0.716   0.423   7.878  0.4005 -0.7046  0.4450
  183POPC   O3220985   0.752   0.474   7.985  0.4145  0.0533  0.2904
  183POPC   C3220986   0.766   0.471   7.747 -0.2066  0.1538  0.3344
  183POPC   H2X20987   0.789   0.579   7.750  2.7949 -0.3688 -0.1312
  183POPC   H2Y20988   0.696   0.437   7.668  0.0363  0.6475 -0.0977
  183POPC   C2320989   0.678  -0.228   7.687 -0.7697  0.6446  0.2863
  183POPC   H3R20990   0.585  -0.278   7.653 -0.6579 -0.3153  1.3222
  183POPC   H3S20991   0.761  -0.302   7.698  0.0535  1.7674  2.3326
  183POPC   C2420992   0.735  -0.141   7.572  0.3703 -0.9451  0.2050
  183POPC   H4R20993   0.762  -0.205   7.486  0.9998  0.4584 -0.6940
  183POPC   H4S20994   0.828  -0.088   7.604 -0.6201  0.2778  1.1431
  183POPC   C2520995   0.625  -0.048   7.526  0.4075 -0.1543  0.0131
  183POPC   H5R20996   0.594   0.013   7.613  0.4030 -3.2686  2.3509
  183POPC   H5S20997   0.540  -0.113   7.497  1.4788 -1.2557 -0.7832
  183POPC   C2620998   0.682   0.044   7.419 -0.1337 -0.1894 -0.1482
  183POPC   H6R20999   0.720  -0.012   7.332 -0.7853  1.0607 -1.2824
  183POPC   H6S21000   0.766   0.105   7.460 -1.3881 -0.4555  3.1487
  183POPC   C2721001   0.566   0.133   7.371  0.0441 -0.8015 -0.0481
  183POPC   H7R21002   0.521   0.170   7.465  2.3296  1.9792  0.0958
  183POPC   H7S21003   0.488   0.077   7.315 -0.4662 -1.4322  1.2735
  183POPC   C2821004   0.610   0.260   7.291 -0.4682  0.4654 -0.4799
  183POPC   H8R21005   0.515   0.302   7.251 -2.8231 -3.1321  0.8353
  183POPC   H8S21006   0.658   0.222   7.198  0.0600  1.1854 -0.5040
  183POPC   C2921007   0.694   0.348   7.371  0.0150 -0.7600  0.2200
  183POPC   H9121008   0.661   0.353   7.476  0.0234 -1.3693  0.2593
  183POPC  C21021009   0.794   0.425   7.325  0.3061  0.1628 -0.0744
  183POPC  H10121010   0.853   0.484   7.396  1.0535 -0.3228 -0.2736
  183POPC  C21121011   0.854   0.419   7.179 -0.2559  0.3791 -0.3545
  183POPC  H11R21012   0.870   0.321   7.129 -1.7738  0.5556 -1.2823
  183POPC  H11S21013   0.951   0.472   7.192 -0.4204  0.4418  0.7097
  183POPC  C21221014   0.785   0.509   7.072 -0.6140  0.1046 -0.0590
  183POPC  H12R21015   0.759   0.602   7.126 -2.0472 -0.3041  0.0065
  183POPC  H12S21016   0.696   0.457   7.030  0.5631 -2.0598 -0.0375
  183POPC  C21321017   0.881   0.526   6.954  0.6518 -0.4953 -0.1409
  183POPC  H13R21018   0.907   0.431   6.904  0.6207 -1.7442  2.1087
  183POPC  H13S21019   0.977   0.558   6.999  0.1544  0.2091  0.4513
  183POPC  C21421020   0.837   0.623   6.845 -0.3144 -0.1756 -0.3835
  183POPC  H14R21021   0.818   0.722   6.890 -0.8376 -0.7091  0.5931
  183POPC  H14S21022   0.743   0.593   6.793 -0.4703  0.0028 -0.2050
  183POPC  C21521023   0.947   0.646   6.740  0.0056  0.0291  0.1693
  183POPC  H15R21024   1.007   0.553   6.732  2.1599  1.4552 -0.9744
  183POPC  H15S21025   1.023   0.721   6.768  2.0809 -1.4734 -1.1633
  183POPC  C21621026   0.902   0.682   6.593  0.6300  0.0817 -0.4298
  183POPC  H16R21027   0.999   0.699   6.542  0.8033  1.0977  0.2069
  183POPC  H16S21028   0.840   0.775   6.591  0.5933  0.0898  0.4977
  183POPC  C21721029   0.823   0.567   6.525 -1.1456 -0.5809  0.1659
  183POPC  H17R21030   0.726   0.566   6.579 -1.7539 -0.9222 -0.9038
  183POPC  H17S21031   0.873   0.468   6.537  1.0458  0.2552 -1.3554
  183POPC  C21821032   0.831   0.600   6.379  0.0909 -0.2296  0.8034
  183POPC  H18R21033   0.935   0.583   6.344 -0.1636 -1.1199  0.4567
  183POPC  H18S21034   0.812   0.708   6.362 -0.4373  0.0192  2.7369
  183POPC  H18T21035   0.757   0.548   6.315 -1.0344  0.7748  1.2530
  183POPC   C3321036   0.903   0.415   7.718 -0.0972  0.0087 -0.0534
  183POPC   H3X21037   0.981   0.433   7.795 -1.2824 -0.4046  1.2897
  183POPC   H3Y21038   0.942   0.460   7.624 -0.8508 -0.3053 -0.5228
  183POPC   C3421039   0.899   0.266   7.677 -0.9325  0.1523 -0.6570
  183POPC   H4X21040   0.828   0.257   7.592 -0.2401  0.9289 -1.3324
  183POPC   H4Y21041   0.870   0.209   7.768  1.5390 -0.2606 -0.0431
  183POPC   C3521042   1.030   0.203   7.625 -0.7062 -0.0834  0.3585
  183POPC   H5X21043   1.027   0.092   7.621  1.3668 -0.1735  0.5264
  183POPC   H5Y21044   1.123   0.220   7.682  0.4386 -0.9866 -1.1470
  183POPC   C3621045   1.070   0.273   7.493 -0.5369 -0.5517  0.1474
  183POPC   H6X21046   1.091   0.378   7.523 -1.0081 -1.1631  2.9212
  183POPC   H6Y21047   0.992   0.264   7.414 -0.8147 -1.1197  0.4836
  183POPC   C3721048   1.205   0.216   7.457  0.6657  0.5896 -0.0564
  183POPC   H7X21049   1.194   0.109   7.431  0.4648  0.7894 -0.8107
  183POPC   H7Y21050   1.280   0.242   7.536 -0.4384  2.3335  0.4651
  183POPC   C3821051   1.268   0.286   7.335  0.0545  0.4878 -0.8233
  183POPC   H8X21052   1.377   0.267   7.341 -0.0737 -0.3840 -1.1895
  183POPC   H8Y21053   1.265   0.397   7.345 -0.5962  0.3905  0.3406
  183POPC   C3921054   1.211   0.221   7.212  0.3138  0.1493  0.2953
  183POPC   H9X21055   1.105   0.254   7.208 -0.0503 -0.8281  1.3537
  183POPC   H9Y21056   1.213   0.110   7.206 -2.2680  0.0634 -0.1246
  183POPC  C31021057   1.288   0.267   7.081 -0.1829  0.1505 -0.0930
  183POPC  H10X21058   1.236   0.206   7.004 -1.4614 -1.0301  1.6167
  183POPC  H10Y21059   1.395   0.247   7.101 -0.3541  0.0591  0.7601
  183POPC  C31121060   1.276   0.410   7.038 -0.1759  0.0688  0.3548
  183POPC  H11X21061   1.294   0.480   7.123 -0.3389  1.4966 -0.7608
  183POPC  H11Y21062   1.181   0.442   6.990 -0.3225 -0.6170  0.1768
  183POPC  C31221063   1.390   0.445   6.941 -0.3747 -0.8094  0.2239
  183POPC  H12X21064   1.373   0.382   6.851  2.1855  0.6608 -1.4404
  183POPC  H12Y21065   1.493   0.420   6.976 -0.2437 -1.7338 -0.7522
  183POPC  C31321066   1.395   0.589   6.902 -0.3514  0.4519 -0.3185
  183POPC  H13X21067   1.403   0.652   6.993  2.9479 -0.3167  0.0559
  183POPC  H13Y21068   1.302   0.612   6.846  0.1530  2.3080 -0.4612
  183POPC  C31421069   1.519   0.628   6.821  0.3502 -0.0347  1.0439
  183POPC  H14X21070   1.615   0.603   6.869  1.6306  1.6115 -0.4952
  183POPC  H14Y21071   1.516   0.739   6.818  0.3995 -0.0253 -1.6174
  183POPC  C31521072   1.511   0.562   6.681  0.0517 -0.5417 -0.2882
  183POPC  H15X21073   1.416   0.595   6.632 -0.2740 -1.2821 -0.1618
  183POPC  H15Y21074   1.492   0.453   6.691 -1.2182 -0.2319  1.1021
  183POPC  C31621075   1.636   0.580   6.596  0.6204  0.7195 -0.3259
  183POPC  H16X21076   1.659   0.688   6.601 -2.0890  1.3703 -0.1630
  183POPC  H16Y21077   1.616   0.564   6.488  1.0933  1.6912 -0.5620
  183POPC  H16Z21078   1.717   0.514   6.633  0.0161  0.2930  0.2738
  184POPC     N21079   0.902   5.764   8.586  0.0058 -0.0841 -0.2942
  184POPC   C1221080   0.947   5.782   8.436  0.2738  0.7828  0.1083
  184POPC  H12A21081   1.036   5.721   8.429  0.4154  1.1843 -2.3248
  184POPC  H12B21082   0.964   5.888   8.428 -0.9539  1.2351  2.4987
  184POPC   C1321083   1.007   5.816   8.677 -0.3235  1.0788  0.6942
  184POPC  H13A21084   0.977   5.819   8.781  0.2155  0.2547  0.8883
  184POPC  H13B21085   1.091   5.749   8.668 -0.2647  1.3091 -0.7835
  184POPC  H13C21086   1.042   5.916   8.658  2.9709  0.4020  2.4607
  184POPC   C1421087   0.776   5.844   8.616 -0.4375  0.2013 -1.0627
  184POPC  H14A21088   0.773   5.855   8.723 -0.4330 -0.8631 -0.9389
  184POPC  H14B21089   0.781   5.943   8.573  0.5511 -0.4097 -2.4235
  184POPC  H14C21090   0.691   5.787   8.580 -1.7565  0.4914  1.3654
  184POPC   C1521091   0.876   5.613   8.608  0.1235 -0.1303  0.4484
  184POPC  H15A21092   0.966   5.556   8.594 -0.4058 -0.5638 -1.4222
  184POPC  H15B21093   0.792   5.578   8.550 -0.8376 -0.3438  1.9040
  184POPC  H15C21094   0.852   5.597   8.712  0.8299  1.0528  0.8042
  184POPC   C1121095   0.850   5.727   8.323 -0.7720  0.2945 -0.6916
  184POPC  H11A21096   0.841   5.617   8.335 -1.9221  0.5084  0.5601
  184POPC  H11B21097   0.894   5.737   8.221 -2.5499  1.3955 -1.4117
  184POPC     P21098   0.730   5.966   8.288 -0.3218  0.0850  0.3722
  184POPC   O1321099   0.870   6.010   8.284  0.6213 -0.5969 -0.0039
  184POPC   O1421100   0.641   6.040   8.374 -0.0098 -0.0593 -0.6973
  184POPC   O1221101   0.728   5.808   8.329 -0.2082 -0.3891  0.2535
  184POPC   O1121102   0.677   5.954   8.139  0.0476 -0.2114 -0.3796
  184POPC    C121103   0.716   6.022   8.020 -0.2733  0.0692  0.3287
  184POPC    HA21104   0.777   6.112   8.046 -0.2047 -0.6377  2.8663
  184POPC    HB21105   0.627   6.046   7.958 -1.0578 -2.0381  0.5777
  184POPC    C221106   0.813   5.942   7.918  0.5738 -0.0678 -0.2105
  184POPC    HS21107   0.919   5.939   7.952 -0.0413 -0.2903  1.8310
  184POPC   O2121108   0.811   6.008   7.790 -0.1213 -0.1899 -0.1936
  184POPC   C2121109   0.891   6.123   7.782  0.3662 -0.0662  0.2618
  184POPC   O2221110   0.946   6.174   7.874  0.0253  0.1648  0.2614
  184POPC   C2221111   0.928   6.167   7.643 -0.6419  0.8577 -0.4643
  184POPC   H2R21112   0.904   6.275   7.639  0.9718  1.3222  0.9869
  184POPC   H2S21113   0.873   6.110   7.565 -0.4285 -3.1951  2.0477
  184POPC    C321114   0.743   5.806   7.905 -0.3345  0.4319  0.0368
  184POPC    HX21115   0.632   5.815   7.916 -0.3179  0.8818 -0.1452
  184POPC    HY21116   0.794   5.761   7.992  1.5231 -0.8906 -1.6257
  184POPC   O3121117   0.791   5.725   7.796  0.5559  0.2642 -0.2336
  184POPC   C3121118   0.712   5.704   7.693  0.3867  0.5271  0.3010
  184POPC   O3221119   0.598   5.746   7.684  1.2151  0.3821  0.3489
  184POPC   C3221120   0.780   5.618   7.590  0.4339  0.3698  0.7281
  184POPC   H2X21121   0.720   5.525   7.586  2.5422 -1.0108 -1.0514
  184POPC   H2Y21122   0.881   5.597   7.630  0.2904  1.2462  1.5684
  184POPC   C2321123   1.077   6.147   7.612  0.1165 -0.3736 -0.0532
  184POPC   H3R21124   1.102   6.040   7.626 -1.6055 -0.7003  0.8622
  184POPC   H3S21125   1.144   6.186   7.693  2.0803 -2.1662 -0.7242
  184POPC   C2421126   1.112   6.213   7.480  0.2567 -0.2966  0.5035
  184POPC   H4R21127   1.122   6.322   7.498 -1.8152 -0.1970  1.3378
  184POPC   H4S21128   1.030   6.198   7.406 -1.2970 -1.4822  2.3509
  184POPC   C2521129   1.250   6.175   7.431  0.5083  0.1206 -0.3869
  184POPC   H5R21130   1.237   6.065   7.421 -1.3006  0.0403  1.8451
  184POPC   H5S21131   1.332   6.203   7.500  3.0474 -2.8772 -1.9281
  184POPC   C2621132   1.294   6.247   7.304 -0.2312  0.2586  0.6551
  184POPC   H6R21133   1.296   6.358   7.314  0.5118  0.2408  0.8056
  184POPC   H6S21134   1.218   6.219   7.229  1.1678  2.4479 -1.7758
  184POPC   C2721135   1.434   6.194   7.259  0.1368 -0.2047  0.8235
  184POPC   H7R21136   1.456   6.089   7.287  0.4041  0.1532  1.9825
  184POPC   H7S21137   1.507   6.268   7.298 -2.9854  3.1930  0.7343
  184POPC   C2821138   1.441   6.188   7.103 -0.5068  0.2270  0.1141
  184POPC   H8R21139   1.359   6.126   7.063 -0.0473 -1.0932  1.1161
  184POPC   H8S21140   1.536   6.132   7.084 -1.1784 -0.8879 -0.0452
  184POPC   C2921141   1.445   6.317   7.034 -0.0215 -0.1695 -0.8721
  184POPC   H9121142   1.514   6.386   7.085 -1.3556  1.3217 -1.0225
  184POPC  C21021143   1.371   6.361   6.925  0.0660  0.4666  0.5986
  184POPC  H10121144   1.383   6.464   6.886 -1.2765  1.0005  1.5396
  184POPC  C21121145   1.270   6.278   6.858 -0.3844  0.1767 -0.0645
  184POPC  H11R21146   1.165   6.310   6.874 -0.3550  0.6358 -0.8045
  184POPC  H11S21147   1.280   6.173   6.894  1.8081  0.7993  1.3437
  184POPC  C21221148   1.269   6.259   6.702  0.9454 -0.3517  0.3276
  184POPC  H12R21149   1.240   6.355   6.654  0.8976  1.2431  3.3191
  184POPC  H12S21150   1.191   6.182   6.685  2.0556 -1.5157  0.3050
  184POPC  C21321151   1.399   6.204   6.632  0.2236 -0.5590 -0.5354
  184POPC  H13R21152   1.482   6.265   6.675 -1.0169  1.5630 -1.0256
  184POPC  H13S21153   1.403   6.226   6.523  2.4294 -1.1038 -0.6216
  184POPC  C21421154   1.419   6.055   6.653  0.0475 -0.1431 -0.7471
  184POPC  H14R21155   1.328   5.997   6.626 -0.6094  0.1170  0.8036
  184POPC  H14S21156   1.422   6.039   6.763 -0.8366 -3.4716 -1.0797
  184POPC  C21521157   1.537   5.995   6.575 -0.1807  0.0169 -0.0735
  184POPC  H15R21158   1.560   5.892   6.610 -1.6624 -0.6931 -1.0330
  184POPC  H15S21159   1.619   6.067   6.596 -1.5675  1.7088 -0.2221
  184POPC  C21621160   1.519   5.989   6.431  0.1860  0.1534 -0.0861
  184POPC  H16R21161   1.501   6.085   6.378 -1.5689 -1.0745 -1.8789
  184POPC  H16S21162   1.428   5.927   6.415  0.1500 -0.1658  1.2546
  184POPC  C21721163   1.631   5.912   6.352 -0.7163 -0.0015 -0.1622
  184POPC  H17R21164   1.636   5.809   6.393  1.3110  1.2476  3.1215
  184POPC  H17S21165   1.730   5.961   6.361 -0.7052 -0.2177  1.0407
  184POPC  C21821166   1.601   5.899   6.200  0.3847 -0.1407  0.3689
  184POPC  H18R21167   1.694   5.864   6.149 -1.7757 -1.0282 -3.3077
  184POPC  H18S21168   1.577   6.001   6.163  1.0203  0.0412  0.4293
  184POPC  H18T21169   1.509   5.841   6.180 -0.7623  1.6005  0.3779
  184POPC   C3321170   0.765   5.697   7.460  0.0902 -1.1834  0.9725
  184POPC   H3X21171   0.657   5.716   7.438 -0.2144 -1.8912  1.7996
  184POPC   H3Y21172   0.801   5.639   7.372  0.2879 -0.5461  0.6298
  184POPC   C3421173   0.831   5.842   7.465  0.0146  0.1864 -0.6428
  184POPC   H4X21174   0.939   5.831   7.491  0.3050  0.4280 -1.7216
  184POPC   H4Y21175   0.793   5.904   7.549  1.5092 -0.0436  0.2316
  184POPC   C3521176   0.804   5.919   7.340 -0.6368 -0.3151  0.2935
  184POPC   H5X21177   0.862   6.014   7.338 -1.2046  0.1169 -3.2871
  184POPC   H5Y21178   0.700   5.959   7.331 -0.2304  0.8363  0.4652
  184POPC   C3621179   0.847   5.845   7.210 -0.4496  0.1484 -0.4221
  184POPC   H6X21180   0.771   5.768   7.186 -1.5599  1.7620 -2.5169
  184POPC   H6Y21181   0.939   5.783   7.215  0.7951  2.0009  3.6015
  184POPC   C3721182   0.850   5.945   7.088 -0.8241 -0.2198  0.0535
  184POPC   H7X21183   0.930   6.021   7.096 -1.4909  0.4613  0.3629
  184POPC   H7Y21184   0.753   5.998   7.099 -0.7026 -0.0697  0.4053
  184POPC   C3821185   0.844   5.879   6.951 -0.4655  0.0203  0.1693
  184POPC   H8X21186   0.753   5.815   6.942 -0.3991  0.0229 -0.6821
  184POPC   H8Y21187   0.934   5.819   6.923 -0.2762  0.0132  0.7835
  184POPC   C3921188   0.833   5.983   6.835  0.2799  0.1942 -0.3760
  184POPC   H9X21189   0.933   6.027   6.813  0.7670 -1.0551 -0.7511
  184POPC   H9Y21190   0.764   6.063   6.868  1.5219  0.5090  1.6410
  184POPC  C31021191   0.782   5.931   6.701  0.8104  0.1590 -0.5266
  184POPC  H10X21192   0.775   6.020   6.636 -2.0889  2.7012  2.8501
  184POPC  H10Y21193   0.680   5.892   6.721  1.1527 -0.4292  0.1132
  184POPC  C31121194   0.864   5.819   6.638  0.1933 -0.2275 -0.0260
  184POPC  H11X21195   0.856   5.730   6.704 -0.1851 -0.0265  0.2063
  184POPC  H11Y21196   0.968   5.854   6.652  0.2011 -0.3367  0.1933
  184POPC  C31221197   0.824   5.798   6.495 -0.1874 -1.2953  0.1623
  184POPC  H12X21198   0.717   5.768   6.493  0.3567 -3.4976  0.8396
  184POPC  H12Y21199   0.872   5.703   6.464 -1.0481 -2.0285  1.0074
  184POPC  C31321200   0.855   5.918   6.406  0.2897 -0.0746  1.0721
  184POPC  H13X21201   0.783   6.001   6.422  0.5675  0.1069  1.3865
  184POPC  H13Y21202   0.836   5.889   6.300  3.8676 -0.6184  0.4446
  184POPC  C31421203   0.990   5.978   6.413  0.1752 -1.0405  0.2591
  184POPC  H14X21204   1.075   5.909   6.391  1.9943  1.6111 -1.6178
  184POPC  H14Y21205   1.012   6.017   6.514  0.5665 -0.0698 -0.1919
  184POPC  C31521206   1.002   6.106   6.323  0.4578  0.2081  0.3795
  184POPC  H15X21207   0.931   6.178   6.370 -0.5203 -0.4083 -0.1168
  184POPC  H15Y21208   0.968   6.090   6.219 -1.0254  1.3791  0.6558
  184POPC  C31621209   1.140   6.177   6.316 -0.3661  0.5412  0.0466
  184POPC  H16X21210   1.175   6.194   6.420  0.5428  0.0651 -0.1673
  184POPC  H16Y21211   1.131   6.274   6.262  2.2004  1.3491  0.9409
  184POPC  H16Z21212   1.217   6.112   6.269 -0.7450  0.0713  0.0702
  185POPC     N21213   3.732   6.371   3.720  0.2946  0.3659  0.4225
  185POPC   C1221214   3.752   6.299   3.851 -0.1635 -0.1602 -0.6707
  185POPC  H12A21215   3.824   6.220   3.836 -0.0916 -0.0722 -0.7904
  185POPC  H12B21216   3.655   6.266   3.884 -0.3233  1.3372  0.4598
  185POPC   C1321217   3.633   6.486   3.725 -0.5930  0.3367 -1.1524
  185POPC  H13A21218   3.649   6.528   3.627  0.6994 -0.5221 -1.3349
  185POPC  H13B21219   3.535   6.444   3.740 -0.2806  0.4500  1.7130
  185POPC  H13C21220   3.661   6.551   3.806 -0.6657 -1.5583  0.4624
  185POPC   C1421221   3.861   6.421   3.667 -0.3091 -0.3998 -0.5570
  185POPC  H14A21222   3.853   6.480   3.577  0.1004  0.7888  0.1547
  185POPC  H14B21223   3.898   6.498   3.733 -2.4831  1.8654 -1.8413
  185POPC  H14C21224   3.934   6.341   3.661 -0.5334 -0.7252  0.7013
  185POPC   C1521225   3.677   6.280   3.618 -0.3572 -0.1337 -0.4847
  185POPC  H15A21226   3.584   6.230   3.641 -0.1258  0.6557  2.5708
  185POPC  H15B21227   3.735   6.191   3.600 -0.7614 -0.7124  0.9346
  185POPC  H15C21228   3.664   6.326   3.521 -0.5440  0.1830 -0.3119
  185POPC   C1121229   3.812   6.383   3.972  0.1177 -0.0101 -0.3175
  185POPC  H11A21230   3.787   6.325   4.064 -0.1735 -0.4211 -0.6508
  185POPC  H11B21231   3.757   6.479   3.979  0.7870  0.3007  1.0508
  185POPC     P21232   4.058   6.291   3.990 -0.0633 -0.4265  0.3701
  185POPC   O1321233   4.164   6.292   3.888  0.3327  0.3915 -0.1303
  185POPC   O1421234   3.990   6.165   3.998 -0.2612  0.6356  0.3111
  185POPC   O1221235   3.952   6.403   3.954  0.0962  1.2746 -0.4287
  185POPC   O1121236   4.116   6.335   4.132 -0.3446 -0.1385 -0.2038
  185POPC    C121237   4.161   6.472   4.149  0.3582  0.2510 -0.3545
  185POPC    HA21238   4.129   6.531   4.060 -1.4544 -0.0434  0.0634
  185POPC    HB21239   4.267   6.465   4.182  0.1546  0.6999  0.4212
  185POPC    C221240   4.090   6.543   4.273 -0.1939 -0.2518  0.4442
  185POPC    HS21241   4.117   6.651   4.270 -0.0482 -0.3055 -1.8313
  185POPC   O2121242   4.116   6.475   4.398 -0.3689 -0.5653  0.6340
  185POPC   C2121243   4.235   6.501   4.445  0.2214  0.2591  0.2191
  185POPC   O2221244   4.314   6.583   4.397 -0.3413  0.8894  0.2864
  185POPC   C2221245   4.251   6.437   4.582 -0.4795  0.2864  0.2178
  185POPC   H2R21246   4.313   6.500   4.649 -1.4422  0.3336  1.0800
  185POPC   H2S21247   4.295   6.336   4.568  0.5710  0.5522  1.4686
  185POPC    C321248   3.933   6.540   4.258  0.4120 -0.3564 -0.4583
  185POPC    HX21249   3.908   6.434   4.278  2.6182 -0.3855  2.9281
  185POPC    HY21250   3.907   6.572   4.154  1.7590 -1.4629 -1.1577
  185POPC   O3121251   3.858   6.627   4.349 -0.7927 -0.0860  0.3546
  185POPC   C3121252   3.774   6.570   4.426  0.9571 -0.1010  0.5476
  185POPC   O3221253   3.737   6.452   4.416 -0.1774 -0.7673 -0.1139
  185POPC   C3221254   3.726   6.678   4.519 -0.0016 -0.2076 -0.8382
  185POPC   H2X21255   3.664   6.743   4.454 -0.9267  1.0876  1.2354
  185POPC   H2Y21256   3.812   6.735   4.559 -0.3036 -0.1772 -0.2069
  185POPC   C2321257   4.121   6.415   4.660  0.7445  0.7509 -0.2243
  185POPC   H3R21258   4.062   6.352   4.590  1.8901 -0.2587 -0.3208
  185POPC   H3S21259   4.069   6.513   4.663  2.8039  1.8769  1.1607
  185POPC   C2421260   4.144   6.353   4.796  0.1915 -0.6522  0.5146
  185POPC   H4R21261   4.214   6.413   4.859  0.0620 -0.4186  0.4390
  185POPC   H4S21262   4.195   6.256   4.777  0.1263 -0.4278 -0.9295
  185POPC   C2521263   4.010   6.327   4.873  0.6023 -0.2206  0.3889
  185POPC   H5R21264   3.946   6.255   4.818 -0.8039 -0.8191  2.6727
  185POPC   H5S21265   3.950   6.421   4.876  3.1489  1.5056  0.7344
  185POPC   C2621266   4.026   6.262   5.012  0.7685  0.0209  0.1754
  185POPC   H6R21267   4.097   6.176   5.023 -1.1522 -2.3192 -3.5648
  185POPC   H6S21268   3.926   6.225   5.043  0.4072  0.4171 -0.4982
  185POPC   C2721269   4.061   6.366   5.117  0.2833 -1.3420  0.3413
  185POPC   H7R21270   3.970   6.429   5.121  1.2508  0.3420 -1.7893
  185POPC   H7S21271   4.135   6.444   5.088 -2.0475 -0.0593 -2.6422
  185POPC   C2821272   4.086   6.314   5.259 -0.6085 -0.5474  0.3101
  185POPC   H8R21273   4.015   6.231   5.282  1.2347 -2.8288 -1.6892
  185POPC   H8S21274   4.064   6.390   5.337 -0.5731 -0.7585  0.5262
  185POPC   C2921275   4.222   6.253   5.269 -0.5367  0.3970  0.4183
  185POPC   H9121276   4.267   6.209   5.178  0.2276 -2.0805  1.8837
  185POPC  C21021277   4.312   6.270   5.368 -0.7464  0.1802  0.1428
  185POPC  H10121278   4.413   6.232   5.347 -1.1047 -0.1892 -1.0224
  185POPC  C21121279   4.297   6.346   5.492 -0.1401  0.0379 -0.2680
  185POPC  H11R21280   4.217   6.423   5.489 -1.6675 -1.4925 -0.3226
  185POPC  H11S21281   4.392   6.401   5.504  1.2965 -2.0704 -1.2988
  185POPC  C21221282   4.277   6.267   5.622 -0.0412 -0.3283  0.2293
  185POPC  H12R21283   4.276   6.341   5.705  3.0983 -1.0253  1.0392
  185POPC  H12S21284   4.372   6.212   5.638  0.1356 -0.6445 -1.6979
  185POPC  C21321285   4.153   6.181   5.628  0.1035 -0.0493 -0.4139
  185POPC  H13R21286   4.167   6.099   5.554  4.8249 -0.6133  0.8368
  185POPC  H13S21287   4.065   6.241   5.594 -1.4181 -0.1513  2.9199
  185POPC  C21421288   4.127   6.115   5.765 -0.4230 -0.0095  0.4768
  185POPC  H14R21289   4.220   6.061   5.795 -0.9315 -0.9110  0.4632
  185POPC  H14S21290   4.051   6.037   5.745  1.8234 -1.8246 -1.5411
  185POPC  C21521291   4.095   6.212   5.880 -0.0501 -1.1112  0.4497
  185POPC  H15R21292   3.985   6.217   5.889  0.0208 -0.3624  1.0425
  185POPC  H15S21293   4.138   6.314   5.869  1.4321 -1.7584  0.0175
  185POPC  C21621294   4.165   6.160   6.013 -0.5243 -0.1653  0.5764
  185POPC  H16R21295   4.271   6.150   5.981  0.0549  0.8458  2.0895
  185POPC  H16S21296   4.131   6.056   6.032 -0.1272 -0.0004  2.4325
  185POPC  C21721297   4.157   6.258   6.128  0.9154 -0.3274  0.2611
  185POPC  H17R21298   4.052   6.240   6.161  0.5802  0.5924 -0.2769
  185POPC  H17S21299   4.162   6.368   6.115  3.2387 -0.3561  0.6055
  185POPC  C21821300   4.243   6.215   6.244 -0.5173 -0.0685  0.4121
  185POPC  H18R21301   4.205   6.265   6.335 -1.0669 -0.3094  0.3187
  185POPC  H18S21302   4.350   6.243   6.235 -0.4858 -0.1023  0.6904
  185POPC  H18T21303   4.237   6.108   6.273 -1.1698  0.1766  1.2011
  185POPC   C3321304   3.628   6.631   4.628 -0.1180 -0.1048 -0.5234
  185POPC   H3X21305   3.688   6.567   4.697  0.7569 -1.3845 -2.3969
  185POPC   H3Y21306   3.541   6.572   4.592  0.8649 -1.4596 -0.7956
  185POPC   C3421307   3.559   6.741   4.700 -0.1645  0.1003 -0.3919
  185POPC   H4X21308   3.472   6.767   4.635 -1.1646  0.0940  0.8896
  185POPC   H4Y21309   3.623   6.830   4.717  0.8211 -0.5765 -0.4585
  185POPC   C3521310   3.495   6.691   4.820 -0.4504 -0.0712  0.3624
  185POPC   H5X21311   3.581   6.680   4.890 -0.4934 -1.6146  0.2075
  185POPC   H5Y21312   3.444   6.592   4.817  1.7700 -1.2418 -0.4035
  185POPC   C3621313   3.412   6.788   4.907 -0.2412 -0.2724  0.1909
  185POPC   H6X21314   3.318   6.812   4.852 -0.3962  0.1058  0.6116
  185POPC   H6Y21315   3.462   6.887   4.922  1.5817 -0.9632 -0.9598
  185POPC   C3721316   3.371   6.749   5.049 -0.5152 -0.1556  0.6460
  185POPC   H7X21317   3.345   6.641   5.047 -0.1849 -0.2558  1.4205
  185POPC   H7Y21318   3.277   6.804   5.075 -1.7041 -0.6454 -2.2722
  185POPC   C3821319   3.476   6.782   5.156  0.6751  0.5487  0.0415
  185POPC   H8X21320   3.486   6.889   5.185  0.9070 -0.0192  2.1860
  185POPC   H8Y21321   3.572   6.744   5.114  0.0036 -0.2599 -0.8141
  185POPC   C3921322   3.435   6.709   5.289  0.1143 -0.6579  0.0631
  185POPC   H9X21323   3.443   6.600   5.273 -0.7791 -1.0840  2.2586
  185POPC   H9Y21324   3.335   6.746   5.317  1.0529  1.1096  1.3133
  185POPC  C31021325   3.540   6.740   5.404  0.1078  0.7097  0.4832
  185POPC  H10X21326   3.556   6.850   5.410 -2.6438  1.1405  1.1619
  185POPC  H10Y21327   3.637   6.696   5.370 -0.8933 -0.4263 -1.0310
  185POPC  C31121328   3.502   6.687   5.543  0.4621 -0.3560 -0.1907
  185POPC  H11X21329   3.465   6.582   5.537 -1.9544  0.3848  0.6337
  185POPC  H11Y21330   3.416   6.750   5.574 -0.2742 -1.1905 -0.4954
  185POPC  C31221331   3.604   6.691   5.652  0.0305 -0.1106  0.2547
  185POPC  H12X21332   3.645   6.793   5.668 -2.3225  1.1437 -1.1967
  185POPC  H12Y21333   3.687   6.626   5.619 -1.1195 -1.6396  0.2392
  185POPC  C31321334   3.560   6.634   5.789 -0.2151 -0.3729  0.6870
  185POPC  H13X21335   3.528   6.528   5.778  0.0369 -0.3380 -0.5160
  185POPC  H13Y21336   3.468   6.687   5.820 -0.7878 -2.3735  2.7230
  185POPC  C31421337   3.670   6.650   5.892  0.1293  0.9376 -0.4401
  185POPC  H14X21338   3.701   6.754   5.915  0.7664  0.2447  2.1755
  185POPC  H14Y21339   3.764   6.603   5.859 -0.2734  0.4665 -0.9283
  185POPC  C31521340   3.625   6.581   6.022  0.1268  0.3835 -0.4388
  185POPC  H15X21341   3.542   6.510   6.001 -1.1402  1.2350  1.3437
  185POPC  H15Y21342   3.584   6.667   6.080 -1.4270  0.6884 -1.8864
  185POPC  C31621343   3.730   6.521   6.110 -0.7696 -0.2695  0.5516
  185POPC  H16X21344   3.815   6.589   6.132  0.9949 -2.1153 -0.1825
  185POPC  H16Y21345   3.785   6.443   6.053 -0.8809  0.1548 -0.1470
  185POPC  H16Z21346   3.701   6.473   6.206  1.3254  1.4363  2.1475
  186POPC     N21347   5.026   1.475   3.813  0.0994 -0.4141  0.0121
  186POPC   C1221348   4.971   1.569   3.923  0.2372  0.3266  0.3938
  186POPC  H12A21349   4.864   1.569   3.933  0.1588 -1.3568 -0.2014
  186POPC  H12B21350   4.980   1.671   3.890 -1.3042  1.4783  3.1635
  186POPC   C1321351   4.947   1.486   3.692 -0.0353 -0.1048  0.0046
  186POPC  H13A21352   4.945   1.587   3.654  0.1239 -0.1796 -0.2103
  186POPC  H13B21353   4.996   1.416   3.625  0.3009 -0.2517  0.4037
  186POPC  H13C21354   4.846   1.455   3.710  0.3531  0.1369  3.1060
  186POPC   C1421355   5.165   1.516   3.781 -0.6034 -0.0187  0.2612
  186POPC  H14A21356   5.211   1.438   3.722  0.6444  0.9098 -0.0351
  186POPC  H14B21357   5.172   1.600   3.714 -1.7784 -0.9630 -1.1171
  186POPC  H14C21358   5.222   1.522   3.873  1.9655 -1.2842 -1.1366
  186POPC   C1521359   5.031   1.334   3.853 -0.5560  0.8559 -0.2724
  186POPC  H15A21360   5.071   1.273   3.774 -1.0958  0.0858  0.0349
  186POPC  H15B21361   4.931   1.297   3.869 -0.4226  0.0575 -1.2203
  186POPC  H15C21362   5.093   1.310   3.938  0.2500 -1.8562 -1.5020
  186POPC   C1121363   5.029   1.558   4.071 -0.5489 -0.6470 -0.2067
  186POPC  H11A21364   4.989   1.477   4.136  1.0846 -1.2828  0.0357
  186POPC  H11B21365   4.989   1.651   4.117 -1.8898 -1.7581  0.9869
  186POPC     P21366   5.257   1.446   4.135  0.1489  0.1265 -0.1122
  186POPC   O1321367   5.383   1.431   4.058  0.7327  0.7618 -0.3626
  186POPC   O1421368   5.183   1.326   4.174  0.2001 -0.3952  0.3806
  186POPC   O1221369   5.173   1.559   4.064 -0.0716  0.2894 -0.2577
  186POPC   O1121370   5.292   1.520   4.269  0.2910  0.4540 -0.3169
  186POPC    C121371   5.370   1.643   4.278 -0.7901 -0.2067 -0.1109
  186POPC    HA21372   5.332   1.714   4.354 -1.2866  0.0262 -0.5754
  186POPC    HB21373   5.370   1.693   4.179 -3.0056 -0.9232 -0.5307
  186POPC    C221374   5.522   1.621   4.303 -0.0822 -0.0328  0.0139
  186POPC    HS21375   5.542   1.531   4.242 -0.0184  1.5735 -2.4620
  186POPC   O2121376   5.541   1.610   4.443 -0.7418  0.1091  0.6542
  186POPC   C2121377   5.503   1.500   4.504 -1.0812 -0.5503 -0.4795
  186POPC   O2221378   5.461   1.397   4.451 -0.1068 -0.0631 -0.0912
  186POPC   C2221379   5.527   1.528   4.661  0.1463  0.3438 -0.5337
  186POPC   H2R21380   5.448   1.585   4.715  0.6220  0.0622  0.5010
  186POPC   H2S21381   5.626   1.574   4.680  0.7695 -1.7699  2.1183
  186POPC    C321382   5.610   1.726   4.234 -0.1205  0.4151 -0.4563
  186POPC    HX21383   5.584   1.709   4.127  0.1749 -1.8522 -0.2086
  186POPC    HY21384   5.716   1.698   4.252 -0.4281 -1.0908 -0.8599
  186POPC   O3121385   5.576   1.859   4.274  0.5404 -0.5457  0.3415
  186POPC   C3121386   5.647   1.907   4.380 -0.2101 -0.9587  0.3369
  186POPC   O3221387   5.747   1.864   4.430 -0.3341 -0.0357 -0.2472
  186POPC   C3221388   5.570   2.027   4.417 -0.1449  0.3854  0.2151
  186POPC   H2X21389   5.464   1.996   4.431 -0.5611  1.1583 -1.0715
  186POPC   H2Y21390   5.576   2.102   4.335  0.5797  0.3650  0.2476
  186POPC   C2321391   5.532   1.386   4.732 -1.0215  0.6478  0.6362
  186POPC   H3R21392   5.617   1.332   4.685 -1.7500 -1.1168  1.2425
  186POPC   H3S21393   5.443   1.322   4.712  0.5949 -1.7626  0.6579
  186POPC   C2421394   5.558   1.395   4.883  0.0439  0.0661  0.3584
  186POPC   H4R21395   5.640   1.469   4.896  0.2116 -0.3758  1.9415
  186POPC   H4S21396   5.601   1.299   4.918 -1.0920 -0.6636 -0.1747
  186POPC   C2521397   5.437   1.412   4.968  0.5800 -0.0888  0.3861
  186POPC   H5R21398   5.365   1.493   4.944 -0.0202 -0.3469  1.2435
  186POPC   H5S21399   5.467   1.436   5.073 -1.9726  0.4671  1.0436
  186POPC   C2621400   5.362   1.274   4.975  0.5110  0.8869 -0.1461
  186POPC   H6R21401   5.424   1.203   5.033  0.4254 -0.4824 -1.6461
  186POPC   H6S21402   5.341   1.229   4.876 -0.2180 -0.3366  0.5450
  186POPC   C2721403   5.223   1.289   5.056 -0.5149 -0.3860  0.2459
  186POPC   H7R21404   5.175   1.189   5.060 -0.1616 -0.5180  1.6428
  186POPC   H7S21405   5.150   1.356   5.006  0.0823  2.6355  3.0792
  186POPC   C2821406   5.234   1.342   5.200 -0.3640 -0.7452 -0.3997
  186POPC   H8R21407   5.128   1.354   5.231 -0.0756  0.7213  0.0930
  186POPC   H8S21408   5.284   1.440   5.185 -1.4044 -0.3606 -1.5140
  186POPC   C2921409   5.307   1.248   5.293 -0.6059  0.2064 -0.4628
  186POPC   H9121410   5.327   1.147   5.254 -1.3860  0.1544 -0.7554
  186POPC  C21021411   5.326   1.261   5.430 -0.0562 -0.6678  0.0835
  186POPC  H10121412   5.382   1.183   5.483 -3.5499 -2.0059  2.1541
  186POPC  C21121413   5.289   1.385   5.516  0.2066 -0.4392 -0.2698
  186POPC  H11R21414   5.244   1.462   5.450  0.9269 -0.7099 -1.0904
  186POPC  H11S21415   5.370   1.440   5.568  0.2138  0.9899 -1.7141
  186POPC  C21221416   5.192   1.347   5.631 -0.2181  0.6521 -0.3460
  186POPC  H12R21417   5.244   1.268   5.689 -1.1080 -0.5474 -1.1292
  186POPC  H12S21418   5.096   1.312   5.586  0.5652  1.5682 -2.9123
  186POPC  C21321419   5.165   1.455   5.742  0.1428 -0.0619  0.1065
  186POPC  H13R21420   5.087   1.412   5.809  0.8478 -0.8483  0.4360
  186POPC  H13S21421   5.118   1.544   5.696  1.0253  0.9486  1.0720
  186POPC  C21421422   5.296   1.489   5.816 -0.1153 -0.0788  0.3570
  186POPC  H14R21423   5.357   1.555   5.751  1.4163 -1.1929  0.6183
  186POPC  H14S21424   5.360   1.401   5.838 -2.0525 -1.7578 -0.4138
  186POPC  C21521425   5.257   1.577   5.936  0.5093  0.2296 -1.0312
  186POPC  H15R21426   5.189   1.522   6.006 -2.9937  4.7176 -0.4659
  186POPC  H15S21427   5.182   1.648   5.895 -1.1449 -0.7583  0.1440
  186POPC  C21621428   5.365   1.630   6.019 -0.6331 -0.8313 -0.5133
  186POPC  H16R21429   5.428   1.678   5.941  1.4520 -1.3479  0.7767
  186POPC  H16S21430   5.419   1.546   6.069  1.8163  1.0323  0.1339
  186POPC  C21721431   5.333   1.739   6.123 -0.5535  0.0691 -0.6764
  186POPC  H17R21432   5.429   1.741   6.178 -0.0591  0.5100 -1.5420
  186POPC  H17S21433   5.248   1.700   6.183 -0.3091  0.9737  0.2851
  186POPC  C21821434   5.300   1.876   6.064 -0.4269  0.3656  0.1231
  186POPC  H18R21435   5.223   1.851   5.988  0.7367  0.1160 -1.0110
  186POPC  H18S21436   5.275   1.955   6.137  0.9248  2.1207 -1.2148
  186POPC  H18T21437   5.384   1.918   6.005  1.5585  1.1095  3.2517
  186POPC   C3321438   5.619   2.098   4.550  0.2270  0.7912  0.4209
  186POPC   H3X21439   5.718   2.148   4.543  0.0150  0.9957 -1.5734
  186POPC   H3Y21440   5.628   2.009   4.616 -0.6162  0.1877 -0.2678
  186POPC   C3421441   5.527   2.214   4.590 -0.2548  0.4282 -1.0466
  186POPC   H4X21442   5.419   2.192   4.598 -0.2503 -0.2915 -2.5287
  186POPC   H4Y21443   5.537   2.292   4.511 -2.1088  1.0139 -0.7533
  186POPC   C3521444   5.566   2.284   4.720 -0.1123 -0.8454 -0.8440
  186POPC   H5X21445   5.500   2.374   4.719  0.3630 -0.4980 -1.0965
  186POPC   H5Y21446   5.673   2.311   4.729 -0.4670  0.4049  0.0941
  186POPC   C3621447   5.528   2.216   4.847  0.0814 -0.8411 -0.4411
  186POPC   H6X21448   5.592   2.125   4.848  1.8101  0.3151 -1.5110
  186POPC   H6Y21449   5.422   2.183   4.841 -1.7014  3.7572  1.5128
  186POPC   C3721450   5.554   2.278   4.988 -0.2208 -0.5055  0.1172
  186POPC   H7X21451   5.485   2.361   5.014 -1.0434 -1.3452  0.6319
  186POPC   H7Y21452   5.660   2.310   4.973 -0.1213 -0.8656  0.0508
  186POPC   C3821453   5.549   2.176   5.102 -0.2257  0.2359  0.6363
  186POPC   H8X21454   5.607   2.092   5.058 -1.9169  0.5002 -2.4546
  186POPC   H8Y21455   5.440   2.154   5.102 -0.3725  0.8902 -0.3473
  186POPC   C3921456   5.603   2.229   5.235 -0.3773  0.5627  0.3842
  186POPC   H9X21457   5.712   2.250   5.231 -0.4017  0.5719 -0.4355
  186POPC   H9Y21458   5.586   2.146   5.307  1.4677 -0.6629 -0.4898
  186POPC  C31021459   5.557   2.368   5.286 -0.0265 -0.7695  0.1627
  186POPC  H10X21460   5.448   2.371   5.309 -0.2002 -0.7801 -0.6257
  186POPC  H10Y21461   5.563   2.454   5.216  0.0420 -0.0741  0.9960
  186POPC  C31121462   5.634   2.418   5.411 -0.4166  0.5751  0.3189
  186POPC  H11X21463   5.606   2.523   5.434  1.8687  0.8622  2.1840
  186POPC  H11Y21464   5.742   2.423   5.383 -1.1426  1.0851 -2.7960
  186POPC  C31221465   5.613   2.322   5.525 -0.2147 -0.7366  0.4020
  186POPC  H12X21466   5.686   2.239   5.510  0.7310 -0.3664  2.5155
  186POPC  H12Y21467   5.513   2.275   5.516 -0.7071  0.4083 -0.2476
  186POPC  C31321468   5.653   2.387   5.662  0.7020  0.8419  0.5912
  186POPC  H13X21469   5.759   2.419   5.667  0.6326  1.3312 -0.6402
  186POPC  H13Y21470   5.630   2.305   5.732  2.3137  0.3719  0.6069
  186POPC  C31421471   5.570   2.508   5.700  1.0258 -0.2268 -0.6678
  186POPC  H14X21472   5.463   2.486   5.678  1.3194 -0.9588 -1.4253
  186POPC  H14Y21473   5.603   2.586   5.629  0.1315 -0.5005 -1.3941
  186POPC  C31521474   5.560   2.537   5.851 -0.6770 -0.6015  0.0576
  186POPC  H15X21475   5.662   2.543   5.893 -0.3444 -1.2617 -0.6330
  186POPC  H15Y21476   5.497   2.461   5.903  2.1663 -3.1467  0.0307
  186POPC  C31621477   5.494   2.674   5.875  0.4397  0.2094 -0.5016
  186POPC  H16X21478   5.386   2.680   5.848  0.3298 -0.1762 -0.1619
  186POPC  H16Y21479   5.541   2.755   5.815  2.7281  0.3327  1.3026
  186POPC  H16Z21480   5.517   2.703   5.980 -2.0250  1.8461 -0.3328
  187POPC     N21481   5.986   4.762   3.697  0.3455 -0.0892 -0.5991
  187POPC   C1221482   5.966   4.614   3.724  0.2619 -0.1328  0.1718
  187POPC  H12A21483   5.865   4.582   3.704  0.5626 -2.2057  1.6557
  187POPC  H12B21484   5.987   4.598   3.829  0.4127  0.3804  0.2201
  187POPC   C1321485   5.915   4.834   3.813  0.4218  0.8174  0.1922
  187POPC  H13A21486   5.811   4.805   3.806  0.6105  0.4373 -1.2750
  187POPC  H13B21487   5.946   4.800   3.911  1.4296  0.2941 -0.3094
  187POPC  H13C21488   5.915   4.942   3.803  0.4659  0.6527 -2.0792
  187POPC   C1421489   6.128   4.813   3.699  0.9398  0.0115  0.0774
  187POPC  H14A21490   6.165   4.798   3.800  1.1962  1.8090  0.2726
  187POPC  H14B21491   6.190   4.754   3.634  0.5625 -2.2998  1.6678
  187POPC  H14C21492   6.130   4.916   3.666  0.7592  0.4745  1.4375
  187POPC   C1521493   5.922   4.810   3.567 -0.1471 -0.3263  0.0714
  187POPC  H15A21494   5.824   4.764   3.565  0.6619 -2.2278  0.8223
  187POPC  H15B21495   5.978   4.774   3.482  0.0395 -0.6770  0.3366
  187POPC  H15C21496   5.925   4.917   3.557  2.1373 -0.4108 -0.8893
  187POPC   C1121497   6.073   4.523   3.644  0.1364 -0.5299 -0.3680
  187POPC  H11A21498   6.061   4.419   3.683  1.4587 -0.4835  0.2007
  187POPC  H11B21499   6.175   4.550   3.677 -0.2769  0.0419  0.4842
  187POPC     P21500   5.934   4.463   3.422 -0.1177 -0.3244  0.0639
  187POPC   O1321501   5.989   4.367   3.328  0.3437  0.5406  0.5574
  187POPC   O1421502   5.852   4.570   3.368 -0.2729  0.6860  0.8278
  187POPC   O1221503   6.054   4.535   3.499  0.1333  0.2359  0.1875
  187POPC   O1121504   5.857   4.381   3.533 -0.0411  0.5467 -0.2255
  187POPC    C121505   5.718   4.412   3.548  0.1618 -0.3584 -0.2169
  187POPC    HA21506   5.664   4.379   3.457 -0.0936 -2.8616  0.7742
  187POPC    HB21507   5.707   4.518   3.579  0.6884 -0.8177  1.6743
  187POPC    C221508   5.651   4.343   3.673  0.6942  0.4415  0.2863
  187POPC    HS21509   5.540   4.349   3.672  0.4952 -1.7785  1.5296
  187POPC   O2121510   5.689   4.405   3.790 -0.4950  0.1809 -0.1750
  187POPC   C2121511   5.622   4.401   3.901  0.2129  0.7841  0.8518
  187POPC   O2221512   5.513   4.342   3.913  0.2004 -0.2882 -0.1677
  187POPC   C2221513   5.682   4.491   4.017 -0.1071  0.1551  0.1987
  187POPC   H2R21514   5.712   4.587   3.970  1.1680 -0.5314 -0.4437
  187POPC   H2S21515   5.773   4.434   4.048 -0.8373 -1.6062 -0.7511
  187POPC    C321516   5.685   4.186   3.682 -0.3790 -0.1997 -0.0041
  187POPC    HX21517   5.795   4.171   3.684 -0.3942 -0.3682 -0.3399
  187POPC    HY21518   5.651   4.144   3.584 -0.7945 -0.2564  0.1631
  187POPC   O3121519   5.625   4.110   3.786 -0.3204 -0.2798  0.0768
  187POPC   C3121520   5.701   4.084   3.886 -0.2674 -0.1278  0.6947
  187POPC   O3221521   5.811   4.143   3.905  0.3395  0.1258 -0.1302
  187POPC   C3221522   5.634   3.966   3.967 -0.4418  0.0615  0.4738
  187POPC   H2X21523   5.718   3.910   4.014 -1.5937 -0.4514  2.0178
  187POPC   H2Y21524   5.589   3.897   3.893 -0.6067  0.9663 -0.2897
  187POPC   C2321525   5.586   4.520   4.135 -0.1345  0.2092  0.4481
  187POPC   H3R21526   5.541   4.424   4.168 -0.5695  1.6108  4.4188
  187POPC   H3S21527   5.506   4.593   4.111 -0.5089  0.0867  1.2879
  187POPC   C2421528   5.656   4.556   4.266 -0.8292 -0.1499 -0.6020
  187POPC   H4R21529   5.708   4.649   4.233 -1.2027 -0.9395 -3.8398
  187POPC   H4S21530   5.732   4.478   4.285 -1.8467 -1.1974 -0.7036
  187POPC   C2521531   5.566   4.571   4.394  0.2062 -0.0585  0.8124
  187POPC   H5R21532   5.530   4.477   4.442 -0.4638 -0.2011  0.0507
  187POPC   H5S21533   5.477   4.629   4.363 -2.0157 -3.4772  0.2057
  187POPC   C2621534   5.639   4.659   4.489  0.0378 -0.3011 -0.0130
  187POPC   H6R21535   5.566   4.710   4.555 -0.2339  0.0587 -0.5884
  187POPC   H6S21536   5.698   4.742   4.444 -2.3272  1.2215 -0.4631
  187POPC   C2721537   5.730   4.574   4.585  0.4731 -0.2746 -0.0636
  187POPC   H7R21538   5.814   4.532   4.525  0.0432 -3.4507  1.3366
  187POPC   H7S21539   5.668   4.490   4.624 -0.6742  0.7510  0.3768
  187POPC   C2821540   5.775   4.653   4.711  0.4031  0.0054  0.9379
  187POPC   H8R21541   5.690   4.681   4.777  0.1110  0.2754  0.4498
  187POPC   H8S21542   5.820   4.749   4.679  0.6660 -0.7386 -1.0215
  187POPC   C2921543   5.878   4.569   4.790 -0.2463 -0.4667  0.8182
  187POPC   H9121544   5.926   4.490   4.731  1.5567  1.0770  0.0901
  187POPC  C21021545   5.887   4.556   4.922  0.0446 -0.0109 -0.2980
  187POPC  H10121546   5.961   4.486   4.963 -1.7984 -0.0586  3.4319
  187POPC  C21121547   5.809   4.642   5.026 -0.1310 -0.1282  0.9922
  187POPC  H11R21548   5.699   4.622   5.022 -0.0639 -1.1647  3.0604
  187POPC  H11S21549   5.820   4.748   4.995 -0.7183 -0.1593  0.6668
  187POPC  C21221550   5.874   4.647   5.161  0.0801  0.0995 -0.1323
  187POPC  H12R21551   5.821   4.723   5.221  1.6587  0.4661  0.8592
  187POPC  H12S21552   5.979   4.681   5.157  0.5258 -0.6273  2.9384
  187POPC  C21321553   5.858   4.511   5.232 -0.6134 -0.3346  0.2743
  187POPC  H13R21554   5.911   4.436   5.169 -0.9905  0.5280 -1.1076
  187POPC  H13S21555   5.750   4.492   5.252 -0.4459 -0.2421  1.3313
  187POPC  C21421556   5.922   4.514   5.374  0.7367 -0.4464  0.3610
  187POPC  H14R21557   6.029   4.541   5.363  0.7578  0.7046  2.7581
  187POPC  H14S21558   5.917   4.415   5.425  0.8979  0.1313  1.5329
  187POPC  C21521559   5.855   4.611   5.473  0.1739  0.2068  0.7368
  187POPC  H15R21560   5.745   4.607   5.480  0.0659  0.7568 -0.4098
  187POPC  H15S21561   5.889   4.709   5.433  1.8132  0.1594  1.8900
  187POPC  C21621562   5.920   4.594   5.609 -0.1944 -0.3647  0.5305
  187POPC  H16R21563   6.026   4.567   5.591 -0.0511  1.3557 -1.7381
  187POPC  H16S21564   5.871   4.500   5.644 -0.2241 -0.4459  0.2769
  187POPC  C21721565   5.893   4.696   5.717  0.2754 -0.3344  0.6172
  187POPC  H17R21566   5.782   4.690   5.729 -0.0502  1.1997 -1.0701
  187POPC  H17S21567   5.903   4.803   5.687  0.3441 -0.1364  1.3301
  187POPC  C21821568   5.961   4.664   5.848 -0.3756  0.5614  0.4224
  187POPC  H18R21569   6.069   4.639   5.835 -0.1223  0.7784  1.9465
  187POPC  H18S21570   5.919   4.574   5.899 -0.8889 -0.0076 -0.9413
  187POPC  H18T21571   5.948   4.746   5.921 -0.4802  0.3185  0.6803
  187POPC   C3321572   5.526   4.008   4.063  0.4433 -1.1216 -0.4751
  187POPC   H3X21573   5.471   3.922   4.107 -0.1399 -0.0539  0.9409
  187POPC   H3Y21574   5.454   4.070   4.005  0.1201 -0.3122  0.7616
  187POPC   C3421575   5.573   4.083   4.194  0.5500  0.1717 -0.4178
  187POPC   H4X21576   5.611   4.182   4.159 -0.3782 -0.1026 -2.3364
  187POPC   H4Y21577   5.653   4.021   4.238  0.2371  1.3238  1.9117
  187POPC   C3521578   5.456   4.106   4.295 -0.5923  0.5015  0.4478
  187POPC   H5X21579   5.405   4.008   4.301  1.0886 -0.3988  0.4042
  187POPC   H5Y21580   5.397   4.190   4.252  0.4125  0.1771 -1.6707
  187POPC   C3621581   5.513   4.156   4.430  0.0682  0.2800 -0.6363
  187POPC   H6X21582   5.580   4.244   4.422 -1.6202  1.9326  1.8503
  187POPC   H6Y21583   5.573   4.070   4.465 -0.3008  0.4231  0.3712
  187POPC   C3721584   5.400   4.190   4.531 -0.2486 -0.2986  0.1434
  187POPC   H7X21585   5.355   4.095   4.567 -0.0496 -0.7849 -0.8586
  187POPC   H7Y21586   5.326   4.250   4.474  1.0492  2.0508  0.8091
  187POPC   C3821587   5.463   4.264   4.649  0.4850 -0.5160  0.2138
  187POPC   H8X21588   5.382   4.299   4.717  0.6244 -1.8739  1.1184
  187POPC   H8Y21589   5.516   4.352   4.607  1.0920 -0.1235  1.7289
  187POPC   C3921590   5.559   4.175   4.726 -0.5305  0.5274  0.1594
  187POPC   H9X21591   5.635   4.139   4.654  0.1964  0.7860  0.7803
  187POPC   H9Y21592   5.496   4.090   4.760  2.6364 -2.9240 -1.8220
  187POPC  C31021593   5.621   4.241   4.856 -0.8022 -0.1515  0.1746
  187POPC  H10X21594   5.546   4.270   4.933 -2.3788 -0.7613 -1.0807
  187POPC  H10Y21595   5.680   4.333   4.832 -1.3187  0.1892  0.2062
  187POPC  C31121596   5.712   4.137   4.922 -0.5554 -0.0434  1.2808
  187POPC  H11X21597   5.807   4.113   4.869 -1.0649  1.0436 -0.1914
  187POPC  H11Y21598   5.646   4.048   4.926  0.7843 -1.3331 -2.0472
  187POPC  C31221599   5.749   4.178   5.062  0.2416  0.7558 -0.0895
  187POPC  H12X21600   5.777   4.282   5.086  1.1503  0.6926 -0.8502
  187POPC  H12Y21601   5.824   4.109   5.106 -1.5283  0.5938  3.0235
  187POPC  C31321602   5.638   4.136   5.161 -0.0178 -0.2643  0.4427
  187POPC  H13X21603   5.617   4.028   5.145  0.9944 -0.8350  2.5419
  187POPC  H13Y21604   5.547   4.198   5.149  0.8280  0.6762 -1.5233
  187POPC  C31421605   5.691   4.142   5.304 -0.4959 -0.2504 -0.2623
  187POPC  H14X21606   5.729   4.245   5.323 -1.6429  0.2798 -0.7679
  187POPC  H14Y21607   5.784   4.081   5.310 -1.5178 -1.7540  1.2680
  187POPC  C31521608   5.594   4.094   5.406 -0.6823 -0.0272  0.1789
  187POPC  H15X21609   5.547   4.002   5.366 -0.7993  0.0452  0.1470
  187POPC  H15Y21610   5.504   4.157   5.393 -1.2509 -1.2083 -2.1069
  187POPC  C31621611   5.651   4.081   5.544 -0.0886  0.0600 -0.1705
  187POPC  H16X21612   5.739   4.014   5.548  0.0316  0.2518  0.6812
  187POPC  H16Y21613   5.572   4.047   5.614 -0.9336  2.4041  0.1134
  187POPC  H16Z21614   5.683   4.184   5.574  1.2785 -0.7549  1.3872
  188POPC     N21615   5.745   6.325   3.662  0.5787 -0.2425 -0.0630
  188POPC   C1221616   5.737   6.209   3.760 -0.5535 -0.2050  0.6983
  188POPC  H12A21617   5.828   6.159   3.788 -0.2868 -0.2113 -0.1578
  188POPC  H12B21618   5.684   6.134   3.703 -1.2099  0.4929  0.3713
  188POPC   C1321619   5.839   6.289   3.554  0.7404  0.0814  0.1315
  188POPC  H13A21620   5.941   6.300   3.587  1.1735  0.0434 -1.1537
  188POPC  H13B21621   5.817   6.187   3.527  1.9805 -0.5726  1.4675
  188POPC  H13C21622   5.825   6.355   3.469  3.6569  1.3790  0.5313
  188POPC   C1421623   5.612   6.358   3.604 -0.5125 -0.5851 -0.7182
  188POPC  H14A21624   5.540   6.373   3.683 -0.7183 -0.3833 -0.9440
  188POPC  H14B21625   5.608   6.449   3.547 -1.6650 -0.1220  0.0736
  188POPC  H14C21626   5.568   6.290   3.532 -0.1170  0.9397 -2.4746
  188POPC   C1521627   5.805   6.439   3.734  0.7445  0.5038  0.0927
  188POPC  H15A21628   5.723   6.486   3.787  0.7180  1.4435 -0.7456
  188POPC  H15B21629   5.844   6.518   3.672  0.8353  0.0773 -0.4031
  188POPC  H15C21630   5.882   6.404   3.800  1.3028  2.3882  0.4995
  188POPC   C1121631   5.654   6.228   3.889  0.5850  0.3580 -0.3567
  188POPC  H11A21632   5.700   6.305   3.954  0.5640 -0.6979  0.9411
  188POPC  H11B21633   5.667   6.143   3.960 -1.5630  2.0679  2.2236
  188POPC     P21634   5.432   6.341   3.945  0.2368 -0.4493  0.1108
  188POPC   O1321635   5.294   6.346   3.887 -0.4934 -0.3716 -0.3124
  188POPC   O1421636   5.499   6.472   3.947 -0.5157 -0.6542 -0.0382
  188POPC   O1221637   5.516   6.239   3.860  0.3679  0.0845  0.0235
  188POPC   O1121638   5.422   6.280   4.096  0.4554 -0.1135  0.0919
  188POPC    C121639   5.404   6.142   4.113 -0.1700 -0.1595  0.3116
  188POPC    HA21640   5.473   6.108   4.193 -0.5739 -1.8108  0.0076
  188POPC    HB21641   5.425   6.079   4.024 -0.5738  1.2798 -0.8429
  188POPC    C221642   5.266   6.108   4.163 -0.2068 -0.0385 -0.2491
  188POPC    HS21643   5.199   6.116   4.075 -0.4721 -0.8278 -0.1249
  188POPC   O2121644   5.223   6.203   4.261 -0.5102  0.4652  0.0880
  188POPC   C2121645   5.095   6.223   4.273  0.3762  0.0886 -0.2662
  188POPC   O2221646   5.002   6.174   4.209 -0.8916 -0.0256 -0.2380
  188POPC   C2221647   5.079   6.345   4.361  0.7858 -0.1733  0.2936
  188POPC   H2R21648   4.973   6.373   4.344  0.3995 -1.2275  0.9161
  188POPC   H2S21649   5.140   6.430   4.324  0.9235  0.1681  1.2920
  188POPC    C321650   5.246   5.961   4.225  0.4362  0.5388 -0.2038
  188POPC    HX21651   5.287   5.885   4.155  0.7818  0.4093  0.1347
  188POPC    HY21652   5.136   5.950   4.233  0.0505  2.7875 -1.7222
  188POPC   O3121653   5.310   5.948   4.355 -0.1873 -0.2247 -0.7164
  188POPC   C3121654   5.254   5.968   4.468 -0.1898 -0.1696 -0.8832
  188POPC   O3221655   5.136   5.968   4.489 -0.0951  0.1300 -0.3455
  188POPC   C3221656   5.356   5.987   4.579  0.3392  0.6406 -0.1253
  188POPC   H2X21657   5.341   6.095   4.603  1.0292  0.7163 -0.0201
  188POPC   H2Y21658   5.459   5.970   4.541 -0.1676 -2.6344 -0.2983
  188POPC   C2321659   5.081   6.309   4.509  1.1068  0.6534 -0.4121
  188POPC   H3R21660   5.091   6.404   4.567  0.2383 -0.7350  2.1712
  188POPC   H3S21661   5.167   6.250   4.548  0.6026  0.6192  0.6750
  188POPC   C2421662   4.941   6.258   4.565  0.4026 -0.0243  0.0377
  188POPC   H4R21663   4.899   6.173   4.508 -1.0509 -1.3008  2.8146
  188POPC   H4S21664   4.872   6.344   4.548 -0.4720 -0.3652  1.6462
  188POPC   C2521665   4.957   6.226   4.713  0.6447  0.5680 -0.2060
  188POPC   H5R21666   5.029   6.143   4.725 -0.0962 -0.6383 -3.0591
  188POPC   H5S21667   4.859   6.195   4.756  1.5347 -0.5077  1.1212
  188POPC   C2621668   5.000   6.348   4.793  0.2487  0.3608  0.5020
  188POPC   H6R21669   4.944   6.434   4.750 -0.6556 -1.0703 -1.3386
  188POPC   H6S21670   5.104   6.377   4.765 -0.0840  0.8101 -0.3281
  188POPC   C2721671   4.977   6.326   4.939  0.7308  0.1410 -0.3175
  188POPC   H7R21672   5.058   6.270   4.990  0.5124  1.3772  1.5033
  188POPC   H7S21673   4.883   6.270   4.955  0.2478  1.0324  0.0795
  188POPC   C2821674   4.959   6.456   5.012  0.4074  0.0321  0.4117
  188POPC   H8R21675   4.914   6.443   5.113  2.2199  0.7624  1.3712
  188POPC   H8S21676   4.887   6.516   4.952  1.8963  0.7954 -0.6829
  188POPC   C2921677   5.098   6.524   5.026 -0.4458 -0.4758 -0.1478
  188POPC   H9121678   5.128   6.574   4.933  0.5277 -0.7401  0.0107
  188POPC  C21021679   5.188   6.500   5.114  0.3982  0.1706  0.0307
  188POPC  H10121680   5.278   6.561   5.097  0.9242 -0.6328 -0.0988
  188POPC  C21121681   5.192   6.419   5.240  0.7628 -0.5497 -0.2966
  188POPC  H11R21682   5.298   6.391   5.255  0.9454  0.6427  0.9092
  188POPC  H11S21683   5.121   6.334   5.231 -0.2834  0.0980  1.3404
  188POPC  C21221684   5.126   6.486   5.364 -0.8342  0.0103  0.1477
  188POPC  H12R21685   5.017   6.493   5.340 -0.2236  1.0239 -2.6743
  188POPC  H12S21686   5.174   6.585   5.381 -2.4777  1.0703 -1.0431
  188POPC  C21321687   5.130   6.402   5.498 -0.1853 -0.2352 -0.0417
  188POPC  H13R21688   5.065   6.313   5.485 -3.3692  1.9108 -0.0247
  188POPC  H13S21689   5.090   6.459   5.585 -0.9478  0.3761 -0.7769
  188POPC  C21421690   5.275   6.365   5.519  0.4864 -0.2557 -0.5733
  188POPC  H14R21691   5.338   6.456   5.520 -1.1565  0.9397 -1.1796
  188POPC  H14S21692   5.309   6.293   5.442 -0.8649 -1.7856  0.1878
  188POPC  C21521693   5.304   6.305   5.657 -0.2771 -0.1173 -0.2730
  188POPC  H15R21694   5.254   6.206   5.657 -1.1742  0.1744  3.3743
  188POPC  H15S21695   5.259   6.362   5.741  2.3417  0.3010  0.9560
  188POPC  C21621696   5.450   6.280   5.706  0.4891  0.0328 -0.0551
  188POPC  H16R21697   5.487   6.348   5.786  1.7893 -1.3546  0.5741
  188POPC  H16S21698   5.522   6.290   5.622  0.4877  2.9117  0.1990
  188POPC  C21721699   5.465   6.132   5.756 -0.4057 -0.5007 -0.5455
  188POPC  H17R21700   5.573   6.108   5.767 -0.0658  0.6475 -1.2215
  188POPC  H17S21701   5.448   6.065   5.668  1.9527 -2.5239  0.4134
  188POPC  C21821702   5.371   6.084   5.868  0.8083 -0.1092  0.0900
  188POPC  H18R21703   5.381   5.976   5.891  0.7831 -0.3520 -0.9725
  188POPC  H18S21704   5.264   6.109   5.846  0.4719  2.5364  3.8090
  188POPC  H18T21705   5.388   6.151   5.955  0.2490  2.1980 -1.4928
  188POPC   C3321706   5.324   5.905   4.704 -0.0485  0.1086  0.0216
  188POPC   H3X21707   5.349   5.798   4.693  0.0157  0.1532 -0.2880
  188POPC   H3Y21708   5.220   5.925   4.735 -0.0150 -0.7884  0.7569
  188POPC   C3421709   5.421   5.953   4.820 -0.1728  0.3518 -0.1922
  188POPC   H4X21710   5.422   6.064   4.819 -1.1435  0.3670 -1.1357
  188POPC   H4Y21711   5.527   5.927   4.798 -0.9067 -3.0012 -0.3106
  188POPC   C3521712   5.383   5.895   4.956 -0.2448  0.8519 -0.9111
  188POPC   H5X21713   5.461   5.921   5.030 -2.3054  0.6319  1.4789
  188POPC   H5Y21714   5.382   5.784   4.958 -0.7376  0.8494  1.3685
  188POPC   C3621715   5.238   5.933   5.010  0.0033 -0.1844  0.9889
  188POPC   H6X21716   5.160   5.916   4.933 -1.2897  1.2548  1.9222
  188POPC   H6Y21717   5.227   6.042   5.024 -0.6380 -0.4438  2.8025
  188POPC   C3721718   5.189   5.864   5.142  0.0291 -0.6748  0.3555
  188POPC   H7X21719   5.169   5.755   5.129  0.2363 -0.6461 -0.2256
  188POPC   H7Y21720   5.094   5.916   5.167  0.4184  1.0056 -1.4252
  188POPC   C3821721   5.298   5.867   5.246 -0.3302 -0.1010 -0.1487
  188POPC   H8X21722   5.343   5.969   5.245  0.0181 -0.2503 -1.3124
  188POPC   H8Y21723   5.387   5.808   5.216 -0.5416 -0.6449  0.2772
  188POPC   C3921724   5.248   5.824   5.388  0.1327 -0.2822  0.0877
  188POPC   H9X21725   5.344   5.805   5.439  0.7148  2.1873  0.0568
  188POPC   H9Y21726   5.200   5.726   5.368  2.3345 -1.6452  1.2039
  188POPC  C31021727   5.144   5.920   5.464 -0.0892  0.5192  0.4255
  188POPC  H10X21728   5.050   5.941   5.409  0.7606  1.2814 -0.7811
  188POPC  H10Y21729   5.186   6.022   5.480 -1.0411  1.1899 -1.1317
  188POPC  C31121730   5.117   5.861   5.603 -1.1902 -0.5161 -0.4594
  188POPC  H11X21731   5.045   5.928   5.655 -0.3721  0.6054 -0.7120
  188POPC  H11Y21732   5.215   5.858   5.655 -0.9476  0.1065 -0.8604
  188POPC  C31221733   5.057   5.716   5.600 -0.6331 -0.5722  0.2245
  188POPC  H12X21734   5.126   5.637   5.564 -1.9456 -2.0474  0.8227
  188POPC  H12Y21735   4.975   5.733   5.527 -0.5286 -1.2753 -0.0592
  188POPC  C31321736   4.998   5.670   5.733 -0.8709 -0.1579 -0.6962
  188POPC  H13X21737   4.961   5.565   5.729  2.6219 -1.6551  1.3331
  188POPC  H13Y21738   4.916   5.731   5.776 -0.2601 -0.4671  0.9790
  188POPC  C31421739   5.107   5.664   5.842 -0.2070  0.5834  0.8513
  188POPC  H14X21740   5.142   5.768   5.858  0.8691  0.5666 -1.0470
  188POPC  H14Y21741   5.196   5.607   5.806  0.1424  0.9605  1.1046
  188POPC  C31521742   5.065   5.621   5.982 -0.2610  0.5961  0.8925
  188POPC  H15X21743   4.990   5.694   6.018  1.2701  1.5138  2.3593
  188POPC  H15Y21744   5.149   5.632   6.053  1.1803 -2.5087 -0.1671
  188POPC  C31621745   4.994   5.484   5.986 -0.7793  0.2291  0.1848
  188POPC  H16X21746   4.961   5.454   6.088  0.5324 -1.1853  0.2348
  188POPC  H16Y21747   5.055   5.399   5.947  0.4558  0.9038  0.5937
  188POPC  H16Z21748   4.904   5.488   5.920  1.8462 -2.3613 -4.0734
  189SAPI   C1221749   1.530   2.363   8.253  0.2217  0.4800  0.6621
  189SAPI    H221750   1.569   2.351   8.150  0.1376  1.0133  0.5683
  189SAPI    O221751   1.636   2.403   8.342 -0.2073 -0.2694 -0.2780
  189SAPI   HO221752   1.695   2.327   8.337  0.8000  0.5096 -0.3466
  189SAPI   C1321753   1.414   2.460   8.253  0.3967  0.1495  0.0333
  189SAPI    H321754   1.333   2.421   8.187 -0.8662 -0.0614  1.6405
  189SAPI    O321755   1.436   2.583   8.194 -0.2579 -0.3457 -0.4950
  189SAPI   HO321756   1.352   2.626   8.174 -0.4531 -0.8765 -0.8465
  189SAPI   C1421757   1.359   2.481   8.393 -0.2282  0.4464 -0.4246
  189SAPI    H421758   1.440   2.538   8.443  0.7655 -1.2759  0.0130
  189SAPI    O421759   1.244   2.561   8.378 -0.0984  0.9671  0.1954
  189SAPI   HO421760   1.252   2.634   8.440  0.5754  1.1606 -0.1166
  189SAPI   C1521761   1.346   2.350   8.475 -0.2275  0.2561  0.3582
  189SAPI    H521762   1.240   2.317   8.464  0.1068 -0.2390 -1.7418
  189SAPI    O521763   1.363   2.374   8.616 -0.1116 -0.2281  0.5455
  189SAPI   HO521764   1.289   2.329   8.657  0.6762 -1.3639  0.7660
  189SAPI   C1621765   1.427   2.224   8.436 -0.3245  0.2113  0.2629
  189SAPI    H621766   1.509   2.219   8.511 -0.0495  0.3184 -0.0295
  189SAPI    O621767   1.349   2.102   8.455  0.2060  0.2163  0.2247
  189SAPI   HO621768   1.379   2.064   8.537 -0.3530  0.5321  0.5806
  189SAPI   C1121769   1.479   2.228   8.287 -0.1545  0.1900 -0.2159
  189SAPI    H121770   1.386   2.216   8.228 -0.2794  0.5484 -0.0925
  189SAPI     P21771   1.577   2.038   8.128 -0.0722  0.0918 -0.0676
  189SAPI   O1321772   1.436   2.013   8.073 -0.7684 -0.1732  0.2297
  189SAPI   O1421773   1.655   1.915   8.149  0.1726  0.2442  0.2857
  189SAPI   O1221774   1.584   2.133   8.266  0.2258  0.2107  0.4031
  189SAPI   O1121775   1.648   2.140   8.028 -0.0957 -0.2514  0.4626
  189SAPI    C121776   1.784   2.171   8.043 -0.3139  0.8056 -0.6481
  189SAPI    HA21777   1.791   2.279   8.068 -2.6417  0.5720  1.3743
  189SAPI    HB21778   1.836   2.120   8.127 -3.2899 -1.6596 -0.1098
  189SAPI    C221779   1.859   2.143   7.914 -0.6274  0.7520 -0.1570
  189SAPI    HS21780   1.969   2.148   7.925 -0.6862  0.2814  0.6788
  189SAPI   O2121781   1.826   2.236   7.809 -0.1992  0.4347 -0.1727
  189SAPI   C2121782   1.882   2.350   7.812 -0.4034  0.3760  0.1915
  189SAPI   O2221783   1.953   2.390   7.904  0.1272  0.4750  0.2735
  189SAPI   C2221784   1.867   2.428   7.679 -0.4958 -0.3019 -0.4799
  189SAPI   H2R21785   1.780   2.494   7.698  0.3678  0.9512 -0.7835
  189SAPI   H2S21786   1.952   2.497   7.664 -1.1302  0.5772 -0.1010
  189SAPI    C321787   1.830   1.997   7.858 -0.1981  0.2884  1.0759
  189SAPI    HX21788   1.722   1.990   7.833 -0.0398  3.2057 -0.8113
  189SAPI    HY21789   1.861   1.942   7.949  0.4806  0.3804  0.9051
  189SAPI   O3121790   1.908   1.954   7.741 -0.4654  0.0600 -0.5456
  189SAPI   C3121791   1.918   1.820   7.723 -0.6742  0.4069 -0.1251
  189SAPI   O3221792   1.856   1.741   7.792 -0.3775  0.1902  0.2875
  189SAPI   C3221793   2.030   1.782   7.623 -0.0281 -0.9867  0.3846
  189SAPI   H2X21794   2.058   1.678   7.650 -0.8524 -0.7539  2.2993
  189SAPI   H2Y21795   2.110   1.859   7.627  0.5091 -1.5830  2.2366
  189SAPI   C2321796   1.839   2.339   7.560  0.2884  0.2029  0.2979
  189SAPI   H3R21797   1.758   2.268   7.586 -1.4601  1.7415 -0.6856
  189SAPI   H3S21798   1.929   2.280   7.532 -0.2785 -0.3253 -0.4832
  189SAPI   C2421799   1.786   2.423   7.435 -0.0698 -0.3079 -1.1595
  189SAPI   H4R21800   1.717   2.501   7.475 -1.2184 -3.1076  3.0475
  189SAPI   H4S21801   1.723   2.359   7.370 -0.8129 -0.3088 -0.4584
  189SAPI   C2521802   1.883   2.498   7.354 -0.8140  0.3416 -0.5011
  189SAPI   H5R21803   1.947   2.564   7.416  0.4433 -1.9425  0.7605
  189SAPI   C2621804   1.900   2.504   7.221  0.2865 -0.0632  1.2702
  189SAPI   H6R21805   1.993   2.550   7.183  0.6341 -0.2776  1.8585
  189SAPI   C2721806   1.817   2.430   7.120 -0.2799 -0.2261  0.3740
  189SAPI   H7R21807   1.763   2.507   7.060  0.7751 -0.3035 -0.7058
  189SAPI   H7S21808   1.747   2.361   7.172  0.4203 -2.0548 -0.9933
  189SAPI   C2821809   1.890   2.335   7.027 -0.0976  0.2024  0.0171
  189SAPI   H8R21810   1.993   2.314   7.057  0.2233  0.9722 -0.5189
  189SAPI   C2921811   1.846   2.306   6.903 -0.6321  0.6516 -0.2363
  189SAPI   H9R21812   1.900   2.228   6.848  0.2037 -0.4756  2.0428
  189SAPI  C21021813   1.704   2.336   6.853  0.4326 -0.1698  0.9759
  189SAPI  H10R21814   1.719   2.433   6.800 -0.7593 -1.3234 -1.6505
  189SAPI  H10S21815   1.626   2.355   6.931 -2.8943 -0.0331 -2.1347
  189SAPI  C21121816   1.657   2.217   6.770 -0.5226 -0.2555  0.5662
  189SAPI  H11R21817   1.625   2.133   6.833 -1.4512 -1.2162 -1.1145
  189SAPI  C21221818   1.661   2.200   6.636 -0.0647 -0.1378  0.7485
  189SAPI  H12R21819   1.627   2.107   6.589 -2.0620  0.6322  0.5411
  189SAPI  C21321820   1.710   2.310   6.542 -0.0095 -0.4214 -0.5679
  189SAPI  H13R21821   1.783   2.267   6.470  0.8036  2.4811 -1.6062
  189SAPI  H13S21822   1.779   2.381   6.590  0.7171 -0.9542 -0.8087
  189SAPI  C21421823   1.602   2.396   6.477 -0.5257  0.3249  0.4014
  189SAPI  H14R21824   1.502   2.375   6.518  0.1365 -1.5859  1.1674
  189SAPI  C21521825   1.617   2.487   6.379 -0.1222 -1.0278  0.6722
  189SAPI  H15R21826   1.524   2.529   6.337  1.1546 -1.1193 -2.5204
  189SAPI  C21621827   1.739   2.533   6.303 -0.1999 -0.1608  0.0205
  189SAPI  H16R21828   1.831   2.477   6.332 -1.2888 -1.6105  0.7749
  189SAPI  H16S21829   1.760   2.637   6.336 -1.9020  0.0531  0.5024
  189SAPI  C21721830   1.713   2.514   6.152  0.3765 -0.6303  0.4781
  189SAPI  H17R21831   1.778   2.593   6.107 -1.4441  1.3603  1.1626
  189SAPI  H17S21832   1.614   2.551   6.118  0.3471 -1.7370 -0.7248
  189SAPI  C21821833   1.734   2.371   6.098  0.1224 -0.8721 -0.7180
  189SAPI  H18R21834   1.666   2.299   6.148  0.2578 -1.3427 -1.1894
  189SAPI  H18S21835   1.834   2.334   6.130 -0.4673 -1.2155  0.7939
  189SAPI  C21921836   1.718   2.372   5.947 -0.3163 -0.1068  0.5862
  189SAPI  H19R21837   1.795   2.436   5.899  0.8275 -0.2689  2.1493
  189SAPI  H19S21838   1.619   2.412   5.917  0.4364 -0.0175 -2.0647
  189SAPI  C22021839   1.718   2.225   5.902  0.1613  0.1648 -0.0796
  189SAPI  H20R21840   1.639   2.164   5.951  2.4805 -3.1952 -0.1644
  189SAPI  H20S21841   1.814   2.179   5.935 -0.4940 -0.3553  1.2166
  189SAPI  H20T21842   1.713   2.222   5.791 -0.3092  2.1077 -0.1501
  189SAPI   C3321843   1.977   1.790   7.474  0.5051 -0.5787 -0.0491
  189SAPI   H3X21844   1.900   1.714   7.450 -0.7866  0.2463  1.3223
  189SAPI   H3Y21845   2.057   1.773   7.399 -1.2467  2.6134 -2.9506
  189SAPI   C3421846   1.912   1.930   7.440  0.0780 -0.7039  0.4652
  189SAPI   H4X21847   1.974   2.021   7.458  0.7767 -1.1125  0.1559
  189SAPI   H4Y21848   1.823   1.942   7.506 -0.9818 -1.5367 -0.7500
  189SAPI   C3521849   1.870   1.949   7.290 -0.1701  0.9866 -0.2155
  189SAPI   H5X21850   1.814   2.044   7.274 -4.2272 -1.5009 -2.5670
  189SAPI   H5Y21851   1.791   1.872   7.276  1.1347 -0.8732  1.8725
  189SAPI   C3621852   1.987   1.943   7.181  0.2648 -0.2940  0.0091
  189SAPI   H6X21853   2.042   1.849   7.203 -1.2380 -1.1057  0.3761
  189SAPI   H6Y21854   2.042   2.039   7.195  1.0985 -0.6081 -0.9205
  189SAPI   C3721855   1.928   1.949   7.037  0.0384 -0.9547 -0.3314
  189SAPI   H7X21856   1.864   2.039   7.024  2.7439  1.0869 -0.5630
  189SAPI   H7Y21857   1.870   1.858   7.012  1.2496 -2.2289  1.3024
  189SAPI   C3821858   2.032   1.967   6.927  0.4302 -1.0513  0.2279
  189SAPI   H8X21859   2.105   1.884   6.922  0.8406 -0.6083 -1.7548
  189SAPI   H8Y21860   2.093   2.057   6.950  1.5495 -0.8363 -3.0858
  189SAPI   C3921861   1.969   1.963   6.781 -0.0301  0.2232  0.1162
  189SAPI   H9X21862   2.040   2.019   6.717 -0.9571  0.0877 -1.0596
  189SAPI   H9Y21863   1.866   2.004   6.775 -0.6999 -1.4858 -0.6250
  189SAPI  C31021864   1.951   1.817   6.729 -0.1216 -0.5511  0.1284
  189SAPI  H10X21865   1.851   1.770   6.746  0.0960 -0.5317  1.5533
  189SAPI  H10Y21866   2.017   1.744   6.780  0.2797 -0.3780 -0.1459
  189SAPI  C31121867   1.994   1.791   6.589 -0.5838 -0.1490  0.1030
  189SAPI  H11X21868   1.957   1.691   6.557 -0.4819 -0.2013  0.1489
  189SAPI  H11Y21869   2.105   1.793   6.585 -0.5816 -1.1253 -1.0073
  189SAPI  C31221870   1.946   1.894   6.479  0.0737  0.4728 -1.0815
  189SAPI  H12X21871   1.967   1.996   6.518  1.0541 -0.5708  1.3861
  189SAPI  H12Y21872   1.841   1.894   6.443 -0.0397  0.1632 -0.7549
  189SAPI  C31321873   2.040   1.886   6.360 -0.3946 -0.2146  0.1000
  189SAPI  H13X21874   2.052   1.781   6.327 -1.4228  0.3276 -2.2673
  189SAPI  H13Y21875   2.138   1.922   6.399  0.1839 -0.7530 -0.8264
  189SAPI  C31421876   2.005   1.983   6.248 -0.3274  0.3203 -0.0846
  189SAPI  H14X21877   2.084   2.015   6.177  0.1462 -0.8577 -0.1045
  189SAPI  H14Y21878   1.978   2.082   6.289  2.5967  0.9853  0.4361
  189SAPI  C31521879   1.899   1.936   6.145 -0.0771  0.1651 -0.7386
  189SAPI  H15X21880   1.875   2.015   6.072 -0.3746 -0.1050 -0.9377
  189SAPI  H15Y21881   1.800   1.915   6.192  0.6450 -1.8295  0.0237
  189SAPI  C31621882   1.937   1.810   6.063 -0.0051  0.5541 -0.5234
  189SAPI  H16X21883   1.954   1.720   6.125  4.2395  0.1384 -1.9683
  189SAPI  H16Y21884   2.030   1.831   6.005  0.3005  2.0520  0.4397
  189SAPI  C31721885   1.827   1.769   5.961 -0.4490 -0.4914 -0.7699
  189SAPI  H17X21886   1.824   1.843   5.878  0.8158  0.2382 -0.1946
  189SAPI  H17Y21887   1.723   1.762   6.000 -0.1415  2.6631  0.9713
  189SAPI  C31821888   1.865   1.633   5.904 -0.5441 -0.2305 -0.8607
  189SAPI  H18X21889   1.852   1.548   5.975  1.0572 -0.0841 -0.3699
  189SAPI  H18Y21890   1.972   1.636   5.877 -0.4889  2.9273 -0.6606
  189SAPI  H18Z21891   1.797   1.627   5.816 -0.2236  1.3542 -1.2419
  190SAPI   C1221892   5.510   2.732   8.763 -0.0405 -0.0076 -0.2557
  190SAPI    H221893   5.594   2.675   8.808 -2.0549 -2.7761  0.2217
  190SAPI    O221894   5.473   2.679   8.637  0.5298 -0.0512  0.3857
  190SAPI   HO221895   5.548   2.695   8.580  1.0715  0.9504  1.3380
  190SAPI   C1321896   5.401   2.735   8.867  0.4750 -0.1327 -0.1936
  190SAPI    H321897   5.445   2.789   8.954 -2.1612 -1.6219  2.2365
  190SAPI    O321898   5.366   2.601   8.906 -0.1836  0.6161  0.4708
  190SAPI   HO321899   5.292   2.610   8.966 -0.3898  0.8879  0.1774
  190SAPI   C1421900   5.281   2.804   8.819 -0.9168 -0.1969  0.0035
  190SAPI    H421901   5.235   2.744   8.737  1.0781 -1.9258  0.0748
  190SAPI    O421902   5.182   2.821   8.916  0.2122  0.4455  0.0708
  190SAPI   HO421903   5.120   2.750   8.897  0.9430 -0.1817 -0.0245
  190SAPI   C1521904   5.317   2.947   8.765  0.7572 -1.1045 -0.7387
  190SAPI    H521905   5.312   3.019   8.849 -0.9268 -1.9987 -0.0424
  190SAPI    O521906   5.209   3.003   8.681 -0.1055  0.4712  0.4254
  190SAPI   HO521907   5.174   2.943   8.614 -0.5026  1.6615 -0.4587
  190SAPI   C1621908   5.452   2.970   8.697 -0.4245  0.8222 -0.5106
  190SAPI    H621909   5.427   2.939   8.593  1.0082 -1.3491 -0.2846
  190SAPI    O621910   5.501   3.104   8.692 -0.2192 -1.1205  0.1513
  190SAPI   HO621911   5.474   3.150   8.612  0.7434  1.1717  1.0867
  190SAPI   C1121912   5.562   2.870   8.741  0.8429 -0.1073  0.1277
  190SAPI    H121913   5.595   2.903   8.841 -0.9919 -0.9761  1.0655
  190SAPI     P21914   5.830   2.914   8.690 -0.2116 -0.1833  0.1840
  190SAPI   O1321915   5.872   2.841   8.812 -0.2078 -0.2514 -0.3060
  190SAPI   O1421916   5.828   3.062   8.688 -0.2577 -0.0015  0.1359
  190SAPI   O1221917   5.678   2.862   8.653  0.2743  0.2470 -0.6068
  190SAPI   O1121918   5.912   2.873   8.560 -0.5225  0.0898 -0.9808
  190SAPI    C121919   5.862   2.919   8.438  0.0024  0.0849 -0.1374
  190SAPI    HA21920   5.776   2.988   8.450  0.7659  1.6508 -2.8534
  190SAPI    HB21921   5.942   2.988   8.403  1.8030 -1.2410  1.1541
  190SAPI    C221922   5.836   2.815   8.328 -0.7015 -0.0556  0.1128
  190SAPI    HS21923   5.741   2.764   8.357  1.1214 -3.1299  1.2529
  190SAPI   O2121924   5.957   2.726   8.321  0.1694  0.4079  0.7591
  190SAPI   C2121925   5.949   2.601   8.286  0.3769  0.2263 -0.5675
  190SAPI   O2221926   5.839   2.543   8.261 -0.0091 -0.6097  0.7128
  190SAPI   C2221927   6.092   2.542   8.295  0.6388  0.1894 -0.4546
  190SAPI   H2R21928   6.160   2.608   8.352  1.1178  0.6756 -1.5556
  190SAPI   H2S21929   6.083   2.454   8.362  1.3045  0.5594  0.1336
  190SAPI    C321930   5.827   2.883   8.191  0.3758 -0.3466  0.1923
  190SAPI    HX21931   5.810   2.806   8.112  0.3492  2.5292 -2.8037
  190SAPI    HY21932   5.926   2.930   8.175  0.5500  0.0968  2.2349
  190SAPI   O3121933   5.718   2.969   8.170 -0.0649 -0.2065  0.3230
  190SAPI   C3121934   5.741   3.106   8.174  0.7326  0.0652 -0.1654
  190SAPI   O3221935   5.845   3.156   8.212 -0.3836  0.3889  0.1575
  190SAPI   C3221936   5.615   3.186   8.151  0.2925 -0.1899 -0.1432
  190SAPI   H2X21937   5.580   3.202   8.256 -1.9303  0.5554 -0.9328
  190SAPI   H2Y21938   5.545   3.126   8.088  0.9300 -0.4164 -0.6473
  190SAPI   C2321939   6.130   2.499   8.161  0.2700  0.5427  0.6117
  190SAPI   H3R21940   6.240   2.481   8.162  0.4757  1.6250 -0.4774
  190SAPI   H3S21941   6.106   2.571   8.080  1.4604 -0.1079 -0.3581
  190SAPI   C2421942   6.067   2.364   8.120 -0.0429 -0.3002 -0.4583
  190SAPI   H4R21943   5.958   2.371   8.102  0.2095  1.0710 -1.6470
  190SAPI   H4S21944   6.082   2.301   8.211  0.5597  1.0467  0.4063
  190SAPI   C2521945   6.117   2.289   8.003  0.0775 -0.9761  0.7980
  190SAPI   H5R21946   6.217   2.244   8.013  0.7859 -0.6543 -3.2323
  190SAPI   C2621947   6.060   2.271   7.880 -0.3229  0.6582  0.2381
  190SAPI   H6R21948   6.119   2.215   7.807 -2.5423 -1.1244 -0.3073
  190SAPI   C2721949   5.925   2.332   7.841  0.1457 -0.1245  0.2847
  190SAPI   H7R21950   5.860   2.359   7.926 -0.7294 -0.3426 -0.3046
  190SAPI   H7S21951   5.859   2.253   7.800  0.0712  0.0957 -0.0303
  190SAPI   C2821952   5.942   2.448   7.744 -0.3938 -0.4775  0.5068
  190SAPI   H8R21953   5.953   2.546   7.793  0.0867 -0.0807 -0.3725
  190SAPI   C2921954   5.928   2.443   7.610  0.1756 -0.3988 -0.0231
  190SAPI   H9R21955   5.958   2.536   7.561 -0.2571 -1.1932 -1.8814
  190SAPI  C21021956   5.887   2.328   7.522  0.0565 -0.4045  0.7063
  190SAPI  H10R21957   5.789   2.355   7.477  0.7646 -0.4709 -0.9697
  190SAPI  H10S21958   5.884   2.233   7.579 -3.2831  0.0069  1.4229
  190SAPI  C21121959   5.998   2.313   7.426 -0.1208  0.3977 -0.1907
  190SAPI  H11R21960   6.098   2.302   7.471 -0.4403  2.0256  1.0132
  190SAPI  C21221961   5.993   2.300   7.291  0.8701 -0.6616 -0.9293
  190SAPI  H12R21962   6.086   2.288   7.233  1.9619  1.2657  0.3255
  190SAPI  C21321963   5.865   2.311   7.205  0.6198  0.2400  0.1885
  190SAPI  H13R21964   5.782   2.303   7.279 -1.8324 -0.3246 -2.4235
  190SAPI  H13S21965   5.859   2.219   7.143 -1.6124  1.2131 -1.1513
  190SAPI  C21421966   5.846   2.433   7.116 -0.2309 -0.2678 -0.1210
  190SAPI  H14R21967   5.816   2.517   7.179 -1.9628 -1.4400  0.7058
  190SAPI  C21521968   5.868   2.448   6.979  0.2434 -0.0026 -0.2033
  190SAPI  H15R21969   5.865   2.541   6.921  1.7310 -0.0837 -0.4569
  190SAPI  C21621970   5.921   2.343   6.887 -0.1133  0.2829 -0.3133
  190SAPI  H16R21971   5.833   2.276   6.873 -0.4303 -0.0043  2.5602
  190SAPI  H16S21972   6.008   2.292   6.933  1.2495  0.4286 -2.5567
  190SAPI  C21721973   5.973   2.400   6.750 -0.1420  0.1190  0.9670
  190SAPI  H17R21974   6.036   2.321   6.704  0.3813  1.3125 -0.4467
  190SAPI  H17S21975   6.028   2.496   6.756 -2.2611  1.6917 -2.2002
  190SAPI  C21821976   5.856   2.419   6.651  0.5178  0.3504  0.3427
  190SAPI  H18R21977   5.803   2.506   6.696 -0.8174 -0.3389  0.1570
  190SAPI  H18S21978   5.798   2.324   6.655 -1.8563  1.3232 -4.0199
  190SAPI  C21921979   5.892   2.449   6.506  0.5562  0.1187  0.9457
  190SAPI  H19R21980   5.975   2.384   6.471  1.5722  1.3942  0.9174
  190SAPI  H19S21981   5.932   2.552   6.493 -0.7134  0.4967 -0.3164
  190SAPI  C22021982   5.766   2.438   6.415  0.1591  0.6889  0.3207
  190SAPI  H20R21983   5.699   2.525   6.430 -0.0294  0.1589  3.0787
  190SAPI  H20S21984   5.718   2.343   6.450  3.3181 -1.6773 -1.2642
  190SAPI  H20T21985   5.795   2.419   6.309  2.8858 -1.5823  1.3442
  190SAPI   C3321986   5.641   3.313   8.068 -0.1374 -0.4976 -0.5969
  190SAPI   H3X21987   5.701   3.378   8.134 -1.2254 -0.1602  0.0819
  190SAPI   H3Y21988   5.542   3.360   8.052 -0.3980 -0.9088 -0.1944
  190SAPI   C3421989   5.716   3.289   7.940 -0.2591 -0.2288 -0.0229
  190SAPI   H4X21990   5.795   3.211   7.949 -1.3163 -1.5101 -1.3755
  190SAPI   H4Y21991   5.758   3.385   7.903 -2.4838  0.4447 -0.9589
  190SAPI   C3521992   5.625   3.227   7.830 -0.2372 -0.8282 -0.7229
  190SAPI   H5X21993   5.570   3.313   7.787  0.7722 -0.9765 -2.3835
  190SAPI   H5Y21994   5.550   3.154   7.868  0.0235  0.1686  1.9314
  190SAPI   C3621995   5.704   3.157   7.718  0.5845  0.5188  0.9129
  190SAPI   H6X21996   5.720   3.060   7.769  1.4406  0.7939  1.1771
  190SAPI   H6Y21997   5.808   3.190   7.696  0.8009 -1.0344 -0.5480
  190SAPI   C3721998   5.626   3.137   7.582  0.0516 -0.0947 -0.6088
  190SAPI   H7X21999   5.517   3.160   7.585  0.0596 -0.1049  1.5531
  190SAPI   H7Y22000   5.634   3.028   7.560 -0.8956 -0.0038 -1.4827
  190SAPI   C3822001   5.684   3.227   7.467  0.1730  0.7251  0.2644
  190SAPI   H8X22002   5.793   3.206   7.465 -0.3472 -2.6933 -2.7204
  190SAPI   H8Y22003   5.669   3.335   7.487  0.9997  0.6569  1.3511
  190SAPI   C3922004   5.614   3.209   7.328  0.4077  0.1010  0.1351
  190SAPI   H9X22005   5.510   3.246   7.338  0.8766  1.6201 -0.2278
  190SAPI   H9Y22006   5.618   3.101   7.302  1.2422  0.4266 -1.1915
  190SAPI  C31022007   5.684   3.298   7.225 -0.9952  0.8250 -0.0333
  190SAPI  H10X22008   5.794   3.279   7.233 -1.2039 -0.4460  0.0397
  190SAPI  H10Y22009   5.656   3.402   7.253 -2.4878  0.0512  1.4927
  190SAPI  C31122010   5.630   3.275   7.082  0.0845  0.4069 -0.0239
  190SAPI  H11X22011   5.536   3.333   7.068  0.3125  0.7769 -0.0380
  190SAPI  H11Y22012   5.613   3.166   7.082  2.1899  0.0294  0.2117
  190SAPI  C31222013   5.738   3.312   6.975  0.2310  0.2438  0.5822
  190SAPI  H12X22014   5.829   3.248   6.978 -1.0443 -1.6442  0.1511
  190SAPI  H12Y22015   5.771   3.417   6.995  0.6606  0.0699  0.8091
  190SAPI  C31322016   5.686   3.308   6.831  0.6358  0.4893 -0.3731
  190SAPI  H13X22017   5.611   3.391   6.828 -0.3079 -0.0213  3.5946
  190SAPI  H13Y22018   5.652   3.204   6.810  2.7306 -0.0925 -1.0749
  190SAPI  C31422019   5.788   3.336   6.723  0.0896 -0.3645  0.1088
  190SAPI  H14X22020   5.886   3.288   6.745  0.6868 -0.1768 -1.8904
  190SAPI  H14Y22021   5.814   3.444   6.718  1.9216 -0.7727 -0.0136
  190SAPI  C31522022   5.752   3.287   6.584  0.3936  0.3289 -0.3305
  190SAPI  H15X22023   5.663   3.342   6.549  1.0638  0.4589 -1.9234
  190SAPI  H15Y22024   5.725   3.179   6.587  0.7094  0.2387 -0.5776
  190SAPI  C31622025   5.875   3.312   6.491  0.2010 -0.0412  0.0348
  190SAPI  H16X22026   5.910   3.417   6.496  1.3409 -0.4288  0.6495
  190SAPI  H16Y22027   5.841   3.310   6.385 -0.1980  1.3400  0.1239
  190SAPI  C31722028   6.019   3.234   6.517  0.1471 -0.0347 -0.3015
  190SAPI  H17X22029   5.985   3.128   6.519  1.0468 -0.3372 -0.4519
  190SAPI  H17Y22030   6.048   3.275   6.615 -2.5591  0.7149  0.2624
  190SAPI  C31822031   6.123   3.240   6.406 -0.7711 -0.7977 -0.2127
  190SAPI  H18X22032   6.075   3.221   6.307 -2.8573  0.8308  0.4246
  190SAPI  H18Y22033   6.199   3.159   6.411  0.6122  0.2491 -2.6326
  190SAPI  H18Z22034   6.180   3.335   6.409  0.1773 -1.3768  0.7449
  191SAPI   C1222035   0.657   1.159   3.683  0.3617 -0.2611 -0.3788
  191SAPI    H222036   0.587   1.230   3.634 -0.1818 -0.2116  0.4499
  191SAPI    O222037   0.576   1.043   3.703  0.0527  0.0472  0.7618
  191SAPI   HO222038   0.498   1.062   3.756 -1.7485 -0.4687 -1.5474
  191SAPI   C1322039   0.768   1.125   3.585 -0.2434 -0.2205  0.0487
  191SAPI    H322040   0.830   1.217   3.579 -0.8492  0.4476  2.5830
  191SAPI    O322041   0.718   1.098   3.452 -0.1628  0.3961  0.1854
  191SAPI   HO322042   0.654   1.027   3.454 -0.7144  0.8788  0.0842
  191SAPI   C1422043   0.859   1.014   3.634  0.3115 -0.8134  0.1981
  191SAPI    H422044   0.792   0.927   3.652  0.7146 -1.0059  0.8277
  191SAPI    O422045   0.961   0.970   3.542  0.3249  0.1883  0.5728
  191SAPI   HO422046   0.967   0.874   3.546 -1.3889  0.0027 -0.0445
  191SAPI   C1522047   0.919   1.048   3.771 -0.3052 -1.1183  0.5011
  191SAPI    H522048   1.004   1.119   3.759 -0.2074 -1.0118  1.6379
  191SAPI    O522049   0.962   0.930   3.836 -0.0904 -0.7723 -0.4073
  191SAPI   HO522050   1.024   0.897   3.770 -0.9237  2.9560 -3.4071
  191SAPI   C1622051   0.836   1.141   3.867  0.2957  0.3711  0.8920
  191SAPI    H622052   0.779   1.065   3.925  1.4219 -0.0686  1.4582
  191SAPI    O622053   0.917   1.211   3.957 -0.1418 -0.1683  0.1948
  191SAPI   HO622054   0.926   1.157   4.036 -2.7398 -0.1053  0.6105
  191SAPI   C1122055   0.717   1.225   3.809  0.1173  0.2588  0.1125
  191SAPI    H122056   0.757   1.322   3.772 -1.1347 -0.0704 -2.3239
  191SAPI     P22057   0.524   1.381   3.906  0.5148 -0.1037 -0.2129
  191SAPI   O1322058   0.417   1.347   4.006  0.6975 -0.4017  0.2748
  191SAPI   O1422059   0.478   1.420   3.775  0.4117 -0.1148 -0.0375
  191SAPI   O1222060   0.618   1.250   3.910 -0.7662 -0.0676  0.0975
  191SAPI   O1122061   0.610   1.498   3.968  0.1131  0.0526  0.1926
  191SAPI    C122062   0.719   1.478   4.049 -0.2549 -0.2484 -0.6586
  191SAPI    HA22063   0.715   1.385   4.110  1.4894 -1.4245 -2.1946
  191SAPI    HB22064   0.812   1.453   3.992 -0.1168  0.9835 -0.9989
  191SAPI    C222065   0.760   1.599   4.144  0.9966  0.2596  0.0636
  191SAPI    HS22066   0.848   1.576   4.208 -0.4245  1.6426  2.6887
  191SAPI   O2122067   0.647   1.638   4.227  0.5673  0.8109  0.3447
  191SAPI   C2122068   0.633   1.567   4.337 -0.5072 -0.2588 -0.6824
  191SAPI   O2222069   0.711   1.481   4.377 -0.4554 -0.6472 -0.1459
  191SAPI   C2222070   0.499   1.612   4.402 -0.4921 -0.0932  0.2786
  191SAPI   H2R22071   0.456   1.701   4.351 -0.0790  2.1753  3.5975
  191SAPI   H2S22072   0.428   1.529   4.380  0.0046 -0.5959  0.5509
  191SAPI    C322073   0.805   1.727   4.065 -0.9861  0.3983  0.6943
  191SAPI    HX22074   0.716   1.783   4.029  0.2840  1.0739 -1.6007
  191SAPI    HY22075   0.863   1.689   3.978 -1.0883 -1.8193  1.5219
  191SAPI   O3122076   0.884   1.814   4.151 -0.0752 -0.1779  0.5256
  191SAPI   C3122077   0.817   1.922   4.205 -0.7972 -0.5222 -0.3953
  191SAPI   O3222078   0.702   1.952   4.184  0.0469  0.1070  0.3327
  191SAPI   C3222079   0.914   2.009   4.291  0.2751  0.5915 -0.1807
  191SAPI   H2X22080   0.993   2.041   4.220  0.9827 -1.7838 -0.5416
  191SAPI   H2Y22081   0.958   1.942   4.368 -2.4999 -1.1718  0.0087
  191SAPI   C2322082   0.517   1.634   4.546 -0.4421  0.2991  0.0163
  191SAPI   H3R22083   0.536   1.542   4.607 -0.0852  1.5667  1.9223
  191SAPI   H3S22084   0.421   1.666   4.591 -0.6642 -1.8101  1.2100
  191SAPI   C2422085   0.615   1.756   4.581  0.3675  0.4183 -0.9761
  191SAPI   H4R22086   0.716   1.735   4.541  0.5907  1.6909 -1.0987
  191SAPI   H4S22087   0.625   1.771   4.690  1.3167  0.9414 -1.1297
  191SAPI   C2522088   0.576   1.888   4.523 -0.1505  0.1927  0.0345
  191SAPI   H5R22089   0.575   1.873   4.414  0.2653 -1.7318  0.2564
  191SAPI   C2622090   0.559   2.008   4.583 -0.0280 -0.4546 -0.0923
  191SAPI   H6R22091   0.527   2.098   4.528  1.1985  0.1064  0.0763
  191SAPI   C2722092   0.574   2.027   4.734 -0.6947  0.3525 -0.2376
  191SAPI   H7R22093   0.661   1.968   4.771 -0.7036  1.9942  2.6349
  191SAPI   H7S22094   0.480   1.986   4.778  0.1226 -1.2323  0.1189
  191SAPI   C2822095   0.584   2.171   4.781  0.6028  0.9514  0.5374
  191SAPI   H8R22096   0.583   2.239   4.695 -1.4192 -0.6611 -0.8204
  191SAPI   C2922097   0.573   2.216   4.908 -0.7730 -0.1390  0.9402
  191SAPI   H9R22098   0.586   2.323   4.932  2.7406 -0.8531  3.0364
  191SAPI  C21022099   0.581   2.134   5.037 -0.4189 -0.2677 -0.4045
  191SAPI  H10R22100   0.650   2.051   5.013 -1.0750 -0.3681 -2.1446
  191SAPI  H10S22101   0.481   2.088   5.050 -0.8251  0.9967  1.2183
  191SAPI  C21122102   0.633   2.218   5.150 -0.2774 -0.6253 -0.3916
  191SAPI  H11R22103   0.695   2.308   5.135 -0.7983  0.0633  1.2922
  191SAPI  C21222104   0.593   2.215   5.281 -1.0545  0.1930  0.4316
  191SAPI  H12R22105   0.640   2.293   5.343  1.0295  0.1214 -0.9518
  191SAPI  C21322106   0.486   2.122   5.337 -0.3040  0.5822  0.5532
  191SAPI  H13R22107   0.461   2.046   5.260  1.0419  2.3203 -1.7129
  191SAPI  H13S22108   0.390   2.174   5.356 -0.0877  0.6423  1.5715
  191SAPI  C21422109   0.531   2.060   5.469  0.0817 -0.7791  0.0208
  191SAPI  H14R22110   0.505   2.129   5.550 -0.4668 -0.4425 -0.4331
  191SAPI  C21522111   0.600   1.949   5.493  0.0138  0.4276  0.1131
  191SAPI  H15R22112   0.637   1.933   5.595  0.3401  0.8346  0.0606
  191SAPI  C21622113   0.660   1.841   5.400  0.3183 -0.9583  0.6401
  191SAPI  H16R22114   0.662   1.748   5.462  2.3280 -0.4353  1.4382
  191SAPI  H16S22115   0.765   1.862   5.371  1.0053 -1.7445  2.4324
  191SAPI  C21722116   0.585   1.805   5.267  0.5373  0.6648  0.0631
  191SAPI  H17R22117   0.576   1.899   5.209  0.5916  1.5593  1.4663
  191SAPI  H17S22118   0.487   1.752   5.271  0.1050  1.1042 -2.6478
  191SAPI  C21822119   0.668   1.696   5.193  0.3289 -0.5332  0.0301
  191SAPI  H18R22120   0.654   1.602   5.251 -0.6924  0.0843  0.8246
  191SAPI  H18S22121   0.777   1.718   5.188  0.2035 -0.1295 -1.3551
  191SAPI  C21922122   0.619   1.678   5.050 -0.5575  0.5479  0.4995
  191SAPI  H19R22123   0.656   1.582   5.008 -1.5659  0.4134 -0.1133
  191SAPI  H19S22124   0.660   1.759   4.987  1.9016 -0.9927  0.0034
  191SAPI  C22022125   0.464   1.659   5.031 -0.1904 -0.6140 -0.1785
  191SAPI  H20R22126   0.412   1.734   5.095  1.0735  1.1195 -1.0943
  191SAPI  H20S22127   0.449   1.560   5.079  1.3543  0.3826  2.5502
  191SAPI  H20T22128   0.424   1.668   4.928  2.8713 -1.0700 -1.5089
  191SAPI   C3322129   0.853   2.138   4.349 -0.0532  0.4101 -0.1787
  191SAPI   H3X22130   0.786   2.101   4.429  2.0665 -1.4718  0.8322
  191SAPI   H3Y22131   0.793   2.189   4.271  1.4808  1.3038 -0.8167
  191SAPI   C3422132   0.949   2.244   4.398  0.4922  0.1534  0.0904
  191SAPI   H4X22133   1.004   2.299   4.319  2.2063 -0.6787  0.6689
  191SAPI   H4Y22134   1.025   2.197   4.465  1.5455  1.7930  0.0900
  191SAPI   C3522135   0.869   2.347   4.470  0.2312 -0.3622  0.3702
  191SAPI   H5X22136   0.764   2.350   4.433  0.1281 -0.4413  0.6583
  191SAPI   H5Y22137   0.905   2.450   4.451  0.3879 -0.4384  0.2475
  191SAPI   C3622138   0.867   2.313   4.617 -0.1513 -0.8966  0.3465
  191SAPI   H6X22139   0.971   2.308   4.655  0.5240 -0.3842 -1.3554
  191SAPI   H6Y22140   0.828   2.210   4.633  1.9076 -1.9255 -0.9329
  191SAPI   C3722141   0.801   2.422   4.713  0.0175  0.6843  0.4541
  191SAPI   H7X22142   0.691   2.414   4.720  0.2032 -2.3741  1.0935
  191SAPI   H7Y22143   0.826   2.520   4.667  1.2982  0.4528  0.6047
  191SAPI   C3822144   0.858   2.414   4.858  0.5257 -0.5081  0.6566
  191SAPI   H8X22145   0.968   2.423   4.850  0.3676  1.5606 -0.0304
  191SAPI   H8Y22146   0.838   2.309   4.889 -0.2872 -0.1781  1.2996
  191SAPI   C3922147   0.798   2.525   4.951 -0.4060  0.0078  0.3697
  191SAPI   H9X22148   0.692   2.498   4.970 -1.0317  2.1472  0.1483
  191SAPI   H9Y22149   0.805   2.626   4.907 -0.6868 -0.9674 -2.0478
  191SAPI  C31022150   0.867   2.524   5.089 -0.2248 -0.3550 -1.0730
  191SAPI  H10X22151   0.958   2.588   5.102  0.3946 -1.3205 -0.5652
  191SAPI  H10Y22152   0.891   2.426   5.134 -0.2211 -0.1549 -0.6335
  191SAPI  C31122153   0.766   2.582   5.198 -0.6937  0.2629  0.2587
  191SAPI  H11X22154   0.666   2.537   5.178 -1.4552  1.9708  0.0888
  191SAPI  H11Y22155   0.751   2.692   5.201  2.0827  0.7265  0.0771
  191SAPI  C31222156   0.813   2.545   5.344 -0.4387  0.4360  0.3460
  191SAPI  H12X22157   0.917   2.581   5.360 -0.3084 -0.0048  0.5270
  191SAPI  H12Y22158   0.826   2.434   5.346  0.3694  0.5072 -0.3111
  191SAPI  C31322159   0.716   2.593   5.454 -0.5920  0.1135  0.6485
  191SAPI  H13X22160   0.765   2.546   5.542  1.1470  1.1546  0.2784
  191SAPI  H13Y22161   0.615   2.547   5.445  0.4457 -2.3264  0.6083
  191SAPI  C31422162   0.723   2.740   5.487  0.0534  0.3645  0.4136
  191SAPI  H14X22163   0.677   2.795   5.402 -1.5265  0.4911  1.3221
  191SAPI  H14Y22164   0.831   2.768   5.486  0.1040  0.1817  0.6173
  191SAPI  C31522165   0.656   2.773   5.622 -0.1935  0.5956 -0.2271
  191SAPI  H15X22166   0.723   2.737   5.703 -0.1116  1.5512  0.1528
  191SAPI  H15Y22167   0.560   2.717   5.622 -0.2993  0.7330  1.1766
  191SAPI  C31622168   0.637   2.926   5.641  0.1728  0.4406  0.0534
  191SAPI  H16X22169   0.589   2.960   5.547 -1.6310 -1.7639  0.1103
  191SAPI  H16Y22170   0.738   2.973   5.643  0.4276  0.0744 -2.1918
  191SAPI  C31722171   0.547   2.967   5.759  0.0882 -0.1190  0.5997
  191SAPI  H17X22172   0.443   2.933   5.740  0.0982  0.5205 -0.7426
  191SAPI  H17Y22173   0.541   3.078   5.759 -0.7710 -0.1516  1.7072
  191SAPI  C31822174   0.597   2.915   5.894  0.8976 -0.1393 -0.2013
  191SAPI  H18X22175   0.707   2.926   5.888  0.8979 -0.6384 -1.3878
  191SAPI  H18Y22176   0.562   2.812   5.914 -1.0266  0.5752  0.3704
  191SAPI  H18Z22177   0.566   2.978   5.980  0.5454  1.3491 -1.3697
  192SAPI   C1222178   3.116   6.516   3.673  0.1428 -0.3557  0.0241
  192SAPI    H222179   3.117   6.605   3.606  1.0261 -1.0406 -0.8934
  192SAPI    O222180   3.066   6.406   3.601 -0.1346  0.0102 -0.6049
  192SAPI   HO222181   2.974   6.420   3.577 -1.3369 -1.3879  2.6269
  192SAPI   C1322182   3.256   6.479   3.722  0.0592 -0.2464  0.5500
  192SAPI    H322183   3.299   6.570   3.770  0.7149 -0.2253 -0.0591
  192SAPI    O322184   3.332   6.462   3.602  0.4347  0.6961  0.7402
  192SAPI   HO322185   3.280   6.397   3.555  1.3931  2.1383 -2.6186
  192SAPI   C1422186   3.260   6.357   3.823  0.2676  0.0990  0.0693
  192SAPI    H422187   3.230   6.267   3.765  1.5322  0.3148 -0.9724
  192SAPI    O422188   3.388   6.329   3.872 -0.1558 -0.1574  0.2242
  192SAPI   HO422189   3.401   6.238   3.898 -0.5373  0.2676  1.9985
  192SAPI   C1522190   3.163   6.383   3.934  0.5893  0.7927 -0.5628
  192SAPI    H522191   3.213   6.456   4.002 -0.7754 -0.5576  2.0186
  192SAPI    O522192   3.153   6.260   4.001  1.0164 -0.4088 -0.4183
  192SAPI   HO522193   3.181   6.277   4.092 -2.7421 -0.6355  0.9687
  192SAPI   C1622194   3.029   6.456   3.906 -0.3172 -0.2998  0.2700
  192SAPI    H622195   2.962   6.375   3.867  0.0452 -1.9641  2.8352
  192SAPI    O622196   2.970   6.514   4.020 -0.1262  0.0504  0.1249
  192SAPI   HO622197   2.888   6.557   3.996  0.4502  0.6780 -0.7901
  192SAPI   C1122198   3.030   6.557   3.790 -0.1431  0.4067  0.0277
  192SAPI    H122199   3.067   6.656   3.825 -1.8656  1.0846  0.0407
  192SAPI     P22200   2.815   6.716   3.806 -0.0902 -0.0222  0.2043
  192SAPI   O1322201   2.709   6.752   3.708  0.0772 -0.4923 -0.6081
  192SAPI   O1422202   2.912   6.821   3.834 -0.1729  0.6120 -0.0680
  192SAPI   O1222203   2.891   6.581   3.742  0.2373 -0.3052 -0.4727
  192SAPI   O1122204   2.747   6.667   3.944 -0.4772 -0.0733  0.2761
  192SAPI    C122205   2.636   6.739   4.001  0.1017  0.1309  0.3770
  192SAPI    HA22206   2.674   6.838   4.034 -0.6974 -0.0954  2.0865
  192SAPI    HB22207   2.544   6.753   3.939  0.7264 -0.8597 -0.8105
  192SAPI    C222208   2.578   6.675   4.131  0.5175 -0.5057 -0.4439
  192SAPI    HS22209   2.475   6.714   4.143  0.6538 -0.1127 -0.5482
  192SAPI   O2122210   2.657   6.717   4.242 -0.2752 -0.3935  0.2583
  192SAPI   C2122211   2.624   6.823   4.296  0.5668 -1.0153 -0.4788
  192SAPI   O2222212   2.528   6.892   4.269  0.3035  0.4619  0.1735
  192SAPI   C2222213   2.720   6.848   4.418  0.9630 -0.6498 -0.4848
  192SAPI   H2R22214   2.771   6.753   4.442 -1.8061 -2.2282 -0.3804
  192SAPI   H2S22215   2.805   6.914   4.394  0.5602 -0.7608 -2.3924
  192SAPI    C322216   2.572   6.525   4.118  0.3568  0.8642  0.8504
  192SAPI    HX22217   2.681   6.511   4.101 -0.0978  0.7320 -2.7367
  192SAPI    HY22218   2.520   6.487   4.027  1.1913  2.1248 -0.2031
  192SAPI   O3122219   2.515   6.465   4.237 -0.2123 -0.5136  0.5419
  192SAPI   C3122220   2.589   6.380   4.298  0.2547  0.5877  0.2242
  192SAPI   O3222221   2.675   6.310   4.247  0.6010 -0.0578 -0.2435
  192SAPI   C3222222   2.545   6.365   4.440  0.7021  0.0824 -0.1390
  192SAPI   H2X22223   2.507   6.459   4.486  1.5770  0.3011  0.1510
  192SAPI   H2Y22224   2.627   6.336   4.509 -0.1356  2.0970  1.8428
  192SAPI   C2322225   2.653   6.918   4.543 -0.2894 -0.3376  0.1289
  192SAPI   H3R22226   2.571   6.983   4.506 -0.2902 -0.3471  0.1143
  192SAPI   H3S22227   2.735   6.976   4.590 -0.5934  0.7696 -0.6799
  192SAPI   C2422228   2.567   6.825   4.641 -0.5821  0.2107  0.1649
  192SAPI   H4R22229   2.541   6.740   4.574  2.4980 -1.4975  0.9411
  192SAPI   H4S22230   2.481   6.886   4.677 -1.0272 -0.6715  0.6078
  192SAPI   C2522231   2.654   6.769   4.746 -0.4022  0.0089 -0.1516
  192SAPI   H5R22232   2.740   6.708   4.713  1.1963  2.2492 -0.3135
  192SAPI   C2622233   2.633   6.781   4.879 -0.4610 -0.0640  0.0689
  192SAPI   H6R22234   2.691   6.708   4.937 -0.6314  0.0898  0.4369
  192SAPI   C2722235   2.540   6.863   4.959  0.5332  0.0589 -0.0762
  192SAPI   H7R22236   2.503   6.808   5.049 -2.3930 -1.8843 -2.2609
  192SAPI   H7S22237   2.448   6.877   4.899 -0.1803 -1.3822  0.6043
  192SAPI   C2822238   2.587   7.001   4.982 -0.4642  0.0530 -0.1924
  192SAPI   H8R22239   2.630   7.053   4.895 -1.0558  3.0639  1.2102
  192SAPI   C2922240   2.574   7.063   5.100 -0.2459 -0.2789 -0.0160
  192SAPI   H9R22241   2.614   7.165   5.110 -0.3027 -0.3442  0.9678
  192SAPI  C21022242   2.519   7.013   5.228 -0.2569  0.1220 -0.4330
  192SAPI  H10R22243   2.578   7.042   5.318 -2.5595  0.9111  0.9046
  192SAPI  H10S22244   2.540   6.904   5.231  1.4910  0.4411  0.4628
  192SAPI  C21122245   2.372   7.035   5.229 -0.4036  0.1970  0.5344
  192SAPI  H11R22246   2.333   7.027   5.127 -1.3358 -3.0149  1.0299
  192SAPI  C21222247   2.291   7.057   5.325  0.7441  0.5439 -0.3442
  192SAPI  H12R22248   2.182   7.062   5.312  0.3880  0.9557  2.3159
  192SAPI  C21322249   2.333   7.077   5.473 -0.0734  0.6297  0.1170
  192SAPI  H13R22250   2.414   7.153   5.477  0.5143 -0.0275  2.1810
  192SAPI  H13S22251   2.377   6.988   5.522  0.1522  1.2499  1.0714
  192SAPI  C21422252   2.212   7.133   5.548  0.5889  0.6239  0.1904
  192SAPI  H14R22253   2.154   7.210   5.496  0.2452  0.6030  0.5361
  192SAPI  C21522254   2.188   7.094   5.675  0.2506  0.5722 -0.2795
  192SAPI  H15R22255   2.101   7.134   5.730  0.4688 -1.4086  1.6644
  192SAPI  C21622256   2.285   7.019   5.767 -0.4971  0.4000  0.3351
  192SAPI  H16R22257   2.387   7.037   5.728 -1.4103  1.5001 -1.7220
  192SAPI  H16S22258   2.277   6.908   5.768 -0.0296  0.1202 -4.4633
  192SAPI  C21722259   2.273   7.057   5.915  0.4707 -0.6968 -0.1531
  192SAPI  H17R22260   2.323   6.982   5.980  1.3592 -1.0376 -1.2048
  192SAPI  H17S22261   2.168   7.068   5.950  1.0527  0.0978  1.4096
  192SAPI  C21822262   2.337   7.193   5.950  0.2676  0.2438  0.1427
  192SAPI  H18R22263   2.265   7.266   5.907  0.8204  0.7831  0.1126
  192SAPI  H18S22264   2.437   7.203   5.902  0.3771 -0.0648  0.3058
  192SAPI  C21922265   2.332   7.201   6.107  0.1860  0.2178  0.2903
  192SAPI  H19R22266   2.357   7.103   6.152  1.2874 -1.1556 -2.9619
  192SAPI  H19S22267   2.226   7.217   6.136  0.1813 -0.6995  0.8270
  192SAPI  C22022268   2.415   7.310   6.162 -0.0699 -0.3099  0.2044
  192SAPI  H20R22269   2.388   7.318   6.270  1.4090  0.4708  0.5366
  192SAPI  H20S22270   2.402   7.405   6.107  2.7451 -0.4529 -0.8485
  192SAPI  H20T22271   2.524   7.288   6.165  0.0389  0.2798  2.4594
  192SAPI   C3322272   2.429   6.261   4.463 -0.3518  0.8872  0.6511
  192SAPI   H3X22273   2.464   6.159   4.436  0.0073  1.3557 -0.6834
  192SAPI   H3Y22274   2.347   6.297   4.397 -0.5762  1.7953  1.3922
  192SAPI   C3422275   2.382   6.250   4.612  0.1742  0.9838  0.2907
  192SAPI   H4X22276   2.300   6.175   4.612  1.5008 -0.5370  1.4205
  192SAPI   H4Y22277   2.344   6.344   4.656  0.4248 -0.2596  3.3941
  192SAPI   C3522278   2.483   6.195   4.708  0.1158  0.9385  0.2700
  192SAPI   H5X22279   2.577   6.253   4.693  0.5029  0.2699  0.1007
  192SAPI   H5Y22280   2.510   6.094   4.671  2.4608  0.8029  2.0678
  192SAPI   C3622281   2.441   6.199   4.857  0.2350 -0.1679  0.0212
  192SAPI   H6X22282   2.401   6.097   4.880 -3.3761  0.1155 -3.6829
  192SAPI   H6Y22283   2.362   6.277   4.861 -0.2863 -0.5877 -1.4773
  192SAPI   C3722284   2.547   6.221   4.961 -0.1324  0.0297 -0.8181
  192SAPI   H7X22285   2.633   6.270   4.911 -0.1094 -0.0549 -0.8609
  192SAPI   H7Y22286   2.581   6.122   5.000  2.2957  1.7026  1.7203
  192SAPI   C3822287   2.513   6.307   5.081  0.1648  0.4886 -0.6383
  192SAPI   H8X22288   2.404   6.303   5.103  0.3447  0.8022  0.3893
  192SAPI   H8Y22289   2.530   6.414   5.056  0.9863  0.2057 -1.3101
  192SAPI   C3922290   2.578   6.270   5.215 -0.0250 -0.1924  0.2441
  192SAPI   H9X22291   2.685   6.297   5.226 -0.1141 -0.2007  1.2525
  192SAPI   H9Y22292   2.566   6.160   5.229 -1.1564 -0.6555 -3.3242
  192SAPI  C31022293   2.523   6.349   5.334 -0.0384  0.3205  0.0475
  192SAPI  H10X22294   2.551   6.296   5.427 -0.2562  0.8069  0.3989
  192SAPI  H10Y22295   2.412   6.346   5.328 -0.0451  1.1376 -0.5010
  192SAPI  C31122296   2.577   6.492   5.322  0.5594  0.7543 -0.4759
  192SAPI  H11X22297   2.537   6.549   5.235 -0.9925 -0.5538 -0.6817
  192SAPI  H11Y22298   2.688   6.486   5.321  0.5685  0.9435 -0.6878
  192SAPI  C31222299   2.550   6.587   5.439  0.2631 -0.3064 -0.1926
  192SAPI  H12X22300   2.443   6.613   5.455  0.4846  0.6215 -0.1618
  192SAPI  H12Y22301   2.598   6.682   5.409  2.6289 -1.9140 -1.9119
  192SAPI  C31322302   2.591   6.525   5.573 -0.4386 -0.1570 -0.1513
  192SAPI  H13X22303   2.692   6.478   5.570 -1.3893 -2.3582  0.0853
  192SAPI  H13Y22304   2.514   6.450   5.602 -0.7499 -0.3458 -1.4166
  192SAPI  C31422305   2.597   6.640   5.676 -0.1268 -0.3909  0.5552
  192SAPI  H14X22306   2.496   6.688   5.675 -0.1222 -0.3479  1.2943
  192SAPI  H14Y22307   2.679   6.701   5.633 -0.3441 -0.5078 -0.0363
  192SAPI  C31522308   2.642   6.605   5.821 -0.6646  1.0255 -0.6138
  192SAPI  H15X22309   2.727   6.536   5.804 -2.1050 -0.3671 -2.6176
  192SAPI  H15Y22310   2.564   6.540   5.866  0.4565 -0.4852 -0.7655
  192SAPI  C31622311   2.681   6.726   5.910  0.4914  0.1329  0.6745
  192SAPI  H16X22312   2.600   6.801   5.924  0.6291 -0.0849  3.0423
  192SAPI  H16Y22313   2.768   6.779   5.865  1.1525  0.6626  2.4799
  192SAPI  C31722314   2.738   6.676   6.044  0.3537  0.2782  0.4473
  192SAPI  H17X22315   2.824   6.608   6.028 -0.6753 -0.4847 -2.3910
  192SAPI  H17Y22316   2.655   6.619   6.091 -0.3095  0.8876  0.0346
  192SAPI  C31822317   2.793   6.785   6.139 -0.0405  0.2770 -0.0346
  192SAPI  H18X22318   2.894   6.809   6.100 -0.1770  0.4134 -0.3091
  192SAPI  H18Y22319   2.789   6.750   6.244 -0.9415  2.9181  0.9126
  192SAPI  H18Z22320   2.721   6.867   6.117 -1.0070 -1.1441 -2.6351
  193SOD    SOD22321   0.763   6.786   3.052 -0.2074 -0.2399  0.0820
  194SOD    SOD22322   6.626   4.741   3.363  0.0892 -0.4039  0.5341
  195SOD    SOD22323   6.316   6.304   2.403  0.3007 -0.4220  0.0017
  196SOD    SOD22324   5.433   2.435   2.957 -0.0079  0.5074  0.2055
  197SOD    SOD22325   6.835   1.134   8.265  0.4748  0.2062  0.2134
  198SOD    SOD22326   1.274   0.827   8.372 -0.1157  0.1950 -0.0601
  199SOD    SOD22327   1.118   2.562   2.545  0.5080  0.4838 -0.1342
  200SOD    SOD22328   3.865   2.420   2.692 -0.3878 -0.1616 -0.2324
  201SOD    SOD22329   2.902   3.817   1.620 -0.1596  0.0720 -0.5627
  202SOD    SOD22330   6.209   2.500   2.424 -0.3653 -0.1723  0.3819
  203SOD    SOD22331   5.267   4.596   8.101 -0.2868  0.4981  0.3710
  204SOD    SOD22332   3.929   0.098   8.419  0.0699  0.0173 -0.0691
  205SOD    SOD22333   5.422   1.879   3.819  0.1567  0.0381  0.1291
  206SOD    SOD22334   4.314   4.313   0.787 -0.0527 -0.5044  0.1680
  207SOD    SOD22335   1.651   3.293   0.554  0.4946 -0.3100  0.0228
  208SOD    SOD22336   1.025   4.284   1.291  0.1022 -0.3215 -0.2978
  209SOD    SOD22337   4.353   6.581   1.356  0.0655  0.0767  0.1845
  210SOD    SOD22338   5.230   4.599   3.567  0.4635  0.2910 -0.0401
  211SOD    SOD22339   3.202   5.667   1.144 -0.8625  0.2741  0.1398
  212SOD    SOD22340   3.098   5.228   3.880 -0.3548 -0.1185 -0.6137
  213SOD    SOD22341   4.059   1.955   2.640 -0.3903 -0.1585  0.2157
  214SOD    SOD22342   4.000   2.863   1.640  0.1059  0.0185 -0.4950
  215SOD    SOD22343   0.698   3.211   8.635  0.0879  0.2315  0.3879
  216SOD    SOD22344   1.150   5.480   2.201  0.6283 -0.1853  0.1994
  217SOD    SOD22345   0.181   5.703   0.102 -0.3348  0.6550 -0.1002
  218SOD    SOD22346   1.935   0.346   0.256 -0.3083  0.0618  0.0205
  219SOD    SOD22347   5.558   1.144   0.094 -0.1303  0.4836 -0.2075
  220SOD    SOD22348   1.187   6.185   0.994 -0.3427  0.1327  0.0385
  221SOD    SOD22349   6.818   2.391   0.991  0.5169 -0.4812  0.0818
  222SOD    SOD22350   1.561   1.980   2.720 -0.4121  0.0182 -0.1194
  223SOD    SOD22351   0.893   1.037   3.302  0.4432  0.0687 -0.2863
  224SOD    SOD22352   4.277   5.917   1.695 -0.3724  0.5577  0.5341
  225SOD    SOD22353   6.516   1.040   4.060  0.1624 -0.1829 -0.2511
  226SOD    SOD22354   3.854   3.993   2.986  0.2315 -0.4783 -0.0830
  227SOD    SOD22355   6.070   0.534   0.578  0.4528 -0.2841  0.1427
  228SOD    SOD22356   4.577   1.937   2.131  0.0333  0.2027 -0.2285
  229SOD    SOD22357   5.358   1.896   3.109 -0.3090 -0.1982 -0.1528
  230CLA    CLA22358   5.689   2.171   2.418  0.2381 -0.3148 -0.2646
  231CLA    CLA22359   1.521   1.233   1.971 -0.2447 -0.1323 -0.2497
  232CLA    CLA22360   4.784   1.621   1.240  0.2131  0.0152  0.5987
  233CLA    CLA22361   3.800   2.351   3.516 -0.1718  0.0390 -0.0801
  234CLA    CLA22362   0.980   0.722   2.476  0.8473 -0.0826  0.1038
  235CLA    CLA22363   3.871   0.324   3.314 -0.0624 -0.1567  0.0912
  236CLA    CLA22364   1.044   6.332   1.167  0.4106 -0.0324  0.2019
  237CLA    CLA22365   6.068   6.301   1.401 -0.2127 -0.1658  0.2867
  238CLA    CLA22366   4.751   5.942   1.461 -0.2973 -0.1163 -0.2408
  239CLA    CLA22367   4.889   6.398   1.159  0.1975  0.2997 -0.0307
  240CLA    CLA22368   1.787   5.164   2.519  0.4048 -0.0437  0.1374
  241CLA    CLA22369   0.631   3.505   0.851 -0.1739 -0.1159 -0.5127
  242CLA    CLA22370   5.425   1.785   3.348 -0.0947  0.0399 -0.1063
  243CLA    CLA22371   1.386   2.929   1.091  0.4179  0.2431  0.1411
  244CLA    CLA22372   2.045   2.009   8.377  0.0515 -0.1075 -0.3470
  245CLA    CLA22373   2.832   1.626   0.751 -0.7017 -0.4728  0.0453
  246CLA    CLA22374   5.277   4.018   3.148  0.4027 -0.0001 -0.2820
  247TIP3   OH222375   5.975   3.260   8.585 -0.2904  0.3334 -0.0870
  247TIP3    H122376   6.054   3.218   8.551 -2.1100 -1.8931 -1.9603
  247TIP3    H222377   5.921   3.188   8.617 -2.6737  1.3988 -1.4032
  248TIP3   OH222378   1.857   6.489   3.907 -0.0189  0.2147 -0.2754
  248TIP3    H122379   1.891   6.483   3.996 -0.3298  0.5447 -0.1330
  248TIP3    H222380   1.810   6.406   3.894  1.7353 -0.7436 -0.8696
  249TIP3   OH222381   5.385   1.153   2.497 -0.0351  0.0954 -0.2206
  249TIP3    H122382   5.300   1.111   2.511  0.3023 -0.4972  0.1176
  249TIP3    H222383   5.399   1.149   2.403 -1.5421  2.5329 -0.6312
  250TIP3   OH222384   5.452   4.141   3.387  0.8830 -0.0997  0.5312
  250TIP3    H122385   5.393   4.109   3.319  1.6153 -1.7729  0.6458
  250TIP3    H222386   5.534   4.095   3.372  1.3920  0.3142  1.8902
  251TIP3   OH222387   4.931   5.895   1.213 -0.5152  0.0616 -0.2972
  251TIP3    H122388   4.876   5.894   1.291 -1.8248 -3.6382 -1.0264
  251TIP3    H222389   4.873   5.925   1.143 -0.2777  0.4154 -0.3422
  252TIP3   OH222390   3.411   3.315   3.037  0.1991  0.0004 -0.0726
  252TIP3    H122391   3.431   3.271   3.120  0.8837  0.1567 -0.1514
  252TIP3    H222392   3.351   3.385   3.061 -0.2025 -0.4219  0.1803
  253TIP3   OH222393   6.411   5.657   0.246 -0.1371  0.0878  0.2084
  253TIP3    H122394   6.321   5.624   0.236  0.0406 -0.0936 -0.8694
  253TIP3    H222395   6.403   5.728   0.309 -1.0058 -0.0620  0.2874
  254TIP3   OH222396   6.571   5.364   2.890  0.3971 -0.4474 -1.1441
  254TIP3    H122397   6.581   5.396   2.801 -1.7787 -1.3052 -1.7779
  254TIP3    H222398   6.623   5.284   2.893  1.8628  0.4745 -1.0750
  255TIP3   OH222399   5.032   3.674   0.359 -0.0231 -0.2377 -0.2823
  255TIP3    H122400   5.079   3.754   0.338  0.0775 -0.5923 -1.4455
  255TIP3    H222401   5.080   3.637   0.434  0.8825 -0.0215 -0.7420
  256TIP3   OH222402   4.824   5.310   8.498 -0.2169  0.4581 -0.6966
  256TIP3    H122403   4.797   5.402   8.500  0.7102  0.7393  0.9735
  256TIP3    H222404   4.919   5.313   8.489  0.1867 -0.1648  2.2140
  257TIP3   OH222405   5.428   4.425   1.996  0.3075  0.1738  0.5489
  257TIP3    H122406   5.434   4.349   1.938 -0.1045  0.2663  0.3844
  257TIP3    H222407   5.337   4.453   1.990  0.7459  1.4850 -0.4147
  258TIP3   OH222408   1.687   4.748   3.699 -0.3530  0.0435  0.5266
  258TIP3    H122409   1.730   4.798   3.769 -2.0768  1.2941  0.7654
  258TIP3    H222410   1.643   4.677   3.744 -2.8903  1.8179  1.0434
  259TIP3   OH222411   2.417   3.281   3.525 -0.5648  0.2867 -0.4263
  259TIP3    H122412   2.407   3.357   3.581 -0.3922  0.5144 -0.7011
  259TIP3    H222413   2.501   3.243   3.550 -1.0768 -0.3553  0.3570
  260TIP3   OH222414   4.477   4.153   0.731  0.1520 -0.4779  0.5794
  260TIP3    H122415   4.477   4.107   0.647 -1.3892  1.9235 -0.8700
  260TIP3    H222416   4.566   4.188   0.739 -0.2265  1.0382 -1.1804
  261TIP3   OH222417   2.742   4.046   2.633  0.9785 -0.1219 -0.9216
  261TIP3    H122418   2.741   4.139   2.656  1.0622 -0.1296 -0.8840
  261TIP3    H222419   2.703   4.042   2.546  0.9361 -0.0568 -0.9058
  262TIP3   OH222420   6.633   3.481   3.644  0.0710  0.0209 -0.5294
  262TIP3    H122421   6.652   3.512   3.555  1.1993 -1.5887 -0.8788
  262TIP3    H222422   6.718   3.454   3.679 -0.7409 -1.9869 -0.0022
  263TIP3   OH222423   5.623   5.583   2.543 -0.6043  0.4445 -0.0871
  263TIP3    H122424   5.631   5.588   2.447  1.1584 -2.7299 -0.2291
  263TIP3    H222425   5.551   5.523   2.558  0.0533 -0.2171  0.5092
  264TIP3   OH222426   1.509   5.566   8.510  0.3036  0.2183 -0.3811
  264TIP3    H122427   1.499   5.567   8.415  0.5618 -1.2314 -0.4466
  264TIP3    H222428   1.546   5.652   8.532 -1.1241  1.1364 -1.4044
  265TIP3   OH222429   3.818   4.471   0.743 -0.0887  0.2237  0.3630
  265TIP3    H122430   3.795   4.380   0.762  1.5911 -0.5859 -1.2112
  265TIP3    H222431   3.901   4.484   0.790  0.1958  0.6081 -0.2430
  266TIP3   OH222432   3.876   0.357   2.628  0.3348 -0.1942  0.1558
  266TIP3    H122433   3.864   0.411   2.706  1.2205 -0.1259  0.2565
  266TIP3    H222434   3.915   0.416   2.564 -0.7732 -0.1423 -0.4880
  267TIP3   OH222435   4.392   0.703   8.084 -0.1396  0.3152  0.1625
  267TIP3    H122436   4.424   0.761   8.153  0.8645  0.1123 -0.1095
  267TIP3    H222437   4.301   0.685   8.107  0.4062 -0.4437  1.9160
  268TIP3   OH222438   0.864   5.123   1.784 -0.3148  0.7203  0.5845
  268TIP3    H122439   0.825   5.035   1.783 -0.8587  0.9625  0.6299
  268TIP3    H222440   0.862   5.149   1.876  0.8751  0.3331  0.7452
  269TIP3   OH222441   3.676   0.135   2.339 -0.4472 -0.2317 -0.2026
  269TIP3    H122442   3.653   0.056   2.291 -3.9473  0.5536 -0.1118
  269TIP3    H222443   3.611   0.200   2.311  0.6852  1.8401  1.6319
  270TIP3   OH222444   2.579   1.792   1.509  0.2970  0.2031  0.5049
  270TIP3    H122445   2.606   1.721   1.451  1.0044 -1.2279  2.4705
  270TIP3    H222446   2.661   1.823   1.548 -0.2466  0.4238  1.5040
  271TIP3   OH222447   5.876   3.788   0.428  0.5081  0.4034  0.3691
  271TIP3    H122448   5.919   3.776   0.512 -0.8845 -1.9717  0.8341
  271TIP3    H222449   5.936   3.749   0.364  0.3602 -0.2442  0.6248
  272TIP3   OH222450   4.835   1.444   2.463  0.1076 -0.0047  0.1078
  272TIP3    H122451   4.887   1.521   2.487  3.4773 -1.8337 -0.6866
  272TIP3    H222452   4.863   1.376   2.524 -0.2168 -1.4753 -1.3210
  273TIP3   OH222453   4.681   0.296   0.634 -0.5547 -0.0021  0.5525
  273TIP3    H122454   4.659   0.342   0.554  0.2751  0.5194  0.6133
  273TIP3    H222455   4.631   0.341   0.702 -2.1850 -1.1900  0.1861
  274TIP3   OH222456   3.303   1.869   3.345  0.1789  1.1455 -0.6231
  274TIP3    H122457   3.397   1.850   3.337  0.2837  1.6702 -0.6673
  274TIP3    H222458   3.268   1.851   3.257  0.1800  0.6520 -0.5262
  275TIP3   OH222459   5.350   6.395   0.137  0.3486 -0.2617  0.0471
  275TIP3    H122460   5.401   6.448   0.198 -0.1897 -0.6508  0.8527
  275TIP3    H222461   5.403   6.394   0.057  0.2512  1.6933 -0.0938
  276TIP3   OH222462   0.770   1.992   2.612 -0.1248  0.2970  0.4897
  276TIP3    H122463   0.824   2.029   2.542  0.5628 -0.5942  0.5339
  276TIP3    H222464   0.687   2.039   2.605  0.4078  1.1917 -0.0356
  277TIP3   OH222465   0.793   2.931   0.248  0.3233 -0.1969 -0.6688
  277TIP3    H122466   0.758   2.983   0.320 -0.4597 -1.6317  0.0212
  277TIP3    H222467   0.882   2.910   0.275  0.9074  1.3442 -1.2823
  278TIP3   OH222468   2.151   0.275   0.962 -0.1067 -0.0776  0.3846
  278TIP3    H122469   2.167   0.190   0.920 -0.8136  0.3052 -0.7386
  278TIP3    H222470   2.185   0.266   1.050 -0.0954 -1.5088  0.2569
  279TIP3   OH222471   6.300   5.930   0.838  0.4501 -0.4360  0.1347
  279TIP3    H122472   6.383   5.899   0.802  0.1959 -1.6351  0.5368
  279TIP3    H222473   6.322   5.964   0.925  0.4150 -1.4550  0.5506
  280TIP3   OH222474   5.589   0.032   3.913  0.4575 -0.3368 -0.4466
  280TIP3    H122475   5.529   0.089   3.962  0.9879 -1.9062  2.2297
  280TIP3    H222476   5.562   0.043   3.821 -2.8780  0.2534  0.4438
  281TIP3   OH222477   2.760   0.238   3.481 -0.0367 -0.4557 -0.5025
  281TIP3    H122478   2.798   0.185   3.412 -0.2724  0.6457 -1.5162
  281TIP3    H222479   2.797   0.203   3.562  0.4651 -1.5853 -1.2066
  282TIP3   OH222480   1.542   5.849   1.154 -0.2625 -0.0693  0.4431
  282TIP3    H122481   1.524   5.763   1.194 -2.6924  0.7035  1.1847
  282TIP3    H222482   1.597   5.894   1.219 -1.2161 -0.1138  1.2997
  283TIP3   OH222483   1.626   2.647   3.707  0.2731  0.1699  0.3290
  283TIP3    H122484   1.659   2.651   3.617  1.5405  1.5689  0.8014
  283TIP3    H222485   1.604   2.738   3.728 -1.7451 -0.3907  0.8549
  284TIP3   OH222486   2.147   0.780   2.660  0.0432 -0.1600  0.3760
  284TIP3    H122487   2.213   0.771   2.591  1.6261 -0.0828  1.8062
  284TIP3    H222488   2.089   0.704   2.648  1.1560 -0.9520 -0.1444
  285TIP3   OH222489   5.801   3.603   0.735 -0.7657 -0.4438 -0.2491
  285TIP3    H122490   5.712   3.631   0.714  0.0352  0.5980 -2.5955
  285TIP3    H222491   5.850   3.685   0.741  0.3869 -1.0733 -0.8064
  286TIP3   OH222492   4.370   5.689   1.643 -0.3786 -0.1840 -0.6675
  286TIP3    H122493   4.459   5.717   1.667 -0.7616 -0.6536  1.5785
  286TIP3    H222494   4.382   5.624   1.574  0.8918  1.0179 -1.6285
  287TIP3   OH222495   2.420   1.983   0.895 -0.1146 -0.2339  0.2541
  287TIP3    H122496   2.450   2.066   0.858  0.5113 -0.6950 -0.3098
  287TIP3    H222497   2.486   1.919   0.866 -2.0115 -1.4458 -1.6333
  288TIP3   OH222498   1.486   5.217   1.714 -0.2137 -0.3794  0.3047
  288TIP3    H122499   1.422   5.171   1.659 -0.0037 -1.9074  1.2703
  288TIP3    H222500   1.506   5.296   1.665 -1.1119 -0.9832 -1.1319
  289TIP3   OH222501   6.476   0.714   4.298  0.5839  0.2094  0.0576
  289TIP3    H122502   6.438   0.633   4.265  1.3504  1.1068 -3.4466
  289TIP3    H222503   6.401   0.772   4.310  0.3353  0.8580 -3.4946
  290TIP3   OH222504   3.232   3.286   3.537  0.1368  0.1114  0.0125
  290TIP3    H122505   3.154   3.312   3.488 -0.9883  0.4869  1.8936
  290TIP3    H222506   3.227   3.190   3.541 -1.2233  0.2090  1.5856
  291TIP3   OH222507   0.187   1.074   2.460 -0.1708  0.6976  0.4929
  291TIP3    H122508   0.172   1.011   2.531  0.4718 -1.2171 -0.9612
  291TIP3    H222509   0.275   1.107   2.475  1.1458 -1.8808 -0.8732
  292TIP3   OH222510   1.471   6.512   0.535 -0.4215 -0.1017  0.5890
  292TIP3    H122511   1.539   6.542   0.475 -1.6808  0.9700 -0.3822
  292TIP3    H222512   1.506   6.530   0.623  1.3735 -1.5223  0.2219
  293TIP3   OH222513   3.334   4.327   2.693 -0.0711  0.2152  0.0126
  293TIP3    H122514   3.265   4.389   2.719  0.2400  0.4939  0.1809
  293TIP3    H222515   3.398   4.332   2.763 -0.7465 -1.4377  0.8089
  294TIP3   OH222516   5.117   5.494   3.101 -0.6492  0.4722  0.3327
  294TIP3    H122517   5.042   5.487   3.161 -1.5817  0.8792 -0.7405
  294TIP3    H222518   5.194   5.486   3.158 -1.4729 -1.9227  1.2467
  295TIP3   OH222519   4.773   4.122   3.184  0.4172  0.0504 -0.6462
  295TIP3    H122520   4.850   4.114   3.240 -0.7973  0.6344  1.1790
  295TIP3    H222521   4.739   4.209   3.201 -1.0846 -0.4684 -0.8294
  296TIP3   OH222522   0.209   3.584   4.260 -0.0219 -0.0980  0.1335
  296TIP3    H122523   0.201   3.645   4.333  0.5702  0.7373 -0.4700
  296TIP3    H222524   0.210   3.640   4.182 -0.5634 -0.9607 -0.5104
  297TIP3   OH222525   2.206   0.120   2.211 -0.1196 -0.0461 -0.2345
  297TIP3    H122526   2.243   0.202   2.177 -0.0725  0.1423  0.2586
  297TIP3    H222527   2.246   0.110   2.297  1.8304 -1.9148 -1.2691
  298TIP3   OH222528   0.799   6.665   0.296 -0.4709 -0.0006 -0.1305
  298TIP3    H122529   0.829   6.593   0.240  1.2809  0.5677 -0.0027
  298TIP3    H222530   0.770   6.623   0.377  2.2853 -0.5362  0.6872
  299TIP3   OH222531   4.571   1.734   1.749  0.2488 -0.2416 -0.4258
  299TIP3    H122532   4.531   1.706   1.667  1.3841  1.1553 -1.4942
  299TIP3    H222533   4.509   1.796   1.787  0.1339 -0.2056 -0.6750
  300TIP3   OH222534   6.637   0.130   0.529  0.1591  0.3959 -0.3772
  300TIP3    H122535   6.568   0.065   0.542  0.3259  0.4171  0.6720
  300TIP3    H222536   6.719   0.081   0.542  0.3173  0.5815 -0.6595
  301TIP3   OH222537   6.340   2.476   4.572  0.0496 -0.2882 -0.2334
  301TIP3    H122538   6.306   2.513   4.491 -1.2466 -0.7915  0.0677
  301TIP3    H222539   6.263   2.461   4.627  0.9157  0.3095  1.2191
  302TIP3   OH222540   6.696   3.898   2.934  0.1006 -0.5201 -0.0804
  302TIP3    H122541   6.722   3.809   2.959 -0.0951 -0.8544 -1.0286
  302TIP3    H222542   6.743   3.954   2.996  0.0672 -1.2864  0.6632
  303TIP3   OH222543   5.931   3.452   2.403 -0.1169 -0.1423  0.3289
  303TIP3    H122544   5.897   3.495   2.325  1.5139  0.5844 -0.0267
  303TIP3    H222545   5.867   3.472   2.472  1.9926  6.0228  1.1538
  304TIP3   OH222546   3.762   4.512   8.442  0.1648 -0.3174  0.5014
  304TIP3    H122547   3.810   4.481   8.365 -0.7110  0.4597 -0.3990
  304TIP3    H222548   3.689   4.451   8.450  1.0963 -1.3219  1.6878
  305TIP3   OH222549   3.120   3.808   1.544 -0.1624 -0.5188  0.6813
  305TIP3    H122550   3.190   3.874   1.547 -1.0755  0.5385 -0.2038
  305TIP3    H222551   3.164   3.729   1.513  0.4503  0.4500 -1.1015
  306TIP3   OH222552   1.379   4.594   7.860  0.0962 -0.0409  0.5004
  306TIP3    H122553   1.310   4.594   7.926 -2.0279 -0.6896 -1.5710
  306TIP3    H222554   1.366   4.513   7.811  1.8231  0.2219 -0.4891
  307TIP3   OH222555   5.222   1.968   1.795  0.3490 -0.3244  0.0903
  307TIP3    H122556   5.278   1.968   1.872 -0.2387 -2.7272  0.6141
  307TIP3    H222557   5.227   1.878   1.762 -2.6690 -0.5317 -0.1636
  308TIP3   OH222558   5.591   6.707   1.940  0.0614 -0.3993 -0.3725
  308TIP3    H122559   5.682   6.723   1.916 -0.3153  2.3931 -0.2274
  308TIP3    H222560   5.543   6.707   1.857 -0.2056  1.4729 -0.2521
  309TIP3   OH222561   4.172   4.313   1.690  0.2226  0.4175  0.1160
  309TIP3    H122562   4.265   4.292   1.699 -0.0276 -1.5681 -1.3126
  309TIP3    H222563   4.132   4.274   1.768  0.4243  0.0949  0.0606
  310TIP3   OH222564   3.587   5.403   2.658 -0.1783 -0.2594 -0.1070
  310TIP3    H122565   3.654   5.432   2.597 -0.6788  1.7317  0.2099
  310TIP3    H222566   3.548   5.484   2.691 -2.8351 -1.3165 -0.4008
  311TIP3   OH222567   6.430   4.805   3.764  0.3977  0.2941  0.4943
  311TIP3    H122568   6.519   4.772   3.775  0.2708  0.0799  0.9093
  311TIP3    H222569   6.377   4.751   3.822  0.0431  0.6182  0.4796
  312TIP3   OH222570   3.714   5.077   2.657  0.6272 -0.2030 -0.2079
  312TIP3    H122571   3.672   5.108   2.738  2.1139 -2.6840  1.6917
  312TIP3    H222572   3.756   5.154   2.620 -1.2395  1.2854  0.6050
  313TIP3   OH222573   5.170   5.210   3.386  0.0635  0.0067 -0.4460
  313TIP3    H122574   5.236   5.189   3.453  0.6039  1.5946 -0.4518
  313TIP3    H222575   5.106   5.140   3.393  0.0455  0.1952  1.8129
  314TIP3   OH222576   5.801   1.960   3.490 -0.1384 -0.0313  0.3009
  314TIP3    H122577   5.841   1.943   3.576  1.3960  2.6969  0.2292
  314TIP3    H222578   5.725   2.014   3.511  0.2134  0.5985 -0.0252
  315TIP3   OH222579   0.324   5.615   2.098  0.1696  0.0099 -0.2495
  315TIP3    H122580   0.238   5.618   2.140 -0.1192  1.3096 -0.8889
  315TIP3    H222581   0.356   5.705   2.103  1.1209 -0.2902 -0.7971
  316TIP3   OH222582   6.630   4.338   0.885 -0.3877  0.2988  0.0798
  316TIP3    H122583   6.566   4.388   0.935 -1.6171 -1.2478  0.1316
  316TIP3    H222584   6.695   4.309   0.949 -0.0711  1.1774  0.1680
  317TIP3   OH222585   4.397   2.462   2.983 -0.1857 -0.0232 -0.3724
  317TIP3    H122586   4.367   2.550   3.007 -0.1283 -0.4742  1.5089
  317TIP3    H222587   4.479   2.451   3.031 -0.2322 -1.1299 -0.5269
  318TIP3   OH222588   4.160   2.514   1.284 -0.0132  0.1047  0.0324
  318TIP3    H122589   4.070   2.506   1.252 -0.3855 -1.1281  1.2861
  318TIP3    H222590   4.207   2.556   1.212 -1.3836 -0.0722 -1.0140
  319TIP3   OH222591   1.068   1.719   2.207  0.1268  0.0627  0.1675
  319TIP3    H122592   1.155   1.690   2.236  0.9431  2.2509  0.1040
  319TIP3    H222593   1.024   1.747   2.288 -0.2958 -0.4369  0.1178
  320TIP3   OH222594   2.803   6.142   2.540 -0.1023  0.3619 -0.7990
  320TIP3    H122595   2.771   6.215   2.592  1.1137  1.5456 -1.6437
  320TIP3    H222596   2.747   6.068   2.565 -2.3695  1.9036 -1.0202
  321TIP3   OH222597   2.538   2.226   0.716  0.2492 -0.1409  0.3359
  321TIP3    H122598   2.603   2.254   0.652  1.3804  0.3942  1.6673
  321TIP3    H222599   2.456   2.219   0.666  0.9777  0.7868 -1.0436
  322TIP3   OH222600   4.152   3.563   8.629  0.7262 -0.0223 -0.2071
  322TIP3    H122601   4.228   3.574   8.573  1.8744 -0.9540  1.1125
  322TIP3    H222602   4.084   3.528   8.571  1.1688  1.0846 -1.4631
  323TIP3   OH222603   1.751   0.494   4.005 -0.2011  0.2211 -0.0489
  323TIP3    H122604   1.794   0.545   4.074 -0.6627  0.1487  0.2981
  323TIP3    H222605   1.658   0.494   4.029 -0.4421  0.6278 -0.9578
  324TIP3   OH222606   0.947   4.078   1.370  0.2842  0.3530  0.3821
  324TIP3    H122607   1.027   4.029   1.352 -0.0592  0.1652 -0.6776
  324TIP3    H222608   0.876   4.020   1.341 -0.1707  1.0919 -0.0095
  325TIP3   OH222609   2.991   3.856   0.663 -0.1636 -0.1803 -0.3009
  325TIP3    H122610   3.007   3.890   0.751 -2.6439 -1.8566  0.9024
  325TIP3    H222611   2.977   3.763   0.675 -3.6973 -0.0189 -1.9319
  326TIP3   OH222612   6.016   6.701   2.957  0.4892 -0.0963 -0.0871
  326TIP3    H122613   5.940   6.704   3.016  1.7282  0.8727  1.5368
  326TIP3    H222614   6.035   6.792   2.938  1.7050 -0.2872  0.1567
  327TIP3   OH222615   6.389   5.384   0.023 -0.3286 -0.1527  0.0988
  327TIP3    H122616   6.441   5.314  -0.017  1.1451  1.6380 -1.3152
  327TIP3    H222617   6.314   5.395  -0.036  0.2248  0.4396 -0.5003
  328TIP3   OH222618   0.899   3.246   1.971  0.2350  0.5333 -0.3150
  328TIP3    H122619   0.821   3.285   1.932 -0.0870  0.2311  0.0301
  328TIP3    H222620   0.895   3.272   2.064  0.6947  0.7623 -0.3557
  329TIP3   OH222621   1.478   1.834   3.192  0.0057 -0.3672 -0.2499
  329TIP3    H122622   1.402   1.892   3.203  0.0896 -0.2212 -0.4197
  329TIP3    H222623   1.510   1.819   3.281 -0.0038 -0.1317 -0.2044
  330TIP3   OH222624   0.526   1.727   3.890  0.0625  0.1977 -0.5089
  330TIP3    H122625   0.556   1.641   3.918 -0.2798  0.6294  1.3010
  330TIP3    H222626   0.442   1.738   3.933  0.5106  1.7923  0.0151
  331TIP3   OH222627   1.733   0.430   1.118  0.7885  0.4201 -0.5709
  331TIP3    H122628   1.807   0.476   1.158  0.8485  0.8056 -1.1092
  331TIP3    H222629   1.769   0.345   1.092  0.1616 -0.8739  2.3608
  332TIP3   OH222630   2.957   3.176   2.835 -0.1026  0.0481  0.5814
  332TIP3    H122631   2.950   3.085   2.809 -1.1885 -0.0396  1.1376
  332TIP3    H222632   2.870   3.213   2.819 -0.9319 -0.0559  4.0748
  333TIP3   OH222633   1.301   6.010   1.105 -0.1943  0.6763 -0.0556
  333TIP3    H122634   1.294   5.915   1.093 -0.3410  0.4527  1.5846
  333TIP3    H222635   1.394   6.025   1.122 -0.2945  0.7144  0.4748
  334TIP3   OH222636   0.857   2.003   3.868  0.1101 -0.2995 -0.8946
  334TIP3    H122637   0.834   1.929   3.812 -0.1073 -0.1590 -0.9923
  334TIP3    H222638   0.924   1.968   3.927 -0.0975 -0.6128 -0.8422
  335TIP3   OH222639   4.745   3.553   2.402  0.2382  1.1780 -0.2591
  335TIP3    H122640   4.787   3.553   2.488 -2.0553 -2.2687  1.1046
  335TIP3    H222641   4.661   3.596   2.416  0.2779  1.5508 -1.0789
  336TIP3   OH222642   0.967   4.519   0.326  0.1749 -0.1760  0.0186
  336TIP3    H122643   0.938   4.589   0.267 -0.8488  1.1171  1.9709
  336TIP3    H222644   1.040   4.558   0.374 -0.8920 -0.1061  1.6616
  337TIP3   OH222645   5.952   6.547   8.320  0.0545 -0.1099  0.0559
  337TIP3    H122646   5.896   6.518   8.393 -2.7658 -0.1165 -1.9768
  337TIP3    H222647   5.892   6.562   8.247  2.6693  0.5662 -2.1306
  338TIP3   OH222648   3.545   6.156   2.170 -0.4102  0.3379  0.3137
  338TIP3    H122649   3.584   6.122   2.250  0.2143 -1.6441 -0.7634
  338TIP3    H222650   3.618   6.160   2.108 -1.1803  0.3554 -0.6073
  339TIP3   OH222651   4.433   4.685   1.435 -0.8428 -0.2647  0.2978
  339TIP3    H122652   4.451   4.715   1.346 -1.7819 -2.0599 -0.5378
  339TIP3    H222653   4.512   4.709   1.484  0.8328 -1.5507 -1.5980
  340TIP3   OH222654   2.177   4.654   2.253  0.0805 -0.0473  0.0887
  340TIP3    H122655   2.271   4.673   2.245 -0.3907  3.8226  1.4067
  340TIP3    H222656   2.162   4.652   2.348 -1.1755 -0.6875 -0.1132
  341TIP3   OH222657   5.658   2.889   3.759  0.1030  0.2952 -0.2526
  341TIP3    H122658   5.621   2.968   3.798  0.1374  0.5888 -0.7976
  341TIP3    H222659   5.732   2.866   3.815 -1.4386 -0.8621  1.4280
  342TIP3   OH222660   1.010   1.943   3.535 -0.0500  0.0810 -0.4967
  342TIP3    H122661   1.077   1.916   3.597 -0.8898 -0.9623 -0.0079
  342TIP3    H222662   0.983   1.861   3.493 -0.2929  0.6259 -1.4283
  343TIP3   OH222663   5.822   4.254   0.588  0.1189 -0.1117  0.0716
  343TIP3    H122664   5.773   4.178   0.620 -0.9898  0.4481 -0.2533
  343TIP3    H222665   5.763   4.296   0.525  0.7224  0.9989  0.2212
  344TIP3   OH222666   0.535   0.081   0.045 -0.2551  0.3368 -0.3877
  344TIP3    H122667   0.604   0.147   0.039  0.1411  0.1237  1.3823
  344TIP3    H222668   0.580  -0.003   0.040 -0.3175  0.1947  1.0031
  345TIP3   OH222669   4.365   6.096   8.770 -0.7562  0.0932 -0.3003
  345TIP3    H122670   4.418   6.081   8.691  1.0221  1.6124  0.5117
  345TIP3    H222671   4.375   6.190   8.787  0.5231 -0.4707  2.7625
  346TIP3   OH222672   2.232   4.560   0.899 -0.0552 -0.0603 -0.1515
  346TIP3    H122673   2.287   4.614   0.843  0.5616 -0.4327  0.0949
  346TIP3    H222674   2.289   4.531   0.970 -0.4244 -0.8855 -0.1754
  347TIP3   OH222675   1.762   0.806   2.069  0.6160 -0.4697  0.0871
  347TIP3    H122676   1.683   0.861   2.067  0.1902 -1.0703  0.2253
  347TIP3    H222677   1.790   0.808   2.160  0.2991 -0.8907  0.2008
  348TIP3   OH222678   3.002   0.237   2.894 -0.6034 -0.8150  0.9547
  348TIP3    H122679   3.049   0.296   2.952 -1.5207 -0.7853  1.6972
  348TIP3    H222680   2.946   0.294   2.841  0.7567 -0.7780 -0.5019
  349TIP3   OH222681   1.753   2.867   3.571  0.1010  0.0360 -0.1221
  349TIP3    H122682   1.736   2.936   3.634 -2.0540 -0.2044 -0.3694
  349TIP3    H222683   1.672   2.860   3.520  0.4897 -2.2157 -0.5397
  350TIP3   OH222684   2.807   1.072   0.343  0.1579 -0.5091 -0.6063
  350TIP3    H122685   2.791   1.160   0.307 -0.1786 -0.0459  0.6266
  350TIP3    H222686   2.892   1.079   0.385  0.9938 -1.3208 -2.0874
  351TIP3   OH222687   0.691   5.373   8.600  0.7045 -0.1028 -0.4307
  351TIP3    H122688   0.660   5.289   8.635  1.0280 -0.1568 -0.2635
  351TIP3    H222689   0.709   5.355   8.508  0.8342 -0.2357 -0.3804
  352TIP3   OH222690   3.650   6.705   1.642  0.2823  0.0537 -0.1310
  352TIP3    H122691   3.613   6.711   1.553  1.4326  0.8973 -0.5850
  352TIP3    H222692   3.659   6.612   1.658  0.3183 -0.1086 -1.0283
  353TIP3   OH222693   1.290   6.820   3.651 -0.6700 -0.0492  0.7729
  353TIP3    H122694   1.248   6.782   3.574  1.2497 -0.9904  0.1076
  353TIP3    H222695   1.267   6.761   3.723 -1.7978  0.3727  0.7716
  354TIP3   OH222696   6.627   3.490   1.986  0.1505  0.3579 -0.5344
  354TIP3    H122697   6.629   3.410   2.038 -1.3486 -1.6544 -3.2652
  354TIP3    H222698   6.708   3.536   2.008 -0.8336  0.2638  4.1775
  355TIP3   OH222699   5.828   3.562   1.877 -0.5360  0.5580 -0.9117
  355TIP3    H122700   5.886   3.536   1.949 -0.5874 -0.2433 -1.1484
  355TIP3    H222701   5.784   3.640   1.909 -1.3491 -0.3866  0.3644
  356TIP3   OH222702   4.807   2.650   2.582  0.6678 -0.2340 -0.0993
  356TIP3    H122703   4.811   2.745   2.579  0.7244 -0.1982  0.8328
  356TIP3    H222704   4.897   2.622   2.593  0.8125 -0.4740 -1.5922
  357TIP3   OH222705   4.943   5.033   1.008  0.3507 -0.0481 -0.1575
  357TIP3    H122706   5.016   5.093   0.992 -1.2314  1.9366 -0.4566
  357TIP3    H222707   4.913   5.055   1.096  0.9041 -1.8104  0.5216
  358TIP3   OH222708   1.578   0.139   0.994 -0.3284  0.0798 -0.4594
  358TIP3    H122709   1.550   0.055   0.957  0.9533 -1.2009  1.2751
  358TIP3    H222710   1.672   0.130   1.004 -0.4952  0.5629  2.3741
  359TIP3   OH222711   2.382   5.731   2.005 -0.0652  0.0405 -0.2164
  359TIP3    H122712   2.477   5.748   2.004 -0.3031  1.7024 -2.0377
  359TIP3    H222713   2.343   5.817   2.019 -1.3008 -0.0669 -2.5139
  360TIP3   OH222714   2.854   3.785   1.359  0.3746 -0.3093  0.2567
  360TIP3    H122715   2.778   3.728   1.375 -1.1693  0.4294 -3.4989
  360TIP3    H222716   2.816   3.869   1.334  2.5231  0.7828  0.4283
  361TIP3   OH222717   6.034   3.177   2.353 -0.4870 -0.0148  0.3953
  361TIP3    H122718   6.041   3.270   2.330 -0.3355 -0.5864 -2.1300
  361TIP3    H222719   5.943   3.165   2.379 -1.2155  0.3609 -1.8299
  362TIP3   OH222720   3.431   6.850   0.144  0.3175  0.3016  0.4129
  362TIP3    H122721   3.342   6.830   0.172 -0.5633  3.9097  0.6387
  362TIP3    H222722   3.472   6.891   0.220  0.8564  2.0871 -0.7775
  363TIP3   OH222723   1.671   1.376   1.539 -0.0719 -0.4814  0.0013
  363TIP3    H122724   1.683   1.286   1.568 -3.3909 -1.2931 -0.7435
  363TIP3    H222725   1.659   1.369   1.444 -3.7147  0.1701  0.2673
  364TIP3   OH222726   6.160   4.257   0.893 -0.1465 -0.4605 -0.0385
  364TIP3    H122727   6.082   4.302   0.861  0.4989  1.3596  0.7996
  364TIP3    H222728   6.233   4.300   0.848  0.3925 -2.3272 -1.0286
  365TIP3   OH222729   1.039   1.936   2.039  0.0303  0.4750  0.8429
  365TIP3    H122730   1.119   1.962   1.994  0.2475  1.1395  1.6017
  365TIP3    H222731   1.049   1.841   2.052  0.4344  0.4573  0.4365
  366TIP3   OH222732   5.508   0.730   2.298 -0.1373  0.0646  0.1996
  366TIP3    H122733   5.460   0.800   2.255  0.5484  0.7727  0.5713
  366TIP3    H222734   5.462   0.717   2.381  1.5010  2.2092  1.5289
  367TIP3   OH222735   6.138   0.295   2.065  0.2624  0.5362 -0.5147
  367TIP3    H122736   6.063   0.289   2.007  0.2401 -0.4493 -0.3948
  367TIP3    H222737   6.129   0.381   2.107 -0.1375  0.9305 -1.3759
  368TIP3   OH222738   1.562   5.248   0.870 -0.0055  0.4457 -0.0107
  368TIP3    H122739   1.517   5.241   0.785  0.3562  1.8217 -0.3396
  368TIP3    H222740   1.653   5.229   0.849  0.0003  0.2963  0.1569
  369TIP3   OH222741   5.564   3.229   1.288  0.4888 -0.0132  0.0207
  369TIP3    H122742   5.523   3.196   1.368  0.7351  0.0589  0.1768
  369TIP3    H222743   5.652   3.192   1.290  0.5602  0.1521 -0.1183
  370TIP3   OH222744   0.703   6.573   3.147  0.4289 -0.2774 -0.0962
  370TIP3    H122745   0.702   6.505   3.215 -0.9874  0.3718  0.5797
  370TIP3    H222746   0.630   6.550   3.089  1.1827 -0.4216 -1.0008
  371TIP3   OH222747   6.123   3.339   2.855 -0.2759 -0.5666 -0.0892
  371TIP3    H122748   6.156   3.383   2.776 -0.1694  1.9265  1.2738
  371TIP3    H222749   6.038   3.303   2.829 -1.3257  2.1954 -0.7882
  372TIP3   OH222750   3.520   0.504   4.359 -0.1567 -0.1856 -0.3676
  372TIP3    H122751   3.443   0.559   4.372  0.5964  1.1675 -1.2959
  372TIP3    H222752   3.586   0.541   4.419 -0.4387 -1.9012  1.1095
  373TIP3   OH222753   2.463   4.232   0.941  0.3517  0.1904 -0.0401
  373TIP3    H122754   2.529   4.165   0.920 -1.1169 -0.7674 -1.9093
  373TIP3    H222755   2.509   4.315   0.926  1.6342 -0.3957  0.4313
  374TIP3   OH222756   0.254   3.814   1.136 -0.2318  0.5440  0.1467
  374TIP3    H122757   0.276   3.736   1.086 -1.3520  1.5549 -2.0440
  374TIP3    H222758   0.165   3.799   1.167 -0.0685  0.5329  0.6243
  375TIP3   OH222759   1.282   0.742   0.658  0.5995  0.0020 -0.0487
  375TIP3    H122760   1.365   0.765   0.616 -0.0057  2.4959 -0.0328
  375TIP3    H222761   1.217   0.756   0.589 -0.1196  1.3638  0.8745
  376TIP3   OH222762   2.495   0.122   0.581 -1.0330 -0.2853 -0.1874
  376TIP3    H122763   2.505   0.203   0.531  1.1817 -0.2887  0.1308
  376TIP3    H222764   2.425   0.074   0.537  0.0279  0.2263 -2.5802
  377TIP3   OH222765   2.895   5.086   2.508 -0.0974 -0.1157  0.2076
  377TIP3    H122766   2.889   5.056   2.598  0.5847  2.2029  1.1005
  377TIP3    H222767   2.826   5.152   2.499 -0.3987 -0.5628 -1.1014
  378TIP3   OH222768   3.702   0.861   8.062 -0.5183  0.1788  0.0995
  378TIP3    H122769   3.720   0.767   8.073 -1.2394  0.0464  0.1471
  378TIP3    H222770   3.675   0.891   8.149  2.0097  0.9679  0.7050
  379TIP3   OH222771   6.355   0.793   2.779 -0.0635 -0.5423 -0.2159
  379TIP3    H122772   6.382   0.757   2.863  0.6160 -0.3831 -0.3616
  379TIP3    H222773   6.436   0.801   2.729 -0.5342 -1.2014 -1.1070
  380TIP3   OH222774   1.384   3.077   8.067 -0.2323  0.1949 -0.3526
  380TIP3    H122775   1.310   3.105   8.015 -0.5303  2.1287  0.9972
  380TIP3    H222776   1.349   3.008   8.124 -0.4239 -0.4139 -1.1899
  381TIP3   OH222777   2.047   4.261   1.380  0.2278 -0.0922  0.4703
  381TIP3    H122778   1.957   4.257   1.413  0.6041 -1.4419  1.4379
  381TIP3    H222779   2.050   4.191   1.314  0.3850  0.4118 -0.0589
  382TIP3   OH222780   1.402   1.968   8.697 -0.2552  0.3573  0.3519
  382TIP3    H122781   1.467   1.898   8.696 -0.1098  0.4669  1.3156
  382TIP3    H222782   1.419   2.015   8.779 -0.1545  1.7069 -0.4160
  383TIP3   OH222783   1.219   1.035   3.992  0.1258  0.1631 -0.5908
  383TIP3    H122784   1.173   0.992   4.063  1.4394  0.8982  0.7610
  383TIP3    H222785   1.163   1.023   3.915 -0.9142 -1.3868  0.3704
  384TIP3   OH222786   2.470   4.236   0.408  0.2085 -0.4537 -0.3642
  384TIP3    H122787   2.411   4.260   0.480  0.8637  1.4640 -0.4198
  384TIP3    H222788   2.421   4.170   0.359 -2.9868  2.5471 -1.7191
  385TIP3   OH222789   4.473   3.444   3.352 -0.0466  0.6261 -0.1477
  385TIP3    H122790   4.568   3.453   3.343  0.2649 -0.7434  1.3538
  385TIP3    H222791   4.455   3.354   3.328 -0.5022 -0.0670  2.4698
  386TIP3   OH222792   5.366   4.906   0.364 -0.4385  0.0292 -0.3610
  386TIP3    H122793   5.402   4.960   0.435 -0.5205  0.1033 -0.3747
  386TIP3    H222794   5.442   4.863   0.326 -0.3020  0.5413 -0.6861
  387TIP3   OH222795   1.220   3.885   1.926 -0.9149 -0.1109 -0.0279
  387TIP3    H122796   1.213   3.974   1.960 -0.2396 -0.1577  0.2420
  387TIP3    H222797   1.296   3.848   1.970 -1.2218 -0.8441 -0.0978
  388TIP3   OH222798   4.432   5.668   0.250 -0.1199  0.6898 -0.7185
  388TIP3    H122799   4.524   5.694   0.245  0.0946  0.0687 -0.2394
  388TIP3    H222800   4.403   5.700   0.335  0.0685 -0.3246 -0.2448
  389TIP3   OH222801   0.229   2.321   0.963 -0.0944 -0.2826  0.5180
  389TIP3    H122802   0.292   2.307   1.033  0.0854 -0.6535  0.2856
  389TIP3    H222803   0.275   2.379   0.902  0.7917 -2.0860 -0.6195
  390TIP3   OH222804   4.620   5.809   1.766  0.4574 -0.0097 -0.0337
  390TIP3    H122805   4.593   5.900   1.750  1.1027  0.1771 -0.0881
  390TIP3    H222806   4.715   5.809   1.750  0.2623 -0.9957 -1.4575
  391TIP3   OH222807   1.433   4.093   0.248 -0.4001 -0.1107  0.5041
  391TIP3    H122808   1.456   4.169   0.195 -0.4612  0.2757  1.0225
  391TIP3    H222809   1.340   4.079   0.232 -0.3663 -0.1402  0.3307
  392TIP3   OH222810   4.456   0.706   4.250  0.0305  0.0318 -0.6632
  392TIP3    H122811   4.549   0.724   4.233  0.2525  0.9587  1.1958
  392TIP3    H222812   4.409   0.777   4.205  0.4060  0.8623  0.1975
  393TIP3   OH222813   2.558   5.195   2.933 -0.0723 -0.0849  0.2068
  393TIP3    H122814   2.562   5.102   2.913 -0.9431 -0.2247  0.6563
  393TIP3    H222815   2.650   5.223   2.933  0.2459 -1.0723  0.6673
  394TIP3   OH222816   6.401   5.115   3.195 -0.1602 -0.3189  0.0588
  394TIP3    H122817   6.444   5.177   3.253  0.6534  0.0373 -0.9096
  394TIP3    H222818   6.329   5.165   3.156 -0.7358 -0.5716  0.7691
  395TIP3   OH222819   6.776   5.612   8.536  0.1894 -0.4936 -0.4681
  395TIP3    H122820   6.687   5.588   8.563 -0.3122  0.9514 -0.7421
  395TIP3    H222821   6.763   5.674   8.464  1.4511 -1.4941 -1.6152
  396TIP3   OH222822   6.533   1.599   2.574 -0.2777 -0.2013 -0.1707
  396TIP3    H122823   6.443   1.632   2.581 -1.6684 -3.6509 -0.0818
  396TIP3    H222824   6.571   1.650   2.502 -1.9847  1.8783  0.2932
  397TIP3   OH222825   6.567   1.402   0.433  0.8319  0.1955  0.1336
  397TIP3    H122826   6.653   1.425   0.397  0.8429 -0.6281 -0.3813
  397TIP3    H222827   6.556   1.310   0.413  0.7372 -0.2648  2.0782
  398TIP3   OH222828   6.663   0.434   3.264  0.0759 -0.7358 -0.1902
  398TIP3    H122829   6.591   0.493   3.284 -0.2233 -1.3590  0.6254
  398TIP3    H222830   6.715   0.480   3.199 -0.6162  0.0613 -0.1870
  399TIP3   OH222831   6.208   3.880   0.879 -0.0867  0.7118 -0.6233
  399TIP3    H122832   6.191   3.937   0.954  2.4828  2.0138 -0.8894
  399TIP3    H222833   6.297   3.846   0.895  0.3598  0.6843 -2.8450
  400TIP3   OH222834   0.441   5.809   1.522  0.2421  0.7175  0.0184
  400TIP3    H122835   0.413   5.795   1.432 -0.5441  0.8074  0.2372
  400TIP3    H222836   0.498   5.885   1.518  1.6246 -0.3199 -0.6503
  401TIP3   OH222837   6.003   4.380   7.598 -0.3090  0.4015  0.0382
  401TIP3    H122838   5.961   4.354   7.516 -0.0906  0.7399 -0.1848
  401TIP3    H222839   5.931   4.408   7.654 -0.5232 -0.4412  0.1951
  402TIP3   OH222840   6.502   2.692   0.771  0.2250  0.0782  0.0540
  402TIP3    H122841   6.521   2.785   0.775 -0.1631  0.1781 -0.3342
  402TIP3    H222842   6.559   2.658   0.702 -0.5765  0.2713 -0.7092
  403TIP3   OH222843   6.271   2.551   0.882 -0.9000  0.0929 -0.1301
  403TIP3    H122844   6.315   2.619   0.831 -0.8340  0.3104  0.2121
  403TIP3    H222845   6.257   2.591   0.968 -1.7376  0.0164 -0.2262
  404TIP3   OH222846   6.784   3.253   0.180 -0.3460  0.5939  0.6720
  404TIP3    H122847   6.714   3.235   0.243 -0.7781  1.1859  0.3674
  404TIP3    H222848   6.769   3.344   0.152  0.6330  0.7846  0.7189
  405TIP3   OH222849   6.756   6.276   8.088 -0.2895 -0.3487 -0.2478
  405TIP3    H122850   6.745   6.336   8.014  2.7552  0.1354 -0.4710
  405TIP3    H222851   6.754   6.333   8.165 -0.7970 -0.4647 -0.1745
  406TIP3   OH222852   2.219   5.382   0.622 -0.1928 -0.2875 -0.5449
  406TIP3    H122853   2.202   5.428   0.540 -0.4069  2.0464  0.7303
  406TIP3    H222854   2.162   5.305   0.618 -0.8344  0.2228 -2.2063
  407TIP3   OH222855   2.208   2.564   3.541 -0.3707 -0.7232  0.4437
  407TIP3    H122856   2.130   2.546   3.490  0.4720 -2.5618 -0.2900
  407TIP3    H222857   2.231   2.654   3.519 -2.5395  0.0563  1.1085
  408TIP3   OH222858   2.346   4.310   0.652  0.5206  0.5385 -0.3020
  408TIP3    H122859   2.347   4.402   0.679  0.3230  0.5709 -0.4031
  408TIP3    H222860   2.388   4.263   0.725  0.2781  0.6632 -0.0786
  409TIP3   OH222861   1.939   1.521   8.155  0.1455 -0.4025 -0.0910
  409TIP3    H122862   1.941   1.609   8.193 -0.1366 -0.3490 -0.1959
  409TIP3    H222863   1.964   1.533   8.063  0.1989 -0.4448 -0.0826
  410TIP3   OH222864   0.731   0.542   0.258 -0.1021 -0.5463  0.0129
  410TIP3    H122865   0.777   0.612   0.212 -2.5534  0.2426 -1.4054
  410TIP3    H222866   0.667   0.587   0.314 -1.2344 -1.6009 -0.3771
  411TIP3   OH222867   2.001   3.417   7.820 -0.0071  0.1291 -0.1484
  411TIP3    H122868   1.981   3.511   7.816  0.7544  0.2633 -1.1849
  411TIP3    H222869   1.920   3.377   7.852 -1.0966  0.9113 -1.7846
  412TIP3   OH222870   5.896   4.838   2.396  0.1251  0.3861 -0.1221
  412TIP3    H122871   5.892   4.859   2.303 -0.6962  2.1935  0.2750
  412TIP3    H222872   5.885   4.743   2.399  2.0247  0.0237 -1.9387
  413TIP3   OH222873   3.973   2.680   0.682  0.1940  0.2229  0.4796
  413TIP3    H122874   3.991   2.768   0.715  1.3231 -0.3073  1.3554
  413TIP3    H222875   3.889   2.657   0.723 -1.0015  1.5191 -1.1330
  414TIP3   OH222876   5.977   1.277   0.231 -0.0575 -0.2244 -0.4316
  414TIP3    H122877   6.053   1.321   0.269  0.8507 -2.3241  0.3765
  414TIP3    H222878   5.909   1.287   0.297  0.5104 -0.9969  0.3050
  415TIP3   OH222879   3.483   0.549   1.720  0.8970 -0.0378 -0.3797
  415TIP3    H122880   3.526   0.482   1.772  0.2182  0.9103  1.5262
  415TIP3    H222881   3.471   0.622   1.781  1.2892  1.6880 -2.2671
  416TIP3   OH222882   3.054   2.876   3.415  0.2136  0.0980  0.1734
  416TIP3    H122883   3.044   2.840   3.503 -1.1185 -0.5636 -0.2219
  416TIP3    H222884   3.119   2.820   3.374 -0.9542 -1.1427 -0.0371
  417TIP3   OH222885   1.145   0.332   2.784  0.1060 -0.2186 -0.5255
  417TIP3    H122886   1.108   0.345   2.872  0.2190 -1.5350 -0.2608
  417TIP3    H222887   1.077   0.287   2.736 -0.5907  1.8863 -1.6623
  418TIP3   OH222888   3.499   3.721   0.789  0.5999 -0.4244 -0.2659
  418TIP3    H122889   3.464   3.639   0.753 -4.4332  0.2840  2.0660
  418TIP3    H222890   3.558   3.694   0.858  0.4283 -2.0640 -0.7277
  419TIP3   OH222891   3.876   3.397   2.290  0.0402 -0.1730 -0.1931
  419TIP3    H122892   3.880   3.350   2.207 -0.3738  0.2097 -0.4332
  419TIP3    H222893   3.922   3.479   2.273  0.5236 -0.3659  0.1471
  420TIP3   OH222894   2.413   0.958   0.780 -0.2794  0.2528 -0.5152
  420TIP3    H122895   2.379   0.897   0.715 -0.4888  0.5430 -0.6812
  420TIP3    H222896   2.344   1.024   0.791 -0.7816 -0.4812  0.9592
  421TIP3   OH222897   0.436   5.487   2.718  0.4979  0.3527  0.7387
  421TIP3    H122898   0.425   5.507   2.811 -0.0894  0.3124  0.6795
  421TIP3    H222899   0.454   5.393   2.715 -0.8134  0.0802  0.7251
  422TIP3   OH222900   0.242   3.537   1.326 -0.4075  0.0807 -0.1917
  422TIP3    H122901   0.271   3.615   1.371  1.3255 -1.2402  1.1106
  422TIP3    H222902   0.300   3.530   1.250 -2.1873  1.3471 -1.7602
  423TIP3   OH222903   2.022   4.018   1.247 -0.0865 -0.4338  0.2989
  423TIP3    H122904   1.998   3.973   1.167 -0.3991 -0.8992  0.6541
  423TIP3    H222905   2.020   3.951   1.315  0.5066 -0.1193  0.6410
  424TIP3   OH222906   6.771   0.313   3.506 -0.1451 -0.3479 -0.4301
  424TIP3    H122907   6.729   0.342   3.425 -0.4961 -0.7746 -0.4044
  424TIP3    H222908   6.745   0.377   3.571 -1.9557 -1.3741 -0.0889
  425TIP3   OH222909   0.309   6.568   2.434  0.0895 -0.4068  0.1303
  425TIP3    H122910   0.329   6.632   2.503  1.7905 -0.0937 -0.6213
  425TIP3    H222911   0.320   6.483   2.477  0.5840 -0.2114  0.4048
  426TIP3   OH222912   4.718   1.872   1.007  0.1539  0.1234 -0.8570
  426TIP3    H122913   4.793   1.882   0.948 -0.3502  0.2472 -1.4823
  426TIP3    H222914   4.749   1.811   1.075  0.0302 -1.8462 -2.4766
  427TIP3   OH222915   1.689   0.925   8.551 -0.0454 -0.8361  0.4959
  427TIP3    H122916   1.709   0.970   8.469 -1.3287  1.3663  1.2958
  427TIP3    H222917   1.767   0.874   8.570  0.8991 -0.1433 -1.2903
  428TIP3   OH222918   0.309   1.980   3.723  0.6285  0.8322  0.2477
  428TIP3    H122919   0.394   2.014   3.752  0.3995  0.6594  1.1272
  428TIP3    H222920   0.273   1.937   3.800 -0.7059  1.7639  0.1691
  429TIP3   OH222921   4.378   2.808   3.872  0.1578  0.3924  0.0428
  429TIP3    H122922   4.473   2.821   3.868  0.3177 -0.5186  0.6207
  429TIP3    H222923   4.346   2.880   3.927  0.4319  1.0294 -0.6090
  430TIP3   OH222924   6.321   5.864   2.759 -0.2271  0.1054 -0.4127
  430TIP3    H122925   6.250   5.926   2.780 -0.2157 -0.5036  1.5792
  430TIP3    H222926   6.374   5.860   2.838  1.2882 -0.4990 -1.4095
  431TIP3   OH222927   3.350   0.268   0.051 -0.2731  0.3586  0.1181
  431TIP3    H122928   3.362   0.183   0.093 -0.4247  1.4781  2.5861
  431TIP3    H222929   3.260   0.266   0.019 -0.0264 -0.6691 -0.5617
  432TIP3   OH222930   1.726   1.357   8.262 -0.2171 -0.6120  0.4278
  432TIP3    H122931   1.796   1.400   8.213 -0.4993 -2.0060 -1.2824
  432TIP3    H222932   1.767   1.277   8.297 -0.2993 -0.1529  1.6228
  433TIP3   OH222933   1.168   6.259   3.438  0.7685 -0.5186  0.3102
  433TIP3    H122934   1.213   6.340   3.461 -1.3269  0.7756  0.1078
  433TIP3    H222935   1.111   6.242   3.513 -1.1076 -0.0186 -0.9251
  434TIP3   OH222936   2.818   0.063   8.404  0.2494 -0.1235  0.0436
  434TIP3    H122937   2.856   0.050   8.491  0.4810 -0.8356 -0.1525
  434TIP3    H222938   2.742   0.118   8.419 -0.5879 -1.4495  0.9370
  435TIP3   OH222939   0.839   3.509   2.872 -0.7162  0.0912 -0.1266
  435TIP3    H122940   0.892   3.572   2.921  0.0793 -0.1155 -0.7032
  435TIP3    H222941   0.871   3.516   2.782  0.5593 -2.3001  0.0681
  436TIP3   OH222942   5.664   0.440   3.478  0.3468  0.0182  0.0777
  436TIP3    H122943   5.649   0.503   3.548  1.4408  0.2845  0.1059
  436TIP3    H222944   5.579   0.401   3.461 -0.0459  0.3790  1.1412
  437TIP3   OH222945   5.299   5.768   2.370 -0.7500 -0.6183 -1.0155
  437TIP3    H122946   5.249   5.726   2.440 -1.4388 -0.7564 -1.5793
  437TIP3    H222947   5.293   5.707   2.296  1.0939 -1.1153 -0.8135
  438TIP3   OH222948   1.243   3.052   0.809 -0.1502 -0.2491 -0.1418
  438TIP3    H122949   1.242   3.004   0.892 -0.8791  0.2268  0.1356
  438TIP3    H222950   1.179   3.007   0.754 -0.8849  0.4252  0.1417
  439TIP3   OH222951   0.753   2.687   2.683  0.0077 -0.3323 -0.6619
  439TIP3    H122952   0.795   2.762   2.642  0.5695 -0.4277 -0.2756
  439TIP3    H222953   0.711   2.639   2.611  0.2358 -0.0253 -0.9971
  440TIP3   OH222954   2.046   2.823   2.167 -0.1988  0.2717  0.3893
  440TIP3    H122955   2.018   2.735   2.146 -0.5161  0.7092 -1.1429
  440TIP3    H222956   2.141   2.821   2.157 -0.3414  0.5125 -1.5096
  441TIP3   OH222957   2.044   1.957   0.560  0.0416  0.0599 -0.6369
  441TIP3    H122958   2.090   1.993   0.484 -0.2259  0.2628 -0.7055
  441TIP3    H222959   2.099   1.885   0.590 -0.2781 -0.5990 -1.5587
  442TIP3   OH222960   1.132   1.036   1.704  0.3566  0.5231  0.0273
  442TIP3    H122961   1.086   0.954   1.690 -0.8327  1.3550 -1.1135
  442TIP3    H222962   1.175   1.025   1.790 -1.0623 -0.6803  0.6198
  443TIP3   OH222963   0.049   2.539   8.588  0.0830 -0.1778 -0.0368
  443TIP3    H122964   0.117   2.551   8.654  1.1964 -1.7520 -0.8406
  443TIP3    H222965   0.047   2.445   8.572  0.5637  0.2096 -2.9341
  444TIP3   OH222966   2.017   5.931   2.442 -0.4676 -0.0548 -0.3069
  444TIP3    H122967   1.982   5.897   2.524  0.6197 -1.1951 -0.2913
  444TIP3    H222968   2.018   6.026   2.455  0.0278 -0.2204  1.1622
  445TIP3   OH222969   6.596   3.751   1.588  0.0085  0.0172  0.3212
  445TIP3    H122970   6.624   3.660   1.585 -1.8955 -0.6304  0.6694
  445TIP3    H222971   6.622   3.787   1.503 -0.2598 -1.1895 -0.2920
  446TIP3   OH222972   3.007   2.573   0.279  0.0093  1.0823  0.0672
  446TIP3    H122973   2.975   2.661   0.257 -2.0612 -0.0364 -1.8334
  446TIP3    H222974   2.931   2.528   0.315  1.3307  0.3475  2.0810
  447TIP3   OH222975   2.496   6.307   0.197  0.4189  0.3216  0.3091
  447TIP3    H122976   2.556   6.374   0.227  1.4305  0.0706 -1.0599
  447TIP3    H222977   2.445   6.284   0.274  0.1480  2.5295  0.8453
  448TIP3   OH222978   1.757   3.075   0.658  0.3323 -0.2000 -0.0574
  448TIP3    H122979   1.688   3.024   0.616  1.2238 -0.3385 -1.4090
  448TIP3    H222980   1.808   3.010   0.707  2.2012 -0.9246 -2.7568
  449TIP3   OH222981   4.517   3.395   1.667 -0.5123  0.3500  0.1646
  449TIP3    H122982   4.500   3.332   1.597 -0.4938  1.3724 -0.7892
  449TIP3    H222983   4.476   3.477   1.637  1.1904  1.3507  0.4242
  450TIP3   OH222984   4.612   3.866   2.518  0.3568  0.3128 -0.0847
  450TIP3    H122985   4.607   3.860   2.613  0.9088 -1.1835 -0.1249
  450TIP3    H222986   4.703   3.846   2.497 -0.2257 -1.5966 -1.0312
  451TIP3   OH222987   3.628   5.376   4.161 -0.6132  0.2641 -0.2556
  451TIP3    H122988   3.664   5.317   4.095  0.7429 -0.0481  0.7235
  451TIP3    H222989   3.701   5.432   4.185 -1.1986  0.6404  0.6874
  452TIP3   OH222990   2.146   6.354   2.224  0.1944 -0.0479  1.1089
  452TIP3    H122991   2.236   6.332   2.201  0.0874 -1.6129  2.0329
  452TIP3    H222992   2.146   6.448   2.237  1.4827  0.0900  0.1944
  453TIP3   OH222993   2.613   2.101   1.229  0.9318  0.1303 -0.1558
  453TIP3    H122994   2.593   2.021   1.180  0.4157 -0.0929  0.3957
  453TIP3    H222995   2.592   2.172   1.169  1.1227 -0.1466 -0.5533
  454TIP3   OH222996   2.511   3.251   2.487 -0.3881 -0.0013  0.1411
  454TIP3    H122997   2.591   3.288   2.524  0.2132  1.3997 -2.3039
  454TIP3    H222998   2.530   3.242   2.393 -2.6373 -0.8975 -0.2977
  455TIP3   OH222999   3.515   4.420   0.569 -0.4004 -0.0266 -0.3864
  455TIP3    H123000   3.553   4.499   0.531 -1.3303  2.1574  2.7402
  455TIP3    H223001   3.421   4.440   0.576 -0.7562 -1.6462 -0.0013
  456TIP3   OH223002   5.025   1.777   1.130 -0.7711  0.2273 -0.3168
  456TIP3    H123003   5.101   1.740   1.176 -1.1085 -1.4904 -1.0275
  456TIP3    H223004   4.951   1.725   1.162 -1.6971  1.9100  0.3982
  457TIP3   OH223005   2.946   0.407   1.969 -0.2140  0.1031  0.1233
  457TIP3    H123006   2.867   0.436   2.015  0.5615 -0.2468  1.7237
  457TIP3    H223007   3.019   0.438   2.022  0.7301 -0.4752 -0.7754
  458TIP3   OH223008   0.305   4.321   1.487  0.0087 -0.1051 -0.3550
  458TIP3    H123009   0.284   4.262   1.559  0.4098  0.7875  0.5325
  458TIP3    H223010   0.388   4.361   1.514  0.3411 -0.0153 -1.4895
  459TIP3   OH223011   4.907   4.276   2.148 -0.0247 -0.0087 -0.1636
  459TIP3    H123012   4.980   4.290   2.088 -1.6988 -0.9095 -2.5744
  459TIP3    H223013   4.861   4.360   2.150  1.5411  0.9103  2.2268
  460TIP3   OH223014   4.904   3.176   2.092  0.7367 -0.1445  0.1304
  460TIP3    H123015   4.920   3.250   2.033 -2.1550 -0.8368 -1.7729
  460TIP3    H223016   4.870   3.216   2.172  0.7658  0.6701 -0.2551
  461TIP3   OH223017   3.023   0.670   3.078  0.6358  1.0011 -0.0133
  461TIP3    H123018   2.934   0.651   3.108 -0.0165  1.1055 -1.7693
  461TIP3    H223019   3.012   0.743   3.016  1.6269 -0.3509 -1.8900
  462TIP3   OH223020   5.322   3.186   1.514 -0.5532 -0.9239  0.0584
  462TIP3    H123021   5.317   3.231   1.598  0.4195 -1.6501  0.5206
  462TIP3    H223022   5.254   3.228   1.461 -2.5993 -1.7835  1.8089
  463TIP3   OH223023   2.849   0.783   4.224 -0.0461  0.5796 -0.0625
  463TIP3    H123024   2.766   0.809   4.264  0.3233 -0.5689  1.5572
  463TIP3    H223025   2.826   0.711   4.165  0.0041 -1.5351  2.2952
  464TIP3   OH223026   0.390   3.396   3.380  0.3145  0.3393  0.4112
  464TIP3    H123027   0.302   3.425   3.404 -0.8233 -0.4795 -2.3028
  464TIP3    H223028   0.382   3.372   3.287  2.8654 -1.8595  0.6552
  465TIP3   OH223029   5.910   1.957   1.232  0.0541 -0.4827  0.2237
  465TIP3    H123030   5.931   1.885   1.172 -1.9410 -0.6477 -0.3770
  465TIP3    H223031   5.859   1.916   1.302 -1.0537  0.3024 -0.0905
  466TIP3   OH223032   0.245   0.965   0.130 -0.2995 -0.2584 -0.3347
  466TIP3    H123033   0.203   0.948   0.046  0.2116 -1.0933 -0.4217
  466TIP3    H223034   0.268   0.879   0.164 -2.1404 -0.0914  1.5242
  467TIP3   OH223035   2.757   3.077   0.243 -0.0199 -0.0526 -0.4891
  467TIP3    H123036   2.711   3.070   0.327 -1.1150  0.9260 -0.9705
  467TIP3    H223037   2.809   2.997   0.237 -0.0297 -0.2040  1.0497
  468TIP3   OH223038   5.379   4.494   7.925  0.5766 -0.1542  0.2045
  468TIP3    H123039   5.315   4.466   7.859 -0.8099 -0.5007  1.6097
  468TIP3    H223040   5.434   4.417   7.940 -1.4288 -1.3604  2.0070
  469TIP3   OH223041   5.204   3.078   8.368 -0.3986 -0.9059 -0.0783
  469TIP3    H123042   5.175   2.996   8.408 -0.8085 -0.6653  0.1238
  469TIP3    H223043   5.127   3.134   8.369  0.6166  0.6723  2.8022
  470TIP3   OH223044   4.762   4.343   3.328 -0.2459 -0.2586  0.1521
  470TIP3    H123045   4.710   4.367   3.404  0.1108 -0.3080  0.4117
  470TIP3    H223046   4.851   4.373   3.349 -0.0362 -0.7555 -0.0144
  471TIP3   OH223047   3.396   3.504   3.270  0.3307 -0.0837 -0.4017
  471TIP3    H123048   3.329   3.490   3.337  0.3941  0.8023 -0.1470
  471TIP3    H223049   3.450   3.425   3.274  1.5115  0.7385  1.9528
  472TIP3   OH223050   2.567   4.070   3.534  0.1003 -0.3041 -0.0342
  472TIP3    H123051   2.488   4.122   3.549 -1.1966 -1.9248 -0.8980
  472TIP3    H223052   2.596   4.044   3.621 -0.9998 -0.6399  0.2428
  473TIP3   OH223053   4.502   4.968   2.394  0.1378 -0.0675 -1.0200
  473TIP3    H123054   4.517   4.874   2.391 -1.5310 -0.4409  0.6711
  473TIP3    H223055   4.436   4.980   2.462  0.7063  2.3887 -0.8055
  474TIP3   OH223056   1.534   5.301   1.397  0.0337 -0.3261  0.1003
  474TIP3    H123057   1.512   5.361   1.469  0.8132 -1.1540  1.0511
  474TIP3    H223058   1.630   5.298   1.398  0.0008 -2.3301  0.7275
  475TIP3   OH223059   2.807   4.096   3.892  0.1608  0.3948  0.3593
  475TIP3    H123060   2.765   4.182   3.883  0.0452  0.2867 -0.1509
  475TIP3    H223061   2.753   4.038   3.838  1.5354  0.4520 -1.1407
  476TIP3   OH223062   1.745   5.401   8.509 -0.4741 -0.0235 -0.0112
  476TIP3    H123063   1.737   5.430   8.418 -0.4967 -0.4105 -0.1340
  476TIP3    H223064   1.694   5.465   8.559 -1.2744 -0.3605 -0.3785
  477TIP3   OH223065   0.822   4.030   3.897 -0.0391  0.1832  0.6749
  477TIP3    H123066   0.916   4.015   3.906  0.2381  1.9241  1.0552
  477TIP3    H223067   0.782   3.946   3.921  1.4378 -1.7100 -2.7488
  478TIP3   OH223068   4.751   3.186   1.727 -0.1647  0.4176  0.0916
  478TIP3    H123069   4.693   3.196   1.803 -1.0795  1.1658 -0.6660
  478TIP3    H223070   4.785   3.274   1.711  0.8739  0.0599  0.2794
  479TIP3   OH223071   0.791   5.501   2.050  0.0436  0.1533  0.1840
  479TIP3    H123072   0.728   5.450   2.000  1.3116 -0.0092 -1.3373
  479TIP3    H223073   0.762   5.592   2.039 -1.2856 -0.0664  1.5485
  480TIP3   OH223074   0.967   5.110   2.311 -0.3389 -0.2507  0.1130
  480TIP3    H123075   0.891   5.168   2.322 -0.7619 -1.0025  1.3455
  480TIP3    H223076   0.939   5.026   2.347  0.4591 -1.0978 -1.1385
  481TIP3   OH223077   3.224   2.945   1.866 -0.0330  0.2627  0.0996
  481TIP3    H123078   3.240   2.975   1.955 -1.2615 -0.0060  0.4368
  481TIP3    H223079   3.212   2.850   1.874 -0.9892  0.3453 -0.2031
  482TIP3   OH223080   1.851   0.592   2.887 -0.2656 -0.0166 -0.1968
  482TIP3    H123081   1.865   0.603   2.793  0.1517 -3.0353 -0.5767
  482TIP3    H223082   1.857   0.498   2.901 -0.2409  0.3593  2.8968
  483TIP3   OH223083   3.933   0.752   3.233  0.0791 -0.0600 -0.2263
  483TIP3    H123084   3.978   0.749   3.149 -0.8640  1.0108 -0.7982
  483TIP3    H223085   3.933   0.845   3.257 -0.4070 -0.2502  0.5378
  484TIP3   OH223086   4.340   5.812   1.204  0.0455 -0.2086 -0.4951
  484TIP3    H123087   4.407   5.880   1.207  0.2144 -0.2771 -2.1250
  484TIP3    H223088   4.257   5.860   1.194 -0.1763 -0.1337  1.3239
  485TIP3   OH223089   0.175   4.057   1.652 -0.3185  0.0021 -0.1433
  485TIP3    H123090   0.122   3.992   1.606 -0.2404  1.5988 -2.6972
  485TIP3    H223091   0.224   4.006   1.717 -0.6303 -2.4036 -1.6472
  486TIP3   OH223092   0.935   2.029   2.381 -0.0250 -0.3204 -0.2354
  486TIP3    H123093   1.027   2.010   2.403  0.3746  0.3452 -1.2483
  486TIP3    H223094   0.931   2.020   2.286 -0.3463  2.1943 -0.5351
  487TIP3   OH223095   3.741   5.079   4.057 -0.1384  0.5118  0.5198
  487TIP3    H123096   3.761   5.047   4.145 -0.8970  1.3093  0.9983
  487TIP3    H223097   3.799   5.028   3.999  1.3896  0.9639  1.5917
  488TIP3   OH223098   0.610   6.529   2.569 -0.5213  0.1895 -0.4293
  488TIP3    H123099   0.673   6.488   2.629 -2.0242  1.4265  2.1976
  488TIP3    H223100   0.661   6.597   2.524  0.6619 -0.7473 -0.5577
  489TIP3   OH223101   4.859   5.228   2.757  0.6475  0.3123  0.2193
  489TIP3    H123102   4.771   5.192   2.768  0.5477  0.7429  0.9140
  489TIP3    H223103   4.908   5.158   2.714 -0.3406  0.5172 -1.3399
  490TIP3   OH223104   6.383   4.650   2.615  0.4002 -0.5981 -0.2152
  490TIP3    H123105   6.378   4.745   2.629  0.8532 -0.4392 -1.0748
  490TIP3    H223106   6.293   4.623   2.600  0.1690 -0.4390  0.7688
  491TIP3   OH223107   3.479   0.130   8.574 -0.2325  0.7992 -0.0825
  491TIP3    H123108   3.455   0.064   8.509 -0.4285  0.0529  0.7167
  491TIP3    H223109   3.396   0.165   8.604 -0.1659  0.8356  0.0620
  492TIP3   OH223110   2.992   3.469   2.020 -0.0398  0.5125  0.0492
  492TIP3    H123111   3.043   3.455   1.940 -0.1931  1.1464 -0.1573
  492TIP3    H223112   3.034   3.412   2.085 -0.4277 -0.6571 -0.6877
  493TIP3   OH223113   3.016   4.421   8.629  0.1611 -0.2838 -0.1266
  493TIP3    H123114   3.077   4.347   8.636 -0.6280 -0.8405  1.1071
  493TIP3    H223115   2.933   4.381   8.604 -0.2755  0.1827  0.5623
  494TIP3   OH223116   3.106   3.930   3.708 -0.2023  0.5564 -0.4441
  494TIP3    H123117   3.186   3.984   3.706 -0.9591  1.7594  0.6372
  494TIP3    H223118   3.093   3.910   3.800  0.1798 -1.7398 -0.8351
  495TIP3   OH223119   0.150   3.354   0.468  0.3531 -0.4124 -0.0229
  495TIP3    H123120   0.117   3.414   0.401  0.0855 -0.4281  0.0926
  495TIP3    H223121   0.098   3.374   0.546 -1.3442 -2.3303 -0.5818
  496TIP3   OH223122   0.289   6.258   0.922  0.5174 -0.2739  0.4217
  496TIP3    H123123   0.280   6.352   0.911 -0.0906 -0.3363  0.3410
  496TIP3    H223124   0.254   6.240   1.010 -0.1712 -0.5265  0.1047
  497TIP3   OH223125   4.876   6.614   2.181 -0.4090  0.4167 -0.2578
  497TIP3    H123126   4.848   6.542   2.237  0.3053  1.4887  1.5695
  497TIP3    H223127   4.825   6.689   2.211  2.8299  1.9808  1.8551
  498TIP3   OH223128   2.881   3.384   1.230  0.0747 -0.1405 -0.4135
  498TIP3    H123129   2.825   3.364   1.156  0.6016 -0.3347 -0.7627
  498TIP3    H223130   2.847   3.331   1.302 -1.8308  1.6690  0.1255
  499TIP3   OH223131   6.347   4.474   0.870  0.0404 -0.1302 -0.5144
  499TIP3    H123132   6.427   4.433   0.838  1.4521  1.7237  0.4549
  499TIP3    H223133   6.341   4.557   0.822  1.6516  2.2263  2.9275
  500TIP3   OH223134   4.440   2.285   3.429 -0.4856 -0.5267  0.0418
  500TIP3    H123135   4.492   2.345   3.375 -0.3632  0.0020  0.7214
  500TIP3    H223136   4.467   2.306   3.519 -0.7645 -1.3079  0.3124
  501TIP3   OH223137   3.048   5.521   1.941  0.0267 -0.0769  0.4842
  501TIP3    H123138   3.037   5.445   1.883 -1.6601 -0.3197  1.0782
  501TIP3    H223139   3.055   5.484   2.029  0.6967  0.3874  0.6312
  502TIP3   OH223140   0.416   1.413   0.265  0.0423 -0.1715  0.0073
  502TIP3    H123141   0.478   1.444   0.199 -0.7788 -0.1639 -0.7681
  502TIP3    H223142   0.407   1.319   0.248  0.2581 -0.2802  0.4721
  503TIP3   OH223143   5.306   1.629   1.065  0.0262  0.1954  0.8038
  503TIP3    H123144   5.362   1.707   1.063 -1.1931  1.0974 -2.0593
  503TIP3    H223145   5.352   1.565   1.011 -1.8072  1.1641 -2.1410
  504TIP3   OH223146   2.892   2.113   2.223  0.4031  0.0446  0.7227
  504TIP3    H123147   2.903   2.159   2.306  0.5406  2.5316 -0.5709
  504TIP3    H223148   2.980   2.111   2.185 -0.0500  1.3297 -0.4856
  505TIP3   OH223149   1.516   0.396   0.819  0.4431 -0.6655 -0.1126
  505TIP3    H123150   1.561   0.322   0.860 -0.4908  0.1282  2.5726
  505TIP3    H223151   1.436   0.358   0.782  1.6481 -1.5216 -1.9708
  506TIP3   OH223152   6.134   6.555   1.239  0.1707  0.3149 -0.0693
  506TIP3    H123153   6.116   6.472   1.284 -1.0826  0.2357 -0.7001
  506TIP3    H223154   6.105   6.622   1.301  0.6439  0.2748  0.2007
  507TIP3   OH223155   1.185   2.190   8.772 -0.0511  0.3714  0.3382
  507TIP3    H123156   1.213   2.108   8.733 -0.0806  0.9076 -0.8759
  507TIP3    H223157   1.169   2.170   8.864  2.5695 -0.3640  0.7146
  508TIP3   OH223158   0.877   2.268   0.509 -0.2451  0.0354 -0.3288
  508TIP3    H123159   0.960   2.258   0.556 -0.1964  0.3168 -0.3523
  508TIP3    H223160   0.819   2.204   0.550  0.1502 -0.5694 -0.6970
  509TIP3   OH223161   5.307   3.715   2.245 -0.1359  0.4793  0.2743
  509TIP3    H123162   5.285   3.631   2.207 -1.5295 -0.0260  2.0807
  509TIP3    H223163   5.230   3.770   2.230  0.3734  1.1310 -0.0246
  510TIP3   OH223164   3.024   4.994   4.017  0.4722 -0.1281 -0.3373
  510TIP3    H123165   2.945   4.972   3.967  1.6733 -0.5812 -2.1257
  510TIP3    H223166   3.089   4.930   3.989  1.5673  0.4013  0.8920
  511TIP3   OH223167   6.100   4.483   1.068  0.1679  0.3816  0.4986
  511TIP3    H123168   6.095   4.392   1.097  0.3089  0.2499  0.1182
  511TIP3    H223169   6.141   4.478   0.981 -0.5108  0.7434  0.1479
  512TIP3   OH223170   6.658   2.313   4.299 -0.5651 -0.0407 -0.4907
  512TIP3    H123171   6.680   2.287   4.388  4.2422 -0.5710 -1.5581
  512TIP3    H223172   6.646   2.408   4.303 -3.4840 -0.3490  1.0318
  513TIP3   OH223173   6.058   6.069   2.165  0.5709  0.8653 -0.1195
  513TIP3    H123174   5.969   6.037   2.182  0.7067  0.4686 -0.1449
  513TIP3    H223175   6.058   6.159   2.199  0.1011  0.9402 -0.3022
  514TIP3   OH223176   4.357   6.561   3.542 -0.1945 -0.1021  0.2806
  514TIP3    H123177   4.326   6.535   3.629 -0.3404  1.4747  0.7308
  514TIP3    H223178   4.392   6.481   3.504 -1.6022 -1.1723  1.1482
  515TIP3   OH223179   5.524   2.947   2.307 -0.9924 -0.2045 -0.2204
  515TIP3    H123180   5.541   2.947   2.213 -4.1832 -0.0010 -0.9380
  515TIP3    H223181   5.520   2.854   2.331 -3.2176 -0.4050 -1.0743
  516TIP3   OH223182   0.189   4.934   0.274 -0.4543 -0.4441  0.7145
  516TIP3    H123183   0.099   4.941   0.306 -1.1102 -0.5079 -1.0318
  516TIP3    H223184   0.217   5.024   0.260 -0.7467 -0.4571 -0.0161
  517TIP3   OH223185   4.027   1.954   0.913  0.3344  0.2145  0.1201
  517TIP3    H123186   4.033   1.860   0.896 -0.7886 -0.1754  1.6301
  517TIP3    H223187   4.054   1.996   0.831  1.4111 -1.4121 -0.3910
  518TIP3   OH223188   0.198   5.950   1.089  0.3835  0.0682 -0.0461
  518TIP3    H123189   0.201   5.959   0.994 -0.0385  0.5126 -0.0275
  518TIP3    H223190   0.192   5.856   1.105 -0.4888  0.0361 -0.5016
  519TIP3   OH223191   0.018   1.131   1.210  0.0233 -0.1351 -0.3423
  519TIP3    H123192   0.047   1.052   1.255  0.6263 -0.2444 -0.9048
  519TIP3    H223193  -0.077   1.126   1.212  0.0520 -0.8362 -0.2876
  520TIP3   OH223194   3.691   6.643   0.294  0.2596  0.0179  0.0396
  520TIP3    H123195   3.770   6.614   0.340  0.5051  0.9264  0.2243
  520TIP3    H223196   3.722   6.666   0.206 -0.4955 -3.3905 -1.2852
  521TIP3   OH223197   3.349   2.259   3.246  0.0202  0.1656  0.0120
  521TIP3    H123198   3.295   2.221   3.315 -0.0242  0.2592  0.0289
  521TIP3    H223199   3.399   2.329   3.289  0.5104 -0.2331  0.0992
  522TIP3   OH223200   2.555   5.615   3.502 -0.6120  0.2111  0.1800
  522TIP3    H123201   2.499   5.555   3.551  2.4847 -2.3232  0.9014
  522TIP3    H223202   2.576   5.684   3.565 -0.5515 -0.4253  0.8779
  523TIP3   OH223203   1.308   3.813   3.311  0.0421  0.0086 -0.5672
  523TIP3    H123204   1.229   3.850   3.272 -0.5987 -0.6410  0.0775
  523TIP3    H223205   1.286   3.801   3.404  1.6488  1.8556  0.1129
  524TIP3   OH223206   0.255   1.617   1.902  0.3276 -0.0841 -0.0465
  524TIP3    H123207   0.332   1.560   1.900  0.1479 -0.3177 -0.5902
  524TIP3    H223208   0.181   1.557   1.916  0.0689 -0.0815 -1.2394
  525TIP3   OH223209   5.081   0.782   1.823  0.0671 -0.1856  0.2764
  525TIP3    H123210   5.023   0.739   1.760  0.2257 -1.1479  0.7757
  525TIP3    H223211   5.029   0.856   1.856 -0.3217 -0.1636 -0.3762
  526TIP3   OH223212   3.815   4.734   1.613 -0.7478  0.1338 -0.0464
  526TIP3    H123213   3.862   4.734   1.697 -0.4520 -1.2797 -0.1836
  526TIP3    H223214   3.859   4.801   1.561  1.2560 -1.2486 -0.2223
  527TIP3   OH223215   5.640   0.063   3.443 -0.0909  0.0725 -0.3164
  527TIP3    H123216   5.610   0.098   3.359  1.3042  1.0244 -0.4619
  527TIP3    H223217   5.590   0.113   3.509 -0.6504 -0.1554 -0.5621
  528TIP3   OH223218   5.182   2.874   0.988 -0.6228  0.0876  0.1820
  528TIP3    H123219   5.182   2.969   0.986  0.6578  0.1472  1.5093
  528TIP3    H223220   5.255   2.849   0.931 -2.1430 -0.2015 -1.7225
  529TIP3   OH223221   4.767   3.903   1.877 -0.1852 -0.2714  0.1830
  529TIP3    H123222   4.733   3.939   1.959  1.9884  0.1301  0.9658
  529TIP3    H223223   4.722   3.953   1.809  1.2836  2.7195  1.2095
  530TIP3   OH223224   2.218   5.341   2.553 -0.1468  0.3251 -1.1199
  530TIP3    H123225   2.158   5.297   2.493 -1.6258 -0.2022  0.6292
  530TIP3    H223226   2.165   5.411   2.593  1.3421  1.8963 -1.7708
  531TIP3   OH223227   5.998   4.866   0.941  0.5535  0.4897 -0.2825
  531TIP3    H123228   5.992   4.960   0.958 -1.2593  0.3627  0.0259
  531TIP3    H223229   5.960   4.826   1.019  0.4074 -0.4607 -0.8362
  532TIP3   OH223230   0.794   5.731   0.195  0.3707  0.0358 -0.3009
  532TIP3    H123231   0.719   5.790   0.186 -0.6680 -1.0517  0.7782
  532TIP3    H223232   0.860   5.783   0.241 -0.7932  0.1893  1.2699
  533TIP3   OH223233   4.480   3.235   1.464 -0.2750  0.9757  0.3663
  533TIP3    H123234   4.468   3.140   1.463 -2.0596  1.1439 -1.3495
  533TIP3    H223235   4.533   3.254   1.387  0.7645  1.3243  1.1535
  534TIP3   OH223236   1.317   2.612   0.806  0.2046  0.1771  0.6100
  534TIP3    H123237   1.398   2.661   0.789  0.3284 -0.1548  0.2395
  534TIP3    H223238   1.346   2.524   0.827 -0.1143 -0.5734 -1.7151
  535TIP3   OH223239   4.105   0.931   1.765 -0.1238  0.2464 -0.6704
  535TIP3    H123240   4.043   0.861   1.745  0.1397  0.0525 -0.8141
  535TIP3    H223241   4.067   1.009   1.725 -0.2803  0.1310 -0.7476
  536TIP3   OH223242   4.428   4.511   0.727 -0.0505 -0.1614 -0.3342
  536TIP3    H123243   4.467   4.570   0.791  1.6231 -2.0084  0.4475
  536TIP3    H223244   4.396   4.569   0.658  0.5631  1.7086  0.8604
  537TIP3   OH223245   2.674   3.597   2.596 -0.2417 -0.0311  0.0892
  537TIP3    H123246   2.722   3.566   2.519  0.1190 -0.3533  0.4360
  537TIP3    H223247   2.739   3.646   2.647 -0.6010  0.5885 -0.0437
  538TIP3   OH223248   2.354   3.034   8.005  0.1296  0.6006 -0.4146
  538TIP3    H123249   2.315   3.049   7.918  3.0858 -0.4775 -2.0441
  538TIP3    H223250   2.424   3.099   8.011 -0.2448  0.8874  1.3779
  539TIP3   OH223251   4.127   3.984   1.807  0.3329  0.1124  0.1887
  539TIP3    H123252   4.124   4.070   1.849  0.6142 -0.2223  0.9113
  539TIP3    H223253   4.214   3.949   1.830  0.9110  0.3347 -1.5251
  540TIP3   OH223254   1.740   3.796   2.332  0.0134  0.0520 -0.0985
  540TIP3    H123255   1.781   3.881   2.318  2.3173 -0.9075  0.2982
  540TIP3    H223256   1.762   3.773   2.422 -0.2451 -1.1086 -0.3049
  541TIP3   OH223257   1.432   3.197   1.708  0.1865  0.0980  0.3241
  541TIP3    H123258   1.468   3.109   1.699 -0.3695 -0.0565 -0.5106
  541TIP3    H223259   1.505   3.255   1.688  0.0667 -0.2113 -1.1137
  542TIP3   OH223260   1.126   6.409   8.360 -0.0292 -0.1234 -0.1874
  542TIP3    H123261   1.043   6.456   8.364  0.6301  1.0139  0.8604
  542TIP3    H223262   1.142   6.396   8.266 -1.0972  0.1604 -0.4170
  543TIP3   OH223263   1.566   4.617   1.166  0.0096  0.0993  0.2339
  543TIP3    H123264   1.612   4.656   1.240  0.6275 -0.0123 -0.0819
  543TIP3    H223265   1.479   4.597   1.199  0.0009  0.8419  0.6849
  544TIP3   OH223266   3.585   0.953   1.400 -0.2203  0.6274  0.2541
  544TIP3    H123267   3.677   0.944   1.424 -0.1766 -1.3003 -0.4679
  544TIP3    H223268   3.537   0.933   1.481 -0.0304  1.4170  0.5738
  545TIP3   OH223269   6.576   5.649   2.988  0.8200  0.1686 -0.0240
  545TIP3    H123270   6.571   5.556   2.964  0.2220  0.2056 -0.0493
  545TIP3    H223271   6.558   5.650   3.082 -0.8189  0.4120 -0.3201
  546TIP3   OH223272   6.210   0.659   2.346 -0.1247 -0.0890  0.3102
  546TIP3    H123273   6.280   0.677   2.408  0.6605 -1.0657 -0.2654
  546TIP3    H223274   6.255   0.632   2.266 -1.1535 -1.4992  0.1642
  547TIP3   OH223275   3.244   1.315   0.595 -0.0080  0.2197  0.4322
  547TIP3    H123276   3.173   1.250   0.596 -0.1576  0.3778  0.2112
  547TIP3    H223277   3.213   1.385   0.652 -0.4079  0.6829 -0.3365
  548TIP3   OH223278   1.847   4.787   1.250 -0.1388 -0.4421  0.1306
  548TIP3    H123279   1.940   4.804   1.237 -0.4902  1.4963 -0.1392
  548TIP3    H223280   1.844   4.705   1.300  1.6796 -0.6932 -0.1078
  549TIP3   OH223281   2.745   0.869   8.424  1.4067  0.1511 -0.0480
  549TIP3    H123282   2.834   0.843   8.448  2.2050  2.1964 -0.6166
  549TIP3    H223283   2.756   0.930   8.352 -0.3677  1.4708  0.7304
  550TIP3   OH223284   4.685   0.843   3.840  0.5981 -0.2608  0.4627
  550TIP3    H123285   4.596   0.822   3.814  0.9370 -1.4239  0.1653
  550TIP3    H223286   4.713   0.913   3.781  0.3790 -0.8978 -0.4048
  551TIP3   OH223287   3.983   1.051   3.577 -0.1192  0.5228  0.1591
  551TIP3    H123288   3.968   1.025   3.668 -1.3810 -0.7985 -0.3843
  551TIP3    H223289   4.050   1.120   3.582 -2.4487  2.8630  2.3794
  552TIP3   OH223290   2.683   2.081   4.029 -0.6684 -0.4979 -0.5764
  552TIP3    H123291   2.637   2.005   4.065 -2.4015  1.3223  1.3145
  552TIP3    H223292   2.615   2.132   3.985  0.3117  0.3169 -1.2046
  553TIP3   OH223293   0.642   6.127   2.095 -0.2966  0.0614  0.8449
  553TIP3    H123294   0.561   6.131   2.043  0.6725 -1.4659 -0.8901
  553TIP3    H223295   0.696   6.062   2.050  3.0924  3.0089  0.2313
  554TIP3   OH223296   4.395   4.305   1.010 -0.6876  0.2634  0.8403
  554TIP3    H123297   4.329   4.336   1.072 -3.2290 -2.8780 -0.0242
  554TIP3    H223298   4.444   4.239   1.058 -1.3393 -0.7480  0.1573
  555TIP3   OH223299   2.244   1.829   0.739  0.6330  0.1828 -0.3327
  555TIP3    H123300   2.257   1.924   0.740  0.2158  0.2411  0.4412
  555TIP3    H223301   2.247   1.803   0.831 -0.7872 -0.3215 -0.4038
  556TIP3   OH223302   1.049   6.281   0.806  0.2809 -0.0906  0.1379
  556TIP3    H123303   1.031   6.317   0.719  2.4647  0.8073 -0.0096
  556TIP3    H223304   0.972   6.228   0.827 -0.3988 -0.1315 -2.2263
  557TIP3   OH223305   4.788   6.671   0.798  0.6147  0.2852 -0.0705
  557TIP3    H123306   4.763   6.715   0.717  1.8248 -1.4906 -1.4958
  557TIP3    H223307   4.869   6.716   0.825  1.7503 -0.8352 -1.4217
  558TIP3   OH223308   1.149   3.906   1.326 -0.0105 -0.3336  0.3530
  558TIP3    H123309   1.209   3.937   1.259  1.4281 -1.4595  1.0548
  558TIP3    H223310   1.106   3.830   1.288  2.3950 -2.3243  1.3416
  559TIP3   OH223311   3.914   0.715   1.180 -0.2442  0.8372 -0.4181
  559TIP3    H123312   3.874   0.685   1.262 -3.1965  2.5444 -1.0889
  559TIP3    H223313   3.940   0.806   1.198 -1.0415  1.2734 -1.3687
  560TIP3   OH223314   3.500   0.983   1.116 -0.1677  0.2895  0.5666
  560TIP3    H123315   3.448   1.061   1.098 -0.3005  0.0720 -0.0059
  560TIP3    H223316   3.547   1.004   1.197 -0.0402  1.0413  0.3085
  561TIP3   OH223317   1.366   3.830   3.001 -0.7324 -0.5901  0.4831
  561TIP3    H123318   1.357   3.853   3.093  0.7983 -0.7811  0.7036
  561TIP3    H223319   1.439   3.768   2.998  0.2072  0.5192 -1.0193
  562TIP3   OH223320   3.067   0.225   8.527 -0.2536  0.1157  0.4212
  562TIP3    H123321   3.097   0.172   8.602 -0.5950  1.6972  1.7461
  562TIP3    H223322   3.142   0.282   8.508  0.4034 -1.2851 -1.5094
  563TIP3   OH223323   4.100   6.732   2.855  0.0226  0.2290 -0.0473
  563TIP3    H123324   4.067   6.821   2.847 -1.2903 -0.3739 -1.9915
  563TIP3    H223325   4.035   6.678   2.812  0.0892 -1.8962  2.2650
  564TIP3   OH223326   0.679   1.565   0.663  0.2377  0.4080 -0.1012
  564TIP3    H123327   0.738   1.509   0.713 -2.3308 -1.8799  0.5913
  564TIP3    H223328   0.685   1.533   0.573  1.1348  1.2222 -0.3539
  565TIP3   OH223329   1.469   0.175   8.696  0.3822 -0.7590  0.5525
  565TIP3    H123330   1.439   0.222   8.618 -1.7115 -1.0727  1.1068
  565TIP3    H223331   1.495   0.089   8.663 -1.0855 -1.1134  0.2300
  566TIP3   OH223332   3.787   4.516   1.835 -0.0706 -0.0264 -0.2437
  566TIP3    H123333   3.867   4.488   1.791  0.0486 -0.4830  0.2634
  566TIP3    H223334   3.817   4.554   1.918 -0.2690  1.1190 -0.6664
  567TIP3   OH223335   1.297   5.039   1.341  0.0659  0.2530  0.2728
  567TIP3    H123336   1.366   5.016   1.279  0.3520 -0.9670  1.0255
  567TIP3    H223337   1.216   5.015   1.296  0.2939 -1.0239  0.5134
  568TIP3   OH223338   2.306   0.131   4.425  0.3025  0.0135 -0.0762
  568TIP3    H123339   2.371   0.117   4.357 -0.2089  2.0212 -1.0454
  568TIP3    H223340   2.268   0.217   4.405 -1.4379 -0.3406  1.4428
  569TIP3   OH223341   3.478   4.351   8.759  0.6255 -0.1984 -0.4034
  569TIP3    H123342   3.527   4.272   8.780  0.1201 -0.0472  1.4874
  569TIP3    H223343   3.470   4.398   8.842  0.0722  1.3739 -1.2941
  570TIP3   OH223344   5.547   0.760   1.668  0.1292 -0.1754  0.2125
  570TIP3    H123345   5.513   0.684   1.715  0.9999 -1.3176 -0.9231
  570TIP3    H223346   5.491   0.832   1.695 -1.4946 -1.4525  0.4125
  571TIP3   OH223347   2.519   0.073   3.754  0.2887 -0.1772 -0.3289
  571TIP3    H123348   2.445   0.014   3.764  1.9051 -2.0266  1.7542
  571TIP3    H223349   2.593   0.017   3.730  1.7460  1.0597  0.9818
  572TIP3   OH223350   1.170   5.560   8.550  0.3309  0.2397  0.2587
  572TIP3    H123351   1.219   5.531   8.626  0.8284  3.6843  1.4352
  572TIP3    H223352   1.229   5.620   8.504 -1.5542  1.9604 -0.0974
  573TIP3   OH223353   1.624   6.854   8.529 -0.3712  0.5095 -0.2139
  573TIP3    H123354   1.633   6.791   8.457 -0.7852 -1.6045  1.4999
  573TIP3    H223355   1.706   6.904   8.526  0.5245 -0.9070 -0.9095
  574TIP3   OH223356   1.733   2.354   0.192  0.0826  0.0082 -0.8092
  574TIP3    H123357   1.715   2.445   0.213 -0.2691 -0.6221  2.1236
  574TIP3    H223358   1.667   2.330   0.127 -1.2537  1.2728  0.0158
  575TIP3   OH223359   4.675   4.881   8.524  0.2190 -0.1406  0.1855
  575TIP3    H123360   4.719   4.950   8.474 -1.6151 -0.2082 -1.6516
  575TIP3    H223361   4.593   4.921   8.553 -0.0752 -1.0255  0.6139
  576TIP3   OH223362   0.734   2.288   3.240 -0.4983 -0.4094 -0.2728
  576TIP3    H123363   0.757   2.380   3.233 -0.3976 -0.4282 -0.1845
  576TIP3    H223364   0.675   2.284   3.316 -2.6300 -0.0004 -1.7994
  577TIP3   OH223365   0.696   4.565   2.597  0.4908  0.2333 -0.2481
  577TIP3    H123366   0.618   4.559   2.653 -0.0138 -0.2024 -0.9692
  577TIP3    H223367   0.750   4.491   2.624  0.5367  0.3843  0.0790
  578TIP3   OH223368   0.555   6.204   0.675 -0.2421 -0.0605 -0.0464
  578TIP3    H123369   0.573   6.237   0.763 -0.2494  2.3609 -0.8921
  578TIP3    H223370   0.641   6.185   0.638 -0.2783 -1.9962  0.7576
  579TIP3   OH223371   2.664   4.748   3.625 -0.2537 -0.4487  0.6157
  579TIP3    H123372   2.705   4.829   3.657  1.5519 -1.3611  0.7646
  579TIP3    H223373   2.649   4.696   3.704  2.2543 -1.8289  0.3020
  580TIP3   OH223374   0.196   5.922   0.172 -0.0717 -0.5836 -0.6526
  580TIP3    H123375   0.217   5.933   0.264  2.9291 -1.4966 -1.1256
  580TIP3    H223376   0.216   6.006   0.132 -0.0462 -0.5964 -0.6672
  581TIP3   OH223377   2.974   5.316   1.777  0.4850  0.0185  0.2505
  581TIP3    H123378   2.918   5.241   1.755  1.0625 -0.1871 -0.5295
  581TIP3    H223379   3.063   5.285   1.762  0.7292  0.8665 -0.0914
  582TIP3   OH223380   5.711   6.000   8.422 -0.4039 -0.0544  0.1908
  582TIP3    H123381   5.631   6.044   8.392 -0.1837  0.3761  0.2196
  582TIP3    H223382   5.734   6.047   8.502  0.2112  0.2144 -0.1407
  583TIP3   OH223383   3.610   2.763   2.430  0.4111 -0.0700 -0.6162
  583TIP3    H123384   3.665   2.685   2.437  2.2293  1.2470  0.6143
  583TIP3    H223385   3.626   2.796   2.341  2.0199  0.5506 -0.1197
  584TIP3   OH223386   2.325   0.878   0.256  0.7244 -0.4802 -0.6562
  584TIP3    H123387   2.243   0.829   0.261  0.4073  0.1367  0.7617
  584TIP3    H223388   2.329   0.927   0.338  2.5640 -0.5578 -0.6525
  585TIP3   OH223389   4.993   1.744   0.256 -0.1075  0.2109  0.4687
  585TIP3    H123390   4.907   1.704   0.271  0.1260 -0.7285 -0.4983
  585TIP3    H223391   5.003   1.743   0.160  1.2648 -0.3395  0.5918
  586TIP3   OH223392   1.199   5.921   7.981  0.5547 -0.5824  0.5699
  586TIP3    H123393   1.265   5.874   8.032  1.0743 -1.0954 -0.5477
  586TIP3    H223394   1.249   5.988   7.934  0.5093 -1.7548 -1.2358
  587TIP3   OH223395   6.290   3.711   3.175  0.5385  0.4441 -0.3530
  587TIP3    H123396   6.264   3.620   3.163  1.9290 -0.0682  0.2906
  587TIP3    H223397   6.261   3.755   3.095  1.2108 -0.8803 -1.3618
  588TIP3   OH223398   3.579   4.650   0.418 -0.0348 -0.1619  0.3126
  588TIP3    H123399   3.508   4.708   0.448  0.4939  0.1763  0.9448
  588TIP3    H223400   3.659   4.699   0.436  0.3366 -0.0693 -1.4348
  589TIP3   OH223401   4.082   4.298   2.863  0.6382 -0.5477  0.0537
  589TIP3    H123402   4.021   4.337   2.926  0.6390 -0.5972  0.0851
  589TIP3    H223403   4.052   4.330   2.778  0.1467 -1.1291  0.0082
  590TIP3   OH223404   4.975   5.543   2.317  0.5517  0.5036  0.0328
  590TIP3    H123405   5.041   5.592   2.365  0.5375 -0.3554  0.9785
  590TIP3    H223406   4.932   5.489   2.384 -0.3782  0.2524 -0.7350
  591TIP3   OH223407   4.589   0.891   2.355 -0.3344 -0.9044  0.0157
  591TIP3    H123408   4.658   0.832   2.325 -0.1901 -0.1513 -1.1874
  591TIP3    H223409   4.528   0.835   2.403 -0.6236 -2.1933 -1.7786
  592TIP3   OH223410   6.282   5.783   1.298  0.5454  0.2907 -0.6376
  592TIP3    H123411   6.368   5.780   1.339 -0.8100 -0.3717  2.4553
  592TIP3    H223412   6.235   5.852   1.344 -0.4677  0.9849 -2.6005
  593TIP3   OH223413   1.229   0.137   2.515  0.2867  0.0618  0.2750
  593TIP3    H123414   1.269   0.053   2.489 -0.0261  0.6882 -2.4358
  593TIP3    H223415   1.158   0.112   2.574  0.8544 -1.4823  0.3570
  594TIP3   OH223416   0.889   1.507   8.749 -0.4386 -0.1191  0.6370
  594TIP3    H123417   0.928   1.594   8.755  1.2440 -0.7292 -0.4132
  594TIP3    H223418   0.939   1.454   8.811 -0.2896 -0.6824  0.0585
  595TIP3   OH223419   6.254   3.082   2.700 -0.5238  0.3963  0.4978
  595TIP3    H123420   6.222   3.069   2.790 -0.9516  0.8183  0.4108
  595TIP3    H223421   6.218   3.008   2.652 -1.1738  0.7270  0.4572
  596TIP3   OH223422   2.379   6.837   3.407 -0.6963 -0.3390 -0.0485
  596TIP3    H123423   2.420   6.913   3.365 -1.0806 -0.3729 -0.4954
  596TIP3    H223424   2.452   6.779   3.428 -0.5378 -0.5971 -1.2308
  597TIP3   OH223425   1.242   0.368   1.857  0.4027  0.3047 -0.8860
  597TIP3    H123426   1.230   0.356   1.951 -0.2902 -0.5137 -1.0675
  597TIP3    H223427   1.307   0.302   1.833  0.5528  0.4896 -0.9874
  598TIP3   OH223428   3.388   6.722   0.583 -0.4300  0.4028  0.1599
  598TIP3    H123429   3.439   6.771   0.519 -1.3517 -0.1200 -1.0214
  598TIP3    H223430   3.302   6.711   0.542 -0.2937 -2.1313  0.3633
  599TIP3   OH223431   1.273   6.601   2.033  0.1570 -0.0712 -0.4555
  599TIP3    H123432   1.331   6.655   2.086 -0.9225 -2.9791  4.3927
  599TIP3    H223433   1.202   6.660   2.007 -0.1854  1.3853  3.1609
  600TIP3   OH223434   5.081   2.429   3.578 -1.1332 -0.4207 -0.1473
  600TIP3    H123435   5.008   2.367   3.587  0.6127 -2.7542 -1.0557
  600TIP3    H223436   5.119   2.433   3.665 -1.4521 -0.3603 -0.0082
  601TIP3   OH223437   4.366   6.361   2.479 -0.0259 -0.2188 -0.2634
  601TIP3    H123438   4.357   6.384   2.386  0.5836  2.5026  0.2631
  601TIP3    H223439   4.280   6.381   2.517 -0.4824 -1.9530 -0.3081
  602TIP3   OH223440   6.043   6.178   0.171  0.4403  0.3260 -0.1861
  602TIP3    H123441   6.074   6.124   0.098  0.5089  1.1494 -0.7916
  602TIP3    H223442   6.015   6.260   0.129 -0.5117  0.4227  0.5947
  603TIP3   OH223443   4.309   6.057   2.734 -0.2287 -0.2851  0.2235
  603TIP3    H123444   4.287   6.062   2.827  0.1038  0.1895  0.2810
  603TIP3    H223445   4.381   6.119   2.723  0.0789 -0.7148 -0.2518
  604TIP3   OH223446   4.170   5.110   8.539  0.0225  0.2669  0.2411
  604TIP3    H123447   4.262   5.087   8.542  0.2584  0.9401 -1.1144
  604TIP3    H223448   4.167   5.192   8.489 -1.1951  0.8660  1.2579
  605TIP3   OH223449   4.500   0.967   7.927 -0.3152 -0.4560  0.0221
  605TIP3    H123450   4.448   1.045   7.948 -0.4373 -0.5918  0.2314
  605TIP3    H223451   4.526   0.932   8.012 -0.9244 -1.0908 -0.0437
  606TIP3   OH223452   3.111   1.392   8.560 -0.3105  0.5935  0.4619
  606TIP3    H123453   3.049   1.356   8.622 -0.2548  1.1067  0.8238
  606TIP3    H223454   3.085   1.356   8.475 -1.7462  1.5952  0.4369
  607TIP3   OH223455   4.155   3.708   0.547 -0.3379  0.4390  0.0597
  607TIP3    H123456   4.244   3.703   0.582 -0.6319 -0.2536  0.7326
  607TIP3    H223457   4.160   3.776   0.480  0.4155  1.2779  0.9395
  608TIP3   OH223458   4.404   1.591   0.459 -0.0966  0.6317 -0.6248
  608TIP3    H123459   4.354   1.559   0.384  1.1875  2.0213 -2.1556
  608TIP3    H223460   4.337   1.619   0.522 -1.2102 -1.4085 -0.7954
  609TIP3   OH223461   5.607   3.187   1.602  0.5388 -0.1807 -0.1230
  609TIP3    H123462   5.521   3.209   1.567  0.9054 -0.7560 -1.4554
  609TIP3    H223463   5.644   3.271   1.629 -0.2952  0.1108  0.1484
  610TIP3   OH223464   0.410   4.214   3.261 -0.0477 -0.0988  0.2304
  610TIP3    H123465   0.348   4.165   3.314 -1.1680  1.5544  0.5035
  610TIP3    H223466   0.369   4.299   3.247  1.1938  0.2878 -1.4414
  611TIP3   OH223467   1.515   1.301   0.424  0.0042 -0.3980 -0.2527
  611TIP3    H123468   1.446   1.239   0.446 -2.6469  2.4007 -0.0878
  611TIP3    H223469   1.502   1.319   0.331 -0.8210  1.6286  0.2243
  612TIP3   OH223470   5.883   3.276   2.748 -1.1357  0.3147 -0.0718
  612TIP3    H123471   5.897   3.181   2.742 -2.5753  0.0590  0.3040
  612TIP3    H223472   5.857   3.302   2.660 -1.0366  0.3143 -0.1018
  613TIP3   OH223473   1.184   2.170   0.280 -1.2354  0.2065 -0.5180
  613TIP3    H123474   1.138   2.253   0.290  1.1510  1.4915  0.3187
  613TIP3    H223475   1.246   2.167   0.352 -0.8540 -2.0646 -0.8534
  614TIP3   OH223476   3.020   3.599   8.383  0.0996  0.1084  0.2360
  614TIP3    H123477   2.963   3.593   8.460  1.3315 -0.3200  1.1335
  614TIP3    H223478   3.042   3.692   8.377  2.6244 -0.2552  2.4036
  615TIP3   OH223479   5.186   3.317   1.328  0.1282 -0.7421  0.5037
  615TIP3    H123480   5.210   3.395   1.277  0.4417  0.1212  1.9418
  615TIP3    H223481   5.096   3.333   1.355 -0.5210 -1.8154 -0.8391
  616TIP3   OH223482   4.807   2.919   2.695 -0.3191  0.5934 -0.3508
  616TIP3    H123483   4.745   2.990   2.713 -1.8237 -0.8702  0.5490
  616TIP3    H223484   4.880   2.936   2.754 -0.6930  1.3424 -0.0816
  617TIP3   OH223485   2.290   6.763   1.951  0.7428  0.0440 -0.6981
  617TIP3    H123486   2.232   6.778   1.877 -0.5260  0.7213  0.4068
  617TIP3    H223487   2.232   6.756   2.027  2.1607  4.2887  1.0586
  618TIP3   OH223488   4.059   2.227   1.095 -0.7594  0.4596 -0.3263
  618TIP3    H123489   4.002   2.161   1.055 -0.6437  0.6988 -0.8854
  618TIP3    H223490   4.057   2.301   1.035  1.4067 -0.1147 -1.1993
  619TIP3   OH223491   5.075   0.753   4.376  0.4077  0.2046  0.2967
  619TIP3    H123492   5.160   0.710   4.370  0.5937  0.4503  1.0683
  619TIP3    H223493   5.091   0.832   4.429 -0.4271 -0.1068  1.0501
  620TIP3   OH223494   1.031   5.438   8.345 -0.2780  0.2806 -0.1816
  620TIP3    H123495   1.082   5.474   8.418  0.8228 -0.1897 -0.6979
  620TIP3    H223496   1.071   5.476   8.267 -1.8549  1.2737 -0.5292
  621TIP3   OH223497   2.979   1.486   1.180 -0.0456 -0.1282  0.2082
  621TIP3    H123498   2.944   1.562   1.133 -0.1601  0.8533  1.8172
  621TIP3    H223499   3.065   1.514   1.210  0.4069 -1.0715 -0.1649
  622TIP3   OH223500   0.878   0.053   8.630  0.0988  0.3017  0.6702
  622TIP3    H123501   0.972   0.046   8.647 -0.1948 -0.1895  2.4118
  622TIP3    H223502   0.838   0.036   8.716 -1.6443 -1.8265 -0.4494
  623TIP3   OH223503   1.596   4.460   2.737 -0.0757  0.2337  0.1766
  623TIP3    H123504   1.534   4.389   2.723 -2.5336  2.0850  1.0090
  623TIP3    H223505   1.651   4.459   2.659 -3.0158  0.2570 -2.0620
  624TIP3   OH223506   2.810   1.015   2.061 -0.3365  0.1227 -0.3544
  624TIP3    H123507   2.902   0.995   2.045 -0.6054 -1.2049 -0.4272
  624TIP3    H223508   2.809   1.066   2.141  0.4285 -0.3104 -0.0599
  625TIP3   OH223509   1.618   2.837   0.605  0.3182 -0.1175 -0.1490
  625TIP3    H123510   1.675   2.761   0.610 -1.2617 -1.2751  2.3274
  625TIP3    H223511   1.567   2.834   0.686 -0.1835  3.3122 -0.1853
  626TIP3   OH223512   2.944   3.883   3.470  0.1186 -0.3914 -0.1512
  626TIP3    H123513   2.999   3.913   3.542 -0.7540  0.7624  0.0551
  626TIP3    H223514   2.950   3.952   3.404 -0.9031 -0.3459 -0.2121
  627TIP3   OH223515   5.604   4.180   2.220 -0.1903 -0.1337  0.3129
  627TIP3    H123516   5.652   4.120   2.277  0.1924  0.6396  0.8081
  627TIP3    H223517   5.663   4.254   2.207 -1.0256  0.5784  0.4855
  628TIP3   OH223518   1.840   3.862   2.613 -0.2802  0.0947  0.5506
  628TIP3    H123519   1.892   3.845   2.692 -0.5181 -0.1890  0.6481
  628TIP3    H223520   1.814   3.954   2.621  0.1587  0.2207  0.5295
  629TIP3   OH223521   2.053   6.111   1.589  0.2822 -0.1791 -0.0457
  629TIP3    H123522   2.106   6.191   1.598  0.1831 -0.1663  0.4498
  629TIP3    H223523   2.117   6.042   1.571  0.2886  0.1626 -1.5081
  630TIP3   OH223524   2.697   4.109   1.853 -0.1918 -0.0577 -0.5371
  630TIP3    H123525   2.707   4.201   1.879 -2.6798 -0.0022  0.5048
  630TIP3    H223526   2.608   4.103   1.820 -0.2859 -2.2248 -0.0199
  631TIP3   OH223527   2.561   6.712   1.687  0.0928  0.7419  0.3325
  631TIP3    H123528   2.548   6.635   1.742 -0.6294 -0.8155 -1.8718
  631TIP3    H223529   2.472   6.741   1.665  0.3694  1.1124 -0.3135
  632TIP3   OH223530   4.321   4.929   1.984 -0.2251  0.3957  0.3766
  632TIP3    H123531   4.375   5.001   2.016 -0.4759  0.2371  1.1786
  632TIP3    H223532   4.274   4.898   2.061 -1.2777  0.3676 -0.2609
  633TIP3   OH223533   1.409   4.522   2.521  0.1149 -0.2086  0.2600
  633TIP3    H123534   1.367   4.605   2.542  1.5717  0.1689  1.8733
  633TIP3    H223535   1.376   4.460   2.586  0.9040 -0.2812  0.5971
  634TIP3   OH223536   5.009   6.184   0.965 -0.3516  0.3901  0.1348
  634TIP3    H123537   4.985   6.256   1.022 -0.6719  0.2105  0.2316
  634TIP3    H223538   5.099   6.162   0.990 -0.4135  0.4567  0.4145
  635TIP3   OH223539   4.094   1.464   0.650  0.2776  0.3503 -0.2402
  635TIP3    H123540   4.143   1.385   0.628  1.1833  0.5204  1.0688
  635TIP3    H223541   4.074   1.454   0.743 -0.0998  1.4056 -0.2036
  636TIP3   OH223542   4.176   2.741   2.393  0.0534 -0.0239 -0.0698
  636TIP3    H123543   4.202   2.783   2.475 -0.7331 -0.1101  0.2326
  636TIP3    H223544   4.089   2.776   2.375 -0.7702 -1.7726  0.3779
  637TIP3   OH223545   6.510   5.331   4.100 -0.3291  0.5916 -0.5131
  637TIP3    H123546   6.496   5.420   4.069 -0.4502  0.6307 -0.3459
  637TIP3    H223547   6.501   5.337   4.195  0.8053  0.6241 -0.3922
  638TIP3   OH223548   6.321   4.257   8.424 -0.5054 -0.2942  0.0470
  638TIP3    H123549   6.291   4.305   8.502  0.5128  0.8983 -0.2721
  638TIP3    H223550   6.391   4.311   8.387 -0.9445 -0.8455 -1.6970
  639TIP3   OH223551   4.751   3.014   1.155  0.1481 -0.5168  0.4195
  639TIP3    H123552   4.711   2.954   1.091  0.3173 -0.7082  0.4899
  639TIP3    H223553   4.703   2.999   1.236 -1.7216  1.4872 -0.2374
  640TIP3   OH223554   0.162   3.574   1.036 -0.1338 -0.4495 -0.3054
  640TIP3    H123555   0.094   3.592   0.971  2.1771  0.3023 -2.7062
  640TIP3    H223556   0.164   3.478   1.042 -1.0026 -0.5021 -0.6163
  641TIP3   OH223557   2.102   4.661   0.146 -0.0191 -0.2727 -0.0033
  641TIP3    H123558   2.045   4.611   0.205 -0.8811 -2.1215 -2.2356
  641TIP3    H223559   2.129   4.597   0.080 -1.2370  2.1366 -3.0996
  642TIP3   OH223560   4.281   0.430   2.804 -0.1128 -0.1129  0.1842
  642TIP3    H123561   4.336   0.465   2.875 -0.2510 -0.4622  0.4671
  642TIP3    H223562   4.333   0.358   2.769 -1.4651 -2.1838  2.1783
  643TIP3   OH223563   6.836   4.532   7.742 -0.1874  0.1921  0.3602
  643TIP3    H123564   6.826   4.554   7.649 -0.0207 -0.5704  0.1494
  643TIP3    H223565   6.777   4.458   7.755  0.3855 -0.2206  0.6633
  644TIP3   OH223566   6.401   1.692   2.914  0.9438  0.5424 -0.2518
  644TIP3    H123567   6.318   1.694   2.962  1.6094  1.2041  0.9077
  644TIP3    H223568   6.452   1.764   2.951  2.8655 -1.1548  0.6102
  645TIP3   OH223569   2.173   5.448   3.843  0.0202 -1.0843 -0.0053
  645TIP3    H123570   2.181   5.515   3.912 -1.0791 -0.2540 -0.6513
  645TIP3    H223571   2.202   5.367   3.885  0.3879 -0.3997  1.1163
  646TIP3   OH223572   4.381   6.067   2.429 -0.1338 -0.1918  0.2492
  646TIP3    H123573   4.334   6.013   2.492  0.3917  0.4930  1.2493
  646TIP3    H223574   4.361   6.157   2.453 -1.9479  0.1357 -2.1214
  647TIP3   OH223575   4.221   2.213   3.274  0.4398 -0.2039 -0.5740
  647TIP3    H123576   4.304   2.244   3.310  0.7134 -0.6584 -0.8114
  647TIP3    H223577   4.184   2.159   3.343 -0.2231  0.9332 -0.0033
  648TIP3   OH223578   5.950   1.542   8.688 -0.1192 -0.2258 -0.7339
  648TIP3    H123579   5.895   1.612   8.724 -0.1657  0.1896 -1.5802
  648TIP3    H223580   6.025   1.538   8.747  0.2292  1.0348 -1.0584
  649TIP3   OH223581   5.131   4.858   1.249  0.0017 -0.3440  0.1556
  649TIP3    H123582   5.063   4.862   1.316 -0.8581  1.8267 -0.7561
  649TIP3    H223583   5.213   4.864   1.297 -0.6219  2.2540  1.0358
  650TIP3   OH223584   4.699   2.658   1.741  0.5417  0.0175  0.0775
  650TIP3    H123585   4.657   2.694   1.820  0.6461 -1.9948  1.1222
  650TIP3    H223586   4.776   2.611   1.774  0.6167 -0.8214 -1.2215
  651TIP3   OH223587   4.200   2.873   1.767 -0.3268  0.0799 -0.1081
  651TIP3    H123588   4.202   2.844   1.859 -0.0472 -0.5070 -0.2953
  651TIP3    H223589   4.268   2.940   1.762  0.2745 -0.5249 -0.0957
  652TIP3   OH223590   2.532   2.146   3.106 -0.0997 -0.5256  0.4720
  652TIP3    H123591   2.563   2.059   3.081  1.3615  0.4077 -1.1428
  652TIP3    H223592   2.582   2.167   3.185 -0.2384 -1.0076  0.6927
  653TIP3   OH223593   4.087   4.601   3.445 -0.3685  0.5704 -0.4363
  653TIP3    H123594   4.057   4.691   3.429  0.6301  0.7614 -1.3344
  653TIP3    H223595   4.008   4.548   3.444 -0.9733  1.4363  0.1150
  654TIP3   OH223596   3.403   6.816   2.361 -0.6143 -0.3109 -0.4116
  654TIP3    H123597   3.425   6.908   2.375 -0.6875 -0.2204 -0.8551
  654TIP3    H223598   3.446   6.769   2.432  0.1353 -0.0238 -0.6646
  655TIP3   OH223599   1.750   2.063   2.347 -1.1649  0.2839  0.2191
  655TIP3    H123600   1.845   2.062   2.335 -1.1273  1.2378  0.3849
  655TIP3    H223601   1.716   2.104   2.268 -1.3810  0.7062  0.5316
  656TIP3   OH223602   2.276   4.654   2.856 -0.1615 -0.0149 -0.2332
  656TIP3    H123603   2.295   4.738   2.900 -1.3303 -0.2282  0.7348
  656TIP3    H223604   2.181   4.653   2.846 -0.0702 -0.7964 -1.1510
  657TIP3   OH223605   6.055   5.357   8.744  0.5984  0.3551  0.3080
  657TIP3    H123606   6.004   5.414   8.801  0.1078  0.8152 -0.5593
  657TIP3    H223607   6.051   5.399   8.658  2.8463  0.6580  0.2970
  658TIP3   OH223608   3.118   1.922   0.886 -0.0482  0.2843  0.7087
  658TIP3    H123609   3.061   1.931   0.962 -0.9944 -0.3881  0.1018
  658TIP3    H223610   3.058   1.918   0.811  0.8414  0.5352 -0.0409
  659TIP3   OH223611   6.278   6.204   0.690 -0.2343 -0.1296 -0.6010
  659TIP3    H123612   6.373   6.206   0.688 -0.2501  0.1340 -1.2712
  659TIP3    H223613   6.256   6.111   0.686  0.0025 -0.2255  0.2645
  660TIP3   OH223614   2.734   4.505   1.678  0.1168  0.2126 -0.9727
  660TIP3    H123615   2.685   4.576   1.637  1.8063  1.4494 -0.9393
  660TIP3    H223616   2.757   4.447   1.606 -0.9797 -0.1505 -1.0489
  661TIP3   OH223617   4.250   0.550   4.510 -0.2441  0.3760  0.0013
  661TIP3    H123618   4.166   0.505   4.518 -1.0519  1.6899 -0.7534
  661TIP3    H223619   4.312   0.481   4.485 -1.7413 -0.1272 -2.6647
  662TIP3   OH223620   1.970   6.831   2.825 -0.3782  0.4087 -0.3964
  662TIP3    H123621   1.913   6.876   2.888 -0.2781 -0.4256  0.2990
  662TIP3    H223622   2.058   6.850   2.855 -0.3401 -0.7489  0.2731
  663TIP3   OH223623   5.391   4.840   8.472 -0.2564 -0.5664  0.0086
  663TIP3    H123624   5.416   4.928   8.442 -0.1773 -0.9577 -1.1487
  663TIP3    H223625   5.454   4.818   8.540  0.4694 -0.2006 -0.5310
  664TIP3   OH223626   3.621   2.728   2.770 -0.0434  0.2471 -0.0956
  664TIP3    H123627   3.596   2.741   2.679 -2.1146  2.6839  0.7019
  664TIP3    H223628   3.671   2.807   2.793  1.8829 -1.0678  0.5076
  665TIP3   OH223629   0.912   3.347   2.228  0.6832 -0.8332 -0.0282
  665TIP3    H123630   0.836   3.401   2.247 -2.3903 -3.4646 -3.2991
  665TIP3    H223631   0.897   3.267   2.279  2.5670 -0.5576  1.0334
  666TIP3   OH223632   3.233   3.709   3.616 -0.9351  0.2237  0.5783
  666TIP3    H123633   3.173   3.773   3.654 -2.1137 -1.3507  1.4754
  666TIP3    H223634   3.300   3.696   3.684 -0.1972  1.1276  0.0413
  667TIP3   OH223635   5.695   2.258   0.610  0.6841  0.4028  0.3328
  667TIP3    H123636   5.631   2.194   0.641  0.0695  0.5018 -0.6958
  667TIP3    H223637   5.685   2.333   0.668  0.5227  0.0568  0.7582
  668TIP3   OH223638   5.948   0.492   3.109 -0.4509  0.4416 -0.0435
  668TIP3    H123639   5.920   0.456   3.193  0.5828  1.7850  0.9236
  668TIP3    H223640   5.958   0.586   3.124 -0.1596  0.7093 -1.6478
  669TIP3   OH223641   0.278   4.308   2.101 -0.0402 -0.3454 -0.4004
  669TIP3    H123642   0.257   4.215   2.116 -2.5685  0.2374  0.1043
  669TIP3    H223643   0.288   4.315   2.006 -1.8945 -0.8183 -0.6817
  670TIP3   OH223644   0.192   5.401   2.394  0.2752  0.1943 -0.0298
  670TIP3    H123645   0.181   5.447   2.311 -2.0263 -1.5796 -0.8229
  670TIP3    H223646   0.152   5.458   2.460 -0.5529  0.3149 -0.6334
  671TIP3   OH223647   0.666   5.068   1.538 -0.6228 -0.3094  0.1375
  671TIP3    H123648   0.737   5.011   1.568 -1.4448 -2.6355 -2.0013
  671TIP3    H223649   0.605   5.071   1.612 -0.5425 -2.2659  0.3517
  672TIP3   OH223650   6.074   6.546   3.598 -0.4205  0.5800 -0.4448
  672TIP3    H123651   6.122   6.543   3.515  1.0417  0.4963  0.3838
  672TIP3    H223652   6.059   6.640   3.613  1.4954  0.8021  0.3806
  673TIP3   OH223653   0.595   6.490   1.406  0.0190 -0.1408 -0.0309
  673TIP3    H123654   0.610   6.580   1.379 -1.8382  0.3870  0.5162
  673TIP3    H223655   0.537   6.454   1.339 -0.1333 -0.5715  0.3212
  674TIP3   OH223656   6.663   3.106   1.757  0.0483  0.5601  0.5251
  674TIP3    H123657   6.589   3.100   1.818 -1.4912  0.5941 -1.2667
  674TIP3    H223658   6.626   3.083   1.672  1.8783  1.6025 -0.6115
  675TIP3   OH223659   1.815   5.260   1.384 -0.1145 -0.5363 -0.3128
  675TIP3    H123660   1.794   5.169   1.404 -2.2542  0.4301  2.5262
  675TIP3    H223661   1.905   5.271   1.417 -1.4012 -0.6390  3.8910
  676TIP3   OH223662   4.259   4.000   0.618 -0.8305  1.0662 -0.0076
  676TIP3    H123663   4.351   4.018   0.600 -0.7700  1.1155  0.3538
  676TIP3    H223664   4.225   3.966   0.535 -0.5158  1.1526 -0.1749
  677TIP3   OH223665   5.833   2.336   3.429 -0.6346  0.4409  0.0463
  677TIP3    H123666   5.867   2.400   3.491 -1.8410  2.5243 -1.3054
  677TIP3    H223667   5.745   2.315   3.461 -0.6889  0.3818 -0.1370
  678TIP3   OH223668   2.415   5.254   1.881 -0.5648 -0.2846 -0.6551
  678TIP3    H123669   2.474   5.300   1.941 -0.8009 -1.0019  0.1606
  678TIP3    H223670   2.449   5.272   1.794 -0.5933  1.3368 -0.3610
  679TIP3   OH223671   1.731   4.555   0.191  0.2104  0.0818  0.4165
  679TIP3    H123672   1.712   4.648   0.178  2.4077  0.8687  2.2444
  679TIP3    H223673   1.685   4.511   0.120 -0.2522  2.6347 -0.9695
  680TIP3   OH223674   0.981   1.275   1.783 -0.4075 -0.2744  0.3773
  680TIP3    H123675   1.051   1.213   1.762  0.5627  1.1389 -0.7730
  680TIP3    H223676   0.901   1.229   1.760  0.3391 -0.7924 -1.4133
  681TIP3   OH223677   1.071   4.099   3.733 -1.0027  0.4983  0.0800
  681TIP3    H123678   1.029   4.121   3.650  0.5032 -1.2211 -1.2036
  681TIP3    H223679   1.041   4.010   3.752  0.8155 -0.1761 -0.0752
  682TIP3   OH223680   1.026   5.275   3.067 -0.2381  0.3623  0.1593
  682TIP3    H123681   1.067   5.362   3.070  0.5613 -0.0221  1.4288
  682TIP3    H223682   0.977   5.270   3.149 -0.3283 -0.3576  0.0629
  683TIP3   OH223683   5.461   0.532   1.828  0.1096  0.0200  0.1320
  683TIP3    H123684   5.539   0.556   1.877 -0.7481  2.0454  0.6117
  683TIP3    H223685   5.462   0.436   1.826  1.4520 -0.0557  1.9830
  684TIP3   OH223686   3.590   6.728   0.810 -0.0539 -0.3867 -0.2632
  684TIP3    H123687   3.611   6.821   0.801 -1.3002 -0.1056 -0.4517
  684TIP3    H223688   3.529   6.710   0.738 -1.9869 -0.6484  1.3431
  685TIP3   OH223689   2.595   1.203   1.651 -0.3471  0.2178  0.2892
  685TIP3    H123690   2.583   1.291   1.686  0.6954 -0.2884  2.0095
  685TIP3    H223691   2.675   1.170   1.692  0.7277 -0.6318 -2.2407
  686TIP3   OH223692   1.002   1.890   1.329 -0.4234 -0.0724 -0.1004
  686TIP3    H123693   1.047   1.868   1.247 -0.9937  2.4849 -1.1851
  686TIP3    H223694   0.910   1.872   1.311 -0.5270  0.3133  0.0571
  687TIP3   OH223695   6.743   2.955   1.198  0.5241 -0.3743 -0.0253
  687TIP3    H123696   6.686   2.975   1.273  0.9371 -1.2156  0.5212
  687TIP3    H223697   6.694   2.987   1.122  0.6228  1.6148  0.6880
  688TIP3   OH223698   5.153   5.850   1.977 -0.5602 -0.6066  0.0176
  688TIP3    H123699   5.169   5.766   2.019  1.3553  0.0348  0.6772
  688TIP3    H223700   5.166   5.833   1.884 -0.0270 -1.0180  0.1635
  689TIP3   OH223701   2.803   1.947   1.578  0.3557 -0.4963 -0.5386
  689TIP3    H123702   2.763   2.030   1.550 -0.9249  0.0646  2.5124
  689TIP3    H223703   2.879   1.937   1.521 -0.1039  2.1819 -1.7984
  690TIP3   OH223704   3.544   3.459   3.821  0.3966 -0.5272  0.6174
  690TIP3    H123705   3.517   3.515   3.894 -0.4218  0.3344 -0.3075
  690TIP3    H223706   3.626   3.497   3.790  0.5930 -0.7194  0.8944
  691TIP3   OH223707   5.446   3.762   3.036 -0.7059 -0.6335 -0.0314
  691TIP3    H123708   5.397   3.836   3.072  0.9649 -1.1061  3.6692
  691TIP3    H223709   5.514   3.803   2.983 -1.0462  0.3979  0.2948
  692TIP3   OH223710   1.185   6.515   0.920 -0.5241  0.1709  0.2727
  692TIP3    H123711   1.120   6.447   0.899 -0.1784 -0.1961  0.3786
  692TIP3    H223712   1.178   6.524   1.015  0.2114 -0.5188  0.3994
  693TIP3   OH223713   4.278   4.661   1.134 -0.1615 -0.0293 -0.3610
  693TIP3    H123714   4.342   4.720   1.174  0.8736 -0.9195 -0.6637
  693TIP3    H223715   4.193   4.701   1.154  0.5331  2.3138 -1.6854
  694TIP3   OH223716   0.636   4.415   0.140 -0.1414 -0.7112 -0.3476
  694TIP3    H123717   0.576   4.456   0.079 -0.3032 -0.3697  0.0431
  694TIP3    H223718   0.611   4.448   0.226  1.6210  0.7186 -0.3188
  695TIP3   OH223719   0.481   3.380   0.607 -0.0994 -0.3173  0.1901
  695TIP3    H123720   0.542   3.427   0.664  0.2668 -0.5343 -0.0169
  695TIP3    H223721   0.444   3.312   0.663 -0.7621  0.3219  0.5378
  696TIP3   OH223722   4.020   2.255   1.385 -0.0648 -0.2457  0.3296
  696TIP3    H123723   4.094   2.255   1.446  1.2241  1.6677 -1.1026
  696TIP3    H223724   4.059   2.229   1.301 -1.5594 -1.6676  0.0384
  697TIP3   OH223725   4.558   2.311   1.239 -0.3581  0.0640 -0.2937
  697TIP3    H123726   4.538   2.219   1.219 -2.0591 -0.1184  1.8949
  697TIP3    H223727   4.651   2.319   1.218  0.1817 -2.5416  0.6436
  698TIP3   OH223728   3.240   3.521   0.506  1.0318  0.2269 -0.0757
  698TIP3    H123729   3.193   3.485   0.581  0.2919 -0.3675 -0.7989
  698TIP3    H223730   3.181   3.588   0.471  0.7615 -0.4409 -0.9222
  699TIP3   OH223731   3.093   0.930   0.705  0.0464  0.2082  0.3268
  699TIP3    H123732   3.181   0.901   0.728 -0.1496 -1.3991 -0.8522
  699TIP3    H223733   3.073   0.997   0.771  0.9243 -1.5937  2.5724
  700TIP3   OH223734   3.895   1.447   0.892 -0.0770  0.1711  0.0884
  700TIP3    H123735   3.806   1.480   0.895 -0.5585 -1.1279  1.3501
  700TIP3    H223736   3.892   1.375   0.828 -0.7009 -1.7729  2.1622
  701TIP3   OH223737   4.783   4.099   0.735 -0.2189  0.0674 -0.3520
  701TIP3    H123738   4.870   4.138   0.738 -0.7670  1.2895  0.5981
  701TIP3    H223739   4.746   4.117   0.822 -0.8675 -1.7475 -0.2148
  702TIP3   OH223740   4.332   3.180   2.861 -0.8997  0.4828  0.2912
  702TIP3    H123741   4.318   3.121   2.935 -2.9667  2.3932  1.5240
  702TIP3    H223742   4.252   3.173   2.810  0.3270 -0.4820 -1.6314
  703TIP3   OH223743   5.076   1.644   0.821 -0.0139  0.6324 -0.1968
  703TIP3    H123744   5.158   1.618   0.862 -0.7542 -1.0021  0.3271
  703TIP3    H223745   5.046   1.566   0.775 -1.6043  0.9610  0.2010
  704TIP3   OH223746   1.796   6.163   8.032  0.6823 -0.5105  0.3939
  704TIP3    H123747   1.821   6.253   8.050  2.6287 -0.6136 -1.4528
  704TIP3    H223748   1.837   6.112   8.101 -0.7486 -0.0109  1.6738
  705TIP3   OH223749   0.833   1.508   8.228  0.3026  0.4155  0.2855
  705TIP3    H123750   0.927   1.508   8.208  0.5988 -1.4634  1.4445
  705TIP3    H223751   0.804   1.420   8.205 -0.7320  0.3176  1.8390
  706TIP3   OH223752   5.977   6.834   8.363  0.0035 -0.2711 -0.3009
  706TIP3    H123753   5.886   6.836   8.332  0.7522 -1.9804 -2.9274
  706TIP3    H223754   5.986   6.750   8.407  0.6417 -0.7222 -1.2689
  707TIP3   OH223755   1.376   5.199   2.910  0.3482 -0.0731 -0.0270
  707TIP3    H123756   1.341   5.122   2.954 -0.9013 -0.6872 -1.9562
  707TIP3    H223757   1.299   5.243   2.874  1.3231  0.0537 -2.0881
  708TIP3   OH223758   4.961   1.430   1.725  0.0551 -0.6625 -0.0471
  708TIP3    H123759   5.017   1.392   1.658  0.5766 -0.6658  0.3906
  708TIP3    H223760   4.949   1.360   1.789  0.1706 -0.4245  0.2373
  709TIP3   OH223761   6.078   1.347   1.884  0.1191  0.4811 -0.2176
  709TIP3    H123762   6.138   1.418   1.859  0.7534 -0.1836 -0.6200
  709TIP3    H223763   6.135   1.271   1.896 -0.6230 -0.1050 -0.3575
  710TIP3   OH223764   1.397   0.809   8.570  0.3365 -0.0661 -0.9045
  710TIP3    H123765   1.391   0.807   8.666  0.9932 -4.2757 -0.7966
  710TIP3    H223766   1.483   0.846   8.552  1.0793 -1.1378  0.2750
  711TIP3   OH223767   3.259   0.111   2.925 -0.0678 -0.2130  0.2682
  711TIP3    H123768   3.208   0.096   3.004 -0.2143  0.5997  0.3322
  711TIP3    H223769   3.297   0.198   2.936  1.3435 -0.7868  0.2252
  712TIP3   OH223770   3.211   2.577   8.620  0.7525  0.0339  0.3073
  712TIP3    H123771   3.169   2.494   8.645  0.6206 -0.5662 -1.7559
  712TIP3    H223772   3.269   2.554   8.548 -2.4121  2.2659 -3.3355
  713TIP3   OH223773   5.084   2.228   0.830  0.3657  0.2716 -0.2345
  713TIP3    H123774   5.067   2.171   0.755 -1.8526 -1.3077  1.3255
  713TIP3    H223775   5.110   2.168   0.900 -0.6912  1.3054  1.0992
  714TIP3   OH223776   6.461   4.730   0.166  0.3819  0.1928  0.4889
  714TIP3    H123777   6.534   4.669   0.158  0.3538  0.1853  0.2919
  714TIP3    H223778   6.466   4.784   0.087  0.2536  0.2794  0.5398
  715TIP3   OH223779   0.826   4.708   3.452 -0.2066 -0.1155  0.1329
  715TIP3    H123780   0.846   4.735   3.541  2.2743 -2.2021  0.3120
  715TIP3    H223781   0.828   4.789   3.401  2.2502  0.6966  1.3705
  716TIP3   OH223782   0.226   2.037   0.031  0.5373  0.3377 -0.6419
  716TIP3    H123783   0.314   2.050  -0.004  0.0931  0.9299 -1.5712
  716TIP3    H223784   0.170   2.036  -0.046 -0.3795  0.9047  0.0044
  717TIP3   OH223785   2.015   2.854   1.517 -0.3371  0.6420  0.3646
  717TIP3    H123786   1.984   2.854   1.607  1.4343  0.0290  1.0155
  717TIP3    H223787   1.965   2.786   1.473  1.1015 -1.4574  1.7984
  718TIP3   OH223788   6.371   2.463   2.616  0.7561  0.4077 -0.4074
  718TIP3    H123789   6.413   2.545   2.645 -1.0187  0.2419  3.1595
  718TIP3    H223790   6.441   2.398   2.622  1.0206  0.8037  1.7541
  719TIP3   OH223791   2.460   2.926   2.849 -0.4479  0.3811  0.2916
  719TIP3    H123792   2.537   2.930   2.905 -1.1966  0.8941  1.3387
  719TIP3    H223793   2.488   2.962   2.765  0.5867  0.0379  0.4782
  720TIP3   OH223794   6.213   1.977   3.839  0.7400  0.3577  0.2871
  720TIP3    H123795   6.161   1.908   3.879 -0.5409  0.4136 -1.1728
  720TIP3    H223796   6.285   1.992   3.900  0.2783 -1.2913  1.2913
  721TIP3   OH223797   4.647   3.319   0.729 -0.0530  0.1919 -0.0876
  721TIP3    H123798   4.575   3.368   0.767 -0.5940  0.8079 -1.8514
  721TIP3    H223799   4.708   3.385   0.698  0.8871 -0.3156  0.6108
  722TIP3   OH223800   6.635   4.748   2.932  0.3418  0.0292  0.6647
  722TIP3    H123801   6.584   4.686   2.878  0.6948  0.1865  0.1453
  722TIP3    H223802   6.572   4.816   2.954  0.4719  0.5779 -0.5477
  723TIP3   OH223803   2.098   3.217   1.744 -0.1551 -0.3738 -0.2602
  723TIP3    H123804   2.016   3.254   1.776  1.5214  3.5526 -0.0104
  723TIP3    H223805   2.126   3.275   1.673  3.2361 -0.4618  0.8102
  724TIP3   OH223806   0.109   5.472   3.567 -0.2969 -0.1500 -0.0877
  724TIP3    H123807   0.114   5.507   3.655  0.5344  0.3819 -0.3436
  724TIP3    H223808   0.159   5.391   3.570  0.2879  0.2033 -0.2297
  725TIP3   OH223809   4.893   6.337   1.656 -0.7878  0.3529  0.4315
  725TIP3    H123810   4.938   6.385   1.587 -0.6705  0.8168  0.8198
  725TIP3    H223811   4.935   6.367   1.737 -0.9774 -0.1189  0.7089
  726TIP3   OH223812   5.801   5.280   2.885  0.1824  0.3829  0.0658
  726TIP3    H123813   5.730   5.223   2.856  0.4877  0.8297 -1.6352
  726TIP3    H223814   5.766   5.326   2.961 -1.1737  0.2418 -0.4608
  727TIP3   OH223815   4.659   6.213   1.559  0.2560  0.0967  0.2217
  727TIP3    H123816   4.695   6.129   1.530 -0.1189 -0.3344  0.9705
  727TIP3    H223817   4.735   6.260   1.596  0.3362 -0.2154  0.4635
  728TIP3   OH223818   0.443   5.924   2.964 -0.1300 -0.3330  0.1443
  728TIP3    H123819   0.534   5.923   2.992  0.4810 -1.7870 -1.6834
  728TIP3    H223820   0.395   5.877   3.032  0.4596  0.3912  1.0850
  729TIP3   OH223821   4.598   5.080   1.440 -0.5219  0.1424  0.1000
  729TIP3    H123822   4.506   5.056   1.432 -0.2983 -0.5515 -0.5686
  729TIP3    H223823   4.598   5.172   1.465 -1.4009 -0.0848  0.9568
  730TIP3   OH223824   4.947   6.674   8.141 -0.5025 -0.2463  0.0430
  730TIP3    H123825   4.923   6.587   8.173  1.3703 -0.1094  2.1489
  730TIP3    H223826   4.906   6.735   8.203 -2.0001  0.4258 -1.5506
  731TIP3   OH223827   5.004   3.256   3.254  0.1595 -0.2295 -0.1471
  731TIP3    H123828   5.067   3.187   3.273  1.2704  0.8040  0.0194
  731TIP3    H223829   4.973   3.238   3.165  0.1421 -1.1511  0.0415
  732TIP3   OH223830   1.433   6.095   0.628 -0.7506  0.2602 -0.4313
  732TIP3    H123831   1.386   6.018   0.659 -1.1990  1.1828  1.3634
  732TIP3    H223832   1.506   6.105   0.689 -1.1564  1.6543 -0.1215
  733TIP3   OH223833   0.595   5.292   0.151 -0.3342  0.3914 -0.2235
  733TIP3    H123834   0.513   5.335   0.173 -3.5337 -4.8857 -0.1053
  733TIP3    H223835   0.608   5.227   0.220  1.9186 -1.4522 -2.2019
  734TIP3   OH223836   4.989   1.910   2.183  0.0833  0.2481 -0.5014
  734TIP3    H123837   5.074   1.870   2.164  0.3725  0.3259  0.5725
  734TIP3    H223838   4.976   1.974   2.113  1.8184  1.6130  0.3580
  735TIP3   OH223839   6.708   1.256   3.288  0.2460 -0.1056 -0.0807
  735TIP3    H123840   6.699   1.307   3.208 -0.9010  0.2401  0.2598
  735TIP3    H223841   6.654   1.301   3.353  0.4080 -0.9071  0.6427
  736TIP3   OH223842   1.910   1.257   8.676 -0.1776  0.1432  0.5429
  736TIP3    H123843   1.987   1.290   8.722 -0.5619  0.0598  1.2663
  736TIP3    H223844   1.940   1.242   8.586  0.6163  0.2054  0.7889
  737TIP3   OH223845   3.858   0.334   8.413  0.2493 -0.0333 -0.1538
  737TIP3    H123846   3.884   0.424   8.429 -1.4619  0.0815  2.7282
  737TIP3    H223847   3.768   0.340   8.380 -0.2039 -0.6342  0.8938
  738TIP3   OH223848   4.000   5.929   0.924 -0.2254 -0.1995  0.0979
  738TIP3    H123849   4.027   5.844   0.958 -2.6022 -1.3240 -0.5564
  738TIP3    H223850   4.032   5.930   0.834  1.2704  0.3697  0.6149
  739TIP3   OH223851   4.320   5.097   1.346  0.0005 -0.0365  0.6569
  739TIP3    H123852   4.290   5.065   1.261  1.1837  0.0209  0.2035
  739TIP3    H223853   4.246   5.148   1.380 -0.1842  0.6372 -0.6994
  740TIP3   OH223854   6.435   2.346   8.339  0.1251 -0.5416  0.4661
  740TIP3    H123855   6.352   2.302   8.321 -0.1461 -1.0946  2.7449
  740TIP3    H223856   6.502   2.284   8.309 -0.2931 -0.8695  0.2032
  741TIP3   OH223857   6.454   2.518   1.854  0.1539 -0.7967  0.8061
  741TIP3    H123858   6.390   2.553   1.792  2.1751  0.6516 -0.5824
  741TIP3    H223859   6.425   2.551   1.939 -1.3043 -0.7488  0.3225
  742TIP3   OH223860   2.886   0.480   2.844 -0.1269 -0.7246  0.0676
  742TIP3    H123861   2.914   0.479   2.936  0.7438  0.8703 -0.1375
  742TIP3    H223862   2.874   0.573   2.824  0.2866 -0.9995 -1.6001
  743TIP3   OH223863   4.316   4.431   2.317 -0.1031 -0.0236  0.0239
  743TIP3    H123864   4.302   4.368   2.387  0.1984  0.7001  0.7513
  743TIP3    H223865   4.357   4.507   2.360  0.8362  0.1220 -1.0613
  744TIP3   OH223866   3.328   3.549   1.087 -0.3412  0.0435 -0.5971
  744TIP3    H123867   3.263   3.480   1.096  0.0223 -0.3796 -1.1899
  744TIP3    H223868   3.292   3.622   1.139 -0.3870 -0.8164  0.6298
  745TIP3   OH223869   5.086   1.237   1.006  0.4430  0.1374  0.1702
  745TIP3    H123870   5.146   1.300   0.965 -1.4457  0.3014 -2.6462
  745TIP3    H223871   5.029   1.289   1.061  1.4142  0.2628  1.1069
  746TIP3   OH223872   3.920   5.423   1.334 -0.7242  0.0710  0.1669
  746TIP3    H123873   3.971   5.452   1.410  0.5956 -0.7707 -0.3652
  746TIP3    H223874   3.889   5.336   1.358 -0.5637 -0.0687 -0.1296
  747TIP3   OH223875   1.102   0.016   3.018  0.2270  0.2863 -0.3856
  747TIP3    H123876   1.042  -0.031   3.075 -0.0048  1.0335  0.0064
  747TIP3    H223877   1.189  -0.010   3.048  0.1017  0.3926  0.0765
  748TIP3   OH223878   6.465   4.766   3.509  0.3103  0.0979  0.2072
  748TIP3    H123879   6.442   4.787   3.600  2.1895  0.6440  0.5899
  748TIP3    H223880   6.391   4.799   3.458 -0.6492  0.0502  1.4987
  749TIP3   OH223881   3.015   2.255   8.754 -0.3915  0.0150  0.8780
  749TIP3    H123882   3.052   2.245   8.666  0.0148 -0.4742  1.0969
  749TIP3    H223883   2.929   2.293   8.740 -0.1401  0.3851  0.2973
  750TIP3   OH223884   2.389   6.519   2.777 -0.4451 -0.3312 -0.0308
  750TIP3    H123885   2.467   6.468   2.799  0.2439 -0.2928 -2.1486
  750TIP3    H223886   2.332   6.510   2.854  0.7990 -1.9961  0.7656
  751TIP3   OH223887   0.845   3.546   2.573  0.8105 -0.0167 -0.0662
  751TIP3    H123888   0.864   3.633   2.537  0.3497  0.3223  0.4750
  751TIP3    H223889   0.930   3.501   2.573  0.6093 -0.5101 -2.7410
  752TIP3   OH223890   3.610   3.713   1.265 -0.1403  0.2020  0.2637
  752TIP3    H123891   3.624   3.629   1.221 -0.4584  1.3368 -2.1153
  752TIP3    H223892   3.516   3.726   1.261 -0.0807  0.7294  0.5487
  753TIP3   OH223893   5.773   2.809   2.932  0.3104  0.2065 -0.1602
  753TIP3    H123894   5.817   2.784   3.013  1.2279 -0.8538 -0.9577
  753TIP3    H223895   5.727   2.890   2.954  1.7889  0.7744  1.0067
  754TIP3   OH223896   1.951   4.788   2.120  0.4820 -0.0781 -0.1301
  754TIP3    H123897   1.996   4.863   2.082  0.2478  0.2374  0.2112
  754TIP3    H223898   2.021   4.737   2.161  0.3803  1.2167  1.7578
  755TIP3   OH223899   6.056   0.960   0.319 -0.7458 -0.3539  0.3225
  755TIP3    H123900   6.084   1.038   0.271  1.6755 -0.6721  1.0822
  755TIP3    H223901   5.962   0.954   0.302 -0.5006  1.1280 -2.0467
  756TIP3   OH223902   0.068   5.073   1.864 -0.2470  0.3606  0.0696
  756TIP3    H123903   0.044   4.981   1.874  0.4474  0.1824  0.1378
  756TIP3    H223904   0.164   5.073   1.864 -0.2379  0.9798 -0.9162
  757TIP3   OH223905   1.349   3.745   0.414 -0.0995  0.1823 -0.2720
  757TIP3    H123906   1.330   3.783   0.500 -0.5680 -0.2829 -0.1647
  757TIP3    H223907   1.295   3.796   0.353 -1.2363 -0.7163 -0.0479
  758TIP3   OH223908   1.912   3.999   2.269 -0.0924  0.4760 -0.2399
  758TIP3    H123909   1.998   4.041   2.265 -0.8153  1.9126 -2.1153
  758TIP3    H223910   1.850   4.069   2.251 -1.4148 -1.2051 -2.7554
  759TIP3   OH223911   5.360   5.055   1.032  0.5152  0.5473 -0.1964
  759TIP3    H123912   5.356   4.962   1.009 -0.3966  0.1146  1.5110
  759TIP3    H223913   5.350   5.101   0.948 -0.2878 -0.8902 -0.9386
  760TIP3   OH223914   4.818   4.505   8.448  0.8164 -0.0784  0.8922
  760TIP3    H123915   4.735   4.535   8.412  0.4517  1.4797  2.8366
  760TIP3    H223916   4.884   4.566   8.414  0.9615 -0.4775  0.4460
  761TIP3   OH223917   0.078   3.823   0.451  0.2783  0.0179  0.4051
  761TIP3    H123918   0.125   3.777   0.520 -0.3766 -0.7976  0.3229
  761TIP3    H223919  -0.004   3.852   0.491  0.1553  0.0632  0.1298
  762TIP3   OH223920   3.019   4.397   1.381  0.0996  0.1054  0.0078
  762TIP3    H123921   3.102   4.412   1.335  0.9902 -1.3612  1.0198
  762TIP3    H223922   2.992   4.483   1.411  1.7161  0.5145  0.3781
  763TIP3   OH223923   3.237   6.400   0.781  0.2972 -0.3163  0.5747
  763TIP3    H123924   3.196   6.342   0.716 -1.8158  1.5754  0.0981
  763TIP3    H223925   3.301   6.344   0.825  0.4090 -2.2169 -1.7621
  764TIP3   OH223926   1.236   3.384   1.660  0.4557  0.4864  0.1359
  764TIP3    H123927   1.225   3.388   1.565  0.1626  1.1631  0.1895
  764TIP3    H223928   1.270   3.296   1.677 -2.6783 -0.9180 -0.2692
  765TIP3   OH223929   4.711   5.203   8.734 -0.2929  0.2912  0.0783
  765TIP3    H123930   4.740   5.282   8.780 -0.4150 -0.0015  0.6689
  765TIP3    H223931   4.747   5.212   8.646 -0.3002  1.0050  0.1392
  766TIP3   OH223932   1.566   3.483   3.566  0.3522 -0.0010  0.2252
  766TIP3    H123933   1.499   3.518   3.625 -1.3061 -1.2381 -0.8231
  766TIP3    H223934   1.619   3.425   3.620  0.3465  0.7003  0.9908
  767TIP3   OH223935   3.107   5.202   0.391  0.4049  0.3015  0.4910
  767TIP3    H123936   3.017   5.199   0.357  0.2993  2.0961  0.5213
  767TIP3    H223937   3.162   5.207   0.313  0.4298  0.0728  0.4932
  768TIP3   OH223938   2.023   1.981   3.817  0.3489 -0.2538  0.0538
  768TIP3    H123939   1.941   2.003   3.862  0.4270  0.3634 -0.0972
  768TIP3    H223940   2.024   1.885   3.816 -0.8495 -0.2796 -0.8042
  769TIP3   OH223941   1.518   1.811   2.553  0.3608  0.5455  0.1571
  769TIP3    H123942   1.607   1.777   2.544  0.2239  0.0967  0.4928
  769TIP3    H223943   1.478   1.795   2.468  0.3631  0.0492  0.2463
  770TIP3   OH223944   6.845   1.872   2.485 -0.0155  0.4317 -0.8770
  770TIP3    H123945   6.897   1.835   2.556  0.8188  1.3378 -1.0003
  770TIP3    H223946   6.900   1.864   2.408 -0.8732 -0.4441 -1.4303
  771TIP3   OH223947   5.596   3.339   1.047  0.9506  0.3111  0.3073
  771TIP3    H123948   5.585   3.282   1.123  1.7098  0.9313  0.9051
  771TIP3    H223949   5.680   3.383   1.062  1.9008 -0.6913 -1.6731
  772TIP3   OH223950   4.506   4.184   1.986  0.1569 -0.5346 -0.6830
  772TIP3    H123951   4.535   4.133   2.061  0.8203 -0.3991 -0.8428
  772TIP3    H223952   4.553   4.147   1.911  1.2937  0.8214 -0.6817
  773TIP3   OH223953   1.619   0.131   0.324  0.1394  0.0835  0.0193
  773TIP3    H123954   1.548   0.186   0.291 -0.0957  0.6591  1.4267
  773TIP3    H223955   1.581   0.084   0.398  1.3789  0.8377  1.1647
  774TIP3   OH223956   5.849   2.595   2.765 -0.2215  0.0403 -0.0422
  774TIP3    H123957   5.829   2.678   2.807 -2.5657 -1.2933  1.7278
  774TIP3    H223958   5.913   2.553   2.823  0.5911  0.3546 -0.6817
  775TIP3   OH223959   4.645   4.127   1.725  0.1847  0.6807 -0.0461
  775TIP3    H123960   4.708   4.197   1.744  1.1659 -0.3822  0.8118
  775TIP3    H223961   4.663   4.102   1.635 -0.4892  1.8191 -0.5179
  776TIP3   OH223962   1.419   3.775   1.730 -0.5630 -0.2138 -0.1189
  776TIP3    H123963   1.366   3.732   1.797 -1.1640 -1.0965 -1.1457
  776TIP3    H223964   1.379   3.862   1.720  0.5819  0.6131  1.8696
  777TIP3   OH223965   5.172   6.598   0.862 -0.7062 -0.1479 -0.2774
  777TIP3    H123966   5.155   6.536   0.934 -1.7495  0.8414  0.3663
  777TIP3    H223967   5.260   6.575   0.831 -0.8574 -1.5982  0.2865
  778TIP3   OH223968   4.470   1.744   8.703  0.3372  0.1278  0.0246
  778TIP3    H123969   4.565   1.755   8.714  0.6360 -0.3223 -1.8146
  778TIP3    H223970   4.455   1.650   8.717  0.2865  0.0688 -0.4064
  779TIP3   OH223971   2.897   4.716   1.357  0.2046 -0.8822  0.1427
  779TIP3    H123972   2.959   4.719   1.429 -1.5959  0.3877  1.7188
  779TIP3    H223973   2.940   4.765   1.286  1.5014 -1.1368  0.7237
  780TIP3   OH223974   3.490   5.105   3.974  1.2313 -0.1432 -0.5782
  780TIP3    H123975   3.466   5.013   3.963  1.1835 -0.0901 -0.9265
  780TIP3    H223976   3.584   5.104   3.992  1.1223 -0.2988  0.0323
  781TIP3   OH223977   3.982   6.615   1.961  0.1670  0.3268 -0.5479
  781TIP3    H123978   4.075   6.602   1.978 -0.3307 -0.2106  2.1106
  781TIP3    H223979   3.943   6.529   1.976 -0.9671  0.9273  0.0279
  782TIP3   OH223980   2.238   3.017   1.360 -0.5365 -0.0142 -0.1196
  782TIP3    H123981   2.241   2.940   1.417  1.5574 -0.6886 -1.0363
  782TIP3    H223982   2.200   2.984   1.278  1.1433 -0.3647 -0.8112
  783TIP3   OH223983   2.653   6.548   0.684  0.2133  0.1875 -0.0724
  783TIP3    H123984   2.728   6.503   0.722 -0.5514 -1.0814  0.0090
  783TIP3    H223985   2.690   6.601   0.613  1.4572  1.4321  1.4298
  784TIP3   OH223986   1.184   2.613   8.726  0.0275  0.0478 -0.3153
  784TIP3    H123987   1.215   2.681   8.666  1.6764 -0.6955 -0.3630
  784TIP3    H223988   1.097   2.590   8.694 -0.2774  1.6256 -0.7125
  785TIP3   OH223989   3.674   3.097   3.615  0.5790  0.0517  0.1369
  785TIP3    H123990   3.716   3.165   3.667  0.5865 -0.2160  0.4830
  785TIP3    H223991   3.743   3.033   3.600  0.2294 -0.5279  0.9472
  786TIP3   OH223992   4.910   2.927   4.070 -0.5306 -0.2392 -0.0683
  786TIP3    H123993   4.940   2.847   4.028 -0.5666 -0.6287  0.6315
  786TIP3    H223994   4.872   2.898   4.153 -1.0947  0.4395 -0.0755
  787TIP3   OH223995   4.673   1.237   1.491  0.1765 -0.0395  0.2490
  787TIP3    H123996   4.591   1.186   1.490  0.1736 -0.0396  0.5073
  787TIP3    H223997   4.722   1.204   1.416  0.2157 -0.4958  0.4691
  788TIP3   OH223998   1.528   6.382   1.581 -0.1895  0.2677 -0.0810
  788TIP3    H123999   1.454   6.401   1.639 -0.4323 -0.0846 -0.2650
  788TIP3    H224000   1.537   6.286   1.585 -1.9789 -0.1269 -2.6818
  789TIP3   OH224001   3.101   2.978   1.426 -0.5385 -0.3073 -0.1251
  789TIP3    H124002   3.152   3.010   1.500 -1.5907  2.3439 -0.4084
  789TIP3    H224003   3.070   2.892   1.452  0.5489 -0.1581  1.7910
  790TIP3   OH224004   0.039   3.400   3.711  0.6376 -0.0007  0.2587
  790TIP3    H124005   0.082   3.435   3.788 -0.3626 -1.1396  1.3857
  790TIP3    H224006   0.083   3.317   3.694  0.5842  0.0513 -0.1558
  791TIP3   OH224007   6.256   6.802   0.835  0.4587  0.2306 -0.2348
  791TIP3    H124008   6.214   6.800   0.921  0.3165 -1.0371 -0.3081
  791TIP3    H224009   6.305   6.884   0.834  1.6908 -0.4188  1.6631
  792TIP3   OH224010   5.073   1.127   2.506 -0.1112  0.2632  0.6028
  792TIP3    H124011   5.025   1.047   2.485 -0.6144  0.4999  0.8439
  792TIP3    H224012   5.068   1.134   2.601  2.5252 -1.0310  0.9049
  793TIP3   OH224013   6.530   0.624   3.387 -0.1109  0.3740  0.2979
  793TIP3    H124014   6.579   0.700   3.417 -0.7028  1.0109 -0.3472
  793TIP3    H224015   6.438   0.649   3.395 -0.3312 -0.4307  0.4803
  794TIP3   OH224016   5.871   1.256   3.141 -0.8262 -0.1068  0.4373
  794TIP3    H124017   5.777   1.263   3.124 -0.5534  0.0793 -1.1412
  794TIP3    H224018   5.889   1.162   3.135 -0.7160 -0.0330 -0.4356
  795TIP3   OH224019   2.123   0.082   4.050 -0.2509  0.3229 -0.1236
  795TIP3    H124020   2.049   0.126   4.009 -0.0317  0.2092 -0.6573
  795TIP3    H224021   2.199   0.136   4.027 -0.1350  0.3039  0.2082
  796TIP3   OH224022   4.290   0.275   8.594  0.4210 -0.3477 -0.4213
  796TIP3    H124023   4.324   0.195   8.634 -1.9526 -1.4641 -0.5153
  796TIP3    H224024   4.247   0.246   8.514  0.9938  1.2694 -1.3579
  797TIP3   OH224025   4.654   2.542   3.057 -1.2577 -0.5021 -0.4436
  797TIP3    H124026   4.747   2.522   3.070 -0.7222  1.8291 -0.0989
  797TIP3    H224027   4.643   2.548   2.962 -0.8773 -0.1380 -0.4681
  798TIP3   OH224028   3.993   4.705   1.187  0.2721 -0.2030  0.0973
  798TIP3    H124029   3.932   4.632   1.195  2.0685 -1.8876 -0.8915
  798TIP3    H224030   3.940   4.777   1.155 -1.8821 -0.5509  2.5509
  799TIP3   OH224031   1.445   6.281   0.348 -0.0524  0.1911  0.1908
  799TIP3    H124032   1.381   6.323   0.290 -0.3713  1.0683  1.1525
  799TIP3    H224033   1.466   6.348   0.412  0.1229 -0.8462  1.2434
  800TIP3   OH224034   5.158   0.785   3.182 -0.2272  0.4258  0.6652
  800TIP3    H124035   5.110   0.717   3.229  0.9389  0.2627  1.6571
  800TIP3    H224036   5.191   0.741   3.104  0.8805 -0.3007  1.5070
  801TIP3   OH224037   0.635   3.866   2.507 -0.1659  0.0617 -0.5393
  801TIP3    H124038   0.725   3.894   2.522  1.0224 -3.6923  0.6075
  801TIP3    H224039   0.593   3.872   2.593  0.0131 -1.1413 -0.3476
  802TIP3   OH224040   2.521   3.727   8.675  0.6358 -0.0961 -0.7103
  802TIP3    H124041   2.471   3.807   8.689  1.6216  1.2598 -4.0983
  802TIP3    H224042   2.455   3.658   8.672 -0.4153  0.8127  0.3864
  803TIP3   OH224043   4.980   3.744   1.848 -0.5146 -0.2531  0.6282
  803TIP3    H124044   4.989   3.709   1.937 -1.2829 -1.2756  0.3204
  803TIP3    H224045   4.916   3.815   1.857  0.5397  0.6598  1.1364
  804TIP3   OH224046   6.539   5.751   1.105  0.5067 -0.2141  0.4231
  804TIP3    H124047   6.502   5.663   1.103  0.7120 -0.3041  0.5135
  804TIP3    H224048   6.519   5.788   1.019  2.6955 -1.2964 -0.6567
  805TIP3   OH224049   1.083   3.819   0.864 -0.0373 -0.0331  0.4561
  805TIP3    H124050   0.997   3.796   0.897 -0.6126  0.2107 -0.8392
  805TIP3    H224051   1.126   3.735   0.847 -0.4400 -0.1504  0.0246
  806TIP3   OH224052   2.551   6.747   0.248  0.2938 -0.1392 -0.2832
  806TIP3    H124053   2.516   6.764   0.161 -1.3378  1.1927  0.5866
  806TIP3    H224054   2.485   6.693   0.291 -0.0581  1.1793  0.9015
  807TIP3   OH224055   4.215   1.434   4.366 -0.0585  0.3018  0.3864
  807TIP3    H124056   4.208   1.370   4.295 -2.1511 -1.1145  1.7470
  807TIP3    H224057   4.188   1.517   4.325 -1.8128 -0.5903 -0.4039
  808TIP3   OH224058   4.012   5.998   3.382 -0.9831  0.0582 -0.6218
  808TIP3    H124059   4.046   5.991   3.471 -1.2155 -1.9768 -0.6503
  808TIP3    H224060   3.921   6.025   3.394 -0.8417  0.3906 -0.2722
  809TIP3   OH224061   3.292   5.347   3.624 -0.4234  0.1018  0.2113
  809TIP3    H124062   3.365   5.312   3.675 -0.4357 -0.2193  0.0125
  809TIP3    H224063   3.258   5.271   3.576 -1.4056  0.0630  0.9251
  810TIP3   OH224064   0.252   6.629   3.210 -0.3416 -0.6244  0.6100
  810TIP3    H124065   0.254   6.695   3.141  1.6383  0.5214  1.6346
  810TIP3    H224066   0.161   6.600   3.215 -0.7767  0.2367 -1.5302
  811TIP3   OH224067   2.673   1.467   8.429  0.3711 -0.1497  0.0103
  811TIP3    H124068   2.677   1.475   8.525 -2.1726 -1.6866  0.3476
  811TIP3    H224069   2.591   1.509   8.405 -0.5578 -2.3910 -1.0649
  812TIP3   OH224070   5.947   6.364   2.120 -0.1191 -0.0741  0.0436
  812TIP3    H124071   5.948   6.419   2.042 -2.2971  1.8057  1.2042
  812TIP3    H224072   5.854   6.348   2.137  0.3807 -2.3814  0.9819
  813TIP3   OH224073   1.672   3.261   2.418 -0.2528  0.2758 -0.3106
  813TIP3    H124074   1.581   3.243   2.441 -0.2924  1.8646  1.0167
  813TIP3    H224075   1.669   3.348   2.378  0.4946 -0.3742 -1.8653
  814TIP3   OH224076   5.104   1.027   4.449  0.1177  0.0421 -0.0853
  814TIP3    H124077   5.058   1.110   4.441  0.9469  0.7528  1.9536
  814TIP3    H224078   5.194   1.046   4.423  0.2117 -0.3364 -0.0458
  815TIP3   OH224079   5.355   2.464   0.995 -0.4880  0.5004  0.1114
  815TIP3    H124080   5.317   2.379   0.974 -0.8992  0.1690  2.0126
  815TIP3    H224081   5.450   2.451   0.985 -0.6292  0.2098 -0.8787
  816TIP3   OH224082   6.556   3.266   2.169 -0.2292 -0.0032 -0.1836
  816TIP3    H124083   6.466   3.298   2.164 -0.1358  0.2774 -0.0411
  816TIP3    H224084   6.556   3.187   2.114 -0.1483  0.9434 -1.5854
  817TIP3   OH224085   6.675   3.621   2.658 -0.3962 -0.1194  0.1638
  817TIP3    H124086   6.705   3.588   2.573 -1.4803 -2.0792  0.4856
  817TIP3    H224087   6.746   3.602   2.719 -0.4705 -0.6248  0.0909
  818TIP3   OH224088   2.126   6.110   8.553 -0.2045  0.0387 -0.3566
  818TIP3    H124089   2.212   6.072   8.572 -0.5167 -0.1071  0.8403
  818TIP3    H224090   2.105   6.079   8.464  0.7904 -0.2558 -0.5000
  819TIP3   OH224091   4.715   5.576   0.494 -0.4904 -0.0765  0.4663
  819TIP3    H124092   4.623   5.548   0.491 -0.6743  0.5421 -2.6715
  819TIP3    H224093   4.764   5.500   0.465 -0.3977  0.6621 -1.4429
  820TIP3   OH224094   1.883   0.152   8.480  0.0454 -0.0473 -0.2252
  820TIP3    H124095   1.905   0.133   8.389  2.5906 -1.2765  0.5397
  820TIP3    H224096   1.935   0.229   8.502 -1.0649  0.6489  0.0244
  821TIP3   OH224097   1.763   1.561   3.321 -0.5045  0.0586  0.2214
  821TIP3    H124098   1.674   1.530   3.309 -1.3347  2.1170  0.6070
  821TIP3    H224099   1.801   1.503   3.386 -1.6225 -0.7237  0.1927
  822TIP3   OH224100   5.965   6.066   4.130  0.6401 -0.1390 -0.7567
  822TIP3    H124101   6.002   5.984   4.164  1.3070  0.7297  0.6913
  822TIP3    H224102   5.870   6.052   4.134  0.7196 -1.6858 -2.7517
  823TIP3   OH224103   0.317   3.777   1.410  0.1072  0.5202 -0.7226
  823TIP3    H124104   0.322   3.836   1.485  1.8852  0.1507 -0.5035
  823TIP3    H224105   0.277   3.830   1.341  1.0980  1.8067 -0.3556
  824TIP3   OH224106   3.856   2.114   0.038 -0.3307 -0.6809 -0.4888
  824TIP3    H124107   3.909   2.055  -0.015  0.8444 -0.0705 -0.0426
  824TIP3    H224108   3.912   2.191   0.052 -1.7637  0.4884 -0.9380
  825TIP3   OH224109   4.645   6.548   1.004 -0.6557  0.4178 -0.2515
  825TIP3    H124110   4.690   6.567   0.921 -0.0210  3.2270  0.6037
  825TIP3    H224111   4.713   6.509   1.059 -0.9092 -0.8623 -0.8192
  826TIP3   OH224112   6.096   1.345   2.651 -0.4857 -0.4887  0.6933
  826TIP3    H124113   6.180   1.313   2.620 -0.6006  0.7368 -1.0441
  826TIP3    H224114   6.032   1.289   2.608 -0.5924 -0.0696  0.2925
  827TIP3   OH224115   2.180   0.766   0.870  0.1470  0.1282 -1.1165
  827TIP3    H124116   2.182   0.859   0.896  1.5714 -0.0713 -0.3869
  827TIP3    H224117   2.227   0.764   0.787  1.7972 -0.1456 -0.2300
  828TIP3   OH224118   4.291   0.797   3.303 -0.4032  0.2692  0.1748
  828TIP3    H124119   4.261   0.750   3.225  1.1753  0.6326 -0.6876
  828TIP3    H224120   4.325   0.879   3.269  1.0253  0.1070  1.1466
  829TIP3   OH224121   3.284   4.081   1.515  0.8799  0.1621 -0.1349
  829TIP3    H124122   3.345   4.155   1.514  0.8476  0.2466 -2.4485
  829TIP3    H224123   3.249   4.078   1.426 -2.5584  0.1227  1.0622
  830TIP3   OH224124   6.560   6.265   1.657 -0.5891 -0.1437 -0.7841
  830TIP3    H124125   6.511   6.194   1.698 -1.2421  0.3512 -0.6822
  830TIP3    H224126   6.501   6.301   1.591 -0.2947  0.3374 -0.7977
  831TIP3   OH224127   0.244   0.752   1.126  0.1202 -0.3884  0.0524
  831TIP3    H124128   0.287   0.708   1.053 -2.6014 -1.7475 -0.8965
  831TIP3    H224129   0.284   0.838   1.129  3.1061 -1.6417 -0.4060
  832TIP3   OH224130   2.495   6.552   3.646 -0.2402 -0.6969 -0.8504
  832TIP3    H124131   2.421   6.592   3.691 -1.0271 -3.2487  0.3240
  832TIP3    H224132   2.559   6.623   3.638 -1.3514  0.7081  1.4294
  833TIP3   OH224133   6.587   6.376   0.075 -0.0050  0.1022  0.3251
  833TIP3    H124134   6.619   6.362  -0.014  0.7757 -2.0036  0.8944
  833TIP3    H224135   6.665   6.370   0.130 -0.4760  1.3890  1.1808
  834TIP3   OH224136   4.650   0.818   0.412  0.0742 -0.4719  0.3168
  834TIP3    H124137   4.571   0.872   0.411 -0.3287 -1.0100  1.2698
  834TIP3    H224138   4.646   0.769   0.330  0.6781  1.2136 -0.7862
  835TIP3   OH224139   6.401   5.943   3.051 -0.3198  0.6327  1.4124
  835TIP3    H124140   6.485   5.953   3.096  0.1987  0.6024  0.4782
  835TIP3    H224141   6.351   6.021   3.076  1.4539  2.7625 -1.0297
  836TIP3   OH224142   1.657   0.275   1.464  0.5489  0.3724 -0.5332
  836TIP3    H124143   1.722   0.341   1.487  0.1627  1.0978 -1.4670
  836TIP3    H224144   1.582   0.325   1.433 -2.0037 -0.1556  3.9162
  837TIP3   OH224145   1.794   1.765   1.640  0.2450 -0.0018  0.2997
  837TIP3    H124146   1.769   1.694   1.700 -1.5793  0.9840  0.7804
  837TIP3    H224147   1.890   1.761   1.636  0.2627 -1.5542  1.4529
  838TIP3   OH224148   4.308   4.332   0.044 -0.3166  0.1694  0.2309
  838TIP3    H124149   4.218   4.366   0.042 -0.9509 -1.4119  0.6793
  838TIP3    H224150   4.362   4.407   0.018 -1.8768  0.6905 -1.7942
  839TIP3   OH224151   4.632   1.405   3.653  0.4731  0.0116  0.0250
  839TIP3    H124152   4.612   1.321   3.611 -0.9880  1.1474 -1.7000
  839TIP3    H224153   4.648   1.382   3.745  2.0452 -2.3630 -0.7432
  840TIP3   OH224154   5.416   2.674   2.020 -0.2053  0.4307 -0.6693
  840TIP3    H124155   5.333   2.713   1.992 -0.4641  0.1021 -0.3705
  840TIP3    H224156   5.410   2.582   1.994 -0.0368  0.3502 -0.4312
  841TIP3   OH224157   1.883   0.239   4.022  0.2002 -0.1535  0.1679
  841TIP3    H124158   1.801   0.282   3.996  1.1183  1.1489 -0.6624
  841TIP3    H224159   1.854   0.165   4.076 -1.6454 -1.0478 -1.8642
  842TIP3   OH224160   1.523   3.955   8.255 -0.1677  0.1168  0.2163
  842TIP3    H124161   1.429   3.971   8.268 -0.0390  0.7347  0.3985
  842TIP3    H224162   1.548   4.012   8.183  0.3599  0.9912  1.0673
  843TIP3   OH224163   2.694   6.356   1.381 -0.4800  0.1769 -0.5761
  843TIP3    H124164   2.670   6.267   1.407 -0.5475  0.1775 -0.6356
  843TIP3    H224165   2.711   6.350   1.287 -2.4165  0.6107 -1.0058
  844TIP3   OH224166   5.154   2.518   3.330  0.2200  0.0329 -0.1226
  844TIP3    H124167   5.116   2.487   3.412 -1.2727  1.2536 -0.2819
  844TIP3    H224168   5.231   2.568   3.356  0.3073 -0.3978  0.4553
  845TIP3   OH224169   3.211   5.223   0.642 -0.2581  0.5295  0.1214
  845TIP3    H124170   3.277   5.291   0.633 -0.2999  0.7139  1.1642
  845TIP3    H224171   3.160   5.228   0.561  1.3052  0.0407 -0.9472
  846TIP3   OH224172   5.372   4.444   1.700 -0.2163 -0.6384 -0.0888
  846TIP3    H124173   5.429   4.373   1.727  0.3364 -0.2257 -0.1435
  846TIP3    H224174   5.417   4.523   1.729 -1.0826 -0.3326  0.4587
  847TIP3   OH224175   4.033   5.002   3.181 -0.0292 -0.1464 -0.0415
  847TIP3    H124176   4.014   5.092   3.208  0.8752  0.6987 -1.9861
  847TIP3    H224177   4.022   4.950   3.261 -1.0214  1.6021  1.0368
  848TIP3   OH224178   3.440   2.929   4.329  0.1122 -0.2117 -0.1309
  848TIP3    H124179   3.455   2.997   4.264 -0.3950 -0.6383 -0.7009
  848TIP3    H224180   3.346   2.933   4.346  0.5952  2.2429  3.1774
  849TIP3   OH224181   6.790   0.125   0.936  0.2252 -0.4607 -0.2056
  849TIP3    H124182   6.756   0.162   0.854 -1.0174 -1.7852 -0.3224
  849TIP3    H224183   6.772   0.193   1.002 -3.0924 -1.1853 -0.1926
  850TIP3   OH224184   1.077   4.563   1.555  0.7181  0.2683  0.2674
  850TIP3    H124185   1.024   4.489   1.588  0.9804 -0.7646 -1.5261
  850TIP3    H224186   1.067   4.630   1.623  0.7380 -1.5055  2.1374
  851TIP3   OH224187   0.775   0.848   0.621 -0.3459 -0.1893 -0.2739
  851TIP3    H124188   0.807   0.851   0.712 -0.1816 -2.9464 -0.1426
  851TIP3    H224189   0.831   0.908   0.573  1.4330 -0.7769  0.9756
  852TIP3   OH224190   2.531   6.586   2.068 -0.7446 -0.0781 -0.6634
  852TIP3    H124191   2.475   6.661   2.046 -1.9284 -0.7423  0.0354
  852TIP3    H224192   2.564   6.556   1.983 -2.1652 -0.2328 -1.1873
  853TIP3   OH224193   5.252   0.232   1.919 -0.1410 -0.4077 -0.4838
  853TIP3    H124194   5.281   0.278   1.840  1.1588 -0.7976 -0.2569
  853TIP3    H224195   5.206   0.299   1.970 -0.6792 -0.0637 -1.3930
  854TIP3   OH224196   2.958   4.066   4.126  0.1719 -0.1443 -0.5358
  854TIP3    H124197   2.906   4.068   4.046  0.2092 -1.8841 -0.6479
  854TIP3    H224198   2.894   4.058   4.197  0.2048 -1.2076 -0.6017
  855TIP3   OH224199   1.914   1.679   2.291  0.8132 -0.9758  0.0072
  855TIP3    H124200   1.885   1.589   2.275 -1.6154 -0.0849 -1.0997
  855TIP3    H224201   1.887   1.727   2.212  0.4067  1.0515  1.2986
  856TIP3   OH224202   0.120   4.185   0.317 -0.2443  0.3424  0.4524
  856TIP3    H124203   0.134   4.249   0.387 -0.0644  1.4633 -0.5766
  856TIP3    H224204   0.036   4.209   0.279 -0.3049 -0.2082  0.2376
  857TIP3   OH224205   3.178   4.923   1.304  0.4185 -0.1665 -0.7565
  857TIP3    H124206   3.095   4.897   1.264 -1.3910  2.0809  1.2517
  857TIP3    H224207   3.206   5.000   1.254 -0.2441  0.7984  0.3255
  858TIP3   OH224208   2.931   0.696   1.885 -0.1923  0.1476 -0.0052
  858TIP3    H124209   2.852   0.642   1.883  0.4295 -0.9337  1.7661
  858TIP3    H224210   2.983   0.664   1.812 -0.4856 -0.6411  0.1158
  859TIP3   OH224211   2.717   2.691   2.988  0.0655  0.1470 -0.4867
  859TIP3    H124212   2.729   2.735   3.072  0.5989  2.3534 -1.6506
  859TIP3    H224213   2.801   2.647   2.972  0.4482  0.8671 -0.4856
  860TIP3   OH224214   1.984   6.720   1.471  0.0624 -0.0517  0.8039
  860TIP3    H124215   1.983   6.757   1.384 -0.8147  1.2191  1.3327
  860TIP3    H224216   1.915   6.765   1.518  0.4778 -0.7437  2.1546
  861TIP3   OH224217   6.163   3.744   0.287  0.3106  0.4175  0.5176
  861TIP3    H124218   6.107   3.669   0.269  0.3595  0.1690  1.3495
  861TIP3    H224219   6.216   3.754   0.208 -0.1987  0.0229  0.1213
  862TIP3   OH224220   1.703   6.634   2.824  0.4052  0.4916  0.1683
  862TIP3    H124221   1.768   6.583   2.776 -2.6631 -1.0146 -2.7425
  862TIP3    H224222   1.703   6.719   2.781 -1.6639 -0.5494 -2.0787
  863TIP3   OH224223   5.319   1.386   3.119  0.3693 -0.1840 -0.3243
  863TIP3    H124224   5.311   1.328   3.195 -1.5214 -0.2645 -0.5427
  863TIP3    H224225   5.403   1.430   3.132  1.3037 -2.0926  0.4518
  864TIP3   OH224226   4.462   6.763   1.265 -0.1351  0.0722 -0.2164
  864TIP3    H124227   4.454   6.844   1.316 -1.5950 -0.1974  0.0447
  864TIP3    H224228   4.464   6.791   1.174 -0.5718  0.4224 -0.1215
  865TIP3   OH224229   1.442   6.539   0.827 -0.4094 -0.2497  0.3233
  865TIP3    H124230   1.487   6.605   0.880 -1.0340  1.5396 -1.2468
  865TIP3    H224231   1.351   6.542   0.857 -0.7597  0.7530 -0.7781
  866TIP3   OH224232   3.407   1.305   1.485  0.2103 -0.1011  0.0528
  866TIP3    H124233   3.466   1.332   1.556  0.0208  0.1552  0.1147
  866TIP3    H224234   3.324   1.286   1.529  0.3205 -0.7185 -0.0018
  867TIP3   OH224235   2.105   6.160   1.058  0.1351 -0.0721 -0.4484
  867TIP3    H124236   2.058   6.091   1.011  0.2045 -1.1578  1.0040
  867TIP3    H224237   2.085   6.144   1.150  0.6526  1.4972 -0.0318
  868TIP3   OH224238   4.622   6.787   3.842 -1.0056 -0.6720  0.1579
  868TIP3    H124239   4.665   6.789   3.928  0.2633  1.8977 -0.4306
  868TIP3    H224240   4.566   6.864   3.842 -1.4360 -0.9709 -1.1388
  869TIP3   OH224241   4.545   2.533   3.324  0.1435 -0.2532  0.0837
  869TIP3    H124242   4.591   2.572   3.249 -1.5773 -1.3368 -1.6232
  869TIP3    H224243   4.567   2.590   3.398  3.7266 -0.4163 -0.6919
  870TIP3   OH224244   4.523   1.767   0.848  0.1762 -0.1399 -0.1189
  870TIP3    H124245   4.567   1.822   0.913  1.2061 -1.5554  0.4316
  870TIP3    H224246   4.591   1.709   0.816 -0.6527 -0.4086 -1.4498
  871TIP3   OH224247   1.920   3.292   8.363 -0.0690 -0.3301 -0.0480
  871TIP3    H124248   1.938   3.214   8.310  3.0129  0.6661 -0.6730
  871TIP3    H224249   1.835   3.323   8.332 -0.1891 -2.0144 -1.5662
  872TIP3   OH224250   6.210   1.399   3.632  0.1826  0.7093  0.1361
  872TIP3    H124251   6.139   1.359   3.681  0.5973  0.9268  0.9241
  872TIP3    H224252   6.203   1.360   3.544 -1.1562  1.0447  0.0776
  873TIP3   OH224253   2.650   0.924   1.354 -0.5601 -0.2886 -0.2352
  873TIP3    H124254   2.626   1.016   1.364  0.3452 -0.0765  0.1574
  873TIP3    H224255   2.645   0.908   1.259  0.2880  0.4691 -0.4225
  874TIP3   OH224256   1.424   3.616   0.683  0.3871 -0.2847 -0.2397
  874TIP3    H124257   1.470   3.589   0.603  0.9467  0.0485 -0.0287
  874TIP3    H224258   1.347   3.663   0.650  0.8428  0.2346 -0.5881
  875TIP3   OH224259   6.488   5.280   3.397  0.3953  0.2811 -0.5559
  875TIP3    H124260   6.451   5.368   3.392 -0.7082 -0.1813 -0.7789
  875TIP3    H224261   6.565   5.289   3.453 -1.7262  0.7146  2.5224
  876TIP3   OH224262   0.877   2.791   1.573 -0.9638 -0.0404  0.3320
  876TIP3    H124263   0.808   2.857   1.563 -0.6617  0.6187  2.1771
  876TIP3    H224264   0.854   2.746   1.654 -0.5774 -1.5201 -0.3483
  877TIP3   OH224265   3.237   4.458   8.398  0.0798 -0.0716 -0.4836
  877TIP3    H124266   3.207   4.436   8.486  0.4051 -1.1345 -0.6253
  877TIP3    H224267   3.239   4.554   8.396 -0.3840 -0.0331  0.5026
  878TIP3   OH224268   3.469   0.417   2.714  0.2382 -1.0108 -0.2448
  878TIP3    H124269   3.542   0.411   2.776 -0.4521 -2.2594  0.4952
  878TIP3    H224270   3.395   0.446   2.767  0.6068  2.4339 -1.4000
  879TIP3   OH224271   2.064   5.661   3.639  0.6372  0.1437  0.2865
  879TIP3    H124272   2.071   5.704   3.724  0.3923 -0.8838  0.8357
  879TIP3    H224273   2.021   5.578   3.657 -0.9730  0.6168 -1.0789
  880TIP3   OH224274   0.960   0.720   3.426 -0.1378 -0.7390 -0.4355
  880TIP3    H124275   0.897   0.730   3.355 -0.9530 -1.9916  0.0728
  880TIP3    H224276   1.002   0.635   3.409  1.7214  0.2540 -0.9888
  881TIP3   OH224277   6.829   1.925   0.976 -0.3548  0.2877  0.3299
  881TIP3    H124278   6.797   1.868   1.046 -2.0112 -0.4661 -0.9810
  881TIP3    H224279   6.899   1.874   0.934 -0.6681 -0.0847  0.2482
  882TIP3   OH224280   3.160   0.078   2.574 -0.7959 -0.3982 -0.3081
  882TIP3    H124281   3.162   0.066   2.668 -1.9637 -0.4129 -0.2700
  882TIP3    H224282   3.206   0.160   2.559 -1.1304 -0.0851  0.3360
  883TIP3   OH224283   3.220   3.501   2.782 -0.3190 -0.5862  0.0807
  883TIP3    H124284   3.238   3.594   2.796  1.7080 -1.0448  0.7301
  883TIP3    H224285   3.203   3.466   2.870  0.5046 -1.1217  0.0378
  884TIP3   OH224286   2.606   2.982   8.368  0.0616  0.0847 -0.3770
  884TIP3    H124287   2.680   3.043   8.371 -0.5381  0.8784 -0.9884
  884TIP3    H224288   2.643   2.898   8.393  1.1652  0.4714 -0.6320
  885TIP3   OH224289   2.584   6.567   2.353  0.2008  0.2020 -0.5121
  885TIP3    H124290   2.618   6.478   2.350 -3.0101 -1.1374 -0.5412
  885TIP3    H224291   2.588   6.597   2.262 -1.9752 -1.3349 -1.1832
  886TIP3   OH224292   0.984   0.637   0.878  0.2806 -0.4905  0.0197
  886TIP3    H124293   1.079   0.624   0.885  0.1357 -2.9166 -1.3928
  886TIP3    H224294   0.964   0.616   0.786 -1.6886 -0.5094  0.4187
  887TIP3   OH224295   5.017   6.218   0.374 -0.0626 -0.0653 -0.5285
  887TIP3    H124296   5.050   6.266   0.451  2.4639 -2.3363 -0.0691
  887TIP3    H224297   4.947   6.163   0.409  1.3155 -1.3618  0.3232
  888TIP3   OH224298   6.706   0.875   8.746 -0.1374  0.0392 -0.4229
  888TIP3    H124299   6.766   0.801   8.745  0.3977  0.4650 -0.4690
  888TIP3    H224300   6.757   0.948   8.711  0.0560  0.9550  1.6374
  889TIP3   OH224301   3.316   0.424   8.334  0.1204  0.3253  0.2964
  889TIP3    H124302   3.398   0.375   8.333 -1.2820 -2.2006  1.3357
  889TIP3    H224303   3.250   0.361   8.307 -1.5382  2.2842 -0.4960
  890TIP3   OH224304   6.383   1.436   2.269 -0.2313  0.1696  0.1293
  890TIP3    H124305   6.334   1.518   2.280 -1.0999 -0.4908  1.2942
  890TIP3    H224306   6.418   1.442   2.180 -2.1699  0.8033 -0.6441
  891TIP3   OH224307   0.568   5.992   1.012 -0.0754 -0.7803  0.2602
  891TIP3    H124308   0.610   5.988   1.098  1.1579  0.4288 -0.2432
  891TIP3    H224309   0.607   6.068   0.970 -0.8997 -1.1518 -1.2514
  892TIP3   OH224310   4.595   3.613   2.882  0.2391  0.2465  0.1360
  892TIP3    H124311   4.668   3.649   2.932  0.4587 -0.2919  0.2061
  892TIP3    H224312   4.568   3.536   2.931 -1.7477  1.5749  1.2527
  893TIP3   OH224313   2.343   1.366   2.607  0.2828  0.8806 -0.4321
  893TIP3    H124314   2.283   1.407   2.669  1.6666 -0.5915  2.0485
  893TIP3    H224315   2.429   1.396   2.634  1.0153 -0.6731 -0.9408
  894TIP3   OH224316   0.035   2.283   0.035 -0.4382 -0.6337  0.2655
  894TIP3    H124317  -0.001   2.201   0.069 -1.6810 -0.3890 -0.3893
  894TIP3    H224318   0.112   2.256  -0.015  0.7945 -1.1060  2.2844
  895TIP3   OH224319   0.102   0.336   2.988 -0.1089 -0.1613  0.4715
  895TIP3    H124320   0.134   0.398   2.922 -0.7641  2.0321  2.1178
  895TIP3    H224321   0.009   0.325   2.968 -0.1120 -0.2006  0.5066
  896TIP3   OH224322   1.739   2.298   2.777  0.0815 -0.0074  0.0513
  896TIP3    H124323   1.809   2.290   2.842 -1.3211 -2.5235  1.4261
  896TIP3    H224324   1.734   2.212   2.736 -2.6034 -0.1772  0.5303
  897TIP3   OH224325   6.467   5.553   8.306  0.2626  0.3001  0.5928
  897TIP3    H124326   6.500   5.643   8.302  1.0595 -0.0257 -0.4332
  897TIP3    H224327   6.376   5.562   8.336  0.4685  1.4059  0.9180
  898TIP3   OH224328   2.778   4.319   0.664 -0.1441 -0.7261  0.3958
  898TIP3    H124329   2.765   4.225   0.675  1.0059 -0.7757  1.6551
  898TIP3    H224330   2.700   4.359   0.703 -0.4046 -1.1379  0.3020
  899TIP3   OH224331   2.921   2.291   1.001 -0.1941 -0.2844  0.1802
  899TIP3    H124332   2.852   2.248   0.950 -1.4602  1.3113  0.4521
  899TIP3    H224333   2.956   2.359   0.943 -1.2931  1.2014  1.1812
  900TIP3   OH224334   4.537   3.610   1.297  0.1428 -0.4979  0.7716
  900TIP3    H124335   4.570   3.531   1.254  0.3387 -0.2783  0.5140
  900TIP3    H224336   4.467   3.642   1.240  1.2281  0.4863 -0.0549
  901TIP3   OH224337   6.656   2.088   2.423 -0.6477 -0.9814  0.1388
  901TIP3    H124338   6.721   2.037   2.472 -0.1629 -0.3749  0.1447
  901TIP3    H224339   6.649   2.044   2.339  1.5069  0.1997 -0.7610
  902TIP3   OH224340   2.310   5.315   2.892 -0.0153 -0.4072 -0.0144
  902TIP3    H124341   2.240   5.260   2.926 -0.0424 -1.2461 -1.3777
  902TIP3    H224342   2.391   5.270   2.917 -0.0405 -1.2118 -1.3058
  903TIP3   OH224343   3.915   5.565   0.679 -0.6814 -0.3489 -0.0527
  903TIP3    H124344   3.952   5.581   0.593 -3.5784  3.1960 -0.8906
  903TIP3    H224345   3.820   5.569   0.666 -1.3115 -2.2228  2.9531
  904TIP3   OH224346   0.025   1.229   1.546 -0.1651  0.1313 -0.1451
  904TIP3    H124347  -0.043   1.295   1.532  1.3212  1.3828 -1.7870
  904TIP3    H224348  -0.008   1.152   1.500 -0.5352  0.6871 -0.8252
  905TIP3   OH224349   4.216   6.544   1.160 -0.3478 -0.0678 -0.4057
  905TIP3    H124350   4.124   6.554   1.183 -0.6639 -2.8212 -0.1113
  905TIP3    H224351   4.220   6.561   1.066 -1.7139 -2.4260 -0.9610
  906TIP3   OH224352   5.123   6.353   1.830 -0.2622  0.4160 -0.0971
  906TIP3    H124353   5.163   6.267   1.844 -1.9784 -0.5221 -0.5147
  906TIP3    H224354   5.171   6.390   1.756  2.0408  0.8943  1.5392
  907TIP3   OH224355   3.966   1.384   0.348 -0.1708 -0.6292  0.1792
  907TIP3    H124356   4.015   1.302   0.352  0.3287 -0.4033 -1.0125
  907TIP3    H224357   3.923   1.390   0.434  0.5034 -1.6815  0.6121
  908TIP3   OH224358   1.633   2.104   1.954  0.3630  0.0809  0.3300
  908TIP3    H124359   1.570   2.136   1.889  1.3036  1.6851  0.1703
  908TIP3    H224360   1.712   2.085   1.904  1.6561  2.9041  1.1365
  909TIP3   OH224361   4.306   5.940   0.884  0.1630  0.0090  0.5032
  909TIP3    H124362   4.243   5.872   0.861  0.1014 -0.1133  1.0298
  909TIP3    H224363   4.392   5.897   0.875  0.1897  0.2092 -0.3277
  910TIP3   OH224364   4.935   2.600   2.184  0.0347  0.1551  0.3343
  910TIP3    H124365   5.003   2.568   2.243 -0.2194 -1.9623 -0.4446
  910TIP3    H224366   4.869   2.637   2.243  1.0897  0.7544  1.1807
  911TIP3   OH224367   6.478   5.509   1.013 -0.1005 -0.1894  0.2893
  911TIP3    H124368   6.430   5.504   0.930 -0.7843 -2.0140  0.7563
  911TIP3    H224369   6.481   5.419   1.045  0.6586  0.3946  1.9844
  912TIP3   OH224370   0.657   2.534   0.981  0.2481 -0.7681 -0.0447
  912TIP3    H124371   0.673   2.622   0.947  0.1802 -1.6641 -2.6453
  912TIP3    H224372   0.738   2.486   0.964  0.3477 -1.1822  1.5006
  913TIP3   OH224373   5.181   6.159   3.750  0.9319  0.3997 -0.0129
  913TIP3    H124374   5.242   6.226   3.783  0.8453  1.6805 -2.2393
  913TIP3    H224375   5.212   6.139   3.662  1.8979 -3.8003  1.0845
  914TIP3   OH224376   6.346   0.115   1.219 -0.4583  0.0018 -0.3089
  914TIP3    H124377   6.439   0.114   1.196 -0.4156  0.9620 -0.2160
  914TIP3    H224378   6.325   0.024   1.238 -0.0333 -0.5728 -2.3158
  915TIP3   OH224379   1.985   0.519   7.903 -0.1050 -0.4804 -0.0186
  915TIP3    H124380   2.012   0.560   7.821  0.1870 -1.6244 -0.5097
  915TIP3    H224381   1.917   0.576   7.937 -0.2652 -0.0212 -1.0844
  916TIP3   OH224382   4.362   0.286   2.053  0.1523  0.0408 -0.2599
  916TIP3    H124383   4.306   0.260   2.126  3.4752 -0.2762  2.4432
  916TIP3    H224384   4.425   0.215   2.045  1.9276  1.6297 -1.1446
  917TIP3   OH224385   6.117   3.687   1.945 -0.3781  0.1358 -0.2510
  917TIP3    H124386   6.197   3.637   1.965 -0.6373 -1.6339 -3.0494
  917TIP3    H224387   6.149   3.767   1.904 -0.0128 -0.0224 -0.2830
  918TIP3   OH224388   4.999   0.263   8.681 -0.2472  0.1584 -0.5943
  918TIP3    H124389   5.087   0.238   8.709 -0.4704  1.6540  1.6970
  918TIP3    H224390   5.013   0.315   8.602  1.1077  1.7398  0.6302
  919TIP3   OH224391   0.198   1.715   3.474  0.3587  0.7026 -0.8158
  919TIP3    H124392   0.210   1.702   3.380  1.6125  1.2317 -0.7608
  919TIP3    H224393   0.139   1.790   3.480  0.0685  0.5051 -1.1830
  920TIP3   OH224394   5.566   2.153   2.687  0.1356 -0.2178  0.5137
  920TIP3    H124395   5.647   2.152   2.738  2.0356 -2.2321 -2.1988
  920TIP3    H224396   5.596   2.163   2.596 -2.8018  0.4624 -0.4722
  921TIP3   OH224397   2.061   1.159   1.155  0.2586 -0.1776 -0.0753
  921TIP3    H124398   1.979   1.187   1.114 -0.3076  1.5267  2.0502
  921TIP3    H224399   2.107   1.240   1.176  0.6954 -0.9417  2.2120
  922TIP3   OH224400   1.917   0.121   3.706 -0.1988  0.3702  0.1387
  922TIP3    H124401   2.006   0.115   3.672 -0.9310  1.6477 -2.2516
  922TIP3    H224402   1.910   0.210   3.741 -0.4014  0.1167  0.7554
  923TIP3   OH224403   1.282   3.809   0.101 -0.3099 -0.0367  0.5952
  923TIP3    H124404   1.227   3.886   0.087 -0.1535 -0.3021 -1.7717
  923TIP3    H224405   1.370   3.845   0.112 -0.1393  0.1393 -1.1191
  924TIP3   OH224406   6.643   3.888   2.448 -0.6836  0.4371  0.0624
  924TIP3    H124407   6.688   3.927   2.373 -1.9690 -0.2562 -1.1320
  924TIP3    H224408   6.619   3.800   2.418  0.4779 -0.6150  2.0059
  925TIP3   OH224409   5.469   3.253   0.292 -0.1967 -0.6638 -0.3214
  925TIP3    H124410   5.478   3.157   0.293  0.1336 -0.7232 -2.8542
  925TIP3    H224411   5.517   3.280   0.213 -1.1553  1.4958 -0.2078
  926TIP3   OH224412   5.599   4.840   3.981 -0.3929 -0.2719  0.2877
  926TIP3    H124413   5.526   4.807   4.033 -0.6081  0.3508  0.3836
  926TIP3    H224414   5.669   4.855   4.044 -0.4846 -0.0039  0.3272
  927TIP3   OH224415   6.808   5.787   0.509  0.3083 -0.1506 -0.2065
  927TIP3    H124416   6.740   5.774   0.444 -1.1749  0.2413  1.1840
  927TIP3    H224417   6.781   5.866   0.557  3.3712  1.9183 -1.5429
  928TIP3   OH224418   0.358   0.694   0.164 -0.2193 -0.3092 -0.3762
  928TIP3    H124419   0.348   0.658   0.252  0.3687 -3.3680 -1.4331
  928TIP3    H224420   0.405   0.626   0.116 -1.0208  0.9995 -3.2173
  929TIP3   OH224421   1.330   0.790   2.645 -0.1439  0.0528 -0.7966
  929TIP3    H124422   1.237   0.814   2.650 -0.0709  0.1816  0.0888
  929TIP3    H224423   1.333   0.720   2.579 -1.4067 -2.3196  1.4696
  930TIP3   OH224424   0.900   5.340   0.563  0.3764 -0.6491 -0.1595
  930TIP3    H124425   0.806   5.329   0.555  0.5200 -0.7896 -2.1441
  930TIP3    H224426   0.914   5.434   0.564  0.2246 -0.6279  0.2588
  931TIP3   OH224427   1.082   5.262   0.774  0.4581  0.3225 -0.2512
  931TIP3    H124428   1.028   5.292   0.701 -1.1887  0.3567  0.9253
  931TIP3    H224429   1.091   5.168   0.761 -1.3299  0.0197  0.3858
  932TIP3   OH224430   3.661   5.007   8.619 -1.1131 -0.4578  0.2553
  932TIP3    H124431   3.700   4.937   8.566 -0.0479 -0.0444  0.4702
  932TIP3    H224432   3.711   5.006   8.700 -1.1519  0.4790  0.2987
  933TIP3   OH224433   5.777   6.474   0.355 -0.4684 -0.2571 -0.1509
  933TIP3    H124434   5.738   6.515   0.432 -0.9869  1.1448 -1.1366
  933TIP3    H224435   5.868   6.456   0.381 -0.6532  0.1255  0.7986
  934TIP3   OH224436   3.430   6.172   0.304 -0.5766  0.2788  0.2358
  934TIP3    H124437   3.515   6.214   0.318 -0.5604  0.5736 -0.6554
  934TIP3    H224438   3.366   6.233   0.341 -0.4282  0.2325  0.5719
  935TIP3   OH224439   6.051   5.916   0.308  0.1173  0.0083 -0.0558
  935TIP3    H124440   6.064   5.968   0.229  0.7992 -0.8198 -0.5120
  935TIP3    H224441   6.083   5.829   0.285 -0.1252 -0.3777  0.9837
  936TIP3   OH224442   5.132   0.515   2.639 -0.2940  0.3018 -0.1290
  936TIP3    H124443   5.190   0.441   2.619 -0.5925  0.1760 -0.5462
  936TIP3    H224444   5.044   0.480   2.628 -0.4531  0.4788  0.5713
  937TIP3   OH224445   6.839   0.425   2.310  0.3826  0.5333 -0.3443
  937TIP3    H124446   6.773   0.406   2.243 -1.3138  1.2428  1.0517
  937TIP3    H224447   6.799   0.395   2.392  2.6018 -0.7695  0.3448
  938TIP3   OH224448   3.504   5.810   3.204 -0.2545  0.2940 -0.1414
  938TIP3    H124449   3.571   5.791   3.270  0.5910 -1.3497 -1.3920
  938TIP3    H224450   3.512   5.904   3.189  1.5559  0.2082  0.0069
  939TIP3   OH224451   3.622   0.501   1.013 -0.2036  0.3485 -0.2919
  939TIP3    H124452   3.570   0.467   0.940  1.4763  0.7568 -1.7587
  939TIP3    H224453   3.632   0.594   0.994  1.7914  0.1226 -0.5863
  940TIP3   OH224454   2.799   2.626   2.576  0.0853 -0.2724 -0.1398
  940TIP3    H124455   2.846   2.692   2.627  0.6400  2.5110 -3.8163
  940TIP3    H224456   2.706   2.647   2.588  0.1728 -0.1059  0.2490
  941TIP3   OH224457   4.000   3.070   1.524  0.3901 -0.6688 -0.1980
  941TIP3    H124458   4.064   3.135   1.497  0.6872 -0.8431  0.0797
  941TIP3    H224459   3.943   3.059   1.448  0.6045 -0.4090 -0.3973
  942TIP3   OH224460   2.263   6.648   1.326  0.2336  0.4174  0.5762
  942TIP3    H124461   2.237   6.722   1.271  0.9350 -1.0235 -1.8235
  942TIP3    H224462   2.352   6.627   1.298 -0.6340 -2.5653 -0.3301
  943TIP3   OH224463   3.861   6.276   0.577 -0.9707 -0.0979 -0.1450
  943TIP3    H124464   3.847   6.324   0.658 -0.5194 -0.4744  0.1603
  943TIP3    H224465   3.950   6.299   0.550 -0.2996 -1.6564  0.6301
  944TIP3   OH224466   3.389   3.706   2.878  0.4422  0.2660  0.5301
  944TIP3    H124467   3.379   3.755   2.960  1.4133  1.0382  0.2005
  944TIP3    H224468   3.425   3.621   2.905 -0.0694  0.1836  0.9766
  945TIP3   OH224469   1.650   3.788   1.180  0.1031 -0.0115 -0.0985
  945TIP3    H124470   1.689   3.728   1.242 -1.0598 -0.6877  0.0131
  945TIP3    H224471   1.603   3.852   1.234  1.2609  0.9796 -0.2185
  946TIP3   OH224472   2.831   0.759   2.794 -0.2416 -0.2524  0.4515
  946TIP3    H124473   2.811   0.778   2.703  1.1919  3.2128  0.6985
  946TIP3    H224474   2.768   0.811   2.844  0.7279  0.0683  1.3743
  947TIP3   OH224475   4.360   0.333   0.353  0.7326  0.1010  0.6259
  947TIP3    H124476   4.424   0.397   0.385  1.7021 -0.1442 -0.7472
  947TIP3    H224477   4.315   0.377   0.281 -1.6115  0.7396  2.3449
  948TIP3   OH224478   4.539   2.588   8.557  0.3236  0.1299  0.1704
  948TIP3    H124479   4.469   2.546   8.607  0.0171 -2.0874 -1.9820
  948TIP3    H224480   4.616   2.533   8.572  1.2065  1.5627  1.1149
  949TIP3   OH224481   4.520   5.482   1.961  0.4266 -0.4328 -0.4251
  949TIP3    H124482   4.566   5.398   1.965 -0.2374 -0.7821  0.0928
  949TIP3    H224483   4.546   5.527   2.042 -0.3728 -0.7630  0.0255
  950TIP3   OH224484   4.487   6.638   2.944  0.2543  0.3479 -0.0548
  950TIP3    H124485   4.431   6.621   3.020 -2.8064  0.6870 -2.0681
  950TIP3    H224486   4.488   6.734   2.935  1.5435  0.3742  0.1713
  951TIP3   OH224487   0.492   3.562   0.026 -0.2721 -0.2915  0.2781
  951TIP3    H124488   0.448   3.505   0.089 -2.3887  0.7121 -0.1881
  951TIP3    H224489   0.421   3.595  -0.030  1.0825  1.5073 -0.4797
  952TIP3   OH224490   6.430   0.203   2.564  0.4378 -0.4142  0.0223
  952TIP3    H124491   6.423   0.159   2.649  1.5596 -0.8708 -0.0997
  952TIP3    H224492   6.369   0.276   2.569 -0.5842 -1.2803  0.6833
  953TIP3   OH224493   0.683   6.852   1.989  0.6498 -0.3954 -0.1216
  953TIP3    H124494   0.712   6.835   1.900 -1.9774 -0.5599 -1.0277
  953TIP3    H224495   0.752   6.907   2.026  0.7031  1.7864 -3.0938
  954TIP3   OH224496   6.244   2.860   4.087 -0.2570  0.4688  0.2718
  954TIP3    H124497   6.234   2.848   4.181 -2.6909 -0.4346 -0.0312
  954TIP3    H224498   6.155   2.874   4.055  0.4422  0.1922 -1.9813
  955TIP3   OH224499   4.301   1.076   4.363  0.2055 -0.0064  0.7477
  955TIP3    H124500   4.241   1.029   4.421  1.0732 -1.4044  0.5671
  955TIP3    H224501   4.281   1.044   4.275  1.9494 -1.4178  0.8023
  956TIP3   OH224502   6.375   5.378   1.857  0.1559  0.4175 -0.4146
  956TIP3    H124503   6.419   5.324   1.791 -0.1254 -0.1057 -0.1750
  956TIP3    H224504   6.444   5.437   1.889  0.2897  0.6912 -1.1859
  957TIP3   OH224505   1.278   0.592   2.968  0.2226  0.4116 -0.6232
  957TIP3    H124506   1.224   0.666   2.938  0.9052  0.8757 -0.7253
  957TIP3    H224507   1.272   0.528   2.896 -0.6221  0.2254 -0.3988
  958TIP3   OH224508   1.416   3.769   2.090  0.5053  0.1784  0.3349
  958TIP3    H124509   1.508   3.743   2.085  0.5952  0.5375  0.1092
  958TIP3    H224510   1.376   3.703   2.146  0.8833 -0.0304  0.3628
  959TIP3   OH224511   3.117   0.585   2.615  0.2237  0.7772 -0.1861
  959TIP3    H124512   3.146   0.535   2.691 -0.1569  0.1286 -0.4587
  959TIP3    H224513   3.179   0.659   2.609  2.7926 -1.3108 -1.6154
  960TIP3   OH224514   0.056   6.791   3.958  0.2693 -0.2458  0.3866
  960TIP3    H124515  -0.020   6.812   4.011 -0.7887 -0.3901 -0.9964
  960TIP3    H224516   0.065   6.696   3.965  0.2614 -0.2394  0.4770
  961TIP3   OH224517   6.773   2.357   1.209 -0.5097  0.6020 -0.5992
  961TIP3    H124518   6.863   2.349   1.241 -0.6554 -2.3080 -0.5917
  961TIP3    H224519   6.734   2.424   1.265  0.9638  0.1019  1.1445
  962TIP3   OH224520   2.584   5.541   2.990 -0.0375 -0.0474  0.1086
  962TIP3    H124521   2.595   5.531   2.895  1.1423 -0.9565  0.3243
  962TIP3    H224522   2.633   5.621   3.011 -0.2181  0.1008 -0.0319
  963TIP3   OH224523   3.819   3.337   8.627  0.3317  0.4099 -0.3606
  963TIP3    H124524   3.883   3.344   8.698  0.2997  4.1409 -0.5020
  963TIP3    H224525   3.857   3.386   8.555 -2.1283  1.8191 -0.8264
  964TIP3   OH224526   5.275   1.380   0.833  0.0018  0.2350 -0.7682
  964TIP3    H124527   5.355   1.328   0.836  0.1142  0.4022 -0.8360
  964TIP3    H224528   5.228   1.347   0.756 -0.7421 -0.9431  0.1710
  965TIP3   OH224529   2.957   2.861   2.059  0.4566 -0.4449  0.4364
  965TIP3    H124530   2.972   2.775   2.020  1.7156 -0.4758  0.9466
  965TIP3    H224531   2.900   2.906   1.997 -1.0840 -1.9975  0.6673
  966TIP3   OH224532   4.271   5.460   1.826 -0.4654  0.2080 -0.1608
  966TIP3    H124533   4.354   5.459   1.874  1.1822 -1.3534 -2.8314
  966TIP3    H224534   4.275   5.540   1.773  1.2999 -1.7028 -3.2098
  967TIP3   OH224535   4.820   4.434   0.964 -0.3965  0.3587 -0.4009
  967TIP3    H124536   4.851   4.521   0.988  1.5163 -0.2813 -0.4264
  967TIP3    H224537   4.813   4.387   1.047  2.8542 -0.7681 -0.6254
  968TIP3   OH224538   1.822   3.104   1.683 -0.1620  0.0989  0.1541
  968TIP3    H124539   1.899   3.091   1.627  0.9322 -0.7612  1.7869
  968TIP3    H224540   1.752   3.058   1.636 -0.1058  2.0863 -2.0704
  969TIP3   OH224541   0.971   4.959   2.930  0.3572 -0.0623  0.1882
  969TIP3    H124542   0.934   4.877   2.899  1.6946 -0.8084  0.4915
  969TIP3    H224543   0.895   5.013   2.951 -0.6141 -0.3147 -2.2529
  970TIP3   OH224544   5.640   2.415   2.867 -0.6315  0.2527  0.2770
  970TIP3    H124545   5.669   2.503   2.892 -0.2203  0.9048 -2.2482
  970TIP3    H224546   5.712   2.380   2.815 -0.8946 -1.5105  1.0643
  971TIP3   OH224547   6.141   4.285   1.316  0.7291  0.1703 -0.7100
  971TIP3    H124548   6.119   4.351   1.382 -1.0336 -0.4561 -0.6013
  971TIP3    H224549   6.196   4.222   1.363  3.0842  1.8716 -1.0185
  972TIP3   OH224550   0.720   3.757   3.919  0.4047 -0.6733  0.8400
  972TIP3    H124551   0.774   3.717   3.987  0.1751 -2.1167  0.2164
  972TIP3    H224552   0.630   3.748   3.952  0.2675 -1.6391  0.2593
  973TIP3   OH224553   0.964   1.886   0.469 -0.4624 -0.2017 -0.0533
  973TIP3    H124554   0.923   1.872   0.554  0.1801  1.5009  0.5810
  973TIP3    H224555   0.944   1.806   0.420 -0.6221 -1.3547  1.7638
  974TIP3   OH224556   3.037   0.191   3.593 -0.0346 -0.3740 -0.4164
  974TIP3    H124557   3.053   0.098   3.581 -2.1769 -0.7135 -1.2949
  974TIP3    H224558   2.993   0.217   3.511 -4.4142  0.0825  1.7877
  975TIP3   OH224559   4.911   3.224   1.352 -0.0014 -0.1040 -0.3674
  975TIP3    H124560   4.827   3.267   1.338 -3.0152 -4.5609  1.6861
  975TIP3    H224561   4.907   3.145   1.298  1.7001 -1.7471  1.7077
  976TIP3   OH224562   2.585   0.496   1.971 -0.0785 -0.1382  0.1036
  976TIP3    H124563   2.653   0.517   2.034 -0.1889 -0.4056  0.3148
  976TIP3    H224564   2.505   0.533   2.007 -0.1938 -0.5362  0.2638
  977TIP3   OH224565   5.953   5.754   1.054 -0.2858  0.0939 -0.4071
  977TIP3    H124566   6.026   5.763   1.114  1.2250  0.3256 -2.1824
  977TIP3    H224567   5.885   5.811   1.089 -0.0250 -0.8622  1.8092
  978TIP3   OH224568   5.213   5.135   1.273 -0.0918 -0.0027 -0.6353
  978TIP3    H124569   5.271   5.091   1.210  0.2946 -1.0231  0.3992
  978TIP3    H224570   5.153   5.067   1.302  0.4597  0.1593  0.9379
  979TIP3   OH224571   1.577   4.491   2.077  0.1712 -0.0434  0.4293
  979TIP3    H124572   1.590   4.584   2.095  1.3032  0.0993 -0.9416
  979TIP3    H224573   1.575   4.486   1.981 -2.0512 -1.1731  0.4778
  980TIP3   OH224574   4.573   5.349   0.292  0.2137  0.1624 -0.3112
  980TIP3    H124575   4.532   5.424   0.335  0.9383 -0.1766  1.0432
  980TIP3    H224576   4.500   5.299   0.254 -0.4907  0.3490  0.7644
  981TIP3   OH224577   4.546   1.490   2.111 -0.1129  0.4520  0.1548
  981TIP3    H124578   4.579   1.401   2.122  1.1987  0.9342  0.3543
  981TIP3    H224579   4.581   1.539   2.186 -0.8919  1.1131  0.1035
  982TIP3   OH224580   1.794   0.214   0.132  0.1484  0.1890 -0.0651
  982TIP3    H124581   1.714   0.182   0.172  0.9162  0.5080  1.8358
  982TIP3    H224582   1.766   0.286   0.076 -0.9159  0.1927  0.4607
  983TIP3   OH224583   6.142   6.854   1.971 -0.5198 -0.0224 -0.2552
  983TIP3    H124584   6.147   6.860   1.876  0.8990 -1.4239 -0.3181
  983TIP3    H224585   6.175   6.938   2.003 -0.1346  0.1101 -0.9920
  984TIP3   OH224586   1.528   4.592   3.888  0.6281  0.3862  0.1119
  984TIP3    H124587   1.456   4.558   3.942  0.9716 -0.3652  0.1128
  984TIP3    H224588   1.594   4.621   3.951  0.6022  0.4519  0.1082
  985TIP3   OH224589   2.313   2.940   0.454  0.1071  0.0632 -0.5538
  985TIP3    H124590   2.244   2.961   0.391  0.2348  0.0203 -0.7123
  985TIP3    H224591   2.269   2.895   0.525 -0.1255  0.6154 -0.3455
  986TIP3   OH224592   1.343   0.067   0.309  0.0435  0.3791  0.5067
  986TIP3    H124593   1.265   0.033   0.264  0.2719 -2.7134  2.1807
  986TIP3    H224594   1.309   0.137   0.364 -1.2119  0.3915 -0.2200
  987TIP3   OH224595   1.159   6.706   1.169 -0.0317 -0.1630  0.0622
  987TIP3    H124596   1.203   6.636   1.218  1.6365  0.2866 -0.7326
  987TIP3    H224597   1.179   6.786   1.217  1.1829  0.2120 -0.9949
  988TIP3   OH224598   4.244   0.587   3.123  0.1658 -0.3513 -0.0313
  988TIP3    H124599   4.220   0.504   3.163  1.4925 -0.0892  1.3972
  988TIP3    H224600   4.325   0.569   3.075  1.1222  0.3392  1.2661
  989TIP3   OH224601   6.429   1.056   1.118  0.4450  0.2452 -0.0642
  989TIP3    H124602   6.462   0.991   1.056  1.0367  0.6391 -0.1655
  989TIP3    H224603   6.357   1.099   1.072  0.3617 -0.0059 -0.1720
  990TIP3   OH224604   4.425   5.220   2.623  0.2509 -0.2013 -0.2470
  990TIP3    H124605   4.515   5.190   2.633 -0.1789 -1.7233 -0.7103
  990TIP3    H224606   4.402   5.257   2.708  1.4221  0.5503 -0.2401
  991TIP3   OH224607   5.319   6.605   1.296  0.3635  0.0070  0.3266
  991TIP3    H124608   5.228   6.605   1.265  0.8918  0.5586 -1.3108
  991TIP3    H224609   5.351   6.517   1.279  0.1521 -0.1826  0.8874
  992TIP3   OH224610   4.859   6.552   1.455 -0.6770 -0.4139 -0.2840
  992TIP3    H124611   4.865   6.514   1.367  1.5922  0.1796 -0.4422
  992TIP3    H224612   4.928   6.619   1.457  1.1105 -2.1382  2.7616
  993TIP3   OH224613   3.582   3.237   1.988 -0.2303  0.2769  0.1410
  993TIP3    H124614   3.501   3.287   2.001  0.2142  0.7135  1.3853
  993TIP3    H224615   3.574   3.162   2.047 -0.4554 -0.6021 -0.9890
  994TIP3   OH224616   5.957   6.205   2.614 -0.4494 -0.5608  0.5320
  994TIP3    H124617   5.968   6.300   2.618 -0.0348 -0.5118 -0.9398
  994TIP3    H224618   6.033   6.169   2.659  0.2494 -0.1809 -0.3103
  995TIP3   OH224619   3.845   3.544   2.004  0.1189  0.0069  0.0627
  995TIP3    H124620   3.824   3.630   2.038  1.8395  0.8384 -0.8099
  995TIP3    H224621   3.823   3.549   1.911 -1.5425 -1.1706  0.3372
  996TIP3   OH224622   5.450   2.850   0.802 -0.0498  0.1785 -0.3781
  996TIP3    H124623   5.514   2.914   0.770 -3.0595  3.5578 -0.3477
  996TIP3    H224624   5.368   2.875   0.759 -2.1141 -1.6360  2.1735
  997TIP3   OH224625   6.854   4.491   2.194  0.3229  0.3869  0.0203
  997TIP3    H124626   6.925   4.439   2.231 -1.0077 -0.6191  1.2673
  997TIP3    H224627   6.829   4.445   2.114  1.8786  1.4599 -1.1364
  998TIP3   OH224628   1.831   1.082   1.299  0.1794  0.3913  0.1129
  998TIP3    H124629   1.830   1.123   1.386 -1.9221  2.9095 -0.9518
  998TIP3    H224630   1.923   1.085   1.272  0.4663  2.2274  1.1306
  999TIP3   OH224631   5.793   6.050   2.775 -0.5431  0.1635 -0.7809
  999TIP3    H124632   5.816   5.958   2.762  0.0568  0.2199 -0.1927
  999TIP3    H224633   5.856   6.099   2.722 -0.4598  0.2568 -0.5979
 1000TIP3   OH224634   1.851   3.885   0.381  0.4531 -0.4002 -0.1916
 1000TIP3    H124635   1.923   3.939   0.413  0.3214  0.1092 -0.7423
 1000TIP3    H224636   1.889   3.833   0.310  0.0518  0.6017 -1.1637
 1001TIP3   OH224637   3.480   5.937   1.613 -0.0166 -0.0282  0.1840
 1001TIP3    H124638   3.530   5.966   1.689  0.4353 -1.7803  0.5939
 1001TIP3    H224639   3.393   5.976   1.626  0.5603  1.1853  0.6219
 1002TIP3   OH224640   5.400   3.924   8.772 -0.3434 -0.3451 -0.3795
 1002TIP3    H124641   5.384   3.843   8.820 -1.4775 -0.1867 -0.4506
 1002TIP3    H224642   5.423   3.896   8.684 -0.5958 -0.6027 -0.3665
 1003TIP3   OH224643   4.996   6.310   3.022 -0.1638 -0.4131  0.4861
 1003TIP3    H124644   5.087   6.341   3.018  0.1982 -1.6112 -1.5765
 1003TIP3    H224645   4.962   6.322   2.934 -1.4759 -1.5928  0.8034
 1004TIP3   OH224646   3.649   3.489   1.133 -0.2648  0.3032  0.0047
 1004TIP3    H124647   3.606   3.476   1.049 -0.5490 -1.1444  0.3540
 1004TIP3    H224648   3.648   3.403   1.175  0.4605  0.8506  1.2147
 1005TIP3   OH224649   6.742   6.271   2.980 -0.0413  0.6265  0.2003
 1005TIP3    H124650   6.649   6.284   2.998  0.0090 -1.1685  1.9923
 1005TIP3    H224651   6.752   6.300   2.889 -2.4360  0.3812 -0.2142
 1006TIP3   OH224652   4.516   0.742   3.495  0.0797  0.4418 -0.3919
 1006TIP3    H124653   4.554   0.815   3.447  0.4570 -0.0770 -0.9105
 1006TIP3    H224654   4.434   0.723   3.450  1.2550 -1.1788 -2.0173
 1007TIP3   OH224655   1.520   2.335   7.865  0.0835  0.3195  0.1754
 1007TIP3    H124656   1.572   2.259   7.893  1.5046  0.9616 -0.5973
 1007TIP3    H224657   1.572   2.410   7.894 -0.9720  0.9981  0.3322
 1008TIP3   OH224658   4.416   3.717   0.687  0.4861  0.0986 -0.2468
 1008TIP3    H124659   4.424   3.774   0.763  0.9464 -0.3173  0.0225
 1008TIP3    H224660   4.494   3.736   0.634  0.8895 -0.6049  0.0754
 1009TIP3   OH224661   1.804   3.570   8.011  0.7524  0.0109 -0.1253
 1009TIP3    H124662   1.763   3.532   8.089  0.2736  0.2844 -0.2384
 1009TIP3    H224663   1.804   3.664   8.028  1.4783 -0.0015 -0.0634
 1010TIP3   OH224664   2.027   3.688   2.771 -0.5853 -0.5334 -0.2565
 1010TIP3    H124665   2.085   3.757   2.802 -2.2538  0.9708 -0.2817
 1010TIP3    H224666   2.041   3.615   2.831 -0.2936  0.5987  1.1064
 1011TIP3   OH224667   4.847   6.254   3.425 -0.0128 -0.0823 -0.6582
 1011TIP3    H124668   4.817   6.209   3.505 -0.9589  0.7921 -0.4989
 1011TIP3    H224669   4.770   6.302   3.394  0.0260 -1.2390 -2.7155
 1012TIP3   OH224670   5.512   4.655   2.125  0.0891  0.1200 -0.7230
 1012TIP3    H124671   5.567   4.701   2.062 -1.2206 -0.0750 -2.0716
 1012TIP3    H224672   5.503   4.567   2.088 -1.5637  0.3078 -0.8548
 1013TIP3   OH224673   5.637   6.472   1.129 -0.6507 -0.5980  0.0721
 1013TIP3    H124674   5.697   6.399   1.140 -2.3243 -2.1443 -0.5633
 1013TIP3    H224675   5.552   6.438   1.157 -1.8467  0.4890 -2.0308
 1014TIP3   OH224676   3.860   5.700   1.575 -0.0642  0.3671  0.4995
 1014TIP3    H124677   3.821   5.776   1.533  0.3783 -0.6876 -2.0008
 1014TIP3    H224678   3.940   5.683   1.525 -0.3859 -1.9860  0.6502
 1015TIP3   OH224679   6.637   6.687   8.588 -0.3499  0.1989  0.2240
 1015TIP3    H124680   6.660   6.653   8.674 -0.3013  1.2541  0.6502
 1015TIP3    H224681   6.717   6.678   8.536 -0.8878 -2.1148 -0.2967
 1016TIP3   OH224682   1.064   0.922   3.184 -0.2201 -0.3804 -0.4444
 1016TIP3    H124683   1.028   0.913   3.096  1.7746 -0.9449 -1.2535
 1016TIP3    H224684   1.156   0.894   3.176  0.6466  1.6752  1.3284
 1017TIP3   OH224685   6.170   3.049   3.617 -0.7685 -0.2034 -0.3786
 1017TIP3    H124686   6.212   2.993   3.683  2.1003  0.5779 -1.4033
 1017TIP3    H224687   6.081   3.013   3.609  0.6142 -4.1918 -0.4110
 1018TIP3   OH224688   5.112   4.765   8.109 -0.1134 -0.0031  0.2740
 1018TIP3    H124689   5.152   4.842   8.068 -0.8527  0.9939  1.3926
 1018TIP3    H224690   5.018   4.779   8.100 -0.3007  0.2197  2.2191
 1019TIP3   OH224691   0.879   6.627   3.582 -0.0230  0.3564 -0.0779
 1019TIP3    H124692   0.919   6.584   3.658 -0.7772  0.9632  0.6965
 1019TIP3    H224693   0.849   6.712   3.616 -0.6115  0.5310 -0.9929
 1020TIP3   OH224694   0.806   5.595   3.738  0.2670  0.3202  0.2223
 1020TIP3    H124695   0.753   5.668   3.769 -0.0908 -0.1115  0.6403
 1020TIP3    H224696   0.854   5.631   3.663 -0.5811  0.7362 -0.1442
 1021TIP3   OH224697   2.767   5.759   3.035  0.6378 -0.0789  0.3008
 1021TIP3    H124698   2.842   5.735   3.089  0.5645 -0.6929  0.1377
 1021TIP3    H224699   2.799   5.828   2.978  1.7811 -1.9445 -1.4204
 1022TIP3   OH224700   5.990   5.944   2.518  0.1225 -0.1070  0.5431
 1022TIP3    H124701   5.959   5.906   2.600 -0.8798 -0.7934 -0.1324
 1022TIP3    H224702   5.937   6.023   2.507  3.4690  2.7887  2.9115
 1023TIP3   OH224703   5.649   2.394   8.431  0.5683 -0.0288 -0.0498
 1023TIP3    H124704   5.644   2.306   8.394 -1.0896 -0.5549  1.2807
 1023TIP3    H224705   5.717   2.438   8.380  1.2222 -1.9725 -0.9457
 1024TIP3   OH224706   4.690   0.668   3.150 -0.1093  0.0178 -0.2235
 1024TIP3    H124707   4.676   0.622   3.233 -1.6106 -1.3822 -1.1957
 1024TIP3    H224708   4.714   0.757   3.177  0.8484 -0.7497  1.7010
 1025TIP3   OH224709   1.602   4.287   8.569 -0.2369 -0.3482 -0.4282
 1025TIP3    H124710   1.638   4.375   8.584 -0.7716 -0.3792  1.1371
 1025TIP3    H224711   1.578   4.288   8.476  2.2007  0.2277 -1.1301
 1026TIP3   OH224712   4.097   6.641   1.416  0.1403 -0.4506 -0.0006
 1026TIP3    H124713   4.004   6.656   1.403  0.5673  1.0017 -1.8756
 1026TIP3    H224714   4.125   6.712   1.474  0.5092  0.6736 -1.5087
 1027TIP3   OH224715   2.183   3.518   0.506 -0.1214 -0.0374  0.7711
 1027TIP3    H124716   2.109   3.458   0.500 -0.9417  1.0249 -3.8707
 1027TIP3    H224717   2.228   3.509   0.422  2.1540  2.8550  1.5101
 1028TIP3   OH224718   3.434   6.264   2.766 -0.0067 -0.2581  0.2379
 1028TIP3    H124719   3.400   6.352   2.751  1.1548  0.5235  1.8539
 1028TIP3    H224720   3.432   6.222   2.680 -0.6428  1.3091 -0.5542
 1029TIP3   OH224721   3.650   6.131   1.194  0.0734  0.2869  0.0803
 1029TIP3    H124722   3.624   6.205   1.250 -1.0947  0.4454 -0.6309
 1029TIP3    H224723   3.663   6.170   1.108  1.8023  0.0336  0.2071
 1030TIP3   OH224724   4.948   2.118   3.023 -0.0375  0.0489 -0.1999
 1030TIP3    H124725   4.901   2.071   2.954  0.2917 -1.3829  0.5276
 1030TIP3    H224726   5.000   2.051   3.067 -1.9162  0.4459  2.9085
 1031TIP3   OH224727   2.222   3.696   3.180 -0.3006  0.2633 -0.1454
 1031TIP3    H124728   2.254   3.714   3.091  0.4194  4.5884  0.7828
 1031TIP3    H224729   2.265   3.615   3.205  1.4212  0.2132 -2.8620
 1032TIP3   OH224730   4.548   5.955   8.279 -0.0338  0.1232  0.0235
 1032TIP3    H124731   4.555   5.874   8.328  0.9790  0.3449  0.2684
 1032TIP3    H224732   4.531   5.927   8.189  0.0882 -0.3460  0.1449
 1033TIP3   OH224733   6.323   1.474   1.594  0.4559  0.2427 -0.0467
 1033TIP3    H124734   6.279   1.410   1.539 -0.1207 -0.0705  0.7645
 1033TIP3    H224735   6.393   1.426   1.638 -0.3503 -0.0066  1.0225
 1034TIP3   OH224736   0.102   2.821   1.195 -0.5102 -0.5540 -0.2705
 1034TIP3    H124737   0.161   2.881   1.149  0.1785 -1.0349 -0.0235
 1034TIP3    H224738   0.022   2.873   1.210 -0.8909 -0.4744 -2.2872
 1035TIP3   OH224739   3.852   6.190   2.298 -0.1283 -0.1581 -0.5252
 1035TIP3    H124740   3.906   6.244   2.241 -2.6103  1.7941 -1.2381
 1035TIP3    H224741   3.864   6.228   2.385  0.4176 -0.4078 -0.4882
 1036TIP3   OH224742   1.943   1.389   1.398  0.5935  0.4873  0.7949
 1036TIP3    H124743   2.006   1.388   1.326  0.3094 -0.5810  0.5409
 1036TIP3    H224744   1.858   1.400   1.356  0.6277  2.8329  1.1974
 1037TIP3   OH224745   4.384   3.704   0.305  0.2499  1.0007 -0.0836
 1037TIP3    H124746   4.422   3.784   0.269  3.1850 -0.6408 -1.0221
 1037TIP3    H224747   4.434   3.687   0.385 -1.1489  0.6774  0.7630
 1038TIP3   OH224748   1.862   6.221   3.477  0.5088 -0.3370  0.0248
 1038TIP3    H124749   1.879   6.127   3.482  0.1836 -0.3740  0.5827
 1038TIP3    H224750   1.829   6.235   3.389  3.3172 -0.2525 -1.1177
 1039TIP3   OH224751   2.646   2.915   2.095  0.1809  0.0529  0.2898
 1039TIP3    H124752   2.686   2.845   2.146  0.6414  0.7027  0.8502
 1039TIP3    H224753   2.597   2.966   2.160  1.2261  1.2143  0.2036
 1040TIP3   OH224754   6.349   0.939   3.184 -0.2714  0.2680 -0.0357
 1040TIP3    H124755   6.324   0.875   3.251  0.9714  0.7636  0.9336
 1040TIP3    H224756   6.437   0.967   3.209 -0.3550  1.5516 -1.0703
 1041TIP3   OH224757   3.891   0.622   1.456  0.3721 -0.5687  0.4915
 1041TIP3    H124758   3.869   0.711   1.486 -0.3609 -0.4052 -0.4843
 1041TIP3    H224759   3.864   0.565   1.528 -1.0983 -0.1653  0.2879
 1042TIP3   OH224760   5.533   6.549   0.281 -0.1809  0.6385 -0.1847
 1042TIP3    H124761   5.546   6.634   0.239  0.8970  1.7151  2.1134
 1042TIP3    H224762   5.622   6.513   0.287 -0.3520  0.3577  0.7787
 1043TIP3   OH224763   5.812   3.660   1.552 -0.1691 -0.2131  0.1512
 1043TIP3    H124764   5.905   3.658   1.573 -0.6431 -0.0232  2.5946
 1043TIP3    H224765   5.777   3.579   1.590 -1.0791 -0.0955 -0.3986
 1044TIP3   OH224766   4.939   5.397   3.294  0.2928  0.1650 -0.5910
 1044TIP3    H124767   4.880   5.409   3.220  1.0813  0.1570 -1.2381
 1044TIP3    H224768   4.898   5.329   3.347 -1.0576  1.2408 -0.1881
 1045TIP3   OH224769   5.263   0.307   2.184  0.2441  0.3177  0.0016
 1045TIP3    H124770   5.308   0.386   2.154  0.3989  0.6281  1.0006
 1045TIP3    H224771   5.323   0.266   2.245  0.4458 -0.9678 -1.0141
 1046TIP3   OH224772   6.124   6.285   3.678 -0.3060 -0.0504  0.3300
 1046TIP3    H124773   6.102   6.372   3.643 -2.2173 -1.5092 -2.5439
 1046TIP3    H224774   6.090   6.285   3.767 -4.4977  0.7995 -1.0517
 1047TIP3   OH224775   6.775   2.755   0.611 -0.2198  0.1179 -0.1088
 1047TIP3    H124776   6.780   2.839   0.567 -1.8049  2.0161  2.9680
 1047TIP3    H224777   6.863   2.741   0.646  0.1132  0.3651 -0.8386
 1048TIP3   OH224778   0.828   0.075   2.406 -0.2744  0.2729  0.6391
 1048TIP3    H124779   0.741   0.114   2.394 -0.1090  0.3222 -0.5309
 1048TIP3    H224780   0.857   0.054   2.317 -0.2637 -2.3856  1.2063
 1049TIP3   OH224781   4.821   4.519   8.049  0.4373 -0.0174  0.2470
 1049TIP3    H124782   4.868   4.600   8.033  0.4574  0.1056  0.9132
 1049TIP3    H224783   4.771   4.535   8.129  0.4117 -0.6431  0.3639
 1050TIP3   OH224784   1.801   1.015   3.511  0.0514 -0.3019 -0.2762
 1050TIP3    H124785   1.878   1.051   3.467  0.4323 -0.3236  0.3476
 1050TIP3    H224786   1.774   1.084   3.571  0.6134 -0.9188  0.7180
 1051TIP3   OH224787   3.765   3.385   3.469  0.4823  0.2529 -0.5737
 1051TIP3    H124788   3.696   3.383   3.535  1.4860  1.2512  0.5552
 1051TIP3    H224789   3.756   3.470   3.427 -0.0416 -0.3110 -1.6281
 1052TIP3   OH224790   4.654   1.767   2.867  0.3845 -0.2529 -0.0455
 1052TIP3    H124791   4.578   1.710   2.852  0.1414 -0.2599  1.1002
 1052TIP3    H224792   4.619   1.840   2.918  0.7843  0.7412 -1.1561
 1053TIP3   OH224793   4.997   1.790   8.762 -0.7578 -0.1562  0.4624
 1053TIP3    H124794   5.045   1.752   8.689  0.6252 -1.5290  1.9852
 1053TIP3    H224795   5.026   1.881   8.765 -2.2237  0.4254 -1.7538
 1054TIP3   OH224796   1.119   2.238   0.652 -0.1993 -0.2654  0.0014
 1054TIP3    H124797   1.161   2.316   0.616 -1.2651  0.1598 -0.3522
 1054TIP3    H224798   1.163   2.164   0.609  1.2054  0.0975  0.7532
 1055TIP3   OH224799   3.850   2.966   1.275 -0.2276  0.0331  0.4195
 1055TIP3    H124800   3.912   3.000   1.210 -0.6718  0.1021  0.0304
 1055TIP3    H224801   3.875   2.874   1.286  1.0542  0.4779  1.5648
 1056TIP3   OH224802   1.923   3.091   8.161  0.3058 -0.3714  0.2048
 1056TIP3    H124803   1.944   3.002   8.187  0.2613 -0.3115  0.4542
 1056TIP3    H224804   1.832   3.088   8.132  0.4152 -0.4768 -0.1256
 1057TIP3   OH224805   0.168   3.172   3.292 -0.1401  0.5400  0.2029
 1057TIP3    H124806   0.154   3.247   3.349  0.9504  1.2459 -0.4057
 1057TIP3    H224807   0.219   3.207   3.219 -1.2611 -0.3964 -1.0691
 1058TIP3   OH224808   6.682   0.285   2.923 -0.3036  0.3476  0.4922
 1058TIP3    H124809   6.618   0.266   2.992 -0.3238 -1.2364  0.0785
 1058TIP3    H224810   6.650   0.365   2.882 -0.7447  0.8588  1.7672
 1059TIP3   OH224811   5.507   5.084   8.504  0.7004  0.3514 -0.3287
 1059TIP3    H124812   5.431   5.139   8.524  0.6177  0.2044 -0.2422
 1059TIP3    H224813   5.582   5.135   8.534  0.4668 -0.8679  2.6600
 1060TIP3   OH224814   6.330   0.117   2.828 -0.3691 -0.3290 -0.1635
 1060TIP3    H124815   6.365   0.075   2.906 -0.4409  1.9739  1.2062
 1060TIP3    H224816   6.254   0.064   2.804 -0.8729 -0.6142  1.8667
 1061TIP3   OH224817   1.148   5.422   0.360  0.1453 -0.1207 -0.3708
 1061TIP3    H124818   1.179   5.341   0.402  0.6479  1.1154  1.8401
 1061TIP3    H224819   1.224   5.455   0.312  0.6743  0.1934  0.6508
 1062TIP3   OH224820   4.197   5.121   1.092  0.4798  0.2657  0.1411
 1062TIP3    H124821   4.163   5.210   1.091  1.6670  0.7737  1.4080
 1062TIP3    H224822   4.253   5.116   1.015  0.6788  0.7324  0.2524
 1063TIP3   OH224823   4.235   3.812   1.219 -0.0067 -0.2345  0.6817
 1063TIP3    H124824   4.186   3.860   1.152 -1.1574  0.3717  1.9181
 1063TIP3    H224825   4.315   3.784   1.174  0.0018  1.5171 -0.5178
 1064TIP3   OH224826   0.196   6.244   8.462  0.2121  0.0431  0.0273
 1064TIP3    H124827   0.207   6.309   8.393  0.3016 -0.2352 -0.2225
 1064TIP3    H224828   0.240   6.281   8.538 -0.3094  0.5698  0.0769
 1065TIP3   OH224829   0.946   5.226   8.109  0.6072 -0.6013 -0.4563
 1065TIP3    H124830   0.896   5.298   8.147  0.4594 -1.0799  0.2726
 1065TIP3    H224831   0.895   5.198   8.033 -0.7484 -1.6782  0.7946
 1066TIP3   OH224832   5.273   0.172   8.724 -0.4142 -0.1352  0.4402
 1066TIP3    H124833   5.308   0.260   8.741 -0.5871 -0.1994  1.1559
 1066TIP3    H224834   5.350   0.117   8.715 -0.2864  0.1993 -0.6824
 1067TIP3   OH224835   3.438   5.736   0.462 -0.1422  0.0098  0.5302
 1067TIP3    H124836   3.393   5.652   0.470 -1.0086  0.2373 -1.4403
 1067TIP3    H224837   3.385   5.786   0.400 -0.0947  2.3320  2.2192
 1068TIP3   OH224838   0.425   1.591   2.513 -0.5122 -0.0712 -0.2358
 1068TIP3    H124839   0.440   1.578   2.607  0.5690 -1.8689 -0.6109
 1068TIP3    H224840   0.512   1.608   2.477 -0.6940 -0.8698 -1.0971
 1069TIP3   OH224841   4.168   3.501   2.165  0.2071 -0.8524  0.0593
 1069TIP3    H124842   4.103   3.475   2.099 -0.1702 -0.6836  0.3585
 1069TIP3    H224843   4.130   3.579   2.206  1.6754  0.7070 -1.3840
 1070TIP3   OH224844   1.853   3.340   1.158 -0.0842 -0.0727 -0.4400
 1070TIP3    H124845   1.915   3.341   1.231 -0.7619  0.2346  0.1361
 1070TIP3    H224846   1.769   3.316   1.197 -0.2710 -0.8376 -1.2751
 1071TIP3   OH224847   3.222   3.029   3.597 -0.5046  0.2599  0.4188
 1071TIP3    H124848   3.305   3.008   3.555  0.0784  0.4813  1.4387
 1071TIP3    H224849   3.175   2.945   3.599  0.6990 -0.4396  2.0160
 1072TIP3   OH224850   2.022   0.802   3.359  0.2792  0.2850  0.1837
 1072TIP3    H124851   1.950   0.741   3.344 -0.1901  1.3858 -2.6591
 1072TIP3    H224852   2.072   0.801   3.277  2.1867  1.2702  1.2610
 1073TIP3   OH224853   1.707   3.321   0.766  0.0119  0.0457  0.4800
 1073TIP3    H124854   1.641   3.356   0.826 -0.8361 -0.6774 -0.0116
 1073TIP3    H224855   1.726   3.234   0.799 -0.5537 -0.4066 -0.3483
 1074TIP3   OH224856   0.740   6.247   2.318  0.1348  0.3394 -0.0673
 1074TIP3    H124857   0.683   6.206   2.253 -0.4405  0.7029  0.2050
 1074TIP3    H224858   0.705   6.218   2.402  2.4033 -2.2878  0.1399
 1075TIP3   OH224859   2.191   1.681   8.363  0.1991  0.5215  0.3292
 1075TIP3    H124860   2.111   1.638   8.391  0.7035 -0.4065  0.3948
 1075TIP3    H224861   2.162   1.759   8.317 -0.7406  0.1627  0.2965
 1076TIP3   OH224862   2.856   4.150   1.025  0.3776 -0.1603  0.6047
 1076TIP3    H124863   2.911   4.091   0.973  0.0608 -0.1283  0.2339
 1076TIP3    H224864   2.767   4.136   0.992  0.2481  0.2537  0.7692
 1077TIP3   OH224865   1.303   6.817   0.764 -0.1406 -0.0534 -0.0097
 1077TIP3    H124866   1.232   6.842   0.824 -0.6312 -0.2856 -0.4797
 1077TIP3    H224867   1.302   6.721   0.763 -0.8482 -0.0623 -1.1833
 1078TIP3   OH224868   1.088   0.004   1.507 -0.3524  0.2106 -0.2807
 1078TIP3    H124869   1.117  -0.087   1.521 -0.8911 -0.1001 -1.0754
 1078TIP3    H224870   1.168   0.051   1.482 -0.3978 -0.5530 -2.0917
 1079TIP3   OH224871   5.227   6.533   1.650 -0.1250 -0.1478  0.1771
 1079TIP3    H124872   5.281   6.460   1.619  1.5583  1.2525 -0.3729
 1079TIP3    H224873   5.276   6.567   1.726 -1.6986 -0.5192  1.4150
 1080TIP3   OH224874   5.142   2.721   2.015  0.0427  0.4961  0.0379
 1080TIP3    H124875   5.137   2.802   2.065  1.8093 -0.2264  1.5358
 1080TIP3    H224876   5.063   2.673   2.039 -0.1290  1.0252  0.5578
 1081TIP3   OH224877   4.609   2.420   1.997 -0.1183 -0.7204 -0.0092
 1081TIP3    H124878   4.549   2.472   2.049  0.9085  1.8076 -1.1650
 1081TIP3    H224879   4.558   2.396   1.919 -0.6793 -1.7701  0.6520
 1082TIP3   OH224880   5.874   2.085   2.892 -0.0305  0.2537  0.1618
 1082TIP3    H124881   5.835   2.126   2.969 -0.0194  0.6015 -0.0162
 1082TIP3    H224882   5.871   2.153   2.825 -0.6321 -0.2532 -0.3353
 1083TIP3   OH224883   1.113   5.311   0.033  0.0166  0.9005 -0.1140
 1083TIP3    H124884   1.079   5.400   0.036  0.9522  1.3227 -1.3101
 1083TIP3    H224885   1.037   5.257   0.007 -0.0994  1.6321 -1.3676
 1084TIP3   OH224886   5.980   4.850   2.121  0.5711  0.6222 -0.2366
 1084TIP3    H124887   5.947   4.929   2.079 -1.0625 -0.0602 -0.3069
 1084TIP3    H224888   6.009   4.794   2.049  0.5514  0.6527 -0.2680
 1085TIP3   OH224889   2.606   3.244   2.925  0.1115  0.2162 -0.3240
 1085TIP3    H124890   2.654   3.278   2.849 -0.8066  0.6105 -0.7416
 1085TIP3    H224891   2.542   3.312   2.946 -2.5964 -1.6388 -1.9288
 1086TIP3   OH224892   5.592   5.577   2.994  0.0289 -0.1876  0.0410
 1086TIP3    H124893   5.675   5.613   3.026  1.1322 -0.3298 -2.3900
 1086TIP3    H224894   5.530   5.650   3.001  0.8799  0.5454  0.1025
 1087TIP3   OH224895   4.669   3.782   3.162  0.6324  0.0533 -0.7811
 1087TIP3    H124896   4.696   3.690   3.162 -0.1419 -0.1911  0.1337
 1087TIP3    H224897   4.747   3.830   3.133  1.0539 -0.8823 -1.2391
 1088TIP3   OH224898   5.439   1.483   0.429  0.4900  0.4235  0.4037
 1088TIP3    H124899   5.446   1.532   0.511  1.5928 -0.0486  0.6193
 1088TIP3    H224900   5.439   1.391   0.456 -0.6263  0.2740 -0.0527
 1089TIP3   OH224901   2.484   6.133   1.741 -0.3702  0.2125  0.3319
 1089TIP3    H124902   2.511   6.058   1.795  0.7630  0.4419  0.1122
 1089TIP3    H224903   2.390   6.120   1.727 -0.9632  0.6833  3.2144
 1090TIP3   OH224904   6.039   6.705   0.687 -0.3580 -0.5054 -0.2013
 1090TIP3    H124905   6.003   6.643   0.751  0.9308 -1.9915 -0.8331
 1090TIP3    H224906   6.117   6.741   0.731 -0.9807  0.5427  0.0779
 1091TIP3   OH224907   4.052   0.694   2.966 -0.1752 -0.2284 -0.1988
 1091TIP3    H124908   4.128   0.648   3.001 -0.1837 -0.8378 -0.9467
 1091TIP3    H224909   4.087   0.777   2.932  0.3526 -0.9323 -1.4439
 1092TIP3   OH224910   2.515   2.957   3.590  0.1966  0.0174  0.3777
 1092TIP3    H124911   2.484   2.987   3.505 -0.0056  0.3803  0.5802
 1092TIP3    H224912   2.436   2.949   3.643  0.3812  0.2947  0.6917
 1093TIP3   OH224913   1.275   2.477   0.258  0.0348 -0.3507 -0.5805
 1093TIP3    H124914   1.339   2.444   0.195 -0.3236 -1.2011 -0.5225
 1093TIP3    H224915   1.262   2.568   0.234  1.0195 -0.2533 -0.7968
 1094TIP3   OH224916   2.201   6.763   8.656  0.1542 -0.1563  0.2303
 1094TIP3    H124917   2.120   6.791   8.698  0.1952 -0.8209  0.7823
 1094TIP3    H224918   2.211   6.820   8.580  0.2309  1.3105  1.2962
 1095TIP3   OH224919   1.807   6.688   1.814 -0.3989  0.2227  0.4135
 1095TIP3    H124920   1.859   6.658   1.889 -0.7641 -0.1086  0.5336
 1095TIP3    H224921   1.746   6.617   1.796  0.1400  0.0091 -0.6366
 1096TIP3   OH224922   5.237   3.141   0.957 -0.4199 -0.7804  0.1092
 1096TIP3    H124923   5.249   3.148   1.052 -0.2970  1.2792 -0.0312
 1096TIP3    H224924   5.326   3.136   0.922 -0.0986  3.3842 -0.1543
 1097TIP3   OH224925   0.740   3.089   2.244  0.3762 -0.0903  0.7649
 1097TIP3    H124926   0.667   3.027   2.246 -0.4268  0.3413 -3.9933
 1097TIP3    H224927   0.698   3.175   2.239  1.4265  0.6250  2.9158
 1098TIP3   OH224928   6.415   0.558   0.912 -0.4525 -0.2704 -0.2081
 1098TIP3    H124929   6.498   0.549   0.866  0.5556  0.1016  1.4497
 1098TIP3    H224930   6.421   0.495   0.984 -1.3035  0.2668  0.3481
 1099TIP3   OH224931   5.592   4.244   1.054 -0.4186  0.6561  0.0702
 1099TIP3    H124932   5.587   4.310   0.985 -0.8152  0.6530  0.0928
 1099TIP3    H224933   5.685   4.223   1.060 -0.4682  0.0507 -1.0350
 1100TIP3   OH224934   4.793   5.355   3.915 -0.0817  0.3184  0.5583
 1100TIP3    H124935   4.727   5.300   3.872  1.1501  0.2893 -1.4501
 1100TIP3    H224936   4.851   5.293   3.960 -0.4643  0.2163  0.9115
 1101TIP3   OH224937   0.882   0.323   8.168  0.5508  0.0608 -0.2729
 1101TIP3    H124938   0.836   0.373   8.101  0.9798 -0.3857 -0.9111
 1101TIP3    H224939   0.949   0.275   8.120  0.6666 -0.5032  0.4363
 1102TIP3   OH224940   0.788   5.041   0.636  0.2432 -0.1132  0.3776
 1102TIP3    H124941   0.799   5.122   0.685  0.0325 -0.3274  0.7883
 1102TIP3    H224942   0.796   4.972   0.702  1.2383 -0.4668 -0.0852
 1103TIP3   OH224943   6.338   6.565   0.726  0.2273 -0.4716 -0.2405
 1103TIP3    H124944   6.311   6.535   0.813 -1.4265 -0.6833 -0.7928
 1103TIP3    H224945   6.330   6.660   0.730 -0.1087 -0.4986 -0.2341
 1104TIP3   OH224946   0.784   6.684   2.822  0.0330 -0.2191 -0.7036
 1104TIP3    H124947   0.837   6.707   2.746  0.8028 -0.4215 -0.2352
 1104TIP3    H224948   0.786   6.589   2.826  0.2853 -0.1982 -0.2309
 1105TIP3   OH224949   4.147   0.907   2.819 -0.6041  0.0535 -0.1446
 1105TIP3    H124950   4.236   0.932   2.795 -0.3701  0.2640  0.8731
 1105TIP3    H224951   4.092   0.940   2.747  0.2839 -1.5542 -1.6262
 1106TIP3   OH224952   0.325   0.320   2.711 -0.2411 -0.1040 -0.0025
 1106TIP3    H124953   0.302   0.236   2.752  0.0624 -0.0210  0.3469
 1106TIP3    H224954   0.244   0.351   2.672 -0.5767 -0.1082  0.6811
 1107TIP3   OH224955   4.818   0.996   2.163 -0.3401 -0.6330  0.5104
 1107TIP3    H124956   4.797   0.920   2.217 -0.4020 -0.1889  1.1346
 1107TIP3    H224957   4.807   0.966   2.073 -2.4770 -0.7642  0.7587
 1108TIP3   OH224958   2.780   3.653   0.401 -0.5428  0.0018 -0.0533
 1108TIP3    H124959   2.784   3.568   0.446  0.4990 -0.9862 -1.8656
 1108TIP3    H224960   2.862   3.658   0.353  0.0329  2.7186  1.0545
 1109TIP3   OH224961   2.832   1.125   2.336 -0.4156  0.3863  0.1284
 1109TIP3    H124962   2.762   1.098   2.396 -0.4449  1.2678  0.4979
 1109TIP3    H224963   2.867   1.205   2.374 -1.3022  1.7000 -1.6956
 1110TIP3   OH224964   4.497   0.921   1.088 -0.2236  0.2376 -0.7158
 1110TIP3    H124965   4.540   0.839   1.112  1.2843  0.5803 -2.0744
 1110TIP3    H224966   4.421   0.894   1.037  0.9474 -0.3262 -2.2114
 1111TIP3   OH224967   2.699   2.180   3.327 -0.5689  0.3352 -0.4510
 1111TIP3    H124968   2.793   2.172   3.310 -0.7020  1.3225 -1.7844
 1111TIP3    H224969   2.694   2.243   3.400 -0.1051 -2.2062  1.9600
 1112TIP3   OH224970   0.165   3.065   2.433 -0.5418 -0.1124  0.1136
 1112TIP3    H124971   0.223   2.997   2.470  1.6314  0.3410 -2.1605
 1112TIP3    H224972   0.105   3.016   2.376 -0.9883 -0.3775  0.7966
 1113TIP3   OH224973   4.995   5.936   2.798 -0.0504 -0.4122 -0.0221
 1113TIP3    H124974   4.999   5.848   2.836 -1.1828 -0.8170 -0.7979
 1113TIP3    H224975   4.926   5.931   2.733 -0.6601  1.2652  0.4398
 1114TIP3   OH224976   5.720   4.458   1.936 -0.7087  0.3708  0.4032
 1114TIP3    H124977   5.756   4.402   1.868 -1.1276  1.1137 -0.4485
 1114TIP3    H224978   5.627   4.435   1.939 -1.0819  1.6266 -0.6016
 1115TIP3   OH224979   4.693   0.170   0.966 -0.5020 -0.3141 -0.4925
 1115TIP3    H124980   4.667   0.257   0.937  1.5335  0.3103 -0.6285
 1115TIP3    H224981   4.763   0.144   0.905 -0.6587 -1.7978 -0.0943
 1116TIP3   OH224982   3.230   0.623   1.684  0.3864  0.0945 -0.6985
 1116TIP3    H124983   3.306   0.565   1.686 -0.3549 -0.9007 -0.7834
 1116TIP3    H224984   3.257   0.699   1.736  1.6272  0.0125 -1.1793
 1117TIP3   OH224985   2.085   5.114   0.618 -0.0840 -0.0692 -0.0244
 1117TIP3    H124986   2.052   5.036   0.573 -0.1629  0.7634 -1.4895
 1117TIP3    H224987   2.089   5.090   0.710  2.1203 -2.5943 -0.6604
 1118TIP3   OH224988   4.659   6.562   3.706  0.1988 -0.2021 -0.3401
 1118TIP3    H124989   4.636   6.646   3.745  2.3397  1.1842 -1.8490
 1118TIP3    H224990   4.704   6.514   3.776 -1.2093 -0.2265  0.5914
 1119TIP3   OH224991   3.771   0.073   1.362 -0.2442 -0.1973  0.1991
 1119TIP3    H124992   3.700   0.137   1.354 -0.3627 -0.4235 -0.5871
 1119TIP3    H224993   3.824   0.086   1.283 -1.5315 -2.5979 -1.1580
 1120TIP3   OH224994   4.919   5.377   2.518  0.3348 -0.1153 -0.2385
 1120TIP3    H124995   4.888   5.343   2.601  2.2302  2.6462  1.7755
 1120TIP3    H224996   5.008   5.341   2.508  0.3491  0.0492 -0.7672
 1121TIP3   OH224997   3.934   5.698   3.825 -0.0515  0.0627 -0.8555
 1121TIP3    H124998   4.014   5.709   3.773 -0.4216 -0.5911 -1.6009
 1121TIP3    H224999   3.923   5.781   3.871  1.5337 -0.1412 -0.0361
 1122TIP3   OH225000   3.573   0.604   8.345  0.3034 -0.3907 -0.1038
 1122TIP3    H125001   3.594   0.548   8.419  0.7047  1.4198  1.2203
 1122TIP3    H225002   3.479   0.591   8.331  0.0463 -0.1550  1.2744
 1123TIP3   OH225003   2.561   3.069   0.443 -0.6668  0.6216 -0.0259
 1123TIP3    H125004   2.507   3.004   0.489 -2.2171  2.8893  1.5256
 1123TIP3    H225005   2.499   3.132   0.408  0.8162  1.6298 -0.9493
 1124TIP3   OH225006   2.144   5.268   8.196  0.3158  0.2134 -0.0598
 1124TIP3    H125007   2.055   5.282   8.163 -0.0569  0.2481  0.9311
 1124TIP3    H225008   2.196   5.335   8.152 -0.2629  0.5994 -0.1714
 1125TIP3   OH225009   0.998   1.210   8.658 -0.2312 -0.3574  0.0738
 1125TIP3    H125010   0.986   1.236   8.567  2.4695  1.2033  0.0388
 1125TIP3    H225011   0.934   1.262   8.707 -0.4447  0.2041 -0.7799
 1126TIP3   OH225012   2.970   0.509   0.320 -0.0831 -0.4404 -0.2129
 1126TIP3    H125013   2.985   0.588   0.268 -0.3819 -0.0594  0.2768
 1126TIP3    H225014   2.920   0.452   0.262  0.5957 -0.4998 -0.7649
 1127TIP3   OH225015   0.261   2.925   2.806  0.3308 -0.0208 -0.3205
 1127TIP3    H125016   0.209   2.894   2.880 -1.1431 -0.4112 -1.4541
 1127TIP3    H225017   0.201   2.919   2.731  1.6830  0.5949 -1.5000
 1128TIP3   OH225018   5.438   3.860   2.071 -0.0343  0.0714  0.0300
 1128TIP3    H125019   5.410   3.804   1.999  0.4520 -0.3162  0.1341
 1128TIP3    H225020   5.401   3.818   2.149  0.4909 -0.2125  0.1271
 1129TIP3   OH225021   0.816   4.697   1.994 -0.5823  0.4306  0.4911
 1129TIP3    H125022   0.751   4.736   2.052 -2.1410 -2.2965  0.7677
 1129TIP3    H225023   0.851   4.623   2.043  0.1928 -0.1986 -0.9522
 1130TIP3   OH225024   2.818   2.321   3.014 -0.4229  0.0970 -0.3675
 1130TIP3    H125025   2.900   2.320   3.063 -0.2530  0.1978 -0.6503
 1130TIP3    H225026   2.753   2.354   3.077  0.0672  1.6352 -0.6297
 1131TIP3   OH225027   0.516   6.100   1.475  0.0685  0.3693 -0.1867
 1131TIP3    H125028   0.509   6.056   1.390  0.4932  0.2018 -0.1373
 1131TIP3    H225029   0.598   6.149   1.470 -0.0436  0.5803  0.0247
 1132TIP3   OH225030   3.592   1.312   1.723  0.3991  0.0519  0.2283
 1132TIP3    H125031   3.670   1.351   1.761 -1.3102  1.7682  2.2552
 1132TIP3    H225032   3.528   1.312   1.794 -1.4128 -1.4909 -1.2705
 1133TIP3   OH225033   1.557   6.094   1.618  0.4628  0.7652  0.1479
 1133TIP3    H125034   1.632   6.054   1.663 -0.5545  0.4422  1.6244
 1133TIP3    H225035   1.511   6.020   1.578  0.7206  0.9261 -0.4592
 1134TIP3   OH225036   4.427   5.824   3.079 -0.0479 -1.0570  0.3687
 1134TIP3    H125037   4.390   5.899   3.033 -0.7355 -2.1307 -0.9006
 1134TIP3    H225038   4.512   5.855   3.111  1.1662 -0.6126 -2.8704
 1135TIP3   OH225039   0.986   6.018   2.662  0.0706  0.2118 -0.9503
 1135TIP3    H125040   0.903   5.985   2.626 -0.3678 -0.8657  0.9152
 1135TIP3    H225041   1.048   5.947   2.648 -0.1004 -0.2189  0.2938
 1136TIP3   OH225042   0.330   0.820   3.643  0.4751 -0.6440 -0.2037
 1136TIP3    H125043   0.256   0.826   3.582  1.6814 -0.3369 -1.7089
 1136TIP3    H225044   0.344   0.726   3.655 -1.0178 -0.7222  1.2390
 1137TIP3   OH225045   4.506   4.589   0.986 -0.1798 -0.3438 -0.0992
 1137TIP3    H125046   4.488   4.495   0.987 -0.3846 -0.3698 -2.0366
 1137TIP3    H225047   4.438   4.628   1.040 -1.5514 -1.1278 -1.1945
 1138TIP3   OH225048   6.256   3.184   0.968  0.1339  1.0382 -0.3368
 1138TIP3    H125049   6.331   3.228   0.928  0.0547  1.8276  0.3636
 1138TIP3    H225050   6.282   3.171   1.059  0.3613 -0.8449 -0.6102
 1139TIP3   OH225051   1.883   5.431   1.104 -0.7718 -0.3289  0.6793
 1139TIP3    H125052   1.902   5.370   1.176  0.5432 -0.1439  0.5286
 1139TIP3    H225053   1.968   5.471   1.085 -0.8249 -1.1806 -1.7150
 1140TIP3   OH225054   3.733   0.751   2.361  0.6220  0.4150  0.1706
 1140TIP3    H125055   3.728   0.832   2.413  0.5672 -0.2008  1.1571
 1140TIP3    H225056   3.661   0.697   2.394  0.9229 -0.2067 -0.1657
 1141TIP3   OH225057   1.723   1.992   1.239 -0.1584 -0.5835 -0.4994
 1141TIP3    H125058   1.804   2.037   1.262  1.1050 -1.0679 -3.5192
 1141TIP3    H225059   1.707   1.933   1.312  2.2436 -0.4769  0.2088
 1142TIP3   OH225060   5.104   4.776   0.498  0.0499  0.3308  0.0587
 1142TIP3    H125061   5.138   4.855   0.456  1.6636  0.5570  1.6526
 1142TIP3    H225062   5.009   4.780   0.482  0.2109  2.0171 -0.8025
 1143TIP3   OH225063   4.540   3.043   4.027 -0.7094 -0.3426  0.0161
 1143TIP3    H125064   4.519   2.971   4.087 -0.9614  0.2870  0.7028
 1143TIP3    H225065   4.466   3.103   4.035  0.0072  0.5263  0.2827
 1144TIP3   OH225066   3.146   5.450   0.181 -0.4141  0.2091  0.5398
 1144TIP3    H125067   3.181   5.361   0.177 -0.8172  0.0733 -0.0341
 1144TIP3    H225068   3.214   5.504   0.141 -0.8414 -0.0560 -0.5848
 1145TIP3   OH225069   3.426   3.642   0.139  0.1434  0.4782  0.0289
 1145TIP3    H125070   3.480   3.572   0.103  1.2414  1.5991 -0.5901
 1145TIP3    H225071   3.475   3.674   0.214 -0.9585 -0.2098  1.0856
 1146TIP3   OH225072   3.525   2.839   0.282  0.5278  0.6196  0.1588
 1146TIP3    H125073   3.514   2.836   0.187 -0.3303  0.4300  0.2577
 1146TIP3    H225074   3.546   2.930   0.301 -0.8621  1.0144 -0.0654
 1147TIP3   OH225075   0.154   3.905   2.892  0.1323 -0.2451  0.6712
 1147TIP3    H125076   0.178   3.817   2.863 -2.6841 -1.0194  0.3921
 1147TIP3    H225077   0.079   3.929   2.837  0.2614  1.9875  1.3616
 1148TIP3   OH225078   3.675   2.654   8.784 -0.3894  0.1621 -0.3525
 1148TIP3    H125079   3.669   2.615   8.697 -2.6470 -0.0359 -0.1654
 1148TIP3    H225080   3.610   2.725   8.783 -0.8261 -0.1606  1.3093
 1149TIP3   OH225081   5.301   6.546   0.432  0.1181  0.8199 -0.2838
 1149TIP3    H125082   5.245   6.470   0.418  0.5621  0.3412  0.4979
 1149TIP3    H225083   5.381   6.527   0.383  0.6353  0.3136  0.7337
 1150TIP3   OH225084   1.391   3.183   0.228 -0.1478 -0.8264  0.4425
 1150TIP3    H125085   1.434   3.099   0.242  0.9809 -0.8172 -2.3672
 1150TIP3    H225086   1.425   3.239   0.297  0.1137 -2.2868  1.5550
 1151TIP3   OH225087   3.618   0.369   4.136 -0.0244  0.2014 -0.0527
 1151TIP3    H125088   3.589   0.413   4.216  1.3581  1.4218 -0.1933
 1151TIP3    H225089   3.653   0.439   4.081  0.6483 -0.8571 -1.0085
 1152TIP3   OH225090   2.028   3.140   8.632  0.5365 -0.6559  0.1918
 1152TIP3    H125091   1.997   3.053   8.609  0.7459 -1.1634  1.7087
 1152TIP3    H225092   2.077   3.170   8.555  0.7112 -1.9974 -0.2364
 1153TIP3   OH225093   5.177   1.966   8.302  0.0389 -0.6061 -1.0670
 1153TIP3    H125094   5.264   2.005   8.305 -0.3471  0.2361  0.0196
 1153TIP3    H225095   5.117   2.040   8.310 -0.7101 -1.3707  1.5742
 1154TIP3   OH225096   3.254   0.160   3.196 -0.1386 -0.1329 -0.8628
 1154TIP3    H125097   3.294   0.224   3.255 -0.2111 -0.7525 -0.1209
 1154TIP3    H225098   3.323   0.096   3.179 -0.5764 -0.7996 -0.1824
 1155TIP3   OH225099   2.593   3.010   2.615 -0.0174  0.0804  0.1597
 1155TIP3    H125100   2.541   2.958   2.553  1.1315 -0.5925 -0.2685
 1155TIP3    H225101   2.591   3.099   2.579 -0.6449  0.0150  0.0112
 1156TIP3   OH225102   5.514   6.337   2.947 -0.4520 -0.3250  0.2402
 1156TIP3    H125103   5.549   6.251   2.971 -0.9199 -0.9031 -1.0662
 1156TIP3    H225104   5.422   6.334   2.974 -0.8046 -0.7311 -0.9373
 1157TIP3   OH225105   5.847   4.773   1.718  0.3748 -0.2077  0.3891
 1157TIP3    H125106   5.755   4.751   1.702 -0.1286  0.3650  2.2756
 1157TIP3    H225107   5.882   4.790   1.630 -1.9177  1.9016 -0.2540
 1158TIP3   OH225108   5.896   2.308   3.143 -0.6424 -0.4707 -0.0928
 1158TIP3    H125109   5.846   2.227   3.127 -1.7017  0.0358  0.5304
 1158TIP3    H225110   5.877   2.330   3.234  0.4078 -0.0304  0.0259
 1159TIP3   OH225111   5.821   6.690   1.171 -0.3909 -0.2069 -0.0058
 1159TIP3    H125112   5.778   6.614   1.131  0.7749 -0.5162 -0.7324
 1159TIP3    H225113   5.904   6.698   1.123  0.3380  0.3915  1.3146
 1160TIP3   OH225114   2.814   2.189   1.403 -0.4295 -0.1184 -0.0582
 1160TIP3    H125115   2.776   2.141   1.329  0.4713 -0.6637 -0.1775
 1160TIP3    H225116   2.768   2.273   1.403  0.1379  0.2378 -1.7919
 1161TIP3   OH225117   3.955   5.078   2.404 -0.1789 -0.0322 -0.3303
 1161TIP3    H125118   4.039   5.123   2.398 -0.2366 -0.0929 -2.0540
 1161TIP3    H225119   3.890   5.148   2.400 -0.2316 -0.0805 -0.3179
 1162TIP3   OH225120   1.685   0.733   3.818 -0.2584 -0.0147 -0.2574
 1162TIP3    H125121   1.625   0.805   3.837 -0.8858 -0.7994  0.8742
 1162TIP3    H225122   1.683   0.679   3.897  1.5637 -0.3395 -0.3869
 1163TIP3   OH225123   0.567   5.522   2.324 -0.4832 -0.2598  0.2141
 1163TIP3    H125124   0.596   5.584   2.257  0.3071  0.1669  0.9323
 1163TIP3    H225125   0.518   5.576   2.387  0.5929 -0.2471  1.0822
 1164TIP3   OH225126   2.050   4.612   8.625  0.6314  0.6448  0.1832
 1164TIP3    H125127   2.126   4.570   8.584 -0.6240  0.1773 -1.8416
 1164TIP3    H225128   2.064   4.706   8.611  1.6483  0.6874  1.3835
 1165TIP3   OH225129   5.961   4.670   0.733  0.5324  0.1389  0.5878
 1165TIP3    H125130   5.985   4.730   0.804  1.5026  1.5472 -0.8520
 1165TIP3    H225131   6.000   4.709   0.655 -0.3382 -1.4587 -0.7038
 1166TIP3   OH225132   2.784   2.552   8.201 -0.1797  0.1741  0.4189
 1166TIP3    H125133   2.767   2.634   8.155  2.0477  0.0222 -0.8349
 1166TIP3    H225134   2.701   2.504   8.196 -1.3919  2.1104  0.7726
 1167TIP3   OH225135   3.878   5.771   3.020  0.0949  0.0916  0.4228
 1167TIP3    H125136   3.816   5.700   3.036  1.0857 -1.2499 -1.2867
 1167TIP3    H225137   3.835   5.826   2.954  0.6399 -0.8361 -0.7603
 1168TIP3   OH225138   3.747   5.917   1.426  0.0452 -0.2808  0.2545
 1168TIP3    H125139   3.774   5.966   1.349 -2.0080 -0.9721 -0.9780
 1168TIP3    H225140   3.760   5.978   1.499  2.8680  0.0972 -0.4237
 1169TIP3   OH225141   4.770   3.554   3.227  0.3906  0.0508 -0.0151
 1169TIP3    H125142   4.862   3.572   3.247  1.1057 -1.0085 -2.0910
 1169TIP3    H225143   4.763   3.459   3.228 -0.6552  0.1180 -0.0744
 1170TIP3   OH225144   5.744   3.418   1.683 -0.4495  0.1622  0.1819
 1170TIP3    H125145   5.813   3.356   1.708 -1.2596 -0.3801  1.1945
 1170TIP3    H225146   5.731   3.471   1.762 -0.9161  0.5202 -0.1333
 1171TIP3   OH225147   4.049   1.698   8.571 -0.1271 -0.9337  0.1893
 1171TIP3    H125148   4.033   1.718   8.478  0.7875  0.5872  0.3135
 1171TIP3    H225149   3.965   1.666   8.603 -1.1047  0.5972 -0.6753
 1172TIP3   OH225150   0.013   0.653   2.477 -0.5675 -0.0601 -0.1386
 1172TIP3    H125151   0.094   0.695   2.448  0.0505 -0.3234  1.1334
 1172TIP3    H225152  -0.023   0.612   2.398 -0.0896  1.0579 -0.9631
 1173TIP3   OH225153   3.684   2.658   0.714 -0.0643 -0.1581  0.5047
 1173TIP3    H125154   3.711   2.668   0.623 -0.6742  1.0250  0.4343
 1173TIP3    H225155   3.589   2.651   0.711  0.0661 -2.9516  0.8592
 1174TIP3   OH225156   4.004   3.390   0.027  0.5725 -0.1144 -0.7503
 1174TIP3    H125157   4.057   3.433  -0.040  0.6375  0.0372 -0.6020
 1174TIP3    H225158   4.050   3.307   0.044  1.2944  0.4214  0.0504
 1175TIP3   OH225159   5.802   5.548   2.761  0.6211  0.3672  0.1102
 1175TIP3    H125160   5.727   5.520   2.812  0.0124  1.0991 -0.3506
 1175TIP3    H225161   5.768   5.558   2.672  1.4316  0.0355 -0.2531
 1176TIP3   OH225162   3.106   5.063   1.579 -0.7327  0.1599  0.4156
 1176TIP3    H125163   3.159   5.001   1.527 -0.0009  0.0098  1.3242
 1176TIP3    H225164   3.159   5.082   1.655 -0.8051  2.2114 -0.0071
 1177TIP3   OH225165   6.284   5.368   3.148  0.7711  0.4637  0.4087
 1177TIP3    H125166   6.348   5.427   3.187  0.7671  0.7951 -0.0769
 1177TIP3    H225167   6.202   5.387   3.195  1.2101 -0.5923  1.6476
 1178TIP3   OH225168   0.720   6.718   1.298 -0.2177  0.5806 -0.1355
 1178TIP3    H125169   0.790   6.681   1.244 -1.2225  1.8797 -2.5174
 1178TIP3    H225170   0.764   6.780   1.355  0.9501 -1.1784  0.9889
 1179TIP3   OH225171   5.597   4.900   1.430 -0.2638  0.0064  0.0502
 1179TIP3    H125172   5.603   4.961   1.504  2.4410  0.2244 -0.2393
 1179TIP3    H225173   5.646   4.944   1.360 -0.4410 -1.4148 -0.9985
 1180TIP3   OH225174   2.269   6.541   0.523 -0.0417  0.0392 -0.0144
 1180TIP3    H125175   2.259   6.450   0.494 -0.6269  0.1583 -0.1999
 1180TIP3    H225176   2.237   6.593   0.450  2.5139  0.5018 -0.8905
 1181TIP3   OH225177   5.478   1.626   3.865 -0.1386 -0.1457 -0.2767
 1181TIP3    H125178   5.441   1.586   3.944  0.3742  0.3664  0.2338
 1181TIP3    H225179   5.501   1.552   3.810  2.0115 -0.6675  1.1987
 1182TIP3   OH225180   4.268   4.894   2.573  0.3309 -0.2321 -0.3307
 1182TIP3    H125181   4.209   4.850   2.512 -1.2987  0.8612  0.3894
 1182TIP3    H225182   4.239   4.866   2.660  0.7775  0.4282  0.0474
 1183TIP3   OH225183   1.668   4.926   2.690  0.1993  0.7669  0.8985
 1183TIP3    H125184   1.624   4.996   2.739  0.4614  0.9899  0.8143
 1183TIP3    H225185   1.697   4.967   2.609 -2.1963 -0.0951 -0.5153
 1184TIP3   OH225186   1.201   1.719   3.952 -0.0035 -0.7033 -0.5789
 1184TIP3    H125187   1.170   1.629   3.948 -0.0175 -0.7902  0.7581
 1184TIP3    H225188   1.296   1.712   3.957  0.0491 -0.5968 -1.3902
 1185TIP3   OH225189   2.412   1.025   0.479 -0.4092 -0.2685 -0.4118
 1185TIP3    H125190   2.455   1.066   0.403 -0.9854  3.8134  1.1732
 1185TIP3    H225191   2.484   1.001   0.537 -0.0142  1.0766 -0.2923
 1186TIP3   OH225192   1.921   0.869   2.312  0.4685 -0.1359 -0.1356
 1186TIP3    H125193   1.867   0.888   2.388 -0.3923 -2.2739 -0.1443
 1186TIP3    H225194   1.967   0.788   2.334  2.1295  0.5281 -0.9456
 1187TIP3   OH225195   6.140   0.310   0.603  0.1141 -0.3325 -0.0944
 1187TIP3    H125196   6.179   0.250   0.540 -2.0619 -1.2386 -0.6698
 1187TIP3    H225197   6.166   0.276   0.688  0.3826 -1.0131 -0.4415
 1188TIP3   OH225198   0.650   3.356   2.664  0.1780 -0.0003  0.2089
 1188TIP3    H125199   0.622   3.293   2.598 -1.7529  0.5178  0.4890
 1188TIP3    H225200   0.726   3.399   2.625 -0.6475 -0.0206 -1.4900
 1189TIP3   OH225201   3.656   1.442   0.302 -0.2346 -0.1561 -0.2025
 1189TIP3    H125202   3.565   1.417   0.315 -0.4734  0.2587 -0.9852
 1189TIP3    H225203   3.672   1.510   0.367 -0.2420 -0.7754  0.4557
 1190TIP3   OH225204   3.213   4.551   1.253  0.2785  0.3388 -0.3379
 1190TIP3    H125205   3.196   4.601   1.332 -0.6908 -1.0895  0.3938
 1190TIP3    H225206   3.308   4.559   1.239  0.2714  1.5718  0.2815
 1191TIP3   OH225207   3.061   6.649   0.689  0.1993 -0.5748 -0.6989
 1191TIP3    H125208   3.132   6.680   0.744 -0.9231  0.5214  0.1698
 1191TIP3    H225209   3.031   6.568   0.731  0.2482 -0.4788 -0.4809
 1192TIP3   OH225210   1.803   5.986   0.271 -0.0025  0.4615  0.2551
 1192TIP3    H125211   1.721   6.023   0.238 -0.0280 -0.7172 -1.1257
 1192TIP3    H225212   1.822   6.036   0.350 -0.7957  2.3689 -0.6871
 1193TIP3   OH225213   4.210   4.626   1.583  0.2720  0.0876  0.5155
 1193TIP3    H125214   4.298   4.636   1.547  0.6685  1.9336  1.8209
 1193TIP3    H225215   4.200   4.532   1.597  1.0204 -0.4529 -1.9841
 1194TIP3   OH225216   6.261   4.057   1.435  0.8056 -0.0238  0.2173
 1194TIP3    H125217   6.287   3.968   1.410  0.6135  0.3322 -1.2969
 1194TIP3    H225218   6.336   4.091   1.484  1.4894 -0.5015 -0.4760
 1195TIP3   OH225219   6.146   2.938   0.667 -0.1207 -0.5400 -0.4945
 1195TIP3    H125220   6.123   2.880   0.594 -1.0026 -1.1009  0.2013
 1195TIP3    H225221   6.110   2.894   0.744  1.2954 -0.2484  0.3671
 1196TIP3   OH225222   0.277   5.374   1.901  0.1657  0.2290 -0.0303
 1196TIP3    H125223   0.313   5.309   1.961 -0.6839 -0.9913 -0.8015
 1196TIP3    H225224   0.290   5.458   1.946 -0.2756 -0.6240  1.7641
 1197TIP3   OH225225   3.788   5.989   3.176  0.1222  0.3897 -0.0236
 1197TIP3    H125226   3.779   5.965   3.084  0.9493 -1.6343  0.3637
 1197TIP3    H225227   3.710   6.042   3.195 -0.2255  0.5667 -1.7822
 1198TIP3   OH225228   1.378   1.567   1.175  0.4337  0.4111 -0.1834
 1198TIP3    H125229   1.350   1.557   1.084  1.2430  0.0081 -0.3895
 1198TIP3    H225230   1.365   1.660   1.193  1.6473  0.8101 -1.1872
 1199TIP3   OH225231   4.737   6.463   2.368  0.2415 -0.1112 -0.2235
 1199TIP3    H125232   4.795   6.423   2.434  0.1765  0.9304  0.5025
 1199TIP3    H225233   4.701   6.540   2.413  0.5515  0.8875 -1.6308
 1200TIP3   OH225234   4.982   2.259   2.243 -0.2273 -0.3402  0.0298
 1200TIP3    H125235   5.034   2.306   2.178  0.0750 -0.9307 -0.1639
 1200TIP3    H225236   4.918   2.210   2.192  0.8513 -1.8469  0.0658
 1201TIP3   OH225237   4.214   6.147   3.290  0.2337  0.2872 -0.2940
 1201TIP3    H125238   4.156   6.077   3.319  0.6322 -0.0788 -0.3556
 1201TIP3    H225239   4.161   6.226   3.293  0.2751  0.2925  1.5503
 1202TIP3   OH225240   5.699   2.867   1.450  0.1947  0.2951 -1.2022
 1202TIP3    H125241   5.614   2.909   1.458  0.1201 -0.1196  0.5783
 1202TIP3    H225242   5.762   2.939   1.453 -0.0436  0.5764 -2.2410
 1203TIP3   OH225243   5.549   5.550   2.250 -0.8992  0.8059  0.0849
 1203TIP3    H125244   5.575   5.501   2.171  0.1096 -1.1311  1.5379
 1203TIP3    H225245   5.454   5.545   2.251 -0.8294 -2.1133  0.6780
 1204TIP3   OH225246   1.525   3.916   0.058 -0.4658  0.0967  0.3533
 1204TIP3    H125247   1.605   3.949   0.016  1.0156  0.0738  2.9985
 1204TIP3    H225248   1.488   3.992   0.102 -0.7944 -0.3347  0.8278
 1205TIP3   OH225249   2.206   4.344   1.590 -0.1056 -0.1741  0.2334
 1205TIP3    H125250   2.148   4.320   1.518  0.8974 -1.1998 -0.2660
 1205TIP3    H225251   2.147   4.380   1.657 -0.9773  1.6439 -1.3969
 1206TIP3   OH225252   6.335   4.344   0.114 -0.3377 -0.2383 -0.1781
 1206TIP3    H125253   6.264   4.298   0.070 -0.2794  0.8953 -1.5360
 1206TIP3    H225254   6.297   4.375   0.195 -1.6285  0.9357 -1.1942
 1207TIP3   OH225255   4.331   5.220   0.180 -0.6646  0.4368 -0.5059
 1207TIP3    H125256   4.275   5.298   0.190 -2.7487 -0.5993 -2.7824
 1207TIP3    H225257   4.276   5.148   0.210 -0.4702 -0.5826 -2.4714
 1208TIP3   OH225258   4.252   5.219   1.964  0.1672 -0.3265  0.8066
 1208TIP3    H125259   4.232   5.285   1.896  1.8502  0.4883  1.0574
 1208TIP3    H225260   4.230   5.263   2.046 -1.3009 -1.0994  0.8561
 1209TIP3   OH225261   3.297   3.027   1.624 -0.8787 -0.2714  0.3375
 1209TIP3    H125262   3.300   2.991   1.713 -1.7696  0.5993  0.7365
 1209TIP3    H225263   3.347   3.109   1.629 -1.4806  0.1071  0.1984
 1210TIP3   OH225264   3.399   5.979   1.331  0.0349 -0.2024  0.3621
 1210TIP3    H125265   3.479   6.014   1.292  0.5150  0.2435  1.6701
 1210TIP3    H225266   3.408   5.998   1.425 -0.9660 -1.3839  0.7330
 1211TIP3   OH225267   6.206   4.015   2.391  0.5053 -0.6593  0.4038
 1211TIP3    H125268   6.177   3.964   2.315 -0.4532 -0.1578  0.4248
 1211TIP3    H225269   6.176   4.104   2.373 -1.1586 -0.8199  2.0753
 1212TIP3   OH225270   0.829   0.083   1.466  1.0140 -0.4438 -0.4884
 1212TIP3    H125271   0.922   0.061   1.461  1.7005  1.7335  1.0990
 1212TIP3    H225272   0.815   0.142   1.392  1.3075  0.4584  0.1627
 1213TIP3   OH225273   1.935   6.727   8.519  0.3919  0.4827 -0.2128
 1213TIP3    H125274   1.957   6.819   8.501  1.7342  0.0012 -1.2447
 1213TIP3    H225275   2.017   6.690   8.553 -0.2867 -0.2196  0.6852
 1214TIP3   OH225276   4.157   1.847   2.024  0.6179 -0.6923  0.0054
 1214TIP3    H125277   4.132   1.756   2.005 -0.3600 -0.2653 -0.8835
 1214TIP3    H225278   4.102   1.899   1.965 -0.2360  0.5926  1.8685
 1215TIP3   OH225279   4.511   4.107   3.242 -0.1341 -0.5040  0.2348
 1215TIP3    H125280   4.466   4.186   3.213 -1.6470 -0.4254  2.5076
 1215TIP3    H225281   4.601   4.118   3.211 -0.4719  1.7825 -0.1199
 1216TIP3   OH225282   4.484   0.007   0.600  0.4969  0.0269  0.0228
 1216TIP3    H125283   4.542   0.080   0.582  1.6429 -1.2527 -1.8324
 1216TIP3    H225284   4.458  -0.025   0.514 -0.5760 -1.2741  0.7920
 1217TIP3   OH225285   2.026   1.001   3.764  0.1591 -0.1446 -0.0556
 1217TIP3    H125286   2.001   1.094   3.764 -1.9143 -0.6373 -0.5558
 1217TIP3    H225287   1.996   0.969   3.849 -1.2114 -0.8166 -0.7642
 1218TIP3   OH225288   6.010   2.906   3.961 -0.1696  0.3308  0.2755
 1218TIP3    H125289   6.008   2.975   3.895  0.4108  0.1420  0.0553
 1218TIP3    H225290   5.983   2.827   3.914  1.1333  0.0126  0.0235
 1219TIP3   OH225291   1.901   5.343   8.070 -0.0896  0.0471  0.4139
 1219TIP3    H125292   1.860   5.425   8.097 -2.5966 -1.1130  0.4612
 1219TIP3    H225293   1.907   5.349   7.975  1.6858  1.0794  0.5576
 1220TIP3   OH225294   0.843   6.347   8.070  0.2109  0.2620 -0.0960
 1220TIP3    H125295   0.753   6.359   8.038 -0.0214 -1.1093 -0.0256
 1220TIP3    H225296   0.880   6.281   8.012  1.6809  1.8305 -1.0311
 1221TIP3   OH225297   0.813   1.019   2.648 -0.7343  0.0971  0.1468
 1221TIP3    H125298   0.779   1.028   2.737 -1.2918  3.1346 -0.2786
 1221TIP3    H225299   0.907   1.012   2.658 -0.9335 -2.3318  1.0362
 1222TIP3   OH225300   1.978   6.083   1.867 -0.0432 -0.0856 -0.0067
 1222TIP3    H125301   1.999   6.118   1.780 -4.2048 -1.2252 -1.6964
 1222TIP3    H225302   1.889   6.049   1.858 -0.1150 -1.5941  4.3753
 1223TIP3   OH225303   1.412   5.306   1.123  0.2022  0.0364  0.4899
 1223TIP3    H125304   1.469   5.288   1.049 -0.7059 -1.3404  0.0732
 1223TIP3    H225305   1.466   5.291   1.200  0.8348  0.3502  0.1141
 1224TIP3   OH225306   6.817   0.356   1.964  0.0043 -0.0959  0.2091
 1224TIP3    H125307   6.904   0.329   1.993 -0.6099  0.0067  2.2960
 1224TIP3    H225308   6.756   0.307   2.019 -1.2480  0.5274 -0.5598
 1225TIP3   OH225309   2.311   0.354   0.737  0.2835 -0.3553  0.0539
 1225TIP3    H125310   2.233   0.410   0.744  0.3005 -0.2041 -0.8672
 1225TIP3    H225311   2.305   0.296   0.813  0.1347  0.7273  0.8952
 1226TIP3   OH225312   0.409   3.552   1.678  0.2071  0.2361 -0.3151
 1226TIP3    H125313   0.476   3.500   1.633 -0.3034 -1.0599  0.3772
 1226TIP3    H225314   0.330   3.498   1.674 -0.6011  1.3969 -0.4097
 1227TIP3   OH225315   0.204   1.169   2.833 -0.2432 -0.2790 -0.2555
 1227TIP3    H125316   0.267   1.100   2.814  0.0275 -0.1047 -0.0227
 1227TIP3    H225317   0.143   1.129   2.895 -0.4562 -0.4989 -0.6096
 1228TIP3   OH225318   0.469   3.285   1.558  0.1194  0.4868 -0.0045
 1228TIP3    H125319   0.396   3.276   1.619 -0.7063 -2.0777 -1.2577
 1228TIP3    H225320   0.547   3.280   1.614 -0.5810  2.2005  1.2262
 1229TIP3   OH225321   2.718   2.989   2.962  0.4750  0.2574  0.1183
 1229TIP3    H125322   2.683   3.077   2.948 -0.3500 -0.1872 -0.7801
 1229TIP3    H225323   2.789   3.001   3.024  0.5119  1.5882 -0.1434
 1230TIP3   OH225324   0.213   4.531   0.258 -1.1032 -0.3998  0.6782
 1230TIP3    H125325   0.217   4.444   0.299 -0.3311 -0.4480  0.5087
 1230TIP3    H225326   0.209   4.592   0.331  0.7622 -0.4559  0.8736
 1231TIP3   OH225327   0.635   1.291   2.700 -0.0946  0.4152 -0.0562
 1231TIP3    H125328   0.686   1.216   2.729  0.6512  0.5056 -1.0669
 1231TIP3    H225329   0.635   1.284   2.604 -0.1249  1.6150 -0.1605
 1232TIP3   OH225330   1.931   0.311   3.211 -0.2106 -0.0715 -0.2704
 1232TIP3    H125331   1.847   0.281   3.244 -0.0867  0.5678  0.6795
 1232TIP3    H225332   1.942   0.267   3.127 -1.2573 -0.5458 -0.1655
 1233TIP3   OH225333   2.585   1.105   8.268  0.6142  0.4371 -1.2708
 1233TIP3    H125334   2.559   1.013   8.274  1.6779  0.1286 -1.2887
 1233TIP3    H225335   2.503   1.152   8.250 -0.0565 -0.4134 -0.5225
 1234TIP3   OH225336   3.141   6.414   2.020  0.5159 -0.7294 -0.2151
 1234TIP3    H125337   3.181   6.479   2.077 -0.0927 -1.7555  1.4378
 1234TIP3    H225338   3.114   6.463   1.942  2.7446  0.4246 -0.3314
 1235TIP3   OH225339   0.573   2.429   1.915 -0.2672 -0.4289  0.3521
 1235TIP3    H125340   0.542   2.513   1.881  2.5601  0.5886  0.0445
 1235TIP3    H225341   0.600   2.380   1.838 -2.2793 -1.8651  0.4948
 1236TIP3   OH225342   3.599   1.698   1.113 -0.2242 -0.4844 -0.3444
 1236TIP3    H125343   3.568   1.696   1.022  0.3259 -0.1723 -0.5421
 1236TIP3    H225344   3.554   1.774   1.151  1.1418  0.6843 -0.9571
 1237TIP3   OH225345   3.659   6.567   2.806 -0.1972 -0.0892  0.0588
 1237TIP3    H125346   3.611   6.634   2.856 -0.3416  0.7028 -1.0964
 1237TIP3    H225347   3.639   6.485   2.851 -1.1892  0.4627  0.6733
 1238TIP3   OH225348   1.521   2.774   0.853  0.5591 -0.0227 -0.0692
 1238TIP3    H125349   1.595   2.741   0.904 -0.6992  0.0648  1.8946
 1238TIP3    H225350   1.457   2.804   0.918 -1.0293  0.3432 -1.6987
 1239TIP3   OH225351   4.946   5.019   8.622 -0.2396  0.0296 -0.2011
 1239TIP3    H125352   4.912   4.930   8.610 -2.5609  0.9465 -1.1402
 1239TIP3    H225353   4.976   5.045   8.535 -0.7654  0.6004 -0.2183
 1240TIP3   OH225354   5.817   5.423   2.303 -0.5087 -0.4428  0.1238
 1240TIP3    H125355   5.788   5.512   2.324  0.2941 -0.8757  3.7191
 1240TIP3    H225356   5.912   5.431   2.289 -0.5364 -0.6537 -0.2091
 1241TIP3   OH225357   3.044   3.255   3.079 -0.0435  0.2162 -0.1999
 1241TIP3    H125358   3.139   3.247   3.089  0.2062  0.7097 -1.8049
 1241TIP3    H225359   3.028   3.231   2.987 -1.3325  1.1398 -0.2406
 1242TIP3   OH225360   0.634   3.672   0.246 -0.3668 -0.5145  0.6410
 1242TIP3    H125361   0.668   3.590   0.283 -2.0444 -1.7589 -0.4061
 1242TIP3    H225362   0.566   3.644   0.184 -2.9972  1.7468  2.2895
 1243TIP3   OH225363   4.100   4.971   0.553  0.2392 -0.2162 -0.5483
 1243TIP3    H125364   4.168   4.994   0.490  1.6356 -1.4219  0.4677
 1243TIP3    H225365   4.144   4.917   0.619 -1.5849 -0.6076  0.4356
 1244TIP3   OH225366   4.117   3.039   3.615 -0.1246 -0.1399 -0.2314
 1244TIP3    H125367   4.135   3.072   3.703  0.6469 -1.5076  0.1660
 1244TIP3    H225368   4.024   3.017   3.617 -0.2284  0.3158  0.0755
 1245TIP3   OH225369   3.971   5.968   0.645  0.2953  0.1062  0.4688
 1245TIP3    H125370   4.037   6.023   0.603 -0.8849  0.9805 -0.2908
 1245TIP3    H225371   3.898   6.026   0.661 -0.3840 -0.8907  1.1260
 1246TIP3   OH225372   0.197   2.590   1.991  0.5215 -0.3204 -0.0951
 1246TIP3    H125373   0.221   2.678   2.021 -0.2875  0.3397 -1.3295
 1246TIP3    H225374   0.193   2.597   1.896 -1.7456 -1.1150 -0.0983
 1247TIP3   OH225375   0.935   6.040   2.270 -0.3386  0.2912 -0.0305
 1247TIP3    H125376   0.889   6.123   2.279 -0.7167  0.1140 -0.3270
 1247TIP3    H225377   1.026   6.065   2.254 -0.2313  0.6375  1.0183
 1248TIP3   OH225378   4.451   6.005   1.596 -0.4186 -0.3673  0.1390
 1248TIP3    H125379   4.479   6.094   1.578  1.1116  0.2065  4.2758
 1248TIP3    H225380   4.518   5.950   1.555  0.0339  0.4893 -0.2919
 1249TIP3   OH225381   3.695   5.956   0.815  0.0680  0.5535 -0.2737
 1249TIP3    H125382   3.764   5.923   0.873 -0.9765 -0.8199  0.2510
 1249TIP3    H225383   3.640   5.879   0.798 -2.3215  1.9522  0.7315
 1250TIP3   OH225384   0.806   1.617   1.531 -0.0112  0.0534  0.7193
 1250TIP3    H125385   0.832   1.606   1.622 -0.7689  1.1108  1.0727
 1250TIP3    H225386   0.767   1.532   1.507  0.6598 -0.3994  1.2088
 1251TIP3   OH225387   1.687   0.953   2.935  0.5431 -0.0472 -0.1167
 1251TIP3    H125388   1.733   0.974   2.854 -0.6835  1.4070 -0.4809
 1251TIP3    H225389   1.602   0.919   2.906  0.1397  0.3751  0.5441
 1252TIP3   OH225390   4.723   3.450   3.933  0.6536 -0.7286 -0.5035
 1252TIP3    H125391   4.801   3.499   3.957  0.2088  0.2736 -1.0103
 1252TIP3    H225392   4.726   3.371   3.986  1.0037  0.2150  0.9401
 1253TIP3   OH225393   4.033   6.150   1.107 -0.5563  0.5560  0.4666
 1253TIP3    H125394   4.063   6.232   1.066  0.0560  0.8352  1.4348
 1253TIP3    H225395   4.022   6.090   1.034  1.9646  0.5848 -0.0437
 1254TIP3   OH225396   3.654   3.386   0.438  0.2174 -0.5882  0.9441
 1254TIP3    H125397   3.688   3.476   0.440  0.1171 -0.4704 -1.0486
 1254TIP3    H225398   3.723   3.335   0.396 -0.4070 -1.1292  0.5577
 1255TIP3   OH225399   2.626   0.006   0.786 -0.0513 -0.6117  0.2753
 1255TIP3    H125400   2.557   0.024   0.722  0.8673  0.0378 -0.5454
 1255TIP3    H225401   2.707   0.036   0.745  0.5554 -0.0829  1.7694
 1256TIP3   OH225402   2.653   2.265   3.628  0.0110 -0.6153  0.3412
 1256TIP3    H125403   2.728   2.206   3.632  0.9137  0.3275 -1.5140
 1256TIP3    H225404   2.691   2.352   3.639 -0.9427 -0.1856  0.3341
 1257TIP3   OH225405   1.799   6.228   3.848  0.2639  0.3395  0.0022
 1257TIP3    H125406   1.888   6.226   3.883  1.2007  0.4322 -2.1980
 1257TIP3    H225407   1.773   6.136   3.842  1.0997  0.1678 -1.3596
 1258TIP3   OH225408   6.757   3.224   8.369  0.1583  0.1466 -0.2400
 1258TIP3    H125409   6.844   3.233   8.407  0.0403 -0.9650  0.3285
 1258TIP3    H225410   6.734   3.132   8.382  0.3831 -0.4932 -3.6733
 1259TIP3   OH225411   6.447   0.863   0.945  0.0870 -0.0574  0.1357
 1259TIP3    H125412   6.363   0.847   0.901  0.0862  1.8934 -0.6708
 1259TIP3    H225413   6.503   0.791   0.917 -1.4797 -1.8012  1.2375
 1260TIP3   OH225414   1.745   4.505   2.971  0.0366 -0.0672  0.0707
 1260TIP3    H125415   1.794   4.580   2.937 -0.7942  0.5180  0.1341
 1260TIP3    H225416   1.696   4.472   2.896 -0.6964  0.3459  0.3529
 1261TIP3   OH225417   3.903   2.457   1.564 -0.1068  0.5020 -0.2489
 1261TIP3    H125418   3.816   2.489   1.540 -0.5223 -0.9774 -0.8152
 1261TIP3    H225419   3.926   2.396   1.494  0.9751  0.1395  0.4023
 1262TIP3   OH225420   4.378   5.251   3.146  0.0275 -0.6638 -0.6047
 1262TIP3    H125421   4.373   5.263   3.051  1.1129 -2.1735 -0.8786
 1262TIP3    H225422   4.456   5.301   3.173 -2.5874  3.4625  0.2406
 1263TIP3   OH225423   1.434   2.300   0.119  0.1442 -0.3549  0.9711
 1263TIP3    H125424   1.439   2.207   0.142 -0.5052 -0.6776 -0.1032
 1263TIP3    H225425   1.470   2.304   0.030 -2.7543 -0.1475 -0.3172
 1264TIP3   OH225426   2.648   2.400   1.992  0.6042  0.5482  0.3000
 1264TIP3    H125427   2.734   2.420   1.956  1.1437 -1.2387  0.5014
 1264TIP3    H225428   2.617   2.326   1.941 -0.8811  1.2336  0.1592
 1265TIP3   OH225429   6.794   3.092   2.027  0.1938  0.6133  0.5718
 1265TIP3    H125430   6.863   3.056   1.971 -0.0255 -0.4712  0.9664
 1265TIP3    H225431   6.713   3.056   1.992 -0.0276  0.6280  1.0520
 1266TIP3   OH225432   2.028   5.290   2.372  0.0362  0.0766 -0.4663
 1266TIP3    H125433   1.944   5.269   2.413  1.3630 -2.1544  1.3555
 1266TIP3    H225434   2.040   5.223   2.305  1.0997 -0.7421  0.4968
 1267TIP3   OH225435   4.840   0.339   1.613 -0.0368 -0.4413  0.6456
 1267TIP3    H125436   4.846   0.255   1.659  0.3326  0.0006  1.4279
 1267TIP3    H225437   4.750   0.344   1.583  0.1028 -1.3937  0.0609
 1268TIP3   OH225438   1.718   3.588   4.030 -0.4263 -0.4913 -0.0798
 1268TIP3    H125439   1.670   3.517   4.072  1.1580 -1.3469  0.3796
 1268TIP3    H225440   1.666   3.666   4.048 -1.3670 -1.3005  0.8234
 1269TIP3   OH225441   6.063   2.056   3.461  0.1863 -0.3479 -0.3964
 1269TIP3    H125442   6.067   2.109   3.382 -0.6221 -1.0909 -0.9339
 1269TIP3    H225443   5.972   2.030   3.469  0.2720 -0.3644  0.7355
 1270TIP3   OH225444   0.202   2.088   0.778  1.2095  0.2647 -0.1697
 1270TIP3    H125445   0.176   2.109   0.688  0.0363 -2.4113 -0.5416
 1270TIP3    H225446   0.200   2.172   0.824 -1.3165  1.2585 -1.8725
 1271TIP3   OH225447   0.130   5.258   8.024  0.1995 -0.4981  0.7740
 1271TIP3    H125448   0.218   5.289   8.003  0.0821  0.6952  1.9268
 1271TIP3    H225449   0.143   5.167   8.053  1.0181 -0.3985  0.7420
 1272TIP3   OH225450   2.518   1.838   1.163 -0.1846 -0.1899  0.2635
 1272TIP3    H125451   2.504   1.811   1.073 -0.0105 -0.8425  0.4214
 1272TIP3    H225452   2.546   1.757   1.208 -1.0289 -0.0573  1.0629
 1273TIP3   OH225453   2.735   5.046   8.727  0.0601 -1.0997  0.0758
 1273TIP3    H125454   2.676   5.019   8.657 -0.7819  0.0840  0.2801
 1273TIP3    H225455   2.822   5.043   8.688 -0.2919 -1.4299 -0.7095
 1274TIP3   OH225456   2.643   0.869   2.587  0.0467 -0.0592  0.1668
 1274TIP3    H125457   2.620   0.946   2.535  1.7106  0.6364  0.4190
 1274TIP3    H225458   2.571   0.860   2.650 -0.4809  0.9011 -0.2845
 1275TIP3   OH225459   1.918   2.256   2.996  0.2782  0.4122  0.1541
 1275TIP3    H125460   2.003   2.239   2.955  0.1654 -1.5486  0.6470
 1275TIP3    H225461   1.936   2.257   3.090 -0.2843 -0.3389  0.2776
 1276TIP3   OH225462   5.381   0.405   3.479  0.0205 -0.5634  0.2854
 1276TIP3    H125463   5.403   0.419   3.572 -1.3463 -0.1556  0.5708
 1276TIP3    H225464   5.312   0.339   3.480 -0.2456 -0.3041 -0.4163
 1277TIP3   OH225465   1.752   0.879   0.853  0.2858 -0.9541 -0.5211
 1277TIP3    H125466   1.700   0.923   0.920  0.5624 -0.3773 -0.6795
 1277TIP3    H225467   1.799   0.810   0.901  1.3383  0.1608  0.1069
 1278TIP3   OH225468   0.554   0.243   1.353  1.1301 -0.0858 -0.1503
 1278TIP3    H125469   0.483   0.302   1.379 -0.1542 -1.4631 -0.3777
 1278TIP3    H225470   0.563   0.182   1.427  0.2728 -1.4997 -1.1711
 1279TIP3   OH225471   3.228   1.207   1.946  0.0178  0.0991 -0.1218
 1279TIP3    H125472   3.163   1.262   1.990 -0.5934  0.6752 -1.6579
 1279TIP3    H225473   3.194   1.118   1.957  0.5494  0.0834  1.6211
 1280TIP3   OH225474   4.956   0.878   2.538 -0.4607 -0.0714 -0.4378
 1280TIP3    H125475   4.879   0.863   2.592 -0.6192  0.9270 -0.3832
 1280TIP3    H225476   4.930   0.848   2.451 -1.0098  0.5261 -0.4830
 1281TIP3   OH225477   6.611   4.404   3.138 -0.3758 -0.2970 -0.2927
 1281TIP3    H125478   6.673   4.335   3.160 -1.9488 -1.5757  0.2840
 1281TIP3    H225479   6.607   4.459   3.217  1.8509  1.3013 -1.1932
 1282TIP3   OH225480   0.424   5.583   0.980  0.3886  0.0518 -0.5271
 1282TIP3    H125481   0.498   5.609   1.034 -0.4337  0.9582  0.1797
 1282TIP3    H225482   0.420   5.487   0.990 -1.5675  0.3598  3.5380
 1283TIP3   OH225483   5.914   5.797   2.783  0.4899  0.0338 -0.8114
 1283TIP3    H125484   5.986   5.767   2.838 -0.3328 -0.4279  0.0467
 1283TIP3    H225485   5.854   5.722   2.779  0.4671  0.1036 -2.2440
 1284TIP3   OH225486   0.749   3.486   1.499 -0.1595 -0.6952 -0.1190
 1284TIP3    H125487   0.800   3.561   1.528  0.2173 -0.7169 -0.7140
 1284TIP3    H225488   0.758   3.485   1.404 -0.3349 -1.3672 -0.1360
 1285TIP3   OH225489   6.808   4.060   1.166 -0.4651 -0.0689 -0.3628
 1285TIP3    H125490   6.814   3.990   1.231 -2.7059 -2.8332 -2.8692
 1285TIP3    H225491   6.715   4.082   1.162 -0.1883  1.0129 -1.6771
 1286TIP3   OH225492   2.289   0.443   2.389  0.0069  0.3068  0.5688
 1286TIP3    H125493   2.340   0.500   2.332  0.6279 -0.0677  0.7423
 1286TIP3    H225494   2.270   0.366   2.335 -1.6524  1.0584  0.0121
 1287TIP3   OH225495   0.809   5.818   1.538 -0.6369  0.1501  0.0512
 1287TIP3    H125496   0.839   5.821   1.447 -2.1753 -1.3447 -0.5460
 1287TIP3    H225497   0.890   5.815   1.589  0.2726 -1.4111 -1.3960
 1288TIP3   OH225498   2.666   2.177   2.578 -0.0872 -0.7203 -0.7025
 1288TIP3    H125499   2.703   2.216   2.657  0.9374 -1.4483 -0.8082
 1288TIP3    H225500   2.618   2.101   2.609 -0.6187 -0.3835 -0.6794
 1289TIP3   OH225501   6.055   4.874   3.178 -0.1471 -0.2569 -0.0218
 1289TIP3    H125502   6.062   4.928   3.099 -1.5194 -0.4463 -0.3015
 1289TIP3    H225503   5.968   4.835   3.172 -0.0239 -0.7687  1.2818
 1290TIP3   OH225504   3.605   0.618   0.429  0.8958 -0.5245 -0.1875
 1290TIP3    H125505   3.623   0.615   0.523  0.0669  1.4859  0.0806
 1290TIP3    H225506   3.689   0.601   0.388  2.1402  2.1711  0.9743
 1291TIP3   OH225507   4.022   1.315   1.117  0.0445 -0.1073  0.2106
 1291TIP3    H125508   3.956   1.372   1.077  0.8210  0.1077 -0.7913
 1291TIP3    H225509   4.094   1.314   1.054 -0.1541 -2.6381 -0.0862
 1292TIP3   OH225510   6.240   4.662   3.942  1.0529  0.3900  0.2500
 1292TIP3    H125511   6.157   4.632   3.979  1.1049  0.0539  0.1007
 1292TIP3    H225512   6.281   4.582   3.907  1.7752  0.4201  0.9841
 1293TIP3   OH225513   5.775   5.166   2.425  0.0391  0.4902  0.3906
 1293TIP3    H125514   5.792   5.254   2.392  1.2239  0.4305  0.8004
 1293TIP3    H225515   5.846   5.113   2.390 -1.3861 -0.6230 -0.9852
 1294TIP3   OH225516   3.462   3.198   3.288  0.0635  0.0010  0.1377
 1294TIP3    H125517   3.438   3.138   3.359 -0.5092 -2.5488 -2.0479
 1294TIP3    H225518   3.558   3.196   3.287  0.0820  0.2480  0.9698
 1295TIP3   OH225519   0.071   0.952   4.002 -0.4227 -0.1413  0.4474
 1295TIP3    H125520   0.002   0.969   3.938  0.5719 -1.5083 -1.0574
 1295TIP3    H225521   0.070   0.857   4.014  2.9413 -0.6283 -1.7930
 1296TIP3   OH225522   5.331   6.006   1.654 -0.3153 -0.4401  0.0710
 1296TIP3    H125523   5.408   6.040   1.608 -0.2127 -0.0961  0.4900
 1296TIP3    H225524   5.317   6.068   1.726 -2.0017  0.4553 -0.9787
 1297TIP3   OH225525   3.322   0.353   1.543  0.1754  0.4838 -0.3607
 1297TIP3    H125526   3.401   0.340   1.596  1.6605  4.4357 -1.2568
 1297TIP3    H225527   3.328   0.286   1.475  2.0356 -0.1519  0.3536
 1298TIP3   OH225528   3.370   0.179   1.308 -0.1398  0.1053 -0.0445
 1298TIP3    H125529   3.329   0.093   1.317  2.2749 -1.0405  1.1130
 1298TIP3    H225530   3.410   0.178   1.221 -0.5984  0.2993 -0.2596
 1299TIP3   OH225531   3.993   1.490   3.610  0.0822  0.3524  0.2538
 1299TIP3    H125532   3.975   1.513   3.701 -0.3965 -2.1581  0.8584
 1299TIP3    H225533   4.052   1.558   3.579  1.9291  0.1635  3.0810
 1300TIP3   OH225534   3.425   2.397   8.751 -0.0048  0.5778 -0.1168
 1300TIP3    H125535   3.335   2.385   8.782  1.1243  0.3803  3.6763
 1300TIP3    H225536   3.419   2.462   8.682 -2.8930  2.3463  1.6017
 1301TIP3   OH225537   5.403   1.482   3.530  0.0529  0.0620 -0.1772
 1301TIP3    H125538   5.465   1.452   3.597  0.0471 -0.2773 -0.3231
 1301TIP3    H225539   5.431   1.572   3.510 -0.7362  0.6540  1.2228
 1302TIP3   OH225540   1.684   5.765   8.645  0.0085  0.0448 -1.1029
 1302TIP3    H125541   1.629   5.793   8.718  0.3217 -0.9834 -0.4557
 1302TIP3    H225542   1.773   5.789   8.671  0.3082 -1.6741 -0.4385
 1303TIP3   OH225543   4.364   1.708   3.658 -0.5025 -0.1672 -0.5127
 1303TIP3    H125544   4.334   1.652   3.730  0.1947  1.2677  0.9653
 1303TIP3    H225545   4.286   1.726   3.607 -1.5397  0.7208  1.2835
 1304TIP3   OH225546   4.617   0.328   1.250 -0.2673 -0.1968 -0.1610
 1304TIP3    H125547   4.663   0.410   1.268  0.3929 -0.9510  1.7992
 1304TIP3    H225548   4.608   0.326   1.154 -2.4182  3.2521 -0.2155
 1305TIP3   OH225549   2.546   0.521   0.770  0.2770  0.6198  0.4265
 1305TIP3    H125550   2.602   0.459   0.816 -0.8833  0.5575  1.8324
 1305TIP3    H225551   2.457   0.487   0.784 -0.1101 -0.1793 -3.0508
 1306TIP3   OH225552   5.077   5.807   0.529  0.2877 -0.2092 -1.0008
 1306TIP3    H125553   5.099   5.817   0.622 -1.8272  0.3877 -0.5020
 1306TIP3    H225554   5.107   5.889   0.489  1.2781 -0.4998 -0.8858
 1307TIP3   OH225555   6.182   5.993   1.426 -0.3117 -0.2166  0.4623
 1307TIP3    H125556   6.151   6.073   1.384  0.6026 -0.2488 -0.2924
 1307TIP3    H225557   6.155   6.003   1.518 -0.7946  0.6492  0.2403
 1308TIP3   OH225558   6.126   0.291   1.633  0.6530  0.4677  0.3930
 1308TIP3    H125559   6.188   0.220   1.618  0.0237 -0.7314  2.8804
 1308TIP3    H225560   6.088   0.309   1.547  1.9828 -1.0846 -0.5833
 1309TIP3   OH225561   3.864   2.905   3.550  0.5386 -0.1759 -0.3077
 1309TIP3    H125562   3.854   2.864   3.636 -1.5905  1.0100  0.0930
 1309TIP3    H225563   3.868   2.832   3.488  0.1064 -1.0221  0.6346
 1310TIP3   OH225564   2.154   6.652   2.210  0.4239 -0.1374 -0.2212
 1310TIP3    H125565   2.233   6.690   2.249  0.9033 -0.5599 -0.7609
 1310TIP3    H225566   2.082   6.686   2.263  0.8031  1.7433 -0.8202
 1311TIP3   OH225567   0.181   3.182   1.048  0.5516 -0.1400 -0.0673
 1311TIP3    H125568   0.225   3.215   0.969  1.1137 -0.8244 -0.0525
 1311TIP3    H225569   0.089   3.178   1.024  0.6664  0.0440 -0.5582
 1312TIP3   OH225570   4.613   1.306   3.032  0.8268  0.3861 -0.3618
 1312TIP3    H125571   4.549   1.326   2.964 -2.6950 -2.4783  1.7441
 1312TIP3    H225572   4.629   1.389   3.076 -1.0880  1.3059 -1.3176
 1313TIP3   OH225573   0.034   5.314   1.978  0.4214 -0.2919 -0.5953
 1313TIP3    H125574   0.107   5.347   1.925  0.7239 -1.5069 -0.9616
 1313TIP3    H225575   0.008   5.232   1.935  0.6824 -1.3257  1.1384
 1314TIP3   OH225576   3.647   3.032   1.446 -0.6353 -0.0869  0.4874
 1314TIP3    H125577   3.586   2.971   1.487 -0.5416  0.0090  0.7754
 1314TIP3    H225578   3.687   2.982   1.375  0.1058 -0.6683  1.2822
 1315TIP3   OH225579   3.624   3.453   0.718  0.3692 -0.4925 -0.2618
 1315TIP3    H125580   3.608   3.417   0.630 -2.2089 -0.4392  0.1196
 1315TIP3    H225581   3.582   3.390   0.777  0.1096  0.6237  0.7698
 1316TIP3   OH225582   4.748   1.915   1.393 -0.2524  0.1541 -0.1340
 1316TIP3    H125583   4.760   1.827   1.357 -1.0761  0.2106 -0.5653
 1316TIP3    H225584   4.673   1.951   1.345 -0.3246  0.8547  0.4811
 1317TIP3   OH225585   4.852   4.481   0.016 -0.0572 -0.7509 -0.3662
 1317TIP3    H125586   4.787   4.550   0.027 -1.9246 -1.9412 -3.0541
 1317TIP3    H225587   4.936   4.526   0.026 -1.1267  0.9040  2.9434
 1318TIP3   OH225588   1.800   6.557   3.077 -0.0254 -0.3433  0.3941
 1318TIP3    H125589   1.757   6.589   2.998  1.4805  1.0747  0.0857
 1318TIP3    H225590   1.888   6.532   3.048  0.1686 -0.9310  1.4215
 1319TIP3   OH225591   4.270   3.114   0.937 -0.3953  0.1105 -0.0689
 1319TIP3    H125592   4.344   3.131   0.995 -0.2804 -1.5499  0.3231
 1319TIP3    H225593   4.277   3.021   0.915 -0.1122  0.7785 -3.2401
 1320TIP3   OH225594   4.740   0.821   2.691 -0.2983 -0.5842  0.2699
 1320TIP3    H125595   4.664   0.787   2.644  0.7093 -1.0035 -1.1246
 1320TIP3    H225596   4.736   0.778   2.777 -1.5761 -0.6648  0.1830
 1321TIP3   OH225597   5.664   0.222   8.461  0.1163  0.2784  0.3186
 1321TIP3    H125598   5.606   0.275   8.517 -2.1084 -0.0594 -1.5059
 1321TIP3    H225599   5.734   0.281   8.435  0.2131  0.9427  1.9830
 1322TIP3   OH225600   1.669   6.152   0.834 -0.2754  0.1674 -0.3466
 1322TIP3    H125601   1.689   6.058   0.837  0.1691  0.2390 -0.8850
 1322TIP3    H225602   1.723   6.190   0.903  0.3841  0.1648 -0.8468
 1323TIP3   OH225603   5.497   4.412   0.155 -0.8509  0.0798  0.1099
 1323TIP3    H125604   5.484   4.324   0.119 -0.9331  0.2490 -0.2772
 1323TIP3    H225605   5.425   4.464   0.119 -1.3764  0.0805  1.1106
 1324TIP3   OH225606   4.439   6.386   8.720  0.3744 -0.0365 -0.4967
 1324TIP3    H125607   4.520   6.339   8.738 -0.6787 -2.6445 -2.0785
 1324TIP3    H225608   4.406   6.411   8.807  1.3986 -1.5478  0.3706
 1325TIP3   OH225609   2.104   0.904   8.737 -0.0141 -0.6763  0.1227
 1325TIP3    H125610   2.078   0.970   8.800 -0.9451 -3.2775  2.6810
 1325TIP3    H225611   2.152   0.952   8.669 -1.6423  2.6921  1.1763
 1326TIP3   OH225612   6.424   2.143   2.091 -0.1682  0.3904  0.1784
 1326TIP3    H125613   6.476   2.213   2.051 -0.9336  0.8866  0.0192
 1326TIP3    H225614   6.338   2.150   2.049 -0.6186  0.1268  1.0217
 1327TIP3   OH225615   0.558   1.843   2.064 -0.0604 -0.1336 -0.5121
 1327TIP3    H125616   0.640   1.797   2.076  0.0368 -0.2442 -1.4922
 1327TIP3    H225617   0.508   1.826   2.143  0.5154 -0.7879 -0.2875
 1328TIP3   OH225618   5.788   0.926   2.616 -0.0276 -0.2495 -0.0624
 1328TIP3    H125619   5.764   0.846   2.662 -1.3794  0.1543 -0.0521
 1328TIP3    H225620   5.877   0.909   2.584 -0.1442 -1.5954  0.2891
 1329TIP3   OH225621   2.997   5.819   1.925  0.4626  0.0882  0.1104
 1329TIP3    H125622   2.976   5.735   1.885  0.9979 -0.2130  0.4515
 1329TIP3    H225623   3.029   5.796   2.013 -3.1525  0.8261  1.8130
 1330TIP3   OH225624   1.458   3.150   0.611 -0.3899 -0.4866  0.0195
 1330TIP3    H125625   1.432   3.112   0.695 -0.3519  0.7622  0.6343
 1330TIP3    H225626   1.375   3.175   0.570 -0.4391 -1.6055 -0.5784
 1331TIP3   OH225627   5.718   1.094   3.441 -0.2632  0.3042  0.1142
 1331TIP3    H125628   5.653   1.133   3.499  0.8678  1.3058  0.7540
 1331TIP3    H225629   5.797   1.147   3.455  0.0440  0.6170 -2.3609
 1332TIP3   OH225630   3.581   1.920   3.615  0.1407  0.8191  0.5334
 1332TIP3    H125631   3.599   1.883   3.528  1.5815  1.4685  0.5280
 1332TIP3    H225632   3.579   1.844   3.673 -1.5043  0.3026 -0.1357
 1333TIP3   OH225633   1.382   1.941   0.449  0.0295 -0.0971  0.2170
 1333TIP3    H125634   1.427   1.864   0.484 -0.0990 -0.2994 -0.0618
 1333TIP3    H225635   1.316   1.961   0.515  1.8426  1.4572  1.6664
 1334TIP3   OH225636   2.621   5.247   1.684  0.1434  0.2581 -0.0281
 1334TIP3    H125637   2.695   5.200   1.722 -0.1793 -0.5375 -0.3706
 1334TIP3    H225638   2.611   5.211   1.596  0.0419  1.1434 -0.3976
 1335TIP3   OH225639   2.809   0.706   3.838 -0.4709  0.3267  0.1259
 1335TIP3    H125640   2.817   0.678   3.929  0.6757  0.2883  0.0323
 1335TIP3    H225641   2.715   0.714   3.824 -0.8647 -2.6460  0.3953
 1336TIP3   OH225642   1.988   6.798   2.560  0.3099 -0.4832  0.6628
 1336TIP3    H125643   1.980   6.799   2.655 -1.0145 -1.7622  0.5963
 1336TIP3    H225644   2.062   6.740   2.542  0.6265 -0.1589  0.9122
 1337TIP3   OH225645   5.523   1.308   2.016  0.0451 -0.1693 -0.9594
 1337TIP3    H125646   5.616   1.330   2.019 -0.1073  0.4563 -0.3392
 1337TIP3    H225647   5.519   1.213   2.028  0.6159 -0.2337 -1.2884
 1338TIP3   OH225648   4.439   1.081   0.804  0.4430  0.5222  0.1776
 1338TIP3    H125649   4.362   1.029   0.827  0.6488 -0.3221 -0.9270
 1338TIP3    H225650   4.476   1.108   0.887  0.6879 -1.6580  0.8360
 1339TIP3   OH225651   3.350   5.437   0.458 -0.1568  0.1204  0.3671
 1339TIP3    H125652   3.411   5.363   0.449  0.1582  0.3022  0.9495
 1339TIP3    H225653   3.273   5.412   0.407  0.3122 -0.2196 -0.1803
 1340TIP3   OH225654   0.730   1.495   0.383  0.2527 -0.3541  0.2175
 1340TIP3    H125655   0.720   1.407   0.419 -0.6426 -0.2145  0.3368
 1340TIP3    H225656   0.708   1.486   0.290 -0.8283 -0.0844  0.4339
 1341TIP3   OH225657   6.818   3.597   3.002  0.3468 -0.0543  0.0705
 1341TIP3    H125658   6.863   3.569   2.922 -0.6198 -0.1360 -0.4625
 1341TIP3    H225659   6.780   3.516   3.037  0.4410  0.0433  0.3971
 1342TIP3   OH225660   3.864   6.211   4.470 -0.9469 -0.1548  0.5777
 1342TIP3    H125661   3.805   6.136   4.461  0.2511 -1.3292  2.1044
 1342TIP3    H225662   3.806   6.287   4.470 -2.3412 -1.1799  0.7001
 1343TIP3   OH225663   3.299   5.319   3.963 -0.0971 -0.2114  0.3970
 1343TIP3    H125664   3.334   5.233   3.983 -0.3275 -0.7179 -1.2084
 1343TIP3    H225665   3.309   5.369   4.044 -0.0493 -1.7588  1.3853
 1344TIP3   OH225666   1.218   6.624   8.584 -0.3528  0.2047 -0.1721
 1344TIP3    H125667   1.302   6.579   8.578  0.1251  1.1568 -0.9351
 1344TIP3    H225668   1.153   6.557   8.564  0.2290 -0.4940  0.2203
 1345TIP3   OH225669   1.184   5.712   1.140 -0.6090 -0.3121  0.1476
 1345TIP3    H125670   1.187   5.634   1.086 -0.2161 -1.0067  1.1380
 1345TIP3    H225671   1.211   5.682   1.227  0.9345  1.1798  0.2478
 1346TIP3   OH225672   4.491   1.842   3.370 -0.4830 -0.4766 -0.1976
 1346TIP3    H125673   4.534   1.817   3.452 -0.3498 -1.0282 -0.4345
 1346TIP3    H225674   4.561   1.878   3.316 -0.6402  0.2536  0.0721
 1347TIP3   OH225675   6.097   2.802   0.196  0.4976  0.3455  0.7930
 1347TIP3    H125676   6.169   2.822   0.137 -0.4611 -0.7815 -0.8230
 1347TIP3    H225677   6.020   2.838   0.153 -0.0286  0.9405  2.1722
 1348TIP3   OH225678   6.565   1.018   0.743 -0.2129 -0.0440  0.2996
 1348TIP3    H125679   6.530   0.978   0.822  1.4744 -0.2251  0.9928
 1348TIP3    H225680   6.644   1.064   0.771  0.4616 -0.1515 -1.2771
 1349TIP3   OH225681   0.234   0.160   1.974 -0.2607 -0.7101 -0.5663
 1349TIP3    H125682   0.259   0.246   2.007  0.2638 -0.1659 -2.3010
 1349TIP3    H225683   0.270   0.156   1.886  1.3817 -3.4496  0.0784
 1350TIP3   OH225684   6.621   0.134   1.190  0.3201 -0.3215  0.7360
 1350TIP3    H125685   6.707   0.159   1.157  0.1489 -0.4679  0.1603
 1350TIP3    H225686   6.636   0.109   1.281  1.0583 -1.3010  0.3623
 1351TIP3   OH225687   2.754   5.038   1.023 -0.0248 -0.6412 -0.6315
 1351TIP3    H125688   2.763   5.091   0.944  1.3641  0.1388  0.0217
 1351TIP3    H225689   2.744   4.949   0.991 -0.2386 -0.2581 -1.6956
 1352TIP3   OH225690   1.429   2.670   2.960 -0.1053  0.4488 -0.0381
 1352TIP3    H125691   1.455   2.608   2.892  0.0141  0.9862 -0.4924
 1352TIP3    H225692   1.361   2.624   3.010  2.6341 -1.5826  2.1306
 1353TIP3   OH225693   6.637   3.575   1.333  0.1111  0.0213 -0.2062
 1353TIP3    H125694   6.705   3.520   1.373 -0.9668 -0.4628  1.0626
 1353TIP3    H225695   6.594   3.517   1.270 -0.4085 -0.3181  0.4460
 1354TIP3   OH225696   1.812   3.156   3.455 -0.4541  0.4574 -0.0820
 1354TIP3    H125697   1.721   3.172   3.480 -0.1969  0.8913  0.6171
 1354TIP3    H225698   1.857   3.139   3.538  0.3061  1.3106 -0.2980
 1355TIP3   OH225699   2.625   1.906   0.744 -0.0257 -0.3211  0.9361
 1355TIP3    H125700   2.682   1.829   0.738 -0.6290 -0.8630  1.8724
 1355TIP3    H225701   2.609   1.931   0.653  4.1767  1.7748  0.5528
 1356TIP3   OH225702   6.112   3.299   4.418 -0.3032 -0.1004  0.2853
 1356TIP3    H125703   6.102   3.221   4.363 -1.6787  0.2722 -0.0153
 1356TIP3    H225704   6.193   3.340   4.387  0.3204 -1.2799  0.3074
 1357TIP3   OH225705   1.696   2.666   2.191  0.3025  0.1713  0.5752
 1357TIP3    H125706   1.705   2.662   2.287  0.7867  2.9280  0.7413
 1357TIP3    H225707   1.602   2.680   2.177  0.1601 -0.7133  0.5966
 1358TIP3   OH225708   3.863   1.367   1.792  0.4364 -0.0935  0.3898
 1358TIP3    H125709   3.911   1.295   1.834  1.2099 -1.9965 -3.3187
 1358TIP3    H225710   3.930   1.416   1.744 -0.7005 -0.0167 -1.1908
 1359TIP3   OH225711   5.788   1.452   1.190 -0.6106 -0.5989  0.2048
 1359TIP3    H125712   5.855   1.462   1.257 -1.2132 -1.9104  1.0555
 1359TIP3    H225713   5.803   1.364   1.154  0.6796  0.6498 -2.5296
 1360TIP3   OH225714   2.217   1.710   0.183  0.5902  0.1847 -0.2403
 1360TIP3    H125715   2.232   1.803   0.170  1.2856  0.1296  0.1248
 1360TIP3    H225716   2.148   1.705   0.249 -0.2389  0.4404 -1.0786
 1361TIP3   OH225717   3.005   5.902   2.227 -0.7048 -0.6585 -0.0539
 1361TIP3    H125718   3.086   5.910   2.277 -0.4484 -1.0402 -0.3987
 1361TIP3    H225719   2.974   5.992   2.216  0.0531 -0.4529 -0.5459
 1362TIP3   OH225720   2.035   1.007   7.814 -0.1998 -0.2031  0.0061
 1362TIP3    H125721   1.962   1.055   7.852  1.7107  1.6325  1.6228
 1362TIP3    H225722   2.112   1.036   7.864  1.6919 -1.8172 -1.7573
 1363TIP3   OH225723   5.793   1.244   0.784  0.6219 -0.8680  0.0750
 1363TIP3    H125724   5.816   1.337   0.779  3.9836 -1.6066 -0.6190
 1363TIP3    H225725   5.730   1.230   0.713  0.2056  0.7887  0.0729
 1364TIP3   OH225726   6.116   5.958   8.781 -0.2061 -0.1936  0.1903
 1364TIP3    H125727   6.180   5.899   8.742  0.1293  1.5133 -2.0771
 1364TIP3    H225728   6.031   5.919   8.761  0.0479 -0.8298  0.3517
 1365TIP3   OH225729   2.669   6.276   2.312  0.4607 -0.0456  0.5390
 1365TIP3    H125730   2.735   6.230   2.364  2.6069  2.0259 -0.1707
 1365TIP3    H225731   2.658   6.221   2.234  0.8856 -0.7410  0.9601
 1366TIP3   OH225732   6.163   4.886   1.266 -0.7027  0.5439 -0.6243
 1366TIP3    H125733   6.250   4.849   1.250 -1.7638 -1.8728 -1.1910
 1366TIP3    H225734   6.176   4.981   1.260  1.5995  0.2054 -2.2523
 1367TIP3   OH225735   4.674   0.120   8.681 -0.6864 -0.5545 -0.1834
 1367TIP3    H125736   4.706   0.176   8.611 -1.8862 -0.0242 -0.3275
 1367TIP3    H225737   4.637   0.180   8.746  1.7780 -0.9105  1.7116
 1368TIP3   OH225738   3.472   4.984   2.974  0.3264  0.9772 -0.3654
 1368TIP3    H125739   3.498   5.072   2.946  1.9038  0.3541 -0.9640
 1368TIP3    H225740   3.412   4.954   2.905  0.6050  1.1797 -0.6957
 1369TIP3   OH225741   3.533   5.205   8.740  0.2232 -0.0883  0.2279
 1369TIP3    H125742   3.614   5.254   8.758  0.7009 -0.3836 -1.0327
 1369TIP3    H225743   3.563   5.122   8.702 -0.6235 -0.9234  1.3136
 1370TIP3   OH225744   2.948   2.785   1.012 -0.0930  0.0296  0.2056
 1370TIP3    H125745   2.879   2.719   1.024  1.4184 -1.5229  0.6736
 1370TIP3    H225746   2.902   2.869   1.020 -2.2486 -0.9058 -1.3655
 1371TIP3   OH225747   1.830   3.337   8.708  0.1708 -0.3281 -0.3623
 1371TIP3    H125748   1.819   3.419   8.660  1.3817  0.9358  1.3892
 1371TIP3    H225749   1.900   3.291   8.662  2.1544  1.3990  0.7181
 1372TIP3   OH225750   5.433   3.203   2.122 -0.1223 -0.7012 -0.3994
 1372TIP3    H125751   5.362   3.140   2.132 -0.3229 -0.3469  0.5801
 1372TIP3    H225752   5.394   3.276   2.074  0.0356 -1.1949 -1.2888
 1373TIP3   OH225753   0.010   1.590   1.418 -0.0364  0.0428  0.0041
 1373TIP3    H125754  -0.075   1.615   1.455 -0.2826 -0.8030  0.0327
 1373TIP3    H225755  -0.010   1.517   1.359  0.4926  0.7184 -1.0350
 1374TIP3   OH225756   1.285   0.070   3.928 -0.2154 -0.4022  0.3292
 1374TIP3    H125757   1.379   0.086   3.920 -0.1349  0.2079  2.0940
 1374TIP3    H225758   1.274  -0.023   3.913  1.0227 -0.9589  2.5128
 1375TIP3   OH225759   2.194   2.253   8.567 -0.3696  0.0111 -0.0979
 1375TIP3    H125760   2.242   2.181   8.607 -3.2254 -0.6681  2.4969
 1375TIP3    H225761   2.138   2.210   8.502 -0.2980  0.2251 -0.2988
 1376TIP3   OH225762   3.293   5.573   2.327  0.1070  0.3084  0.3967
 1376TIP3    H125763   3.384   5.547   2.338  0.0845  0.7980  1.9014
 1376TIP3    H225764   3.293   5.621   2.244  0.8321 -1.2800 -0.5635
 1377TIP3   OH225765   2.980   0.171   2.394  0.2920  0.0480 -0.1762
 1377TIP3    H125766   3.048   0.151   2.460 -0.0464 -0.2076  0.0980
 1377TIP3    H225767   2.906   0.203   2.445  0.0602 -0.0615 -0.4406
 1378TIP3   OH225768   1.098   0.801   2.881 -0.2981  0.2280  1.3229
 1378TIP3    H125769   1.060   0.730   2.831  2.2140 -0.8902  0.8265
 1378TIP3    H225770   1.101   0.875   2.820  2.4087 -1.0154 -0.2491
 1379TIP3   OH225771   5.246   4.322   0.283 -0.0677  0.8454  0.4588
 1379TIP3    H125772   5.335   4.290   0.264 -0.6031  0.5495 -1.8591
 1379TIP3    H225773   5.206   4.252   0.334 -0.4450 -1.2887 -2.5161
 1380TIP3   OH225774   5.141   3.413   2.975  0.4086  0.1147  0.0537
 1380TIP3    H125775   5.095   3.383   2.897  0.2943  1.5531 -0.4501
 1380TIP3    H225776   5.164   3.504   2.957  0.7243  0.3628  1.5339
 1381TIP3   OH225777   5.397   4.122   2.501 -0.7913  0.1097  0.2002
 1381TIP3    H125778   5.378   4.212   2.529  0.1356  0.0778  0.9531
 1381TIP3    H225779   5.438   4.132   2.415 -2.2333  0.2939 -0.5035
 1382TIP3   OH225780   2.168   0.229   3.697  0.3204  0.5050  0.2598
 1382TIP3    H125781   2.248   0.261   3.656 -0.6821  1.6376 -0.9023
 1382TIP3    H225782   2.194   0.207   3.787  2.5674 -1.9504 -0.8544
 1383TIP3   OH225783   6.102   0.096   2.677  0.6072  0.4526 -0.0740
 1383TIP3    H125784   6.096   0.190   2.695 -0.3535  0.3118  0.3934
 1383TIP3    H225785   6.130   0.091   2.586 -2.2154  1.2189 -1.0789
 1384TIP3   OH225786   1.370   6.124   7.896 -0.3820  0.3803  0.5445
 1384TIP3    H125787   1.418   6.144   7.976  0.8273  1.2670 -0.3718
 1384TIP3    H225788   1.351   6.210   7.857 -0.3006 -0.0591 -0.4868
 1385TIP3   OH225789   3.008   4.224   2.726  0.0579 -0.4912  0.0071
 1385TIP3    H125790   3.071   4.289   2.758 -0.5717  0.0277  0.2139
 1385TIP3    H225791   2.930   4.275   2.703  0.1804 -0.9634 -1.5459
 1386TIP3   OH225792   3.968   6.427   8.303 -0.0338 -0.1246 -0.2920
 1386TIP3    H125793   3.880   6.453   8.328 -0.4496 -0.2991 -1.4846
 1386TIP3    H225794   3.958   6.390   8.215  0.7519 -2.9090  0.6615
 1387TIP3   OH225795   0.749   2.167   2.848  0.0514 -0.3764 -0.0122
 1387TIP3    H125796   0.814   2.175   2.779  0.0714  0.3498  0.0833
 1387TIP3    H225797   0.798   2.182   2.929 -0.5169  2.0241 -0.0376
 1388TIP3   OH225798   4.150   5.170   2.744 -0.1878  0.4119  0.5637
 1388TIP3    H125799   4.181   5.208   2.662 -2.0110  0.5532 -0.1040
 1388TIP3    H225800   4.128   5.079   2.722  1.3722 -0.2232  1.4542
 1389TIP3   OH225801   1.572   2.365   3.031 -0.1047  0.2766 -0.5861
 1389TIP3    H125802   1.664   2.344   3.042 -0.7620 -2.2379  1.0029
 1389TIP3    H225803   1.553   2.428   3.101  0.2075  0.1073 -0.3469
 1390TIP3   OH225804   1.549   5.758   0.106  0.1618  0.1107  0.2102
 1390TIP3    H125805   1.614   5.747   0.175 -0.0605  1.7231  0.7235
 1390TIP3    H225806   1.498   5.834   0.133 -1.8852 -1.0376 -0.2386
 1391TIP3   OH225807   5.791   5.733   0.721 -0.0725  0.0433  0.9458
 1391TIP3    H125808   5.747   5.734   0.806 -2.1317 -0.5225 -0.0333
 1391TIP3    H225809   5.870   5.786   0.734  0.0472 -0.6193  3.3573
 1392TIP3   OH225810   3.645   4.165   1.269 -0.2232 -0.0122 -0.0465
 1392TIP3    H125811   3.673   4.216   1.193  0.0870 -0.0397  0.0522
 1392TIP3    H225812   3.723   4.119   1.298  0.4766  2.3641  2.2023
 1393TIP3   OH225813   3.572   3.783   1.673 -0.3033  0.1427 -0.6185
 1393TIP3    H125814   3.664   3.758   1.670 -0.4175 -0.4265  0.2151
 1393TIP3    H225815   3.563   3.833   1.754 -1.0568 -1.2859  0.2221
 1394TIP3   OH225816   3.972   1.816   0.441 -0.1977  0.1419  0.0518
 1394TIP3    H125817   3.977   1.808   0.346  0.0118  0.2063  0.0557
 1394TIP3    H225818   4.062   1.798   0.471 -0.5698 -1.3706  0.3473
 1395TIP3   OH225819   3.761   0.944   3.749 -0.2687 -0.2445 -0.2227
 1395TIP3    H125820   3.738   0.944   3.842  0.1080  2.5057 -0.0710
 1395TIP3    H225821   3.808   0.861   3.737 -1.8076 -1.4689  1.6074
 1396TIP3   OH225822   2.860   1.258   1.132  0.5097 -0.2870 -0.0509
 1396TIP3    H125823   2.860   1.293   1.043  1.7561 -0.5036 -0.1627
 1396TIP3    H225824   2.924   1.312   1.179  0.5253 -0.7460  0.4668
 1397TIP3   OH225825   5.342   0.915   2.194  0.2246 -0.4572  0.4451
 1397TIP3    H125826   5.299   1.000   2.197  3.2212  1.3069 -1.1202
 1397TIP3    H225827   5.323   0.881   2.106  0.3190 -0.6647  0.5033
 1398TIP3   OH225828   2.271   3.276   1.454  0.1282 -0.0600 -0.4032
 1398TIP3    H125829   2.268   3.193   1.405  0.7632  0.5304 -1.4756
 1398TIP3    H225830   2.297   3.251   1.542 -0.0985 -1.0525 -0.6060
 1399TIP3   OH225831   3.268   5.272   2.979  0.8247  0.3194 -0.3138
 1399TIP3    H125832   3.194   5.308   3.029  0.4014 -1.2760  0.2644
 1399TIP3    H225833   3.232   5.250   2.894  0.8688  0.4262 -0.3607
 1400TIP3   OH225834   2.048   0.987   2.827  0.4194  0.3479 -0.1731
 1400TIP3    H125835   2.087   0.911   2.784 -1.1138 -1.3061  1.1785
 1400TIP3    H225836   2.059   0.970   2.920 -1.3223  0.9934  0.1883
 1401TIP3   OH225837   4.768   2.822   8.768  0.7034  0.3442  0.0202
 1401TIP3    H125838   4.833   2.752   8.776  0.2358 -0.3315 -1.6644
 1401TIP3    H225839   4.801   2.877   8.696 -0.7078 -0.1790 -1.0620
 1402TIP3   OH225840   0.365   5.415   0.081 -0.3968  0.4362 -0.5777
 1402TIP3    H125841   0.351   5.415  -0.013  0.1574  0.5800 -0.6612
 1402TIP3    H225842   0.434   5.480   0.095  1.1495 -1.1910 -0.3157
 1403TIP3   OH225843   0.771   6.086   2.863  0.4963  0.6429  0.6958
 1403TIP3    H125844   0.854   6.056   2.899 -0.0184  0.1651  1.5026
 1403TIP3    H225845   0.754   6.028   2.789  0.6771  0.4813  0.7818
 1404TIP3   OH225846   6.576   4.489   0.092 -0.0440  0.2591  0.4782
 1404TIP3    H125847   6.601   4.479  -0.000  0.1225 -0.8349  0.6322
 1404TIP3    H225848   6.487   4.455   0.097 -0.8460  2.2286  0.3419
 1405TIP3   OH225849   4.932   2.585   3.078  0.1952  0.4206 -0.5819
 1405TIP3    H125850   4.896   2.617   3.160  0.0519  1.0039 -0.8666
 1405TIP3    H225851   4.964   2.663   3.033  0.7953  0.0387 -0.8321
 1406TIP3   OH225852   5.221   6.117   3.482  0.4131  0.3962 -0.0115
 1406TIP3    H125853   5.203   6.101   3.390  0.6507 -0.2152  0.0444
 1406TIP3    H225854   5.312   6.092   3.494  0.7298  1.5769  0.1432
 1407TIP3   OH225855   2.859   2.444   3.410 -0.1219 -0.6515 -0.4706
 1407TIP3    H125856   2.949   2.418   3.392 -0.0331 -0.0056 -1.0148
 1407TIP3    H225857   2.866   2.505   3.484 -0.3030 -1.9294  0.6343
 1408TIP3   OH225858   1.560   3.646   0.088  0.3556 -0.2242 -0.0725
 1408TIP3    H125859   1.568   3.679   0.177 -0.1606 -0.4792  0.0725
 1408TIP3    H225860   1.550   3.725   0.034  0.1226 -0.0911  0.1613
 1409TIP3   OH225861   5.334   4.809   1.433 -0.5302 -0.2585  0.4605
 1409TIP3    H125862   5.349   4.715   1.435 -1.0285 -0.3609 -0.3686
 1409TIP3    H225863   5.421   4.848   1.439 -0.4129 -0.7319  2.4796
 1410TIP3   OH225864   6.202   0.751   1.296  0.3020  0.0968 -0.1410
 1410TIP3    H125865   6.295   0.734   1.277 -0.3425 -1.4739 -2.2734
 1410TIP3    H225866   6.156   0.722   1.217 -1.9363  1.9260  0.3960
 1411TIP3   OH225867   3.494   4.351   3.174 -0.1303  0.2501  0.1986
 1411TIP3    H125868   3.457   4.282   3.229  0.6183  0.8950  1.5552
 1411TIP3    H225869   3.418   4.400   3.143 -0.5601 -0.0385  0.7764
 1412TIP3   OH225870   6.607   0.736   2.032 -0.3399  0.6901 -0.3874
 1412TIP3    H125871   6.689   0.779   2.008  0.1007  0.8614  1.3106
 1412TIP3    H225872   6.634   0.653   2.071 -1.1762 -1.3200 -3.7248
 1413TIP3   OH225873   3.409   6.730   1.859  0.4255 -0.2558  0.4761
 1413TIP3    H125874   3.491   6.682   1.874  1.0747  0.7946  0.4560
 1413TIP3    H225875   3.436   6.822   1.858 -0.6144  0.0622 -0.4736
 1414TIP3   OH225876   5.072   4.180   8.094 -0.3506 -0.1545  0.3578
 1414TIP3    H125877   5.014   4.134   8.154 -2.1616 -0.0537 -1.2298
 1414TIP3    H225878   5.093   4.115   8.027  0.5809  0.1194  0.3678
 1415TIP3   OH225879   1.839   0.763   3.108  0.8435  0.2648 -0.0238
 1415TIP3    H125880   1.868   0.715   3.030  2.3399  0.9199  0.1189
 1415TIP3    H225881   1.811   0.848   3.074 -0.2897 -0.0953 -0.0582
 1416TIP3   OH225882   0.013   3.462   1.432 -0.6643 -0.0351  0.3756
 1416TIP3    H125883   0.094   3.487   1.388 -1.9637  1.1489 -1.5328
 1416TIP3    H225884  -0.006   3.374   1.399 -1.3273  0.6168 -1.0585
 1417TIP3   OH225885   6.678   4.321   1.477  0.3908 -0.3905 -0.4649
 1417TIP3    H125886   6.762   4.278   1.468  0.2207 -1.2234  1.5322
 1417TIP3    H225887   6.693   4.411   1.446  1.9782 -0.5513 -0.2053
 1418TIP3   OH225888   5.246   6.167   2.564  0.6509  0.3297  0.1760
 1418TIP3    H125889   5.315   6.116   2.607  1.6447  1.5256  0.0738
 1418TIP3    H225890   5.292   6.243   2.527 -0.4089  0.1584 -1.6281
 1419TIP3   OH225891   2.221   4.505   1.288 -0.2164  0.8790  0.2164
 1419TIP3    H125892   2.144   4.494   1.232 -0.6056  0.7234  0.7770
 1419TIP3    H225893   2.215   4.433   1.351  1.6327 -0.5777 -1.1398
 1420TIP3   OH225894   6.383   5.491   2.443  0.3171 -0.2130  0.2795
 1420TIP3    H125895   6.381   5.585   2.461 -0.9891 -0.0663 -0.5425
 1420TIP3    H225896   6.297   5.472   2.406  0.1190 -1.9638  1.5360
 1421TIP3   OH225897   6.663   1.637   3.204 -0.0997  0.5794  0.6378
 1421TIP3    H125898   6.606   1.691   3.150 -0.7209  1.0432  1.7165
 1421TIP3    H225899   6.724   1.597   3.142 -0.8046  1.0499 -0.3994
 1422TIP3   OH225900   3.833   1.077   2.127 -0.3657 -0.5285  0.3285
 1422TIP3    H125901   3.870   1.144   2.184 -0.9421  0.3918 -0.3678
 1422TIP3    H225902   3.739   1.077   2.147 -0.3879 -1.0448  0.2425
 1423TIP3   OH225903   0.643   2.007   3.255  0.4189 -1.1858  0.1319
 1423TIP3    H125904   0.570   1.992   3.314  0.3234  0.8062  0.6108
 1423TIP3    H225905   0.671   2.097   3.274  1.2655 -0.9622 -1.8883
 1424TIP3   OH225906   5.814   3.137   1.388 -0.6260 -0.3777  0.8602
 1424TIP3    H125907   5.883   3.182   1.339  0.0369 -2.4489 -0.2379
 1424TIP3    H225908   5.851   3.126   1.476 -0.6411  0.7972  1.0324
 1425TIP3   OH225909   4.589   0.444   2.618 -0.3949 -0.1579  0.2148
 1425TIP3    H125910   4.588   0.375   2.685  0.2782 -1.5951 -1.1848
 1425TIP3    H225911   4.679   0.445   2.587 -0.5900  0.8305 -0.3325
 1426TIP3   OH225912   1.187   2.632   1.599 -0.1136  0.0513 -0.5357
 1426TIP3    H125913   1.143   2.561   1.553 -0.0186 -0.7847  0.6249
 1426TIP3    H225914   1.148   2.712   1.563  0.2188 -0.5393 -2.2960
 1427TIP3   OH225915   3.189   2.670   3.291 -0.1749  0.3196  0.7301
 1427TIP3    H125916   3.179   2.584   3.334 -0.9885 -0.0525 -0.1686
 1427TIP3    H225917   3.211   2.649   3.200 -0.9080  1.0532  0.3719
 1428TIP3   OH225918   2.160   2.149   0.333 -0.1710 -0.1373  0.0884
 1428TIP3    H125919   2.078   2.125   0.291  0.4966 -2.3339 -0.0884
 1428TIP3    H225920   2.228   2.123   0.271  0.7277  3.3389 -0.6111
 1429TIP3   OH225921   4.628   4.172   8.121  0.0279 -0.1452  0.0996
 1429TIP3    H125922   4.640   4.200   8.031  3.4872  2.4106  1.1195
 1429TIP3    H225923   4.567   4.236   8.158  1.1997  0.8851  0.3115
 1430TIP3   OH225924   1.269   0.169   4.341 -0.3552  0.6363  0.0694
 1430TIP3    H125925   1.346   0.113   4.334 -1.3701 -0.8676  0.3877
 1430TIP3    H225926   1.195   0.111   4.321 -1.5652  1.5349  1.6838
 1431TIP3   OH225927   5.238   3.802   2.850 -0.2772 -0.2473  0.8947
 1431TIP3    H125928   5.308   3.824   2.912 -0.8636 -1.0212  1.8583
 1431TIP3    H225929   5.158   3.812   2.901 -0.8644  0.3143 -0.1084
 1432TIP3   OH225930   2.558   0.040   1.982  0.0591  0.3655 -0.2324
 1432TIP3    H125931   2.467   0.032   1.954  0.3419 -3.0640 -0.6066
 1432TIP3    H225932   2.556   0.023   2.076  0.3518 -0.4589 -0.3660
 1433TIP3   OH225933   6.621   5.028   3.377  1.5127  0.3803 -0.2170
 1433TIP3    H125934   6.541   5.080   3.374  0.7413 -0.5487  2.0946
 1433TIP3    H225935   6.691   5.091   3.361  0.5034  1.8047  0.7789
 1434TIP3   OH225936   0.644   2.103   0.667 -0.5113 -0.3652 -0.3385
 1434TIP3    H125937   0.706   2.038   0.700  0.6330  0.8037 -0.1205
 1434TIP3    H225938   0.659   2.181   0.721 -1.0661  0.4487 -1.3193
 1435TIP3   OH225939   3.322   4.821   2.748 -0.4110 -0.5832  0.6298
 1435TIP3    H125940   3.365   4.740   2.722 -0.7826 -0.9094  1.0118
 1435TIP3    H225941   3.356   4.887   2.688  2.1332 -0.4056  2.1577
 1436TIP3   OH225942   1.313   1.152   0.531  0.3682  0.1882 -0.2202
 1436TIP3    H125943   1.327   1.119   0.620  0.2361  0.3735 -0.1299
 1436TIP3    H225944   1.219   1.168   0.526  0.0246 -1.7204 -1.0545
 1437TIP3   OH225945   0.921   6.196   1.842  0.2194 -0.0211  0.8878
 1437TIP3    H125946   0.894   6.276   1.889 -0.4949  0.6131 -0.5330
 1437TIP3    H225947   0.985   6.226   1.779 -1.0380 -0.3056 -0.5814
 1438TIP3   OH225948   0.595   6.291   1.784 -0.3757 -0.8486  0.4082
 1438TIP3    H125949   0.631   6.216   1.736 -2.0062 -0.9933 -0.6568
 1438TIP3    H225950   0.668   6.353   1.789  0.1542 -1.2673 -1.3579
 1439TIP3   OH225951   1.374   5.521   0.245  0.1597  0.3686  0.1923
 1439TIP3    H125952   1.367   5.521   0.150 -0.4516  1.0073  0.2288
 1439TIP3    H225953   1.445   5.459   0.264  1.4646  1.5137 -0.7634
 1440TIP3   OH225954   1.290   4.753   1.572 -0.4972 -0.1926 -0.6672
 1440TIP3    H125955   1.237   4.675   1.559  0.5513 -1.2222  0.8539
 1440TIP3    H225956   1.372   4.735   1.526 -0.5885  0.4112 -1.0829
 1441TIP3   OH225957   2.564   4.890   1.337 -0.3760 -0.1805 -0.0968
 1441TIP3    H125958   2.610   4.845   1.267  0.3431 -0.5399  0.5950
 1441TIP3    H225959   2.485   4.838   1.351  0.0936 -0.8341  0.2015
 1442TIP3   OH225960   5.300   1.011   0.771 -0.4168  0.2841 -0.7018
 1442TIP3    H125961   5.242   1.036   0.699  0.2299 -0.9678 -1.7070
 1442TIP3    H225962   5.324   0.920   0.752  1.1019  0.4521  0.1969
 1443TIP3   OH225963   1.989   3.309   0.375 -0.2253 -0.1310 -0.2198
 1443TIP3    H125964   1.963   3.391   0.332 -0.8375 -0.4059 -0.3887
 1443TIP3    H225965   2.047   3.267   0.311 -0.7250 -0.3003 -0.5675
 1444TIP3   OH225966   1.738   4.531   8.608  0.2628 -0.3349  0.4557
 1444TIP3    H125967   1.680   4.607   8.618 -0.6836 -1.2080  2.1423
 1444TIP3    H225968   1.824   4.564   8.633 -0.5040 -0.2232  3.3053
 1445TIP3   OH225969   5.498   1.890   0.730  0.0485  0.0906  0.2864
 1445TIP3    H125970   5.580   1.878   0.778 -0.2618 -1.8832  0.4025
 1445TIP3    H225971   5.440   1.934   0.792  0.2349 -0.7813  1.0938
 1446TIP3   OH225972   1.638   6.615   2.521  0.2544  0.6349 -1.1719
 1446TIP3    H125973   1.638   6.694   2.576  0.2117  0.5580 -1.0620
 1446TIP3    H225974   1.699   6.555   2.565  0.9543  0.9344 -1.7285
 1447TIP3   OH225975   2.004   5.484   8.532  0.0784  0.0158  0.0291
 1447TIP3    H125976   2.050   5.404   8.557 -0.1939  0.5915  2.6999
 1447TIP3    H225977   1.912   5.466   8.551 -0.3759  0.0733 -1.9409
 1448TIP3   OH225978   0.119   0.499   3.864  0.2566 -0.2720  0.3926
 1448TIP3    H125979   0.176   0.547   3.924 -2.3689  0.5396  2.4555
 1448TIP3    H225980   0.125   0.408   3.892 -1.1815  0.1445  2.2013
 1449TIP3   OH225981   5.464   3.505   8.283 -0.0224 -0.3162  0.2609
 1449TIP3    H125982   5.396   3.564   8.313 -0.1528  0.1912 -0.9714
 1449TIP3    H225983   5.476   3.527   8.191  1.5192 -0.6754  0.3467
 1450TIP3   OH225984   0.727   0.323   0.077 -0.0080  0.4084  0.1279
 1450TIP3    H125985   0.741   0.403   0.127 -1.3479  0.2561  0.7830
 1450TIP3    H225986   0.809   0.273   0.089  0.4839  1.2704  0.4506
 1451TIP3   OH225987   1.940   5.578   0.527 -0.1274  0.4001  0.2792
 1451TIP3    H125988   1.928   5.527   0.447  0.8201  0.1555  0.2758
 1451TIP3    H225989   2.015   5.634   0.508  0.6607 -0.2878  1.2967
 1452TIP3   OH225990   0.535   4.847   1.011  0.0474  0.5107 -0.0571
 1452TIP3    H125991   0.574   4.852   1.098  1.1764 -1.1391 -0.4259
 1452TIP3    H225992   0.609   4.853   0.951 -0.5107 -0.2534 -0.8457
 1453TIP3   OH225993   2.620   3.374   1.680 -0.1905 -0.0164 -0.2889
 1453TIP3    H125994   2.646   3.424   1.758  3.0809 -2.9373  0.7642
 1453TIP3    H225995   2.552   3.315   1.712  1.1071 -1.1740  0.4743
 1454TIP3   OH225996   4.715   4.536   3.157 -0.3829 -0.3165  0.3896
 1454TIP3    H125997   4.794   4.515   3.107  0.8752  1.6540  1.3896
 1454TIP3    H225998   4.708   4.466   3.222  0.5929 -0.5154  0.2925
 1455TIP3   OH225999   3.570   5.210   2.843  0.5851 -0.3031  0.1121
 1455TIP3    H126000   3.566   5.271   2.770  1.7855  0.2869  0.5061
 1455TIP3    H226001   3.592   5.265   2.919  1.2843 -1.1628  0.5518
 1456TIP3   OH226002   4.941   4.952   8.300  0.0816 -0.3189  0.0610
 1456TIP3    H126003   4.992   5.023   8.339  0.9217 -0.9126  0.0560
 1456TIP3    H226004   4.865   4.996   8.261  1.1818  0.7176 -0.9754
 1457TIP3   OH226005   1.632   5.588   1.177 -0.4549 -0.0455 -0.1721
 1457TIP3    H126006   1.673   5.501   1.175 -0.5859 -0.0862 -1.6486
 1457TIP3    H226007   1.631   5.617   1.086 -2.1649  0.6861  0.0382
 1458TIP3   OH226008   0.413   0.628   0.949 -0.4131 -0.1237 -0.0137
 1458TIP3    H126009   0.457   0.613   0.866  0.6197  1.0519  0.2872
 1458TIP3    H226010   0.480   0.608   1.015 -1.0013 -0.3697  0.5206
 1459TIP3   OH226011   4.382   1.661   1.508  0.0371  0.3906  0.5808
 1459TIP3    H126012   4.324   1.711   1.450 -0.4434 -0.2441  0.5077
 1459TIP3    H226013   4.448   1.624   1.449  0.7336  1.3868  0.7057
 1460TIP3   OH226014   5.778   4.106   1.458  0.3896 -0.4733  0.8161
 1460TIP3    H126015   5.731   4.028   1.488 -1.1124  0.0810  0.0102
 1460TIP3    H226016   5.869   4.090   1.483 -0.0499 -2.0298  1.5567
 1461TIP3   OH226017   4.202   3.307   0.414 -0.0125 -0.2139 -0.4196
 1461TIP3    H126018   4.286   3.350   0.396 -1.2704  1.0062 -4.5467
 1461TIP3    H226019   4.195   3.240   0.345 -2.7688  0.3056 -0.7460
 1462TIP3   OH226020   4.319   4.998   0.371 -0.2409 -0.1578  0.2067
 1462TIP3    H126021   4.360   5.069   0.421  1.0518  1.3046 -2.6539
 1462TIP3    H226022   4.384   4.928   0.372  0.5270  0.4997 -0.6771
 1463TIP3   OH226023   4.591   0.855   8.189  0.4525  0.1399 -0.0939
 1463TIP3    H126024   4.647   0.777   8.194  0.7440  0.3081 -0.6522
 1463TIP3    H226025   4.646   0.925   8.224 -0.3412 -0.1639  1.8926
 1464TIP3   OH226026   3.744   0.177   0.237  0.0523  0.1529  0.3690
 1464TIP3    H126027   3.829   0.146   0.268 -0.0341  0.1323  0.5883
 1464TIP3    H226028   3.739   0.146   0.147 -0.7728 -2.0077  1.1070
 1465TIP3   OH226029   4.194   0.474   2.273  0.1895 -0.0670  0.1378
 1465TIP3    H126030   4.132   0.401   2.277  0.7955 -0.7989 -2.2628
 1465TIP3    H226031   4.191   0.513   2.361 -3.1032 -0.5193  0.3523
 1466TIP3   OH226032   6.465   4.549   2.838 -0.3753  0.5542 -0.6032
 1466TIP3    H126033   6.389   4.534   2.895 -0.9868 -3.6920 -2.1519
 1466TIP3    H226034   6.426   4.572   2.754  0.1928  0.6509 -0.8412
 1467TIP3   OH226035   2.014   1.352   1.843  0.6534  0.6160  0.2870
 1467TIP3    H126036   2.070   1.338   1.919 -0.0047 -2.4368  0.3360
 1467TIP3    H226037   1.935   1.301   1.861 -0.4342  1.5632 -1.5009
 1468TIP3   OH226038   6.586   2.749   4.033 -0.2229 -0.7334  0.5926
 1468TIP3    H126039   6.551   2.831   4.067 -0.6521 -1.4076  1.8562
 1468TIP3    H226040   6.681   2.755   4.048  0.0152  0.3314 -1.1446
 1469TIP3   OH226041   0.526   6.504   2.953  0.2714 -0.4480  0.2936
 1469TIP3    H126042   0.587   6.432   2.938  0.8640 -0.1031  0.9769
 1469TIP3    H226043   0.439   6.463   2.949  0.6125 -2.0299  4.4137
 1470TIP3   OH226044   0.939   4.325   1.579 -0.2538 -0.2444 -0.2244
 1470TIP3    H126045   0.865   4.300   1.523 -1.4075 -0.4289  1.3335
 1470TIP3    H226046   0.986   4.243   1.595  0.0830 -0.1922 -0.8792
 1471TIP3   OH226047   6.395   3.502   0.794  0.1260 -0.5479  0.0818
 1471TIP3    H126048   6.422   3.505   0.702 -2.0639  0.2482 -0.5930
 1471TIP3    H226049   6.427   3.417   0.825  0.4292 -1.0850 -1.5823
 1472TIP3   OH226050   3.039   3.944   0.923  0.2994 -0.2547  0.5049
 1472TIP3    H126051   3.011   3.931   1.014  0.0371  0.1305  0.4847
 1472TIP3    H226052   3.134   3.951   0.928  0.2968 -0.3833  0.7331
 1473TIP3   OH226053   5.440   4.985   2.604  0.4868  0.1724  0.1647
 1473TIP3    H126054   5.447   4.911   2.543 -0.5720  0.9521 -0.9437
 1473TIP3    H226055   5.356   4.972   2.648  1.3562 -0.5272  1.7185
 1474TIP3   OH226056   5.738   2.246   3.747  0.0289 -0.1334 -0.3326
 1474TIP3    H126057   5.764   2.288   3.829  1.7561 -1.0251 -0.3791
 1474TIP3    H226058   5.739   2.152   3.767  0.4836 -0.3587 -1.3720
 1475TIP3   OH226059   3.633   1.348   3.576  0.4935 -0.8313 -0.1547
 1475TIP3    H126060   3.656   1.379   3.663  0.8764  0.7485 -0.7765
 1475TIP3    H226061   3.718   1.335   3.533  0.3067  0.2094 -0.8726
 1476TIP3   OH226062   0.814   4.582   0.964 -1.0336  0.1954  0.0366
 1476TIP3    H126063   0.900   4.543   0.945 -1.4235  0.1458 -1.8105
 1476TIP3    H226064   0.829   4.637   1.040  0.4582 -0.4342  0.2339
 1477TIP3   OH226065   4.162   6.450   0.648  0.0053 -0.4646 -0.2668
 1477TIP3    H126066   4.166   6.484   0.559 -2.4301  2.9320  0.7381
 1477TIP3    H226067   4.246   6.475   0.687 -0.4002  1.4804 -0.5644
 1478TIP3   OH226068   6.432   1.465   2.790 -0.3719 -0.3809 -0.0522
 1478TIP3    H126069   6.473   1.501   2.712 -0.1553 -1.3837 -0.4196
 1478TIP3    H226070   6.413   1.541   2.845  3.8443  0.1310  1.0825
 1479TIP3   OH226071   4.465   4.128   1.215 -0.2926  0.5684  0.5965
 1479TIP3    H126072   4.466   4.184   1.292 -0.9235  0.6248  0.5694
 1479TIP3    H226073   4.438   4.042   1.247  0.7032  0.2582  0.6438
 1480TIP3   OH226074   6.457   4.675   3.235 -0.4773  0.5571  0.4190
 1480TIP3    H126075   6.367   4.659   3.263 -0.8554  0.3507 -0.8587
 1480TIP3    H226076   6.448   4.722   3.152  0.5902 -0.0013 -0.0293
 1481TIP3   OH226077   1.079   2.512   2.777 -0.1045  0.0174 -0.2077
 1481TIP3    H126078   1.003   2.536   2.830 -0.0204 -0.0177 -0.0695
 1481TIP3    H226079   1.134   2.461   2.837  1.0586  1.8270  0.3677
 1482TIP3   OH226080   3.144   2.577   2.633  0.0322  0.3946  0.0089
 1482TIP3    H126081   3.159   2.556   2.541 -0.1805  0.0691  0.0510
 1482TIP3    H226082   3.151   2.494   2.679 -1.8322  0.2271  0.0453
 1483TIP3   OH226083   5.288   4.817   0.086  0.7591 -0.2046 -0.2384
 1483TIP3    H126084   5.318   4.870   0.160 -1.9551  2.4988 -0.8788
 1483TIP3    H226085   5.354   4.830   0.018  0.9926  0.9865  0.2038
 1484TIP3   OH226086   0.273   4.885   1.670 -0.4504  0.7144  0.2163
 1484TIP3    H126087   0.324   4.882   1.751 -0.4706 -0.7450  0.1917
 1484TIP3    H226088   0.289   4.801   1.628 -2.0198  0.6514 -0.3248
 1485TIP3   OH226089   2.994   6.308   2.816 -0.3794  0.2461 -0.0048
 1485TIP3    H126090   2.951   6.246   2.876 -0.0311  0.3313  0.3377
 1485TIP3    H226091   2.940   6.387   2.821 -0.9023 -0.0751 -0.5472
 1486TIP3   OH226092   0.666   2.497   3.647  0.0490  0.1065 -0.1655
 1486TIP3    H126093   0.738   2.528   3.702  0.3506 -0.1241 -0.4195
 1486TIP3    H226094   0.644   2.572   3.592  0.6004 -0.0390 -0.5996
 1487TIP3   OH226095   0.664   2.534   2.479  0.4231  0.5041 -0.1572
 1487TIP3    H126096   0.672   2.564   2.389  0.7557  3.0903  0.6429
 1487TIP3    H226097   0.571   2.514   2.490  0.1037  1.6428 -0.6815
 1488TIP3   OH226098   6.586   5.587   0.017  0.0397 -0.1065 -0.0858
 1488TIP3    H126099   6.535   5.606   0.096  0.8742  1.6203  0.0939
 1488TIP3    H226100   6.525   5.542  -0.041 -0.3418 -2.2928  1.8635
 1489TIP3   OH226101   3.592   1.786   3.355  0.3469 -0.2439  0.5602
 1489TIP3    H126102   3.671   1.755   3.400  0.3968 -1.8939 -0.5598
 1489TIP3    H226103   3.543   1.706   3.336 -1.2374  0.6894  0.5566
 1490TIP3   OH226104   0.638   4.641   3.842 -0.4784  0.5549 -0.7260
 1490TIP3    H126105   0.615   4.618   3.932  2.2489 -0.8438 -0.2752
 1490TIP3    H226106   0.562   4.689   3.810 -2.3238 -0.4957  1.6935
 1491TIP3   OH226107   3.823   4.489   8.691  0.0877  0.0462  0.4562
 1491TIP3    H126108   3.784   4.402   8.689 -0.2123  0.1842 -0.8728
 1491TIP3    H226109   3.797   4.529   8.608  0.2134  1.4118  1.0445
 1492TIP3   OH226110   0.510   6.270   3.624 -0.3551 -0.1871  0.0045
 1492TIP3    H126111   0.570   6.246   3.695  0.0364 -1.2564 -0.6665
 1492TIP3    H226112   0.426   6.283   3.668  0.8138  4.2529  1.4613
 1493TIP3   OH226113   4.024   6.761   8.039 -0.2517  0.1145 -0.2502
 1493TIP3    H126114   4.082   6.816   7.986 -2.4269  2.7786 -0.0837
 1493TIP3    H226115   4.082   6.714   8.098  1.8565  1.2728 -1.3060
 1494TIP3   OH226116   4.652   5.171   3.715  0.1309  0.2820  0.2933
 1494TIP3    H126117   4.684   5.105   3.776  0.8678 -0.1668 -0.5440
 1494TIP3    H226118   4.577   5.130   3.673  0.7943 -0.1836 -0.4722
 1495TIP3   OH226119   6.285   2.921   3.824  0.0989 -0.1040 -0.5024
 1495TIP3    H126120   6.287   2.909   3.919  0.3283 -0.3662 -0.5409
 1495TIP3    H226121   6.231   2.849   3.792  0.2641 -0.1854 -0.5984
 1496TIP3   OH226122   0.024   0.647   0.070 -0.0220 -0.8594 -0.0453
 1496TIP3    H126123  -0.009   0.591   0.140  0.5641 -0.5569  0.4835
 1496TIP3    H226124   0.084   0.592   0.020  0.1601 -0.8479  0.1627
 1497TIP3   OH226125   5.691   0.858   0.814  0.2370  0.3183 -0.8098
 1497TIP3    H126126   5.614   0.894   0.857  0.4680  0.6005 -0.6234
 1497TIP3    H226127   5.683   0.763   0.824 -0.7816  0.2498 -1.9754
 1498TIP3   OH226128   1.581   2.144   1.022 -0.6536  0.2183  0.2105
 1498TIP3    H126129   1.577   2.236   1.048 -0.4639  0.3865 -0.3495
 1498TIP3    H226130   1.638   2.104   1.087 -1.0854  0.4011  0.7157
 1499TIP3   OH226131   1.687   5.668   3.314 -0.5103 -0.2321 -0.4613
 1499TIP3    H126132   1.653   5.592   3.362  0.1231 -0.2942 -0.1002
 1499TIP3    H226133   1.760   5.699   3.368 -1.7961  1.6689  0.2866
 1500TIP3   OH226134   2.692   6.453   0.323 -0.4073 -0.2928  0.1418
 1500TIP3    H126135   2.723   6.480   0.409  0.3891  2.0968 -0.8086
 1500TIP3    H226136   2.702   6.531   0.268  1.7016 -2.4359 -2.8298
 1501TIP3   OH226137   4.940   5.158   0.499 -0.4136 -0.5036  0.5038
 1501TIP3    H126138   4.976   5.095   0.436  0.9125  0.9179 -0.2384
 1501TIP3    H226139   4.935   5.240   0.450  2.0714  1.0422  2.5950
 1502TIP3   OH226140   3.878   4.433   2.965  0.4387  0.2258  0.2917
 1502TIP3    H126141   3.824   4.357   2.987  2.4261 -0.6189  2.6291
 1502TIP3    H226142   3.852   4.501   3.028  0.0328  0.8690 -0.5413
 1503TIP3   OH226143   0.760   5.776   0.549  0.1348  0.0772  0.2312
 1503TIP3    H126144   0.818   5.716   0.597  0.4136  0.5193  0.4462
 1503TIP3    H226145   0.812   5.805   0.474  0.6533  1.4279  1.0773
 1504TIP3   OH226146   3.806   2.061   3.683 -1.2867 -0.1760 -0.1316
 1504TIP3    H126147   3.795   2.148   3.646 -1.9691  0.3962  1.3509
 1504TIP3    H226148   3.726   2.014   3.658 -0.6164 -0.6538 -1.5329
 1505TIP3   OH226149   5.509   0.721   0.550  0.3993 -0.3074  0.4563
 1505TIP3    H126150   5.447   0.751   0.616 -0.7540 -0.7638 -0.3981
 1505TIP3    H226151   5.456   0.673   0.487  1.3457  0.7218 -1.2073
 1506TIP3   OH226152   4.352   2.951   8.275  0.5741  0.6020 -0.3745
 1506TIP3    H126153   4.314   2.908   8.198  1.3092  0.3206 -0.5981
 1506TIP3    H226154   4.318   3.040   8.272  1.4023  0.8992 -1.6324
 1507TIP3   OH226155   1.330   2.795   0.489  0.3643 -0.1247 -0.3735
 1507TIP3    H126156   1.405   2.850   0.509 -0.9738  2.0961 -1.1143
 1507TIP3    H226157   1.367   2.719   0.443  1.9766  2.0850 -3.0076
 1508TIP3   OH226158   6.400   4.938   8.786  0.5992  0.5558 -0.4801
 1508TIP3    H126159   6.404   4.996   8.862  0.9669  0.1668 -0.2022
 1508TIP3    H226160   6.324   4.969   8.736 -0.3852  0.0538  0.6583
 1509TIP3   OH226161   5.419   4.629   3.694  0.6524  0.4400  0.0661
 1509TIP3    H126162   5.357   4.653   3.763  0.5217 -0.8684  0.4192
 1509TIP3    H226163   5.478   4.705   3.688  0.1449  0.9293  1.0075
 1510TIP3   OH226164   1.226   4.712   2.389  0.0287 -0.1131 -0.3155
 1510TIP3    H126165   1.176   4.718   2.308 -1.7572  1.7719  0.7936
 1510TIP3    H226166   1.310   4.754   2.369 -0.8986  1.5732 -0.8925
 1511TIP3   OH226167   1.400   0.842   0.033  0.7728 -0.2079  0.0971
 1511TIP3    H126168   1.392   0.917   0.092 -1.3720 -0.7130  0.5252
 1511TIP3    H226169   1.393   0.766   0.090 -2.2259 -0.7162 -0.7802
 1512TIP3   OH226170   2.196   5.453   0.365  0.1022  0.2551  0.4414
 1512TIP3    H126171   2.226   5.414   0.283 -2.4534 -0.7067 -0.1463
 1512TIP3    H226172   2.158   5.537   0.340 -0.1342  0.2338  0.7164
 1513TIP3   OH226173   1.699   3.189   0.365 -0.5514  0.7208  0.3091
 1513TIP3    H126174   1.779   3.142   0.390 -0.3687  0.7335 -0.2394
 1513TIP3    H226175   1.715   3.217   0.275 -1.0832  0.9256  0.2758
 1514TIP3   OH226176   4.472   6.354   0.264 -0.4564 -0.0640  0.0070
 1514TIP3    H126177   4.382   6.355   0.230 -1.0811  0.2653  1.5595
 1514TIP3    H226178   4.469   6.291   0.335  0.2833  0.6923  0.7213
 1515TIP3   OH226179   2.796   5.799   0.972  0.3724 -0.7020 -0.3724
 1515TIP3    H126180   2.785   5.854   0.894 -1.0252 -0.5058 -0.0560
 1515TIP3    H226181   2.768   5.854   1.045 -0.1455 -1.5184  0.0615
 1516TIP3   OH226182   5.175   3.992   3.969  0.1865  0.0659 -0.3331
 1516TIP3    H126183   5.094   4.003   4.019 -0.0725  1.2291 -0.9766
 1516TIP3    H226184   5.152   3.929   3.900  0.5330 -1.5080  0.9263
 1517TIP3   OH226185   0.284   4.564   4.016  0.1922 -0.0658  0.4604
 1517TIP3    H126186   0.261   4.644   3.968  0.9892  1.1074  1.9683
 1517TIP3    H226187   0.204   4.540   4.063 -0.1633 -0.4072 -0.2970
 1518TIP3   OH226188   0.323   3.223   0.812 -0.1457  0.6109  0.7346
 1518TIP3    H126189   0.292   3.157   0.751  0.2891  0.3910  0.7472
 1518TIP3    H226190   0.404   3.186   0.848  1.6501  2.3418 -1.3241
 1519TIP3   OH226191   4.245   2.006   0.050 -0.0033 -0.0392 -0.4662
 1519TIP3    H126192   4.278   1.941   0.113  0.2667 -0.3703 -0.9476
 1519TIP3    H226193   4.317   2.020  -0.011  0.5495  1.9472  0.5595
 1520TIP3   OH226194   3.354   2.063   1.935 -0.2144  0.4440  0.2334
 1520TIP3    H126195   3.339   2.028   1.847  0.0237  0.8083  0.0439
 1520TIP3    H226196   3.447   2.050   1.951  0.1121  1.9201 -0.2710
 1521TIP3   OH226197   0.278   0.731   3.031 -0.1764 -0.1978 -0.0521
 1521TIP3    H126198   0.317   0.671   3.094  1.4133  0.1973 -0.6199
 1521TIP3    H226199   0.310   0.818   3.057 -0.8849  0.1830 -0.4000
 1522TIP3   OH226200   4.545   1.982   1.212 -0.4252 -0.0369 -0.4370
 1522TIP3    H126201   4.459   1.940   1.206  0.7387 -2.8882  1.0372
 1522TIP3    H226202   4.592   1.950   1.135 -0.6050  1.5529 -1.2629
 1523TIP3   OH226203   0.010   4.932   2.805 -0.8443  0.2762 -0.4735
 1523TIP3    H126204  -0.036   4.958   2.725 -2.5952 -0.0327  0.3693
 1523TIP3    H226205  -0.057   4.937   2.873  0.3644 -0.3714  0.8119
 1524TIP3   OH226206   3.152   4.521   2.816  0.3689  0.1032  0.0859
 1524TIP3    H126207   3.058   4.536   2.807  0.1189 -1.3755 -0.0954
 1524TIP3    H226208   3.190   4.550   2.733  0.3915  2.6440  0.9045
 1525TIP3   OH226209   2.588   0.780   2.124 -0.3948  0.9070 -0.0357
 1525TIP3    H126210   2.521   0.841   2.092 -0.5149  1.3936  1.0682
 1525TIP3    H226211   2.670   0.818   2.095 -0.5305  1.0363 -0.2540
 1526TIP3   OH226212   4.207   4.333   0.559 -0.2634  0.2492  0.0775
 1526TIP3    H126213   4.182   4.417   0.520  2.0045  0.9805  0.0908
 1526TIP3    H226214   4.157   4.268   0.508 -1.2238  1.5039 -0.6499
 1527TIP3   OH226215   2.002   5.678   3.135 -0.4057 -0.1735 -0.1373
 1527TIP3    H126216   2.077   5.670   3.077 -0.3148 -0.4362  0.0167
 1527TIP3    H226217   2.039   5.703   3.220 -0.5752  0.6373 -0.2959
 1528TIP3   OH226218   4.644   2.069   3.002  0.5850  0.1565 -0.2523
 1528TIP3    H126219   4.612   2.138   2.944  1.4451  0.0531 -0.8557
 1528TIP3    H226220   4.575   2.061   3.069 -0.3930  0.3178 -1.2075
 1529TIP3   OH226221   0.637   6.124   8.757 -0.7581  0.0088  0.1794
 1529TIP3    H126222   0.709   6.186   8.752  0.3007 -1.2583 -1.0669
 1529TIP3    H226223   0.586   6.139   8.677 -0.8755 -0.2885  0.1969
 1530TIP3   OH226224   5.002   5.981   3.916  0.0726  0.0602 -0.0190
 1530TIP3    H126225   4.926   6.038   3.903  1.6170  2.1087 -0.7147
 1530TIP3    H226226   5.072   6.024   3.866  1.8570 -1.3633  1.1410
 1531TIP3   OH226227   4.355   2.683   7.972  0.2359 -0.5686  0.0830
 1531TIP3    H126228   4.357   2.776   7.994 -0.6378  0.1758 -2.5491
 1531TIP3    H226229   4.267   2.655   7.996 -0.8119  0.3072 -2.3673
 1532TIP3   OH226230   4.032   6.564   2.491  0.3904  0.3957  0.3423
 1532TIP3    H126231   4.016   6.473   2.515  0.3444  0.6812  1.4550
 1532TIP3    H226232   3.974   6.615   2.548  0.6559  1.1409 -0.0294
 1533TIP3   OH226233   5.424   3.265   2.423 -0.5017  0.0360 -0.1499
 1533TIP3    H126234   5.466   3.226   2.346  1.6850 -0.6505  1.2994
 1533TIP3    H226235   5.463   3.352   2.429 -0.2640 -0.1078  0.4645
 1534TIP3   OH226236   3.044   1.333   3.168  0.8227 -0.2176  0.1294
 1534TIP3    H126237   3.019   1.328   3.260  2.1872  1.5974  0.6499
 1534TIP3    H226238   2.970   1.376   3.126  0.4546 -0.4982  0.4825
 1535TIP3   OH226239   5.259   1.719   3.022 -0.1245 -0.0001  0.6216
 1535TIP3    H126240   5.273   1.629   2.994 -0.9522 -0.6482  2.1726
 1535TIP3    H226241   5.173   1.742   2.987 -0.4951 -0.2830  1.3363
 1536TIP3   OH226242   3.800   1.019   0.561  0.7153  0.3679 -0.2291
 1536TIP3    H126243   3.774   0.996   0.472 -2.5973 -0.9672  0.9202
 1536TIP3    H226244   3.747   1.096   0.582  0.2673 -0.2585  1.0440
 1537TIP3   OH226245   0.711   4.807   0.748  0.3892  0.1146 -0.6039
 1537TIP3    H126246   0.720   4.762   0.832  1.9043  1.0426 -0.2499
 1537TIP3    H226247   0.659   4.746   0.695 -2.2984  0.3220  1.5608
 1538TIP3   OH226248   2.140   0.870   3.073  0.1639  0.6866  0.4001
 1538TIP3    H126249   2.168   0.779   3.061 -1.3174  0.1326  0.7827
 1538TIP3    H226250   2.219   0.916   3.100  0.8749 -0.5721  0.5835
 1539TIP3   OH226251   1.229   5.464   0.976  0.0573 -0.7573 -0.0351
 1539TIP3    H126252   1.201   5.401   0.911  0.5643 -0.9475 -0.0764
 1539TIP3    H226253   1.273   5.411   1.043 -2.1547 -0.8239  1.4674
 1540TIP3   OH226254   0.359   0.600   3.251 -0.2029  0.1295  0.1014
 1540TIP3    H126255   0.423   0.534   3.279 -0.6646 -1.5390 -2.4464
 1540TIP3    H226256   0.286   0.591   3.312  0.9730  0.4316  1.6085
 1541TIP3   OH226257   6.588   6.555   0.918 -0.6421 -0.2010  0.3883
 1541TIP3    H126258   6.521   6.570   0.851 -1.4169  0.1260  1.2169
 1541TIP3    H226259   6.660   6.613   0.893 -1.5435  1.0772  0.6852
 1542TIP3   OH226260   2.078   5.625   2.603 -0.3581  0.6406  0.0406
 1542TIP3    H126261   2.137   5.670   2.664 -0.1575 -0.1222  0.4273
 1542TIP3    H226262   1.991   5.632   2.643 -0.0900 -0.6875  0.9447
 1543TIP3   OH226263   4.821   4.368   0.256  0.9974  0.4088  0.4890
 1543TIP3    H126264   4.888   4.411   0.309  0.2452  3.0692 -0.5267
 1543TIP3    H226265   4.841   4.394   0.166  0.4956 -1.4954 -0.2108
 1544TIP3   OH226266   3.008   0.838   3.717 -0.5322  0.6961 -0.0647
 1544TIP3    H126267   2.937   0.791   3.761  1.6650 -0.8243  2.1728
 1544TIP3    H226268   3.002   0.927   3.750 -0.3695  0.1473  1.5415
 1545TIP3   OH226269   3.317   2.956   2.704 -0.4391  0.0195  0.1179
 1545TIP3    H126270   3.401   2.999   2.719 -0.8962  0.0840  3.1980
 1545TIP3    H226271   3.253   3.028   2.701 -0.4833 -0.0576 -1.7748
 1546TIP3   OH226272   2.378   5.583   8.244 -0.2855 -0.0779  0.0794
 1546TIP3    H126273   2.439   5.654   8.223  2.7652 -2.1064  1.3464
 1546TIP3    H226274   2.434   5.507   8.256 -3.3798 -2.8029 -1.3118
 1547TIP3   OH226275   4.819   3.649   2.659  0.3524  0.2193 -0.1928
 1547TIP3    H126276   4.765   3.671   2.734 -2.7650 -2.4789 -1.3861
 1547TIP3    H226277   4.831   3.731   2.612 -0.3735  1.3661  1.5442
 1548TIP3   OH226278   2.185   3.211   8.140  0.1132  0.1416 -0.1075
 1548TIP3    H126279   2.101   3.167   8.123 -0.0414 -0.8061  2.6607
 1548TIP3    H226280   2.251   3.142   8.128  0.3047  0.3554 -0.2819
 1549TIP3   OH226281   2.873   4.061   1.643 -0.1666 -0.1148  0.3144
 1549TIP3    H126282   2.824   4.115   1.581 -0.5269 -0.5232  0.2372
 1549TIP3    H226283   2.833   4.079   1.728 -1.4743 -1.5548  0.0582
 1550TIP3   OH226284   6.524   0.334   8.210  0.2700  0.2567 -0.5320
 1550TIP3    H126285   6.511   0.363   8.120  0.7160 -0.7206 -0.9249
 1550TIP3    H226286   6.449   0.276   8.227  0.4143  0.1032 -0.4231
 1551TIP3   OH226287   5.181   2.865   0.684 -0.0032 -0.0678  0.3363
 1551TIP3    H126288   5.190   2.769   0.686 -0.4006 -0.1137  3.1248
 1551TIP3    H226289   5.093   2.882   0.715  0.1316  1.2259  0.0639
 1552TIP3   OH226290   5.055   1.075   1.756 -0.2221 -0.2403 -0.3949
 1552TIP3    H126291   5.072   1.102   1.666 -0.1276  1.1946  0.0366
 1552TIP3    H226292   4.987   1.134   1.787 -0.1011 -0.5747  0.5538
 1553TIP3   OH226293   2.677   2.436   1.411 -0.3447 -0.4522 -0.2819
 1553TIP3    H126294   2.654   2.407   1.499 -1.5374  3.3966  0.8901
 1553TIP3    H226295   2.593   2.450   1.368  0.1694 -0.1218 -1.2020
 1554TIP3   OH226296   1.584   3.439   2.767 -0.0931 -0.2722 -0.2010
 1554TIP3    H126297   1.638   3.491   2.708 -1.1047  0.9608 -0.0934
 1554TIP3    H226298   1.634   3.359   2.781  0.4972 -0.2990 -2.1504
 1555TIP3   OH226299   0.687   0.564   3.516  0.5154 -0.5519 -0.2308
 1555TIP3    H126300   0.758   0.545   3.577  0.0626 -0.3512  0.3693
 1555TIP3    H226301   0.614   0.509   3.546  0.2903 -0.4618 -0.6006
 1556TIP3   OH226302   5.810   6.556   3.362 -0.4376  0.0491 -0.0560
 1556TIP3    H126303   5.849   6.505   3.291 -0.0563 -0.9962  0.8759
 1556TIP3    H226304   5.853   6.642   3.357 -0.5072  0.0281 -1.1506
 1557TIP3   OH226305   5.589   5.807   2.698 -0.7359 -0.0519 -0.9460
 1557TIP3    H126306   5.583   5.731   2.639  1.5831  0.0784 -1.4719
 1557TIP3    H226307   5.542   5.780   2.777 -1.9958 -1.1035 -1.9994
 1558TIP3   OH226308   4.532   2.245   2.788 -0.1241  0.6412  0.1349
 1558TIP3    H126309   4.621   2.261   2.756  1.4104 -0.9520  3.1280
 1558TIP3    H226310   4.501   2.330   2.817  1.6685  0.8109  1.7406
 1559TIP3   OH226311   1.068   2.594   1.836  0.4091 -0.1673 -0.1335
 1559TIP3    H126312   1.131   2.625   1.770 -0.0468 -0.7117 -0.8376
 1559TIP3    H226313   1.029   2.516   1.797  0.1076 -0.4835  0.7811
 1560TIP3   OH226314   1.364   5.421   2.206  0.2792 -0.2151 -0.0618
 1560TIP3    H126315   1.433   5.465   2.155  0.0349  0.2817  0.0288
 1560TIP3    H226316   1.411   5.359   2.261  0.6521  0.0636 -0.0604
 1561TIP3   OH226317   1.539   5.933   7.774 -0.5936  0.3758  0.4786
 1561TIP3    H126318   1.472   5.881   7.730 -0.7382  0.9650 -0.0098
 1561TIP3    H226319   1.491   6.007   7.811 -0.1959  0.8618  0.0273
 1562TIP3   OH226320   1.825   2.449   3.723  0.0094 -0.0197 -0.2083
 1562TIP3    H126321   1.756   2.514   3.714  0.6000  0.5198 -0.9439
 1562TIP3    H226322   1.800   2.398   3.800  0.4741  2.2269  1.5421
 1563TIP3   OH226323   1.907   1.606   2.937  0.7076  0.6295 -0.4801
 1563TIP3    H126324   1.837   1.574   2.881  1.6110 -1.3495 -0.5606
 1563TIP3    H226325   1.862   1.653   3.008 -0.5547  1.1209 -1.5607
 1564TIP3   OH226326   4.899   5.068   2.344  0.3244  0.0068  0.6642
 1564TIP3    H126327   4.835   5.126   2.385  0.6241  0.3800  0.6063
 1564TIP3    H226328   4.934   5.119   2.271  1.5346  0.2442  1.3964
 1565TIP3   OH226329   5.004   2.349   0.189 -0.1336 -0.0007 -0.2250
 1565TIP3    H126330   5.051   2.284   0.241 -0.0085  0.7652  0.6484
 1565TIP3    H226331   4.978   2.302   0.110 -0.5945 -1.2900  0.6564
 1566TIP3   OH226332   1.307   6.727   2.394  0.1975 -0.6550  0.2853
 1566TIP3    H126333   1.272   6.766   2.313  2.3755 -0.7711 -0.7926
 1566TIP3    H226334   1.399   6.709   2.374  0.6135 -1.4047  2.5656
 1567TIP3   OH226335   1.678   2.946   2.970 -0.4124  0.3220  0.3520
 1567TIP3    H126336   1.752   2.897   3.006 -0.7588 -0.0102  0.6227
 1567TIP3    H226337   1.675   2.921   2.877 -0.8943 -0.5755  0.5973
 1568TIP3   OH226338   3.373   6.696   1.051  0.2874 -0.4720 -0.2285
 1568TIP3    H126339   3.340   6.757   0.985  1.4328 -0.9094 -1.2478
 1568TIP3    H226340   3.462   6.676   1.023  0.3602 -1.6586  0.7587
 1569TIP3   OH226341   1.985   1.457   8.422  0.0841 -0.1519  0.2652
 1569TIP3    H126342   2.037   1.377   8.429 -0.7517 -0.7496 -0.1997
 1569TIP3    H226343   1.945   1.452   8.335 -0.0379  0.7469  0.2543
 1570TIP3   OH226344   5.439   1.626   0.670 -0.4139 -0.0438 -0.3656
 1570TIP3    H126345   5.456   1.708   0.717 -0.5817 -0.1017 -0.2022
 1570TIP3    H226346   5.400   1.569   0.736 -1.8453  0.2924 -0.8827
 1571TIP3   OH226347   1.908   3.528   1.871 -0.1416 -0.1574  0.4103
 1571TIP3    H126348   1.842   3.597   1.869 -0.1146 -0.0413 -3.0660
 1571TIP3    H226349   1.866   3.454   1.915 -1.8797  0.5794  0.0455
 1572TIP3   OH226350   4.929   1.739   3.503  0.2153  0.3318 -0.1626
 1572TIP3    H126351   4.947   1.817   3.451  0.3379 -0.0466 -0.6874
 1572TIP3    H226352   4.963   1.666   3.451 -1.3742 -0.2485 -0.4555
 1573TIP3   OH226353   5.733   2.379   4.277 -0.5637 -0.2370  0.0552
 1573TIP3    H126354   5.784   2.453   4.246 -0.4674 -0.7161 -0.9804
 1573TIP3    H226355   5.798   2.319   4.314 -0.5413 -0.1739  0.1160
 1574TIP3   OH226356   2.773   5.111   0.759  0.0952  0.1021  0.2276
 1574TIP3    H126357   2.790   5.199   0.725  2.2857 -0.8586 -1.4219
 1574TIP3    H226358   2.739   5.063   0.684  1.5615 -1.1371  0.3040
 1575TIP3   OH226359   3.561   5.969   2.595  0.0256  0.5181  0.0087
 1575TIP3    H126360   3.538   5.940   2.683  1.4404 -2.0068 -0.3347
 1575TIP3    H226361   3.490   6.027   2.569 -0.9201  0.5559  2.4321
 1576TIP3   OH226362   2.528   4.894   0.699  0.2670 -0.0331 -0.1435
 1576TIP3    H126363   2.583   4.886   0.621 -0.4297 -1.1418 -0.5573
 1576TIP3    H226364   2.469   4.967   0.679  0.4605  0.0520 -0.4142
 1577TIP3   OH226365   6.856   0.877   4.323  0.1990  0.3936 -0.0986
 1577TIP3    H126366   6.929   0.886   4.262  0.0574  1.7417 -0.1130
 1577TIP3    H226367   6.879   0.803   4.378  1.0778  0.1497 -0.7738
 1578TIP3   OH226368   6.583   2.427   3.363 -0.0975 -0.2443  0.2275
 1578TIP3    H126369   6.535   2.406   3.443  0.7428 -0.3866  0.7061
 1578TIP3    H226370   6.515   2.448   3.299 -0.9438 -2.8557  0.1534
 1579TIP3   OH226371   4.416   6.748   0.337 -0.2057  0.2916 -0.0133
 1579TIP3    H126372   4.429   6.711   0.250  0.2529 -0.8456  0.5265
 1579TIP3    H226373   4.343   6.699   0.373 -0.4953  0.8656  0.2008
 1580TIP3   OH226374   0.762   5.526   2.551 -0.1303  0.6902 -0.6507
 1580TIP3    H126375   0.820   5.533   2.475  0.2238 -0.9789 -0.5621
 1580TIP3    H226376   0.676   5.510   2.514  0.4927 -3.2809 -0.7829
 1581TIP3   OH226377   6.717   2.707   2.446 -0.3396 -0.0758  0.3926
 1581TIP3    H126378   6.696   2.613   2.443 -0.7376 -0.0033  0.8296
 1581TIP3    H226379   6.767   2.723   2.366 -1.4267 -0.3812 -0.3678
 1582TIP3   OH226380   0.935   6.738   3.196 -0.2631  0.5064 -0.1341
 1582TIP3    H126381   0.980   6.655   3.181 -0.5027  0.1021  1.2126
 1582TIP3    H226382   0.944   6.753   3.290 -2.1606  0.8665  0.0372
 1583TIP3   OH226383   4.498   5.392   3.411  0.2286 -0.0980 -0.1140
 1583TIP3    H126384   4.517   5.305   3.375 -2.8060  0.1706 -2.8536
 1583TIP3    H226385   4.460   5.440   3.338  0.1029  2.9693  1.8000
 1584TIP3   OH226386   3.807   6.522   2.294 -0.3435  0.2971  0.7880
 1584TIP3    H126387   3.891   6.505   2.337  0.9317 -1.4640 -2.1378
 1584TIP3    H226388   3.742   6.496   2.359  1.4409 -1.3615  2.0211
 1585TIP3   OH226389   2.570   4.569   2.449  0.2204  0.4792 -0.2713
 1585TIP3    H126390   2.653   4.606   2.478  0.1137  1.5040 -1.1842
 1585TIP3    H226391   2.513   4.574   2.526  1.4835 -1.9540  0.9333
 1586TIP3   OH226392   2.054   2.014   2.642 -0.1304  0.1555  0.2979
 1586TIP3    H126393   2.144   2.024   2.610  0.5603 -1.1270  1.6928
 1586TIP3    H226394   2.064   1.973   2.728 -2.0627 -0.0324  0.4741
 1587TIP3   OH226395   1.865   3.700   0.025  0.0935  0.2950 -0.3498
 1587TIP3    H126396   1.769   3.704   0.020  0.0224 -0.1517  0.3789
 1587TIP3    H226397   1.893   3.681  -0.065 -0.6608 -1.7602 -0.2243
 1588TIP3   OH226398   1.847   4.505   3.911 -0.2469  0.5456 -0.3708
 1588TIP3    H126399   1.775   4.497   3.975 -0.6512  0.1872 -0.8572
 1588TIP3    H226400   1.908   4.566   3.951 -0.1909 -0.1459  0.6507
 1589TIP3   OH226401   1.733   5.715   2.467 -0.2330 -0.0855  0.5166
 1589TIP3    H126402   1.700   5.778   2.532  1.0036  0.5239  0.5735
 1589TIP3    H226403   1.670   5.721   2.395 -0.9382  0.1375  1.1279
 1590TIP3   OH226404   3.801   0.813   0.752 -0.6785  0.0853 -0.2523
 1590TIP3    H126405   3.782   0.877   0.684 -1.3475  0.0886 -0.0707
 1590TIP3    H226406   3.778   0.729   0.713 -0.3918  0.0138 -0.2719
 1591TIP3   OH226407   1.251   0.130   1.224 -0.2962 -0.2564 -0.0925
 1591TIP3    H126408   1.239   0.216   1.184  3.8955  0.8955  0.6061
 1591TIP3    H226409   1.261   0.147   1.318  1.7464 -1.2284 -0.0609
 1592TIP3   OH226410   6.399   4.198   0.691 -0.3645 -0.1339 -0.2222
 1592TIP3    H126411   6.359   4.274   0.650  0.3443  0.6872  0.5664
 1592TIP3    H226412   6.486   4.192   0.650 -1.5544 -2.5175 -2.6819
 1593TIP3   OH226413   0.128   3.087   0.407 -0.1586  0.4137 -0.4501
 1593TIP3    H126414   0.152   3.179   0.416 -0.8608  0.4819  0.9340
 1593TIP3    H226415   0.201   3.048   0.360 -0.4055  1.9062 -2.1881
 1594TIP3   OH226416   3.399   1.616   3.627  0.8417 -0.0489 -0.1391
 1594TIP3    H126417   3.323   1.654   3.672 -0.6833 -1.9116 -0.9884
 1594TIP3    H226418   3.474   1.647   3.677 -0.5084  1.2404  1.2197
 1595TIP3   OH226419   5.614   2.612   1.502  0.3878 -0.2721  0.1101
 1595TIP3    H126420   5.547   2.589   1.567 -0.8129  0.3269 -0.8892
 1595TIP3    H226421   5.634   2.704   1.519 -1.0728  0.3467 -1.3197
 1596TIP3   OH226422   1.783   2.055   2.623  0.0821 -0.1616 -0.2770
 1596TIP3    H126423   1.870   2.018   2.636  0.2438  0.4180  0.3280
 1596TIP3    H226424   1.771   2.056   2.528  1.2266  0.8774 -0.4244
 1597TIP3   OH226425   2.841   2.747   3.249 -0.2632 -0.0116 -0.1373
 1597TIP3    H126426   2.893   2.672   3.219 -0.4713 -0.0442 -0.4216
 1597TIP3    H226427   2.900   2.795   3.307  1.0198  1.3830 -2.4289
 1598TIP3   OH226428   6.073   0.679   2.739  0.4480 -0.4400  0.3409
 1598TIP3    H126429   6.032   0.721   2.814 -1.3980  0.0344 -0.8583
 1598TIP3    H226430   6.167   0.681   2.758  0.0224 -1.1471  3.0125
 1599TIP3   OH226431   5.022   6.600   2.615 -0.4231 -0.2830 -0.3540
 1599TIP3    H126432   4.984   6.523   2.572  1.1356 -0.4657 -1.4999
 1599TIP3    H226433   5.107   6.612   2.572 -0.8569  2.4375 -0.6389
 1600TIP3   OH226434   5.431   2.659   2.296 -0.0037  0.1107 -0.0421
 1600TIP3    H126435   5.434   2.653   2.200 -3.1940 -0.1903 -0.2421
 1600TIP3    H226436   5.428   2.568   2.326 -0.5436  0.2018  0.2017
 1601TIP3   OH226437   3.093   3.815   0.396 -0.1206  0.1000 -0.5372
 1601TIP3    H126438   3.049   3.810   0.481  1.9356 -0.8210  0.5505
 1601TIP3    H226439   3.063   3.898   0.359 -2.1835 -0.1546  0.3995
 1602TIP3   OH226440   5.524   1.026   2.716 -0.2222 -0.6968  0.2382
 1602TIP3    H126441   5.495   1.062   2.632  1.5277 -2.3395 -1.1565
 1602TIP3    H226442   5.619   1.040   2.717 -0.2762 -0.0587  2.3179
 1603TIP3   OH226443   3.864   2.101   1.944  0.6470 -0.4459  0.5467
 1603TIP3    H126444   3.896   2.022   1.901  0.8553  0.5850 -1.2792
 1603TIP3    H226445   3.929   2.168   1.923  1.4656 -0.1161  3.5689
 1604TIP3   OH226446   6.504   3.288   3.511 -0.2732  0.5461 -0.2734
 1604TIP3    H126447   6.592   3.263   3.486  0.0877  0.9421  0.5734
 1604TIP3    H226448   6.515   3.367   3.565 -1.1780  0.9229 -0.6078
 1605TIP3   OH226449   3.955   4.277   2.483 -0.1072 -0.0056  0.2337
 1605TIP3    H126450   3.872   4.263   2.528 -1.4170 -0.9312 -2.2891
 1605TIP3    H226451   4.016   4.216   2.525 -1.1490 -0.5505  0.9989
 1606TIP3   OH226452   0.108   1.277   0.501  0.4906  0.2545  0.4422
 1606TIP3    H126453   0.139   1.340   0.436  0.3348  0.2742  0.3881
 1606TIP3    H226454   0.027   1.315   0.535  0.2494 -0.0548  0.2087
 1607TIP3   OH226455   3.484   4.098   2.757  0.2521 -0.3330 -0.5590
 1607TIP3    H126456   3.420   4.145   2.703 -1.1508 -2.8447 -1.2246
 1607TIP3    H226457   3.435   4.068   2.833  0.8548 -1.4907 -0.5978
 1608TIP3   OH226458   6.704   3.637   1.009 -0.2121  0.1842  0.0534
 1608TIP3    H126459   6.621   3.639   0.962  0.6949  0.5108 -1.6008
 1608TIP3    H226460   6.747   3.719   0.985  0.0884  0.6080  1.8850
 1609TIP3   OH226461   0.017   5.612   0.807 -0.1602  0.2060  0.2009
 1609TIP3    H126462  -0.049   5.678   0.785 -0.2628 -0.3220 -1.1832
 1609TIP3    H226463  -0.033   5.539   0.843 -0.2306  0.1553 -0.0021
 1610TIP3   OH226464   1.006   0.552   0.596  0.5085 -0.2635 -0.1335
 1610TIP3    H126465   0.977   0.508   0.516 -2.3047  0.6729  0.2621
 1610TIP3    H226466   1.020   0.643   0.569  0.9505 -0.2420  0.1594
 1611TIP3   OH226467   2.975   5.121   2.252 -0.0050  0.5023  0.4345
 1611TIP3    H126468   2.935   5.087   2.332  1.0065 -0.7753  0.4302
 1611TIP3    H226469   2.901   5.130   2.191 -0.2298 -3.1689 -0.0502
 1612TIP3   OH226470   0.004   1.905   3.455 -0.5955 -0.0748 -0.1082
 1612TIP3    H126471  -0.084   1.868   3.455 -1.1372  1.0967 -1.3988
 1612TIP3    H226472  -0.001   1.979   3.515 -0.7108  0.4334 -0.7337
 1613TIP3   OH226473   3.770   1.618   2.526 -0.2726  0.1712 -0.3987
 1613TIP3    H126474   3.681   1.651   2.519 -0.0553  1.7165  2.4690
 1613TIP3    H226475   3.823   1.696   2.542  1.1861 -0.9479  0.4700
 1614TIP3   OH226476   3.223   1.655   1.880  0.2969  0.5422  0.0267
 1614TIP3    H126477   3.311   1.672   1.913  1.4059 -1.2156 -1.7836
 1614TIP3    H226478   3.228   1.672   1.786 -0.9489 -0.6638 -0.3086
 1615TIP3   OH226479   0.714   3.126   0.070 -0.3215  0.3649 -0.2885
 1615TIP3    H126480   0.752   3.088   0.149 -0.2629  0.2331 -0.3793
 1615TIP3    H226481   0.722   3.221   0.083 -1.9178  0.4041  0.6518
 1616TIP3   OH226482   1.127   4.887   8.677 -0.5573 -0.4905  0.1879
 1616TIP3    H126483   1.055   4.946   8.654 -0.8224 -0.3763  1.2696
 1616TIP3    H226484   1.134   4.827   8.602  1.2909  2.3159 -2.1147
 1617TIP3   OH226485   0.410   2.690   2.464  0.2052 -0.0170  0.2453
 1617TIP3    H126486   0.320   2.679   2.492  0.0944  0.6102  0.1492
 1617TIP3    H226487   0.431   2.609   2.417 -0.6360  0.2406 -0.6060
 1618TIP3   OH226488   1.797   3.634   3.271  0.0269  0.3860 -0.0569
 1618TIP3    H126489   1.864   3.602   3.332 -0.2873 -0.3867 -0.1026
 1618TIP3    H226490   1.846   3.676   3.201  0.4847 -0.3793 -0.2078
 1619TIP3   OH226491   5.165   5.815   3.075 -0.0970 -0.1427 -0.0264
 1619TIP3    H126492   5.088   5.809   3.018 -0.6182  1.4683  0.4481
 1619TIP3    H226493   5.131   5.798   3.163  0.0742  0.5517  0.1827
 1620TIP3   OH226494   1.009   6.164   3.635 -0.5691 -0.2860  0.0525
 1620TIP3    H126495   0.955   6.179   3.712  1.3911  1.4111  1.2130
 1620TIP3    H226496   1.048   6.078   3.649  0.2952  0.2927  1.3417
 1621TIP3   OH226497   4.615   1.084   2.552 -0.2450  0.4591 -0.5855
 1621TIP3    H126498   4.709   1.090   2.569 -0.1870 -0.7864 -0.3750
 1621TIP3    H226499   4.608   1.023   2.479 -0.9090  0.4338 -0.5069
 1622TIP3   OH226500   6.653   2.160   2.843 -0.3772 -0.4281  0.4320
 1622TIP3    H126501   6.739   2.119   2.847 -0.2529 -0.1244  0.9169
 1622TIP3    H226502   6.607   2.127   2.921 -1.0718 -1.4167 -0.3757
 1623TIP3   OH226503   3.542   3.934   8.758  0.1739 -0.7637 -0.0574
 1623TIP3    H126504   3.536   3.989   8.680  1.3121  1.3440  1.2572
 1623TIP3    H226505   3.601   3.864   8.734 -0.1484 -0.6221 -1.3316
 1624TIP3   OH226506   6.154   0.550   0.354  0.2067  0.5040 -0.0787
 1624TIP3    H126507   6.223   0.567   0.290  3.0651 -2.2017  1.9727
 1624TIP3    H226508   6.118   0.465   0.328 -1.4303  1.2387 -0.3132
 1625TIP3   OH226509   5.556   1.038   3.223 -0.0417 -0.8423 -0.1792
 1625TIP3    H126510   5.584   1.035   3.314  0.5841  0.5553 -0.3158
 1625TIP3    H226511   5.567   1.129   3.197  0.9663 -1.4506 -2.0290
 1626TIP3   OH226512   0.950   4.870   0.134  0.1881 -0.1667  0.1085
 1626TIP3    H126513   1.035   4.873   0.089  1.7444 -3.7646  2.3551
 1626TIP3    H226514   0.910   4.788   0.104 -1.6073  0.4708  0.6400
 1627TIP3   OH226515   0.514   3.186   2.897  0.1304  0.3864  0.2623
 1627TIP3    H126516   0.439   3.184   2.838 -0.2570  2.9111  0.5373
 1627TIP3    H226517   0.577   3.244   2.855 -0.0804  2.1152  2.1391
 1628TIP3   OH226518   4.097   0.485   3.451 -0.3978  0.3489  0.0289
 1628TIP3    H126519   4.085   0.579   3.468 -1.1698  0.3042 -0.2455
 1628TIP3    H226520   4.017   0.458   3.407 -0.6621 -0.6828  1.0822
 1629TIP3   OH226521   2.946   1.782   3.277  0.3934  0.1054  0.1165
 1629TIP3    H126522   3.018   1.728   3.311  0.3731  0.5713  0.9249
 1629TIP3    H226523   2.984   1.828   3.202  1.2821  1.1693  1.1777
 1630TIP3   OH226524   1.822   2.652   0.616 -0.0283  0.1944  0.4477
 1630TIP3    H126525   1.874   2.647   0.536 -0.3620 -1.0082  0.2921
 1630TIP3    H226526   1.826   2.564   0.653 -1.4264  0.2407  0.7714
 1631TIP3   OH226527   5.649   0.431   0.348  0.8026 -0.4558  0.3888
 1631TIP3    H126528   5.577   0.413   0.409 -0.6222  0.6233 -0.8832
 1631TIP3    H226529   5.645   0.358   0.286 -1.2371  1.0753 -1.4277
 1632TIP3   OH226530   3.494   3.551   3.579  0.5341 -0.2027  0.1865
 1632TIP3    H126531   3.407   3.581   3.555 -0.0125 -0.8821  1.2405
 1632TIP3    H226532   3.485   3.520   3.670  1.9442  0.0446  0.4359
 1633TIP3   OH226533   4.537   6.356   3.600 -0.1888  0.3576 -0.3856
 1633TIP3    H126534   4.589   6.434   3.620  1.2614 -0.3145 -1.3651
 1633TIP3    H226535   4.490   6.338   3.681  0.7097  1.2953  0.3797
 1634TIP3   OH226536   0.241   3.636   2.857  0.5114  0.2566 -0.2199
 1634TIP3    H126537   0.315   3.661   2.801  1.8556  1.9284  2.1303
 1634TIP3    H226538   0.281   3.592   2.932 -0.9778  0.2404  0.6029
 1635TIP3   OH226539   4.474   6.659   2.429 -0.3755  0.0582  0.8317
 1635TIP3    H126540   4.451   6.749   2.449  0.5372 -0.3320  4.4280
 1635TIP3    H226541   4.391   6.615   2.411 -0.8667  1.4464 -0.4438
 1636TIP3   OH226542   4.115   2.042   0.676  0.0132 -0.0123  0.9768
 1636TIP3    H126543   4.113   2.001   0.589 -0.9895  0.1526  0.8994
 1636TIP3    H226544   4.189   2.002   0.721 -0.0703 -0.8380  0.3919
 1637TIP3   OH226545   0.286   2.732   3.309  0.2074  0.8815  0.0438
 1637TIP3    H126546   0.219   2.800   3.319 -1.5507 -0.5965 -1.0567
 1637TIP3    H226547   0.301   2.699   3.397 -2.3474 -0.3524  0.1085
 1638TIP3   OH226548   4.025   0.142   2.813  0.0009  0.2400  0.2015
 1638TIP3    H126549   3.957   0.159   2.749  1.8059 -0.4518 -2.0195
 1638TIP3    H226550   3.989   0.175   2.896 -3.9390 -2.0853 -0.3238
 1639TIP3   OH226551   3.695   2.804   3.370  0.3754  0.5829 -0.2496
 1639TIP3    H126552   3.625   2.770   3.427  0.1705 -1.3645 -1.5532
 1639TIP3    H226553   3.701   2.897   3.392 -1.0438  0.3165  1.5208
 1640TIP3   OH226554   1.075   0.770   4.132 -0.4872  0.4106 -0.2453
 1640TIP3    H126555   1.075   0.675   4.142  0.4289 -0.1202 -3.8231
 1640TIP3    H226556   1.160   0.798   4.167 -0.6858 -0.0833  0.6572
 1641TIP3   OH226557   2.838   1.813   0.349  0.9268 -0.2644  0.2694
 1641TIP3    H126558   2.849   1.908   0.359  1.3131 -0.3629  0.9017
 1641TIP3    H226559   2.747   1.797   0.374 -0.1395  0.3014 -2.8764
 1642TIP3   OH226560   3.691   4.187   0.610  0.3463  0.4667 -0.0468
 1642TIP3    H126561   3.651   4.273   0.601 -0.6147  0.0354 -0.0893
 1642TIP3    H226562   3.617   4.126   0.610  0.9844 -0.3341  0.3303
 1643TIP3   OH226563   5.645   3.754   8.569  0.0691 -0.0366  0.4629
 1643TIP3    H126564   5.555   3.779   8.548  0.2474 -0.8170 -1.4189
 1643TIP3    H226565   5.644   3.659   8.569  0.8607 -0.0468  0.5463
 1644TIP3   OH226566   2.307   6.521   3.101 -0.3097 -0.7169  0.6492
 1644TIP3    H126567   2.364   6.448   3.073 -0.6392  0.2827 -3.1243
 1644TIP3    H226568   2.368   6.590   3.127  0.3581  0.0211 -2.5015
 1645TIP3   OH226569   3.011   4.938   0.085  0.3004 -0.0384 -0.4379
 1645TIP3    H126570   3.043   4.986   0.009  0.0119  0.6914 -0.1087
 1645TIP3    H226571   2.952   5.000   0.129  1.2241 -0.0768  0.9274
 1646TIP3   OH226572   1.524   2.802   2.502  0.7438 -0.0152 -0.1196
 1646TIP3    H126573   1.617   2.780   2.507  0.6252 -0.1982  2.2261
 1646TIP3    H226574   1.481   2.737   2.557 -0.1465  2.9224  3.0378
 1647TIP3   OH226575   3.862   3.003   1.840 -0.0409  0.1663 -0.1339
 1647TIP3    H126576   3.771   2.979   1.856  0.8010 -1.7635  2.3597
 1647TIP3    H226577   3.866   3.097   1.859 -1.3681  0.1435  0.3689
 1648TIP3   OH226578   6.695   5.711   3.864 -0.6134  0.0430  0.4513
 1648TIP3    H126579   6.739   5.739   3.944 -0.4093 -1.1149  0.7562
 1648TIP3    H226580   6.751   5.642   3.828  0.0213  1.4452 -1.4236
 1649TIP3   OH226581   3.050   3.665   8.697  0.0382  1.0095 -0.3836
 1649TIP3    H126582   2.994   3.587   8.702 -0.6360  1.2917 -2.3560
 1649TIP3    H226583   3.081   3.678   8.786  0.7451 -1.9304 -0.0834
 1650TIP3   OH226584   1.965   4.274   0.490  0.1222 -0.0314 -0.6479
 1650TIP3    H126585   2.014   4.192   0.484  0.3513  0.0513  0.0163
 1650TIP3    H226586   1.881   4.254   0.450  0.4480 -0.3727 -1.1783
 1651TIP3   OH226587   1.449   2.698   1.337 -0.1426 -0.1187 -0.5438
 1651TIP3    H126588   1.445   2.775   1.280  1.1456 -0.6386 -1.3875
 1651TIP3    H226589   1.472   2.626   1.278  0.0096 -0.9061  0.4472
 1652TIP3   OH226590   1.362   2.185   3.098  0.7005  0.1239  0.1478
 1652TIP3    H126591   1.455   2.163   3.103  0.9084  1.0772  0.7534
 1652TIP3    H226592   1.351   2.258   3.160 -0.4683 -0.0468  0.1720
 1653TIP3   OH226593   5.046   6.700   1.208  0.2737  0.0778  0.7079
 1653TIP3    H126594   4.983   6.770   1.222 -0.6209 -0.5795  0.1169
 1653TIP3    H226595   4.996   6.631   1.165  0.8748 -1.3233  2.1573
 1654TIP3   OH226596   6.315   6.123   3.462 -0.1665 -0.7990 -0.0005
 1654TIP3    H126597   6.348   6.183   3.396  0.0012 -1.5071 -0.5703
 1654TIP3    H226598   6.390   6.105   3.519  0.5700 -2.6011 -1.4353
 1655TIP3   OH226599   5.537   5.281   3.020 -0.2305  0.0173 -0.1256
 1655TIP3    H126600   5.506   5.366   2.990 -1.3176 -0.4329 -0.3524
 1655TIP3    H226601   5.459   5.240   3.059  0.3675 -0.7111  0.3255
 1656TIP3   OH226602   2.702   0.254   1.849  0.8070  0.1609  0.2950
 1656TIP3    H126603   2.665   0.327   1.898 -0.3488 -0.5415  0.5182
 1656TIP3    H226604   2.688   0.178   1.906  1.5451 -0.3121 -0.1416
 1657TIP3   OH226605   3.689   3.141   2.363 -0.1744  0.3072  0.9154
 1657TIP3    H126606   3.608   3.185   2.387  0.2640  1.8808 -0.3024
 1657TIP3    H226607   3.758   3.201   2.391  0.4285  0.7242 -1.2578
 1658TIP3   OH226608   2.792   1.046   0.693 -0.5107 -0.5068  0.2034
 1658TIP3    H126609   2.786   1.058   0.788  0.4562 -0.2256  0.2330
 1658TIP3    H226610   2.795   0.951   0.681  3.1960 -0.5967  0.7532
 1659TIP3   OH226611   4.973   4.154   0.950 -0.4193  0.1155  0.0610
 1659TIP3    H126612   4.964   4.243   0.918  2.2944  0.2052 -0.7471
 1659TIP3    H226613   5.067   4.144   0.965 -0.1209 -3.5752 -2.9004
 1660TIP3   OH226614   4.235   0.982   0.992 -0.7290  0.2231 -0.5865
 1660TIP3    H126615   4.197   0.968   1.079  1.5261  0.1831  0.4772
 1660TIP3    H226616   4.177   0.935   0.932 -2.6652  0.7283  0.8061
 1661TIP3   OH226617   0.748   3.175   0.400  0.0670 -0.6429 -0.3074
 1661TIP3    H126618   0.662   3.209   0.377 -0.2545 -1.6591 -0.6288
 1661TIP3    H226619   0.809   3.230   0.350 -0.2941  0.8828  0.8574
 1662TIP3   OH226620   0.838   1.414   0.799 -0.6388 -0.3409 -0.0685
 1662TIP3    H126621   0.789   1.373   0.871 -0.8702 -0.1672 -0.1249
 1662TIP3    H226622   0.919   1.444   0.839 -0.5902 -0.6068  0.0332
 1663TIP3   OH226623   1.785   5.342   0.700  0.0118  0.4179 -0.2571
 1663TIP3    H126624   1.855   5.318   0.639 -0.1542 -0.6981 -0.0229
 1663TIP3    H226625   1.705   5.337   0.648 -0.2629 -1.6087  0.2624
 1664TIP3   OH226626   5.597   4.406   0.794 -0.0666 -0.2749 -0.2590
 1664TIP3    H126627   5.526   4.406   0.730 -0.3559 -2.2355  0.0063
 1664TIP3    H226628   5.659   4.471   0.761 -0.7388 -0.4309 -1.9247
 1665TIP3   OH226629   1.490   5.042   2.188 -0.1705 -0.0804  0.2560
 1665TIP3    H126630   1.475   5.081   2.102 -0.7018 -1.9475 -0.5541
 1665TIP3    H226631   1.505   5.117   2.246 -3.2670  1.4684 -0.7470
 1666TIP3   OH226632   6.490   5.399   3.717  0.1973  0.0013 -0.1784
 1666TIP3    H126633   6.501   5.455   3.794  0.1743 -0.3415  0.0748
 1666TIP3    H226634   6.520   5.313   3.745  1.2266  0.1137 -0.8753
 1667TIP3   OH226635   4.422   3.241   8.445  0.6529  0.0152 -0.0183
 1667TIP3    H126636   4.352   3.179   8.469 -0.1063  0.1003 -1.8723
 1667TIP3    H226637   4.445   3.283   8.528 -1.2954 -0.2304  0.7155
 1668TIP3   OH226638   2.050   3.963   1.688 -0.3600  0.0427  0.2662
 1668TIP3    H126639   2.057   3.907   1.765 -0.0452 -0.4510 -0.1174
 1668TIP3    H226640   2.072   4.051   1.720 -2.7038  0.3296  1.3014
 1669TIP3   OH226641   3.958   5.975   1.986  0.3629  0.1363  0.4604
 1669TIP3    H126642   4.035   5.982   2.043  1.2183  1.0224 -0.7433
 1669TIP3    H226643   3.982   5.910   1.921  0.7208  1.4767 -0.7990
 1670TIP3   OH226644   3.206   1.262   1.650 -0.3592  0.2980  0.9480
 1670TIP3    H126645   3.117   1.277   1.618 -1.3409 -2.6124  1.9753
 1670TIP3    H226646   3.206   1.302   1.737 -1.0867 -0.6585  1.4124
 1671TIP3   OH226647   5.218   1.795   3.934 -0.6328 -0.6152  0.7253
 1671TIP3    H126648   5.185   1.715   3.976 -1.7040 -0.2471  0.6081
 1671TIP3    H226649   5.159   1.810   3.861  0.7874 -0.8411 -0.5121
 1672TIP3   OH226650   0.078   5.612   2.516 -0.0077  0.2236  0.0084
 1672TIP3    H126651   0.004   5.670   2.500 -0.9343 -0.9079  0.0833
 1672TIP3    H226652   0.086   5.608   2.611 -1.8255 -2.0037  0.1480
 1673TIP3   OH226653   5.890   0.739   3.012 -0.2717  0.0441 -0.1992
 1673TIP3    H126654   5.863   0.831   3.007 -0.6218 -0.0900 -0.9629
 1673TIP3    H226655   5.851   0.699   2.935  0.1494 -0.6814 -0.0415
 1674TIP3   OH226656   3.880   0.322   0.482 -0.2223  0.1469  0.0537
 1674TIP3    H126657   3.876   0.356   0.393 -1.1804 -1.0940 -0.4058
 1674TIP3    H226658   3.910   0.232   0.473 -2.1304 -0.6287  0.7610
 1675TIP3   OH226659   0.818   3.765   0.948  0.6783 -0.2281  0.4496
 1675TIP3    H126660   0.778   3.680   0.934  1.5837 -0.6433  0.2988
 1675TIP3    H226661   0.768   3.825   0.892 -0.0838 -0.6151  0.7042
 1676TIP3   OH226662   5.796   6.230   1.533 -0.6189 -0.0858 -0.5011
 1676TIP3    H126663   5.869   6.289   1.515 -2.2478  2.1156 -0.2674
 1676TIP3    H226664   5.803   6.211   1.627 -0.3685  0.1854 -0.4646
 1677TIP3   OH226665   0.208   3.773   3.672  0.4531 -0.0429  0.0270
 1677TIP3    H126666   0.289   3.796   3.625 -0.1563  1.7516 -0.2103
 1677TIP3    H226667   0.224   3.800   3.762 -0.2222  1.3086 -0.2277
 1678TIP3   OH226668   6.811   0.892   8.250 -0.2303 -0.1292  0.8518
 1678TIP3    H126669   6.734   0.860   8.296 -1.3840  0.1991 -0.7568
 1678TIP3    H226670   6.861   0.814   8.226 -0.9304 -0.4669  0.4823
 1679TIP3   OH226671   2.996   3.293   1.697  0.2485  0.0719 -0.0966
 1679TIP3    H126672   2.922   3.274   1.638  1.1018 -0.2432 -1.1121
 1679TIP3    H226673   3.074   3.276   1.643  1.0638  0.3882  0.9494
 1680TIP3   OH226674   0.309   0.421   8.402 -0.0418 -0.5522  0.1637
 1680TIP3    H126675   0.326   0.330   8.379  1.1736 -0.4565  0.5899
 1680TIP3    H226676   0.388   0.468   8.374  0.4177 -0.0371  2.1074
 1681TIP3   OH226677   2.149   5.587   2.077 -0.3813 -0.1234  0.5491
 1681TIP3    H126678   2.174   5.542   2.158  0.8027 -1.3306 -0.4284
 1681TIP3    H226679   2.225   5.641   2.055 -0.0250 -1.0101 -0.5400
 1682TIP3   OH226680   5.710   5.417   0.095  0.4969 -0.3954  0.2231
 1682TIP3    H126681   5.759   5.359   0.153 -0.2672  1.6264  3.1148
 1682TIP3    H226682   5.774   5.483   0.067  0.2382  0.2888  1.2020
 1683TIP3   OH226683   0.407   6.589   8.569 -0.2594 -0.6353 -0.1032
 1683TIP3    H126684   0.427   6.632   8.486  0.2793 -1.7431 -0.5615
 1683TIP3    H226685   0.492   6.563   8.604 -0.5444 -0.8604  0.4300
 1684TIP3   OH226686   6.436   2.252   0.893  0.0162  0.0265 -0.2342
 1684TIP3    H126687   6.489   2.304   0.953 -0.3667  0.4041 -0.2140
 1684TIP3    H226688   6.429   2.306   0.814 -1.6810  0.7407  0.3426
 1685TIP3   OH226689   0.569   1.793   1.004  0.4083  0.0043  0.2770
 1685TIP3    H126690   0.587   1.743   1.084  3.8795  1.6050  0.6674
 1685TIP3    H226691   0.549   1.726   0.938 -1.2516 -1.4229  2.1378
 1686TIP3   OH226692   1.950   1.369   2.197  0.5489 -0.3913  0.1293
 1686TIP3    H126693   1.971   1.312   2.271 -0.7265  0.7212  1.4091
 1686TIP3    H226694   2.024   1.358   2.137  0.3847 -3.3292  0.2986
 1687TIP3   OH226695   2.812   6.813   1.656  0.0408 -0.4453 -0.0731
 1687TIP3    H126696   2.716   6.809   1.657  0.0433 -0.3933  0.3022
 1687TIP3    H226697   2.840   6.761   1.731  0.3033 -0.3748 -0.1195
 1688TIP3   OH226698   0.410   5.444   1.464  0.1403 -0.2276 -0.5643
 1688TIP3    H126699   0.369   5.531   1.455  0.1794 -0.2964 -1.4966
 1688TIP3    H226700   0.345   5.392   1.511 -1.2417 -0.5497 -2.6732
 1689TIP3   OH226701   4.625   0.671   0.188 -0.2984 -0.5123 -0.2308
 1689TIP3    H126702   4.674   0.606   0.137  0.2636 -0.4915  0.2742
 1689TIP3    H226703   4.537   0.633   0.197 -0.6878 -0.0967 -1.9956
 1690TIP3   OH226704   1.978   2.277   3.491  0.1284 -0.7585 -0.6968
 1690TIP3    H126705   1.893   2.254   3.454 -0.0675  1.0263 -1.4576
 1690TIP3    H226706   1.961   2.350   3.550  1.2252  0.3041 -1.6295
 1691TIP3   OH226707   5.506   1.501   1.444  0.1652 -0.4118  0.4669
 1691TIP3    H126708   5.590   1.516   1.487 -1.5192  3.0923  3.0409
 1691TIP3    H226709   5.475   1.588   1.422 -1.8421 -1.7415 -2.5886
 1692TIP3   OH226710   1.991   4.796   3.420  0.1959  0.2736 -0.6351
 1692TIP3    H126711   1.915   4.748   3.453  1.0347 -0.7895 -0.2123
 1692TIP3    H226712   1.988   4.880   3.466 -0.1308 -0.1752  0.1826
 1693TIP3   OH226713   4.854   2.256   3.440 -0.0753  0.2602 -0.5760
 1693TIP3    H126714   4.796   2.273   3.514 -0.4739  1.1923 -1.0877
 1693TIP3    H226715   4.824   2.316   3.372  3.0309  2.5412 -0.0941
 1694TIP3   OH226716   1.147   4.623   2.637  0.1296 -0.4239  0.4421
 1694TIP3    H126717   1.178   4.660   2.555 -0.4135  0.1926  0.5081
 1694TIP3    H226718   1.142   4.529   2.620 -1.0527 -0.2064 -0.6190
 1695TIP3   OH226719   0.281   0.328   1.435 -0.0942 -0.1253 -0.3426
 1695TIP3    H126720   0.211   0.361   1.380  0.8380 -0.4908 -1.8009
 1695TIP3    H226721   0.239   0.308   1.519 -1.3561  1.3433 -0.5965
 1696TIP3   OH226722   0.045   3.088   2.699 -0.5660  0.5385 -0.0461
 1696TIP3    H126723  -0.032   3.033   2.691 -0.7910  1.0496 -1.8133
 1696TIP3    H226724   0.067   3.113   2.609  1.2008  1.0347  0.4699
 1697TIP3   OH226725   5.586   6.399   1.409  0.1314  0.1734 -0.1363
 1697TIP3    H126726   5.644   6.325   1.426  0.8795  1.0977  1.6646
 1697TIP3    H226727   5.645   6.473   1.395 -0.5971  0.3940 -2.3557
 1698TIP3   OH226728   1.133   5.263   2.799  0.2908 -0.4253 -0.3228
 1698TIP3    H126729   1.064   5.311   2.754  0.8264 -0.5175 -1.2752
 1698TIP3    H226730   1.110   5.269   2.891 -2.1071 -2.1391 -0.7089
 1699TIP3   OH226731   1.818   5.033   2.095 -0.2052 -0.0434 -0.6963
 1699TIP3    H126732   1.771   5.069   2.020 -0.3959  0.0106 -0.5496
 1699TIP3    H226733   1.893   5.091   2.106 -1.1297  1.0147  0.2646
 1700TIP3   OH226734   0.830   5.690   2.824  0.3879  0.1218  0.0757
 1700TIP3    H126735   0.847   5.633   2.749  1.6282 -2.0927  1.9006
 1700TIP3    H226736   0.736   5.678   2.843  0.4188 -0.5673 -0.1762
 1701TIP3   OH226737   3.076   6.805   0.961  0.1810  0.2489  0.0736
 1701TIP3    H126738   3.072   6.710   0.974 -0.3589  0.4074  1.1171
 1701TIP3    H226739   3.167   6.822   0.937  0.7416 -0.3329  1.6743
 1702TIP3   OH226740   0.297   1.564   3.222  0.0656  0.1087  0.5470
 1702TIP3    H126741   0.292   1.473   3.193  0.5228  0.0051  0.7744
 1702TIP3    H226742   0.391   1.579   3.235 -0.0527  0.4444  1.0336
 1703TIP3   OH226743   5.580   4.652   0.378  0.0467 -0.0822  0.0325
 1703TIP3    H126744   5.493   4.613   0.388  0.7577 -1.6801  0.3446
 1703TIP3    H226745   5.616   4.653   0.466  0.3929  0.4677 -0.1144
 1704TIP3   OH226746   1.773   6.295   1.047 -0.2601 -0.3286 -0.5125
 1704TIP3    H126747   1.846   6.353   1.023  1.4249 -2.3576 -0.5606
 1704TIP3    H226748   1.775   6.292   1.142 -0.3680 -0.2980 -0.5088
 1705TIP3   OH226749   1.630   1.467   8.705 -0.1556 -0.4218  0.2422
 1705TIP3    H126750   1.619   1.379   8.669  0.6427 -0.5242  0.2442
 1705TIP3    H226751   1.719   1.492   8.682 -0.1703  0.1451  0.7726
 1706TIP3   OH226752   0.563   1.304   8.631  0.4264  0.1251  0.0329
 1706TIP3    H126753   0.635   1.320   8.570 -0.4004 -1.5859 -1.4863
 1706TIP3    H226754   0.514   1.232   8.592 -1.0657  0.0133  1.9586
 1707TIP3   OH226755   5.332   6.603   2.849  0.1717 -0.1149 -0.1476
 1707TIP3    H126756   5.268   6.533   2.836 -1.5926  1.5097 -0.7271
 1707TIP3    H226757   5.352   6.634   2.760 -0.1862  1.0264  0.1531
 1708TIP3   OH226758   4.073   1.534   3.928 -0.0813 -0.3873 -0.4542
 1708TIP3    H126759   3.991   1.571   3.895 -0.3732  0.9290  1.6119
 1708TIP3    H226760   4.053   1.441   3.944 -0.8605 -0.3042 -0.8932
 1709TIP3   OH226761   4.712   2.506   2.370  0.2733  0.5683  0.2317
 1709TIP3    H126762   4.722   2.561   2.448  2.9319 -0.5651  0.7878
 1709TIP3    H226763   4.771   2.432   2.385 -0.6085 -0.6844 -2.0225
 1710TIP3   OH226764   4.837   3.311   2.324  0.9320 -0.6649 -0.6160
 1710TIP3    H126765   4.899   3.262   2.377 -1.2640 -3.0995 -0.0948
 1710TIP3    H226766   4.832   3.397   2.367  2.3429 -1.1258  0.5601
 1711TIP3   OH226767   4.776   4.999   3.877 -0.6201  0.4760  0.4244
 1711TIP3    H126768   4.821   5.044   3.948  0.5735  0.6819 -0.4310
 1711TIP3    H226769   4.846   4.960   3.824 -1.4303  0.6941 -0.8658
 1712TIP3   OH226770   3.458   2.013   3.924 -0.1482 -0.9716 -0.1104
 1712TIP3    H126771   3.511   2.072   3.977 -1.7198 -0.3916  0.8827
 1712TIP3    H226772   3.464   2.048   3.835  0.9230 -0.7877  0.0304
 1713TIP3   OH226773   3.016   0.243   3.326  0.1121  0.3715 -0.1774
 1713TIP3    H126774   2.943   0.224   3.268  0.3333  1.5147 -0.8527
 1713TIP3    H226775   3.087   0.188   3.294 -0.6948 -1.5696  1.1392
 1714TIP3   OH226776   6.236   5.047   8.591 -0.4345  0.0910 -0.1818
 1714TIP3    H126777   6.244   5.128   8.540 -1.2547  0.8555  0.8624
 1714TIP3    H226778   6.167   4.997   8.547 -0.2124  0.1470 -0.5917
 1715TIP3   OH226779   1.814   1.162   1.879  0.0604 -0.2164 -0.0122
 1715TIP3    H126780   1.819   1.121   1.793  0.4944  0.7129 -0.4443
 1715TIP3    H226781   1.722   1.185   1.891  0.0825  0.0892 -0.4373
 1716TIP3   OH226782   2.786   0.518   2.175  0.1362 -0.3335  0.1625
 1716TIP3    H126783   2.863   0.561   2.215  0.8623 -0.9230 -0.5736
 1716TIP3    H226784   2.775   0.438   2.226 -0.5678  0.1860  0.8532
 1717TIP3   OH226785   1.818   4.296   1.961 -0.0849 -0.3212  0.6438
 1717TIP3    H126786   1.754   4.360   1.931  1.5500  0.7652 -0.7460
 1717TIP3    H226787   1.773   4.246   2.029 -2.8791 -0.5764 -1.2344
 1718TIP3   OH226788   0.994   2.829   1.142  0.7550 -0.5035  0.2703
 1718TIP3    H126789   1.064   2.767   1.125  0.8937 -0.0709 -0.8516
 1718TIP3    H226790   1.008   2.899   1.077 -1.4155 -1.0030 -0.8376
 1719TIP3   OH226791   6.128   0.842   0.031 -0.5114 -0.1335  0.8340
 1719TIP3    H126792   6.143   0.913   0.093  1.8160 -0.2629  0.5181
 1719TIP3    H226793   6.106   0.886  -0.051  1.8695  0.3552  0.3866
 1720TIP3   OH226794   3.621   0.284   0.544 -0.6811  0.3790 -0.0652
 1720TIP3    H126795   3.578   0.342   0.482 -1.8536  1.3648  1.5945
 1720TIP3    H226796   3.715   0.301   0.532 -0.8342  0.1404 -1.8859
 1721TIP3   OH226797   6.534   1.908   0.679 -0.3056  0.2503  0.4035
 1721TIP3    H126798   6.561   1.873   0.764  0.2768  1.2497  0.6498
 1721TIP3    H226799   6.523   1.831   0.624 -2.1586 -0.5441  1.7651
 1722TIP3   OH226800   0.047   6.501   3.988  0.4995 -0.0870 -0.0515
 1722TIP3    H126801  -0.035   6.452   3.992  0.7241 -0.3815  2.1623
 1722TIP3    H226802   0.115   6.434   3.989  0.8054  0.2039 -0.5414
 1723TIP3   OH226803   4.186   5.826   1.475  0.1874  0.2849  0.4137
 1723TIP3    H126804   4.275   5.799   1.454  0.4167  0.7554  0.7586
 1723TIP3    H226805   4.151   5.861   1.393 -0.8317 -2.8516 -0.6271
 1724TIP3   OH226806   3.339   4.158   0.956  0.4106 -0.4396  0.0741
 1724TIP3    H126807   3.324   4.064   0.945  0.5115 -0.5902  1.1599
 1724TIP3    H226808   3.281   4.199   0.891  1.3176 -1.2714 -1.3090
 1725TIP3   OH226809   1.882   4.945   8.017 -0.3469 -0.3895 -0.5336
 1725TIP3    H126810   1.907   5.021   8.070 -0.7197  1.9018 -3.4081
 1725TIP3    H226811   1.787   4.951   8.010 -0.3981 -1.2412 -0.6653
 1726TIP3   OH226812   6.442   1.276   1.806 -0.4717  0.2311 -0.2027
 1726TIP3    H126813   6.394   1.195   1.821  0.4378  0.1595  3.1269
 1726TIP3    H226814   6.534   1.253   1.821 -0.3138  2.0444  2.4640
 1727TIP3   OH226815   4.048   2.470   0.953 -1.1078  0.3776  0.3372
 1727TIP3    H126816   4.069   2.432   0.868 -0.8068 -1.4345  1.1748
 1727TIP3    H226817   4.125   2.521   0.977 -1.6101  1.7933 -0.9115
 1728TIP3   OH226818   2.808   4.537   3.236 -0.3010 -0.2862 -0.1380
 1728TIP3    H126819   2.866   4.478   3.284  1.0407 -0.2541 -1.6712
 1728TIP3    H226820   2.808   4.617   3.287 -1.1467 -1.1407  1.2918
 1729TIP3   OH226821   6.278   1.170   2.329  0.1051  0.2530  0.6814
 1729TIP3    H126822   6.295   1.250   2.279 -0.9160  0.0439 -0.0235
 1729TIP3    H226823   6.333   1.179   2.407  2.2656  0.2565 -0.7645
 1730TIP3   OH226824   4.117   0.951   1.234  0.1885 -0.3146  0.2292
 1730TIP3    H126825   4.136   1.034   1.279 -0.4688 -0.4329  0.7445
 1730TIP3    H226826   4.190   0.894   1.257  0.6875  0.1490 -0.1974
 1731TIP3   OH226827   3.350   5.509   3.392 -0.6095 -0.9097 -0.3321
 1731TIP3    H126828   3.438   5.481   3.368 -1.0738 -0.4150 -2.9611
 1731TIP3    H226829   3.320   5.444   3.455  1.8270 -0.6981  1.1843
 1732TIP3   OH226830   1.329   4.219   3.530  0.6675 -0.4854  0.0968
 1732TIP3    H126831   1.238   4.241   3.549  0.9536  0.9700 -0.0979
 1732TIP3    H226832   1.380   4.282   3.580  1.5207 -0.1594 -1.1369
 1733TIP3   OH226833   3.257   6.211   1.213 -0.1759 -0.2128 -0.3309
 1733TIP3    H126834   3.254   6.151   1.288 -0.7748  0.6120  0.3202
 1733TIP3    H226835   3.226   6.294   1.248 -2.6544 -0.3404 -2.0180
 1734TIP3   OH226836   4.373   2.598   1.499  0.7891  0.0096 -0.3397
 1734TIP3    H126837   4.298   2.609   1.440 -0.4219  1.3620  1.3385
 1734TIP3    H226838   4.345   2.529   1.560  1.4585 -0.3960 -0.4786
 1735TIP3   OH226839   2.032   0.556   0.618  0.0887 -0.4046 -0.2520
 1735TIP3    H126840   2.004   0.492   0.683  3.8342  0.9651  3.1837
 1735TIP3    H226841   1.971   0.629   0.627  1.1529  0.2764  2.9546
 1736TIP3   OH226842   2.220   5.311   1.173  0.0911  0.3468  0.2851
 1736TIP3    H126843   2.311   5.317   1.202  0.0597 -0.1717  0.4957
 1736TIP3    H226844   2.220   5.354   1.087  0.3066  1.3194  0.7580
 1737TIP3   OH226845   4.616   2.032   2.518  0.1791 -0.2663 -0.2369
 1737TIP3    H126846   4.593   2.118   2.482  1.2145  0.6842  1.2723
 1737TIP3    H226847   4.678   2.051   2.589  1.5254 -2.3448 -0.7539
 1738TIP3   OH226848   0.050   0.103   3.624 -0.1527  0.2497  0.1124
 1738TIP3    H126849   0.006   0.174   3.577 -1.1178  0.1254  0.7838
 1738TIP3    H226850   0.019   0.113   3.715 -0.6277 -1.2610  0.1443
 1739TIP3   OH226851   3.801   4.874   3.873  0.2015 -0.3886  0.3261
 1739TIP3    H126852   3.710   4.897   3.855 -0.0052 -1.9153 -0.7966
 1739TIP3    H226853   3.797   4.785   3.907  1.1370  0.2808  2.3348
 1740TIP3   OH226854   3.957   2.936   2.343 -0.6303  0.2637 -0.1418
 1740TIP3    H126855   3.879   2.950   2.397  0.3469  3.2069  0.6995
 1740TIP3    H226856   3.957   3.009   2.281  1.6146  0.5803  0.1428
 1741TIP3   OH226857   1.108   0.768   1.626 -0.0415  0.3771  0.4252
 1741TIP3    H126858   1.197   0.794   1.601 -0.3514 -1.2152 -2.7436
 1741TIP3    H226859   1.067   0.739   1.545 -2.1015 -2.9185  2.4145
 1742TIP3   OH226860   3.972   4.657   3.969 -0.1833 -0.2244  0.3734
 1742TIP3    H126861   4.037   4.668   3.900 -1.5893 -0.1051 -0.9916
 1742TIP3    H226862   4.018   4.680   4.049  1.3694  0.1190 -0.5717
 1743TIP3   OH226863   6.430   2.637   2.920  0.5109  0.0855  0.0163
 1743TIP3    H126864   6.436   2.732   2.927  1.5758  0.0734 -0.5060
 1743TIP3    H226865   6.509   2.612   2.872  0.8728 -1.1719  1.1951
 1744TIP3   OH226866   4.352   1.974   0.767 -0.0776  0.3074 -0.5989
 1744TIP3    H126867   4.407   2.053   0.761  0.6562  0.2303  2.9230
 1744TIP3    H226868   4.415   1.902   0.777 -0.7781 -0.5757 -2.2342
 1745TIP3   OH226869   4.939   0.504   0.281 -0.2136 -0.0375 -0.5890
 1745TIP3    H126870   4.958   0.595   0.303  0.4408 -0.1267 -0.7866
 1745TIP3    H226871   5.018   0.473   0.237 -0.5350 -0.6247 -0.7532
 1746TIP3   OH226872   4.958   4.338   0.616 -0.3214 -0.2087 -0.3998
 1746TIP3    H126873   4.863   4.349   0.612 -0.2815 -0.0915 -1.3784
 1746TIP3    H226874   4.991   4.426   0.636 -0.3909 -0.1221 -0.6620
 1747TIP3   OH226875   3.218   4.872   3.523  0.2703 -0.4402 -0.1917
 1747TIP3    H126876   3.277   4.841   3.592 -0.6379 -0.4811  0.5789
 1747TIP3    H226877   3.131   4.844   3.552 -0.5235  2.2513  0.2147
 1748TIP3   OH226878   3.632   5.949   1.829  0.3180 -0.1300  0.1857
 1748TIP3    H126879   3.681   6.013   1.881  0.1235 -0.2331  0.4933
 1748TIP3    H226880   3.676   5.866   1.845  0.7551 -0.0284 -0.4480
 1749TIP3   OH226881   0.089   2.824   3.888  0.8466 -0.1158  0.3302
 1749TIP3    H126882   0.075   2.821   3.793  1.6815 -0.1540  0.1994
 1749TIP3    H226883   0.090   2.733   3.915  1.1375 -0.1235  0.2930
 1750TIP3   OH226884   2.823   6.708   1.915  0.6695 -0.0868  0.2853
 1750TIP3    H126885   2.755   6.774   1.925 -0.3030 -1.0810  0.4238
 1750TIP3    H226886   2.864   6.703   2.001  0.8571  0.4377  0.2307
 1751TIP3   OH226887   0.400   1.188   0.094  0.0419  0.6885  0.0670
 1751TIP3    H126888   0.451   1.161   0.017 -1.5900  0.9833 -1.1934
 1751TIP3    H226889   0.359   1.108   0.125  1.2644  0.4424  1.1109
 1752TIP3   OH226890   3.793   0.599   3.427  0.1197  0.3323 -0.6745
 1752TIP3    H126891   3.809   0.516   3.381 -0.1236  0.6448 -1.3354
 1752TIP3    H226892   3.830   0.666   3.369  1.8929  0.5776  0.6464
 1753TIP3   OH226893   0.037   2.407   0.757  0.2982 -0.0242  0.0569
 1753TIP3    H126894   0.057   2.491   0.716 -1.0682 -0.1325 -0.8804
 1753TIP3    H226895   0.083   2.343   0.703  1.5787  0.1186  0.9416
 1754TIP3   OH226896   2.409   4.508   2.649  0.5966  0.0365  0.5958
 1754TIP3    H126897   2.439   4.589   2.691 -2.0005  1.9031 -0.8301
 1754TIP3    H226898   2.317   4.500   2.674 -0.9560  0.9166 -3.7971
 1755TIP3   OH226899   5.864   2.751   2.234  0.0448  0.1553  0.1691
 1755TIP3    H126900   5.785   2.748   2.181  0.7146  0.2584 -0.8675
 1755TIP3    H226901   5.847   2.819   2.299 -0.1380  1.2969 -1.0251
 1756TIP3   OH226902   6.727   4.187   2.599 -0.1142  0.1524  0.2144
 1756TIP3    H126903   6.638   4.177   2.564  0.7511  2.0803 -2.8865
 1756TIP3    H226904   6.725   4.270   2.647  0.0009  0.1316  0.2549
 1757TIP3   OH226905   3.727   0.059   2.601  0.0961  0.8511 -0.0219
 1757TIP3    H126906   3.737   0.099   2.515 -0.1216  2.4856  0.6733
 1757TIP3    H226907   3.695   0.130   2.657 -0.6838 -0.4109  1.2037
 1758TIP3   OH226908   6.150   4.418   8.625  0.2580  0.1644 -0.1031
 1758TIP3    H126909   6.141   4.336   8.672 -1.9534  0.4643  0.1156
 1758TIP3    H226910   6.199   4.475   8.685 -0.2962 -0.2521  0.7637
 1759TIP3   OH226911   1.203   2.199   2.012 -0.3619  0.2811  0.1183
 1759TIP3    H126912   1.108   2.197   2.002 -0.4310  0.3568  0.6992
 1759TIP3    H226913   1.235   2.128   1.957 -0.7818  0.0703  0.1430
 1760TIP3   OH226914   2.790   2.733   0.051  0.0156  0.5353  0.3953
 1760TIP3    H126915   2.845   2.790   0.105  0.7250  0.3430 -0.1074
 1760TIP3    H226916   2.722   2.791   0.016 -1.3353  0.3927  2.6249
 1761TIP3   OH226917   0.187   6.744   1.959  0.3972  0.2299  0.6847
 1761TIP3    H126918   0.185   6.837   1.978 -1.7162  0.3640  0.1406
 1761TIP3    H226919   0.097   6.723   1.934  0.4037 -2.3083  2.4284
 1762TIP3   OH226920   1.718   6.671   8.326  0.0587 -0.0567 -0.6112
 1762TIP3    H126921   1.806   6.689   8.360 -0.2775 -1.6064  1.2409
 1762TIP3    H226922   1.714   6.576   8.319 -1.5587 -0.0156 -0.4315
 1763TIP3   OH226923   4.502   2.122   8.778 -0.0927  0.6741 -0.1582
 1763TIP3    H126924   4.536   2.042   8.817 -1.3412  0.2826  0.1771
 1763TIP3    H226925   4.477   2.176   8.854 -0.2195  0.9405 -0.3898
 1764TIP3   OH226926   4.850   6.743   3.044  0.2239  0.1217 -0.6954
 1764TIP3    H126927   4.784   6.730   3.112  1.1095  0.9136  0.3669
 1764TIP3    H226928   4.911   6.671   3.056  0.3334  0.2124 -0.7071
 1765TIP3   OH226929   0.141   3.497   3.940 -0.3833  0.5789  0.7504
 1765TIP3    H126930   0.055   3.476   3.976 -1.0424  2.0110  0.0895
 1765TIP3    H226931   0.172   3.571   3.992  0.4252  0.1191  0.9326
 1766TIP3   OH226932   5.810   6.296   3.106 -0.7001  0.5727 -0.2610
 1766TIP3    H126933   5.825   6.360   3.037  0.9081 -2.0455 -2.5654
 1766TIP3    H226934   5.890   6.298   3.159 -0.2865 -0.1037 -0.8542
 1767TIP3   OH226935   5.349   4.104   2.199  0.3843  0.8034 -0.2767
 1767TIP3    H126936   5.428   4.157   2.207  1.3718 -0.4909 -1.0486
 1767TIP3    H226937   5.380   4.017   2.173 -0.9280 -0.9692  3.4406
 1768TIP3   OH226938   3.925   5.980   0.261  0.1621  0.1582 -0.4028
 1768TIP3    H126939   3.930   5.952   0.170 -0.9618 -1.2145 -0.0729
 1768TIP3    H226940   3.840   5.947   0.292  1.3861 -1.2363  1.7097
 1769TIP3   OH226941   2.018   0.237   1.313 -0.0854  0.1388  0.1761
 1769TIP3    H126942   2.038   0.317   1.362  0.0704 -0.6907  1.5101
 1769TIP3    H226943   2.104   0.204   1.285 -0.0886  0.0630  0.2534
 1770TIP3   OH226944   3.492   0.703   2.545  0.1289  0.0393  0.5678
 1770TIP3    H126945   3.549   0.633   2.575 -0.9070 -1.3295 -0.5087
 1770TIP3    H226946   3.452   0.738   2.624  0.9275 -0.3537  1.1515
 1771TIP3   OH226947   1.211   0.118   8.255 -0.4907  0.1014 -0.1320
 1771TIP3    H126948   1.271   0.045   8.271 -0.9097  0.3983  3.8885
 1771TIP3    H226949   1.268   0.190   8.227  0.4702 -0.6637 -0.2260
 1772TIP3   OH226950   4.334   6.368   1.468  0.3535 -0.1714 -0.3790
 1772TIP3    H126951   4.291   6.294   1.426  0.9383 -0.7659  0.0391
 1772TIP3    H226952   4.426   6.359   1.444  0.2972  1.0169 -1.1738
 1773TIP3   OH226953   1.720   3.914   1.549  0.0216 -0.0299  0.0579
 1773TIP3    H126954   1.692   3.915   1.640  0.1301  0.4829  0.0913
 1773TIP3    H226955   1.810   3.947   1.552  0.2349 -0.5783 -0.1700
 1774TIP3   OH226956   4.795   0.582   0.627 -0.0331  0.4853  0.0933
 1774TIP3    H126957   4.827   0.497   0.598 -1.6534 -0.5780  1.2453
 1774TIP3    H226958   4.793   0.577   0.722  0.9267  2.2656  0.2552
 1775TIP3   OH226959   5.569   5.236   1.099  0.6906 -0.3428  0.8203
 1775TIP3    H126960   5.505   5.170   1.074 -1.0098  1.9005 -1.2244
 1775TIP3    H226961   5.647   5.215   1.046  0.1985 -0.7443  0.2406
 1776TIP3   OH226962   3.734   0.996   4.012  0.2171  0.6192  0.1174
 1776TIP3    H126963   3.826   0.997   4.038 -0.1623  0.1011  1.6136
 1776TIP3    H226964   3.697   0.921   4.059 -0.8744  0.5562 -0.8067
 1777TIP3   OH226965   3.654   4.706   1.276 -1.0113 -0.2214  0.1918
 1777TIP3    H126966   3.715   4.769   1.237  0.0850 -2.1224 -1.3374
 1777TIP3    H226967   3.711   4.643   1.322 -1.6226 -2.5145 -1.9629
 1778TIP3   OH226968   4.099   5.746   1.900  0.0870  0.1509  0.1792
 1778TIP3    H126969   4.180   5.706   1.932 -0.7859 -0.8992  1.1228
 1778TIP3    H226970   4.038   5.673   1.889 -1.4507  1.1370  1.6789
 1779TIP3   OH226971   6.435   5.155   2.696  0.4082 -0.5340  0.3808
 1779TIP3    H126972   6.370   5.178   2.762 -0.4968 -1.4358 -0.1645
 1779TIP3    H226973   6.429   5.224   2.630 -0.5700 -0.9945 -0.0421
 1780TIP3   OH226974   1.682   3.395   0.140 -0.3624 -0.1526  0.3993
 1780TIP3    H126975   1.641   3.466   0.091 -0.6362 -0.3058  0.4073
 1780TIP3    H226976   1.728   3.344   0.073  0.0883  0.2005  0.4309
 1781TIP3   OH226977   4.279   3.238   8.210 -0.8125  0.0968 -0.8210
 1781TIP3    H126978   4.357   3.269   8.256 -0.1446  2.0170 -3.0319
 1781TIP3    H226979   4.206   3.257   8.269  0.2631 -1.1281  1.0112
 1782TIP3   OH226980   1.018   0.883   0.188 -0.1994  0.0028  0.7007
 1782TIP3    H126981   1.081   0.955   0.189 -0.6536  0.4218  2.3013
 1782TIP3    H226982   0.941   0.920   0.143  0.4787 -0.3411 -0.7812
 1783TIP3   OH226983   6.853   3.226   1.320  0.1603  0.7083  0.4897
 1783TIP3    H126984   6.913   3.160   1.352 -0.4398 -0.0045  0.1729
 1783TIP3    H226985   6.866   3.227   1.225 -0.3770  0.4845  0.4073
 1784TIP3   OH226986   6.854   3.799   2.217  0.0680  0.7099  0.2494
 1784TIP3    H126987   6.829   3.891   2.210  1.6903  1.3090  1.6562
 1784TIP3    H226988   6.948   3.801   2.237 -0.1242 -1.2028  1.6290
 1785TIP3   OH226989   2.750   2.456   0.111  0.1906 -0.3563  0.0061
 1785TIP3    H126990   2.767   2.461   0.016  1.4991 -1.0205  0.1752
 1785TIP3    H226991   2.805   2.526   0.148 -1.3719  0.8311  0.1943
 1786TIP3   OH226992   2.512   5.823   0.595 -0.2051 -0.5534  0.3214
 1786TIP3    H126993   2.504   5.777   0.512  0.2880 -0.3671  0.1628
 1786TIP3    H226994   2.543   5.756   0.656  0.2300 -0.5066  0.1586
 1787TIP3   OH226995   6.777   1.080   3.757  0.9234 -0.1651  0.3743
 1787TIP3    H126996   6.720   1.119   3.824 -0.0072 -2.4839  1.0174
 1787TIP3    H226997   6.860   1.127   3.767  0.0613  1.2219  1.4792
 1788TIP3   OH226998   4.466   5.103   8.757 -0.8504  0.0856 -0.4414
 1788TIP3    H126999   4.545   5.156   8.755 -0.1679 -0.8275  1.1149
 1788TIP3    H227000   4.429   5.119   8.844 -0.9694 -1.4884 -0.1851
 1789TIP3   OH227001   3.796   3.215   0.259 -0.5681 -0.4561  0.5935
 1789TIP3    H127002   3.826   3.148   0.197 -0.0876 -1.7023  2.1215
 1789TIP3    H227003   3.789   3.295   0.206 -0.2550 -1.4822 -1.0770
 1790TIP3   OH227004   1.786   5.422   3.024 -0.2046 -0.0379 -0.7603
 1790TIP3    H127005   1.802   5.515   3.008 -0.0428  0.2280  0.7626
 1790TIP3    H227006   1.691   5.415   3.031 -0.2095  0.0343 -0.7493
 1791TIP3   OH227007   4.821   2.920   2.031  0.1502  0.2052  0.6347
 1791TIP3    H127008   4.862   2.883   1.952 -2.4364  1.6430 -1.5603
 1791TIP3    H227009   4.840   3.014   2.026 -2.5444  0.8052 -0.0695
 1792TIP3   OH227010   0.528   6.221   8.530  0.5252  0.5497  0.5425
 1792TIP3    H127011   0.491   6.293   8.478  0.8832  1.5151  1.5878
 1792TIP3    H227012   0.562   6.160   8.464 -0.2948  1.0505 -0.3826
 1793TIP3   OH227013   2.947   2.286   1.625 -0.0286  0.3171  0.3199
 1793TIP3    H127014   2.858   2.319   1.638  0.0217  0.7033 -0.2749
 1793TIP3    H227015   2.942   2.237   1.543 -0.2382 -1.6986  1.4982
 1794TIP3   OH227016   3.332   5.073   1.141  0.5124  0.0841 -0.3622
 1794TIP3    H127017   3.386   5.128   1.084  2.7589 -0.7106  0.8387
 1794TIP3    H227018   3.366   4.984   1.127 -0.7863 -0.5148  0.1499
 1795TIP3   OH227019   0.253   3.903   3.128 -0.1890 -0.6786 -0.0176
 1795TIP3    H127020   0.334   3.868   3.091 -0.0102 -0.7762  0.4475
 1795TIP3    H227021   0.213   3.953   3.058  0.4394 -0.3633 -0.1507
 1796TIP3   OH227022   5.020   4.113   2.570 -0.3907  0.0653 -0.1611
 1796TIP3    H127023   5.049   4.137   2.482 -0.5399 -0.4501 -0.3519
 1796TIP3    H227024   4.944   4.170   2.586 -0.3744  0.1474 -0.3750
 1797TIP3   OH227025   2.387   0.624   1.816  0.5143  0.1687 -0.1288
 1797TIP3    H127026   2.346   0.620   1.903  2.0397  0.0651  0.6259
 1797TIP3    H227027   2.464   0.568   1.823 -0.2721 -1.2947 -2.1411
 1798TIP3   OH227028   4.106   6.167   2.594 -0.2657 -0.2950 -0.2917
 1798TIP3    H127029   4.169   6.125   2.653  0.4862  0.3085 -0.6453
 1798TIP3    H227030   4.079   6.247   2.639 -0.9900 -0.6818 -0.0266
 1799TIP3   OH227031   4.904   5.267   1.665  0.3496 -0.4493  0.3591
 1799TIP3    H127032   4.986   5.250   1.618  0.0176 -1.5035  0.1558
 1799TIP3    H227033   4.901   5.363   1.673  1.2631 -0.3613 -0.2281
 1800TIP3   OH227034   4.008   0.179   1.164 -0.0359 -0.0585  0.0056
 1800TIP3    H127035   3.981   0.269   1.149 -2.7496 -0.9069 -0.6752
 1800TIP3    H227036   4.076   0.185   1.231  0.3992  2.5111 -0.5742
 1801TIP3   OH227037   0.579   4.570   3.483  0.1469 -0.3106  0.0221
 1801TIP3    H127038   0.670   4.590   3.508  0.0034  1.3772 -0.6441
 1801TIP3    H227039   0.529   4.643   3.518 -0.7385 -0.4597 -0.8898
 1802TIP3   OH227040   2.947   6.787   2.155 -0.7792 -0.3466 -0.3578
 1802TIP3    H127041   3.013   6.788   2.086  0.2961  1.8087  0.6007
 1802TIP3    H227042   2.998   6.780   2.236 -1.7614  0.5490  0.3673
 1803TIP3   OH227043   2.533   0.578   2.306  0.4778 -0.2730  0.0638
 1803TIP3    H127044   2.591   0.639   2.261 -0.8170 -0.1375 -1.5612
 1803TIP3    H227045   2.588   0.503   2.327  1.3825  0.1240 -0.8191
 1804TIP3   OH227046   6.599   4.752   8.659 -0.2208 -0.7947  0.1223
 1804TIP3    H127047   6.628   4.779   8.572  1.5303 -0.0091  0.9087
 1804TIP3    H227048   6.563   4.832   8.698 -0.3157 -0.9680  0.3942
 1805TIP3   OH227049   4.195   0.246   1.373 -0.2555  0.3051 -0.2373
 1805TIP3    H127050   4.137   0.228   1.447  0.2403  1.7342  0.5460
 1805TIP3    H227051   4.275   0.197   1.392 -0.3350  0.2252 -0.1111
 1806TIP3   OH227052   2.012   0.720   1.482  0.1052 -0.4984 -0.0248
 1806TIP3    H127053   1.949   0.764   1.539 -0.5105  0.5105 -1.4306
 1806TIP3    H227054   2.098   0.741   1.520 -0.3034 -0.1272  0.7035
 1807TIP3   OH227055   5.830   4.759   0.251 -0.0658 -0.0468  0.5208
 1807TIP3    H127056   5.796   4.847   0.232 -1.7727 -0.5836  0.8916
 1807TIP3    H227057   5.753   4.710   0.280  0.9745 -1.5007  0.9163
 1808TIP3   OH227058   5.766   3.038   1.773  0.2955 -0.1468 -0.2269
 1808TIP3    H127059   5.691   3.083   1.734 -1.1224 -0.6183  1.8027
 1808TIP3    H227060   5.778   2.961   1.718  0.4460  0.8261 -1.6115
 1809TIP3   OH227061   5.822   2.040   3.206  0.7305 -0.1343 -0.6655
 1809TIP3    H127062   5.843   1.951   3.177  0.3948 -1.1355  1.8936
 1809TIP3    H227063   5.812   2.032   3.301 -1.0359  2.3217 -0.5638
 1810TIP3   OH227064   3.703   2.027   2.948 -0.4047  0.4524 -0.0153
 1810TIP3    H127065   3.772   2.006   3.010  0.0421  0.9558 -0.3402
 1810TIP3    H227066   3.631   2.061   3.002 -0.1175  0.6414  0.2497
 1811TIP3   OH227067   2.212   0.558   3.453 -0.1159  0.0477  0.1597
 1811TIP3    H127068   2.137   0.606   3.488 -0.6580 -1.6132  1.4146
 1811TIP3    H227069   2.180   0.469   3.440  1.2504 -0.3603 -0.6675
 1812TIP3   OH227070   2.009   6.432   1.046 -0.0009 -0.0910 -0.0853
 1812TIP3    H127071   2.084   6.487   1.027  0.6430 -0.6357  0.8134
 1812TIP3    H227072   2.033   6.345   1.013 -0.6732 -0.0382 -0.7505
 1813TIP3   OH227073   4.578   1.135   0.532  0.6970 -0.0525  0.6816
 1813TIP3    H127074   4.527   1.074   0.479  1.4570  1.1291 -1.5618
 1813TIP3    H227075   4.534   1.136   0.617 -0.9878 -1.5616 -0.1093
 1814TIP3   OH227076   3.364   6.232   0.954  0.6897  0.1321  0.1207
 1814TIP3    H127077   3.334   6.240   1.044 -0.0800 -0.6177 -0.0545
 1814TIP3    H227078   3.458   6.249   0.958  0.7386 -0.3144  1.1321
 1815TIP3   OH227079   3.353   5.499   1.883  0.2870  0.1864  0.7890
 1815TIP3    H127080   3.289   5.570   1.874  0.7518  0.5970  0.6801
 1815TIP3    H227081   3.374   5.474   1.793  0.5453  0.2964  0.8177
 1816TIP3   OH227082   0.799   4.678   1.227  0.1218 -0.5130 -0.3414
 1816TIP3    H127083   0.733   4.633   1.279 -2.7560  1.7079 -1.7896
 1816TIP3    H227084   0.828   4.751   1.281  1.5136 -1.5175  0.3144
 1817TIP3   OH227085   6.244   0.120   8.717 -0.0384  0.8734 -0.7561
 1817TIP3    H127086   6.276   0.039   8.679  0.5292 -0.0328  1.5190
 1817TIP3    H227087   6.148   0.111   8.714 -0.0571 -1.4615  2.4059
 1818TIP3   OH227088   4.134   3.585   2.928  1.0522  0.2134 -0.3887
 1818TIP3    H127089   4.049   3.569   2.970  0.6989  0.8250 -0.8572
 1818TIP3    H227090   4.198   3.562   2.995  0.4940  1.6730  0.7103
 1819TIP3   OH227091   0.060   5.971   1.974 -0.3817 -0.2163 -0.2162
 1819TIP3    H127092   0.077   6.064   1.957 -1.0294 -0.4133 -2.2484
 1819TIP3    H227093   0.101   5.954   2.058  0.0318  1.8341  0.0537
 1820TIP3   OH227094   3.670   5.808   3.467 -0.6659  0.0806  0.0033
 1820TIP3    H127095   3.667   5.894   3.509 -0.4521  1.1110 -1.9983
 1820TIP3    H227096   3.763   5.788   3.459 -0.7124 -0.2421  0.2293
 1821TIP3   OH227097   1.022   2.348   1.739 -0.0373 -0.2344  0.5680
 1821TIP3    H127098   1.117   2.339   1.734  0.0420  0.9942 -1.6543
 1821TIP3    H227099   0.990   2.264   1.771  1.6414 -1.6411 -1.2750
 1822TIP3   OH227100   3.915   5.535   1.785  0.8031  0.2266  0.1230
 1822TIP3    H127101   3.898   5.601   1.718 -1.5014 -0.8414 -0.4579
 1822TIP3    H227102   3.933   5.455   1.735 -0.7725 -0.5432  0.7365
 1823TIP3   OH227103   2.164   2.603   0.036  0.5611  0.1105 -0.7275
 1823TIP3    H127104   2.256   2.586   0.056  0.9261  0.5866 -1.9053
 1823TIP3    H227105   2.124   2.516   0.027  0.9590 -0.0978 -0.4781
 1824TIP3   OH227106   4.173   5.968   0.088  0.4360  0.3703 -0.1768
 1824TIP3    H127107   4.242   6.024   0.053  3.2983 -2.8897 -0.3768
 1824TIP3    H227108   4.102   5.975   0.024  1.4255  2.2222 -1.1602
 1825TIP3   OH227109   4.277   3.155   7.938  0.3601 -0.3269 -0.2817
 1825TIP3    H127110   4.224   3.227   7.902  1.4687  0.2894 -0.7599
 1825TIP3    H227111   4.287   3.176   8.031  1.8185  0.9412 -0.6680
 1826TIP3   OH227112   4.029   1.986   1.584 -0.1653 -0.1369  0.1409
 1826TIP3    H127113   4.045   2.066   1.634  1.5700 -0.7512  0.6260
 1826TIP3    H227114   4.112   1.968   1.539 -0.3057 -1.9723  0.5220
 1827TIP3   OH227115   2.806   5.445   3.117 -0.0467 -0.1636 -0.0925
 1827TIP3    H127116   2.720   5.477   3.089 -0.5447 -1.6204 -0.3458
 1827TIP3    H227117   2.829   5.378   3.053  1.8699  1.0188 -0.7215
 1828TIP3   OH227118   4.843   3.756   2.935 -0.6846 -0.6219 -0.5874
 1828TIP3    H127119   4.894   3.825   2.893 -0.2321 -1.5770 -1.6667
 1828TIP3    H227120   4.904   3.717   2.998 -0.7460 -0.4351 -0.4118
 1829TIP3   OH227121   6.251   0.603   0.111  0.0583 -0.2208 -0.6636
 1829TIP3    H127122   6.174   0.652   0.082 -0.0129  0.1765  0.1607
 1829TIP3    H227123   6.323   0.666   0.104 -0.0140 -0.0241  0.2895
 1830TIP3   OH227124   1.679   6.582   0.353  0.2115  0.3030 -0.1797
 1830TIP3    H127125   1.756   6.529   0.332  1.6099  1.6231  1.3400
 1830TIP3    H227126   1.623   6.574   0.276  1.4374 -1.4162 -0.9650
 1831TIP3   OH227127   5.972   4.545   0.104  0.8083  0.4632 -0.3197
 1831TIP3    H127128   5.911   4.589   0.163 -1.1510  0.8711 -2.5190
 1831TIP3    H227129   6.001   4.613   0.043 -0.1983 -0.6550 -2.1296
 1832TIP3   OH227130   1.107   3.592   3.905  0.2655  0.5494  0.0086
 1832TIP3    H127131   1.046   3.523   3.876  0.9784  0.6711 -1.9506
 1832TIP3    H227132   1.191   3.547   3.914  0.5845  1.0184 -0.5904
 1833TIP3   OH227133   5.870   3.359   3.461  0.1526  0.5577  0.6268
 1833TIP3    H127134   5.837   3.329   3.546 -4.7102  1.3029 -0.6709
 1833TIP3    H227135   5.819   3.438   3.443  0.3713 -0.0141 -3.2684
 1834TIP3   OH227136   6.728   2.978   2.460 -0.5389 -0.2409 -0.1016
 1834TIP3    H127137   6.737   2.885   2.477  1.4171  0.0039  0.4822
 1834TIP3    H227138   6.665   3.009   2.525 -0.9154 -1.0746 -0.0550
 1835TIP3   OH227139   3.225   2.248   2.438 -0.5796  0.0493  0.3363
 1835TIP3    H127140   3.204   2.334   2.401  0.9483  1.1833  1.9128
 1835TIP3    H227141   3.140   2.210   2.459 -1.2998  1.0937 -0.5454
 1836TIP3   OH227142   3.020   2.331   2.071  0.2033 -0.4909  0.6857
 1836TIP3    H127143   2.929   2.305   2.062  0.6736 -1.5356 -1.9213
 1836TIP3    H227144   3.070   2.258   2.035  2.1150 -0.0342  2.2132
 1837TIP3   OH227145   3.853   6.828   1.798 -0.9498  0.0913  0.7881
 1837TIP3    H127146   3.789   6.767   1.762 -1.4502  0.9271  0.2267
 1837TIP3    H227147   3.915   6.773   1.846 -1.9609 -0.7496  1.1570
 1838TIP3   OH227148   4.991   1.786   2.980  0.2622  0.1801  0.0878
 1838TIP3    H127149   4.911   1.746   3.014 -0.7732  1.8005 -0.3442
 1838TIP3    H227150   4.961   1.847   2.913  1.8910  0.6300 -0.2762
 1839TIP3   OH227151   4.348   6.678   3.893  0.4940 -0.0930 -0.3095
 1839TIP3    H127152   4.391   6.640   3.970  1.0052  1.2344  0.0872
 1839TIP3    H227153   4.414   6.735   3.854  0.5726 -1.4084 -2.3103
 1840TIP3   OH227154   2.294   3.439   3.161 -0.1044  0.4459 -0.5569
 1840TIP3    H127155   2.259   3.417   3.075 -1.7602  0.8969 -0.0265
 1840TIP3    H227156   2.267   3.367   3.218 -3.2091  2.3479  0.5881
 1841TIP3   OH227157   4.221   6.510   1.713 -0.2118  0.5075 -0.8359
 1841TIP3    H127158   4.252   6.451   1.645 -0.0919 -1.5785  0.8926
 1841TIP3    H227159   4.289   6.577   1.720  1.1287 -0.7623 -0.9903
 1842TIP3   OH227160   6.736   4.974   0.138 -0.3095  0.0883  0.5408
 1842TIP3    H127161   6.794   5.050   0.147 -0.5925  0.3389  0.2388
 1842TIP3    H227162   6.663   4.993   0.196  0.3361 -0.6502  1.6525
 1843TIP3   OH227163   5.275   1.054   3.916 -0.1076 -0.3695  0.0203
 1843TIP3    H127164   5.345   0.996   3.944  0.3298  0.5678  0.9927
 1843TIP3    H227165   5.310   1.102   3.842 -0.2601 -0.9310 -0.4172
 1844TIP3   OH227166   5.853   1.446   2.839 -0.6060  0.1347 -0.4757
 1844TIP3    H127167   5.921   1.411   2.781  1.1920 -0.4991  1.8725
 1844TIP3    H227168   5.901   1.485   2.912 -2.7130 -0.7649  1.5414
 1845TIP3   OH227169   2.632   1.491   2.710 -0.1516  0.2483  0.1779
 1845TIP3    H127170   2.554   1.495   2.766 -1.9754 -0.9902 -2.1509
 1845TIP3    H227171   2.704   1.477   2.772 -2.1673 -2.2433  2.1893
 1846TIP3   OH227172   0.407   0.605   2.614 -0.7221  0.1434  0.1667
 1846TIP3    H127173   0.376   0.692   2.587 -1.5001 -0.3309 -0.5503
 1846TIP3    H227174   0.371   0.546   2.547  2.2873 -0.4039 -1.1169
 1847TIP3   OH227175   3.847   2.177   2.775 -0.2224  0.0590 -0.0696
 1847TIP3    H127176   3.784   2.135   2.834  0.3935 -1.6949 -0.5959
 1847TIP3    H227177   3.933   2.150   2.809  0.2308  1.5286  0.0058
 1848TIP3   OH227178   2.668   5.935   1.839  0.2286 -0.2444  0.0537
 1848TIP3    H127179   2.752   5.980   1.850  0.4052 -0.4059 -0.6022
 1848TIP3    H227180   2.656   5.886   1.920  0.4422  0.3125  0.4289
 1849TIP3   OH227181   2.286   2.865   3.082 -0.5947  0.2311  0.4810
 1849TIP3    H127182   2.340   2.863   3.003  0.1768  0.4554  0.9901
 1849TIP3    H227183   2.273   2.774   3.105 -1.5459  0.1329 -0.3759
 1850TIP3   OH227184   6.638   2.117   3.637  0.1907  0.6521 -0.4899
 1850TIP3    H127185   6.729   2.107   3.663  0.1039  1.5781  0.2619
 1850TIP3    H227186   6.590   2.054   3.691  0.4525 -0.4263 -1.4795
 1851TIP3   OH227187   5.909   3.879   0.701 -0.4739 -0.5402  0.2183
 1851TIP3    H127188   5.894   3.911   0.790 -1.5150 -0.1732 -0.0674
 1851TIP3    H227189   5.955   3.951   0.657 -1.1735 -0.1666  0.0879
 1852TIP3   OH227190   3.076   1.259   0.280  0.4013 -0.3045  0.8598
 1852TIP3    H127191   3.068   1.259   0.375  0.0197  3.9226  1.0490
 1852TIP3    H227192   3.169   1.245   0.263  0.2663 -2.5463  1.6869
 1853TIP3   OH227193   4.269   6.269   2.041 -0.0436 -0.4017  0.0258
 1853TIP3    H127194   4.270   6.182   2.081  1.7613 -0.9696 -1.1477
 1853TIP3    H227195   4.230   6.255   1.955 -1.3983  0.3130  0.4966
 1854TIP3   OH227196   2.950   6.783   8.653 -0.1327  0.6474  0.2697
 1854TIP3    H127197   2.970   6.717   8.586  0.9566  1.1375  0.0914
 1854TIP3    H227198   3.018   6.772   8.719 -1.3069  0.0445  1.4147
 1855TIP3   OH227199   4.102   0.624   1.028 -0.0448  0.4921  0.1912
 1855TIP3    H127200   4.157   0.564   1.078 -2.6383 -1.1735  1.2404
 1855TIP3    H227201   4.036   0.655   1.091 -1.3898  0.9906 -1.3706
 1856TIP3   OH227202   0.202   6.012   2.533 -0.1150 -0.4560 -0.5662
 1856TIP3    H127203   0.108   5.993   2.535 -0.0083 -0.9814  1.0628
 1856TIP3    H227204   0.233   5.990   2.621  0.9654  2.5972 -0.0396
 1857TIP3   OH227205   6.678   6.464   0.403 -0.0591 -0.2059  0.1526
 1857TIP3    H127206   6.586   6.453   0.426 -0.4917 -0.1354 -1.4399
 1857TIP3    H227207   6.725   6.406   0.463 -1.3903 -2.5564 -0.9547
 1858TIP3   OH227208   3.246   1.145   3.597  0.2309 -0.0275 -0.5294
 1858TIP3    H127209   3.288   1.066   3.563  0.9921  0.5104 -0.8831
 1858TIP3    H227210   3.292   1.217   3.553 -1.9961  0.5825 -1.9921
 1859TIP3   OH227211   5.627   3.017   0.652 -0.3387  0.2696 -0.4892
 1859TIP3    H127212   5.709   3.028   0.699 -0.0941 -0.8989 -0.6268
 1859TIP3    H227213   5.620   3.097   0.599  0.0735  0.9500  0.4461
 1860TIP3   OH227214   5.457   6.029   2.607 -0.3395 -0.1536 -0.2292
 1860TIP3    H127215   5.520   5.960   2.630 -1.4692 -0.6942  1.4058
 1860TIP3    H227216   5.497   6.073   2.532  1.6089 -0.9668  0.2600
 1861TIP3   OH227217   0.671   5.270   0.785  0.5139  0.2146  0.1942
 1861TIP3    H127218   0.608   5.259   0.714  0.9806 -1.0387 -0.0644
 1861TIP3    H227219   0.617   5.291   0.861 -0.1288  0.1418 -0.2289
 1862TIP3   OH227220   4.069   1.614   2.945 -0.0328 -0.3574  0.2222
 1862TIP3    H127221   4.107   1.535   2.983  1.1711 -0.0431 -0.2784
 1862TIP3    H227222   3.994   1.583   2.894 -1.6140 -0.8160  2.6611
 1863TIP3   OH227223   5.708   0.072   2.654  0.0414  0.2128  0.1296
 1863TIP3    H127224   5.626   0.036   2.621  0.0075  0.0123  0.4296
 1863TIP3    H227225   5.731   0.141   2.591 -0.9203  1.0154  0.6364
 1864TIP3   OH227226   3.769   1.540   3.195  0.2067  0.5052  0.6662
 1864TIP3    H127227   3.805   1.469   3.248 -0.3592 -1.3203 -1.2387
 1864TIP3    H227228   3.817   1.618   3.222  1.5594 -0.7865  2.1430
 1865TIP3   OH227229   0.290   3.208   1.888 -0.2036  0.0907 -0.0082
 1865TIP3    H127230   0.227   3.264   1.843 -2.6966 -0.7648  2.1876
 1865TIP3    H227231   0.280   3.123   1.846  0.5844  0.2827 -0.6077
 1866TIP3   OH227232   1.078   0.933   2.105  0.5491 -0.2988  0.5053
 1866TIP3    H127233   1.036   1.005   2.152 -0.7724 -0.4376 -0.3807
 1866TIP3    H227234   1.128   0.976   2.035 -0.3061 -0.2192 -0.0742
 1867TIP3   OH227235   4.811   6.786   8.343 -0.0529 -0.4318 -0.2287
 1867TIP3    H127236   4.854   6.800   8.427 -2.2054  0.0166  0.8427
 1867TIP3    H227237   4.735   6.844   8.344 -1.3460 -1.9923 -1.5729
 1868TIP3   OH227238   1.966   2.788   1.811  0.1353 -0.2574 -0.0467
 1868TIP3    H127239   1.887   2.758   1.856 -0.2406  0.5146 -0.1693
 1868TIP3    H227240   2.022   2.710   1.806 -0.7033 -0.8671 -0.1595
 1869TIP3   OH227241   0.934   3.721   8.651 -0.5050  0.4179  0.0741
 1869TIP3    H127242   0.850   3.701   8.610  0.3634  0.3334 -1.7205
 1869TIP3    H227243   0.998   3.716   8.580  0.9257  1.2311  1.2532
 1870TIP3   OH227244   6.289   1.734   2.582  0.5991 -0.5646 -0.1452
 1870TIP3    H127245   6.204   1.754   2.620 -0.5760 -0.3379 -2.6773
 1870TIP3    H227246   6.349   1.796   2.623 -0.6388 -0.0451  0.9505
 1871TIP3   OH227247   5.333   4.398   3.477 -0.0922 -0.2616  0.1477
 1871TIP3    H127248   5.387   4.319   3.473 -0.7309 -0.7719  1.2770
 1871TIP3    H227249   5.317   4.421   3.386 -0.3603 -1.7610 -0.2027
 1872TIP3   OH227250   2.137   4.827   1.242  0.4827 -0.6713 -0.1629
 1872TIP3    H127251   2.171   4.765   1.306 -0.3699  0.2720  1.2406
 1872TIP3    H227252   2.210   4.840   1.180  1.2085 -1.8267  0.4238
 1873TIP3   OH227253   4.166   4.672   3.703 -0.4135 -0.2797 -0.1853
 1873TIP3    H127254   4.136   4.641   3.618 -0.8385 -0.5934  0.0787
 1873TIP3    H227255   4.176   4.766   3.691 -1.2845 -0.1969 -0.3446
 1874TIP3   OH227256   4.102   1.007   2.300  0.2162  0.5618 -0.9165
 1874TIP3    H127257   4.193   1.037   2.298  0.5533 -0.3316 -0.0191
 1874TIP3    H227258   4.051   1.086   2.319  1.0260  0.7228  0.8225
 1875TIP3   OH227259   5.253   1.730   1.658 -0.0471  0.0828 -0.1180
 1875TIP3    H127260   5.196   1.698   1.588 -0.1316  0.2302 -0.1168
 1875TIP3    H227261   5.283   1.650   1.702  0.7745 -0.0512 -0.9102
 1876TIP3   OH227262   1.106   5.917   3.639 -0.1244  0.2273 -0.7123
 1876TIP3    H127263   1.068   5.854   3.578  1.7360 -1.1347 -0.5702
 1876TIP3    H227264   1.193   5.935   3.602 -0.5330  2.6369 -0.6527
 1877TIP3   OH227265   2.669   0.950   3.045  0.4961 -0.1645 -0.0244
 1877TIP3    H127266   2.702   0.974   3.132  1.3880 -0.5700 -0.2420
 1877TIP3    H227267   2.618   1.026   3.017  0.1003 -0.0694  0.8957
 1878TIP3   OH227268   3.586   4.486   0.208  0.3969 -0.1798  0.0136
 1878TIP3    H127269   3.609   4.527   0.292 -0.1070 -1.3025  0.7216
 1878TIP3    H227270   3.544   4.404   0.233 -1.4956  0.3515 -1.3061
 1879TIP3   OH227271   2.097   1.675   8.664 -0.6939 -0.1337  0.1592
 1879TIP3    H127272   2.192   1.668   8.665 -0.7410 -0.8151  1.6201
 1879TIP3    H227273   2.078   1.757   8.708 -0.8103 -0.6631  1.1219
 1880TIP3   OH227274   2.393   0.266   1.761 -0.3615  0.2532 -0.3755
 1880TIP3    H127275   2.341   0.331   1.713  1.2445  0.0982 -2.4439
 1880TIP3    H227276   2.480   0.306   1.768  0.1058 -0.8335  0.1259
 1881TIP3   OH227277   3.337   0.989   0.842  0.3831  0.1292 -0.4547
 1881TIP3    H127278   3.378   0.985   0.756  0.9935 -1.0338 -0.1236
 1881TIP3    H227279   3.361   1.076   0.876  0.1863  0.5736 -1.4120
 1882TIP3   OH227280   3.863   6.402   0.213 -1.0620  0.5003 -0.5986
 1882TIP3    H127281   3.801   6.446   0.155 -0.1420  2.4411 -0.1752
 1882TIP3    H227282   3.949   6.421   0.176 -0.5114  1.0563  0.9108
 1883TIP3   OH227283   6.308   3.142   3.094 -0.3237  0.1460 -0.4165
 1883TIP3    H127284   6.362   3.210   3.054 -0.0364 -0.0170 -0.3173
 1883TIP3    H227285   6.312   3.161   3.188 -1.0709  0.5815 -0.4706
 1884TIP3   OH227286   1.732   1.532   0.490  0.3630  0.2682  0.3763
 1884TIP3    H127287   1.691   1.465   0.436  1.3948  1.2359 -1.7341
 1884TIP3    H227288   1.792   1.483   0.547 -2.1072 -0.9484  2.0779
 1885TIP3   OH227289   5.460   0.344   3.219 -0.1215  0.0988 -0.2467
 1885TIP3    H127290   5.527   0.406   3.246 -0.5017  1.8557 -2.9813
 1885TIP3    H227291   5.393   0.350   3.287  0.7041  1.2511  0.5102
 1886TIP3   OH227292   2.075   5.114   0.192  0.5172 -0.2370  0.4587
 1886TIP3    H127293   2.077   5.125   0.097  0.4652  1.2843  0.6156
 1886TIP3    H227294   2.018   5.039   0.206  1.0038 -0.8564 -0.7349
 1887TIP3   OH227295   6.815   6.472   8.673  0.2511  1.3519 -0.2330
 1887TIP3    H127296   6.836   6.495   8.582 -0.2833 -0.3420 -0.8319
 1887TIP3    H227297   6.874   6.525   8.726  2.1174  0.7843 -1.6599
 1888TIP3   OH227298   1.286   6.189   4.129  0.2204 -0.3167 -0.1298
 1888TIP3    H127299   1.266   6.270   4.082  0.0421  0.2023  0.8084
 1888TIP3    H227300   1.230   6.123   4.089  0.4425 -0.0021 -0.9767
 1889TIP3   OH227301   0.276   5.098   3.128 -0.0110 -0.2331 -0.4060
 1889TIP3    H127302   0.359   5.090   3.081  0.6007 -0.3165  0.6748
 1889TIP3    H227303   0.293   5.063   3.215 -0.9986  0.3724  0.0545
 1890TIP3   OH227304   4.103   4.759   2.754  0.3280  0.1378  0.5113
 1890TIP3    H127305   4.021   4.807   2.741  0.0751 -0.3245  0.3806
 1890TIP3    H227306   4.117   4.762   2.849  1.7731  2.8400  0.2818
 1891TIP3   OH227307   4.334   6.213   0.945  0.1804  0.4642 -0.7277
 1891TIP3    H127308   4.334   6.118   0.958  1.1273  0.7447  1.7087
 1891TIP3    H227309   4.405   6.228   0.882  0.6686 -0.3595 -0.3885
 1892TIP3   OH227310   5.974   0.789   0.525  0.4689  0.0627  0.1780
 1892TIP3    H127311   5.930   0.828   0.601 -0.7293  1.5905 -1.2317
 1892TIP3    H227312   6.031   0.859   0.493  0.3721 -0.2834 -0.7811
 1893TIP3   OH227313   2.442   4.544   1.098 -0.4062 -0.0459 -0.0213
 1893TIP3    H127314   2.384   4.522   1.171 -0.9592  0.1044 -0.4136
 1893TIP3    H227315   2.515   4.591   1.139 -0.4413 -0.4336  0.5017
 1894TIP3   OH227316   2.929   6.044   1.801  0.1452 -0.3383  0.1045
 1894TIP3    H127317   2.998   6.083   1.747  1.1510  0.2395  1.7481
 1894TIP3    H227318   2.971   5.968   1.842 -0.0373  0.2456  1.4289
 1895TIP3   OH227319   3.094   5.418   3.184 -0.2208 -0.1891  0.1803
 1895TIP3    H127320   3.122   5.476   3.256 -1.2567 -0.4994  0.8617
 1895TIP3    H227321   3.001   5.439   3.173 -1.0982 -2.8546  1.5951
 1896TIP3   OH227322   0.022   0.038   0.224 -0.4939  0.6356  0.2856
 1896TIP3    H127323   0.114   0.010   0.222 -0.9954 -1.1434 -1.6604
 1896TIP3    H227324   0.025   0.126   0.260  1.6344 -0.4470  3.1690
 1897TIP3   OH227325   0.183   1.907   2.274  0.0280 -0.0268 -0.6749
 1897TIP3    H127326   0.160   1.877   2.186  0.9986  2.6386 -1.9659
 1897TIP3    H227327   0.279   1.902   2.276 -0.0340 -1.0381  0.6612
 1898TIP3   OH227328   4.945   2.867   1.784  0.2292  0.0927  0.3559
 1898TIP3    H127329   4.976   2.944   1.737  1.2244  0.7234  1.9332
 1898TIP3    H227330   4.965   2.793   1.726 -0.3755  0.9706 -1.0054
 1899TIP3   OH227331   4.960   0.579   1.665  0.0840  0.4782 -0.2939
 1899TIP3    H127332   4.927   0.492   1.641 -0.1482  0.8597 -1.4321
 1899TIP3    H227333   5.054   0.567   1.674  0.2423  0.3633 -1.7893
 1900TIP3   OH227334   6.508   2.784   2.646  0.3599 -0.2032 -0.0836
 1900TIP3    H127335   6.516   2.878   2.662  1.5725 -0.5763  1.8987
 1900TIP3    H227336   6.596   2.756   2.621 -0.2469 -0.6593 -1.8438
 1901TIP3   OH227337   4.617   1.789   0.431 -0.8032 -0.0820  0.1014
 1901TIP3    H127338   4.659   1.817   0.512  1.5382 -1.1585 -0.6570
 1901TIP3    H227339   4.561   1.716   0.456  0.3280 -0.7651  0.6963
 1902TIP3   OH227340   0.716   1.487   2.289  0.2661  0.4255 -0.1458
 1902TIP3    H127341   0.718   1.570   2.337  3.7505 -0.1759  1.0759
 1902TIP3    H227342   0.734   1.511   2.198  1.8511  1.0412  0.2907
 1903TIP3   OH227343   2.730   0.409   0.923 -0.7489  0.2306 -0.1678
 1903TIP3    H127344   2.797   0.442   0.863  1.2253 -0.2643  1.6721
 1903TIP3    H227345   2.767   0.328   0.959 -2.9233 -0.8049 -0.0514
 1904TIP3   OH227346   5.704   0.158   1.733 -0.1989 -0.4291 -0.0527
 1904TIP3    H127347   5.676   0.172   1.823  1.1888  0.1704  0.3185
 1904TIP3    H227348   5.709   0.246   1.695 -0.3361 -0.6402 -0.5705
 1905TIP3   OH227349   5.638   2.104   8.538 -0.2396  0.4580  0.2396
 1905TIP3    H127350   5.685   2.025   8.567 -0.4478 -0.2534 -1.2988
 1905TIP3    H227351   5.672   2.173   8.595 -0.7297 -0.8658  2.2950
 1906TIP3   OH227352   3.882   6.704   2.668 -0.5442  0.2474 -0.5324
 1906TIP3    H127353   3.824   6.652   2.723 -1.3919  0.0267 -1.6044
 1906TIP3    H227354   3.827   6.774   2.633  0.3253  1.2545  0.0427
 1907TIP3   OH227355   2.782   6.285   1.858  0.1615  0.3828  0.3594
 1907TIP3    H127356   2.809   6.201   1.821 -0.8944  1.3372 -2.8863
 1907TIP3    H227357   2.861   6.337   1.862  0.1524  0.6218 -1.7704
 1908TIP3   OH227358   2.143   3.531   2.416 -0.4237  0.0505  0.6561
 1908TIP3    H127359   2.123   3.619   2.385  0.0504  0.2652  0.9563
 1908TIP3    H227360   2.224   3.540   2.466 -0.4764 -0.5201  0.8580
 1909TIP3   OH227361   4.967   2.698   3.569 -0.3050 -0.3247 -0.3305
 1909TIP3    H127362   5.014   2.615   3.576  1.4602  0.6047 -0.5117
 1909TIP3    H227363   5.010   2.755   3.634 -2.0031  0.2340  0.3641
 1910TIP3   OH227364   5.205   3.916   0.314 -0.3112 -0.1454  0.2758
 1910TIP3    H127365   5.263   3.898   0.388 -1.7874 -0.1607  1.4754
 1910TIP3    H227366   5.242   3.994   0.273 -1.1869  1.8446  2.9831
 1911TIP3   OH227367   5.811   6.167   1.807 -0.6674  0.4722 -0.9987
 1911TIP3    H127368   5.767   6.210   1.880 -0.7365  0.9757 -1.3274
 1911TIP3    H227369   5.904   6.178   1.823 -0.6811  0.4917 -0.9363
 1912TIP3   OH227370   6.163   5.376   0.758  0.5130 -0.5872 -0.2069
 1912TIP3    H127371   6.183   5.401   0.848  0.7190 -0.1457 -0.3730
 1912TIP3    H227372   6.244   5.392   0.710  0.0034  0.5096 -0.7447
 1913TIP3   OH227373   0.233   1.523   3.667 -0.0314 -0.0650  0.5890
 1913TIP3    H127374   0.251   1.602   3.616 -0.0423  0.1265  0.8788
 1913TIP3    H227375   0.318   1.496   3.701  0.2138 -1.0158 -0.6977
 1914TIP3   OH227376   0.094   5.523   3.838  0.0169 -0.6305 -0.2211
 1914TIP3    H127377   0.046   5.457   3.888  0.9208 -1.7135 -0.7427
 1914TIP3    H227378   0.184   5.515   3.868  0.3907 -0.6199 -1.3047
 1915TIP3   OH227379   3.866   0.517   2.134 -0.4185  0.3097 -0.3556
 1915TIP3    H127380   3.887   0.593   2.189 -0.9546  0.1137  0.1390
 1915TIP3    H227381   3.862   0.444   2.196 -1.3250  0.1385 -0.6009
 1916TIP3   OH227382   3.210   5.150   3.442 -0.5316 -0.2391 -0.0468
 1916TIP3    H127383   3.246   5.162   3.354 -0.7349 -0.7502 -0.2054
 1916TIP3    H227384   3.239   5.063   3.469 -1.8383 -0.7796 -0.2876
 1917TIP3   OH227385   6.446   6.713   1.723 -0.4719 -0.3995  0.2182
 1917TIP3    H127386   6.451   6.709   1.627 -0.9320  1.1819  0.1035
 1917TIP3    H227387   6.354   6.698   1.743 -0.0518 -2.9956  0.6128
 1918TIP3   OH227388   2.542   5.428   2.068  0.0837 -0.4136 -0.1794
 1918TIP3    H127389   2.557   5.497   2.003 -1.4424 -0.5120 -0.6794
 1918TIP3    H227390   2.567   5.468   2.151 -0.0083  0.4857 -0.5651
 1919TIP3   OH227391   6.011   4.227   2.384  0.1939  0.1456  0.1417
 1919TIP3    H127392   5.930   4.179   2.367  0.7193 -1.2752  1.4102
 1919TIP3    H227393   5.985   4.300   2.440 -0.5887  1.3268 -1.6711
 1920TIP3   OH227394   4.357   0.394   1.798  0.2958  0.0133  0.0109
 1920TIP3    H127395   4.296   0.465   1.776 -0.1957 -0.1898  0.6865
 1920TIP3    H227396   4.361   0.395   1.894  0.6299 -0.5883  0.0077
 1921TIP3   OH227397   4.967   4.044   3.350  0.3375 -0.2802 -0.2651
 1921TIP3    H127398   5.056   4.020   3.324  1.6004 -0.0136  3.2564
 1921TIP3    H227399   4.928   3.962   3.380  0.4618  0.0531  0.8538
 1922TIP3   OH227400   6.634   0.425   8.456 -0.2104  0.1689  0.2231
 1922TIP3    H127401   6.561   0.424   8.395 -1.1256  0.8729  1.2701
 1922TIP3    H227402   6.643   0.334   8.485 -1.0328  0.1729  0.4964
 1923TIP3   OH227403   1.945   5.970   0.858  0.3414 -0.2285 -0.6140
 1923TIP3    H127404   1.862   5.923   0.860  0.1616  0.1043  0.2580
 1923TIP3    H227405   2.009   5.905   0.829  0.3967 -1.5105  2.1110
 1924TIP3   OH227406   1.030   2.924   0.728  0.6545 -0.0243  0.2798
 1924TIP3    H127407   0.955   2.931   0.787 -0.2674  1.2297 -0.9829
 1924TIP3    H227408   1.032   2.831   0.704 -0.8374  0.0079 -0.0653
 1925TIP3   OH227409   0.987   6.438   3.818  0.5519  0.3755  0.2056
 1925TIP3    H127410   0.939   6.355   3.816  0.1688  0.5941  0.1263
 1925TIP3    H227411   1.048   6.428   3.891  0.3091  0.1327  0.3826
 1926TIP3   OH227412   0.973   0.604   2.764  0.3207  0.1837  0.1846
 1926TIP3    H127413   0.971   0.508   2.759 -0.1554  0.2240 -0.6750
 1926TIP3    H227414   0.965   0.632   2.672  1.6227  1.0284  0.3073
 1927TIP3   OH227415   3.833   4.488   1.318  0.0508 -0.2537 -0.0708
 1927TIP3    H127416   3.801   4.443   1.396  1.0825  1.0270  1.1198
 1927TIP3    H227417   3.899   4.428   1.282 -0.5482 -0.9267 -0.0707
 1928TIP3   OH227418   2.947   1.975   3.991  0.1120 -0.2665  0.6239
 1928TIP3    H127419   2.860   2.010   4.012 -0.5851 -1.3329 -0.3194
 1928TIP3    H227420   2.929   1.885   3.964  1.6142 -0.7377  1.1449
 1929TIP3   OH227421   0.352   4.654   1.551 -0.2076 -0.1588 -0.6563
 1929TIP3    H127422   0.356   4.632   1.458 -1.7099 -1.7334 -0.4072
 1929TIP3    H227423   0.425   4.608   1.591  0.7992  1.0010 -1.1078
 1930TIP3   OH227424   6.665   0.948   0.244  0.5074  0.1128  0.4118
 1930TIP3    H127425   6.603   1.019   0.226  1.5562  1.1763  0.8713
 1930TIP3    H227426   6.689   0.915   0.158  0.5338  0.7893  0.1543
 1931TIP3   OH227427   4.798   0.951   0.981 -0.5604 -0.3480 -0.1236
 1931TIP3    H127428   4.891   0.935   0.993 -0.6024  0.0624  0.8143
 1931TIP3    H227429   4.793   1.016   0.911 -0.1071  0.0517  0.2090
 1932TIP3   OH227430   0.307   4.986   3.376  0.0289  0.2932 -0.1304
 1932TIP3    H127431   0.367   5.041   3.425  1.1877 -1.3764  0.3977
 1932TIP3    H227432   0.285   4.915   3.436 -0.9035 -0.1840 -1.0072
 1933TIP3   OH227433   0.800   4.739   8.526 -0.4391  0.1406  0.0270
 1933TIP3    H127434   0.772   4.700   8.443 -0.5260  0.7167 -0.2197
 1933TIP3    H227435   0.796   4.833   8.511  1.7097  0.2628 -0.0386
 1934TIP3   OH227436   2.295   4.523   2.040 -0.0390  0.3200  0.0214
 1934TIP3    H127437   2.241   4.534   2.118  1.6239  1.2826  1.1029
 1934TIP3    H227438   2.323   4.612   2.017  1.7290 -0.1854  0.0282
 1935TIP3   OH227439   4.052   4.248   1.919 -0.8039 -0.2650  0.1621
 1935TIP3    H127440   4.120   4.257   1.986 -0.5777 -1.3392  0.0991
 1935TIP3    H227441   3.970   4.261   1.966 -0.6455 -1.0038  0.6607
 1936TIP3   OH227442   0.740   4.303   2.856  0.5147 -0.0055  0.0534
 1936TIP3    H127443   0.653   4.340   2.841  1.0826  1.9004  1.1397
 1936TIP3    H227444   0.740   4.281   2.949  1.8467  2.0016  0.5891
 1937TIP3   OH227445   6.675   0.761   3.025  0.3009  0.4447  0.4356
 1937TIP3    H127446   6.647   0.798   3.108 -2.4654 -2.0106  0.7439
 1937TIP3    H227447   6.746   0.701   3.048 -1.4055 -1.3289  1.3604
 1938TIP3   OH227448   3.715   2.206   2.238  0.9186  0.5446  0.3957
 1938TIP3    H127449   3.629   2.204   2.196 -0.2239  2.8835  2.3594
 1938TIP3    H227450   3.729   2.117   2.271 -1.2638  0.3606  0.9325
 1939TIP3   OH227451   6.715   0.031   3.439  0.1198 -0.0034 -0.4388
 1939TIP3    H127452   6.743   0.014   3.529 -0.8503  0.0488 -0.1172
 1939TIP3    H227453   6.626   0.064   3.447 -0.1040 -0.3266 -1.4456
 1940TIP3   OH227454   2.053   6.811   1.786 -0.1399  0.0851  0.3850
 1940TIP3    H127455   2.040   6.896   1.743 -0.1706 -0.4986 -0.8002
 1940TIP3    H227456   1.968   6.767   1.780  0.0852 -0.3435  0.2740
 1941TIP3   OH227457   0.495   6.141   0.357 -0.1540  0.0575 -0.3029
 1941TIP3    H127458   0.479   6.056   0.398  0.8626 -0.1750 -0.3466
 1941TIP3    H227459   0.415   6.190   0.371 -0.0774 -0.2450  1.3977
 1942TIP3   OH227460   0.832   4.374   1.193  0.1787 -0.2269 -0.3193
 1942TIP3    H127461   0.804   4.463   1.170  0.8392 -0.2291 -1.1901
 1942TIP3    H227462   0.803   4.321   1.119 -0.6939 -0.8451  0.4452
 1943TIP3   OH227463   6.743   5.338   3.924 -0.5702 -0.0659 -0.3913
 1943TIP3    H127464   6.686   5.278   3.972 -0.2812  1.1686  1.5986
 1943TIP3    H227465   6.707   5.340   3.836 -1.7576 -1.6335  0.0154
 1944TIP3   OH227466   4.596   3.074   8.281 -0.0254  0.0091 -0.3202
 1944TIP3    H127467   4.586   3.163   8.249 -0.1642  0.7604  1.7061
 1944TIP3    H227468   4.513   3.031   8.261 -1.7616  1.6907  2.6260
 1945TIP3   OH227469   3.327   1.277   3.062  0.2486  0.2404  0.1121
 1945TIP3    H127470   3.393   1.342   3.085  0.0912  0.6452 -0.5576
 1945TIP3    H227471   3.267   1.277   3.137  0.2120  0.9182  0.0931
 1946TIP3   OH227472   0.537   2.933   1.132  0.2342  0.1805 -0.5455
 1946TIP3    H127473   0.603   2.885   1.183  1.3555  2.0998 -0.1049
 1946TIP3    H227474   0.563   2.918   1.041  0.1645 -0.5800 -0.4513
 1947TIP3   OH227475   0.474   1.949   3.477  0.1070  0.0630 -0.0665
 1947TIP3    H127476   0.527   1.870   3.466 -0.6956 -0.5577  0.3564
 1947TIP3    H227477   0.430   1.936   3.561 -1.4229  0.1136 -0.8251
 1948TIP3   OH227478   2.465   2.146   2.187 -0.3528 -0.6694  0.0403
 1948TIP3    H127479   2.523   2.183   2.254  1.6151 -0.6019 -1.5824
 1948TIP3    H227480   2.443   2.059   2.220 -0.0767 -0.3490  1.1281
 1949TIP3   OH227481   4.237   1.758   0.216  0.1394  0.2381 -0.5094
 1949TIP3    H127482   4.149   1.729   0.190 -0.3809  1.1892  0.1238
 1949TIP3    H227483   4.288   1.677   0.224 -1.1983 -0.5131  1.0028
 1950TIP3   OH227484   4.817   6.772   4.084 -0.2975  0.0229  0.7246
 1950TIP3    H127485   4.868   6.853   4.076 -2.3269  1.2388 -1.0388
 1950TIP3    H227486   4.762   6.787   4.161 -0.3251  0.1289  0.6852
 1951TIP3   OH227487   6.272   0.348   1.314  0.1973  0.0276 -0.1812
 1951TIP3    H127488   6.179   0.371   1.313 -0.0150 -0.6862  1.0172
 1951TIP3    H227489   6.274   0.255   1.289  0.3574 -0.5474  1.7933
 1952TIP3   OH227490   3.113   5.552   7.605 -0.0283 -0.0931  0.1010
 1952TIP3    H127491   3.042   5.587   7.660 -0.1637  0.0277 -0.1483
 1952TIP3    H227492   3.172   5.510   7.667 -1.1907 -1.7298  0.1490
 1953TIP3   OH227493   1.456   1.563   1.521  0.4702  0.0182 -0.3390
 1953TIP3    H127494   1.529   1.510   1.553 -0.8721  0.2581  3.7838
 1953TIP3    H227495   1.382   1.503   1.518  0.4604  0.0340 -3.3752
 1954TIP3   OH227496   3.520   3.973   0.657 -0.0850 -0.2301 -0.2377
 1954TIP3    H127497   3.543   3.888   0.694 -0.3464 -0.4144 -0.4970
 1954TIP3    H227498   3.424   3.975   0.659 -0.1504 -0.5511 -1.5596
 1955TIP3   OH227499   2.485   3.393   8.323 -0.1142  0.2837 -0.8215
 1955TIP3    H127500   2.561   3.371   8.377 -0.1104  1.3417 -0.3683
 1955TIP3    H227501   2.487   3.328   8.252  0.4578 -0.4999 -0.1111
 1956TIP3   OH227502   0.705   1.038   2.897 -0.1716  0.5312  0.0545
 1956TIP3    H127503   0.692   1.054   2.990 -0.9313  0.9350 -0.1162
 1956TIP3    H227504   0.718   0.944   2.890 -0.5697  0.4388  0.5241
 1957TIP3   OH227505   0.742   6.261   1.228 -0.1986  0.2462  0.0941
 1957TIP3    H127506   0.833   6.273   1.200 -0.2452  0.8447  0.1910
 1957TIP3    H227507   0.720   6.341   1.274 -1.3553  0.9197 -1.5177
 1958TIP3   OH227508   6.591   0.296   0.768 -0.2259 -0.0895  0.0247
 1958TIP3    H127509   6.558   0.298   0.679  0.7600 -1.6173 -0.4106
 1958TIP3    H227510   6.653   0.369   0.773  1.3590 -1.3114 -1.2348
 1959TIP3   OH227511   2.310   6.704   1.591 -0.0983  0.3885  0.1633
 1959TIP3    H127512   2.297   6.713   1.497  0.2515  2.1187  0.2489
 1959TIP3    H227513   2.229   6.737   1.630  0.0867  0.4793  0.4781
 1960TIP3   OH227514   3.350   1.225   0.188  0.0712  0.2116 -0.8236
 1960TIP3    H127515   3.353   1.184   0.101 -0.5778 -0.1020 -0.7075
 1960TIP3    H227516   3.439   1.217   0.221  0.1827 -0.2231 -1.2093
 1961TIP3   OH227517   5.104   0.958   1.002  0.0002  0.6376 -0.7132
 1961TIP3    H127518   5.141   0.931   0.918 -1.5458 -0.1652 -1.1855
 1961TIP3    H227519   5.106   1.054   1.000  1.7510  0.6272 -0.8091
 1962TIP3   OH227520   2.347   0.604   2.095  0.1753  0.7273 -0.5359
 1962TIP3    H127521   2.424   0.644   2.136  0.5903 -0.4171 -0.1597
 1962TIP3    H227522   2.276   0.667   2.110  0.8097  1.3194  0.0255
 1963TIP3   OH227523   6.487   4.116   1.573 -0.2030  0.3734 -0.7696
 1963TIP3    H127524   6.519   4.072   1.651 -1.0594 -0.4399 -0.8530
 1963TIP3    H227525   6.553   4.183   1.553 -0.4339  1.2300  1.1784
 1964TIP3   OH227526   1.718   3.344   3.196  0.2493  0.1389  0.2261
 1964TIP3    H127527   1.718   3.284   3.271 -0.6094 -1.2788 -0.8468
 1964TIP3    H227528   1.719   3.431   3.234 -1.8894 -0.5140  1.9249
 1965TIP3   OH227529   1.661   3.537   2.345  0.1399 -0.0822  0.1066
 1965TIP3    H127530   1.693   3.538   2.435  2.4226 -0.9884 -0.6310
 1965TIP3    H227531   1.685   3.623   2.310 -0.0517 -0.0201  0.1236
 1966TIP3   OH227532   2.542   0.075   2.280 -0.0690 -0.5773  0.4002
 1966TIP3    H127533   2.617   0.032   2.321  0.6466 -0.1271 -0.4154
 1966TIP3    H227534   2.567   0.167   2.272 -0.5013 -0.5083 -0.3284
 1967TIP3   OH227535   3.630   4.058   0.946 -0.1716  0.3563  0.0559
 1967TIP3    H127536   3.535   4.061   0.937 -0.5145 -0.4904  2.5215
 1967TIP3    H227537   3.646   3.982   1.003  2.0924 -0.2705 -1.2755
 1968TIP3   OH227538   4.267   5.560   2.908  0.1191  0.1907 -0.0934
 1968TIP3    H127539   4.327   5.630   2.884  1.7505 -1.4689 -1.1148
 1968TIP3    H227540   4.244   5.580   2.999  2.1570  0.9778  0.3251
 1969TIP3   OH227541   3.052   1.611   3.789  0.0460  0.2175 -0.1311
 1969TIP3    H127542   3.029   1.660   3.710 -1.4134 -0.6015 -0.2538
 1969TIP3    H227543   3.138   1.644   3.814 -0.2020  1.6939 -1.1103
 1970TIP3   OH227544   0.100   4.731   7.891 -0.1022 -0.1031 -0.1119
 1970TIP3    H127545   0.068   4.812   7.851 -0.6443 -0.2859 -0.0606
 1970TIP3    H227546   0.053   4.661   7.845  0.9399 -0.4362 -0.6994
 1971TIP3   OH227547   5.973   4.596   1.461  0.1989  0.1330  1.0351
 1971TIP3    H127548   5.892   4.581   1.510  0.2360 -3.3818  0.3341
 1971TIP3    H227549   6.043   4.570   1.521  0.5848  0.2801  0.6563
 1972TIP3   OH227550   5.207   6.110   1.948  0.3474  0.6273  0.1800
 1972TIP3    H127551   5.237   6.147   2.031  2.1459  0.0351 -0.1641
 1972TIP3    H227552   5.184   6.019   1.969  0.9456  0.4340  0.0071
 1973TIP3   OH227553   1.157   0.364   3.591  0.2187 -0.3412 -0.6818
 1973TIP3    H127554   1.080   0.309   3.605  1.6622 -2.2435  0.3455
 1973TIP3    H227555   1.133   0.422   3.519 -3.2351  1.2679  1.5181
 1974TIP3   OH227556   0.427   5.736   0.044  0.7352  0.0608  0.1107
 1974TIP3    H127557   0.508   5.691   0.020  0.3283 -0.2472 -0.7343
 1974TIP3    H227558   0.456   5.825   0.067  1.1662  0.5056 -1.9062
 1975TIP3   OH227559   0.964   2.503   2.382  0.6511 -0.2975 -0.1080
 1975TIP3    H127560   0.895   2.438   2.392 -1.7737  1.9331 -1.2487
 1975TIP3    H227561   0.987   2.500   2.290  1.3425 -0.2762  0.0555
 1976TIP3   OH227562   4.692   3.289   3.247 -0.2694 -0.1593  1.2981
 1976TIP3    H127563   4.748   3.236   3.303 -0.7344 -0.3707  1.5766
 1976TIP3    H227564   4.673   3.234   3.171  1.2451  0.5250  0.3821
 1977TIP3   OH227565   2.464   1.615   0.967 -0.3526  0.1006 -0.2571
 1977TIP3    H127566   2.465   1.570   0.882 -0.1975 -2.9535  1.2413
 1977TIP3    H227567   2.374   1.643   0.978 -0.5661 -0.2394 -1.0313
 1978TIP3   OH227568   4.406   3.392   8.667 -0.3110 -0.4277 -0.1665
 1978TIP3    H127569   4.431   3.449   8.741 -2.2554  0.6785 -0.2959
 1978TIP3    H227570   4.311   3.390   8.670 -0.4232 -0.6423 -2.4447
 1979TIP3   OH227571   6.796   3.801   3.597  0.5145 -0.3980 -0.8209
 1979TIP3    H127572   6.770   3.749   3.521  0.5651 -0.5523 -0.7316
 1979TIP3    H227573   6.891   3.796   3.599  0.6107  0.6975 -1.5278
 1980TIP3   OH227574   5.882   0.398   0.184 -0.0985  0.1648  0.0846
 1980TIP3    H127575   5.874   0.493   0.195 -0.1503  0.5079 -2.3538
 1980TIP3    H227576   5.872   0.384   0.090  0.0839 -2.2611  0.3661
 1981TIP3   OH227577   3.374   3.660   1.860 -0.4211  0.2328 -0.3614
 1981TIP3    H127578   3.439   3.657   1.930 -1.7979  2.5193  1.1471
 1981TIP3    H227579   3.411   3.720   1.796 -1.8997  3.5364  1.6391
 1982TIP3   OH227580   0.967   5.849   2.030  0.2803 -0.4286  0.1284
 1982TIP3    H127581   0.956   5.925   2.087 -0.8822  0.0020 -0.6249
 1982TIP3    H227582   0.879   5.828   2.000  0.4724 -2.5763  0.9016
 1983TIP3   OH227583   1.045   1.704   0.738  0.1136  0.6250 -0.5389
 1983TIP3    H127584   1.082   1.616   0.749  0.1843  0.4106 -2.1402
 1983TIP3    H227585   0.976   1.709   0.803  2.6016  0.8947  2.3022
 1984TIP3   OH227586   4.990   6.174   1.404  0.2884 -0.3092  0.2316
 1984TIP3    H127587   4.944   6.093   1.382  0.2526  0.2327 -1.9378
 1984TIP3    H227588   4.959   6.237   1.339  2.4735  0.6381  0.0308
 1985TIP3   OH227589   4.761   6.110   3.936 -0.1138  0.3356  0.1512
 1985TIP3    H127590   4.758   6.135   4.029  1.6666  2.7719 -0.3426
 1985TIP3    H227591   4.669   6.094   3.914 -0.7283  0.8473  2.0668
 1986TIP3   OH227592   4.462   6.691   2.146 -0.2533 -0.1577 -0.2724
 1986TIP3    H127593   4.473   6.674   2.240  1.3988  0.7337 -0.2804
 1986TIP3    H227594   4.462   6.604   2.106 -1.0400 -0.5518  0.5377
 1987TIP3   OH227595   3.829   3.907   1.243 -0.2593  0.3517 -0.2263
 1987TIP3    H127596   3.751   3.855   1.263 -0.2844 -0.0001 -1.1830
 1987TIP3    H227597   3.852   3.882   1.153 -0.1713  1.8923 -0.6557
 1988TIP3   OH227598   1.664   5.965   2.625  0.1493  0.4923  0.3488
 1988TIP3    H127599   1.620   5.981   2.708 -0.9738  0.9482 -0.3140
 1988TIP3    H227600   1.602   5.996   2.559  0.9709  0.0167 -0.6644
 1989TIP3   OH227601   0.232   0.873   8.604  0.0872  0.1450 -0.9548
 1989TIP3    H127602   0.314   0.825   8.600  0.6984  1.2260 -1.9763
 1989TIP3    H227603   0.171   0.820   8.553  0.6917  0.3167 -1.8771
 1990TIP3   OH227604   4.462   3.398   2.972 -0.4376  0.5441 -0.3405
 1990TIP3    H127605   4.445   3.305   2.955  1.1032 -0.1984  1.7490
 1990TIP3    H227606   4.419   3.416   3.055  1.6825  0.8373  0.7872
 1991TIP3   OH227607   5.120   3.862   2.126 -0.3850 -0.1907  0.1732
 1991TIP3    H127608   5.035   3.824   2.103 -0.7493  0.8235 -0.2145
 1991TIP3    H227609   5.098   3.944   2.171  0.3923 -0.0158  0.2483
 1992TIP3   OH227610   5.770   3.341   0.722  0.3045  1.0588  0.2888
 1992TIP3    H127611   5.774   3.432   0.751 -2.5966  0.5061  3.0487
 1992TIP3    H227612   5.855   3.304   0.747  0.2459  2.2172  2.4638
 1993TIP3   OH227613   1.959   0.389   0.818  0.3054 -0.2959  0.2226
 1993TIP3    H127614   1.919   0.310   0.780  0.8727  0.9248 -3.2804
 1993TIP3    H227615   2.031   0.356   0.872 -1.3016 -2.2327  1.3097
 1994TIP3   OH227616   0.947   5.893   2.974 -1.0774  0.5924 -0.9975
 1994TIP3    H127617   0.943   5.818   2.915 -2.5273  0.4342 -0.7498
 1994TIP3    H227618   0.977   5.855   3.058  0.7784  0.7837 -1.5318
 1995TIP3   OH227619   3.761   2.483   2.117  1.0189  0.1229 -0.2085
 1995TIP3    H127620   3.671   2.511   2.103  1.0408  0.4829  0.3250
 1995TIP3    H227621   3.774   2.410   2.057  0.4023  0.1282 -0.3484
 1996TIP3   OH227622   2.110   3.250   1.012  0.3622  0.3184 -0.5203
 1996TIP3    H127623   2.029   3.266   1.061  0.2991 -2.2929  0.3749
 1996TIP3    H227624   2.089   3.177   0.955  2.1284 -0.5089 -0.1563
 1997TIP3   OH227625   5.104   2.250   3.272  0.1046  0.0095 -0.1886
 1997TIP3    H127626   5.009   2.263   3.275  0.1746  0.8638 -1.1057
 1997TIP3    H227627   5.141   2.336   3.291  0.6705  0.0360 -1.3383
 1998TIP3   OH227628   5.807   2.342   2.044 -0.1947 -0.5410  0.3818
 1998TIP3    H127629   5.768   2.257   2.027 -1.9968  0.1794  0.6033
 1998TIP3    H227630   5.759   2.376   2.119  0.6624  0.5598  0.4673
 1999TIP3   OH227631   4.845   6.812   0.565  0.6321 -0.6407  0.0059
 1999TIP3    H127632   4.849   6.750   0.493 -0.6233 -1.2337  0.4236
 1999TIP3    H227633   4.863   6.897   0.524  0.3142 -1.0115 -0.9370
 2000TIP3   OH227634   1.389   3.923   2.759 -0.1520  0.1538 -0.5814
 2000TIP3    H127635   1.378   3.880   2.845 -2.7558 -0.5640 -1.1745
 2000TIP3    H227636   1.414   3.851   2.701 -1.1496  0.0696 -0.9235
 2001TIP3   OH227637   6.037   4.765   8.681  0.0774  0.2500  0.3496
 2001TIP3    H127638   6.068   4.766   8.591  0.7092  1.8509  0.5413
 2001TIP3    H227639   5.945   4.791   8.674  0.5176  1.9002  0.2452
 2002TIP3   OH227640   5.658   5.086   7.944  0.2776 -0.1959  0.3768
 2002TIP3    H127641   5.657   5.087   8.039 -0.7202 -1.3273  0.3934
 2002TIP3    H227642   5.717   5.015   7.921 -0.0939 -0.4372  0.1604
 2003TIP3   OH227643   0.423   3.880   3.541 -0.0355  0.0636  0.0475
 2003TIP3    H127644   0.457   3.925   3.618  0.0033  0.1857 -0.0427
 2003TIP3    H227645   0.366   3.944   3.499 -2.1717 -0.8179  1.4112
 2004TIP3   OH227646   1.629   0.593   0.585  0.1595 -0.8250  0.7148
 2004TIP3    H127647   1.719   0.623   0.573 -0.6112  1.6132  0.4098
 2004TIP3    H227648   1.636   0.516   0.640  2.4833 -1.2354 -0.0602
 2005TIP3   OH227649   4.732   0.296   8.479 -0.1868  0.1680 -0.1700
 2005TIP3    H127650   4.824   0.316   8.461 -0.3408  1.4554  0.3711
 2005TIP3    H227651   4.713   0.220   8.425  1.7519 -1.3662  1.1642
 2006TIP3   OH227652   2.120   3.375   2.179 -0.5509  0.1215  0.9726
 2006TIP3    H127653   2.127   3.403   2.270 -1.5620  1.0978  0.7611
 2006TIP3    H227654   2.167   3.443   2.129  0.4050 -0.6492  0.7845
 2007TIP3   OH227655   0.978   1.645   2.483  1.0630  0.4500 -0.2045
 2007TIP3    H127656   1.068   1.654   2.450  1.6921  2.6599  1.8090
 2007TIP3    H227657   0.985   1.582   2.554  0.2578 -2.0478 -2.1831
 2008TIP3   OH227658   6.080   4.256   8.259  0.3557  0.5225 -0.2128
 2008TIP3    H127659   6.164   4.245   8.303 -0.7236  2.1886  2.5160
 2008TIP3    H227660   6.045   4.167   8.253  1.1998  0.0803  1.0183
 2009TIP3   OH227661   4.994   2.968   1.224  0.2750 -0.0055 -0.0183
 2009TIP3    H127662   5.005   2.890   1.277  1.0017 -1.2958 -1.9640
 2009TIP3    H227663   4.900   2.972   1.205  0.1173  0.0827  0.7657
 2010TIP3   OH227664   4.538   6.276   0.758 -0.6198  0.0598 -0.5222
 2010TIP3    H127665   4.545   6.258   0.664 -0.5142  0.4933 -0.5993
 2010TIP3    H227666   4.620   6.245   0.795 -1.0140 -0.9247 -0.4348
 2011TIP3   OH227667   2.210   5.453   0.025  0.5585  0.8090 -0.0917
 2011TIP3    H127668   2.181   5.378  -0.026  0.8207  0.8632 -0.3255
 2011TIP3    H227669   2.130   5.502   0.045  0.3382  0.2435  0.4259
 2012TIP3   OH227670   3.032   1.810   2.049 -0.3297  0.2772  0.4579
 2012TIP3    H127671   2.952   1.803   2.101  1.3897 -2.6960  3.0375
 2012TIP3    H227672   3.043   1.724   2.009  1.9568  0.3303  0.8528
 2013TIP3   OH227673   2.107   4.387   2.938  0.4828  0.2900  0.0607
 2013TIP3    H127674   2.127   4.474   2.972  0.8148  1.1209 -2.1211
 2013TIP3    H227675   2.090   4.401   2.845 -3.4902 -1.3574  0.3547
 2014TIP3   OH227676   2.329   4.083   2.887  0.4278 -0.3750 -0.1993
 2014TIP3    H127677   2.376   4.105   2.807  0.1767 -0.9244 -0.5034
 2014TIP3    H227678   2.343   4.158   2.945 -0.7406  0.7880 -1.3431
 2015TIP3   OH227679   5.800   1.326   1.939 -0.4118  0.1722  0.0354
 2015TIP3    H127680   5.755   1.303   1.858 -0.7149 -0.3403  0.3411
 2015TIP3    H227681   5.893   1.327   1.917 -0.3803 -1.4109  0.0161
 2016TIP3   OH227682   2.102   2.335   0.049 -0.1336  0.5839  0.3753
 2016TIP3    H127683   2.095   2.304  -0.041  0.2567 -0.8358  0.8033
 2016TIP3    H227684   2.021   2.305   0.091 -0.1845  0.9874  0.5708
 2017TIP3   OH227685   4.232   0.922   8.035 -0.1256 -0.0680 -0.1713
 2017TIP3    H127686   4.318   0.899   8.000 -0.2005  1.6889 -1.6192
 2017TIP3    H227687   4.170   0.892   7.969 -0.3727  1.7863 -0.8430
 2018TIP3   OH227688   6.203   6.110   3.162  0.6513 -0.9880  0.0955
 2018TIP3    H127689   6.127   6.069   3.120  0.2773 -0.4370  0.2268
 2018TIP3    H227690   6.202   6.075   3.252  1.0144 -1.5845 -0.1258
 2019TIP3   OH227691   5.279   5.272   2.288  0.1416  0.4453  0.8177
 2019TIP3    H127692   5.364   5.243   2.320  0.1002 -1.2199 -0.4454
 2019TIP3    H227693   5.228   5.289   2.368  0.5128 -2.0886  1.7056
 2020TIP3   OH227694   6.404   1.731   8.235  0.4376  0.4496  0.0832
 2020TIP3    H127695   6.409   1.637   8.219  0.6040  0.2835  1.0537
 2020TIP3    H227696   6.332   1.761   8.180  0.0228 -0.3386  0.1848
 2021TIP3   OH227697   3.401   4.051   7.857  0.2558  0.2932 -0.3712
 2021TIP3    H127698   3.354   3.991   7.799 -0.8440  1.2875 -0.5284
 2021TIP3    H227699   3.436   4.118   7.799 -1.1733  1.5055  0.1304
 2022TIP3   OH227700   6.723   0.189   3.813 -0.5953 -0.6342 -0.2931
 2022TIP3    H127701   6.777   0.266   3.831  1.0058 -2.0022  1.0785
 2022TIP3    H227702   6.634   0.216   3.837  0.3415 -0.0381  3.0782
 2023TIP3   OH227703   1.358   0.468   3.198  0.1385  0.5126  0.3715
 2023TIP3    H127704   1.306   0.511   3.130  1.0431 -0.7443 -1.1762
 2023TIP3    H227705   1.436   0.522   3.206  0.5186  0.0964 -0.3869
 2024TIP3   OH227706   0.538   4.255   1.796  0.4959 -0.4388  0.3823
 2024TIP3    H127707   0.546   4.165   1.826  0.5464  0.4553  3.4263
 2024TIP3    H227708   0.627   4.282   1.777  0.4944 -0.9710 -0.4186
 2025TIP3   OH227709   0.997   3.849   3.510 -0.0906 -0.4511  0.4742
 2025TIP3    H127710   1.079   3.840   3.559  1.5320  0.5686 -1.8743
 2025TIP3    H227711   0.979   3.943   3.509 -1.9043 -0.7223  1.7726
 2026TIP3   OH227712   2.546   1.491   1.706  0.6447 -0.1614  0.4137
 2026TIP3    H127713   2.626   1.541   1.726  1.7182 -1.7570  0.3208
 2026TIP3    H227714   2.475   1.548   1.735  1.7091  1.9983 -0.9120
 2027TIP3   OH227715   1.872   6.669   2.340  0.1502  0.3769  0.2229
 2027TIP3    H127716   1.909   6.708   2.420 -2.4711  2.0402  0.7377
 2027TIP3    H227717   1.783   6.646   2.364 -0.4612  0.1929 -2.0416
 2028TIP3   OH227718   0.265   1.994   3.293  0.5640  0.1614  0.1642
 2028TIP3    H127719   0.199   2.037   3.347 -0.1460 -1.5346  0.7372
 2028TIP3    H227720   0.330   1.962   3.355 -0.7219 -2.6040  0.2540
 2029TIP3   OH227721   1.073   0.040   0.956 -0.1382  0.5382  0.7728
 2029TIP3    H127722   1.116  -0.003   1.030  0.6140  1.9868  1.2375
 2029TIP3    H227723   1.082   0.134   0.975 -0.9049  0.9222 -0.6148
 2030TIP3   OH227724   0.679   2.832   8.648  0.3166  0.0285  0.7413
 2030TIP3    H127725   0.680   2.901   8.581  2.3418 -0.3646  0.2828
 2030TIP3    H227726   0.758   2.848   8.700  0.1236 -1.1706  1.4403
 2031TIP3   OH227727   1.392   4.396   3.704  0.1728 -0.1688 -0.0084
 2031TIP3    H127728   1.459   4.454   3.741 -0.9426  1.1785 -0.0144
 2031TIP3    H227729   1.354   4.352   3.780  0.6814 -0.5238  0.0446
 2032TIP3   OH227730   6.515   1.675   0.546 -0.1015  0.2828  0.3930
 2032TIP3    H127731   6.448   1.607   0.557  1.0915 -0.8860  0.6304
 2032TIP3    H227732   6.554   1.657   0.461  0.2708  0.6429  0.4867
 2033TIP3   OH227733   5.366   5.552   3.547 -0.6593  0.5374 -0.2391
 2033TIP3    H127734   5.348   5.536   3.640  1.1680  1.1320  0.2531
 2033TIP3    H227735   5.393   5.643   3.542 -0.1178  0.3439 -1.2514
 2034TIP3   OH227736   6.516   2.100   0.190 -0.3660  0.0093  0.4390
 2034TIP3    H127737   6.541   2.019   0.234  0.4269 -1.1859 -2.0615
 2034TIP3    H227738   6.421   2.104   0.201 -0.2343 -0.3391  2.0137
 2035TIP3   OH227739   5.251   1.276   3.392  0.1885 -0.4557 -0.2342
 2035TIP3    H127740   5.288   1.187   3.387  1.9739  0.1387  1.2399
 2035TIP3    H227741   5.278   1.308   3.478 -0.2883  1.5911 -0.7952
 2036TIP3   OH227742   3.713   3.656   2.398 -0.5961 -0.5902  0.2125
 2036TIP3    H127743   3.631   3.706   2.404 -0.2556  0.0467 -0.2592
 2036TIP3    H227744   3.688   3.567   2.419 -1.1646 -0.1685  1.4261
 2037TIP3   OH227745   4.436   5.563   3.181 -0.0626  0.0044  0.0361
 2037TIP3    H127746   4.381   5.584   3.257 -0.9053 -0.9080 -0.3026
 2037TIP3    H227747   4.444   5.647   3.135  2.4046  1.1263  2.2917
 2038TIP3   OH227748   6.519   2.948   1.021 -0.9076 -0.0850 -0.3210
 2038TIP3    H127749   6.439   2.901   0.999 -1.3859  0.1293  0.8870
 2038TIP3    H227750   6.552   2.980   0.937 -1.6859 -0.8013 -0.9162
 2039TIP3   OH227751   4.408   0.749   4.521 -0.4774  0.0808  0.1450
 2039TIP3    H127752   4.347   0.683   4.554 -0.1086 -0.7960 -0.8600
 2039TIP3    H227753   4.436   0.715   4.436 -0.9121  1.9492 -0.7994
 2040TIP3   OH227754   0.687   5.768   2.010  0.6249  0.1148  0.0625
 2040TIP3    H127755   0.665   5.736   1.922  0.3980 -2.7456  1.0451
 2040TIP3    H227756   0.603   5.788   2.050  0.7932  2.6786 -0.7237
 2041TIP3   OH227757   0.403   6.369   2.603 -0.3517 -0.0022 -0.4634
 2041TIP3    H127758   0.428   6.310   2.674 -0.9380 -0.6290 -0.7657
 2041TIP3    H227759   0.484   6.415   2.580 -0.0585 -0.1260  0.2915
 2042TIP3   OH227760   3.667   3.435   3.118 -0.0244 -0.3292 -0.7721
 2042TIP3    H127761   3.659   3.510   3.177 -1.3701 -0.4823 -0.7254
 2042TIP3    H227762   3.679   3.360   3.177  1.2275 -0.1928 -0.8158
 2043TIP3   OH227763   2.018   5.683   1.427  0.4854 -0.0087 -0.4755
 2043TIP3    H127764   2.100   5.668   1.380  0.1875 -0.0852 -0.9732
 2043TIP3    H227765   2.021   5.622   1.500  0.2482 -0.9997 -1.2717
 2044TIP3   OH227766   1.713   2.272   2.174 -0.5727  0.2287  0.0740
 2044TIP3    H127767   1.695   2.224   2.093 -2.7922 -0.2920  0.7961
 2044TIP3    H227768   1.757   2.352   2.145  2.4227 -1.6795 -1.2571
 2045TIP3   OH227769   1.101   6.845   0.138 -0.5706 -0.3701  0.2573
 2045TIP3    H127770   1.051   6.764   0.151  1.2678 -1.6653 -0.2805
 2045TIP3    H227771   1.123   6.844   0.045 -0.3754  0.6617  0.2908
 2046TIP3   OH227772   0.655   4.918   0.095 -0.5734  0.1218  0.1510
 2046TIP3    H127773   0.734   4.901   0.044 -1.2134  0.8971 -1.1387
 2046TIP3    H227774   0.688   4.946   0.181  0.5412  0.0800 -0.2450
 2047TIP3   OH227775   4.949   6.361   2.499  0.2866  0.1330  0.0255
 2047TIP3    H127776   4.983   6.323   2.418 -0.9228  0.7192 -0.7908
 2047TIP3    H227777   4.944   6.287   2.559 -1.0011 -0.8407 -1.1951
 2048TIP3   OH227778   2.963   4.976   3.377  0.4815  0.0235  0.3522
 2048TIP3    H127779   2.916   4.975   3.460 -1.0399  1.4281 -0.4101
 2048TIP3    H227780   3.045   5.021   3.396 -0.1609  0.9729  0.9941
 2049TIP3   OH227781   0.312   2.051   2.018 -0.4224 -0.1018 -0.1499
 2049TIP3    H127782   0.319   2.147   2.013 -0.7040 -0.0926 -0.3816
 2049TIP3    H227783   0.397   2.019   1.988 -0.9880  0.0270 -2.0172
 2050TIP3   OH227784   3.290   4.952   0.698 -0.4901 -0.3023 -0.2767
 2050TIP3    H127785   3.281   5.023   0.635 -0.0031 -1.1377 -1.3129
 2050TIP3    H227786   3.230   4.975   0.769 -1.1898  0.5658 -1.1254
 2051TIP3   OH227787   4.628   6.219   1.109 -0.3287 -0.0236  0.0834
 2051TIP3    H127788   4.710   6.260   1.135  0.0336  0.1277 -1.2367
 2051TIP3    H227789   4.565   6.292   1.104 -0.0741  0.1559 -0.7078
 2052TIP3   OH227790   1.798   5.988   7.805  0.4112 -0.1425 -0.0611
 2052TIP3    H127791   1.800   6.047   7.880  2.7359  0.7584 -0.7276
 2052TIP3    H227792   1.708   5.994   7.772 -0.3315  0.3289  1.9106
 2053TIP3   OH227793   2.358   3.644   8.352  0.0747  0.1536  0.0923
 2053TIP3    H127794   2.401   3.559   8.344  2.3272  1.3048 -1.4638
 2053TIP3    H227795   2.394   3.682   8.433  0.6121  0.3743 -0.2413
 2054TIP3   OH227796   1.407   6.250   0.940 -0.2130 -0.1180  0.5491
 2054TIP3    H127797   1.434   6.319   0.879 -0.5127 -0.2789  0.2326
 2054TIP3    H227798   1.486   6.232   0.991  0.6620 -1.4323 -1.1538
 2055TIP3   OH227799   2.293   4.849   0.028 -0.0264  0.0617 -0.3072
 2055TIP3    H127800   2.370   4.798  -0.000 -0.5200 -0.9075  0.0584
 2055TIP3    H227801   2.248   4.792   0.090 -1.7752  0.0524 -1.5221
 2056TIP3   OH227802   5.397   0.362   2.707  0.5207 -0.2081  0.5598
 2056TIP3    H127803   5.465   0.390   2.768 -0.2387  1.0677  0.8566
 2056TIP3    H227804   5.445   0.328   2.632  1.5700  2.0652  0.1059
 2057TIP3   OH227805   2.612   6.496   8.610  0.1676 -0.0701  0.2037
 2057TIP3    H127806   2.696   6.482   8.654  0.1304 -1.8940 -0.1979
 2057TIP3    H227807   2.568   6.411   8.615 -1.9168  0.9717  0.8884
 2058TIP3   OH227808   5.714   1.246   1.700 -0.3191 -0.2915  0.2072
 2058TIP3    H127809   5.706   1.301   1.622 -0.1744 -0.1422  0.2962
 2058TIP3    H227810   5.732   1.158   1.666 -2.1400 -0.6171  0.0078
 2059TIP3   OH227811   4.343   1.535   3.879 -0.3281  0.1644 -0.1005
 2059TIP3    H127812   4.252   1.552   3.905  0.1972  3.1029  0.2475
 2059TIP3    H227813   4.366   1.452   3.920 -2.2508  0.3327  1.4368
 2060TIP3   OH227814   1.526   3.208   8.370  0.2089 -0.4497  0.0134
 2060TIP3    H127815   1.506   3.280   8.430 -1.5729 -0.6883 -0.2546
 2060TIP3    H227816   1.457   3.143   8.385  1.1816 -1.6488 -0.4981
 2061TIP3   OH227817   2.399   3.543   2.544  0.1169 -0.0726  0.1204
 2061TIP3    H127818   2.365   3.503   2.624  1.8411  0.4475  1.1611
 2061TIP3    H227819   2.492   3.522   2.543  0.7318  2.3029 -0.2187
 2062TIP3   OH227820   0.241   5.764   0.529  0.2658 -0.0225  0.5562
 2062TIP3    H127821   0.257   5.684   0.580 -0.0918  0.6238  1.7058
 2062TIP3    H227822   0.148   5.762   0.510  0.1473  0.3926  1.0716
 2063TIP3   OH227823   0.351   1.003   3.873  0.2153 -0.3131 -0.2438
 2063TIP3    H127824   0.413   0.958   3.930 -0.3130 -2.0527 -0.9638
 2063TIP3    H227825   0.308   0.932   3.824 -1.6835  0.9009 -0.4227
 2064TIP3   OH227826   4.209   5.163   2.459  0.2794 -0.1090  0.3330
 2064TIP3    H127827   4.273   5.191   2.393 -0.3319  0.9227  0.1548
 2064TIP3    H227828   4.257   5.101   2.514  1.4624  0.6947  0.2492
 2065TIP3   OH227829   3.435   2.434   1.281  0.2014  0.2381 -0.6952
 2065TIP3    H127830   3.362   2.483   1.321 -0.0824 -0.6102 -0.1455
 2065TIP3    H227831   3.481   2.499   1.229 -0.8437  0.8403 -0.9011
 2066TIP3   OH227832   2.824   2.296   0.615 -0.1776 -0.3343 -0.7764
 2066TIP3    H127833   2.824   2.372   0.674  2.2723 -1.0575  0.3107
 2066TIP3    H227834   2.847   2.332   0.529  0.7053  0.2103 -0.3221
 2067TIP3   OH227835   6.007   4.279   3.085  0.1014 -0.2072 -0.1742
 2067TIP3    H127836   5.976   4.190   3.100 -0.4098  0.0462  0.3257
 2067TIP3    H227837   6.011   4.318   3.173  0.8874  0.0806 -0.3250
 2068TIP3   OH227838   3.377   3.697   1.514  0.6238  1.0270 -0.0167
 2068TIP3    H127839   3.406   3.606   1.507  0.5521  0.8386  1.6497
 2068TIP3    H227840   3.449   3.742   1.559  0.2341  1.5623  0.0828
 2069TIP3   OH227841   6.220   5.275   8.435 -0.0548 -0.0097 -0.0743
 2069TIP3    H127842   6.238   5.356   8.483  1.6887 -1.4543  1.9100
 2069TIP3    H227843   6.226   5.300   8.343 -0.6332  2.3032  0.4456
 2070TIP3   OH227844   5.678   3.243   0.480  0.3699  0.1933  0.5013
 2070TIP3    H127845   5.613   3.254   0.411  0.1712 -0.4013  0.5818
 2070TIP3    H227846   5.708   3.331   0.500  1.5197  0.2709 -1.3591
 2071TIP3   OH227847   0.262   3.158   4.031 -0.3915  0.0805 -0.2308
 2071TIP3    H127848   0.290   3.198   4.113  2.2480 -2.7856  0.4720
 2071TIP3    H227849   0.170   3.137   4.045 -0.9996  2.8765  0.5152
 2072TIP3   OH227850   4.638   0.403   1.925  0.3430 -0.5237 -0.0926
 2072TIP3    H127851   4.583   0.435   1.996 -1.2699 -0.8560 -1.1333
 2072TIP3    H227852   4.681   0.325   1.960 -1.8005 -1.7284  0.0248
 2073TIP3   OH227853   5.070   0.141   0.187  0.1886  0.1997 -0.5010
 2073TIP3    H127854   5.150   0.181   0.153  3.6752 -5.2125 -0.0256
 2073TIP3    H227855   5.085   0.132   0.281 -1.6835  0.2796 -0.1483
 2074TIP3   OH227856   0.140   1.239   3.818  0.2179 -0.3722 -0.1811
 2074TIP3    H127857   0.169   1.328   3.837 -0.7984 -0.0674 -0.0158
 2074TIP3    H227858   0.213   1.184   3.846  1.6701  0.4871 -1.9790
 2075TIP3   OH227859   4.059   6.003   4.208 -0.3869 -0.2858  0.0144
 2075TIP3    H127860   4.031   6.051   4.131  2.9301 -0.8144 -1.6977
 2075TIP3    H227861   4.080   6.070   4.273 -0.3098  0.3297 -0.6432
 2076TIP3   OH227862   0.517   0.378   0.604 -0.6080 -0.5572 -0.4610
 2076TIP3    H127863   0.498   0.468   0.632  0.4714 -0.3295 -0.4484
 2076TIP3    H227864   0.537   0.385   0.511  2.6363 -0.2549  0.1426
 2077TIP3   OH227865   0.570   1.008   2.029  0.4245  0.1781 -0.0549
 2077TIP3    H127866   0.576   0.985   2.122 -0.3213  0.7314  0.1355
 2077TIP3    H227867   0.658   1.038   2.007  0.4114  0.8126  0.6872
 2078TIP3   OH227868   1.397   4.639   1.811  0.2863 -0.6708 -0.0484
 2078TIP3    H127869   1.360   4.708   1.757  1.0224 -0.5018 -0.3465
 2078TIP3    H227870   1.456   4.685   1.871  0.3043 -0.9748  0.1696
 2079TIP3   OH227871   6.044   6.235   3.921  0.0803  0.4959 -0.4296
 2079TIP3    H127872   6.036   6.174   3.995 -0.8078  0.3191 -0.6682
 2079TIP3    H227873   6.019   6.320   3.957 -0.4815  0.3864 -0.5508
 2080TIP3   OH227874   6.210   0.170   3.681  0.5303 -0.0370  0.0137
 2080TIP3    H127875   6.296   0.154   3.719  1.2184  1.8797 -0.6551
 2080TIP3    H227876   6.163   0.087   3.692  2.2603 -0.9404  0.8751
 2081TIP3   OH227877   6.210   0.101   4.107  0.4621  0.2587 -0.1308
 2081TIP3    H127878   6.294   0.068   4.074  0.5489  1.6546 -1.3957
 2081TIP3    H227879   6.146   0.034   4.081  1.0554 -0.4019  0.0887
 2082TIP3   OH227880   2.132   3.753   3.589  0.3139  0.4727 -0.4003
 2082TIP3    H127881   2.106   3.716   3.673  0.4605  0.1244 -0.5061
 2082TIP3    H227882   2.218   3.793   3.606  1.1892 -1.1520 -0.7875
 2083TIP3   OH227883   3.628   1.649   1.700  0.3094  0.1540  0.4795
 2083TIP3    H127884   3.691   1.594   1.654 -1.1199 -1.7246  0.6181
 2083TIP3    H227885   3.599   1.712   1.635  0.1689 -0.8583 -0.4833
 2084TIP3   OH227886   6.770   3.899   0.933 -0.1695  0.4355 -0.0628
 2084TIP3    H127887   6.811   3.971   0.980  1.5610  0.4452 -1.4732
 2084TIP3    H227888   6.703   3.941   0.879  0.1196  0.8522 -0.0996
 2085TIP3   OH227889   0.148   2.445   3.287  0.2407 -0.5065 -0.0185
 2085TIP3    H127890   0.150   2.455   3.192  0.7567 -0.2348  0.0119
 2085TIP3    H227891   0.237   2.418   3.310  0.3777  0.3243  0.4710
 2086TIP3   OH227892   0.842   3.813   0.344 -0.0407  0.5696  0.0238
 2086TIP3    H127893   0.923   3.769   0.319 -0.4062  0.0725 -0.2840
 2086TIP3    H227894   0.772   3.751   0.322 -0.3957  0.0834  2.2403
 2087TIP3   OH227895   4.844   5.699   3.212 -0.3043 -0.5599  0.2070
 2087TIP3    H127896   4.900   5.675   3.286  0.2139  0.7103  0.2525
 2087TIP3    H227897   4.817   5.615   3.174  2.6434 -1.2479 -0.6054
 2088TIP3   OH227898   2.584   3.943   2.894 -0.1582 -0.0872  0.5604
 2088TIP3    H127899   2.555   3.890   2.820  1.0668  1.3824 -1.0537
 2088TIP3    H227900   2.503   3.965   2.941 -1.5660  2.0066 -2.4831
 2089TIP3   OH227901   2.963   6.182   0.152  0.1615 -0.6241  0.0323
 2089TIP3    H127902   2.930   6.099   0.119 -1.5434 -0.5739  1.4721
 2089TIP3    H227903   3.025   6.157   0.221 -1.5629 -0.7921  1.6157
 2090TIP3   OH227904   2.857   5.375   1.129 -0.1976  0.0521 -1.3171
 2090TIP3    H127905   2.810   5.302   1.169  1.2638 -0.1776  0.0256
 2090TIP3    H227906   2.830   5.373   1.037 -1.6205 -0.9944 -0.9087
 2091TIP3   OH227907   5.401   2.111   2.179  0.4851  0.2027  0.4965
 2091TIP3    H127908   5.495   2.104   2.194  0.3010 -1.8253  0.9524
 2091TIP3    H227909   5.364   2.131   2.265  0.4404  0.3302  0.4480
 2092TIP3   OH227910   5.478   1.230   0.483  0.4675  0.2988  0.0450
 2092TIP3    H127911   5.523   1.172   0.544  1.7903 -0.2644 -1.3843
 2092TIP3    H227912   5.411   1.176   0.443  1.2213 -0.0683 -0.7564
 2093TIP3   OH227913   6.525   5.453   8.554 -0.0673  0.2919 -0.6511
 2093TIP3    H127914   6.432   5.469   8.572  0.2967  0.5151  1.2135
 2093TIP3    H227915   6.536   5.477   8.462 -1.1918  3.3092 -0.1105
 2094TIP3   OH227916   5.853   2.539   8.767 -0.2962 -0.2114 -0.0815
 2094TIP3    H127917   5.944   2.523   8.792  0.8161  0.8287 -3.0021
 2094TIP3    H227918   5.844   2.635   8.771 -0.3972 -0.0850 -2.2331
 2095TIP3   OH227919   4.539   2.867   3.051 -0.5007  0.0341 -0.0636
 2095TIP3    H127920   4.598   2.941   3.067  0.6328 -0.7172 -0.6194
 2095TIP3    H227921   4.553   2.844   2.960  0.8664 -2.2625  0.6357
 2096TIP3   OH227922   3.383   0.938   3.506  0.0890  0.2568 -0.0865
 2096TIP3    H127923   3.344   0.892   3.432 -1.4486  1.1656  0.1179
 2096TIP3    H227924   3.374   0.877   3.579  3.2402 -1.4102 -0.8920
 2097TIP3   OH227925   0.576   0.837   3.484  0.1605  0.3485 -0.5565
 2097TIP3    H127926   0.607   0.750   3.507 -0.2565  0.8014  2.1119
 2097TIP3    H227927   0.510   0.857   3.552  1.7232  3.5145  0.2219
 2098TIP3   OH227928   5.334   2.243   3.060 -0.3102  0.0528  0.1271
 2098TIP3    H127929   5.318   2.181   2.989  0.8763 -1.5362  1.1679
 2098TIP3    H227930   5.262   2.229   3.121 -1.6634  1.8422 -0.9622
 2099TIP3   OH227931   4.220   6.651   8.236  0.1876  0.9259 -0.1661
 2099TIP3    H127932   4.286   6.717   8.259  0.7440  0.4232 -0.2887
 2099TIP3    H227933   4.271   6.572   8.219 -0.4537  0.5338 -0.2786
 2100TIP3   OH227934   3.477   2.793   3.010  0.1178 -0.4567 -0.3613
 2100TIP3    H127935   3.504   2.783   2.918 -0.0518  1.3034 -0.6384
 2100TIP3    H227936   3.527   2.869   3.041 -0.8737 -0.1791  0.5877
 2101TIP3   OH227937   3.890   4.823   2.204 -0.3359  0.0876  0.1940
 2101TIP3    H127938   3.852   4.900   2.162  2.7351  2.4759  1.4464
 2101TIP3    H227939   3.841   4.813   2.286 -1.1588  0.2891 -0.2668
 2102TIP3   OH227940   3.005   4.936   0.430 -0.2554  0.1053  0.1275
 2102TIP3    H127941   3.087   4.982   0.449  0.4320 -0.7823 -0.6301
 2102TIP3    H227942   2.955   4.998   0.377  0.6473  0.0152 -0.8490
 2103TIP3   OH227943   2.064   3.396   1.316 -0.0070 -0.9010  0.2570
 2103TIP3    H127944   2.144   3.358   1.353 -0.2861  0.9437  3.1165
 2103TIP3    H227945   2.094   3.474   1.270 -0.0796 -0.4945  0.8845
 2104TIP3   OH227946   2.557   3.226   8.061  0.2489 -0.0229  0.4548
 2104TIP3    H127947   2.631   3.236   8.121  0.0350  1.4131  0.4972
 2104TIP3    H227948   2.563   3.301   8.002 -0.2707 -0.7460 -0.5429
 2105TIP3   OH227949   0.784   5.015   8.276  0.2452  0.0040 -0.2079
 2105TIP3    H127950   0.780   5.058   8.191  0.1892  1.1585  0.3592
 2105TIP3    H227951   0.873   4.979   8.281 -0.2557 -1.5346 -1.4146
 2106TIP3   OH227952   1.301   3.048   1.367 -0.4916  0.3834  0.2345
 2106TIP3    H127953   1.214   3.012   1.381 -1.0233  1.0729 -1.0828
 2106TIP3    H227954   1.338   2.995   1.297  0.1141  0.1761  0.6999
 2107TIP3   OH227955   3.730   4.014   2.273 -0.8769 -0.3175  0.1846
 2107TIP3    H127956   3.638   4.039   2.281 -0.4899  1.5183 -0.6100
 2107TIP3    H227957   3.747   4.014   2.179 -0.0049 -0.3930  0.3371
 2108TIP3   OH227958   2.661   4.599   8.348 -0.1447 -0.0990  0.3374
 2108TIP3    H127959   2.605   4.677   8.355  0.8892  0.7739 -0.7449
 2108TIP3    H227960   2.738   4.629   8.301 -0.8228 -2.3624 -2.5082
 2109TIP3   OH227961   2.631   0.634   1.124  0.2573 -1.3370 -0.2060
 2109TIP3    H127962   2.583   0.704   1.080  0.0312 -0.3177  1.5722
 2109TIP3    H227963   2.689   0.599   1.057  1.7770  1.8371 -0.7264
 2110TIP3   OH227964   2.890   6.169   1.185 -0.3048  0.3675  0.0414
 2110TIP3    H127965   2.897   6.077   1.210  0.8946  0.2645 -0.5875
 2110TIP3    H227966   2.978   6.204   1.199 -0.4051  1.0827 -0.9855
 2111TIP3   OH227967   3.531   0.644   3.435  0.3931  0.1803 -0.0221
 2111TIP3    H127968   3.619   0.610   3.445  0.2340 -0.2798 -0.1473
 2111TIP3    H227969   3.542   0.738   3.422  0.8961  0.0485 -0.5801
 2112TIP3   OH227970   0.662   3.945   0.778 -0.3532  0.6672 -0.1682
 2112TIP3    H127971   0.728   3.968   0.713 -0.3074  2.7534  0.5428
 2112TIP3    H227972   0.595   3.898   0.730  1.0059 -0.3305 -1.1590
 2113TIP3   OH227973   2.077   3.022   0.852 -0.6488  0.8347 -0.3448
 2113TIP3    H127974   2.016   2.957   0.816 -1.4024  0.6439  1.1774
 2113TIP3    H227975   2.083   3.089   0.784 -1.9421  0.4615 -0.8726
 2114TIP3   OH227976   4.069   2.206   1.722 -0.4860 -0.1132  0.1290
 2114TIP3    H127977   4.040   2.297   1.732 -2.4028 -0.8615  2.4605
 2114TIP3    H227978   4.145   2.199   1.778 -0.0137  0.1492 -0.4655
 2115TIP3   OH227979   3.017   0.399   3.775  0.7194  0.4840  0.1725
 2115TIP3    H127980   3.030   0.332   3.708  1.2024  0.8721 -0.1272
 2115TIP3    H227981   3.094   0.393   3.831 -0.0217 -0.3325  1.1477
 2116TIP3   OH227982   1.345   4.584   1.303  0.4023 -0.4729  0.1747
 2116TIP3    H127983   1.305   4.634   1.232  0.9376  0.4040  0.4722
 2116TIP3    H227984   1.279   4.519   1.327 -1.1421  1.3407  1.0758
 2117TIP3   OH227985   6.163   2.224   2.029 -0.2145 -0.1303 -0.4435
 2117TIP3    H127986   6.099   2.220   2.100 -0.0460  0.8183 -0.2304
 2117TIP3    H227987   6.122   2.177   1.957 -0.7087 -0.4368  0.0312
 2118TIP3   OH227988   2.759   5.392   2.709 -0.0142 -0.1637  0.1414
 2118TIP3    H127989   2.676   5.432   2.682  0.1919 -0.3631 -0.8329
 2118TIP3    H227990   2.768   5.415   2.802 -0.8316  0.4167  0.0884
 2119TIP3   OH227991   4.539   6.503   4.043 -0.0316  0.2203 -0.2935
 2119TIP3    H127992   4.624   6.474   4.078 -0.1097 -0.3428 -0.5523
 2119TIP3    H227993   4.511   6.430   3.987  0.3963  1.3495 -2.0459
 2120TIP3   OH227994   1.085   4.153   1.104  0.4252 -0.1282  0.4574
 2120TIP3    H127995   1.016   4.167   1.039  0.6827  3.3134  0.7200
 2120TIP3    H227996   1.163   4.134   1.052  0.2932  1.0045 -0.1924
 2121TIP3   OH227997   0.010   3.956   2.665 -0.6599  0.1906 -0.2753
 2121TIP3    H127998  -0.068   3.909   2.695 -1.8060  2.8015  1.1832
 2121TIP3    H227999  -0.025   4.027   2.610  0.5665  1.8105  0.9224
 2122TIP3   OH228000   1.391   0.496   0.530  0.7063 -0.0253  0.0181
 2122TIP3    H128001   1.338   0.560   0.577  1.1611 -0.5539  1.3255
 2122TIP3    H228002   1.479   0.532   0.530  0.5887  0.2929 -1.0794
 2123TIP3   OH228003   5.083   3.775   3.071  0.0047 -0.9010 -0.7744
 2123TIP3    H128004   5.116   3.862   3.090 -0.4244 -0.2622 -2.7789
 2123TIP3    H228005   5.131   3.718   3.131  0.5820  0.6384  0.2897
 2124TIP3   OH228006   2.726   0.254   0.351 -0.5446  0.2736 -0.0226
 2124TIP3    H128007   2.801   0.233   0.406 -0.3748  1.0008  0.0398
 2124TIP3    H228008   2.670   0.309   0.406 -0.9686  0.0006 -0.1730
 2125TIP3   OH228009   0.173   2.191   2.687 -0.4323  0.3043 -0.1226
 2125TIP3    H128010   0.138   2.128   2.751 -2.2544  1.1697 -0.1962
 2125TIP3    H228011   0.216   2.258   2.740 -0.6369  0.2579  0.1030
 2126TIP3   OH228012   5.340   3.368   1.918  0.4616 -0.1850  0.2872
 2126TIP3    H128013   5.321   3.419   1.840  1.2575 -1.3685 -0.7175
 2126TIP3    H228014   5.322   3.277   1.893 -0.5375 -0.4696  1.8912
 2127TIP3   OH228015   6.157   1.822   4.050  0.2878 -0.1184  0.4309
 2127TIP3    H128016   6.233   1.865   4.089  0.4893 -0.6120  0.5991
 2127TIP3    H228017   6.084   1.847   4.106  0.4722 -0.3105  0.7646
 2128TIP3   OH228018   0.599   5.796   2.395  0.4152  0.0995  0.4890
 2128TIP3    H128019   0.577   5.849   2.319  0.9116  2.7419  2.0622
 2128TIP3    H228020   0.515   5.764   2.428  0.0263  0.5177 -0.0799
 2129TIP3   OH228021   6.618   0.452   4.037  0.3128 -0.0261 -0.5771
 2129TIP3    H128022   6.690   0.395   4.063  0.5285  0.3285 -0.3829
 2129TIP3    H228023   6.658   0.539   4.028  0.0375  0.0551 -1.0936
 2130TIP3   OH228024   1.211   3.572   0.877 -0.5947 -0.0150 -0.1200
 2130TIP3    H128025   1.213   3.477   0.883  0.8738 -0.0202 -0.2727
 2130TIP3    H228026   1.295   3.595   0.837 -0.0623  1.4410  1.6983
 2131TIP3   OH228027   6.380   0.996   8.629 -0.3322 -0.6241  0.4563
 2131TIP3    H128028   6.415   1.074   8.585  0.0749 -0.7918  0.4823
 2131TIP3    H228029   6.289   0.993   8.602 -0.9612  1.0829  2.1375
 2132TIP3   OH228030   6.441   5.566   3.940  0.4364 -0.2057 -0.6118
 2132TIP3    H128031   6.507   5.621   3.898  0.8403  0.2964  0.6431
 2132TIP3    H228032   6.358   5.607   3.919  0.3390 -1.5257 -3.2667
 2133TIP3   OH228033   6.338   5.332   0.498 -0.2133 -0.9677  0.3580
 2133TIP3    H128034   6.422   5.286   0.490  0.0170 -0.7540  1.4605
 2133TIP3    H228035   6.279   5.267   0.536 -0.3672 -0.8963  0.2410
 2134TIP3   OH228036   5.719   1.463   3.501  0.0801  0.1927  0.6650
 2134TIP3    H128037   5.772   1.388   3.476 -1.5371 -1.0415  0.7979
 2134TIP3    H228038   5.657   1.429   3.566 -2.0141  1.1222 -0.7094
 2135TIP3   OH228039   3.878   5.504   4.208 -0.2847  0.1655  0.3753
 2135TIP3    H128040   3.949   5.451   4.172 -0.7608  0.9861 -1.8796
 2135TIP3    H228041   3.904   5.594   4.191 -0.6639  0.6046  1.9277
 2136TIP3   OH228042   1.755   2.391   0.647 -0.1052 -0.0370 -0.8921
 2136TIP3    H128043   1.786   2.345   0.570 -1.4180 -1.1017 -0.8242
 2136TIP3    H228044   1.741   2.322   0.712 -0.2921  0.6831 -0.1470
 2137TIP3   OH228045   4.161   0.619   1.705 -0.0093 -0.7388 -0.2504
 2137TIP3    H128046   4.141   0.604   1.797 -1.9490 -1.3689 -0.7362
 2137TIP3    H228047   4.170   0.531   1.668  0.8624 -0.4887 -0.6700
 2138TIP3   OH228048   4.036   2.425   0.548  0.1812 -0.3282  0.1122
 2138TIP3    H128049   3.963   2.378   0.509  0.2761  0.2398 -0.7721
 2138TIP3    H228050   3.998   2.507   0.580  0.6293  0.5494 -1.4954
 2139TIP3   OH228051   6.854   2.397   2.627 -0.2662 -0.3311 -0.5614
 2139TIP3    H128052   6.895   2.311   2.636  2.8881  1.2311  1.7563
 2139TIP3    H228053   6.842   2.407   2.533  4.8991 -1.0410 -1.6133
 2140TIP3   OH228054   6.536   4.117   0.018 -0.1685  0.2386 -0.0057
 2140TIP3    H128055   6.512   4.208   0.001 -2.0648  0.2033  2.0802
 2140TIP3    H228056   6.576   4.119   0.105  2.1396 -0.6252 -0.9631
 2141TIP3   OH228057   0.234   0.818   1.837  0.5801  0.1917 -0.4450
 2141TIP3    H128058   0.206   0.902   1.801  1.1350  0.0320 -1.2742
 2141TIP3    H228059   0.236   0.759   1.762  2.7412  0.1132 -0.3788
 2142TIP3   OH228060   6.256   5.744   0.563 -0.5430  0.0117 -0.9565
 2142TIP3    H128061   6.181   5.689   0.538 -0.2393 -1.0451  0.3302
 2142TIP3    H228062   6.320   5.682   0.598  0.0674  1.1217 -0.0391
 2143TIP3   OH228063   0.477   5.900   0.465  0.1203  0.1339  0.1842
 2143TIP3    H128064   0.560   5.876   0.507  1.0378  2.2828 -0.2414
 2143TIP3    H228065   0.412   5.841   0.503  1.5776 -0.5587  1.7034
 2144TIP3   OH228066   3.991   5.164   8.753  0.3868  0.3070  0.6187
 2144TIP3    H128067   4.044   5.141   8.676  1.7892  1.9278  1.0657
 2144TIP3    H228068   4.035   5.120   8.826 -1.1868 -1.5887  0.5233
 2145TIP3   OH228069   2.820   3.292   0.826  0.0508 -0.1752 -0.0666
 2145TIP3    H128070   2.783   3.297   0.914 -0.4488 -2.2238 -0.1130
 2145TIP3    H228071   2.831   3.198   0.810  1.3989  0.2062 -1.6799
 2146TIP3   OH228072   3.558   4.335   8.473  0.5772 -0.1893  0.4282
 2146TIP3    H128073   3.540   4.358   8.564  1.0589  0.3182  0.3974
 2146TIP3    H228074   3.543   4.241   8.469 -1.9667  0.1213  0.4488
 2147TIP3   OH228075   5.689   0.407   2.140 -0.3477  0.6402 -0.4500
 2147TIP3    H128076   5.670   0.410   2.234 -1.3774  1.1741 -0.6698
 2147TIP3    H228077   5.780   0.436   2.133 -0.3818  0.9511  0.3408
 2148TIP3   OH228078   6.592   4.305   2.300  0.0820 -0.0585  0.1778
 2148TIP3    H128079   6.655   4.341   2.237  0.3462  0.5039  0.7567
 2148TIP3    H228080   6.596   4.364   2.374  0.6066 -1.3386  1.2120
 2149TIP3   OH228081   3.112   2.624   1.674  0.5688 -0.2638  0.4386
 2149TIP3    H128082   3.094   2.710   1.711  2.1708  0.6840 -0.8612
 2149TIP3    H228083   3.040   2.607   1.614  0.8388  0.6850 -0.1527
 2150TIP3   OH228084   1.468   4.927   1.147  0.1587  0.0804 -0.1198
 2150TIP3    H128085   1.522   4.900   1.073 -0.1822 -1.9520  0.2942
 2150TIP3    H228086   1.396   4.864   1.147  0.3495 -0.2136  2.1476
 2151TIP3   OH228087   3.633   4.503   1.543  0.0608  0.1501 -0.2693
 2151TIP3    H128088   3.563   4.532   1.602  0.6172 -1.1198  1.0387
 2151TIP3    H228089   3.709   4.556   1.568 -0.0753  0.6374 -0.8506
 2152TIP3   OH228090   1.423   1.409   2.277  0.6183 -0.4030  0.0643
 2152TIP3    H128091   1.510   1.380   2.303  1.5751  2.4209  0.3722
 2152TIP3    H228092   1.433   1.436   2.185 -0.2000 -0.8962 -0.1864
 2153TIP3   OH228093   0.922   4.115   3.466 -0.2582  0.0948 -0.3580
 2153TIP3    H128094   0.964   4.198   3.445 -0.8508  0.0065 -1.9948
 2153TIP3    H228095   0.829   4.130   3.453 -0.5678 -0.3411  1.1060
 2154TIP3   OH228096   0.405   2.419   2.367 -0.3533  0.1221  0.0752
 2154TIP3    H128097   0.397   2.390   2.276 -0.6730  1.3854 -0.3169
 2154TIP3    H228098   0.384   2.341   2.419  0.8747 -0.9235 -0.9057
 2155TIP3   OH228099   5.618   4.581   3.149 -0.0650 -0.1359  0.2037
 2155TIP3    H128100   5.644   4.544   3.233  0.6559 -1.2786 -0.5068
 2155TIP3    H228101   5.598   4.506   3.094 -2.9106  0.6215  0.0496
 2156TIP3   OH228102   0.772   0.774   2.958  0.5515  0.3351 -0.3656
 2156TIP3    H128103   0.703   0.734   2.904 -0.4288  1.4268  0.0296
 2156TIP3    H228104   0.852   0.727   2.934 -0.5608 -2.0704  0.2948
 2157TIP3   OH228105   0.866   6.542   0.050 -0.3564  0.1341 -0.6767
 2157TIP3    H128106   0.788   6.573   0.004 -0.2384  0.5605 -0.5952
 2157TIP3    H228107   0.882   6.455   0.015  0.5349  0.9641 -2.4932
 2158TIP3   OH228108   3.365   6.336   2.296  0.2544  0.2180 -0.3848
 2158TIP3    H128109   3.397   6.274   2.230  0.3265  1.7003 -1.7963
 2158TIP3    H228110   3.270   6.333   2.287  0.3096  1.7411 -1.8767
 2159TIP3   OH228111   0.694   5.899   3.091 -0.0708  0.0245 -0.5992
 2159TIP3    H128112   0.762   5.871   3.030  0.5722 -1.4126  0.7118
 2159TIP3    H228113   0.729   5.977   3.133  0.4737 -0.3093 -0.4304
 2160TIP3   OH228114   2.733   4.401   8.522 -0.4619  0.0760 -0.0369
 2160TIP3    H128115   2.664   4.343   8.554 -0.6602 -0.0265 -0.6217
 2160TIP3    H228116   2.687   4.481   8.496 -0.2218  0.4031  0.5305
 2161TIP3   OH228117   2.363   6.220   8.244  0.2117  0.5913 -0.3635
 2161TIP3    H128118   2.349   6.297   8.300 -0.0078  1.9285 -2.1319
 2161TIP3    H228119   2.455   6.198   8.255  0.0403  0.4763  0.9234
 2162TIP3   OH228120   4.871   3.887   2.432 -0.0527 -0.4797 -0.1921
 2162TIP3    H128121   4.908   3.974   2.416 -0.6175 -0.2166 -0.0843
 2162TIP3    H228122   4.947   3.831   2.447  0.5653 -0.7617 -3.6564
 2163TIP3   OH228123   6.099   5.182   2.578 -0.3268  0.6107 -0.6831
 2163TIP3    H128124   6.080   5.242   2.650 -0.0283  0.8876 -0.8360
 2163TIP3    H228125   6.056   5.100   2.604  0.9034  0.2798  0.4611
 2164TIP3   OH228126   5.426   4.047   1.186 -0.3104 -0.0435  0.8619
 2164TIP3    H128127   5.483   4.115   1.151 -1.1511 -0.6094 -1.8270
 2164TIP3    H228128   5.465   3.965   1.157 -1.9380 -0.4692 -0.3022
 2165TIP3   OH228129   2.268   3.139   2.107  0.0430  0.5620 -0.1680
 2165TIP3    H128130   2.200   3.202   2.125 -0.3198 -0.1266  0.9322
 2165TIP3    H228131   2.229   3.079   2.043 -0.4579  0.0608  0.5993
 2166TIP3   OH228132   6.649   1.084   8.095  0.6723  0.4492  0.4748
 2166TIP3    H128133   6.597   1.031   8.155  1.7383 -0.2488  0.7958
 2166TIP3    H228134   6.591   1.097   8.020  0.9051 -2.5522 -0.3496
 2167TIP3   OH228135   4.229   2.912   8.035  0.2886 -0.0452 -0.1627
 2167TIP3    H128136   4.140   2.898   8.002  0.1098 -0.1772  0.3649
 2167TIP3    H228137   4.262   2.986   7.983  0.3545 -0.8259 -1.2650
 2168TIP3   OH228138   6.573   2.361   2.028 -0.0631  0.0116  0.1070
 2168TIP3    H128139   6.658   2.404   2.036  1.1526 -1.9832 -1.4233
 2168TIP3    H228140   6.532   2.402   1.952  0.5719 -0.6742 -0.6113
 2169TIP3   OH228141   5.637   0.644   3.145 -0.2205 -0.0822  0.0770
 2169TIP3    H128142   5.679   0.573   3.097 -1.0914 -0.4087 -0.2144
 2169TIP3    H228143   5.694   0.658   3.221  0.2421 -0.7356 -0.1395
 2170TIP3   OH228144   2.333   4.715   1.470 -0.2605 -0.0538  0.5035
 2170TIP3    H128145   2.300   4.650   1.407 -0.1886  2.1071 -1.9592
 2170TIP3    H228146   2.256   4.746   1.516 -0.7083  0.1321 -0.3561
 2171TIP3   OH228147   1.970   5.415   3.671 -0.1781  0.3623 -0.1885
 2171TIP3    H128148   2.013   5.359   3.606 -1.5054 -0.3680 -0.4690
 2171TIP3    H228149   2.032   5.420   3.743  2.0087  2.4001 -2.0333
 2172TIP3   OH228150   4.343   4.000   7.916 -0.0812  0.0182 -0.3315
 2172TIP3    H128151   4.307   4.043   7.838 -1.2649  0.7121  0.5643
 2172TIP3    H228152   4.337   4.067   7.984  1.4535 -0.3919  0.2488
 2173TIP3   OH228153   0.227   1.383   1.664  0.2248  0.8225  0.0337
 2173TIP3    H128154   0.153   1.344   1.617  0.3989 -0.4900  0.7939
 2173TIP3    H228155   0.210   1.362   1.756  0.7420  1.8896  0.3832
 2174TIP3   OH228156   3.642   0.494   8.569  0.6825  0.1467  0.3298
 2174TIP3    H128157   3.556   0.487   8.609 -0.6444  1.8023 -2.0139
 2174TIP3    H228158   3.697   0.535   8.636 -0.7415  0.4656  1.3339
 2175TIP3   OH228159   3.791   4.261   1.074  0.2822  0.0006  0.0727
 2175TIP3    H128160   3.844   4.338   1.095  0.7613  0.9922 -4.0076
 2175TIP3    H228161   3.851   4.204   1.027 -0.6914 -1.9275  1.0624
 2176TIP3   OH228162   2.512   3.769   0.204 -0.5852  0.4328 -0.1207
 2176TIP3    H128163   2.535   3.740   0.116  0.2603  1.6967 -0.3547
 2176TIP3    H228164   2.590   3.751   0.256 -0.8001  0.3871  0.1864
 2177TIP3   OH228165   0.139   5.653   1.444  0.3121  0.5932 -0.2940
 2177TIP3    H128166   0.116   5.583   1.505 -2.8740 -0.0080 -1.9574
 2177TIP3    H228167   0.155   5.729   1.500  2.1843 -0.9624  1.4621
 2178TIP3   OH228168   3.267   1.736   1.594 -0.3877 -0.0284  0.0910
 2178TIP3    H128169   3.312   1.817   1.620  1.1319 -0.8047 -0.0418
 2178TIP3    H228170   3.328   1.693   1.535 -2.9006  0.6968 -3.3204
 2179TIP3   OH228171   1.153   5.168   0.472  0.6388  0.1767  0.2105
 2179TIP3    H128172   1.086   5.236   0.471  1.5202  1.1053  1.4335
 2179TIP3    H228173   1.105   5.088   0.449 -0.3974  1.1756 -1.3873
 2180TIP3   OH228174   1.366   5.001   0.789  0.0065 -0.2092  0.4919
 2180TIP3    H128175   1.458   4.999   0.816  0.1808  3.3684  0.6994
 2180TIP3    H228176   1.324   4.934   0.843  2.3304 -1.3578  1.0116
 2181TIP3   OH228177   4.585   3.680   3.730 -0.3806  0.6783 -0.2090
 2181TIP3    H128178   4.596   3.688   3.635 -1.6027  0.0000 -0.4258
 2181TIP3    H228179   4.672   3.698   3.766  0.0765  1.0240 -1.4461
 2182TIP3   OH228180   0.493   2.322   2.730 -0.3706 -0.8123 -0.3872
 2182TIP3    H128181   0.467   2.398   2.781 -0.9891  1.0145 -3.1503
 2182TIP3    H228182   0.588   2.321   2.734 -0.3973 -0.5397  0.5172
 2183TIP3   OH228183   3.647   4.543   2.284  0.6238 -0.2359  0.2402
 2183TIP3    H128184   3.605   4.598   2.218  1.5034 -1.3263 -1.2873
 2183TIP3    H228185   3.702   4.604   2.335  1.3783  0.3678 -1.2418
 2184TIP3   OH228186   1.250   0.255   1.469 -0.0672 -0.0610 -0.2983
 2184TIP3    H128187   1.320   0.320   1.475  0.2664 -0.3573 -0.8152
 2184TIP3    H228188   1.211   0.252   1.556  1.5869 -1.0236  0.4386
 2185TIP3   OH228189   2.228   5.753   2.806  0.2297  0.4799  0.1154
 2185TIP3    H128190   2.245   5.710   2.890 -0.9208  1.1642  0.7226
 2185TIP3    H228191   2.314   5.784   2.777  0.9388 -1.3487  0.1160
 2186TIP3   OH228192   5.582   0.982   1.968 -0.2431  0.0475  0.7219
 2186TIP3    H128193   5.591   0.893   2.002  0.8860  0.4951  1.6381
 2186TIP3    H228194   5.520   0.973   1.895 -0.1340 -1.4839  0.7861
 2187TIP3   OH228195   0.829   3.142   0.669 -0.1115  0.4627 -0.0192
 2187TIP3    H128196   0.795   3.146   0.580  0.8509 -0.3528 -0.4523
 2187TIP3    H228197   0.874   3.225   0.682 -0.7366  0.8161 -0.0749
 2188TIP3   OH228198   3.775   3.063   8.655 -0.6949  0.0763  0.2200
 2188TIP3    H128199   3.762   3.157   8.672 -1.7367 -0.0128 -0.0483
 2188TIP3    H228200   3.856   3.060   8.604  0.9149  0.5855  2.5322
 2189TIP3   OH228201   4.593   0.428   0.886 -0.7732 -0.2640  0.2220
 2189TIP3    H128202   4.634   0.515   0.882  1.3040 -1.2387 -1.5700
 2189TIP3    H228203   4.500   0.445   0.872 -0.4278  1.6889  0.0006
 2190TIP3   OH228204   6.344   3.375   4.287 -0.0841 -0.0688 -0.6012
 2190TIP3    H128205   6.337   3.296   4.234  1.5365 -2.0780  1.9789
 2190TIP3    H228206   6.438   3.391   4.294 -0.1741 -0.3988  2.3062
 2191TIP3   OH228207   0.536   3.940   1.026 -0.7176  0.0777 -0.4292
 2191TIP3    H128208   0.568   3.949   0.936  0.2886 -1.2829 -0.2385
 2191TIP3    H228209   0.488   3.857   1.026 -3.8237  1.7283 -0.5343
 2192TIP3   OH228210   2.544   0.987   8.581  0.7782  0.1691  0.3634
 2192TIP3    H128211   2.471   0.956   8.528  1.7980 -3.1257  0.6911
 2192TIP3    H228212   2.622   0.960   8.533  1.7949  1.3276  1.2828
 2193TIP3   OH228213   1.343   4.942   0.052 -0.2319 -0.3315 -0.7936
 2193TIP3    H128214   1.353   4.857   0.094 -0.5887  0.5107  1.1286
 2193TIP3    H228215   1.274   4.929  -0.012 -0.2340 -1.5086 -0.5717
 2194TIP3   OH228216   4.647   0.136   2.253 -0.1553  0.0239  0.3752
 2194TIP3    H128217   4.553   0.148   2.265 -0.3564 -0.8492 -0.2594
 2194TIP3    H228218   4.661   0.146   2.159 -0.0237 -2.4319  0.0764
 2195TIP3   OH228219   5.197   0.174   2.757  0.1668  0.5192  0.5199
 2195TIP3    H128220   5.112   0.203   2.726  0.8012  1.1409 -0.7062
 2195TIP3    H228221   5.260   0.235   2.718  1.4371 -1.7056 -1.1312
 2196TIP3   OH228222   0.699   1.240   0.487 -0.3169  0.1535 -0.0647
 2196TIP3    H128223   0.632   1.209   0.548  2.1366 -0.3115  2.6094
 2196TIP3    H228224   0.702   1.173   0.418 -2.9075  0.4989 -0.6297
 2197TIP3   OH228225   3.958   3.075   3.199 -0.3231 -0.2917 -0.0437
 2197TIP3    H128226   4.027   3.063   3.134 -2.0772 -1.4797 -1.8093
 2197TIP3    H228227   3.947   2.988   3.238 -2.5981 -0.8398 -1.7462
 2198TIP3   OH228228   5.769   1.242   0.044 -0.1567  0.0533  0.0005
 2198TIP3    H128229   5.827   1.275   0.112 -0.8631 -0.4478  0.8692
 2198TIP3    H228230   5.825   1.231  -0.033  0.3415  2.1531 -0.0100
 2199TIP3   OH228231   2.675   0.540   8.462  0.1173  0.1833  0.0065
 2199TIP3    H128232   2.615   0.598   8.415 -0.1214 -0.4721 -0.5277
 2199TIP3    H228233   2.713   0.594   8.530  0.9995  1.3689 -1.3757
 2200TIP3   OH228234   4.228   1.775   3.274  0.0856  0.2854  0.2549
 2200TIP3    H128235   4.291   1.804   3.340 -0.3234  0.7194  0.4584
 2200TIP3    H228236   4.272   1.792   3.191 -0.3681  2.1035  0.3404
 2201TIP3   OH228237   1.700   6.388   8.350  0.0927  0.3385  0.0716
 2201TIP3    H128238   1.676   6.359   8.262  2.0098  0.0521 -0.3853
 2201TIP3    H228239   1.736   6.310   8.392  2.0394  1.1502  0.0281
 2202TIP3   OH228240   5.302   1.844   0.497  0.3344 -0.1604 -0.2893
 2202TIP3    H128241   5.231   1.907   0.506 -0.3868 -1.0509  0.6115
 2202TIP3    H228242   5.356   1.857   0.575  0.3244 -0.4718 -0.2268
 2203TIP3   OH228243   4.751   4.784   2.349 -0.4581  0.0433 -0.1940
 2203TIP3    H128244   4.828   4.772   2.405 -0.1533 -1.8559 -0.9598
 2203TIP3    H228245   4.752   4.878   2.328  1.0473  0.2540  0.6415
 2204TIP3   OH228246   6.805   1.389   1.251  0.1253  0.1581  0.8176
 2204TIP3    H128247   6.727   1.389   1.195 -0.2975  1.4271  1.3657
 2204TIP3    H228248   6.851   1.308   1.228 -0.7979 -0.0856 -0.2861
 2205TIP3   OH228249   0.142   5.621   2.796  0.7649 -0.5144 -0.0573
 2205TIP3    H128250   0.143   5.528   2.817  0.5131 -0.2693  1.1019
 2205TIP3    H228251   0.108   5.664   2.875 -1.0252  0.3979 -1.2428
 2206TIP3   OH228252   3.377   1.414   0.391  0.4893 -0.1452 -0.2991
 2206TIP3    H128253   3.323   1.381   0.463 -0.0672 -0.7564 -0.9721
 2206TIP3    H228254   3.354   1.358   0.317 -0.1535  1.4890 -1.3855
 2207TIP3   OH228255   5.705   2.758   0.936 -0.1798 -0.1718 -0.5216
 2207TIP3    H128256   5.712   2.792   1.025 -0.7910 -1.6830  0.1333
 2207TIP3    H228257   5.621   2.791   0.904 -0.0478  0.2154 -0.4682
 2208TIP3   OH228258   1.416   3.001   2.968 -0.3136  0.2406 -0.0502
 2208TIP3    H128259   1.448   3.086   2.935  0.9206 -0.2132 -0.0671
 2208TIP3    H228260   1.495   2.947   2.973 -0.7777 -0.3082  1.8226
 2209TIP3   OH228261   5.368   6.369   0.852  0.5938 -0.3242 -0.1310
 2209TIP3    H128262   5.312   6.372   0.929  2.4584  2.0193  1.3062
 2209TIP3    H228263   5.349   6.285   0.811 -4.1544  0.3990 -0.0238
 2210TIP3   OH228264   6.299   3.174   3.375 -0.4622  0.0830 -0.0057
 2210TIP3    H128265   6.389   3.201   3.393 -0.3807 -0.4490  0.4060
 2210TIP3    H228266   6.272   3.125   3.452 -0.8615 -0.3730 -0.4239
 2211TIP3   OH228267   3.683   0.997   2.542  0.0653 -0.0220 -0.2054
 2211TIP3    H128268   3.734   0.930   2.588 -0.7233 -1.4218 -1.3034
 2211TIP3    H228269   3.723   1.080   2.569  0.5015 -0.8521  1.9004
 2212TIP3   OH228270   3.239   3.991   0.631  0.1845  0.6891  0.5731
 2212TIP3    H128271   3.162   3.935   0.624  1.5442 -1.3381  0.7310
 2212TIP3    H228272   3.250   4.028   0.544 -0.3518  0.1179  0.2554
 2213TIP3   OH228273   3.461   1.579   1.445  0.1597  0.3232  0.2202
 2213TIP3    H128274   3.552   1.555   1.430 -0.0781 -0.0281 -0.7494
 2213TIP3    H228275   3.415   1.495   1.449 -0.3171  0.5317 -0.6922
 2214TIP3   OH228276   3.150   1.636   3.421 -0.0539 -0.9751  0.0166
 2214TIP3    H128277   3.126   1.703   3.484 -0.3945 -1.3323  0.2700
 2214TIP3    H228278   3.242   1.655   3.400 -0.7615  0.9570 -1.6601
 2215TIP3   OH228279   3.823   5.477   0.918  0.2609 -0.1534  0.1815
 2215TIP3    H128280   3.825   5.560   0.965 -1.0528 -0.6138  1.1184
 2215TIP3    H228281   3.849   5.499   0.829  0.1502  1.2249  0.4680
 2216TIP3   OH228282   3.334   4.464   1.947  0.8191 -0.4299 -0.3574
 2216TIP3    H128283   3.262   4.400   1.945 -0.1976  0.6849 -1.4838
 2216TIP3    H228284   3.393   4.432   2.015 -1.1763 -0.9340  1.2347
 2217TIP3   OH228285   4.102   6.695   3.547 -0.2153 -0.2901 -0.1991
 2217TIP3    H128286   4.139   6.650   3.623  0.4269  0.2155 -0.2024
 2217TIP3    H228287   4.164   6.677   3.476 -0.2593  0.1076 -0.3406
 2218TIP3   OH228288   3.902   0.993   3.323 -0.0034 -0.7252  0.6194
 2218TIP3    H128289   3.813   0.965   3.342 -0.1755 -0.3716  0.3479
 2218TIP3    H228290   3.939   1.017   3.408 -0.9278  1.3220  0.4911
 2219TIP3   OH228291   3.791   1.638   1.892  0.3306  0.4030 -0.3265
 2219TIP3    H128292   3.776   1.556   1.940  0.2558  0.5149 -0.1586
 2219TIP3    H228293   3.725   1.636   1.822  0.7939 -0.0150 -0.7575
 2220TIP3   OH228294   3.196   1.362   2.241 -0.3282 -0.1762 -0.0145
 2220TIP3    H128295   3.281   1.384   2.279  0.2450 -1.1935 -0.6789
 2220TIP3    H228296   3.132   1.388   2.309  0.6720 -2.3363  1.8770
 2221TIP3   OH228297   5.343   2.589   2.629 -0.4665 -0.1799 -0.0539
 2221TIP3    H128298   5.437   2.594   2.612 -0.5243 -0.5902 -0.5437
 2221TIP3    H228299   5.334   2.523   2.698 -0.0002  3.4141  3.7885
 2222TIP3   OH228300   5.289   1.372   1.259 -0.4479 -0.1079  0.7114
 2222TIP3    H128301   5.375   1.413   1.264  0.0482 -0.7304 -1.5888
 2222TIP3    H228302   5.306   1.284   1.226 -1.9676 -0.2063  0.0735
 2223TIP3   OH228303   4.172   4.487   0.934 -0.2017 -0.2134 -0.0474
 2223TIP3    H128304   4.199   4.561   0.988  2.9392 -1.0035 -0.3587
 2223TIP3    H228305   4.138   4.423   0.997  1.2748 -0.2169  0.8015
 2224TIP3   OH228306   3.097   6.843   0.129 -0.7654  0.3755  0.2851
 2224TIP3    H128307   3.045   6.776   0.174  0.2217 -0.6582 -0.0685
 2224TIP3    H228308   3.078   6.924   0.177 -1.6111 -0.2356  1.0269
 2225TIP3   OH228309   5.761   4.402   2.196  0.2286  0.0174 -0.0757
 2225TIP3    H128310   5.794   4.470   2.254 -1.1752 -0.2712  1.1255
 2225TIP3    H228311   5.773   4.437   2.108  1.7240  0.7790  0.4030
 2226TIP3   OH228312   2.905   4.125   8.634 -0.4641 -0.5727  0.0266
 2226TIP3    H128313   2.968   4.058   8.661 -0.8484 -1.2021 -0.6144
 2226TIP3    H228314   2.927   4.142   8.542 -0.2401  0.3386  0.2332
 2227TIP3   OH228315   0.844   6.853   3.721 -0.3344 -0.4263  0.0673
 2227TIP3    H128316   0.911   6.921   3.716 -0.6180 -0.2321 -1.4511
 2227TIP3    H228317   0.852   6.819   3.810  0.6659  0.7135  0.4476
 2228TIP3   OH228318   5.503   1.688   0.178  0.4451 -0.1700 -0.0068
 2228TIP3    H128319   5.516   1.696   0.273 -0.5921  0.2640  0.1176
 2228TIP3    H228320   5.591   1.676   0.142  0.8767 -0.0635  0.9860
 2229TIP3   OH228321   3.310   5.454   1.587  0.2255  0.1090  0.1619
 2229TIP3    H128322   3.248   5.395   1.631  1.8733 -0.9027  1.2058
 2229TIP3    H228323   3.369   5.396   1.539  1.5479  0.9114  0.7590
 2230TIP3   OH228324   0.708   0.115   0.368  0.5120  0.2497  0.2709
 2230TIP3    H128325   0.743   0.133   0.456 -0.0913 -0.3221  0.6288
 2230TIP3    H228326   0.737   0.026   0.348  3.1330  1.3268 -1.3348
 2231TIP3   OH228327   2.321   6.711   3.794  0.1319  0.8533 -0.4990
 2231TIP3    H128328   2.285   6.661   3.866  1.2269  2.1668  1.0290
 2231TIP3    H228329   2.249   6.767   3.764  0.6467  3.2867  2.3574
 2232TIP3   OH228330   3.217   5.472   0.999  0.5148 -0.6114 -0.0789
 2232TIP3    H128331   3.179   5.385   0.990 -3.4476  1.0525 -1.9292
 2232TIP3    H228332   3.247   5.495   0.911 -1.7891  1.0557 -0.5439
 2233TIP3   OH228333   5.979   6.652   0.181 -0.4890  0.5995 -0.4168
 2233TIP3    H128334   5.980   6.622   0.272  1.8746  0.5071 -0.4018
 2233TIP3    H228335   6.029   6.733   0.182 -1.4935  1.2502 -1.4647
 2234TIP3   OH228336   6.506   3.062   1.973 -0.2776  0.1367 -0.7013
 2234TIP3    H128337   6.472   2.980   2.008  0.8268 -1.3739 -3.0094
 2234TIP3    H228338   6.441   3.089   1.908  0.0163  0.4172 -0.8799
 2235TIP3   OH228339   3.838   6.635   1.405  0.3250 -0.3180 -0.0754
 2235TIP3    H128340   3.798   6.573   1.344  1.1529  0.5208 -1.5273
 2235TIP3    H228341   3.787   6.715   1.396  0.9728  0.0795 -0.3186
 2236TIP3   OH228342   0.007   4.729   0.156  0.2596 -0.4054  0.5158
 2236TIP3    H128343   0.089   4.752   0.199  1.0185  0.4647 -1.2804
 2236TIP3    H228344  -0.051   4.804   0.173  1.0712  0.6749 -1.1453
 2237TIP3   OH228345   5.399   5.112   3.561  0.4119  0.0729 -0.1349
 2237TIP3    H128346   5.485   5.135   3.596 -0.2576  1.2106  0.8290
 2237TIP3    H228347   5.345   5.094   3.639  0.2075 -2.3656 -0.7599
 2238TIP3   OH228348   0.516   3.226   1.282  0.2483 -0.5608 -0.2089
 2238TIP3    H128349   0.445   3.164   1.269 -0.1235 -0.1237 -0.3002
 2238TIP3    H228350   0.508   3.254   1.373  0.1510 -0.3262 -0.2893
 2239TIP3   OH228351   1.089   0.007   4.149  0.0448  0.5842 -0.3692
 2239TIP3    H128352   1.108  -0.072   4.199 -3.0383 -0.7666 -1.0992
 2239TIP3    H228353   1.154   0.007   4.078  0.5079 -0.9522  0.0147
 2240TIP3   OH228354   5.742   6.852   1.532  0.3087  0.0280  0.3461
 2240TIP3    H128355   5.662   6.876   1.485 -0.4367 -3.0430 -0.1425
 2240TIP3    H228356   5.733   6.895   1.617 -0.8510  1.4053 -0.4195
 2241TIP3   OH228357   4.692   5.468   2.241 -0.1398  0.4804  1.0038
 2241TIP3    H128358   4.683   5.392   2.182 -1.4111 -0.7614  2.6946
 2241TIP3    H228359   4.781   5.499   2.227 -0.3479  0.1690 -1.4684
 2242TIP3   OH228360   1.541   6.511   3.423  0.0504 -0.1166 -0.7438
 2242TIP3    H128361   1.545   6.417   3.404  0.5603  0.0027 -1.2530
 2242TIP3    H228362   1.618   6.528   3.477 -1.1472 -0.3663  1.1646
 2243TIP3   OH228363   5.972   0.511   2.183  0.5436  0.1263  0.6677
 2243TIP3    H128364   6.022   0.586   2.151  2.1489  0.1829  3.1162
 2243TIP3    H228365   5.911   0.548   2.246  1.2043 -0.5739  1.7410
 2244TIP3   OH228366   5.596   4.345   3.032 -0.3986  0.2088  0.1298
 2244TIP3    H128367   5.615   4.251   3.034 -0.1676  0.2027 -1.4758
 2244TIP3    H228368   5.541   4.357   2.955 -0.4806  1.3936  0.3541
 2245TIP3   OH228369   6.096   1.998   1.854 -0.2837 -0.0683  0.1513
 2245TIP3    H128370   6.063   1.934   1.918 -0.1509  0.6535  0.9686
 2245TIP3    H228371   6.167   1.952   1.809 -0.5726 -0.6930  0.3123
 2246TIP3   OH228372   6.085   5.583   1.382 -0.1659 -0.0271  0.1647
 2246TIP3    H128373   6.057   5.514   1.322  0.0685 -0.0954  0.1346
 2246TIP3    H228374   6.155   5.629   1.336 -0.7614  0.6531 -0.0878
 2247TIP3   OH228375   1.887   2.404   8.586  0.0179  0.1106  0.8206
 2247TIP3    H128376   1.901   2.496   8.562  1.8540 -0.5235 -0.7529
 2247TIP3    H228377   1.898   2.356   8.504  2.5011 -1.7934  2.1238
 2248TIP3   OH228378   3.835   1.442   0.575  0.5388 -0.0495 -0.3685
 2248TIP3    H128379   3.786   1.512   0.618  0.4369 -1.2169  1.5299
 2248TIP3    H228380   3.920   1.442   0.618 -0.4219 -2.9031  1.8700
 2249TIP3   OH228381   6.744   5.458   1.524 -0.8206  0.3174 -0.2340
 2249TIP3    H128382   6.748   5.389   1.590  1.6899 -0.5439 -1.1542
 2249TIP3    H228383   6.763   5.538   1.572 -1.9241  0.1501  0.5306
 2250TIP3   OH228384   1.804   6.151   4.119 -0.6464  0.2295 -0.1818
 2250TIP3    H128385   1.883   6.202   4.101 -1.3712  1.5397  0.2034
 2250TIP3    H228386   1.734   6.216   4.124 -1.8663 -0.9483 -1.0896
 2251TIP3   OH228387   6.611   0.965   4.254  0.6883 -0.0602  0.4498
 2251TIP3    H128388   6.699   0.950   4.290  0.8232 -0.7612 -0.1525
 2251TIP3    H228389   6.563   0.885   4.275  0.3264  0.1430  0.3935
 2252TIP3   OH228390   0.666   1.167   1.298 -0.0719  0.3267 -0.0162
 2252TIP3    H128391   0.697   1.078   1.315 -0.0549  0.5712  1.3830
 2252TIP3    H228392   0.571   1.158   1.287 -0.3694  0.3305  2.0978
 2253TIP3   OH228393   6.530   1.135   2.100 -0.1206  0.4004  0.1359
 2253TIP3    H128394   6.579   1.062   2.061 -0.2251 -0.5478  1.7218
 2253TIP3    H228395   6.446   1.097   2.126 -0.5931  1.3459  0.0339
 2254TIP3   OH228396   1.368   3.552   4.051  0.4117 -0.3374  0.2926
 2254TIP3    H128397   1.378   3.469   4.097  0.3070 -0.4201  0.1681
 2254TIP3    H228398   1.374   3.619   4.119  1.1378 -0.4130  0.3196
 2255TIP3   OH228399   4.369   5.762   2.700  0.1205 -0.3727  0.4758
 2255TIP3    H128400   4.372   5.845   2.748  0.3407  0.3905 -0.8039
 2255TIP3    H228401   4.287   5.767   2.650  1.7027  0.6486 -2.2345
 2256TIP3   OH228402   4.927   4.596   2.534  0.4490  0.3369 -0.6513
 2256TIP3    H128403   4.854   4.630   2.585 -0.1028 -1.3539 -0.2679
 2256TIP3    H228404   4.886   4.555   2.458  1.0229 -0.2230 -0.6637
 2257TIP3   OH228405   2.756   5.605   1.951 -0.0174 -0.1558 -0.2974
 2257TIP3    H128406   2.762   5.587   1.857 -0.5413 -1.1958 -0.1499
 2257TIP3    H228407   2.801   5.531   1.993  2.2334  1.4128  0.2512
 2258TIP3   OH228408   0.804   1.203   3.178 -0.3195  0.4200  0.2238
 2258TIP3    H128409   0.827   1.269   3.112  1.0591 -0.1576  0.1116
 2258TIP3    H228410   0.709   1.212   3.188 -0.2538  1.9614 -0.2789
 2259TIP3   OH228411   1.849   4.248   2.958 -0.4751 -0.6804  0.9505
 2259TIP3    H128412   1.939   4.244   2.992 -1.0891 -1.0144  2.6246
 2259TIP3    H228413   1.816   4.333   2.988 -1.2941 -1.3244  1.9329
 2260TIP3   OH228414   5.893   5.135   8.687 -0.2044  0.0300  0.2086
 2260TIP3    H128415   5.929   5.071   8.626  0.2547 -1.5659  2.0637
 2260TIP3    H228416   5.964   5.198   8.699  0.3644 -0.6348  0.4222
 2261TIP3   OH228417   2.154   1.133   0.106 -0.0326 -0.1699 -0.4158
 2261TIP3    H128418   2.153   1.220   0.146  3.5628 -0.5599  0.8810
 2261TIP3    H228419   2.086   1.085   0.154  0.6427  0.8527  1.7215
 2262TIP3   OH228420   2.916   5.312   0.052 -0.4311 -0.3235 -0.6071
 2262TIP3    H128421   2.961   5.395   0.070 -1.4002  0.0847  0.0162
 2262TIP3    H228422   2.960   5.278  -0.025  0.5058  0.3876 -0.4130
 2263TIP3   OH228423   0.015   1.361   2.408  0.1410  0.1170  0.2224
 2263TIP3    H128424   0.022   1.357   2.313  1.4153  0.9640  0.2516
 2263TIP3    H228425   0.064   1.286   2.440 -3.4373 -2.4980  0.2295
 2264TIP3   OH228426   1.429   3.310   3.412 -0.1742 -0.2890  0.4798
 2264TIP3    H128427   1.460   3.288   3.324  1.0013 -2.1134  1.3100
 2264TIP3    H228428   1.491   3.375   3.444  0.6102 -1.1278  0.7015
 2265TIP3   OH228429   1.204   1.986   2.393  0.8142 -0.3603  0.2627
 2265TIP3    H128430   1.275   1.959   2.451 -0.1997 -0.0930  1.6573
 2265TIP3    H228431   1.212   2.082   2.390 -0.3396 -0.1961  1.5929
 2266TIP3   OH228432   4.123   0.308   3.136  0.5145  0.1028 -0.0056
 2266TIP3    H128433   4.059   0.340   3.200  1.7867 -0.4193  1.6246
 2266TIP3    H228434   4.081   0.318   3.051 -0.9018  1.7057  0.8396
 2267TIP3   OH228435   3.454   5.200   0.903  0.5066  0.3099 -0.0287
 2267TIP3    H128436   3.399   5.187   0.825 -0.0128  1.1587  0.1777
 2267TIP3    H228437   3.521   5.132   0.896  0.5772  0.4736 -1.3082
 2268TIP3   OH228438   1.847   2.753   3.082  0.6244  0.7204 -0.7503
 2268TIP3    H128439   1.906   2.793   3.146  1.3775  1.2681 -1.7676
 2268TIP3    H228440   1.900   2.686   3.038  0.4392  1.0822 -1.5431
 2269TIP3   OH228441   2.654   6.676   0.974  0.0404  0.4360  0.2621
 2269TIP3    H128442   2.640   6.604   0.912  0.9663  0.0234  0.5112
 2269TIP3    H228443   2.655   6.755   0.920 -3.5398  0.6177  0.2453
 2270TIP3   OH228444   6.225   3.298   1.221 -0.7397  0.3757  0.2558
 2270TIP3    H128445   6.186   3.274   1.305 -0.3669  1.6960  0.8348
 2270TIP3    H228446   6.202   3.390   1.209 -1.7099 -0.0546 -1.6340
 2271TIP3   OH228447   3.098   2.825   0.758 -0.5737  0.0547 -0.2083
 2271TIP3    H128448   3.079   2.739   0.721  1.6264 -0.3921 -0.4333
 2271TIP3    H228449   3.028   2.840   0.821 -0.6547 -2.2215  0.3330
 2272TIP3   OH228450   1.965   4.205   3.649 -0.3499  0.0143 -0.0503
 2272TIP3    H128451   1.968   4.178   3.741  1.0725 -0.5307 -0.2301
 2272TIP3    H228452   2.028   4.276   3.642 -0.9708  0.5344 -0.4646
 2273TIP3   OH228453   4.936   3.440   1.973 -0.4281 -0.2984 -0.0503
 2273TIP3    H128454   4.932   3.432   1.878 -0.3495 -0.0457 -0.0760
 2273TIP3    H228455   4.854   3.484   1.997  0.1881  0.9478 -0.1479
 2274TIP3   OH228456   3.285   2.674   0.367 -0.2763  0.1860 -0.4382
 2274TIP3    H128457   3.303   2.580   0.373 -1.0597  0.0785  0.3995
 2274TIP3    H228458   3.371   2.715   0.373 -0.0564 -0.4105  0.7429
 2275TIP3   OH228459   2.745   1.027   1.086  0.8312 -0.2839 -0.0853
 2275TIP3    H128460   2.818   0.968   1.068  0.3837 -0.8387 -0.1065
 2275TIP3    H228461   2.787   1.112   1.103  1.4261 -0.3998 -0.9186
 2276TIP3   OH228462   3.879   3.934   2.501 -0.1849  0.6192  0.0886
 2276TIP3    H128463   3.969   3.901   2.490  0.0310  0.7492  1.3366
 2276TIP3    H228464   3.839   3.922   2.414  0.4337 -1.2491  0.0009
 2277TIP3   OH228465   5.008   3.454   0.814  0.2514 -0.5719  0.0048
 2277TIP3    H128466   4.946   3.523   0.836  1.1886  0.4076 -0.3349
 2277TIP3    H228467   4.980   3.379   0.866  0.5400  0.7204  2.1252
 2278TIP3   OH228468   2.062   0.354   0.050  0.2073  0.1540  0.5870
 2278TIP3    H128469   1.994   0.401   0.002 -0.0789  0.3693  1.1891
 2278TIP3    H228470   2.144   0.377   0.005 -0.1090 -0.0478 -0.0950
 2279TIP3   OH228471   0.195   3.746   2.482 -0.1524  0.1705 -0.6318
 2279TIP3    H128472   0.103   3.725   2.468  0.2128 -1.8503 -0.2887
 2279TIP3    H228473   0.242   3.688   2.423  1.0204 -1.8483  2.0809
 2280TIP3   OH228474   1.638   6.091   2.139 -0.0695  0.5102 -0.0754
 2280TIP3    H128475   1.716   6.144   2.124  1.6673 -1.8148  0.1695
 2280TIP3    H228476   1.670   6.014   2.186 -2.1735 -1.4933 -1.6917
 2281TIP3   OH228477   3.210   4.697   0.891  0.2423  0.3202  0.2555
 2281TIP3    H128478   3.173   4.613   0.916 -0.5672 -0.1297 -2.1711
 2281TIP3    H228479   3.159   4.723   0.814  1.5783  2.2278 -0.0407
 2282TIP3   OH228480   4.627   5.091   2.757 -0.8221  0.1002  0.5923
 2282TIP3    H128481   4.651   5.000   2.736 -0.9179  0.1671  0.1920
 2282TIP3    H228482   4.579   5.085   2.840 -0.5606 -0.1809  0.7242
 2283TIP3   OH228483   5.887   5.128   2.100 -0.2201  0.0642  0.3646
 2283TIP3    H128484   5.856   5.218   2.112 -1.1764 -0.1787 -0.1979
 2283TIP3    H228485   5.959   5.119   2.163  1.7578  2.1029 -1.4296
 2284TIP3   OH228486   2.449   4.770   1.992 -1.0094 -0.3258  0.3541
 2284TIP3    H128487   2.532   4.748   1.950 -1.1446  2.5890 -1.8117
 2284TIP3    H228488   2.469   4.776   2.085  1.9778  2.7336 -0.2983
 2285TIP3   OH228489   6.240   4.588   3.005 -0.0567 -0.1272  0.4225
 2285TIP3    H128490   6.207   4.592   3.095  0.3684  0.6992  0.5425
 2285TIP3    H228491   6.218   4.673   2.967 -0.3637 -0.5237 -0.3072
 2286TIP3   OH228492   4.652   3.256   1.236 -0.3402  0.3778  0.5617
 2286TIP3    H128493   4.663   3.172   1.191  1.6050  0.6836  0.3633
 2286TIP3    H228494   4.663   3.322   1.168  1.9705  0.8355  1.2727
 2287TIP3   OH228495   5.189   0.146   0.529  0.6921  0.2122 -0.4597
 2287TIP3    H128496   5.226   0.072   0.480 -0.0234  0.2450 -1.0697
 2287TIP3    H228497   5.243   0.152   0.607  0.3931 -1.3520 -0.0897
 2288TIP3   OH228498   5.082   1.132   1.488 -0.3650  0.2491 -0.5742
 2288TIP3    H128499   5.031   1.115   1.409 -3.3565  1.5947  0.8919
 2288TIP3    H228500   5.130   1.212   1.470 -1.9193  1.1860 -0.6861
 2289TIP3   OH228501   4.812   3.730   0.710  0.3509 -0.1832 -0.6748
 2289TIP3    H128502   4.801   3.670   0.636 -0.1431 -0.8096 -0.1043
 2289TIP3    H228503   4.832   3.815   0.670  0.3013 -0.5633 -1.5145
 2290TIP3   OH228504   4.579   3.221   2.233  0.1665  0.2689  0.0130
 2290TIP3    H128505   4.545   3.311   2.239 -1.1527 -0.2288  0.6184
 2290TIP3    H228506   4.654   3.220   2.292 -0.1093  0.8561  0.3893
 2291TIP3   OH228507   0.591   4.896   3.280 -0.0544  0.1976 -0.6999
 2291TIP3    H128508   0.595   4.985   3.246 -3.4270  0.8624  0.1694
 2291TIP3    H228509   0.623   4.903   3.370  1.5130  0.0816 -1.2305
 2292TIP3   OH228510   0.697   2.624   2.161  0.3905  0.2447 -0.1412
 2292TIP3    H128511   0.780   2.655   2.124  0.3873 -0.5741 -0.8656
 2292TIP3    H228512   0.688   2.534   2.128 -1.0127  0.4774 -0.4567
 2293TIP3   OH228513   0.171   6.195   0.088 -0.3536 -0.7948 -0.1316
 2293TIP3    H128514   0.093   6.249   0.088 -0.1581 -0.5070  0.2653
 2293TIP3    H228515   0.231   6.239   0.027 -0.0073 -0.2795  0.5672
 2294TIP3   OH228516   5.168   5.764   1.219  0.6161  0.2007  0.0493
 2294TIP3    H128517   5.145   5.713   1.142  1.6647 -0.5495  0.2128
 2294TIP3    H228518   5.098   5.829   1.227  0.7033  0.5606 -1.7734
 2295TIP3   OH228519   5.863   0.438   0.512 -0.0737  0.6346 -0.0218
 2295TIP3    H128520   5.907   0.354   0.519 -0.3736  0.2143 -2.3829
 2295TIP3    H228521   5.796   0.425   0.444 -3.6002  1.3805  2.9679
 2296TIP3   OH228522   3.117   3.429   3.302  0.2029  0.3918  0.0717
 2296TIP3    H128523   3.041   3.472   3.340  0.0407 -0.4562  0.7508
 2296TIP3    H228524   3.080   3.359   3.248  0.4922 -0.6245  1.1501
 2297TIP3   OH228525   6.191   3.384   0.418 -0.3407  0.0895  0.0520
 2297TIP3    H128526   6.176   3.292   0.400  0.7080  0.2124 -1.6607
 2297TIP3    H228527   6.124   3.407   0.482 -1.0339 -1.6902  0.0233
 2298TIP3   OH228528   5.883   4.061   2.131  0.6206  0.1824  0.9880
 2298TIP3    H128529   5.889   4.025   2.043 -1.1606  0.9611  0.5136
 2298TIP3    H228530   5.911   4.152   2.121 -0.5556  0.5526  1.0214
 2299TIP3   OH228531   3.441   0.543   8.767 -0.5050 -0.9367 -0.2872
 2299TIP3    H128532   3.381   0.471   8.746  0.0895 -2.2295  2.0775
 2299TIP3    H228533   3.411   0.574   8.853 -1.6055  2.6761 -1.7844
 2300TIP3   OH228534   2.734   2.732   8.468 -0.3471 -0.0188  0.6353
 2300TIP3    H128535   2.739   2.652   8.416  1.8601  1.9469 -2.4928
 2300TIP3    H228536   2.803   2.722   8.534  1.3622  0.0239 -1.0418
 2301TIP3   OH228537   1.157   3.306   0.807  0.4343  0.4466 -0.6480
 2301TIP3    H128538   1.179   3.213   0.805 -0.3579  0.2476 -0.5547
 2301TIP3    H228539   1.086   3.312   0.871 -0.6944  0.8475 -1.8876
 2302TIP3   OH228540   3.898   5.950   3.901 -0.1359  0.1635  0.3150
 2302TIP3    H128541   3.949   6.025   3.930 -1.0159  0.4856  1.0959
 2302TIP3    H228542   3.811   5.986   3.881 -0.4545 -0.5775  0.3294
 2303TIP3   OH228543   4.023   3.245   3.433  0.5387  0.8213  0.7542
 2303TIP3    H128544   3.938   3.242   3.477  0.6726  1.5953  1.0825
 2303TIP3    H228545   4.074   3.175   3.475 -0.5780 -1.0574 -0.8789
 2304TIP3   OH228546   6.496   0.007   1.964  0.1502  0.1877  0.1391
 2304TIP3    H128547   6.465  -0.050   1.894 -1.4965  0.9454  0.1927
 2304TIP3    H228548   6.462   0.093   1.941  2.3116  1.1295  0.2201
 2305TIP3   OH228549   6.034   2.495   2.978  0.0478  1.1273 -0.0034
 2305TIP3    H128550   6.074   2.441   2.910  0.9630  0.7385  0.8241
 2305TIP3    H228551   5.987   2.434   3.034 -0.7104  1.4454 -0.2859
 2306TIP3   OH228552   4.864   1.344   2.189 -0.0783  0.1704  0.2854
 2306TIP3    H128553   4.855   1.437   2.167 -0.2980 -0.0219 -0.4645
 2306TIP3    H228554   4.868   1.342   2.285 -0.4257  0.9213  0.3201
 2307TIP3   OH228555   6.351   1.930   0.411 -0.2741  1.3486  0.1652
 2307TIP3    H128556   6.275   1.962   0.459 -0.0517  0.1823  1.3406
 2307TIP3    H228557   6.425   1.939   0.472  0.0724  0.1503 -0.0394
 2308TIP3   OH228558   5.038   0.981   2.894  0.4336  0.3078 -0.0404
 2308TIP3    H128559   5.129   1.011   2.893  0.4724  0.1814 -0.6650
 2308TIP3    H228560   5.036   0.907   2.833 -0.1489  0.4886 -0.2496
 2309TIP3   OH228561   4.283   1.239   1.828 -0.3507  0.1595  0.2722
 2309TIP3    H128562   4.306   1.228   1.736  0.2966  1.0210  0.3206
 2309TIP3    H228563   4.279   1.150   1.862 -1.8588 -0.2524 -0.8742
 2310TIP3   OH228564   1.504   6.694   2.196 -0.5207  0.4786 -0.3802
 2310TIP3    H128565   1.555   6.768   2.163 -0.9243 -0.4990 -3.4641
 2310TIP3    H228566   1.570   6.628   2.217 -0.3210  0.7310 -0.1894
 2311TIP3   OH228567   2.489   5.899   2.774  0.0744  0.1335 -0.7366
 2311TIP3    H128568   2.493   5.894   2.678  1.4776 -1.7025 -0.6416
 2311TIP3    H228569   2.570   5.944   2.798  0.4863 -0.7735 -0.3789
 2312TIP3   OH228570   2.495   4.430   2.256  0.4260  0.1797  0.0378
 2312TIP3    H128571   2.506   4.470   2.342  1.5282 -0.4819  0.2206
 2312TIP3    H228572   2.437   4.490   2.209  0.8450  1.2113  0.8002
 2313TIP3   OH228573   1.852   4.828   8.519  0.3494 -0.5004  0.5211
 2313TIP3    H128574   1.807   4.913   8.519 -0.6448 -1.0131  0.9237
 2313TIP3    H228575   1.904   4.829   8.439  0.3869  0.5079  0.5434
 2314TIP3   OH228576   1.954   2.657   0.363  0.0363 -0.0784  0.3271
 2314TIP3    H128577   1.914   2.692   0.283 -0.3647  1.8435  1.3189
 2314TIP3    H228578   1.980   2.568   0.339 -0.6019  0.2345 -1.7614
 2315TIP3   OH228579   3.559   1.055   2.162 -0.3898 -0.0996 -0.1743
 2315TIP3    H128580   3.567   1.018   2.074  0.1708 -0.6510  0.0976
 2315TIP3    H228581   3.512   0.989   2.211 -0.1283 -0.0809  0.1039
 2316TIP3   OH228582   4.702   4.222   3.970 -0.0940  0.3297 -0.1401
 2316TIP3    H128583   4.707   4.141   3.918 -1.1006  0.6630 -0.8033
 2316TIP3    H228584   4.608   4.237   3.981  0.0947  0.4823  1.4755
 2317TIP3   OH228585   1.291   1.079   3.547  1.1876  0.2382  0.0603
 2317TIP3    H128586   1.317   1.034   3.467  0.0604  1.3312 -0.9574
 2317TIP3    H228587   1.372   1.085   3.599  1.6073 -1.8422 -0.2824
 2318TIP3   OH228588   1.189   0.279   0.000 -0.0041 -0.9728 -0.1861
 2318TIP3    H128589   1.154   0.241  -0.081  1.6335 -0.9959 -0.9169
 2318TIP3    H228590   1.282   0.257  -0.002  0.4701  0.8347  0.6771
 2319TIP3   OH228591   2.115   1.822   7.994  0.6314 -0.1512  0.0011
 2319TIP3    H128592   2.126   1.740   7.946  0.2956 -0.7653  0.9496
 2319TIP3    H228593   2.033   1.812   8.041  1.5529 -0.1131  1.7182
 2320TIP3   OH228594   1.044   6.013   1.234 -0.3017 -0.4446 -0.4098
 2320TIP3    H128595   1.032   6.107   1.224  0.7826 -0.4429 -2.3799
 2320TIP3    H228596   1.132   5.997   1.200 -1.3771 -2.4419 -2.5875
 2321TIP3   OH228597   5.458   4.090   0.594  0.7493 -0.1521  0.3219
 2321TIP3    H128598   5.439   4.183   0.599 -0.3200 -0.3216 -0.2401
 2321TIP3    H228599   5.440   4.067   0.503 -0.4371 -1.1817  0.7835
 2322TIP3   OH228600   3.000   0.537   1.279  0.8197  0.2413 -0.4007
 2322TIP3    H128601   2.963   0.585   1.353 -1.2990  2.0574 -2.4857
 2322TIP3    H228602   2.949   0.456   1.276 -0.3623  0.9721 -0.8829
 2323TIP3   OH228603   1.718   0.735   0.059 -0.1000 -0.4625  0.0239
 2323TIP3    H128604   1.743   0.645   0.039  2.0599  0.4736 -1.9924
 2323TIP3    H228605   1.629   0.744   0.025  0.3992 -1.3161 -1.6088
 2324TIP3   OH228606   6.072   2.309   8.610  0.3772  0.6674  0.2276
 2324TIP3    H128607   6.002   2.292   8.673 -1.0817  2.6925 -0.7121
 2324TIP3    H228608   6.110   2.392   8.639  1.0243  0.6058 -0.4201
 2325TIP3   OH228609   3.927   3.473   3.073 -0.4494  0.2328 -0.3693
 2325TIP3    H128610   3.987   3.472   3.148 -0.0123 -0.4077 -0.7164
 2325TIP3    H228611   3.844   3.441   3.109  0.3322 -2.3077 -0.5767
 2326TIP3   OH228612   4.367   2.547   2.412  0.3353 -0.1124  0.1994
 2326TIP3    H128613   4.308   2.620   2.396  0.3770  0.3066  1.7977
 2326TIP3    H228614   4.401   2.562   2.500  3.3358  0.0008 -0.8755
 2327TIP3   OH228615   0.780   5.050   7.968 -0.4499  0.6322  0.1151
 2327TIP3    H128616   0.832   5.028   7.891 -0.4508  1.0730 -0.0134
 2327TIP3    H228617   0.712   4.982   7.971 -0.5827  0.7413 -0.3982
 2328TIP3   OH228618   0.372   2.504   0.190  0.1098  0.0755  0.1653
 2328TIP3    H128619   0.282   2.523   0.163  0.1004 -0.8865 -0.5378
 2328TIP3    H228620   0.408   2.452   0.118  1.2200  0.4081  0.4562
 2329TIP3   OH228621   1.398   2.307   1.374  0.0838 -0.3205  0.5834
 2329TIP3    H128622   1.464   2.377   1.371 -0.4856  0.1952 -0.6054
 2329TIP3    H228623   1.333   2.333   1.309 -0.5761 -1.5410  0.7294
 2330TIP3   OH228624   2.576   2.190   0.407 -0.5487  0.9333 -0.4455
 2330TIP3    H128625   2.480   2.182   0.404 -0.5802 -0.4894  1.6552
 2330TIP3    H228626   2.604   2.178   0.316 -2.2853 -0.5714 -0.8558
 2331TIP3   OH228627   0.223   2.626   0.651 -0.2395 -0.1621  0.4674
 2331TIP3    H128628   0.246   2.634   0.744 -1.3458  2.6929  0.6023
 2331TIP3    H228629   0.294   2.671   0.605 -0.5484 -0.0535  0.0965
 2332TIP3   OH228630   5.502   2.680   2.904  0.1655 -0.1353 -0.0333
 2332TIP3    H128631   5.577   2.737   2.887 -0.1256  0.2593 -0.0103
 2332TIP3    H228632   5.431   2.740   2.925 -0.3391 -0.4711 -0.7307
 2333TIP3   OH228633   3.340   3.189   1.302  0.4050  0.2576  0.3126
 2333TIP3    H128634   3.294   3.245   1.240 -0.4539 -0.1627  0.5644
 2333TIP3    H228635   3.271   3.140   1.347  1.0757 -0.1678  0.8999
 2334TIP3   OH228636   3.219   1.630   1.260  0.1473  1.0513  0.1238
 2334TIP3    H128637   3.313   1.627   1.277 -0.0213 -1.1384  0.8691
 2334TIP3    H228638   3.212   1.655   1.168  1.8439 -4.9824 -2.0880
 2335TIP3   OH228639   3.811   3.496   0.186  0.5607  0.5790 -0.9294
 2335TIP3    H128640   3.836   3.586   0.165  0.4026  0.5348 -1.3198
 2335TIP3    H228641   3.886   3.443   0.161  0.3689  0.5255 -1.4099
 2336TIP3   OH228642   0.987   2.350   3.531  0.0838  0.2744 -0.6692
 2336TIP3    H128643   0.919   2.284   3.545 -0.2723  0.8299  0.2651
 2336TIP3    H228644   1.048   2.338   3.604 -0.8871  2.0779  0.4967
 2337TIP3   OH228645   2.800   1.690   1.070 -0.3103 -0.0544  0.1044
 2337TIP3    H128646   2.826   1.783   1.076 -0.1769  0.0705 -1.7946
 2337TIP3    H228647   2.787   1.675   0.976 -1.1740 -1.7512  0.4625
 2338TIP3   OH228648   6.743   3.603   2.389  0.0720 -0.5481  0.1125
 2338TIP3    H128649   6.770   3.673   2.329 -1.7710  0.9579  0.9161
 2338TIP3    H228650   6.793   3.526   2.361  0.9585  0.6670 -1.8607
 2339TIP3   OH228651   3.445   4.097   2.409  0.4909 -0.1845 -0.2049
 2339TIP3    H128652   3.361   4.062   2.438  0.2690 -0.3101 -0.9608
 2339TIP3    H228653   3.422   4.159   2.339  1.0065 -0.0033 -0.2178
 2340TIP3   OH228654   0.493   4.996   2.969 -0.5042 -0.1151 -0.4910
 2340TIP3    H128655   0.481   5.060   2.898  0.2157  0.8958  0.2742
 2340TIP3    H228656   0.417   4.938   2.961 -0.8891  0.4989 -1.5497
 2341TIP3   OH228657   1.414   6.795   8.325 -0.7687 -0.1454  0.1851
 2341TIP3    H128658   1.425   6.704   8.295 -0.3351 -0.6444  1.7605
 2341TIP3    H228659   1.408   6.788   8.420 -0.0402  1.5452  0.3873
 2342TIP3   OH228660   0.311   0.017   0.177  0.2329  0.1731  0.2724
 2342TIP3    H128661   0.332  -0.014   0.265  0.7665 -0.3416 -0.0308
 2342TIP3    H228662   0.395   0.046   0.141 -0.1024  1.0947  0.2055
 2343TIP3   OH228663   2.702   3.552   3.111 -0.0807 -0.0197  0.3043
 2343TIP3    H128664   2.716   3.474   3.165  0.4281  0.5104  0.9509
 2343TIP3    H228665   2.751   3.621   3.155  0.0761  0.5046 -0.6664
 2344TIP3   OH228666   4.131   1.753   2.715  0.3502 -0.2163  0.1574
 2344TIP3    H128667   4.120   1.706   2.798  0.4713  0.6896  0.6945
 2344TIP3    H228668   4.123   1.685   2.648  0.0046 -0.9221  0.8983
 2345TIP3   OH228669   6.086   3.673   1.658 -0.4796  0.2256  0.0798
 2345TIP3    H128670   6.069   3.637   1.745 -1.3653 -0.1194 -0.2234
 2345TIP3    H228671   6.109   3.765   1.674 -1.6907  0.4616  0.6152
 2346TIP3   OH228672   0.871   2.060   0.009 -0.2322 -0.6019 -0.4494
 2346TIP3    H128673   0.848   2.056   0.102 -0.9932 -1.9111 -0.6715
 2346TIP3    H228674   0.790   2.042  -0.037 -0.4233  2.2719 -1.4934
 2347TIP3   OH228675   5.555   6.617   8.255  0.0092 -0.5654 -0.5236
 2347TIP3    H128676   5.632   6.611   8.199 -0.8906 -0.2021 -1.8377
 2347TIP3    H228677   5.495   6.550   8.222 -0.3048 -0.7561  0.3943
 2348TIP3   OH228678   6.444   4.464   1.390  0.9239 -0.5012 -0.3692
 2348TIP3    H128679   6.467   4.393   1.450  5.8057 -0.1665 -1.4340
 2348TIP3    H228680   6.409   4.420   1.313 -1.6384 -1.1814  1.0573
 2349TIP3   OH228681   1.243   2.249   2.270  0.6316  0.4390  0.2067
 2349TIP3    H128682   1.254   2.184   2.201  2.0746  0.7309  0.1417
 2349TIP3    H228683   1.216   2.329   2.224 -1.4944 -0.1494  0.3199
 2350TIP3   OH228684   3.842   0.171   3.049  1.2781  0.0569 -0.5912
 2350TIP3    H128685   3.846   0.077   3.067 -1.4628 -0.1356 -0.6354
 2350TIP3    H228686   3.849   0.211   3.136  1.2374 -0.2330 -0.4505
 2351TIP3   OH228687   2.659   4.696   1.177 -0.0871 -0.0910  0.0911
 2351TIP3    H128688   2.748   4.677   1.207  0.3147 -0.5215 -1.2700
 2351TIP3    H228689   2.671   4.733   1.089 -1.1074  2.6323  1.0044
 2352TIP3   OH228690   4.916   5.664   2.619 -0.0121  0.3546  0.1265
 2352TIP3    H128691   4.956   5.684   2.704 -0.0317  0.9392 -0.0019
 2352TIP3    H228692   4.931   5.570   2.608  1.4110  0.5631  0.0383
 2353TIP3   OH228693   6.374   3.078   0.586 -0.7969 -0.4123 -0.1557
 2353TIP3    H128694   6.289   3.054   0.623 -0.1391 -1.2971  0.8364
 2353TIP3    H228695   6.362   3.070   0.491 -2.0368  0.2584 -0.0699
 2354TIP3   OH228696   0.038   2.019   2.866  0.8067  0.2070  0.0382
 2354TIP3    H128697   0.016   1.931   2.836  1.9069 -0.4021  0.9103
 2354TIP3    H228698   0.041   2.012   2.962  0.1134  1.4007  0.1696
 2355TIP3   OH228699   5.887   5.676   1.862 -0.6334 -0.2353 -0.6422
 2355TIP3    H128700   5.941   5.647   1.788 -0.6173  0.2269 -0.8125
 2355TIP3    H228701   5.914   5.766   1.878 -0.1533 -0.5386  0.3632
 2356TIP3   OH228702   3.818   6.490   3.313 -0.2420  0.5006  0.3534
 2356TIP3    H128703   3.827   6.565   3.371 -0.6524  0.1650  0.8604
 2356TIP3    H228704   3.724   6.473   3.309 -0.3232  1.1134 -1.1867
 2357TIP3   OH228705   0.848   2.765   0.462 -0.6042  0.0224  0.1501
 2357TIP3    H128706   0.768   2.790   0.415  0.2161  1.3528 -0.5853
 2357TIP3    H228707   0.835   2.672   0.483 -2.1762  0.1082 -0.2746
 2358TIP3   OH228708   5.798   2.755   3.407  0.9534  0.1738  0.3553
 2358TIP3    H128709   5.767   2.703   3.333  0.2858 -2.5674  2.3842
 2358TIP3    H228710   5.892   2.741   3.408  0.6271 -2.6738  1.8774
 2359TIP3   OH228711   0.398   4.852   2.221  0.4467  0.2101 -0.4245
 2359TIP3    H128712   0.462   4.788   2.253  1.1020  0.9689 -0.1748
 2359TIP3    H228713   0.316   4.827   2.262  0.7707 -0.2529 -0.0445
 2360TIP3   OH228714   1.073   5.795   4.074  0.0994  0.4368  0.2720
 2360TIP3    H128715   1.058   5.802   4.168 -0.8196 -1.2341  0.2769
 2360TIP3    H228716   1.088   5.886   4.046  0.5767  0.9494  2.0332
 2361TIP3   OH228717   2.114   6.143   0.246  0.0482  0.3567 -0.0174
 2361TIP3    H128718   2.165   6.142   0.164 -0.0525  0.4642 -0.0801
 2361TIP3    H228719   2.041   6.083   0.230  0.7665 -0.6835  0.4595
 2362TIP3   OH228720   0.687   0.677   1.053 -0.3724 -0.0663  0.2431
 2362TIP3    H128721   0.650   0.733   1.121  1.8901  0.3582  1.2204
 2362TIP3    H228722   0.772   0.716   1.033  0.4977 -2.0995 -0.3621
 2363TIP3   OH228723   6.656   5.856   1.746 -0.0263 -0.0279 -0.5901
 2363TIP3    H128724   6.669   5.768   1.712 -1.8006 -1.0703  1.2411
 2363TIP3    H228725   6.743   5.884   1.775  0.5598 -1.1349 -1.2516
 2364TIP3   OH228726   2.077   3.245   0.107  0.2374  0.1677  0.2582
 2364TIP3    H128727   2.065   3.202   0.022 -0.0248 -0.1387  0.4506
 2364TIP3    H228728   2.112   3.331   0.085  0.7727 -0.1430 -0.1315
 2365TIP3   OH228729   1.676   0.853   3.330 -1.1871 -0.2306 -0.3306
 2365TIP3    H128730   1.725   0.921   3.375 -1.8118 -0.5031  0.7853
 2365TIP3    H228731   1.740   0.813   3.270 -0.2584 -0.0779  0.5374
 2366TIP3   OH228732   1.622   2.470   1.317 -0.3032  0.2480 -0.1521
 2366TIP3    H128733   1.610   2.463   1.222 -3.2352  2.3650 -0.0723
 2366TIP3    H228734   1.715   2.450   1.331  0.2053 -0.2670 -3.4145
 2367TIP3   OH228735   6.725   3.075   3.787 -0.1178 -0.6467 -0.3945
 2367TIP3    H128736   6.652   3.016   3.766 -0.6128 -1.4141  2.9346
 2367TIP3    H228737   6.683   3.152   3.825  0.6795  0.7212 -2.1787
 2368TIP3   OH228738   4.984   5.631   3.457  0.4932  0.0314  0.2100
 2368TIP3    H128739   4.985   5.547   3.411  0.5806  0.0106  0.2506
 2368TIP3    H228740   4.988   5.608   3.550 -0.4365  0.0471  0.2626
 2369TIP3   OH228741   0.927   4.455   8.265  0.4785 -0.3898 -0.2400
 2369TIP3    H128742   0.867   4.529   8.258  0.4075 -0.4115  0.1019
 2369TIP3    H228743   1.014   4.495   8.268  0.7363 -0.4639 -3.5834
 2370TIP3   OH228744   3.116   5.588   2.553 -0.0402  0.2363  0.7357
 2370TIP3    H128745   3.195   5.590   2.498  1.7212 -2.2620  2.9171
 2370TIP3    H228746   3.062   5.520   2.513  0.3485 -0.2124  0.9585
 2371TIP3   OH228747   6.061   1.986   2.434  0.2448 -0.0906  0.0132
 2371TIP3    H128748   6.155   1.995   2.446  0.3371 -1.1197  0.1690
 2371TIP3    H228749   6.034   1.925   2.502 -0.3249 -0.7956 -0.8189
 2372TIP3   OH228750   5.704   3.456   2.598 -0.7161  0.1077 -0.2767
 2372TIP3    H128751   5.652   3.475   2.520 -1.6968  0.9962  0.5695
 2372TIP3    H228752   5.667   3.512   2.666  0.3441 -0.3980  0.7493
 2373TIP3   OH228753   4.701   5.799   8.704 -0.2011 -0.3843 -0.3881
 2373TIP3    H128754   4.728   5.889   8.689 -2.8019  0.6003  0.1928
 2373TIP3    H228755   4.659   5.772   8.622  0.3773 -1.0159 -0.4892
 2374TIP3   OH228756   2.133   5.770   0.568 -0.6822 -0.2940  0.3070
 2374TIP3    H128757   2.169   5.756   0.481  0.9312  0.7993  0.7472
 2374TIP3    H228758   2.207   5.804   0.619 -2.2641  1.8585  1.3303
 2375TIP3   OH228759   6.150   1.172   3.349 -0.5913  0.3770  0.4278
 2375TIP3    H128760   6.123   1.107   3.284 -1.1487  1.3496 -0.3318
 2375TIP3    H228761   6.239   1.195   3.324  0.0342 -0.9131  1.3803
 2376TIP3   OH228762   5.434   2.947   1.504 -0.0677 -0.4795  0.1004
 2376TIP3    H128763   5.367   2.896   1.458  0.3116  0.2715 -1.3018
 2376TIP3    H228764   5.409   3.038   1.491  0.1185 -0.2364  1.2995
 2377TIP3   OH228765   5.773   6.767   3.629 -0.3480  0.1838  0.1011
 2377TIP3    H128766   5.742   6.799   3.544 -2.8820 -1.8402  0.1618
 2377TIP3    H228767   5.702   6.713   3.662  0.8112  0.4334  3.3013
 2378TIP3   OH228768   1.974   2.215   1.102 -0.0848 -0.2006  0.1519
 2378TIP3    H128769   1.991   2.206   1.196  0.1819  0.6638  0.1908
 2378TIP3    H228770   2.043   2.164   1.060  0.9792  1.0007  0.3802
 2379TIP3   OH228771   2.048   6.601   2.966 -0.3793 -0.3304 -0.6744
 2379TIP3    H128772   2.130   6.641   2.997  0.3350 -2.9435  1.0998
 2379TIP3    H228773   2.014   6.664   2.902  2.7239  1.1102 -1.1026
 2380TIP3   OH228774   0.194   6.021   0.437  0.1151 -0.4443  0.8302
 2380TIP3    H128775   0.206   6.086   0.506  1.0162 -1.2972  1.5074
 2380TIP3    H228776   0.210   5.937   0.480  2.9238 -0.8948 -0.8444
 2381TIP3   OH228777   5.994   6.489   1.871  0.3094 -0.2439  0.1749
 2381TIP3    H128778   5.983   6.514   1.779  0.7400 -0.1052  0.1572
 2381TIP3    H228779   6.089   6.483   1.883  0.2319 -1.7347  0.2144
 2382TIP3   OH228780   4.634   0.473   0.415 -0.4439  0.3362 -0.2985
 2382TIP3    H128781   4.702   0.433   0.360 -0.7246  0.2042 -0.5569
 2382TIP3    H228782   4.650   0.567   0.408 -0.9080  0.3649 -1.1945
 2383TIP3   OH228783   6.671   4.469   2.660  0.0866 -0.4148 -0.2396
 2383TIP3    H128784   6.716   4.529   2.600  2.0017 -1.8062 -0.2626
 2383TIP3    H228785   6.672   4.515   2.744  0.1488  0.2283 -0.5824
 2384TIP3   OH228786   2.427   6.053   0.407  0.1460 -0.0428 -0.0614
 2384TIP3    H128787   2.457   5.964   0.420  0.7210  0.1352 -0.1353
 2384TIP3    H228788   2.415   6.088   0.495 -1.5327 -0.6512 -0.0029
 2385TIP3   OH228789   4.115   1.728   3.524  0.1124  0.4160  0.3396
 2385TIP3    H128790   4.083   1.807   3.568  0.0134  0.8688 -0.5121
 2385TIP3    H228791   4.143   1.759   3.438 -0.8529 -0.6630 -0.3809
 2386TIP3   OH228792   0.891   3.992   2.621  0.6270  0.6244 -0.4305
 2386TIP3    H128793   0.929   3.910   2.590  1.2713  0.7483  0.0240
 2386TIP3    H228794   0.962   4.055   2.617  0.9870  0.4779  2.0081
 2387TIP3   OH228795   1.056   2.650   0.678 -0.1762  0.7050 -0.5594
 2387TIP3    H128796   1.149   2.636   0.661 -0.3544 -0.2858 -0.7569
 2387TIP3    H228797   1.011   2.583   0.626 -0.8574 -0.8852  1.9224
 2388TIP3   OH228798   4.045   1.091   2.607  0.3542  0.0069 -0.2408
 2388TIP3    H128799   4.131   1.117   2.574 -1.2219  1.6731 -3.5237
 2388TIP3    H228800   3.993   1.171   2.604 -1.7911 -1.3086 -0.1008
 2389TIP3   OH228801   5.097   4.438   3.734 -0.3762 -0.0444 -0.0006
 2389TIP3    H128802   5.144   4.363   3.772 -0.5951  0.4802  1.3560
 2389TIP3    H228803   5.010   4.433   3.772 -0.3960  0.8980  0.0862
 2390TIP3   OH228804   2.715   2.201   0.167  0.4814 -0.4243  0.0460
 2390TIP3    H128805   2.721   2.294   0.146 -0.4434  0.3914  2.9019
 2390TIP3    H228806   2.639   2.170   0.117 -1.2840  1.2403  1.5463
 2391TIP3   OH228807   2.865   2.321   2.735  0.7973  0.5248  0.0973
 2391TIP3    H128808   2.843   2.331   2.828 -0.0759 -0.6379  0.0436
 2391TIP3    H228809   2.870   2.410   2.702  0.3345  0.9433  1.0957
 2392TIP3   OH228810   0.892   3.164   8.025  0.3147 -0.7232 -0.4964
 2392TIP3    H128811   0.836   3.099   8.067  0.1178 -0.7022 -0.7265
 2392TIP3    H228812   0.833   3.235   8.001  0.6301 -0.1753  0.3181
 2393TIP3   OH228813   4.301   2.650   3.377  0.3072 -0.3654 -0.4996
 2393TIP3    H128814   4.287   2.655   3.471  4.4681  0.3124  0.2550
 2393TIP3    H228815   4.335   2.562   3.362 -0.0178 -0.3589 -1.3166
 2394TIP3   OH228816   5.434   2.963   3.175 -0.2528 -0.8325  0.0967
 2394TIP3    H128817   5.424   2.875   3.212  1.6045 -1.5523 -0.9911
 2394TIP3    H228818   5.516   2.960   3.127 -0.9331  1.0600 -1.3070
 2395TIP3   OH228819   5.607   3.162   2.632  0.3149  0.3709 -0.2971
 2395TIP3    H128820   5.583   3.254   2.631  0.0850  0.3170 -1.4779
 2395TIP3    H228821   5.528   3.116   2.662  0.5603  0.5770  0.6945
 2396TIP3   OH228822   5.514   0.934   1.024  0.2142  0.2284 -0.3948
 2396TIP3    H128823   5.589   0.942   1.083 -0.2162  1.9059 -0.0212
 2396TIP3    H228824   5.451   0.880   1.072 -1.1727  3.5747  1.9287
 2397TIP3   OH228825   5.923   4.241   1.835 -0.6020  0.4765  0.2764
 2397TIP3    H128826   5.999   4.280   1.879  0.9049 -0.9021 -0.9918
 2397TIP3    H228827   5.909   4.297   1.758 -0.4980  0.3814  0.1889
 2398TIP3   OH228828   1.340   5.220   0.158 -0.2622  0.5324  0.3322
 2398TIP3    H128829   1.264   5.274   0.137 -0.5094  0.3359  0.7192
 2398TIP3    H228830   1.325   5.137   0.112 -0.2508  0.5148  0.3599
 2399TIP3   OH228831   4.449   6.164   0.480 -0.2874  0.4407  0.2673
 2399TIP3    H128832   4.355   6.156   0.500 -0.3198 -0.1666 -0.1073
 2399TIP3    H228833   4.468   6.089   0.423  0.5895  0.1484  0.9258
 2400TIP3   OH228834   4.618   0.789   4.699 -0.0293  0.3889  0.1457
 2400TIP3    H128835   4.599   0.883   4.702 -0.5937  0.2790  0.2619
 2400TIP3    H228836   4.564   0.756   4.627  4.6428  1.0975 -4.2505
 2401TIP3   OH228837   1.189   0.718   1.212 -0.2080 -0.1108  0.4505
 2401TIP3    H128838   1.263   0.721   1.151  0.2802 -3.7037  0.6341
 2401TIP3    H228839   1.115   0.751   1.161  0.9809  1.0893 -0.5847
 2402TIP3   OH228840   2.477   0.735   2.935  0.0339  0.2769 -0.0406
 2402TIP3    H128841   2.482   0.813   2.990  1.4521 -0.4798  0.9817
 2402TIP3    H228842   2.399   0.689   2.964 -1.3468  1.7018 -1.2727
 2403TIP3   OH228843   4.218   1.394   2.232  0.2141 -0.3371 -0.5312
 2403TIP3    H128844   4.270   1.465   2.270 -2.0603  1.9285 -1.3354
 2403TIP3    H228845   4.222   1.409   2.137  1.1192 -2.3964 -0.8558
 2404TIP3   OH228846   4.855   5.954   4.134 -0.0381 -0.0961 -0.3184
 2404TIP3    H128847   4.910   6.027   4.163 -1.5861  1.3736 -0.9288
 2404TIP3    H228848   4.892   5.929   4.049 -1.0307  1.8062 -1.3978
 2405TIP3   OH228849   1.809   5.806   0.592 -0.4135  0.2527 -0.1916
 2405TIP3    H128850   1.882   5.860   0.622 -0.3159  0.0709 -0.0973
 2405TIP3    H228851   1.843   5.716   0.596  0.3847  0.3345 -3.0139
 2406TIP3   OH228852   5.018   0.566   8.783 -0.8812  0.2721  0.5441
 2406TIP3    H128853   4.931   0.534   8.805 -1.3119  0.6968 -0.4824
 2406TIP3    H228854   5.062   0.490   8.744 -1.2686  0.4050 -0.1807
 2407TIP3   OH228855   4.897   1.981   3.389 -0.2637  0.4458  0.2849
 2407TIP3    H128856   4.892   2.073   3.416 -0.3696  0.6178 -0.3186
 2407TIP3    H228857   4.826   1.970   3.326 -0.4721 -0.1431  0.6194
 2408TIP3   OH228858   0.994   2.730   3.014  0.0031 -0.2132  0.2750
 2408TIP3    H128859   1.063   2.773   2.964  0.1120 -0.4783  0.1969
 2408TIP3    H228860   0.956   2.801   3.067 -0.4000  0.1504 -0.4938
 2409TIP3   OH228861   5.532   4.392   2.613  0.3851 -0.1972 -0.5560
 2409TIP3    H128862   5.503   4.392   2.522  0.2170 -1.2665 -0.5114
 2409TIP3    H228863   5.570   4.479   2.626  1.1869 -0.3140 -1.9040
 2410TIP3   OH228864   3.309   4.068   8.511 -0.2423  0.2873  0.4614
 2410TIP3    H128865   3.282   4.018   8.434 -0.5189  0.1651  0.6345
 2410TIP3    H228866   3.400   4.043   8.526 -0.4611 -0.3667  0.7049
 2411TIP3   OH228867   6.354   4.829   1.939  0.2626  0.3435  0.8864
 2411TIP3    H128868   6.436   4.796   1.901  0.9477  1.7316  1.1050
 2411TIP3    H228869   6.287   4.767   1.909  1.2916 -0.4470  0.1581
 2412TIP3   OH228870   3.269   0.513   3.424 -0.5438 -0.0776 -0.1343
 2412TIP3    H128871   3.215   0.560   3.487  0.0541  0.2618  0.1308
 2412TIP3    H228872   3.356   0.551   3.433 -0.1487 -0.9233 -0.2339
 2413TIP3   OH228873   5.012   2.459   1.512  0.0504 -0.6611 -0.0754
 2413TIP3    H128874   5.033   2.372   1.545  3.0419 -0.2380 -0.5388
 2413TIP3    H228875   5.034   2.518   1.584  2.6801 -0.0474 -1.2318
 2414TIP3   OH228876   1.153   1.267   2.614 -0.8154 -0.0374 -0.9779
 2414TIP3    H128877   1.210   1.328   2.661  0.7895 -0.7965 -1.8562
 2414TIP3    H228878   1.080   1.250   2.674  0.0658  0.6938  0.3280
 2415TIP3   OH228879   5.431   1.234   1.622  0.6154 -0.1055 -0.2524
 2415TIP3    H128880   5.466   1.230   1.533  1.5805 -0.9555  0.1478
 2415TIP3    H228881   5.504   1.268   1.675  0.3387 -0.4433  0.3527
 2416TIP3   OH228882   3.496   5.081   3.583  0.1140  0.1044  0.1079
 2416TIP3    H128883   3.497   4.996   3.628  0.4138  0.0144 -0.0634
 2416TIP3    H228884   3.546   5.065   3.502 -0.2541  0.3149 -0.1618
 2417TIP3   OH228885   0.176   0.592   0.765  0.3187  0.0324  0.1271
 2417TIP3    H128886   0.232   0.633   0.832 -1.3599  0.9649  1.0386
 2417TIP3    H228887   0.139   0.667   0.717 -0.9104 -0.5049  0.2119
 2418TIP3   OH228888   2.364   4.763   8.123 -0.7173  1.0498  0.0979
 2418TIP3    H128889   2.299   4.810   8.071  1.8579 -0.6328 -5.5514
 2418TIP3    H228890   2.347   4.671   8.104  2.7038  0.5296 -1.0975
 2419TIP3   OH228891   5.487   6.330   4.338 -0.0218  0.1829 -0.1058
 2419TIP3    H128892   5.461   6.243   4.367 -0.6135  0.2614 -0.3854
 2419TIP3    H228893   5.452   6.338   4.249  0.3660  0.5554 -0.2304
 2420TIP3   OH228894   4.426   0.434   4.286  0.7547  0.1647 -0.2073
 2420TIP3    H128895   4.456   0.525   4.275  2.5782 -0.2323  0.9914
 2420TIP3    H228896   4.447   0.391   4.203  0.1352  0.7459 -0.6792
 2421TIP3   OH228897   3.033   5.346   8.602  0.4102  0.0158  0.6069
 2421TIP3    H128898   3.035   5.376   8.512 -3.2771 -0.2683  0.3043
 2421TIP3    H228899   3.125   5.348   8.630  1.5157  1.3129 -2.6890
 2422TIP3   OH228900   2.907   3.074   1.842  0.2686  0.1188 -0.7017
 2422TIP3    H128901   2.814   3.091   1.859  0.0937 -0.0158 -1.4876
 2422TIP3    H228902   2.939   3.155   1.803  1.3656  1.5111  2.7109
 2423TIP3   OH228903   0.522   5.551   3.006  0.4191  0.0320  0.1129
 2423TIP3    H128904   0.586   5.482   2.993  1.6702  1.2074 -0.2201
 2423TIP3    H228905   0.467   5.520   3.078  0.3129 -1.7232 -0.6878
 2424TIP3   OH228906   0.193   2.577   2.874  0.5419 -0.5690  0.0236
 2424TIP3    H128907   0.202   2.489   2.909 -0.3821 -1.1247 -1.0709
 2424TIP3    H228908   0.157   2.628   2.946  1.8796 -0.8652  0.9323
 2425TIP3   OH228909   2.959   2.712   2.307 -0.2528 -0.7784  0.0671
 2425TIP3    H128910   2.989   2.802   2.317 -0.5984 -0.5726 -0.6486
 2425TIP3    H228911   2.946   2.702   2.212  0.9675 -1.9765  0.0040
 2426TIP3   OH228912   2.952   2.969   0.488  0.4978 -0.1038  0.3643
 2426TIP3    H128913   3.027   2.957   0.546 -0.7741 -2.9955  1.6198
 2426TIP3    H228914   2.880   2.991   0.547 -0.0760  0.7313 -0.6080
 2427TIP3   OH228915   5.580   6.373   0.675 -0.7086  0.4353  1.1996
 2427TIP3    H128916   5.597   6.464   0.653 -0.2761  0.2569  0.7914
 2427TIP3    H228917   5.510   6.377   0.740 -1.1476  1.0288  0.7079
 2428TIP3   OH228918   0.599   2.067   0.405 -0.1396  0.8505  0.3476
 2428TIP3    H128919   0.564   2.154   0.387  1.1720  1.3443  0.1350
 2428TIP3    H228920   0.611   2.064   0.500  2.4100  1.9557  0.1275
 2429TIP3   OH228921   4.626   6.223   2.245 -0.0898 -0.1657  0.2409
 2429TIP3    H128922   4.644   6.308   2.283  2.9355 -0.1734 -0.9624
 2429TIP3    H228923   4.676   6.161   2.298  2.1365 -0.4686 -2.0440
 2430TIP3   OH228924   3.752   2.117   1.359  0.6325  0.5765 -0.6943
 2430TIP3    H128925   3.785   2.067   1.284  1.6153  0.3168 -0.1132
 2430TIP3    H228926   3.826   2.172   1.386  0.5672  0.1017  0.5485
 2431TIP3   OH228927   6.644   0.426   0.023  0.1921  0.6341  0.2047
 2431TIP3    H128928   6.739   0.416   0.029  0.0023 -3.1572 -0.9809
 2431TIP3    H228929   6.611   0.402   0.110  0.1946 -2.6321 -0.5837
 2432TIP3   OH228930   2.490   5.815   1.204 -0.0655  0.1583 -0.0218
 2432TIP3    H128931   2.516   5.907   1.202  0.1842  0.0828 -1.2694
 2432TIP3    H228932   2.469   5.797   1.295  0.1662  1.3755  0.2789
 2433TIP3   OH228933   4.822   0.906   3.086  0.0433 -0.2488 -0.2704
 2433TIP3    H128934   4.880   0.968   3.131 -0.5006  0.3393 -0.3721
 2433TIP3    H228935   4.880   0.859   3.027  0.3861  0.5367 -0.5844
 2434TIP3   OH228936   2.534   0.169   1.387 -0.0546 -0.1073 -0.3021
 2434TIP3    H128937   2.528   0.250   1.335 -0.4832 -1.2339 -2.0924
 2434TIP3    H228938   2.579   0.196   1.467 -1.7524  2.2742 -0.0306
 2435TIP3   OH228939   6.052   2.670   1.080 -0.0993 -0.2058  0.4294
 2435TIP3    H128940   5.967   2.670   1.124 -1.3544  1.2429 -1.8027
 2435TIP3    H228941   6.052   2.750   1.028  1.7751 -1.2063 -1.2553
 2436TIP3   OH228942   4.147   5.773   2.362  0.2225 -0.0943 -0.5424
 2436TIP3    H128943   4.142   5.868   2.349  1.6227  0.2122  0.9340
 2436TIP3    H228944   4.064   5.750   2.404 -0.0217  0.5080 -0.6868
 2437TIP3   OH228945   2.329   0.641   1.076 -0.2783  0.1030  0.4900
 2437TIP3    H128946   2.392   0.711   1.059 -1.0408  0.4697 -0.8913
 2437TIP3    H228947   2.252   0.664   1.024 -0.7758 -1.4359  0.5097
 2438TIP3   OH228948   3.836   3.380   1.373 -0.0836  0.3079  0.2343
 2438TIP3    H128949   3.762   3.349   1.321  1.2659 -0.9849 -1.0517
 2438TIP3    H228950   3.828   3.475   1.374 -0.7504  0.2991 -1.4607
 2439TIP3   OH228951   1.050   1.377   1.304 -0.5959  0.1058  0.5516
 2439TIP3    H128952   1.069   1.463   1.342 -0.4792  0.8955 -1.2073
 2439TIP3    H228953   1.094   1.315   1.363  0.5031  1.3433  1.0839
 2440TIP3   OH228954   2.523   3.834   1.033 -0.0955  0.0922 -0.0340
 2440TIP3    H128955   2.518   3.780   1.112 -0.4175  0.1391 -0.0197
 2440TIP3    H228956   2.466   3.908   1.051 -2.8470 -1.4764 -1.5169
 2441TIP3   OH228957   5.795   1.566   4.007  0.2834  0.3585 -0.7894
 2441TIP3    H128958   5.816   1.655   4.035  1.1206 -0.1266  0.2328
 2441TIP3    H228959   5.807   1.566   3.912  0.5223  1.2675 -0.7631
 2442TIP3   OH228960   4.356   1.586   2.359  0.7055  0.0753 -0.5992
 2442TIP3    H128961   4.422   1.556   2.421  0.3876 -2.1053 -1.2232
 2442TIP3    H228962   4.400   1.653   2.307  1.5450  0.5933  0.7516
 2443TIP3   OH228963   1.181   4.418   2.250 -0.1289 -0.0564 -0.3932
 2443TIP3    H128964   1.174   4.508   2.219  0.3806 -0.7479 -2.7128
 2443TIP3    H228965   1.269   4.413   2.289  0.9717 -0.1600 -2.7100
 2444TIP3   OH228966   4.561   5.984   1.224 -0.3023 -0.1796  0.1182
 2444TIP3    H128967   4.623   5.970   1.296 -0.0295 -1.0767 -0.2849
 2444TIP3    H228968   4.604   6.049   1.168  1.0955 -2.0336 -1.0695
 2445TIP3   OH228969   0.488   2.417   0.519  0.2247 -0.5101 -0.0263
 2445TIP3    H128970   0.428   2.485   0.491  0.6408 -0.4871 -0.9039
 2445TIP3    H228971   0.462   2.340   0.469  1.0578 -0.4398 -0.5909
 2446TIP3   OH228972   6.433   0.236   2.280 -0.0630  0.9348  0.0429
 2446TIP3    H128973   6.467   0.326   2.278 -2.6513  1.9816 -0.9320
 2446TIP3    H228974   6.451   0.206   2.369  1.0068  2.3616  0.3527
 2447TIP3   OH228975   6.480   2.122   3.391  0.2640 -0.5811  0.2498
 2447TIP3    H128976   6.393   2.153   3.415  0.1867 -0.7288  0.1609
 2447TIP3    H228977   6.523   2.103   3.474  0.7465  0.9222  0.3788
 2448TIP3   OH228978   2.663   4.947   1.631  0.4691 -0.2243  0.0821
 2448TIP3    H128979   2.590   5.010   1.633  0.7635  0.2604 -2.2671
 2448TIP3    H228980   2.620   4.862   1.619  0.2655  0.1595 -2.2936
 2449TIP3   OH228981   5.511   2.040   0.367 -0.6823  0.1949  0.4808
 2449TIP3    H128982   5.435   2.014   0.419 -0.2505 -0.4005  0.8240
 2449TIP3    H228983   5.520   2.134   0.383 -0.5640  0.0199  1.4687
 2450TIP3   OH228984   4.284   4.305   2.071 -0.0087 -0.8310 -0.2492
 2450TIP3    H128985   4.306   4.334   2.160 -1.3983  1.3192 -0.5358
 2450TIP3    H228986   4.363   4.260   2.040  1.1770  0.0385  1.3859
 2451TIP3   OH228987   2.467   0.440   1.279 -0.3306  0.1103 -0.5415
 2451TIP3    H128988   2.433   0.518   1.236 -0.4771  0.2311 -0.2114
 2451TIP3    H228989   2.518   0.474   1.353 -2.2797 -0.1537  1.0013
 2452TIP3   OH228990   2.761   3.331   2.237  0.2975 -0.2660 -0.2465
 2452TIP3    H128991   2.800   3.244   2.235 -0.2349 -0.5869  1.5735
 2452TIP3    H228992   2.671   3.317   2.205  0.2320 -0.3869 -0.0150
 2453TIP3   OH228993   3.379   1.221   8.497 -0.4890 -0.0723 -0.1138
 2453TIP3    H128994   3.332   1.145   8.462  1.2872 -1.0660 -0.4083
 2453TIP3    H228995   3.454   1.232   8.440  1.0198 -0.0547  1.7805
 2454TIP3   OH228996   1.701   5.001   1.318  0.7998  0.4018 -0.0836
 2454TIP3    H128997   1.762   4.943   1.273  0.6610  1.1217 -1.2104
 2454TIP3    H228998   1.617   4.985   1.276  0.3031 -0.1435  1.0564
 2455TIP3   OH228999   1.186   5.703   2.141 -0.2586 -0.1654 -0.0947
 2455TIP3    H129000   1.251   5.770   2.162 -0.0796  0.1832 -1.6215
 2455TIP3    H229001   1.128   5.745   2.077 -1.3298 -0.8381  0.4030
 2456TIP3   OH229002   1.669   4.374   1.158  0.0247  0.6276 -0.1289
 2456TIP3    H129003   1.754   4.352   1.119 -1.0067 -0.1136 -2.1000
 2456TIP3    H229004   1.652   4.463   1.128  0.0950  0.7642  0.2392
 2457TIP3   OH229005   2.725   4.984   2.143 -0.4504 -0.2105  0.4220
 2457TIP3    H129006   2.673   4.996   2.222 -0.4137 -0.9529  0.5616
 2457TIP3    H229007   2.758   4.894   2.148  0.7470  0.2000  0.2716
 2458TIP3   OH229008   0.368   1.042   8.100 -0.3406 -0.6017  0.1859
 2458TIP3    H129009   0.280   1.045   8.062 -0.8559 -0.5768  1.3331
 2458TIP3    H229010   0.420   0.995   8.035 -1.8749 -3.3042  0.7261
 2459TIP3   OH229011   4.234   5.471   2.497  0.0969  0.4394 -0.8164
 2459TIP3    H129012   4.308   5.520   2.460  1.3182 -0.8228 -0.1282
 2459TIP3    H229013   4.259   5.379   2.488 -0.4470  0.0373  1.3385
 2460TIP3   OH229014   6.558   1.395   3.071  0.6043 -0.3989 -0.0709
 2460TIP3    H129015   6.588   1.481   3.101 -0.2064  0.3172 -1.2109
 2460TIP3    H229016   6.521   1.412   2.984  1.5590 -2.1305 -0.8614
 2461TIP3   OH229017   6.429   0.465   0.567 -0.3283 -0.0874 -0.1989
 2461TIP3    H129018   6.370   0.476   0.642 -0.9367 -0.6394 -0.5762
 2461TIP3    H229019   6.396   0.387   0.523  0.5295 -0.2441 -0.5821
 2462TIP3   OH229020   6.726   5.461   0.419 -0.0644  0.1806 -0.6553
 2462TIP3    H129021   6.659   5.433   0.357 -2.3942  1.2049  1.2444
 2462TIP3    H229022   6.807   5.459   0.369 -1.4044 -1.4924 -2.9774
 2463TIP3   OH229023   1.382   5.916   2.180  0.1893 -0.3444  0.6106
 2463TIP3    H129024   1.458   5.930   2.123 -0.5624 -0.4811 -0.4431
 2463TIP3    H229025   1.342   6.003   2.188  0.2639 -0.3345  0.9099
 2464TIP3   OH229026   1.226   4.113   2.935  0.0248  0.1450 -0.0756
 2464TIP3    H129027   1.266   4.034   2.899  1.1455 -0.0452  1.4393
 2464TIP3    H229028   1.216   4.094   3.029  0.9997  2.0250  0.4734
 2465TIP3   OH229029   3.861   5.333   2.273 -0.1542  0.5189 -0.3114
 2465TIP3    H129030   3.898   5.414   2.237 -1.5498  1.5576  0.4432
 2465TIP3    H229031   3.800   5.304   2.206 -0.7971  0.9837  0.0543
 2466TIP3   OH229032   0.114   2.204   0.522  0.2865 -0.2567  0.2072
 2466TIP3    H129033   0.082   2.114   0.518 -1.3857  0.3097  0.2008
 2466TIP3    H229034   0.145   2.223   0.433  1.6203 -1.1230  0.4495
 2467TIP3   OH229035   2.275   5.157   3.168  0.2166 -0.1974  0.2231
 2467TIP3    H129036   2.236   5.109   3.241  0.8458 -0.4379  0.4101
 2467TIP3    H229037   2.226   5.238   3.163  0.5685  0.0994  1.3200
 2468TIP3   OH229038   1.406   4.643   8.485 -0.4467  0.2416 -0.4757
 2468TIP3    H129039   1.312   4.660   8.483 -0.2324  1.5656 -0.5080
 2468TIP3    H229040   1.430   4.629   8.393 -0.8006 -1.4109 -0.3485
 2469TIP3   OH229041   6.660   4.371   1.197  0.0016 -1.0669  0.6292
 2469TIP3    H129042   6.568   4.394   1.188 -0.3283 -2.0928  1.2650
 2469TIP3    H229043   6.662   4.306   1.267  1.2247 -0.9643  0.7127
 2470TIP3   OH229044   5.530   5.053   0.056 -0.2338 -0.4434  0.2946
 2470TIP3    H129045   5.469   5.100   0.113 -0.8657 -1.4247  0.4586
 2470TIP3    H229046   5.516   5.090  -0.030  0.4865  0.8215  0.7014
 2471TIP3   OH229047   2.705   5.432   3.674  0.5365 -0.1934  0.0659
 2471TIP3    H129048   2.654   5.477   3.741  1.4962  1.2226 -0.1109
 2471TIP3    H229049   2.701   5.340   3.698 -1.5089 -0.0623  0.4447
 2472TIP3   OH229050   3.781   3.237   8.334 -0.6555  0.3447  0.1713
 2472TIP3    H129051   3.751   3.327   8.344 -1.1967  0.0869  0.8811
 2472TIP3    H229052   3.702   3.186   8.317 -0.2533  0.1327 -1.2339
 2473TIP3   OH229053   1.559   2.952   2.264  0.4617 -0.3792 -0.1044
 2473TIP3    H129054   1.535   2.916   2.349  0.6506 -1.0719 -0.3411
 2473TIP3    H229055   1.595   3.038   2.283  1.0080 -0.7519  0.5650
 2474TIP3   OH229056   6.106   6.759   1.067 -0.5239  0.1669 -0.0351
 2474TIP3    H129057   6.145   6.735   1.152  2.0676  0.5367 -1.0208
 2474TIP3    H229058   6.072   6.676   1.033  1.5346 -0.7374 -0.0836
 2475TIP3   OH229059   3.214   0.740   2.181  0.0048  0.6588 -0.2181
 2475TIP3    H129060   3.275   0.742   2.107  0.4732  0.8013  0.1644
 2475TIP3    H229061   3.266   0.703   2.253 -0.5289  0.2532 -0.0356
 2476TIP3   OH229062   6.182   3.303   1.653  0.6715  0.1204 -0.0417
 2476TIP3    H129063   6.111   3.301   1.718  0.1699 -2.1878 -0.5955
 2476TIP3    H229064   6.210   3.395   1.652 -0.9936  0.7148  1.5973
 2477TIP3   OH229065   0.997   6.414   0.460  0.4938 -0.1024 -0.2321
 2477TIP3    H129066   1.085   6.448   0.446  0.4018  0.5540  0.7208
 2477TIP3    H229067   0.951   6.484   0.507 -0.0185 -1.1148  0.8126
 2478TIP3   OH229068   0.560   1.470   8.317  0.6635 -0.4572 -0.6516
 2478TIP3    H129069   0.624   1.482   8.387  0.2024 -0.4953 -0.2203
 2478TIP3    H229070   0.612   1.470   8.236  1.1649 -0.1287 -0.3317
 2479TIP3   OH229071   3.097   3.940   2.735  0.1634 -0.3641 -0.0189
 2479TIP3    H129072   3.052   4.024   2.731 -0.1552 -0.5118  0.4417
 2479TIP3    H229073   3.028   3.876   2.749  0.5149 -0.5796  0.8095
 2480TIP3   OH229074   4.069   1.041   3.088 -0.8222  0.6150 -0.1681
 2480TIP3    H129075   3.999   1.028   3.151  0.1073  1.0136  0.9872
 2480TIP3    H229076   4.025   1.072   3.009 -1.8833  1.6167  0.7812
 2481TIP3   OH229077   5.417   1.250   8.332  0.5742  0.3237 -0.0092
 2481TIP3    H129078   5.443   1.166   8.294  2.2570  0.5726  0.5465
 2481TIP3    H229079   5.338   1.274   8.283 -0.0275 -1.6276 -0.0962
 2482TIP3   OH229080   6.512   3.926   1.782 -0.6670 -0.2178 -0.5463
 2482TIP3    H129081   6.538   3.869   1.710 -1.2490 -0.2716 -0.7151
 2482TIP3    H229082   6.531   3.875   1.861  1.0456  0.2781 -0.5990
 2483TIP3   OH229083   2.422   4.006   1.724  0.3371  0.0612  0.5628
 2483TIP3    H129084   2.380   3.940   1.670  0.7350 -0.0709  0.4089
 2483TIP3    H229085   2.365   4.016   1.801 -0.3478  0.4106  0.0176
 2484TIP3   OH229086   5.391   3.898   2.635  0.7354  0.3389  0.0074
 2484TIP3    H129087   5.343   3.903   2.717  0.3946  0.3076 -0.1864
 2484TIP3    H229088   5.364   3.976   2.586 -0.5775 -0.6175 -0.8697
 2485TIP3   OH229089   4.048   0.851   0.846  0.2207  0.1904 -0.2789
 2485TIP3    H129090   4.079   0.770   0.886  0.3542  0.5377  0.3355
 2485TIP3    H229091   3.964   0.829   0.807  0.7771 -0.5248 -1.1105
 2486TIP3   OH229092   1.231   0.610   2.029  0.4232 -0.0904 -0.1111
 2486TIP3    H129093   1.179   0.635   2.105 -0.1329  0.6791 -0.7259
 2486TIP3    H229094   1.167   0.591   1.961  0.9070 -1.0564 -0.3144
 2487TIP3   OH229095   3.238   4.268   8.681  0.4617 -0.3754  0.1010
 2487TIP3    H129096   3.270   4.205   8.616 -0.4939  0.4366 -1.2062
 2487TIP3    H229097   3.315   4.290   8.732  1.0545 -1.7357 -0.1513
 2488TIP3   OH229098   4.771   2.342   1.556  0.4035  0.3203  0.6122
 2488TIP3    H129099   4.697   2.377   1.505  0.1230 -0.4632  0.4692
 2488TIP3    H229100   4.848   2.379   1.514  0.1929 -0.5025 -0.5629
 2489TIP3   OH229101   0.584   1.226   4.381  0.2944  0.5301 -0.0437
 2489TIP3    H129102   0.644   1.300   4.377  0.9921  0.0663  1.2237
 2489TIP3    H229103   0.504   1.262   4.419  1.1415  0.3793  2.0150
 2490TIP3   OH229104   5.717   2.482   2.392  0.3192 -0.3239  0.0080
 2490TIP3    H129105   5.644   2.525   2.437  0.2414  0.4426 -0.8099
 2490TIP3    H229106   5.704   2.389   2.408  1.0887 -0.0385  2.7381
 2491TIP3   OH229107   4.122   3.857   2.411  0.1335  0.0591  0.0213
 2491TIP3    H129108   4.194   3.851   2.474 -0.4193 -0.9830  0.5741
 2491TIP3    H229109   4.165   3.882   2.329  1.1416 -0.6274  0.3146
 2492TIP3   OH229110   0.816   2.044   0.279 -0.0441  0.0451  0.7657
 2492TIP3    H129111   0.732   2.062   0.321 -0.2206 -0.4968  0.6540
 2492TIP3    H229112   0.862   1.988   0.341 -0.3037 -0.7545  0.2496
 2493TIP3   OH229113   4.926   4.268   7.837  0.1615 -0.5451  0.0741
 2493TIP3    H129114   4.854   4.242   7.779  0.4815 -1.5137  0.0977
 2493TIP3    H229115   4.883   4.286   7.921 -0.1791 -0.1088 -0.1888
 2494TIP3   OH229116   4.158   6.855   1.597  0.1803 -0.0255 -0.0494
 2494TIP3    H129117   4.200   6.891   1.676  0.9756  1.4163 -1.0828
 2494TIP3    H229118   4.072   6.896   1.595 -0.4649 -1.2533  0.8558
 2495TIP3   OH229119   1.412   3.422   3.080  0.0012  0.3355  0.1337
 2495TIP3    H129120   1.457   3.476   3.145  0.0723  0.3814  0.0465
 2495TIP3    H229121   1.445   3.453   2.996 -0.6851  0.8188  0.0354
 2496TIP3   OH229122   3.683   6.273   0.375 -0.2144 -0.1054  0.4288
 2496TIP3    H129123   3.721   6.338   0.315  0.3181 -1.1213 -0.3668
 2496TIP3    H229124   3.751   6.259   0.441  0.3719 -1.0769 -0.3517
 2497TIP3   OH229125   4.570   2.797   2.642  0.0226 -0.6327 -0.8024
 2497TIP3    H129126   4.659   2.824   2.665 -0.6496  0.8588  0.1957
 2497TIP3    H229127   4.562   2.816   2.549  0.5810 -0.3051 -0.7855
 2498TIP3   OH229128   6.721   1.094   2.642 -0.4134 -0.6637  0.5017
 2498TIP3    H129129   6.717   1.162   2.710  3.2604  0.0001  0.2744
 2498TIP3    H229130   6.806   1.052   2.656  0.1231 -1.0938 -3.1149
 2499TIP3   OH229131   3.298   5.181   0.187 -0.0490 -0.8622 -0.2557
 2499TIP3    H129132   3.352   5.187   0.108 -0.5376  0.2186 -0.5396
 2499TIP3    H229133   3.360   5.167   0.258  0.4188 -1.5930 -0.7952
 2500TIP3   OH229134   2.695   3.931   8.717 -0.5621  0.0049  0.4573
 2500TIP3    H129135   2.668   3.849   8.677  1.0136  0.0988 -0.9191
 2500TIP3    H229136   2.745   3.976   8.648  2.0056  0.3346  2.3831
 2501TIP3   OH229137   3.739   1.939   2.268 -0.0446 -0.1572 -0.7437
 2501TIP3    H129138   3.814   1.880   2.267 -0.8603 -1.2398 -0.1212
 2501TIP3    H229139   3.677   1.898   2.328 -0.8715  1.0524 -0.7326
 2502TIP3   OH229140   2.227   6.562   4.030  0.7329 -0.1958 -0.0791
 2502TIP3    H129141   2.236   6.610   4.112 -3.1643  0.2209  0.2892
 2502TIP3    H229142   2.258   6.474   4.051  0.1953  0.0028  1.7485
 2503TIP3   OH229143   4.773   1.818   2.586  0.3478  0.3140 -0.0908
 2503TIP3    H129144   4.722   1.809   2.666  0.8559 -1.5138  0.0644
 2503TIP3    H229145   4.851   1.764   2.600  0.0342 -0.7969 -2.1113
 2504TIP3   OH229146   5.679   2.100   2.033 -0.3336 -0.1945 -1.0333
 2504TIP3    H129147   5.747   2.052   2.080 -0.0056 -0.5167 -1.8214
 2504TIP3    H229148   5.625   2.033   1.991  0.5230  0.0902 -2.6996
 2505TIP3   OH229149   2.869   5.628   3.502 -1.0561  0.1755 -0.4053
 2505TIP3    H129150   2.916   5.552   3.468 -1.2488  0.0117 -0.3032
 2505TIP3    H229151   2.791   5.592   3.544 -0.1899  0.2612  1.3600
 2506TIP3   OH229152   3.559   6.732   8.698 -0.0848  0.2992 -0.0892
 2506TIP3    H129153   3.498   6.805   8.690  0.0864  0.3863 -0.5998
 2506TIP3    H229154   3.565   6.717   8.793  1.9020  2.6903  0.2745
 2507TIP3   OH229155   4.404   6.692   1.558  0.3535 -0.2978 -0.1258
 2507TIP3    H129156   4.321   6.739   1.572  0.8285  0.1669  1.3517
 2507TIP3    H229157   4.470   6.746   1.602  1.3037 -1.1094 -0.5101
 2508TIP3   OH229158   4.575   0.289   2.839  0.0062 -0.4499  0.0401
 2508TIP3    H129159   4.651   0.317   2.890 -0.1154 -0.7701  0.4078
 2508TIP3    H229160   4.508   0.270   2.905 -0.5080  0.1516 -0.2984
 2509TIP3   OH229161   6.495   4.180   1.885 -0.1037 -0.3701 -0.1054
 2509TIP3    H129162   6.400   4.189   1.897 -0.4067  1.7502 -3.1261
 2509TIP3    H229163   6.508   4.086   1.870 -1.7478 -0.6504  0.0023
 2510TIP3   OH229164   3.610   4.415   8.130  0.7812 -0.3790  0.3066
 2510TIP3    H129165   3.702   4.388   8.139  0.7027 -1.1894 -0.9717
 2510TIP3    H229166   3.615   4.510   8.114  1.3449 -0.2956  0.9307
 2511TIP3   OH229167   6.006   4.316   3.905 -0.2411  0.4216 -0.5508
 2511TIP3    H129168   5.934   4.254   3.903 -0.1411  0.3126 -0.8888
 2511TIP3    H229169   6.068   4.283   3.840 -0.6734  1.4580 -1.5205
 2512TIP3   OH229170   2.236   4.009   1.955  0.5008  0.5232 -0.0514
 2512TIP3    H129171   2.176   3.939   1.930  1.4143 -0.0342 -0.7411
 2512TIP3    H229172   2.180   4.074   1.998 -0.5396 -0.1186 -0.3957
 2513TIP3   OH229173   1.985   4.877   0.503  0.2592  0.1726  0.1929
 2513TIP3    H129174   1.895   4.860   0.532 -0.1451  0.1794 -1.0321
 2513TIP3    H229175   1.980   4.879   0.408  1.5754  0.1186  0.1071
 2514TIP3   OH229176   1.985   0.033   2.066 -0.2372 -0.0660  0.1507
 2514TIP3    H129177   2.057   0.056   2.124  1.1658  1.1624 -1.9687
 2514TIP3    H229178   2.027   0.005   1.985 -2.1400 -0.6069 -0.7019
 2515TIP3   OH229179   1.256   2.361   2.542 -0.0580  0.6062  0.1749
 2515TIP3    H129180   1.207   2.307   2.604 -1.0909  0.5013 -0.7096
 2515TIP3    H229181   1.267   2.305   2.465 -0.1246  1.2573 -0.3174
 2516TIP3   OH229182   5.044   4.510   0.328  0.6211  0.1858 -0.1282
 2516TIP3    H129183   5.036   4.557   0.245 -0.0158 -1.0468 -0.7910
 2516TIP3    H229184   5.115   4.448   0.313  1.9702  1.3963  0.9918
 2517TIP3   OH229185   6.393   5.141   0.797  0.6485  0.3604 -0.1342
 2517TIP3    H129186   6.453   5.068   0.777  1.4937  0.9463  0.1850
 2517TIP3    H229187   6.450   5.218   0.798 -0.4104  1.1812 -1.5041
 2518TIP3   OH229188   3.101   3.473   8.157 -0.6951 -0.2682 -0.0522
 2518TIP3    H129189   3.095   3.527   8.235  1.0885  0.2974 -0.2702
 2518TIP3    H229190   3.191   3.482   8.128 -1.4630  0.0775 -2.5769
 2519TIP3   OH229191   5.720   0.723   2.782 -0.2166  0.4949  0.1078
 2519TIP3    H129192   5.766   0.641   2.763  1.1236  1.2990 -0.2198
 2519TIP3    H229193   5.630   0.706   2.756 -0.2198 -1.2431  1.1157
 2520TIP3   OH229194   4.075   6.051   2.348  0.2511 -0.7708  0.4263
 2520TIP3    H129195   3.986   6.086   2.338  0.1627 -1.1576 -0.2251
 2520TIP3    H229196   4.100   6.075   2.437 -1.1199 -2.0040  1.1994
 2521TIP3   OH229197   0.425   2.082   4.194  0.0567  0.5086 -0.7616
 2521TIP3    H129198   0.362   2.019   4.229  0.4521  0.3322 -0.3581
 2521TIP3    H229199   0.509   2.056   4.232  0.3992  0.6538 -1.4041
 2522TIP3   OH229200   1.086   6.129   1.603 -0.3043  0.2220  1.3462
 2522TIP3    H129201   1.080   6.038   1.574 -0.0313  1.0233 -1.4508
 2522TIP3    H229202   1.159   6.129   1.665  0.2207 -1.3215  0.7741
 2523TIP3   OH229203   1.672   3.438   4.310 -0.0254  0.4431  0.0968
 2523TIP3    H129204   1.702   3.502   4.375  0.4214 -0.4689  0.8172
 2523TIP3    H229205   1.741   3.371   4.309 -1.5682 -1.2613  1.1677
 2524TIP3   OH229206   4.795   3.456   1.726 -0.1301 -0.8296  0.1479
 2524TIP3    H129207   4.802   3.550   1.713 -0.6216 -0.9195 -0.9280
 2524TIP3    H229208   4.704   3.435   1.702 -0.3586 -1.4297  1.4347
 2525TIP3   OH229209   3.333   5.315   2.535 -0.0041 -0.1089 -0.4297
 2525TIP3    H129210   3.419   5.332   2.574  0.1573 -0.7257 -0.4981
 2525TIP3    H229211   3.336   5.360   2.451  0.5443 -0.7408 -0.7616
 2526TIP3   OH229212   1.295   0.041   2.108  0.1379  0.1526 -0.0382
 2526TIP3    H129213   1.291   0.064   2.015 -0.3968  2.3146  0.4572
 2526TIP3    H229214   1.363   0.098   2.143  1.9315 -2.1982  0.5539
 2527TIP3   OH229215   5.107   2.982   2.153 -0.1916 -0.7652 -0.1788
 2527TIP3    H129216   5.177   3.024   2.202  0.5173 -0.4371 -1.4302
 2527TIP3    H229217   5.045   3.052   2.135 -0.5356 -0.9212  0.3784
 2528TIP3   OH229218   2.035   2.888   3.219 -0.2848 -0.5180  0.3173
 2528TIP3    H129219   1.988   2.971   3.225  1.4259  0.4576  0.7894
 2528TIP3    H229220   2.125   2.913   3.196  0.9986 -1.9682  3.3380
 2529TIP3   OH229221   1.671   4.082   2.434  0.1373 -0.3075  0.0237
 2529TIP3    H129222   1.594   4.027   2.433  0.5373 -0.8820 -0.8312
 2529TIP3    H229223   1.703   4.079   2.524 -0.4556 -0.5913  0.2258
 2530TIP3   OH229224   3.559   6.426   1.676 -0.5963 -0.1880 -0.3032
 2530TIP3    H129225   3.516   6.401   1.758 -0.3691  1.8920  0.5147
 2530TIP3    H229226   3.493   6.476   1.629 -0.4475 -0.6657 -1.0312
 2531TIP3   OH229227   4.662   6.748   3.241  0.0941  0.0816 -0.4504
 2531TIP3    H129228   4.594   6.684   3.263 -0.1467 -0.3792 -2.3843
 2531TIP3    H229229   4.615   6.832   3.236  0.2198  0.2698  1.0246
 2532TIP3   OH229230   1.844   0.161   1.009 -0.9398 -0.1542  0.0398
 2532TIP3    H129231   1.903   0.092   1.040 -1.0186 -0.5508 -0.6560
 2532TIP3    H229232   1.858   0.163   0.914 -1.3492  0.4072 -0.0138
 2533TIP3   OH229233   1.605   5.462   1.640  0.1835  0.4036  0.1597
 2533TIP3    H129234   1.692   5.496   1.621 -0.1379 -0.0638 -2.4778
 2533TIP3    H229235   1.557   5.537   1.675  1.1049  1.1307 -0.1096
 2534TIP3   OH229236   4.420   2.893   3.497 -0.3292 -0.0329  0.2396
 2534TIP3    H129237   4.469   2.815   3.523 -1.1292 -0.2538  1.1576
 2534TIP3    H229238   4.336   2.884   3.541 -0.4465  1.3409  0.3522
 2535TIP3   OH229239   4.418   3.678   1.064  0.2356 -0.1967  0.6790
 2535TIP3    H129240   4.389   3.622   0.992 -1.7682  1.0204  0.4502
 2535TIP3    H229241   4.463   3.751   1.021  0.2991 -0.1819  0.7708
 2536TIP3   OH229242   3.465   2.844   8.785  0.5460 -0.1289  0.0418
 2536TIP3    H129243   3.373   2.825   8.802  0.5843  0.4881  1.0202
 2536TIP3    H229244   3.466   2.936   8.758  0.9679  0.2153  1.1350
 2537TIP3   OH229245   6.743   4.527   0.464  0.2144  0.5734  0.0729
 2537TIP3    H129246   6.774   4.493   0.381 -1.3203  1.0442 -0.7340
 2537TIP3    H229247   6.731   4.450   0.519  0.8433  0.2212 -0.2762
 2538TIP3   OH229248   4.990   4.674   3.131  0.1500  0.1703  0.1393
 2538TIP3    H129249   4.930   4.707   3.198  0.9459  0.8809  0.5214
 2538TIP3    H229250   5.068   4.649   3.180  1.0109  1.3475 -0.5971
 2539TIP3   OH229251   0.035   2.945   1.814 -0.1938  0.2343  0.1727
 2539TIP3    H129252  -0.057   2.925   1.830 -0.8160 -0.0081 -3.0724
 2539TIP3    H229253   0.034   3.014   1.748  1.9509  0.0384 -0.1407
 2540TIP3   OH229254   5.602   2.385   3.204 -1.2437  0.1484 -0.2147
 2540TIP3    H129255   5.561   2.307   3.240 -1.6635  0.3652 -0.2150
 2540TIP3    H229256   5.552   2.458   3.241 -0.2211  0.4607  0.5880
 2541TIP3   OH229257   2.366   1.969   2.385  0.3184 -0.0259 -0.5496
 2541TIP3    H129258   2.361   1.987   2.479 -2.9982 -1.2755 -0.3265
 2541TIP3    H229259   2.283   1.926   2.365  1.1321 -0.2943 -3.9907
 2542TIP3   OH229260   5.429   3.816   0.428  0.3667 -0.6429 -0.3013
 2542TIP3    H129261   5.437   3.726   0.399  0.1533 -0.3021 -1.4834
 2542TIP3    H229262   5.482   3.866   0.365 -1.5919  0.3254 -1.2650
 2543TIP3   OH229263   3.616   2.723   4.390 -0.4801 -0.1456 -0.3829
 2543TIP3    H129264   3.692   2.781   4.389 -0.3112 -0.3518  0.1074
 2543TIP3    H229265   3.542   2.780   4.373 -0.5472  0.5678  2.0447
 2544TIP3   OH229266   6.452   0.998   8.269  0.1954  0.3232  0.4837
 2544TIP3    H129267   6.492   0.966   8.350  1.3297  0.5045  0.0183
 2544TIP3    H229268   6.425   1.088   8.289 -2.5398 -0.6466  1.6400
 2545TIP3   OH229269   2.330   4.207   2.144 -0.3006  0.3647  0.4968
 2545TIP3    H129270   2.393   4.279   2.153 -0.5130  0.5154  0.7606
 2545TIP3    H229271   2.250   4.248   2.112  0.2383 -0.0648 -1.5030
 2546TIP3   OH229272   4.627   5.493   1.699  0.3138 -0.2412 -0.5099
 2546TIP3    H129273   4.578   5.503   1.781  0.2113  2.6241 -0.8059
 2546TIP3    H229274   4.600   5.408   1.665 -1.0476 -0.6965  1.5127
 2547TIP3   OH229275   6.161   4.877   2.891 -0.0138  0.0221 -0.1557
 2547TIP3    H129276   6.131   4.967   2.880  2.2134  0.8753  0.0700
 2547TIP3    H229277   6.212   4.859   2.812 -0.4017 -1.0449 -0.1771
 2548TIP3   OH229278   2.704   0.513   3.660  0.1176  0.1584 -0.2516
 2548TIP3    H129279   2.789   0.541   3.694 -0.0105  0.8706 -0.5058
 2548TIP3    H229280   2.641   0.571   3.703 -0.3506 -1.0068  0.7011
 2549TIP3   OH229281   1.756   3.568   2.620 -0.6381  0.2527  0.3067
 2549TIP3    H129282   1.798   3.641   2.665 -2.1967  0.1310  2.0383
 2549TIP3    H229283   1.826   3.503   2.610  1.2471  2.4215 -2.6928
 2550TIP3   OH229284   5.209   3.147   1.807  0.5294  0.0403 -0.2347
 2550TIP3    H129285   5.234   3.055   1.817 -0.0492 -0.0494  0.5126
 2550TIP3    H229286   5.122   3.144   1.768  0.1048  0.2309  0.6632
 2551TIP3   OH229287   5.284   1.935   8.611 -0.4730  0.5837 -0.0338
 2551TIP3    H129288   5.246   2.020   8.633  0.9808  1.3842 -0.4788
 2551TIP3    H229289   5.352   1.955   8.546  0.7034 -0.7666  0.7223
 2552TIP3   OH229290   6.152   2.110   2.729  0.1193 -0.6672  0.9926
 2552TIP3    H129291   6.158   2.070   2.816 -1.4746  0.5611  1.7143
 2552TIP3    H229292   6.081   2.063   2.686  0.3410 -0.7088  0.6719
 2553TIP3   OH229293   3.249   5.066   3.829 -0.0816 -0.2290 -0.5100
 2553TIP3    H129294   3.333   5.111   3.821  0.3090 -0.8889 -0.1787
 2553TIP3    H229295   3.264   4.980   3.790 -0.0737 -1.0315  1.1925
 2554TIP3   OH229296   3.789   0.458   1.672  0.0130 -0.0670 -0.1410
 2554TIP3    H129297   3.773   0.364   1.679 -1.3541  0.1786  0.4311
 2554TIP3    H229298   3.753   0.495   1.753 -0.1348  1.0219 -0.6819
 2555TIP3   OH229299   0.590   6.738   0.556 -0.2353 -0.1268 -0.7116
 2555TIP3    H129300   0.545   6.655   0.575 -1.9870  0.6943 -1.0650
 2555TIP3    H229301   0.520   6.802   0.549  1.1733  1.7454  1.0948
 2556TIP3   OH229302   1.115   2.261   4.051  0.8420 -0.0679 -0.0757
 2556TIP3    H129303   1.080   2.188   4.000 -1.6227 -1.2048  2.9335
 2556TIP3    H229304   1.180   2.221   4.108 -0.9936 -0.2192  2.0619
 2557TIP3   OH229305   3.425   6.769   3.670  0.2622  0.2175 -0.0736
 2557TIP3    H129306   3.437   6.718   3.750 -1.8070  0.4575  0.4456
 2557TIP3    H229307   3.437   6.860   3.697 -1.7284  0.4172  0.3383
 2558TIP3   OH229308   1.981   3.953   8.227 -0.6730 -0.1719 -0.2236
 2558TIP3    H129309   1.983   3.873   8.280 -1.2599  0.4365  0.7334
 2558TIP3    H229310   2.073   3.977   8.216 -0.5531  0.7171  2.1382
 2559TIP3   OH229311   2.679   2.719   2.274 -0.5777  0.0771 -0.7330
 2559TIP3    H129312   2.617   2.712   2.347 -0.6720  0.7031 -0.7458
 2559TIP3    H229313   2.762   2.688   2.310 -0.9665 -1.1038 -0.8170
 2560TIP3   OH229314   6.172   6.240   8.346 -0.1563 -0.4731  1.1447
 2560TIP3    H129315   6.148   6.293   8.270  0.6229 -0.4647  0.9017
 2560TIP3    H229316   6.088   6.216   8.385 -0.6131 -1.4010 -0.3395
 2561TIP3   OH229317   1.930   3.726   0.852  0.5875 -0.2869  0.2059
 2561TIP3    H129318   1.920   3.635   0.881  0.4824  0.6767  3.6286
 2561TIP3    H229319   1.877   3.731   0.773 -0.7916 -2.8325  0.8382
 2562TIP3   OH229320   3.244   6.270   3.413 -0.0359 -0.1095  0.5163
 2562TIP3    H129321   3.251   6.317   3.330 -1.4630 -0.6793  0.0474
 2562TIP3    H229322   3.155   6.288   3.444 -0.3067 -1.7323  0.7790
 2563TIP3   OH229323   5.472   3.728   1.841 -0.4432  0.2222 -0.2466
 2563TIP3    H129324   5.480   3.791   1.770 -1.0936 -1.3356 -1.7916
 2563TIP3    H229325   5.454   3.645   1.797 -1.1286 -0.7640  1.7613
 2564TIP3   OH229326   0.415   2.856   8.441 -0.0505  0.0387 -0.2512
 2564TIP3    H129327   0.321   2.851   8.463 -0.3906 -2.0636 -1.8984
 2564TIP3    H229328   0.442   2.765   8.432  1.8926  0.6476 -0.9816
 2565TIP3   OH229329   6.474   3.948   0.342  0.6556 -0.2386  0.2617
 2565TIP3    H129330   6.544   4.001   0.378 -0.2292  0.8778  0.3852
 2565TIP3    H229331   6.494   3.859   0.371  3.1434 -0.3278 -1.4701
 2566TIP3   OH229332   0.884   4.005   8.754  0.0906  0.2607 -0.5356
 2566TIP3    H129333   0.809   4.041   8.708 -1.1141 -0.8913  0.4437
 2566TIP3    H229334   0.890   3.914   8.724  2.7136  0.9635 -2.5405
 2567TIP3   OH229335   0.529   2.122   2.534 -0.2415 -0.0909  0.1301
 2567TIP3    H129336   0.499   2.204   2.573 -0.7687  0.0774 -0.6072
 2567TIP3    H229337   0.454   2.091   2.483  0.3303 -0.4489 -0.5138
 2568TIP3   OH229338   2.076   4.989   0.882  0.1402  0.0756 -0.2489
 2568TIP3    H129339   2.150   5.037   0.920  0.8892 -0.1957 -1.3246
 2568TIP3    H229340   2.116   4.920   0.829 -0.9128 -1.1703  0.5251
 2569TIP3   OH229341   4.764   1.244   0.887 -0.1048  0.0616  0.6054
 2569TIP3    H129342   4.698   1.218   0.952  0.9485  0.6058  1.9176
 2569TIP3    H229343   4.805   1.322   0.924  2.1420 -0.9687  0.4286
 2570TIP3   OH229344   3.367   5.427   4.196  0.0772 -0.0686  0.2732
 2570TIP3    H129345   3.397   5.514   4.220  1.4218  0.2813 -2.3118
 2570TIP3    H229346   3.448   5.376   4.184 -0.6368 -1.2539  0.3054
 2571TIP3   OH229347   1.009   6.108   8.536 -0.2663 -0.6728  0.1017
 2571TIP3    H129348   1.101   6.097   8.560 -0.4360 -2.2404  0.1286
 2571TIP3    H229349   1.010   6.120   8.441 -0.0921 -1.6456 -0.0264
 2572TIP3   OH229350   1.239   4.255   3.882 -0.1114 -0.2495  0.1324
 2572TIP3    H129351   1.171   4.204   3.839 -0.3755 -0.2132  0.5079
 2572TIP3    H229352   1.299   4.189   3.917  0.1850 -0.2782 -0.4088
 2573TIP3   OH229353   5.769   3.799   1.993  0.2937  0.3388 -0.0902
 2573TIP3    H129354   5.705   3.851   1.943  0.3563  0.1189 -0.4011
 2573TIP3    H229355   5.853   3.844   1.977  0.7556 -1.1399 -2.2475
 2574TIP3   OH229356   5.706   2.864   2.583 -0.3283 -0.4411 -0.2469
 2574TIP3    H129357   5.766   2.865   2.657  0.9707 -0.0406 -1.2625
 2574TIP3    H229358   5.659   2.948   2.588  1.7359  0.8719 -1.3760
 2575TIP3   OH229359   1.265   4.129   2.370 -0.1951  0.5470 -0.7982
 2575TIP3    H129360   1.301   4.203   2.322  1.0304  0.0578 -0.6711
 2575TIP3    H229361   1.338   4.067   2.377 -0.3409  0.5645  1.6281
 2576TIP3   OH229362   4.655   1.754   3.570 -0.3134 -0.4018 -0.4487
 2576TIP3    H129363   4.653   1.751   3.665 -1.7671  2.0242 -0.2977
 2576TIP3    H229364   4.747   1.745   3.547  0.2736  0.6282  1.3069
 2577TIP3   OH229365   0.434   6.390   1.208 -0.1505  0.4649  0.4570
 2577TIP3    H129366   0.429   6.295   1.214 -1.2005  0.4300 -0.7787
 2577TIP3    H229367   0.353   6.421   1.249  0.2653  0.8533  1.0080
 2578TIP3   OH229368   6.468   0.715   1.322  0.1682  0.6042 -0.3256
 2578TIP3    H129369   6.562   0.708   1.304  0.1175  1.4369 -1.0325
 2578TIP3    H229370   6.450   0.647   1.386  1.0488 -0.2682 -0.9832
 2579TIP3   OH229371   6.098   1.535   0.662 -0.5113  0.0624  0.2891
 2579TIP3    H129372   6.187   1.507   0.642 -1.3359 -0.7715 -2.7331
 2579TIP3    H229373   6.079   1.605   0.599 -2.0359  0.1080  0.7458
 2580TIP3   OH229374   1.030   2.366   8.012 -0.2182 -0.3353 -0.1051
 2580TIP3    H129375   1.081   2.374   7.931 -0.8402  2.5441 -0.3139
 2580TIP3    H229376   1.057   2.282   8.049  3.9198  0.5280 -0.6914
 2581TIP3   OH229377   6.341   0.984   1.408  0.3976 -0.1470 -0.5056
 2581TIP3    H129378   6.348   0.892   1.381  1.0927  0.1439 -1.3792
 2581TIP3    H229379   6.319   1.030   1.327  0.5614  0.5180 -0.1726
 2582TIP3   OH229380   0.756   0.694   1.533  0.3849  0.2236 -0.1835
 2582TIP3    H129381   0.736   0.600   1.532  1.2650  0.0298 -0.5007
 2582TIP3    H229382   0.832   0.703   1.475  0.3947  1.1167 -0.0505
 2583TIP3   OH229383   6.351   0.205   0.846  0.3478  0.1556  0.0420
 2583TIP3    H129384   6.359   0.215   0.941 -0.1539 -0.6252  0.1777
 2583TIP3    H229385   6.436   0.234   0.811  0.5774  0.3332  0.7372
 2584TIP3   OH229386   6.626   3.456   1.646  0.3479  0.0063 -0.3365
 2584TIP3    H129387   6.707   3.435   1.694  0.5581  0.3927 -0.5152
 2584TIP3    H229388   6.625   3.395   1.573  3.3038  3.3118 -3.5453
 2585TIP3   OH229389   5.257   0.192   3.320  0.1524 -0.3889 -0.5377
 2585TIP3    H129390   5.190   0.145   3.271 -2.5989  0.3547  2.2093
 2585TIP3    H229391   5.294   0.127   3.379 -0.6072 -0.0998  0.2807
 2586TIP3   OH229392   5.754   1.469   1.537 -0.0427  0.9589  0.3363
 2586TIP3    H129393   5.769   1.546   1.591 -0.7729  2.1181 -1.0507
 2586TIP3    H229394   5.818   1.476   1.466 -1.5036  1.4969 -0.9990
 2587TIP3   OH229395   6.395   2.532   8.739  0.0673  0.0207 -0.0439
 2587TIP3    H129396   6.371   2.452   8.692 -1.7228  0.8187 -0.5879
 2587TIP3    H229397   6.490   2.524   8.753 -0.3232 -3.1045  1.7328
 2588TIP3   OH229398   5.342   4.985   2.215  0.4087 -0.6293  0.1094
 2588TIP3    H129399   5.397   4.965   2.139 -0.2194 -0.4262 -0.4078
 2588TIP3    H229400   5.315   5.076   2.203  1.7223 -0.0212  1.4858
 2589TIP3   OH229401   0.962   0.454   0.347 -0.9014 -0.1248 -0.4400
 2589TIP3    H129402   0.873   0.465   0.313 -1.4120 -1.9589  0.1844
 2589TIP3    H229403   0.971   0.359   0.359  0.7993  0.1175  0.4271
 2590TIP3   OH229404   4.899   0.143   0.750  0.4641  0.1167  0.3281
 2590TIP3    H129405   4.925   0.067   0.697  0.6847  1.0164 -0.8901
 2590TIP3    H229406   4.835   0.189   0.697  2.1323  2.1342 -0.0882
 2591TIP3   OH229407   6.693   5.023   3.083 -0.1171  0.1323  0.1747
 2591TIP3    H129408   6.745   5.024   3.163  0.3306 -1.3466 -0.0702
 2591TIP3    H229409   6.608   4.988   3.110  0.0136 -0.3083  0.0147
 2592TIP3   OH229410   0.641   6.360   0.216 -0.1526 -0.0413 -0.4430
 2592TIP3    H129411   0.619   6.297   0.147  0.5144 -0.3508 -0.3842
 2592TIP3    H229412   0.621   6.314   0.298 -2.0964  0.7613 -0.4237
 2593TIP3   OH229413   3.181   4.056   1.762 -0.0795 -0.5882 -0.2687
 2593TIP3    H129414   3.112   3.990   1.753 -0.9248  0.3713 -1.1374
 2593TIP3    H229415   3.211   4.072   1.672 -1.4127  1.7289 -0.3774
 2594TIP3   OH229416   4.362   2.009   2.102 -0.4908  0.1688  0.0400
 2594TIP3    H129417   4.361   2.080   2.037 -0.7865 -1.4099 -1.7876
 2594TIP3    H229418   4.298   1.946   2.069 -2.3016  0.2661  3.0944
 2595TIP3   OH229419   6.449   6.345   1.131  0.3693  0.0004 -0.3546
 2595TIP3    H129420   6.367   6.358   1.083 -0.2095 -1.2387  0.2429
 2595TIP3    H229421   6.505   6.296   1.070  0.2585 -0.1072 -0.3700
 2596TIP3   OH229422   6.186   2.670   3.747  0.2189 -0.1280  0.2364
 2596TIP3    H129423   6.172   2.628   3.832 -0.9121 -0.7010 -0.2122
 2596TIP3    H229424   6.122   2.628   3.689  0.0286  1.2252 -0.5635
 2597TIP3   OH229425   4.563   1.164   1.899 -0.1107  0.0578 -0.7685
 2597TIP3    H129426   4.555   1.243   1.846 -1.5220  0.9566  0.7023
 2597TIP3    H229427   4.561   1.195   1.989  2.6400 -1.3794 -0.0774
 2598TIP3   OH229428   4.973   3.273   0.573  0.1013  0.4352  0.1779
 2598TIP3    H129429   4.911   3.202   0.554  1.1507  0.3773 -3.8363
 2598TIP3    H229430   5.057   3.228   0.586  0.2453  0.8224  0.6194
 2599TIP3   OH229431   1.466   2.028   0.176 -0.0463 -0.1385  0.7380
 2599TIP3    H129432   1.424   2.009   0.260 -2.4053  2.6731  0.3584
 2599TIP3    H229433   1.537   1.964   0.170 -0.0378 -0.7656  4.6325
 2600TIP3   OH229434   3.801   6.652   0.050  0.1456  0.2479 -0.0546
 2600TIP3    H129435   3.873   6.590   0.061  0.2432  0.1525 -1.0603
 2600TIP3    H229436   3.839   6.723  -0.002 -0.6082 -0.0705 -1.0832
 2601TIP3   OH229437   6.302   0.407   2.864  0.0684 -1.0693  0.1433
 2601TIP3    H129438   6.309   0.312   2.864 -0.2991 -1.1256 -1.1406
 2601TIP3    H229439   6.380   0.437   2.911  0.8000 -1.9861 -0.4400
 2602TIP3   OH229440   1.759   0.088   3.012 -0.6468 -0.4674  0.2203
 2602TIP3    H129441   1.805   0.152   2.957 -1.6691  0.1063 -0.0048
 2602TIP3    H229442   1.676   0.131   3.034 -0.5932 -1.0145  1.5672
 2603TIP3   OH229443   0.811   0.229   1.691 -0.1783 -0.6990  0.4424
 2603TIP3    H129444   0.801   0.170   1.617 -0.1371  0.0005 -0.1252
 2603TIP3    H229445   0.729   0.220   1.740 -0.6858 -0.3095 -0.3130
 2604TIP3   OH229446   4.423   5.007   8.514 -0.1179 -0.2663 -0.0014
 2604TIP3    H129447   4.433   5.080   8.453  0.0757 -0.7588 -0.5776
 2604TIP3    H229448   4.456   5.040   8.598  2.6210 -0.5240 -0.8579
 2605TIP3   OH229449   6.599   4.735   1.881 -0.1579 -1.0032 -0.9099
 2605TIP3    H129450   6.607   4.652   1.834 -0.2585  0.0540 -2.8749
 2605TIP3    H229451   6.687   4.772   1.882 -0.2766 -0.7142 -0.8201
 2606TIP3   OH229452   3.304   5.580   8.539 -0.4683  0.0587 -0.0573
 2606TIP3    H129453   3.352   5.657   8.509  1.1662  0.1721  2.5417
 2606TIP3    H229454   3.260   5.547   8.460  0.2407  2.5587 -1.6201
 2607TIP3   OH229455   0.814   2.225   1.533  0.2733  0.1282  0.2771
 2607TIP3    H129456   0.792   2.230   1.440 -0.5665 -1.4605  0.3499
 2607TIP3    H229457   0.906   2.199   1.534  0.2609  0.0618 -0.1109
 2608TIP3   OH229458   3.502   4.079   2.100 -0.2021 -0.7773  0.0134
 2608TIP3    H129459   3.491   4.172   2.121  0.2201 -0.3167 -1.6485
 2608TIP3    H229460   3.594   4.070   2.077 -0.4121 -1.4477 -0.5993
 2609TIP3   OH229461   3.708   0.298   3.879 -0.0021 -0.2926  0.3269
 2609TIP3    H129462   3.668   0.299   3.966  0.5415 -1.5130  0.6225
 2609TIP3    H229463   3.722   0.390   3.857 -0.6118  0.0455  1.3135
 2610TIP3   OH229464   2.764   5.342   0.619  0.3006  0.7190 -0.1648
 2610TIP3    H129465   2.689   5.402   0.626  0.0166  0.2190  1.5482
 2610TIP3    H229466   2.794   5.353   0.529 -2.7598 -0.1880 -1.4429
 2611TIP3   OH229467   3.144   0.880   2.788  0.0733  0.1981  0.5118
 2611TIP3    H129468   3.050   0.892   2.775  0.2276  1.5740  0.4829
 2611TIP3    H229469   3.171   0.958   2.836  1.1232 -0.4087  0.9310
 2612TIP3   OH229470   2.446   1.403   1.162  0.1361 -0.6185  0.6646
 2612TIP3    H129471   2.471   1.312   1.142  1.2517 -1.3774  4.6014
 2612TIP3    H229472   2.503   1.456   1.106  0.6188 -2.3315 -0.5582
 2613TIP3   OH229473   4.325   4.294   2.550  0.9096 -0.0532 -0.1291
 2613TIP3    H129474   4.360   4.272   2.636  0.6972 -1.7761 -0.4603
 2613TIP3    H229475   4.283   4.380   2.563  1.7830  0.1962  1.2111
 2614TIP3   OH229476   5.794   1.822   2.857  0.0643  0.5351  0.9886
 2614TIP3    H129477   5.816   1.915   2.853 -0.8400  0.7285 -0.0442
 2614TIP3    H229478   5.777   1.797   2.766  0.7794 -0.7706  1.1960
 2615TIP3   OH229479   3.557   6.278   1.420 -0.5563  0.2984 -0.7049
 2615TIP3    H129480   3.462   6.283   1.436 -0.3621  0.9166  0.3268
 2615TIP3    H229481   3.596   6.309   1.501  0.5360  2.5646 -2.0129
 2616TIP3   OH229482   5.671   3.887   2.883  0.0125 -0.2463 -0.2204
 2616TIP3    H129483   5.759   3.884   2.921 -0.4945 -1.6817  0.9232
 2616TIP3    H229484   5.680   3.946   2.808  1.5978  0.8021  0.7245
 2617TIP3   OH229485   2.026   6.224   2.441 -0.0014 -0.1457 -0.0526
 2617TIP3    H129486   1.932   6.229   2.427 -0.1264 -2.3046 -0.2931
 2617TIP3    H229487   2.064   6.261   2.361 -0.7145 -2.8657 -1.7853
 2618TIP3   OH229488   0.695   2.812   4.368 -0.8457 -0.1069 -0.0786
 2618TIP3    H129489   0.648   2.809   4.451  1.7671 -2.4008  1.4874
 2618TIP3    H229490   0.665   2.735   4.320 -1.2497  0.3961 -0.6551
 2619TIP3   OH229491   0.302   3.738   2.188 -0.0935  0.2396 -0.2198
 2619TIP3    H129492   0.364   3.789   2.240  0.2204 -0.6213  0.2757
 2619TIP3    H229493   0.337   3.741   2.099  0.9821 -0.6707  0.1456
 2620TIP3   OH229494   6.101   5.661   2.958 -0.4420 -0.3620  0.3571
 2620TIP3    H129495   6.153   5.682   3.035 -2.1285 -2.4273  2.2040
 2620TIP3    H229496   6.137   5.578   2.926 -0.6137 -0.2016 -0.2722
 2621TIP3   OH229497   4.943   1.132   3.553  0.2460  0.1007  0.2525
 2621TIP3    H129498   4.954   1.209   3.498  1.2354  0.7915  1.3846
 2621TIP3    H229499   4.966   1.059   3.495 -1.3607  0.5530 -1.0347
 2622TIP3   OH229500   0.371   3.014   0.301  0.1214 -0.0185  0.0550
 2622TIP3    H129501   0.415   3.099   0.305 -0.2036  0.1388  0.2996
 2622TIP3    H229502   0.374   2.990   0.208  1.3676 -0.3526  0.1602
 2623TIP3   OH229503   3.781   1.160   1.509 -0.2773 -0.2208  0.0367
 2623TIP3    H129504   3.788   1.169   1.414  1.6945 -1.2290  0.0473
 2623TIP3    H229505   3.717   1.227   1.534  0.7859  1.5749 -1.7453
 2624TIP3   OH229506   4.096   2.543   0.107  0.2712 -0.5066 -0.8225
 2624TIP3    H129507   4.124   2.584   0.026 -1.3829  0.8097 -0.7858
 2624TIP3    H229508   4.075   2.453   0.083  0.7122 -0.3948 -1.6425
 2625TIP3   OH229509   1.560   6.828   3.544  0.6657 -0.6165 -0.4584
 2625TIP3    H129510   1.568   6.836   3.449  0.8807 -3.3429 -0.7356
 2625TIP3    H229511   1.479   6.875   3.565  1.4851  1.4811 -1.7055
 2626TIP3   OH229512   0.603   3.741   3.134  0.5724 -0.5823 -0.4071
 2626TIP3    H129513   0.624   3.800   3.206 -2.7869 -2.7012  2.6362
 2626TIP3    H229514   0.566   3.797   3.067 -0.9995  1.0374  1.6906
 2627TIP3   OH229515   6.144   3.911   2.648 -0.6113  0.0154  0.2468
 2627TIP3    H129516   6.109   3.995   2.678  2.2059  1.1639  0.6727
 2627TIP3    H229517   6.191   3.932   2.567  0.6259 -0.9917  0.6570
 2628TIP3   OH229518   6.727   2.747   3.124  0.4099 -0.2287  0.0194
 2628TIP3    H129519   6.704   2.765   3.215 -1.2017 -0.5761 -0.2842
 2628TIP3    H229520   6.691   2.822   3.075  0.2878 -0.5879 -0.4447
 2629TIP3   OH229521   5.097   0.457   8.507 -0.0263  0.3455 -0.2252
 2629TIP3    H129522   5.039   0.486   8.436  0.9499 -0.3537 -1.3658
 2629TIP3    H229523   5.181   0.441   8.463  0.2837 -1.2730  0.8860
 2630TIP3   OH229524   2.306   2.608   3.161 -0.0530  0.2821  0.0499
 2630TIP3    H129525   2.295   2.641   3.251 -1.6042 -2.2501  0.8969
 2630TIP3    H229526   2.334   2.518   3.172  0.1429  0.0410 -2.0578
 2631TIP3   OH229527   5.281   3.777   0.705  0.2560  0.0202 -0.3458
 2631TIP3    H129528   5.349   3.812   0.649  0.4500 -1.2534 -0.9448
 2631TIP3    H229529   5.240   3.708   0.653 -0.8997  0.1715  0.3358
 2632TIP3   OH229530   4.485   0.907   4.063  0.1407 -0.3529 -0.5525
 2632TIP3    H129531   4.521   0.995   4.074  0.3585 -0.6317  1.3996
 2632TIP3    H229532   4.392   0.916   4.085  0.5179 -0.8715  1.5470
 2633TIP3   OH229533   5.111   1.117   2.126 -0.3845 -0.3849 -0.3736
 2633TIP3    H129534   5.050   1.061   2.174 -0.1666 -1.0545 -0.8559
 2633TIP3    H229535   5.060   1.152   2.053 -0.7400  0.7033  0.3734
 2634TIP3   OH229536   4.518   2.642   2.164 -0.4638 -0.4005  0.2500
 2634TIP3    H129537   4.607   2.642   2.200 -0.6163  0.0783  0.6312
 2634TIP3    H229538   4.464   2.601   2.232 -0.5111 -0.8519 -0.0526
 2635TIP3   OH229539   0.215   5.355   3.018 -0.0432  0.0650 -0.5172
 2635TIP3    H129540   0.162   5.370   3.095 -0.9848  0.1349 -1.1624
 2635TIP3    H229541   0.284   5.296   3.047 -1.2364 -1.0953  0.0339
 2636TIP3   OH229542   0.278   1.396   0.946 -0.1862 -0.0192  0.1365
 2636TIP3    H129543   0.327   1.436   0.875  1.4088 -0.9743  0.6485
 2636TIP3    H229544   0.255   1.469   1.003  0.3821  0.4970 -0.2821
 2637TIP3   OH229545   3.811   2.304   3.183  0.4738  0.6362 -0.0276
 2637TIP3    H129546   3.737   2.244   3.172  0.7970  0.0610  0.7909
 2637TIP3    H229547   3.803   2.334   3.273 -0.0075  2.3045 -0.5864
 2638TIP3   OH229548   3.292   0.217   2.085  0.0259 -0.1422 -0.0336
 2638TIP3    H129549   3.237   0.269   2.143 -0.5372 -0.4315 -0.3080
 2638TIP3    H229550   3.237   0.144   2.058  0.5140 -0.3875 -0.3802
 2639TIP3   OH229551   4.703   5.125   8.354 -0.9040 -0.3136  0.2885
 2639TIP3    H129552   4.728   5.193   8.417 -0.4529 -1.0929  0.9836
 2639TIP3    H229553   4.619   5.154   8.319 -0.4585  0.8761  0.1548
 2640TIP3   OH229554   0.826   6.786   1.735  0.6268 -0.5999  0.6664
 2640TIP3    H129555   0.914   6.820   1.720  1.0625 -1.3620  1.3789
 2640TIP3    H229556   0.823   6.704   1.685  0.7070 -1.1175  1.4820
 2641TIP3   OH229557   1.926   2.440   1.732 -0.1854  0.0390  0.9178
 2641TIP3    H129558   2.001   2.494   1.756 -0.1942  0.1934  0.6026
 2641TIP3    H229559   1.908   2.388   1.810 -0.2783  0.6108  1.2855
 2642TIP3   OH229560   1.516   3.572   3.265 -0.2008  0.0421  0.3275
 2642TIP3    H129561   1.473   3.586   3.349 -0.4119 -0.8366  0.3750
 2642TIP3    H229562   1.604   3.607   3.276 -0.9605  2.1697  0.1287
 2643TIP3   OH229563   6.228   4.064   3.072 -0.2520  0.5210 -0.2456
 2643TIP3    H129564   6.161   4.131   3.055 -0.3750  0.1698 -1.2306
 2643TIP3    H229565   6.289   4.072   2.998 -0.6144 -0.8651 -0.7283
 2644TIP3   OH229566   6.537   2.174   3.099  0.4718  0.1622  0.6275
 2644TIP3    H129567   6.540   2.269   3.094 -1.1499  0.1790 -0.9605
 2644TIP3    H229568   6.517   2.155   3.191 -1.0267  1.4484  0.6019
 2645TIP3   OH229569   4.592   4.282   7.829 -0.1943  0.0001  0.2172
 2645TIP3    H129570   4.523   4.233   7.873 -1.2624  0.9571 -0.3277
 2645TIP3    H229571   4.601   4.239   7.744 -0.8410  0.4856 -0.1018
 2646TIP3   OH229572   1.707   1.822   2.839 -0.7934  0.3777 -0.1559
 2646TIP3    H129573   1.736   1.766   2.768 -0.8683  2.1134 -1.6124
 2646TIP3    H229574   1.711   1.766   2.917  0.2159 -1.2776 -1.3445
 2647TIP3   OH229575   5.923   6.580   2.300  0.3844 -0.5450 -0.2988
 2647TIP3    H129576   5.994   6.604   2.241 -0.5183 -0.3207 -1.3368
 2647TIP3    H229577   5.851   6.637   2.274 -0.1159 -0.6320  0.8614
 2648TIP3   OH229578   3.265   0.045   3.496  0.0943  0.3245  0.3332
 2648TIP3    H129579   3.313  -0.011   3.557 -0.3857  0.3957  0.7838
 2648TIP3    H229580   3.329   0.068   3.429  0.1453 -1.2309 -0.1857
 2649TIP3   OH229581   2.472   5.767   3.156 -0.4733  0.5272  0.0349
 2649TIP3    H129582   2.445   5.772   3.247 -1.5993  1.5717 -0.3297
 2649TIP3    H229583   2.566   5.751   3.160 -0.7776 -1.2506  1.3519
 2650TIP3   OH229584   0.869   4.271   0.422  0.1019  0.7693 -0.1940
 2650TIP3    H129585   0.919   4.350   0.399 -0.3711  1.3307  0.6203
 2650TIP3    H229586   0.853   4.227   0.339  0.5585  1.4275 -0.6417
 2651TIP3   OH229587   2.743   4.925   0.520  0.1548  0.2154 -0.5477
 2651TIP3    H129588   2.836   4.904   0.507  0.0899  0.3482 -1.2229
 2651TIP3    H229589   2.701   4.904   0.437 -0.1376  1.7693 -0.8236
 2652TIP3   OH229590   5.414   2.403   1.404 -0.2187 -0.4462  0.0880
 2652TIP3    H129591   5.416   2.447   1.490 -0.7029  0.0083 -0.1297
 2652TIP3    H229592   5.506   2.397   1.379 -0.1612  1.4117 -0.3510
 2653TIP3   OH229593   0.383   3.863   1.678 -0.1507  0.0833 -0.1272
 2653TIP3    H129594   0.398   3.772   1.654 -2.7053 -0.2996 -0.5529
 2653TIP3    H229595   0.380   3.863   1.773  0.2234 -0.2038 -0.1149
 2654TIP3   OH229596   5.500   5.218   2.445 -0.0400 -0.0289 -0.2792
 2654TIP3    H129597   5.593   5.196   2.433  0.5724  0.1428  3.1070
 2654TIP3    H229598   5.461   5.137   2.478 -0.0936  0.8947  2.1725
 2655TIP3   OH229599   5.569   6.795   0.786  0.2585 -0.0417 -0.8405
 2655TIP3    H129600   5.534   6.735   0.852 -0.0484 -2.6092 -3.1387
 2655TIP3    H229601   5.496   6.812   0.727  0.9228  0.8167 -1.4482
 2656TIP3   OH229602   0.557   2.733   1.868  0.2298 -0.6779 -0.2294
 2656TIP3    H129603   0.527   2.821   1.894  0.1240 -0.8220  0.1462
 2656TIP3    H229604   0.652   2.737   1.880  0.0838 -1.0854  1.2900
 2657TIP3   OH229605   2.229   1.236   0.747  0.1212  0.9266 -0.0365
 2657TIP3    H129606   2.206   1.204   0.660 -1.6345  2.5973 -0.2522
 2657TIP3    H229607   2.240   1.330   0.737  3.0461  0.8140  0.9938
 2658TIP3   OH229608   4.214   0.935   0.035 -0.7717  0.1626 -0.4120
 2658TIP3    H129609   4.165   0.973  -0.038 -1.2667  1.3880  0.5251
 2658TIP3    H229610   4.283   0.884  -0.007 -0.2197  1.9202 -1.7778
 2659TIP3   OH229611   0.392   2.530   1.103 -0.6988  0.2031  0.0968
 2659TIP3    H129612   0.420   2.544   1.194 -1.7043  0.9684  0.3155
 2659TIP3    H229613   0.473   2.528   1.053 -0.0443 -1.3374  1.1248
 2660TIP3   OH229614   4.257   5.341   2.234  0.2640 -0.4260  0.7246
 2660TIP3    H129615   4.173   5.361   2.275 -1.6942 -0.8002 -2.6947
 2660TIP3    H229616   4.280   5.421   2.187 -0.9921 -1.8355 -2.5550
 2661TIP3   OH229617   5.166   1.511   2.830  0.3537  0.3347  0.1901
 2661TIP3    H129618   5.255   1.499   2.797  0.7136 -0.6270  1.4429
 2661TIP3    H229619   5.126   1.424   2.824 -0.5589  0.7810 -0.4764
 2662TIP3   OH229620   4.795   4.525   1.546  0.2338  0.2649  0.0361
 2662TIP3    H129621   4.714   4.572   1.562 -0.5475 -0.6277 -1.1202
 2662TIP3    H229622   4.863   4.578   1.589 -0.9932  0.7822  1.4167
 2663TIP3   OH229623   2.501   6.027   1.406  0.2284  0.0114  0.2286
 2663TIP3    H129624   2.437   6.098   1.401  1.3142  1.0052 -0.0007
 2663TIP3    H229625   2.567   6.059   1.467  1.1677 -0.4420 -0.5318
 2664TIP3   OH229626   1.190   6.363   8.086  0.3118 -0.1575  0.3433
 2664TIP3    H129627   1.238   6.346   8.005  0.5834 -1.0162  0.6640
 2664TIP3    H229628   1.130   6.289   8.094 -0.3619  0.4013  0.4529
 2665TIP3   OH229629   3.065   6.057   3.164 -0.1283 -0.6628 -0.1251
 2665TIP3    H129630   3.008   6.104   3.225  0.1588  1.0140 -1.0759
 2665TIP3    H229631   3.023   5.972   3.151 -2.3758  0.4627 -0.6836
 2666TIP3   OH229632   1.642   1.089   0.007  0.2543 -0.6576  0.6544
 2666TIP3    H129633   1.633   1.012  -0.050  0.1144 -1.1130  1.2792
 2666TIP3    H229634   1.632   1.164  -0.051  1.5169 -1.0957 -0.1740
 2667TIP3   OH229635   6.508   3.464   2.465 -0.1957  0.2518  0.3009
 2667TIP3    H129636   6.440   3.526   2.490 -0.9788 -0.3819 -0.2001
 2667TIP3    H229637   6.582   3.518   2.438 -1.4078  1.0263 -1.6802
 2668TIP3   OH229638   6.060   6.383   0.749 -0.1648  0.1905  0.4575
 2668TIP3    H129639   6.052   6.367   0.655  0.8411  0.7403  0.2667
 2668TIP3    H229640   6.148   6.355   0.771 -0.6925 -0.7597  1.4300
 2669TIP3   OH229641   4.800   2.170   0.570  0.0774  0.1468 -0.0361
 2669TIP3    H129642   4.807   2.075   0.585 -0.3295  0.0686 -0.3290
 2669TIP3    H229643   4.891   2.200   0.565  0.2103 -0.1962  0.2476
 2670TIP3   OH229644   3.041   1.490   0.146 -0.4256  0.0645  0.2428
 2670TIP3    H129645   3.081   1.572   0.174 -0.7451 -0.2163  1.6157
 2670TIP3    H229646   3.044   1.434   0.224  0.6270 -1.5767 -0.8944
 2671TIP3   OH229647   2.394   0.766   8.493 -0.5678  0.5462  0.1358
 2671TIP3    H129648   2.430   0.770   8.582  2.7864 -0.3797 -1.0270
 2671TIP3    H229649   2.328   0.697   8.497  0.9175 -0.8763  1.5304
 2672TIP3   OH229650   4.922   4.630   1.106  0.4001 -0.3467 -0.2778
 2672TIP3    H129651   4.975   4.691   1.054  1.1337 -1.3896 -0.7880
 2672TIP3    H229652   4.986   4.576   1.152 -0.1398 -2.1753 -1.5293
 2673TIP3   OH229653   6.364   1.580   3.447  0.2085  0.0874 -0.6449
 2673TIP3    H129654   6.288   1.530   3.416 -1.1701  1.3345  0.5651
 2673TIP3    H229655   6.328   1.665   3.472  1.5115 -0.1031  2.3200
 2674TIP3   OH229656   6.068   0.694   1.075 -0.0873 -0.5131 -0.2302
 2674TIP3    H129657   6.112   0.618   1.038 -0.0260 -0.3469 -0.5083
 2674TIP3    H229658   5.982   0.694   1.034  0.7254  0.8942 -2.0815
 2675TIP3   OH229659   0.292   2.820   8.780  0.3549  0.2029 -0.2367
 2675TIP3    H129660   0.328   2.741   8.740 -0.2613  0.2069 -0.8170
 2675TIP3    H229661   0.369   2.873   8.803  0.7284  0.7918 -2.6034
 2676TIP3   OH229662   6.148   1.073   1.904 -0.0412 -0.0502 -0.1238
 2676TIP3    H129663   6.073   1.019   1.927 -0.7271  0.5579 -0.8695
 2676TIP3    H229664   6.204   1.014   1.852 -0.5314 -0.2022 -0.4909
 2677TIP3   OH229665   3.241   5.220   1.789  0.1029 -0.1807  0.4107
 2677TIP3    H129666   3.233   5.196   1.881  0.6492 -0.6198  0.3487
 2677TIP3    H229667   3.334   5.239   1.777  0.5936 -2.7750 -0.6588
 2678TIP3   OH229668   1.417   2.061   0.705  0.4046 -0.9599 -0.2416
 2678TIP3    H129669   1.327   2.028   0.706 -0.5674  1.3566  2.1203
 2678TIP3    H229670   1.428   2.097   0.616 -2.2136  1.4222  0.2414
 2679TIP3   OH229671   1.546   6.661   3.170  0.1842  0.7601  0.4992
 2679TIP3    H129672   1.618   6.618   3.124 -0.9533  0.8488 -1.4778
 2679TIP3    H229673   1.546   6.621   3.257  2.3123  0.4471  0.4067
 2680TIP3   OH229674   0.116   4.486   1.079 -0.0875 -0.1153 -0.2306
 2680TIP3    H129675   0.077   4.403   1.049  0.6654 -1.0165  1.1762
 2680TIP3    H229676   0.074   4.503   1.163 -0.4650  1.1291 -0.6570
 2681TIP3   OH229677   3.711   5.555   3.692  0.1740 -0.8433  0.2082
 2681TIP3    H129678   3.795   5.586   3.726  0.3394 -1.1195  0.0587
 2681TIP3    H229679   3.735   5.487   3.629 -0.1775 -1.1331  0.3864
 2682TIP3   OH229680   3.818   4.324   0.220 -0.3221  0.0625 -0.2911
 2682TIP3    H129681   3.779   4.411   0.216  0.8890  0.6399 -0.1224
 2682TIP3    H229682   3.761   4.269   0.166 -0.3820  1.2492 -1.4713
 2683TIP3   OH229683   6.321   0.439   3.635  0.1523  0.0877 -0.2559
 2683TIP3    H129684   6.395   0.457   3.692 -0.4514 -1.0856  0.9429
 2683TIP3    H229685   6.278   0.363   3.674 -1.2167  0.2404 -1.3792
 2684TIP3   OH229686   1.932   1.545   0.923 -0.5259 -0.4360  0.1578
 2684TIP3    H129687   1.858   1.546   0.863  1.7784  0.3381 -2.9399
 2684TIP3    H229688   1.938   1.634   0.956  1.0732  0.6038 -2.5789
 2685TIP3   OH229689   0.306   0.673   0.449  0.6393 -0.3672 -0.0097
 2685TIP3    H129690   0.242   0.741   0.428 -0.1526 -0.7805  0.9900
 2685TIP3    H229691   0.254   0.592   0.452  1.1637 -0.6761  1.0112
 2686TIP3   OH229692   3.770   0.494   3.061 -0.4735  0.4285 -0.3325
 2686TIP3    H129693   3.837   0.476   2.995 -1.0931 -0.4336 -0.7493
 2686TIP3    H229694   3.811   0.468   3.144 -0.2494 -0.0024 -0.5729
 2687TIP3   OH229695   4.568   3.208   1.970  0.4145 -0.1384  0.5101
 2687TIP3    H129696   4.604   3.193   2.057  1.5828  2.4305  0.5658
 2687TIP3    H229697   4.498   3.272   1.984 -0.0147 -0.4057 -0.3362
 2688TIP3   OH229698   5.097   4.462   8.015  0.0182 -0.3310 -0.0846
 2688TIP3    H129699   5.002   4.471   8.005 -0.3785 -1.2420  2.2121
 2688TIP3    H229700   5.112   4.367   8.017  0.6802 -0.2138  1.6615
 2689TIP3   OH229701   5.740   4.482   8.719 -0.0854  0.2140 -0.3986
 2689TIP3    H129702   5.810   4.528   8.764 -1.6043  1.9387  0.3609
 2689TIP3    H229703   5.671   4.474   8.785 -0.0757 -2.8649 -0.6339
 2690TIP3   OH229704   0.265   2.153   2.425  0.0019 -0.1332 -0.7930
 2690TIP3    H129705   0.224   2.079   2.382 -0.2460  0.7984 -2.2128
 2690TIP3    H229706   0.214   2.165   2.506 -1.2114 -0.2794 -1.5151
 2691TIP3   OH229707   4.502   6.406   2.069 -0.3870  0.0409 -0.1262
 2691TIP3    H129708   4.431   6.349   2.039  0.5899 -0.3665 -1.8453
 2691TIP3    H229709   4.566   6.345   2.106 -0.3199  0.2608  0.1174
 2692TIP3   OH229710   3.268   5.140   2.725 -0.7330 -0.0880  0.6048
 2692TIP3    H129711   3.180   5.152   2.690 -1.1700 -0.5406  1.4978
 2692TIP3    H229712   3.325   5.186   2.664 -1.4360 -0.9735 -0.7671
 2693TIP3   OH229713   2.651   6.732   3.442 -0.9712 -0.2239  0.4822
 2693TIP3    H129714   2.718   6.722   3.375 -0.5109 -0.3197  0.9541
 2693TIP3    H229715   2.699   6.757   3.520 -1.6900  2.0540  0.2717
 2694TIP3   OH229716   1.515   5.426   2.944 -0.5097 -0.0005  0.4347
 2694TIP3    H129717   1.465   5.345   2.940 -1.5506  0.6712 -1.0773
 2694TIP3    H229718   1.566   5.426   2.862 -1.2449  1.3059 -0.0414
 2695TIP3   OH229719   5.295   4.531   8.321 -0.0433 -0.3031 -0.3806
 2695TIP3    H129720   5.332   4.444   8.334  0.6810  0.2142  1.3845
 2695TIP3    H229721   5.269   4.559   8.409  1.9190  2.1794 -0.4725
 2696TIP3   OH229722   1.946   0.581   1.194 -0.2322 -0.6922  0.1589
 2696TIP3    H129723   1.943   0.628   1.111 -1.7551  0.0458  0.5858
 2696TIP3    H229724   2.029   0.605   1.233 -0.0104 -0.1370 -0.6355
 2697TIP3   OH229725   1.690   6.446   0.756  0.4224  0.2029 -0.2084
 2697TIP3    H129726   1.705   6.355   0.783 -0.0959  0.0057 -0.5680
 2697TIP3    H229727   1.607   6.470   0.798  1.5220  1.1704  1.4939
 2698TIP3   OH229728   3.511   2.217   1.451  0.0728 -0.8362  0.1449
 2698TIP3    H129729   3.497   2.278   1.379  0.4799  0.6429  1.2583
 2698TIP3    H229730   3.592   2.171   1.428 -0.1788 -0.8861 -0.6616
 2699TIP3   OH229731   4.386   5.989   1.885 -0.2717 -0.0096 -0.3974
 2699TIP3    H129732   4.346   5.962   1.967 -0.5629  1.5111  0.0033
 2699TIP3    H229733   4.461   6.042   1.911  0.9378 -1.3166 -1.1365
 2700TIP3   OH229734   2.646   5.817   2.091  0.1191 -0.3144  0.2463
 2700TIP3    H129735   2.692   5.833   2.174 -0.1819  0.3620  0.2858
 2700TIP3    H229736   2.686   5.737   2.057  0.3500 -0.5144  0.9712
 2701TIP3   OH229737   4.383   0.234   3.026  0.0709  0.1609 -0.1078
 2701TIP3    H129738   4.443   0.203   3.094  1.2689 -4.0026 -2.6569
 2701TIP3    H229739   4.298   0.236   3.069  0.9469 -0.9814  1.8615
 2702TIP3   OH229740   1.546   1.720   0.542  0.1643 -0.2940 -0.6138
 2702TIP3    H129741   1.626   1.671   0.524  0.5572  0.7450 -1.8688
 2702TIP3    H229742   1.475   1.657   0.529  0.7140 -0.8443 -0.9866
 2703TIP3   OH229743   0.274   3.637   0.609 -0.2360  0.4029 -0.3426
 2703TIP3    H129744   0.350   3.666   0.558  0.3606  2.4303  1.5662
 2703TIP3    H229745   0.292   3.545   0.628  1.1435  0.5102 -0.9815
 2704TIP3   OH229746   2.191   2.674   1.126  0.1070  0.2942 -0.5248
 2704TIP3    H129747   2.194   2.614   1.051  0.1470 -0.8306  0.3544
 2704TIP3    H229748   2.157   2.621   1.198 -1.9180  1.8986 -0.2103
 2705TIP3   OH229749   2.779   1.441   3.422  0.2808  0.2965 -0.0361
 2705TIP3    H129750   2.730   1.411   3.498 -0.8225  0.2112 -0.7545
 2705TIP3    H229751   2.870   1.417   3.441  0.0604  0.4805  1.3321
 2706TIP3   OH229752   2.047   6.251   4.001 -0.2261  0.4782 -0.0487
 2706TIP3    H129753   2.080   6.175   3.952 -2.2286  0.0541 -0.8590
 2706TIP3    H229754   2.119   6.277   4.057  0.6209 -1.8738  0.0582
 2707TIP3   OH229755   6.309   0.210   0.420 -0.0393 -0.1706  0.3788
 2707TIP3    H129756   6.298   0.232   0.327  1.5485  0.3439  0.2730
 2707TIP3    H229757   6.357   0.128   0.420 -2.8311 -1.9144  0.7941
 2708TIP3   OH229758   4.384   1.943   1.755  0.8618  0.0945 -0.6496
 2708TIP3    H129759   4.346   1.964   1.669 -1.0240 -0.6114 -0.0491
 2708TIP3    H229760   4.384   2.026   1.802 -2.3531 -0.2425  0.1663
 2709TIP3   OH229761   6.749   3.370   3.139  0.1208  0.1302  0.0518
 2709TIP3    H129762   6.751   3.331   3.226 -2.8855  0.0559  0.1791
 2709TIP3    H229763   6.802   3.311   3.085  2.2110  0.2995  1.8147
 2710TIP3   OH229764   1.429   1.462   1.786  0.5456 -0.1618 -1.1427
 2710TIP3    H129765   1.383   1.442   1.705  0.3779 -1.5045 -0.7296
 2710TIP3    H229766   1.427   1.381   1.836 -1.2156  1.1991  1.1523
 2711TIP3   OH229767   6.046   1.890   2.114 -0.0038 -0.9575 -0.1038
 2711TIP3    H129768   5.966   1.909   2.163  0.6661  1.7130  0.1012
 2711TIP3    H229769   6.117   1.913   2.173  0.9096 -1.7931 -0.8356
 2712TIP3   OH229770   4.323   5.639   2.188 -0.1430  0.1275 -0.0362
 2712TIP3    H129771   4.242   5.678   2.221 -0.3098 -1.0479  1.0045
 2712TIP3    H229772   4.349   5.696   2.115 -2.1447  0.2469 -0.7136
 2713TIP3   OH229773   1.924   4.283   1.048  0.0129  0.7188  0.8504
 2713TIP3    H129774   1.941   4.306   0.957 -0.4790 -0.5828  0.3967
 2713TIP3    H229775   1.984   4.211   1.066  1.0393  1.8247  1.9926
 2714TIP3   OH229776   2.324   6.205   0.927  0.1675  0.1677  0.2266
 2714TIP3    H129777   2.245   6.170   0.968 -0.6108  0.4986 -0.9440
 2714TIP3    H229778   2.359   6.267   0.991 -0.9283  0.5652  0.4563
 2715TIP3   OH229779   1.384   0.618   0.175  0.0997  0.0608 -0.1088
 2715TIP3    H129780   1.290   0.614   0.159  0.1404  0.9858 -0.6397
 2715TIP3    H229781   1.407   0.529   0.203 -0.4839 -0.9435 -2.5211
 2716TIP3   OH229782   3.297   5.349   8.678  0.2961  0.0257  0.3782
 2716TIP3    H129783   3.330   5.437   8.663  0.7777 -0.0216  1.1091
 2716TIP3    H229784   3.375   5.294   8.679 -0.1291 -0.7688 -2.1880
 2717TIP3   OH229785   1.408   2.320   3.680 -0.0700  0.3526 -0.2521
 2717TIP3    H129786   1.415   2.400   3.628  1.2922  0.0827 -0.5250
 2717TIP3    H229787   1.456   2.339   3.760 -0.5781  0.1310  0.1102
 2718TIP3   OH229788   3.840   6.416   0.834  0.2091  0.0064 -0.4656
 2718TIP3    H129789   3.805   6.477   0.898  1.8711 -0.2942  0.7969
 2718TIP3    H229790   3.925   6.389   0.869  0.3636 -1.6077 -1.8902
 2719TIP3   OH229791   4.815   4.831   2.705 -0.2456 -0.2430 -0.4481
 2719TIP3    H129792   4.881   4.792   2.763 -0.7095 -2.8401 -1.5394
 2719TIP3    H229793   4.867   4.881   2.641  0.5387 -0.5075 -0.0368
 2720TIP3   OH229794   2.829   3.813   2.761 -0.0447 -0.2577  0.2860
 2720TIP3    H129795   2.748   3.809   2.811 -0.2503 -1.5127 -0.1040
 2720TIP3    H229796   2.821   3.891   2.706 -0.9776 -0.3486  0.2856
 2721TIP3   OH229797   6.430   4.696   1.227  0.1938 -0.4627  0.2515
 2721TIP3    H129798   6.428   4.623   1.289 -0.0039  0.3168  1.1825
 2721TIP3    H229799   6.365   4.673   1.161  1.2857 -1.8907 -0.3585
 2722TIP3   OH229800   6.524   6.252   7.897  0.8612  0.7883  0.3502
 2722TIP3    H129801   6.546   6.168   7.856  0.8239  1.5183 -1.2366
 2722TIP3    H229802   6.607   6.301   7.896  0.8833  0.7906  1.2725
 2723TIP3   OH229803   3.159   4.587   2.545 -0.4524 -0.0046  0.3234
 2723TIP3    H129804   3.227   4.644   2.511 -0.2890 -0.7291 -0.5874
 2723TIP3    H229805   3.084   4.602   2.487 -0.7374  0.0157  0.6896
 2724TIP3   OH229806   1.009   3.000   1.892  0.2153 -0.0889  0.3341
 2724TIP3    H129807   0.985   3.087   1.924 -0.3076  0.2639 -0.9584
 2724TIP3    H229808   1.084   2.975   1.947  1.3384  1.7995 -0.2140
 2725TIP3   OH229809   3.210   5.711   1.564 -0.3901  0.3669 -0.3720
 2725TIP3    H129810   3.233   5.749   1.649  0.5357  0.3406 -0.6070
 2725TIP3    H229811   3.249   5.624   1.564 -0.2473  0.4260 -0.8900
 2726TIP3   OH229812   4.563   4.939   3.001  1.0735 -0.1323 -0.3195
 2726TIP3    H129813   4.597   4.855   3.034 -0.1761 -0.7967 -0.6773
 2726TIP3    H229814   4.469   4.934   3.014  1.0484  1.5880  0.4202
 2727TIP3   OH229815   2.104   6.439   8.593 -0.6188 -0.4467  0.1498
 2727TIP3    H129816   2.111   6.345   8.574  1.6362 -0.4706  0.7836
 2727TIP3    H229817   2.100   6.444   8.689  2.4378  0.1321  0.3533
 2728TIP3   OH229818   2.027   2.907   3.796 -0.1823  0.3128  0.6354
 2728TIP3    H129819   2.016   2.844   3.724 -2.1731  0.6999  0.5444
 2728TIP3    H229820   2.033   2.852   3.874 -2.4744 -0.0455  0.6223
 2729TIP3   OH229821   0.601   6.309   7.939  0.3092 -0.4409 -0.1255
 2729TIP3    H129822   0.538   6.363   7.891  0.7188  1.0963  1.0074
 2729TIP3    H229823   0.555   6.227   7.954 -1.5842  0.7389  0.9405
 2730TIP3   OH229824   2.293   2.327   3.694  0.2536 -0.0258 -0.2965
 2730TIP3    H129825   2.275   2.415   3.661  3.5313  0.4735 -1.0742
 2730TIP3    H229826   2.300   2.338   3.789  3.0273  1.1668 -0.5520
 2731TIP3   OH229827   1.628   2.095   3.275  0.4477 -0.1826  0.1263
 2731TIP3    H129828   1.580   2.063   3.351  0.4918  1.4547  0.8892
 2731TIP3    H229829   1.713   2.054   3.281  0.9706  1.0155  1.8361
 2732TIP3   OH229830   4.582   0.274   1.698 -0.0812 -0.1690 -0.3913
 2732TIP3    H129831   4.624   0.318   1.772  1.3963 -0.0076 -1.2797
 2732TIP3    H229832   4.491   0.305   1.700  0.1956  0.6340  0.7240
 2733TIP3   OH229833   1.060   0.564   1.828  0.0554 -0.5647 -0.0948
 2733TIP3    H129834   1.065   0.612   1.745  0.8498 -0.3157  0.0843
 2733TIP3    H229835   1.130   0.499   1.823  4.7847  3.5382  2.8650
 2734TIP3   OH229836   5.660   4.996   8.204  0.2246 -0.7171  0.6933
 2734TIP3    H129837   5.700   4.961   8.284 -0.3819 -2.4161  0.2923
 2734TIP3    H229838   5.657   4.922   8.144  1.4439  0.6955 -1.2559
 2735TIP3   OH229839   5.257   3.681   1.268  0.0276  0.2612  0.3149
 2735TIP3    H129840   5.191   3.622   1.232  1.6738 -1.8268  0.5077
 2735TIP3    H229841   5.295   3.725   1.192 -1.7351  1.7526  0.2274
 2736TIP3   OH229842   0.162   0.505   1.217 -0.1496 -0.2079 -0.3332
 2736TIP3    H129843   0.142   0.595   1.190  0.2734 -0.1033 -0.3012
 2736TIP3    H229844   0.254   0.493   1.195  0.4061  0.1007  1.6612
 2737TIP3   OH229845   1.525   1.234   8.592 -0.3810 -0.6103 -0.2340
 2737TIP3    H129846   1.438   1.200   8.571 -0.9923  0.5720  0.2625
 2737TIP3    H229847   1.557   1.269   8.509 -0.7614 -0.2490 -0.2328
 2738TIP3   OH229848   1.336   4.687   0.116 -0.0356 -0.7256 -0.2564
 2738TIP3    H129849   1.362   4.600   0.145 -1.4986 -0.3295  2.5426
 2738TIP3    H229850   1.257   4.673   0.065 -0.7385 -1.0085  0.8799
 2739TIP3   OH229851   1.131   2.255   2.924 -0.5153 -0.4846  0.4229
 2739TIP3    H129852   1.198   2.194   2.952 -1.7926 -2.5740 -0.7834
 2739TIP3    H229853   1.053   2.229   2.973 -1.0685  0.2625 -0.0345
 2740TIP3   OH229854   5.615   5.623   8.690 -0.7173  0.0850  0.0763
 2740TIP3    H129855   5.605   5.710   8.729  0.3509 -0.0516  0.7049
 2740TIP3    H229856   5.578   5.564   8.755 -1.5713  0.0739 -0.4136
 2741TIP3   OH229857   5.229   4.083   0.966 -0.1467  0.1105 -0.2445
 2741TIP3    H129858   5.300   4.120   1.019 -0.2001 -1.1887  0.7842
 2741TIP3    H229859   5.271   4.013   0.915 -0.4835  0.0327 -0.4170
 2742TIP3   OH229860   0.291   1.608   1.103  0.0470  0.0184  0.1444
 2742TIP3    H129861   0.375   1.638   1.068 -0.2432  0.6650 -0.0082
 2742TIP3    H229862   0.279   1.659   1.183  1.3732 -2.4105  2.0421
 2743TIP3   OH229863   2.846   3.160   8.780  0.3546 -0.4797  0.1308
 2743TIP3    H129864   2.931   3.176   8.819  1.0431 -4.2375  0.5489
 2743TIP3    H229865   2.794   3.119   8.850 -0.5037 -1.6120 -1.1077
 2744TIP3   OH229866   5.347   4.257   8.519 -0.0799  0.4396 -0.4717
 2744TIP3    H129867   5.390   4.276   8.436 -0.4570  0.3039 -0.7014
 2744TIP3    H229868   5.261   4.298   8.511 -0.7366 -0.9578 -0.7982
 2745TIP3   OH229869   3.093   5.475   7.302  0.1701 -0.4120 -0.1295
 2745TIP3    H129870   3.131   5.561   7.285 -0.7073  0.0763  0.3227
 2745TIP3    H229871   3.122   5.453   7.391  1.8905 -1.4154 -0.8920
 2746TIP3   OH229872   2.754   5.507   1.701  0.0049 -0.0746 -0.8080
 2746TIP3    H129873   2.688   5.455   1.656 -1.5057  0.1341  1.0615
 2746TIP3    H229874   2.832   5.452   1.700 -0.8797 -1.3775 -0.9513
 2747TIP3   OH229875   6.725   5.581   3.242  0.0725 -0.1994  0.3012
 2747TIP3    H129876   6.748   5.632   3.320  1.4863 -0.1739 -0.0975
 2747TIP3    H229877   6.793   5.513   3.237 -0.1393 -0.3550 -0.7543
 2748TIP3   OH229878   4.687   5.706   0.164 -0.4901  0.1601 -0.4934
 2748TIP3    H129879   4.737   5.767   0.218 -1.2814  1.4591 -1.1818
 2748TIP3    H229880   4.690   5.743   0.076 -1.1619 -0.6913 -0.8911
 2749TIP3   OH229881   2.612   6.169   8.300  0.1836 -0.1839  0.3719
 2749TIP3    H129882   2.687   6.204   8.348  0.0513  0.9636 -0.2233
 2749TIP3    H229883   2.650   6.115   8.231  0.3736 -2.0211  1.8344
 2750TIP3   OH229884   6.443   6.768   0.069  0.6590 -0.4410  0.1354
 2750TIP3    H129885   6.407   6.771  -0.020  1.1872 -1.1758 -0.1076
 2750TIP3    H229886   6.536   6.783   0.057  0.5812  0.5517  0.6787
 2751TIP3   OH229887   0.328   2.691   0.896 -0.6648 -0.1437 -0.6566
 2751TIP3    H129888   0.328   2.631   0.971  1.2169  0.4619 -0.1000
 2751TIP3    H229889   0.283   2.769   0.927 -0.7542 -0.2675 -0.4753
 2752TIP3   OH229890   0.825   6.380   2.004  0.3677 -0.3185 -0.0878
 2752TIP3    H129891   0.779   6.463   1.999  0.4749 -0.2588 -0.0837
 2752TIP3    H229892   0.756   6.315   2.017  0.3237 -0.1817  0.3758
 2753TIP3   OH229893   4.165   5.720   0.818  0.0728  0.3926 -0.4204
 2753TIP3    H129894   4.225   5.670   0.761 -0.0987 -1.2611  0.7798
 2753TIP3    H229895   4.080   5.678   0.806  0.3448 -1.0650  2.2132
 2754TIP3   OH229896   0.323   2.521   3.767 -0.1746  0.1866 -0.5969
 2754TIP3    H129897   0.366   2.458   3.825  1.1977  1.4685 -0.1692
 2754TIP3    H229898   0.242   2.544   3.812 -0.4008 -0.7874 -0.4740
 2755TIP3   OH229899   5.769   2.231   1.730  0.4020 -0.0715 -0.2026
 2755TIP3    H129900   5.675   2.245   1.741  0.3092 -1.4263  1.0703
 2755TIP3    H229901   5.797   2.190   1.812  2.1746  0.6057 -0.4290
 2756TIP3   OH229902   1.298   5.211   3.249 -0.1634  0.2497 -0.2418
 2756TIP3    H129903   1.244   5.163   3.186 -0.0610 -0.9002  0.5103
 2756TIP3    H229904   1.283   5.166   3.332  2.0472 -0.2105 -0.0316
 2757TIP3   OH229905   5.766   6.601   1.437 -0.5535  0.5985  0.5324
 2757TIP3    H129906   5.767   6.688   1.478  1.8097  0.3791  1.0941
 2757TIP3    H229907   5.798   6.615   1.349 -0.9574  0.3998  0.3514
 2758TIP3   OH229908   2.672   1.554   4.051 -0.2708 -0.1748 -0.1604
 2758TIP3    H129909   2.656   1.524   3.961  2.7510 -0.3366 -0.7781
 2758TIP3    H229910   2.705   1.476   4.096  3.2816  0.9202 -0.5125
 2759TIP3   OH229911   4.732   6.337   0.055  0.8824 -0.6683 -0.2928
 2759TIP3    H129912   4.803   6.314  -0.005  0.4852  0.0018 -1.0560
 2759TIP3    H229913   4.738   6.432   0.064  0.4885 -0.6832  0.1518
 2760TIP3   OH229914   4.212   3.373   0.912 -0.3569 -0.3596  0.4811
 2760TIP3    H129915   4.233   3.281   0.899 -0.2036 -0.3753  0.8124
 2760TIP3    H229916   4.241   3.391   1.002  2.6701  0.8553 -0.6244
 2761TIP3   OH229917   4.646   3.801   8.363  0.0561  0.8008  0.2525
 2761TIP3    H129918   4.645   3.740   8.437 -1.1040 -0.4958 -0.7681
 2761TIP3    H229919   4.738   3.812   8.342  0.3356 -3.5666 -1.8060
 2762TIP3   OH229920   6.543   0.492   2.238 -0.0812 -0.4576 -0.1275
 2762TIP3    H129921   6.563   0.543   2.316  0.0934 -1.3304  0.4159
 2762TIP3    H229922   6.472   0.540   2.195 -1.0578 -0.6054  1.2374
 2763TIP3   OH229923   1.064   6.482   4.157  0.2816 -0.5528 -0.4056
 2763TIP3    H129924   1.129   6.448   4.095 -1.3395  0.5622 -2.8424
 2763TIP3    H229925   1.110   6.553   4.202  1.1218 -0.5270 -1.2644
 2764TIP3   OH229926   1.812   1.132   8.347 -0.1675 -0.3801 -0.1140
 2764TIP3    H129927   1.823   1.052   8.297 -0.9357  0.5248 -1.8095
 2764TIP3    H229928   1.893   1.141   8.397  1.1105 -0.7667 -2.0262
 2765TIP3   OH229929   5.219   3.111   3.309 -0.2664 -1.1490  0.4356
 2765TIP3    H129930   5.275   3.055   3.256 -0.7231 -2.0613  0.9049
 2765TIP3    H229931   5.267   3.123   3.391 -0.9964 -2.4528  1.0905
 2766TIP3   OH229932   2.990   0.145   1.822 -0.0739 -0.5515  0.6059
 2766TIP3    H129933   2.951   0.231   1.837  0.2209 -0.5593  1.5007
 2766TIP3    H229934   2.930   0.101   1.762 -0.3061  0.2159  0.2694
 2767TIP3   OH229935   2.497   0.275   1.063  0.0041 -0.0531  0.1597
 2767TIP3    H129936   2.543   0.321   0.993 -2.4686  1.7113 -0.4628
 2767TIP3    H229937   2.471   0.345   1.124 -2.3137 -0.8124  0.1418
 2768TIP3   OH229938   2.376   2.357   3.191 -0.4187  0.1619  0.1978
 2768TIP3    H129939   2.432   2.300   3.138 -0.7067 -0.0465  0.1121
 2768TIP3    H229940   2.331   2.297   3.251 -0.6650  0.3105  0.1608
 2769TIP3   OH229941   2.351   1.690   2.617  0.0795  0.0266  0.2501
 2769TIP3    H129942   2.264   1.655   2.599 -0.1968  0.8578 -0.0822
 2769TIP3    H229943   2.347   1.717   2.709 -0.5843  1.6230 -0.2169
 2770TIP3   OH229944   3.554   3.907   8.044 -0.2467  0.3518  0.1463
 2770TIP3    H129945   3.502   3.962   7.985  1.2958 -0.5579 -2.1946
 2770TIP3    H229946   3.562   3.959   8.124 -3.7028  1.0068  0.2187
 2771TIP3   OH229947   1.766   4.895   3.043 -0.8401 -0.6125 -0.0166
 2771TIP3    H129948   1.744   4.969   2.988 -0.5543 -0.6180 -0.1404
 2771TIP3    H229949   1.851   4.866   3.011  0.3947  0.7474  1.8198
 2772TIP3   OH229950   1.726   5.205   8.274  0.0916  0.1154 -0.2584
 2772TIP3    H129951   1.745   5.193   8.181 -0.2059  1.8952 -0.5881
 2772TIP3    H229952   1.736   5.299   8.289  0.4244 -0.1767  1.5891
 2773TIP3   OH229953   4.884   6.406   2.794 -0.3075  0.0282 -0.1822
 2773TIP3    H129954   4.830   6.352   2.737  1.1576  0.2537 -1.8554
 2773TIP3    H229955   4.867   6.496   2.766 -0.0907  0.1929  0.2010
 2774TIP3   OH229956   2.084   6.082   0.506 -0.0094  0.4572  0.7174
 2774TIP3    H129957   1.989   6.088   0.494 -0.0224 -2.1283 -1.4941
 2774TIP3    H229958   2.120   6.093   0.417  1.8024  1.4546  1.5117
 2775TIP3   OH229959   2.249   1.602   3.052  0.2366  0.0688  0.4782
 2775TIP3    H129960   2.218   1.571   3.137  0.0521  0.9694  0.7462
 2775TIP3    H229961   2.196   1.554   2.988  0.1941 -0.4147  0.8650
 2776TIP3   OH229962   6.254   4.916   3.404  0.3208  0.5190 -0.0908
 2776TIP3    H129963   6.234   4.968   3.327  2.8083  0.5342 -0.8261
 2776TIP3    H229964   6.273   4.980   3.473 -0.4619  0.5209  0.1281
 2777TIP3   OH229965   5.870   4.398   1.272 -0.4330  0.0003  0.2253
 2777TIP3    H129966   5.873   4.487   1.308  0.6158  0.6385 -1.3323
 2777TIP3    H229967   5.942   4.353   1.316 -0.3598  0.2077  0.3197
 2778TIP3   OH229968   2.926   1.957   1.080  0.4360 -0.3463  0.4747
 2778TIP3    H129969   2.852   2.016   1.065  1.5601  1.2794  0.9725
 2778TIP3    H229970   2.971   1.994   1.156  2.1894 -0.8197 -0.2813
 2779TIP3   OH229971   4.216   2.735   3.656 -0.2040  0.1657 -0.8393
 2779TIP3    H129972   4.289   2.743   3.718  1.0266 -0.3949 -2.1474
 2779TIP3    H229973   4.153   2.679   3.701  1.0950 -1.0449 -0.4432
 2780TIP3   OH229974   1.449   3.695   0.951 -0.0323  0.1643  0.6575
 2780TIP3    H129975   1.464   3.636   0.878  0.6157 -0.4885  1.2982
 2780TIP3    H229976   1.518   3.673   1.014 -0.7582  0.5022  1.5942
 2781TIP3   OH229977   2.841   5.849   1.271  0.5675  0.0569 -0.0471
 2781TIP3    H129978   2.753   5.814   1.282 -0.2350  1.5537 -1.2588
 2781TIP3    H229979   2.874   5.859   1.360  0.2351 -2.1449  0.3957
 2782TIP3   OH229980   2.053   1.651   1.931 -0.2096  0.5842  0.3690
 2782TIP3    H129981   2.011   1.735   1.947 -1.8967 -0.2397  0.4822
 2782TIP3    H229982   1.981   1.592   1.909  0.7528 -1.1553  1.6185
 2783TIP3   OH229983   1.045   2.513   3.333  0.1677  0.2421 -0.4770
 2783TIP3    H129984   1.010   2.455   3.400 -0.3613  0.7644 -0.2948
 2783TIP3    H229985   0.968   2.544   3.285  0.4310  0.8883 -0.4933
 2784TIP3   OH229986   2.406   1.789   3.176  0.1984 -0.7526  0.2170
 2784TIP3    H129987   2.334   1.749   3.127  0.3526  0.0008 -0.6637
 2784TIP3    H229988   2.375   1.877   3.197  1.3925  0.1372 -1.5022
 2785TIP3   OH229989   4.578   3.870   2.793  0.4019  0.1287  0.3379
 2785TIP3    H129990   4.501   3.910   2.834  0.3939  0.6006 -0.1275
 2785TIP3    H229991   4.580   3.782   2.828 -1.6165 -0.6390 -1.2424
 2786TIP3   OH229992   4.133   0.588   1.977  0.0969  0.0589  0.3864
 2786TIP3    H129993   4.168   0.532   2.045 -1.3833 -1.4654 -0.0306
 2786TIP3    H229994   4.052   0.623   2.014 -0.9658 -1.1540 -0.6906
 2787TIP3   OH229995   1.368   3.296   2.105  0.6788  0.5291  0.0606
 2787TIP3    H129996   1.307   3.315   2.034  0.9191  2.8127  0.3886
 2787TIP3    H229997   1.454   3.322   2.070  1.2232 -0.9201  0.2465
 2788TIP3   OH229998   1.161   5.585   1.385  0.2160 -0.3317  1.0424
 2788TIP3    H129999   1.076   5.543   1.376  0.4561 -0.3960 -1.5477
 2788TIP3    H230000   1.224   5.515   1.373  0.6846 -0.1694  2.3226
 2789TIP3   OH230001   6.606   2.859   2.247  0.1291  0.0049 -0.6097
 2789TIP3    H130002   6.573   2.815   2.326 -0.5745 -0.7674 -1.3068
 2789TIP3    H230003   6.623   2.949   2.275 -2.4787  0.4425 -0.1207
 2790TIP3   OH230004   6.220   5.104   1.912 -0.0427 -0.3852 -0.3947
 2790TIP3    H130005   6.278   5.028   1.905  2.9849  1.6708  0.3106
 2790TIP3    H230006   6.260   5.170   1.854 -1.4894  1.2669  0.3984
 2791TIP3   OH230007   1.501   4.711   2.802 -0.3562  0.0697  0.0999
 2791TIP3    H130008   1.554   4.784   2.771 -1.2287  0.7548  0.1809
 2791TIP3    H230009   1.547   4.633   2.771  1.4178  0.5833  1.3165
 2792TIP3   OH230010   3.257   0.319   2.535  0.1426 -0.4587 -0.6699
 2792TIP3    H130011   3.206   0.399   2.525  1.4552  0.2384 -2.4109
 2792TIP3    H230012   3.324   0.340   2.600  1.1738  0.2812 -1.9262
 2793TIP3   OH230013   2.127   2.917   1.137  0.0745 -0.0467 -0.1960
 2793TIP3    H130014   2.144   2.950   1.048 -0.4540  0.2202 -0.2018
 2793TIP3    H230015   2.144   2.823   1.131  2.2995  0.2801 -0.0098
 2794TIP3   OH230016   1.332   5.214   3.835  0.9197  0.8247 -0.1906
 2794TIP3    H130017   1.310   5.135   3.885 -0.1077  0.5743 -0.9988
 2794TIP3    H230018   1.300   5.286   3.889 -1.9304  0.4800 -1.2410
 2795TIP3   OH230019   1.089   6.723   3.439 -0.0996  0.2313  0.2933
 2795TIP3    H130020   1.142   6.650   3.407 -1.0988 -0.0758 -0.7261
 2795TIP3    H230021   1.025   6.682   3.496  0.3148  0.5192  0.9767
 2796TIP3   OH230022   4.072   3.255   1.274 -0.3403 -0.5623  0.5933
 2796TIP3    H130023   4.028   3.212   1.200 -0.9370  2.7675 -1.1781
 2796TIP3    H230024   4.001   3.298   1.322  0.3303 -0.6471  1.7058
 2797TIP3   OH230025   3.000   4.287   3.373  0.0610 -0.1040 -0.2553
 2797TIP3    H130026   3.072   4.236   3.411 -1.7823 -1.9160  1.0636
 2797TIP3    H230027   2.961   4.228   3.308 -0.3020  0.7868 -0.8580
 2798TIP3   OH230028   5.864   5.648   0.324  0.0734 -0.0601 -0.0188
 2798TIP3    H130029   5.927   5.626   0.392  0.6483 -1.7359 -1.0168
 2798TIP3    H230030   5.823   5.729   0.353  0.4327 -0.6273  2.2072
 2799TIP3   OH230031   6.392   4.340   1.157  0.0672  0.1658  0.3938
 2799TIP3    H130032   6.324   4.281   1.189  0.1513 -1.4896 -2.2483
 2799TIP3    H230033   6.354   4.381   1.079  1.8110 -0.2502 -0.7269
 2800TIP3   OH230034   4.163   5.446   0.196 -0.1131 -0.2420  0.3750
 2800TIP3    H130035   4.166   5.461   0.290 -0.3665 -1.8522  0.6622
 2800TIP3    H230036   4.091   5.501   0.165 -0.9038 -0.7338  1.3257
 2801TIP3   OH230037   0.326   1.258   2.044 -0.5854 -0.0731  0.5204
 2801TIP3    H130038   0.382   1.204   2.099 -0.3110  0.7143  1.0436
 2801TIP3    H230039   0.383   1.288   1.974 -0.6721 -0.2685  0.3672
 2802TIP3   OH230040   0.496   5.021   8.371 -0.1960  0.1074  0.4499
 2802TIP3    H130041   0.587   5.013   8.340 -0.4994 -0.2413 -0.3753
 2802TIP3    H230042   0.486   5.114   8.391 -0.1070  0.4255 -0.9068
 2803TIP3   OH230043   4.321   1.497   3.074 -0.7234 -0.3834 -0.3495
 2803TIP3    H130044   4.239   1.485   3.122 -0.0209  0.0621  1.0101
 2803TIP3    H230045   4.387   1.507   3.142  0.8886 -3.1668 -1.3176
 2804TIP3   OH230046   0.394   2.936   2.568 -0.5083 -0.3056  0.2173
 2804TIP3    H130047   0.416   2.852   2.529 -0.9019 -0.7574  0.9507
 2804TIP3    H230048   0.393   2.920   2.662 -1.0318  0.4120  0.3459
 2805TIP3   OH230049   5.528   1.574   3.111  0.4749 -1.2037 -0.6152
 2805TIP3    H130050   5.464   1.623   3.163 -0.7259 -1.7339 -1.5504
 2805TIP3    H230051   5.613   1.604   3.144 -0.2145  0.8238 -0.5220
 2806TIP3   OH230052   0.636   1.258   2.399 -0.2559 -0.4952 -0.1235
 2806TIP3    H130053   0.671   1.328   2.344  0.6161 -0.4225  0.5072
 2806TIP3    H230054   0.711   1.201   2.417 -0.7204 -0.9988  0.2695
 2807TIP3   OH230055   6.409   5.997   1.745 -0.2858  0.1543  0.6177
 2807TIP3    H130056   6.495   5.959   1.728 -0.2545  0.3105  0.4263
 2807TIP3    H230057   6.348   5.937   1.701 -0.2675  0.1082  0.6542
 2808TIP3   OH230058   0.666   1.401   1.425 -0.3861 -0.0410 -0.2817
 2808TIP3    H130059   0.685   1.321   1.376 -1.5241  0.5937 -1.8366
 2808TIP3    H230060   0.645   1.371   1.513  0.1413 -1.3658 -0.5794
 2809TIP3   OH230061   1.689   5.515   8.773 -0.0751 -0.9733  0.5604
 2809TIP3    H130062   1.646   5.587   8.818  1.9632 -1.3624  3.4375
 2809TIP3    H230063   1.664   5.437   8.823 -1.0581 -2.1412 -1.5927
 2810TIP3   OH230064   5.071   4.569   0.674  0.2997  0.7736  0.8030
 2810TIP3    H130065   5.076   4.623   0.753 -2.4700  1.7331  0.4392
 2810TIP3    H230066   5.099   4.627   0.603  1.8567  0.2087  0.9208
 2811TIP3   OH230067   6.168   3.123   1.446  0.2376 -0.2227  0.2883
 2811TIP3    H130068   6.118   3.053   1.489  0.1424  0.1957  0.8727
 2811TIP3    H230069   6.181   3.188   1.515  0.2445  0.3787 -0.2783
 2812TIP3   OH230070   2.234   5.904   1.512  0.2570 -0.0027 -0.0786
 2812TIP3    H130071   2.328   5.898   1.494  0.3060  0.2689  0.0840
 2812TIP3    H230072   2.205   5.813   1.519  0.5417 -0.0853  0.0342
 2813TIP3   OH230073   4.715   3.517   2.110 -0.5250 -0.0631 -0.1673
 2813TIP3    H130074   4.620   3.516   2.117 -0.5238  0.2428 -0.0782
 2813TIP3    H230075   4.744   3.453   2.176 -0.6174  0.9661  0.9074
 2814TIP3   OH230076   6.786   0.530   2.694  0.8713  0.3408 -0.4141
 2814TIP3    H130077   6.868   0.529   2.743  1.0982  0.2248 -0.7890
 2814TIP3    H230078   6.807   0.578   2.614  0.9473 -0.8413 -1.1339
 2815TIP3   OH230079   5.950   2.366   1.572 -0.0133  0.4964  0.0289
 2815TIP3    H130080   6.027   2.325   1.610 -1.6018 -2.7189  0.1045
 2815TIP3    H230081   5.878   2.344   1.632 -1.4678  0.8065 -1.5153
 2816TIP3   OH230082   4.703   6.438   3.041 -0.4714 -0.3133  0.3335
 2816TIP3    H130083   4.761   6.404   2.973 -2.1588 -1.5210 -0.5748
 2816TIP3    H230084   4.666   6.518   3.003  1.6212  1.3063  1.4973
 2817TIP3   OH230085   5.170   1.729   2.470 -0.2088  0.1485 -0.4355
 2817TIP3    H130086   5.230   1.660   2.500  0.4014  1.1416  0.7391
 2817TIP3    H230087   5.150   1.706   2.379  0.6012 -1.1434 -0.3106
 2818TIP3   OH230088   3.608   2.449   4.347  0.0031  0.2301  0.1935
 2818TIP3    H130089   3.614   2.538   4.381 -1.5728 -0.0321  1.2651
 2818TIP3    H230090   3.528   2.449   4.295  0.2779 -0.4302 -0.2409
 2819TIP3   OH230091   2.113   5.958   2.061 -0.2688  0.2310 -0.0826
 2819TIP3    H130092   2.069   6.022   2.005 -0.2450  1.1947  0.9583
 2819TIP3    H230093   2.042   5.910   2.103 -0.2911 -0.0386 -0.4233
 2820TIP3   OH230094   6.650   0.812   2.743  0.4772  0.1480 -0.1849
 2820TIP3    H130095   6.666   0.906   2.743  1.7746 -0.0249  0.9231
 2820TIP3    H230096   6.652   0.787   2.836 -1.4178 -0.7516 -0.3374
 2821TIP3   OH230097   3.802   5.215   0.965 -0.3895 -0.0223  0.2430
 2821TIP3    H130098   3.798   5.310   0.948 -1.2645  0.4118  2.5938
 2821TIP3    H230099   3.798   5.176   0.878 -2.8165  2.0246 -0.7076
 2822TIP3   OH230100   1.927   3.096   1.388 -0.4617  0.0659  0.3474
 2822TIP3    H130101   2.011   3.134   1.363 -0.8336  1.0464  0.5356
 2822TIP3    H230102   1.949   3.013   1.430  0.5231  0.9286  1.6148
 2823TIP3   OH230103   4.104   5.562   1.503  0.1505  0.0479  0.1012
 2823TIP3    H130104   4.134   5.616   1.430 -1.2096 -0.2528 -0.7085
 2823TIP3    H230105   4.150   5.478   1.491 -1.7134 -0.8049 -1.7826
 2824TIP3   OH230106   5.998   0.475   1.339  0.0966  0.0353  0.3237
 2824TIP3    H130107   5.909   0.485   1.373 -0.1338  0.1160 -0.2829
 2824TIP3    H230108   6.042   0.556   1.364 -0.2625  0.3785 -0.1239
 2825TIP3   OH230109   3.857   3.511   3.808  0.3846  0.1245  0.4321
 2825TIP3    H130110   3.944   3.485   3.837  1.4599  1.9222 -0.9276
 2825TIP3    H230111   3.846   3.601   3.841 -0.6999  0.1360  0.0978
 2826TIP3   OH230112   1.801   3.796   3.012  0.2657  0.0791 -0.3748
 2826TIP3    H130113   1.857   3.737   2.961 -1.2169 -0.1013 -1.8718
 2826TIP3    H230114   1.713   3.763   2.997 -0.2802  0.3058  1.9918
 2827TIP3   OH230115   1.246   1.856   3.685 -0.2152 -0.5341 -0.0510
 2827TIP3    H130116   1.293   1.939   3.675 -0.6171 -0.3865 -0.8557
 2827TIP3    H230117   1.263   1.829   3.775  0.8597 -0.1589 -0.1290
 2828TIP3   OH230118   2.480   2.722   1.138  0.1993 -0.1822 -0.2869
 2828TIP3    H130119   2.499   2.690   1.226 -0.5620 -0.6002 -0.2639
 2828TIP3    H230120   2.384   2.714   1.130  0.3999 -1.8084 -1.7637
 2829TIP3   OH230121   4.456   4.863   0.731  0.3834  0.4299  0.1244
 2829TIP3    H130122   4.384   4.917   0.764  0.8054  1.0042  0.1253
 2829TIP3    H230123   4.530   4.885   0.787  0.1202 -1.5654  1.3742
 2830TIP3   OH230124   3.231   0.217   0.648  0.5835 -0.0474  0.5443
 2830TIP3    H130125   3.142   0.218   0.611  0.8681 -2.0244 -0.3379
 2830TIP3    H230126   3.285   0.261   0.582  0.7135 -1.5714 -0.4333
 2831TIP3   OH230127   2.760   1.879   2.166 -0.4979  0.0317 -0.4607
 2831TIP3    H130128   2.689   1.915   2.113 -0.8829  0.0198  0.0428
 2831TIP3    H230129   2.806   1.956   2.199 -0.8173  0.0496 -0.0602
 2832TIP3   OH230130   4.586   3.915   8.026  0.5698  0.7802 -0.4991
 2832TIP3    H130131   4.507   3.928   7.974 -0.0890 -2.0325 -0.3913
 2832TIP3    H230132   4.604   4.000   8.065 -2.0533  1.6656 -1.0128
 2833TIP3   OH230133   2.292   1.590   1.788 -0.3175 -0.0018  0.4303
 2833TIP3    H130134   2.255   1.583   1.700 -0.4497  1.2084  0.3672
 2833TIP3    H230135   2.216   1.583   1.846 -0.1086 -1.8998  0.5269
 2834TIP3   OH230136   6.495   0.241   3.167 -0.1416 -0.0779  0.2620
 2834TIP3    H130137   6.428   0.239   3.235  1.5286  0.1671  1.9795
 2834TIP3    H230138   6.562   0.301   3.200  1.0116 -0.4158 -1.3241
 2835TIP3   OH230139   5.675   2.488   0.749  0.2435  0.1108  0.1604
 2835TIP3    H130140   5.727   2.462   0.825 -0.1630  0.2782  0.4982
 2835TIP3    H230141   5.624   2.563   0.779  0.3306  0.3931 -0.3789
 2836TIP3   OH230142   0.238   1.038   1.426 -0.5706 -0.2923 -0.0038
 2836TIP3    H130143   0.262   1.043   1.333 -0.8118  1.9385  0.0002
 2836TIP3    H230144   0.317   1.008   1.469  0.7436  2.0861 -0.5782
 2837TIP3   OH230145   2.738   3.473   1.896 -0.1408 -0.6840  0.1233
 2837TIP3    H130146   2.815   3.428   1.931 -0.8190 -0.6905  1.6788
 2837TIP3    H230147   2.708   3.528   1.968 -2.7702 -2.1927  0.2700
 2838TIP3   OH230148   3.731   3.091   0.511  0.2010 -0.0834  0.6380
 2838TIP3    H130149   3.763   3.003   0.492  2.8596  0.7380  0.9430
 2838TIP3    H230150   3.766   3.145   0.440  0.9967  1.1576  1.9214
 2839TIP3   OH230151   0.918   0.721   8.076 -0.0755 -0.3310  0.3234
 2839TIP3    H130152   0.872   0.784   8.131 -1.0681 -0.0928 -0.7501
 2839TIP3    H230153   0.851   0.689   8.016  0.5146 -2.0851  0.5496
 2840TIP3   OH230154   1.852   3.069   3.179 -0.4106 -0.0112  0.1245
 2840TIP3    H130155   1.768   3.045   3.140 -0.9173 -2.2738  2.3710
 2840TIP3    H230156   1.831   3.091   3.270  1.5195 -2.5963  1.3431
 2841TIP3   OH230157   3.088   0.973   2.072  0.0279  0.6281  0.0222
 2841TIP3    H130158   3.116   0.882   2.071  0.4218  0.7377 -0.9645
 2841TIP3    H230159   3.087   0.998   2.164 -2.8797 -1.1864  0.6030
 2842TIP3   OH230160   2.347   3.949   8.676  0.3529 -0.3779  0.2206
 2842TIP3    H130161   2.298   3.938   8.595 -1.3071  0.6869  1.0103
 2842TIP3    H230162   2.328   4.039   8.703 -0.1993 -1.0769  2.4030
 2843TIP3   OH230163   0.828   0.415   1.041  0.4662  0.3093  0.2430
 2843TIP3    H130164   0.811   0.509   1.041 -0.1788  0.1983  0.7101
 2843TIP3    H230165   0.768   0.380   0.974  2.1244  0.4561 -1.4038
 2844TIP3   OH230166   3.544   3.749   3.811  0.6891 -0.2260 -0.3711
 2844TIP3    H130167   3.453   3.735   3.839 -0.2793 -0.0682 -3.1396
 2844TIP3    H230168   3.561   3.841   3.830  0.7262 -0.5268  1.2165
 2845TIP3   OH230169   2.093   6.314   2.914  0.3212 -0.1695  0.1930
 2845TIP3    H130170   2.073   6.407   2.920  0.6427 -0.1391  0.8412
 2845TIP3    H230171   2.105   6.299   2.820  0.6349  0.5193  0.1155
 2846TIP3   OH230172   6.838   1.969   0.470  1.5140 -0.6353  0.2142
 2846TIP3    H130173   6.752   1.956   0.431  0.2783  1.8800  1.8457
 2846TIP3    H230174   6.855   1.887   0.518 -0.2875 -0.9201  0.4202
 2847TIP3   OH230175   5.313   4.593   0.421 -0.3758 -0.5771 -0.2004
 2847TIP3    H130176   5.271   4.533   0.359  0.9394 -0.5140 -1.1781
 2847TIP3    H230177   5.250   4.665   0.430  0.1068  0.2794 -2.8454
 2848TIP3   OH230178   5.819   0.342   8.684  0.8508  0.4080  0.2457
 2848TIP3    H130179   5.743   0.399   8.683  0.8643  0.4812  1.4193
 2848TIP3    H230180   5.857   0.349   8.597 -1.3199 -0.7869 -0.8694
 2849TIP3   OH230181   1.919   2.284   8.336 -0.5801  0.3271 -0.7439
 2849TIP3    H130182   1.980   2.322   8.273 -0.2961 -0.2643 -0.8248
 2849TIP3    H230183   1.956   2.199   8.358 -1.0893  0.1943 -0.3740
 2850TIP3   OH230184   0.548   3.613   2.383 -0.1468 -0.4925  0.0254
 2850TIP3    H130185   0.610   3.680   2.411  0.3140 -1.0677  0.4068
 2850TIP3    H230186   0.518   3.572   2.464  0.1266 -1.2248 -0.2309
 2851TIP3   OH230187   5.434   2.138   1.463 -0.2971 -0.7023 -0.2975
 2851TIP3    H130188   5.402   2.226   1.441 -2.5784 -1.6135 -0.9591
 2851TIP3    H230189   5.355   2.084   1.465  0.7527 -2.3248  2.3909
 2852TIP3   OH230190   5.041   5.011   0.324  0.1269 -0.3680  0.0012
 2852TIP3    H130191   4.994   5.011   0.240  0.8165 -1.0662 -0.4025
 2852TIP3    H230192   5.132   4.992   0.300  0.2197 -1.2284  0.9685
 2853TIP3   OH230193   3.304   2.598   3.054  0.3048  0.0990 -0.3412
 2853TIP3    H130194   3.378   2.657   3.067 -0.1544  0.5792  0.1968
 2853TIP3    H230195   3.256   2.635   2.981  0.7115 -0.3407 -0.8382
 2854TIP3   OH230196   5.309   5.094   3.158 -0.1853 -0.2571 -0.1206
 2854TIP3    H130197   5.363   5.015   3.153 -0.3265 -0.4567  1.2075
 2854TIP3    H230198   5.296   5.109   3.252 -1.5444  0.3952 -0.3817
 2855TIP3   OH230199   4.580   6.447   8.257 -0.0416  0.3029  0.3368
 2855TIP3    H130200   4.556   6.466   8.166 -2.7960 -1.0013  0.7148
 2855TIP3    H230201   4.553   6.357   8.271 -0.5786  0.7726  2.7492
 2856TIP3   OH230202   4.187   5.263   1.538 -0.4287 -0.4695 -0.2029
 2856TIP3    H130203   4.095   5.269   1.562 -0.2836 -0.9047  0.4965
 2856TIP3    H230204   4.220   5.189   1.588  0.5186  0.2391  0.2622
 2857TIP3   OH230205   4.026   1.137   1.602 -0.5391  0.2363 -0.0681
 2857TIP3    H130206   4.080   1.201   1.556 -1.1643 -1.1056 -2.8276
 2857TIP3    H230207   3.939   1.148   1.565 -0.6496 -2.2086 -0.6420
 2858TIP3   OH230208   4.560   3.356   8.186  0.2896 -0.3474  0.2947
 2858TIP3    H130209   4.563   3.434   8.130 -1.4419  0.7876  1.6834
 2858TIP3    H230210   4.646   3.354   8.228  0.8228  0.0519 -0.7462
 2859TIP3   OH230211   0.667   5.156   3.290 -0.2416  0.9744  0.0930
 2859TIP3    H130212   0.624   5.173   3.373 -0.5257 -1.7421  0.5706
 2859TIP3    H230213   0.727   5.230   3.279 -1.2669  2.1593  1.9435
 2860TIP3   OH230214   1.523   2.465   1.853 -0.1364 -0.1986  0.1372
 2860TIP3    H130215   1.534   2.520   1.775  0.9666 -0.2886  0.2121
 2860TIP3    H230216   1.468   2.517   1.912 -0.6819  0.0173 -0.5529
 2861TIP3   OH230217   0.642   6.850   3.252 -0.8765  0.1303  0.7945
 2861TIP3    H130218   0.635   6.774   3.310 -0.4100  0.2329  0.9837
 2861TIP3    H230219   0.551   6.877   3.237 -1.0261 -0.2559  0.9978
 2862TIP3   OH230220   6.426   6.672   1.132  0.7667  0.2423 -0.2300
 2862TIP3    H130221   6.468   6.728   1.066 -0.0156  0.8241 -0.2484
 2862TIP3    H230222   6.453   6.583   1.109 -0.7492  0.2518 -2.2914
 2863TIP3   OH230223   1.350   0.423   2.648 -0.2420 -0.0867 -0.0162
 2863TIP3    H130224   1.315   0.462   2.569 -0.0174  1.0387  0.4194
 2863TIP3    H230225   1.273   0.388   2.694 -0.4683  0.0147 -0.3176
 2864TIP3   OH230226   4.713   4.736   1.303  0.0041 -0.3524  0.9081
 2864TIP3    H130227   4.793   4.712   1.255  0.1819  1.9841 -0.1076
 2864TIP3    H230228   4.744   4.755   1.392  0.7603  1.1776  0.3628
 2865TIP3   OH230229   4.289   4.169   0.302  0.0756 -0.2250 -0.1565
 2865TIP3    H130230   4.339   4.163   0.221 -0.3372  1.9461 -0.6351
 2865TIP3    H230231   4.354   4.194   0.368  0.0886 -0.0874 -0.2208
 2866TIP3   OH230232   2.742   6.803   2.417  0.4290  0.1345 -0.2762
 2866TIP3    H130233   2.814   6.805   2.354  0.4643 -0.7522 -0.2835
 2866TIP3    H230234   2.722   6.710   2.428 -0.0271  0.3116  0.5137
 2867TIP3   OH230235   3.758   4.445   7.853 -0.2894 -0.3790  0.0162
 2867TIP3    H130236   3.735   4.409   7.768 -1.2444 -0.2845  0.2154
 2867TIP3    H230237   3.826   4.388   7.887  0.8849  0.1984 -1.2593
 2868TIP3   OH230238   4.067   0.138   1.990 -0.0627  0.7035  0.1695
 2868TIP3    H130239   4.148   0.157   1.943 -0.5354 -0.7579 -1.3465
 2868TIP3    H230240   4.003   0.198   1.952  0.3514  2.1330  1.6434
 2869TIP3   OH230241   2.235   1.417   2.272  0.4177  0.0856 -0.2697
 2869TIP3    H130242   2.324   1.385   2.284 -0.3486 -2.4216 -0.6901
 2869TIP3    H230243   2.204   1.374   2.193 -1.7505 -0.5420  0.8255
 2870TIP3   OH230244   3.586   0.689   3.157 -0.2080  0.4750  0.0908
 2870TIP3    H130245   3.656   0.640   3.114 -1.5061 -0.3100 -1.2248
 2870TIP3    H230246   3.579   0.650   3.244  2.3359  1.9519  1.0942
 2871TIP3   OH230247   2.822   6.616   0.499 -0.0829 -0.1387  0.0096
 2871TIP3    H130248   2.843   6.682   0.434 -0.5475 -0.8837 -0.9191
 2871TIP3    H230249   2.894   6.621   0.562 -0.4152  1.6495  0.2975
 2872TIP3   OH230250   5.596   4.330   1.389 -0.1413 -0.0349 -0.2702
 2872TIP3    H130251   5.608   4.386   1.313 -1.9943  1.4399  0.4667
 2872TIP3    H230252   5.672   4.270   1.386  0.3137  0.5446 -2.7174
 2873TIP3   OH230253   3.254   0.419   8.594  0.0365  0.5263  0.0712
 2873TIP3    H130254   3.276   0.438   8.503 -1.8922  0.5928 -0.4234
 2873TIP3    H230255   3.208   0.497   8.624 -0.4991 -0.0074  0.6731
 2874TIP3   OH230256   6.338   0.940   4.403  0.1005  0.2990 -0.2255
 2874TIP3    H130257   6.364   1.025   4.438  3.6312 -0.6789 -0.1165
 2874TIP3    H230258   6.312   0.890   4.480  1.5226  0.1941  0.2097
 2875TIP3   OH230259   3.575   0.772   0.944 -0.6823 -0.0604 -0.3876
 2875TIP3    H130260   3.548   0.851   0.991 -0.9452 -0.9315  0.9908
 2875TIP3    H230261   3.628   0.804   0.872  0.8627  1.3026  1.2518
 2876TIP3   OH230262   5.231   1.390   8.754 -1.0527 -0.8869  0.9880
 2876TIP3    H130263   5.229   1.401   8.659 -1.4443 -1.3154  0.9485
 2876TIP3    H230264   5.210   1.477   8.788 -0.2991 -0.5802  0.6914
 2877TIP3   OH230265   2.769   2.152   0.836 -0.4548 -0.8088 -0.0923
 2877TIP3    H130266   2.705   2.085   0.814  0.8604 -1.5631 -1.9014
 2877TIP3    H230267   2.784   2.198   0.754  0.3746  0.1992  0.5980
 2878TIP3   OH230268   1.700   0.220   3.339 -0.3410  0.3879 -0.1934
 2878TIP3    H130269   1.698   0.277   3.416 -0.3187 -0.0805  0.1527
 2878TIP3    H230270   1.626   0.250   3.286 -0.5958  0.4528  0.1933
 2879TIP3   OH230271   0.764   0.862   3.212 -0.8774 -0.1383  0.4732
 2879TIP3    H130272   0.677   0.853   3.250 -1.3421 -2.2722 -0.9366
 2879TIP3    H230273   0.757   0.825   3.124  1.3273  0.1078  0.1145
 2880TIP3   OH230274   0.836   5.508   1.474 -0.3664  0.1306  0.0202
 2880TIP3    H130275   0.848   5.489   1.567  1.0566 -0.0181 -0.1628
 2880TIP3    H230276   0.807   5.599   1.471 -0.0367  0.2570  0.6070
 2881TIP3   OH230277   4.822   4.621   0.454  0.4484  0.2737 -0.2338
 2881TIP3    H130278   4.809   4.634   0.548  3.0062  1.4507  0.0383
 2881TIP3    H230279   4.910   4.582   0.447  0.0970 -0.3014 -2.1202
 2882TIP3   OH230280   0.002   4.472   4.005 -0.5253  0.1619 -0.0498
 2882TIP3    H130281  -0.051   4.468   3.926  2.1246 -0.2314 -1.9715
 2882TIP3    H230282   0.005   4.381   4.036 -0.0783 -0.0101 -0.5895
 2883TIP3   OH230283   1.671   3.663   2.078  0.0802 -0.0283 -0.2909
 2883TIP3    H130284   1.695   3.581   2.123  1.2747  0.0177 -0.8206
 2883TIP3    H230285   1.654   3.636   1.988 -1.1290  0.0738 -0.1104
 2884TIP3   OH230286   0.898   4.525   2.933  0.1361  0.8269  0.6015
 2884TIP3    H130287   0.876   4.446   2.883 -1.5510  0.9599  1.0610
 2884TIP3    H230288   0.967   4.498   2.993  1.8411  0.5278 -1.3952
 2885TIP3   OH230289   2.067   0.840   0.336 -0.2807 -0.3052 -0.3124
 2885TIP3    H130290   1.992   0.900   0.333 -0.4232 -0.3884  0.8761
 2885TIP3    H230291   2.041   0.767   0.280 -1.2274 -0.4571  0.2910
 2886TIP3   OH230292   2.717   6.015   0.819 -0.5646 -0.2516 -0.2161
 2886TIP3    H130293   2.676   6.087   0.771 -0.2070  0.3519  0.3476
 2886TIP3    H230294   2.686   6.026   0.909  1.3860  0.7038  0.4050
 2887TIP3   OH230295   1.862   4.548   1.380  0.1696  0.1471 -0.2251
 2887TIP3    H130296   1.874   4.571   1.472  0.1382 -0.3108 -0.1017
 2887TIP3    H230297   1.826   4.459   1.383  0.5817 -0.0406 -0.6833
 2888TIP3   OH230298   6.670   6.445   1.315 -0.0461 -0.2449  0.0630
 2888TIP3    H130299   6.687   6.525   1.364  0.5573 -1.0920  1.2925
 2888TIP3    H230300   6.601   6.400   1.363  0.8782 -1.3129  0.4457
 2889TIP3   OH230301   3.412   2.611   0.720  0.6363 -0.1371 -0.3194
 2889TIP3    H130302   3.386   2.599   0.811  1.3054 -2.7312 -0.4200
 2889TIP3    H230303   3.329   2.621   0.673  0.1185 -1.5358  0.2419
 2890TIP3   OH230304   5.215   1.564   2.249  0.3322  0.4816 -0.5630
 2890TIP3    H130305   5.151   1.574   2.179  0.5291  0.0495 -0.8130
 2890TIP3    H230306   5.203   1.474   2.280 -0.2722  0.9061  0.4815
 2891TIP3   OH230307   6.731   2.968   8.488  0.1190 -0.4515 -0.1790
 2891TIP3    H130308   6.718   2.874   8.495  1.1572 -0.5581  0.5895
 2891TIP3    H230309   6.790   2.990   8.560  1.8662  0.3853 -1.7562
 2892TIP3   OH230310   4.551   2.175   0.735 -0.5669  0.0774 -0.2299
 2892TIP3    H130311   4.498   2.251   0.711  0.0433 -0.0270 -2.0897
 2892TIP3    H230312   4.632   2.186   0.684  0.7425 -0.3590  1.6504
 2893TIP3   OH230313   5.205   0.702   2.439  0.7861 -0.3338  0.0199
 2893TIP3    H130314   5.170   0.662   2.519 -2.1437 -0.1229 -1.0308
 2893TIP3    H230315   5.255   0.777   2.469  1.5223 -1.4485  1.7239
 2894TIP3   OH230316   0.884   4.120   8.213  0.3069 -0.0718 -0.3860
 2894TIP3    H130317   0.900   4.211   8.237 -0.3243 -0.6133  2.4522
 2894TIP3    H230318   0.795   4.119   8.179 -0.1944  0.1850  0.8875
 2895TIP3   OH230319   1.448   1.766   1.781 -0.7907  0.1680 -0.0818
 2895TIP3    H130320   1.423   1.674   1.775  0.4309 -0.2832  1.1766
 2895TIP3    H230321   1.541   1.767   1.757 -0.7254  1.0256  0.1956
 2896TIP3   OH230322   0.018   5.120   3.276 -0.0252 -0.4320  0.6149
 2896TIP3    H130323   0.072   5.094   3.351 -0.3813  2.7226  2.1596
 2896TIP3    H230324   0.079   5.125   3.203  1.4895  1.2531  1.8931
 2897TIP3   OH230325   5.990   2.192   2.278  0.0696  0.2283 -0.4397
 2897TIP3    H130326   6.003   2.108   2.323  1.2724 -0.1302 -1.4050
 2897TIP3    H230327   5.897   2.211   2.289 -0.2803 -1.3556 -0.4085
 2898TIP3   OH230328   1.377   1.424   2.734 -0.1659  0.2750 -0.2247
 2898TIP3    H130329   1.426   1.349   2.766 -0.3974 -0.3085 -1.2009
 2898TIP3    H230330   1.416   1.445   2.650 -0.7027  0.6577 -0.3872
 2899TIP3   OH230331   0.972   1.949   8.494  0.4274  0.5681 -0.1554
 2899TIP3    H130332   0.979   2.000   8.574  2.0824  0.0065  0.0979
 2899TIP3    H230333   1.011   2.004   8.426  3.7715 -0.8457  0.4158
 2900TIP3   OH230334   0.028   5.506   2.181 -0.1262 -0.1257 -0.0927
 2900TIP3    H130335   0.045   5.435   2.119  0.9663  0.5118 -0.5399
 2900TIP3    H230336  -0.056   5.483   2.220 -1.3293 -0.0483 -2.4951
 2901TIP3   OH230337   1.826   1.315   3.436  0.3638  0.3611 -0.0648
 2901TIP3    H130338   1.795   1.303   3.526 -0.8690  0.2552 -0.4898
 2901TIP3    H230339   1.899   1.254   3.428  0.0982 -0.0750  0.6799
 2902TIP3   OH230340   2.914   1.550   0.428  0.0324  0.1109  0.1064
 2902TIP3    H130341   2.923   1.584   0.517 -2.6758 -0.8009  0.8364
 2902TIP3    H230342   2.878   1.624   0.378  0.6723  0.3390 -0.0298
 2903TIP3   OH230343   5.416   3.214   8.472 -0.6746  0.3886  0.5911
 2903TIP3    H130344   5.440   3.274   8.402 -1.2531 -0.1419 -0.0806
 2903TIP3    H230345   5.352   3.154   8.432  0.4009 -1.1216  1.0224
 2904TIP3   OH230346   5.829   0.387   1.648  0.6415  0.2066 -0.6139
 2904TIP3    H130347   5.820   0.476   1.614  0.9334 -0.0815 -1.4840
 2904TIP3    H230348   5.886   0.395   1.724 -0.1728  0.9008 -0.0685
 2905TIP3   OH230349   6.604   5.146   3.770 -0.1709  0.6278  0.0815
 2905TIP3    H130350   6.546   5.127   3.697 -0.6849  1.2435  0.3178
 2905TIP3    H230351   6.644   5.062   3.791  0.0421  0.4612 -0.9508
 2906TIP3   OH230352   5.923   5.123   1.312  0.0712 -0.0844  0.1564
 2906TIP3    H130353   5.844   5.157   1.354  0.5586  0.2833  0.7837
 2906TIP3    H230354   5.989   5.122   1.381  0.2610 -1.6861 -0.0115
 2907TIP3   OH230355   0.251   5.809   3.127  0.2263  0.2657 -0.2684
 2907TIP3    H130356   0.204   5.850   3.199 -2.0811 -1.0694 -0.9004
 2907TIP3    H230357   0.188   5.748   3.089  2.6948 -2.1298 -0.8358
 2908TIP3   OH230358   0.695   2.151   1.275  0.3806 -0.1953  0.8884
 2908TIP3    H130359   0.713   2.058   1.291  1.0632 -0.4991 -1.3278
 2908TIP3    H230360   0.614   2.150   1.224  0.9152  0.3224  0.0000
 2909TIP3   OH230361   2.955   6.825   2.831  0.0786  0.8033 -0.2542
 2909TIP3    H130362   2.982   6.907   2.873  0.8223  1.2218 -1.5197
 2909TIP3    H230363   2.899   6.853   2.759 -1.7271  0.0562  0.7916
 2910TIP3   OH230364   1.114   2.144   2.672  0.1280 -0.6663 -0.2417
 2910TIP3    H130365   1.114   2.192   2.755 -1.3793  1.7496 -1.5163
 2910TIP3    H230366   1.077   2.059   2.694  0.8334 -0.5285  1.7352
 2911TIP3   OH230367   0.618   4.302   2.499  0.8585 -0.1782  0.6837
 2911TIP3    H130368   0.596   4.238   2.431  2.7008  0.2227 -0.3563
 2911TIP3    H230369   0.668   4.369   2.453  0.7088  0.9892  2.1431
 2912TIP3   OH230370   3.246   6.554   8.245 -0.2863  0.1221 -0.1697
 2912TIP3    H130371   3.324   6.505   8.270  0.1134  0.8366  0.0264
 2912TIP3    H230372   3.177   6.489   8.239  0.1750 -0.4224  0.3330
 2913TIP3   OH230373   5.767   1.136   2.796  0.5060 -0.0387 -0.3106
 2913TIP3    H130374   5.785   1.090   2.714  2.1006  0.3987 -0.2332
 2913TIP3    H230375   5.830   1.208   2.797 -1.5342  1.8326 -0.1495
 2914TIP3   OH230376   4.582   3.651   8.123  0.0209  0.0496  0.6795
 2914TIP3    H130377   4.601   3.737   8.084 -0.3132  0.7396  1.9799
 2914TIP3    H230378   4.619   3.656   8.211  1.4468 -1.7605  0.2283
 2915TIP3   OH230379   0.372   2.179   3.105 -0.1654 -0.3497  0.0888
 2915TIP3    H130380   0.404   2.135   3.026 -0.5680 -1.1106  0.3390
 2915TIP3    H230381   0.349   2.107   3.164 -0.4387  0.2093  0.6624
 2916TIP3   OH230382   4.335   3.577   2.742  0.5914 -0.3782 -0.1174
 2916TIP3    H130383   4.414   3.590   2.795 -1.4858  0.9496  2.9228
 2916TIP3    H230384   4.263   3.592   2.802 -2.0526  1.8595 -3.4592
 2917TIP3   OH230385   5.914   5.300   0.264  0.2072  0.6253  0.2459
 2917TIP3    H130386   5.919   5.218   0.313  0.1569  0.5518  0.1297
 2917TIP3    H230387   5.992   5.349   0.291  0.3780  0.4271  0.1158
 2918TIP3   OH230388   1.958   4.515   0.359 -0.0420 -0.7841 -0.1773
 2918TIP3    H130389   1.870   4.508   0.322 -0.1949  1.3703 -0.3581
 2918TIP3    H230390   1.972   4.433   0.406 -2.0667 -1.2440 -0.3167
 2919TIP3   OH230391   4.835   4.817   7.954  0.2518  0.5635 -0.0236
 2919TIP3    H130392   4.815   4.911   7.961 -0.3133  0.5479 -1.1500
 2919TIP3    H230393   4.794   4.778   8.031 -2.3504  0.8326 -1.1674
 2920TIP3   OH230394   6.557   3.768   0.073 -0.1807 -0.2340  0.1889
 2920TIP3    H130395   6.541   3.703   0.005  0.6586 -0.8392  0.5400
 2920TIP3    H230396   6.479   3.823   0.073  0.0402  0.1556 -1.6663
 2921TIP3   OH230397   5.168   6.771   0.016  0.1275 -0.4420 -0.2636
 2921TIP3    H130398   5.183   6.860  -0.018  0.6832 -1.0995 -1.8231
 2921TIP3    H230399   5.089   6.780   0.070  1.8960  1.6162  2.2661
 2922TIP3   OH230400   3.968   1.382   2.611  0.1003 -0.2191 -0.4142
 2922TIP3    H130401   4.028   1.446   2.572  0.8721 -1.5507 -1.5162
 2922TIP3    H230402   3.882   1.425   2.608  0.7342  1.1196 -0.2332
 2923TIP3   OH230403   6.142   1.114   0.097 -0.4784 -0.2915 -0.0074
 2923TIP3    H130404   6.103   1.184   0.149 -1.2099 -1.4928  1.1121
 2923TIP3    H230405   6.103   1.123   0.011 -1.3596  0.0306  0.4188
 2924TIP3   OH230406   5.029   6.040   2.239  0.3092  0.1710  0.6337
 2924TIP3    H130407   4.953   6.083   2.276  0.3827  0.3172  0.6153
 2924TIP3    H230408   5.000   5.950   2.221  0.0013  0.3593  0.1789
 2925TIP3   OH230409   2.636   0.859   0.393  0.1066 -0.5050  0.3650
 2925TIP3    H130410   2.704   0.926   0.397  1.0950 -1.4518 -0.1194
 2925TIP3    H230411   2.673   0.784   0.440 -0.9528 -0.7544  0.8415
 2926TIP3   OH230412   6.341   1.922   1.762  0.3218  0.0222 -0.2555
 2926TIP3    H130413   6.380   1.989   1.705 -1.5173  2.7808  1.4745
 2926TIP3    H230414   6.405   1.911   1.833  0.0100  1.0931  0.2092
 2927TIP3   OH230415   0.885   2.982   3.120 -0.5610 -0.1642 -0.4134
 2927TIP3    H130416   0.793   2.958   3.110 -0.7938 -0.6153  2.2202
 2927TIP3    H230417   0.888   3.076   3.099 -2.1704  0.4951  1.9071
 2928TIP3   OH230418   0.140   5.886   2.207  0.1558 -0.4000 -0.0961
 2928TIP3    H130419   0.084   5.886   2.285  1.3639  0.5897  0.8214
 2928TIP3    H230420   0.228   5.900   2.241  0.5761  1.2814 -1.7058
 2929TIP3   OH230421   1.212   6.591   0.436 -0.4143 -0.4711 -0.3739
 2929TIP3    H130422   1.300   6.573   0.470 -0.5730  0.6548  0.6869
 2929TIP3    H230423   1.214   6.558   0.346  1.0635 -0.5754 -0.3251
 2930TIP3   OH230424   5.661   5.906   0.028  0.1369  0.1790  0.2613
 2930TIP3    H130425   5.734   5.913  -0.034  0.3248 -0.7181  0.3709
 2930TIP3    H230426   5.693   5.951   0.107 -0.0589  1.2152 -0.2302
 2931TIP3   OH230427   3.898   2.685   2.614 -0.1453 -0.2174  0.1344
 2931TIP3    H130428   3.911   2.658   2.523  1.4401  0.5152  0.1061
 2931TIP3    H230429   3.881   2.779   2.608  0.8792  0.0137  0.6352
 2932TIP3   OH230430   4.347   0.798   1.577 -0.3729  0.1500  0.4010
 2932TIP3    H130431   4.262   0.761   1.601 -0.0103 -0.4727  0.7487
 2932TIP3    H230432   4.371   0.852   1.653 -0.1188 -0.2727  0.6262
 2933TIP3   OH230433   0.098   4.067   2.176  0.1542  0.5977 -0.0580
 2933TIP3    H130434   0.124   4.059   2.268  1.2056 -0.1302 -0.3945
 2933TIP3    H230435   0.013   4.112   2.179 -1.0537 -1.6149  1.4150
 2934TIP3   OH230436   4.255   1.836   3.001 -0.3513  0.2922 -0.4716
 2934TIP3    H130437   4.284   1.833   2.910 -1.8541  0.3790 -0.9865
 2934TIP3    H230438   4.190   1.766   3.007  1.1681 -1.0821  1.0960
 2935TIP3   OH230439   6.687   3.841   0.598  0.4540  0.3634 -0.4251
 2935TIP3    H130440   6.721   3.810   0.682  0.6503  0.3997 -0.4904
 2935TIP3    H230441   6.627   3.772   0.570 -0.8297  1.0669  0.4859
 2936TIP3   OH230442   5.132   2.005   3.187 -0.0768  0.1998 -0.3893
 2936TIP3    H130443   5.087   1.935   3.235 -0.8609  0.9017 -0.0782
 2936TIP3    H230444   5.121   2.083   3.242  2.5311  0.1921  0.2810
 2937TIP3   OH230445   0.187   2.283   1.313 -0.2241  0.6271  0.1073
 2937TIP3    H130446   0.195   2.213   1.249 -0.0278 -0.0074  0.8191
 2937TIP3    H230447   0.253   2.263   1.380 -1.0244  0.7760  0.9657
 2938TIP3   OH230448   2.857   1.327   0.860 -0.1902  0.0492  0.2003
 2938TIP3    H130449   2.768   1.298   0.840  0.2403 -1.0852 -0.1576
 2938TIP3    H230450   2.860   1.418   0.830 -0.8339 -0.3097 -1.0052
 2939TIP3   OH230451   2.740   3.332   2.705  0.4393 -0.0516 -0.1748
 2939TIP3    H130452   2.823   3.348   2.660  0.3599  0.5233 -0.1202
 2939TIP3    H230453   2.691   3.413   2.695  0.6862  0.3532  1.5490
 2940TIP3   OH230454   6.372   1.839   3.598  0.0193 -0.0706 -0.3490
 2940TIP3    H130455   6.428   1.901   3.644 -1.5527  1.0077  0.2092
 2940TIP3    H230456   6.352   1.772   3.663 -2.2746  1.4991  0.7056
 2941TIP3   OH230457   6.594   0.497   3.638 -0.0538 -0.1100  0.0224
 2941TIP3    H130458   6.538   0.504   3.560  0.0498  0.9262  0.0306
 2941TIP3    H230459   6.601   0.587   3.671  0.9025 -0.3557  0.5240
 2942TIP3   OH230460   0.179   6.453   2.866 -0.1450 -0.3030 -0.8348
 2942TIP3    H130461   0.115   6.417   2.804 -0.9286 -0.5593  0.0891
 2942TIP3    H230462   0.148   6.542   2.884  0.2248 -0.1391 -1.0185
 2943TIP3   OH230463   2.472   5.050   0.085  0.5004  0.5222 -0.4338
 2943TIP3    H130464   2.503   5.102   0.011  0.0938  0.2365 -0.8094
 2943TIP3    H230465   2.399   4.999   0.050 -0.7572  1.5736  0.5640
 2944TIP3   OH230466   0.711   4.202   8.672  0.1919 -0.2744  0.1914
 2944TIP3    H130467   0.719   4.291   8.638 -1.4244 -0.7752 -1.7016
 2944TIP3    H230468   0.618   4.182   8.664  0.5061 -2.1078  0.7021
 2945TIP3   OH230469   6.166   5.401   2.221 -0.1616  0.1686 -0.0348
 2945TIP3    H130470   6.237   5.465   2.220  2.5487 -2.5749 -0.8001
 2945TIP3    H230471   6.128   5.406   2.133 -0.3288  1.0324  0.0800
 2946TIP3   OH230472   0.675   1.371   1.036  0.4234  0.4272  0.0243
 2946TIP3    H130473   0.643   1.282   1.054  0.1154  0.6918  0.8164
 2946TIP3    H230474   0.607   1.429   1.071 -0.9568  1.0309 -3.2776
 2947TIP3   OH230475   6.410   1.090   0.146  0.0512  0.6416  0.4533
 2947TIP3    H130476   6.315   1.095   0.133 -0.1878 -0.6233  1.4541
 2947TIP3    H230477   6.447   1.122   0.064 -1.2625  0.0083 -0.4286
 2948TIP3   OH230478   3.047   4.179   0.162  0.2222 -0.2504 -0.0828
 2948TIP3    H130479   3.119   4.120   0.142 -1.2968 -1.6719 -1.7460
 2948TIP3    H230480   3.016   4.208   0.076 -2.5150 -1.4145  0.4112
 2949TIP3   OH230481   5.594   1.110   4.189  0.1401  0.0461  0.1062
 2949TIP3    H130482   5.527   1.136   4.253  0.6548  0.5928  0.4238
 2949TIP3    H230483   5.612   1.018   4.211  0.2510  0.2025  0.6967
 2950TIP3   OH230484   6.253   4.893   4.064  0.1099  0.7608  0.7489
 2950TIP3    H130485   6.200   4.955   4.013 -0.4160  0.1145  0.5026
 2950TIP3    H230486   6.242   4.809   4.020 -0.7383  0.0748  2.1715
 2951TIP3   OH230487   6.373   1.226   2.596  0.1427  0.3419  0.1470
 2951TIP3    H130488   6.402   1.188   2.680 -0.2644  0.8707  0.5310
 2951TIP3    H230489   6.453   1.263   2.558  0.5797 -0.9955 -0.2999
 2952TIP3   OH230490   4.148   1.265   4.131  0.1895  0.4615 -0.0264
 2952TIP3    H130491   4.201   1.254   4.051 -0.7561  0.4735 -0.6676
 2952TIP3    H230492   4.096   1.185   4.136 -0.4991  0.9010  0.0018
 2953TIP3   OH230493   1.725   1.849   0.193 -0.1515 -0.7219  0.3973
 2953TIP3    H130494   1.743   1.885   0.106  0.5511 -2.0062 -0.0146
 2953TIP3    H230495   1.790   1.891   0.250 -2.0830  1.9269  0.8499
 2954TIP3   OH230496   2.401   1.489   1.448 -0.4755  0.0910  0.2184
 2954TIP3    H130497   2.465   1.484   1.519 -0.1089  0.6416 -0.0725
 2954TIP3    H230498   2.448   1.458   1.371 -0.8590 -0.4559  0.1995
 2955TIP3   OH230499   6.257   0.061   1.518  0.0799  0.2377  0.1040
 2955TIP3    H130500   6.288  -0.010   1.461 -0.1394  1.0568 -1.0654
 2955TIP3    H230501   6.331   0.121   1.524  0.0259  0.2679  0.5272
 2956TIP3   OH230502   0.377   6.558   8.164  0.1535 -0.5691 -0.0882
 2956TIP3    H130503   0.304   6.526   8.218 -2.2240  2.5565 -1.1917
 2956TIP3    H230504   0.391   6.648   8.193  1.5222 -0.1070 -2.0119
 2957TIP3   OH230505   3.752   6.169   1.988 -0.4315  0.4085 -0.3180
 2957TIP3    H130506   3.734   6.234   1.919  0.5789  0.9313 -0.0997
 2957TIP3    H230507   3.842   6.142   1.973 -0.8602 -1.0600 -0.4672
 2958TIP3   OH230508   2.996   4.725   7.916 -0.2544 -0.4363 -0.2152
 2958TIP3    H130509   2.932   4.684   7.858 -0.6379 -1.9157  1.1612
 2958TIP3    H230510   3.078   4.679   7.898  0.0381  0.2744 -0.7569
 2959TIP3   OH230511   5.823   0.067   0.817 -0.2870  0.7679  0.2880
 2959TIP3    H130512   5.851   0.064   0.725 -0.5214  1.4208  0.1860
 2959TIP3    H230513   5.731   0.041   0.815 -0.5723  1.7267  0.1979
 2960TIP3   OH230514   6.639   2.584   4.332  0.1101 -0.0294 -0.2183
 2960TIP3    H130515   6.710   2.596   4.269 -0.1618 -1.9577 -0.9791
 2960TIP3    H230516   6.598   2.670   4.339  2.7889  1.2666  0.6333
 2961TIP3   OH230517   4.746   0.643   0.910  0.0156 -0.6321 -0.9610
 2961TIP3    H130518   4.834   0.622   0.940 -0.0194 -0.4116 -0.6914
 2961TIP3    H230519   4.748   0.737   0.892 -0.6187 -0.2557  0.7249
 2962TIP3   OH230520   2.994   4.083   0.409  0.2009  0.0556 -0.7484
 2962TIP3    H130521   2.899   4.095   0.414  0.2825  1.0453 -1.4229
 2962TIP3    H230522   3.021   4.135   0.334  1.6985  2.4248  1.2788
 2963TIP3   OH230523   3.346   3.354   2.077  0.0503  0.0869 -0.1068
 2963TIP3    H130524   3.305   3.395   2.001  0.6669 -1.2971 -1.2358
 2963TIP3    H230525   3.273   3.317   2.126 -0.2454 -0.5285 -0.9757
 2964TIP3   OH230526   6.170   5.075   0.607 -0.0714 -0.3748 -0.0163
 2964TIP3    H130527   6.087   5.122   0.622  1.0469  2.0250 -0.9458
 2964TIP3    H230528   6.225   5.102   0.681 -0.0874 -1.9914  0.6134
 2965TIP3   OH230529   1.745   5.841   3.658 -0.0230 -0.0235  0.3170
 2965TIP3    H130530   1.768   5.857   3.749 -2.2800 -0.6061  1.0228
 2965TIP3    H230531   1.709   5.753   3.656 -0.3630  0.1141 -1.0666
 2966TIP3   OH230532   0.662   0.822   4.208  0.2995 -0.5108  0.1805
 2966TIP3    H130533   0.634   0.913   4.197  0.7904 -0.5034 -1.2118
 2966TIP3    H230534   0.643   0.802   4.300  0.4708  1.0798  0.5886
 2967TIP3   OH230535   1.008   5.595   0.534  0.5033 -0.1858 -0.2682
 2967TIP3    H130536   1.059   5.669   0.567  1.3261 -0.3912 -1.0320
 2967TIP3    H230537   1.072   5.541   0.486 -0.4234 -0.4815 -1.2092
 2968TIP3   OH230538   0.049   3.296   2.139  0.0440 -0.6042 -0.1422
 2968TIP3    H130539   0.002   3.224   2.098  1.7744 -2.9595  1.7126
 2968TIP3    H230540   0.007   3.307   2.224  0.3699  0.0214 -0.0528
 2969TIP3   OH230541   6.584   2.133   0.527 -0.5329  0.4860  0.0306
 2969TIP3    H130542   6.644   2.161   0.597  1.6561  0.4075 -1.7226
 2969TIP3    H230543   6.558   2.045   0.553  0.0704  0.5280  0.8410
 2970TIP3   OH230544   3.022   1.812   1.443  0.7768  0.0959 -0.5170
 2970TIP3    H130545   3.093   1.813   1.508  0.7963  0.2778 -0.5412
 2970TIP3    H230546   3.030   1.727   1.400  1.1744  0.2447 -0.7365
 2971TIP3   OH230547   0.127   1.197   8.438 -0.1607  0.0615  0.6865
 2971TIP3    H130548   0.102   1.284   8.469 -1.9365  0.5534 -1.8507
 2971TIP3    H230549   0.180   1.213   8.360  0.6444 -1.1509  0.9501
 2972TIP3   OH230550   6.441   1.989   2.638 -0.1303  0.2588 -0.3330
 2972TIP3    H130551   6.504   2.061   2.638 -1.1845  1.2051  0.5300
 2972TIP3    H230552   6.355   2.031   2.635 -0.7819 -0.9590  0.2780
 2973TIP3   OH230553   6.671   0.045   2.455  0.1149  0.1229  0.0446
 2973TIP3    H130554   6.667   0.140   2.465 -0.1453  0.0782  0.3720
 2973TIP3    H230555   6.580   0.017   2.452  0.1907 -0.1529  0.2944
 2974TIP3   OH230556   4.715   4.797   0.988  1.0020  0.6812  0.2442
 2974TIP3    H130557   4.652   4.734   0.952  0.1712  0.3364  2.1422
 2974TIP3    H230558   4.761   4.748   1.056  3.3778  0.9385 -1.0839
 2975TIP3   OH230559   5.891   4.260   1.029 -0.1233  0.0289  0.1239
 2975TIP3    H130560   5.875   4.335   0.972  0.4836  0.3811  0.4088
 2975TIP3    H230561   5.874   4.293   1.118  0.9129  0.0557  0.3193
 2976TIP3   OH230562   6.431   5.733   2.546 -0.1818 -0.2332 -0.3034
 2976TIP3    H130563   6.515   5.717   2.591 -0.7038 -1.5523  0.2881
 2976TIP3    H230564   6.380   5.784   2.609  0.7622  2.1080 -1.3647
 2977TIP3   OH230565   0.169   5.936   0.765  0.4198 -0.5333 -0.2543
 2977TIP3    H130566   0.171   6.019   0.716  1.7672 -1.4132 -1.7867
 2977TIP3    H230567   0.144   5.871   0.700  0.9121 -1.5586  0.5660
 2978TIP3   OH230568   2.683   2.725   3.558  0.1180  0.5939  0.6270
 2978TIP3    H130569   2.670   2.734   3.463  2.2390  0.7005  0.2873
 2978TIP3    H230570   2.628   2.793   3.596  1.6836  2.7993 -0.7743
 2979TIP3   OH230571   0.375   0.640   1.439  0.4789 -0.3960 -0.5744
 2979TIP3    H130572   0.369   0.563   1.496  0.8909 -0.7252 -0.9620
 2979TIP3    H230573   0.308   0.627   1.372  0.5279 -0.4053 -0.6223
 2980TIP3   OH230574   0.759   1.163   1.683  0.1615  0.1944 -0.3698
 2980TIP3    H130575   0.775   1.070   1.700 -2.2054 -0.0313  0.9513
 2980TIP3    H230576   0.664   1.169   1.671  0.4117  2.2777 -1.7333
 2981TIP3   OH230577   4.898   2.330   1.270 -0.3787 -0.2785 -1.0963
 2981TIP3    H130578   4.875   2.289   1.187  1.5922 -2.5277 -0.6501
 2981TIP3    H230579   4.987   2.363   1.257 -0.1925 -0.3054 -0.0221
 2982TIP3   OH230580   3.487   5.431   1.042  0.1965  0.0222  0.4182
 2982TIP3    H130581   3.391   5.427   1.037  0.1678  1.6087 -1.6648
 2982TIP3    H230582   3.516   5.370   0.974  0.5831  1.1466 -0.4522
 2983TIP3   OH230583   2.186   3.003   2.732 -0.4748 -0.0631  0.4444
 2983TIP3    H130584   2.114   2.951   2.766  0.2443 -1.3002  0.1455
 2983TIP3    H230585   2.212   3.059   2.805 -0.7903 -0.6481  1.0112
 2984TIP3   OH230586   5.500   1.229   0.835 -0.1401  0.1834  0.4789
 2984TIP3    H130587   5.586   1.189   0.840 -0.4866 -0.5999  0.1879
 2984TIP3    H230588   5.439   1.157   0.821 -0.6648  0.8997 -1.1518
 2985TIP3   OH230589   4.592   1.003   2.983  0.0858  0.4883  0.1928
 2985TIP3    H130590   4.614   1.094   2.965  0.9719  0.2786  0.1901
 2985TIP3    H230591   4.675   0.962   3.006 -0.1292 -0.5682 -0.8131
 2986TIP3   OH230592   2.988   5.327   4.061  0.4877  0.9171  0.1119
 2986TIP3    H130593   2.995   5.347   4.154 -0.6547  1.9673  0.0023
 2986TIP3    H230594   2.944   5.404   4.023  1.7776  0.9513 -1.4528
 2987TIP3   OH230595   6.328   0.628   2.096 -0.0346  0.5828  0.1848
 2987TIP3    H130596   6.405   0.624   2.039 -0.1415 -0.3885  0.1043
 2987TIP3    H230597   6.263   0.675   2.045  0.6293  1.8213  0.4183
 2988TIP3   OH230598   0.148   2.381   3.563 -0.4938  0.2435 -0.5708
 2988TIP3    H130599   0.237   2.354   3.588 -0.4348  1.6023  0.8005
 2988TIP3    H230600   0.151   2.386   3.467  1.1006  0.8434 -0.5170
 2989TIP3   OH230601   5.245   0.859   0.335  1.0071 -0.3241 -0.8246
 2989TIP3    H130602   5.178   0.799   0.367  1.1327 -0.3925 -0.6878
 2989TIP3    H230603   5.211   0.946   0.355  1.1170 -0.3681 -0.4401
 2990TIP3   OH230604   2.854   4.585   0.873 -0.3831  0.3875  0.4228
 2990TIP3    H130605   2.936   4.573   0.921 -0.8329  1.3301  1.4740
 2990TIP3    H230606   2.873   4.553   0.784  1.2098  0.8841  0.5554
 2991TIP3   OH230607   4.575   1.489   1.411  0.2235  0.3162  0.1558
 2991TIP3    H130608   4.614   1.410   1.447  1.4712  1.4378  1.3771
 2991TIP3    H230609   4.646   1.531   1.363 -0.4738  0.6245 -0.6246
 2992TIP3   OH230610   4.492   0.606   0.631  0.3357 -0.9189  0.1337
 2992TIP3    H130611   4.432   0.601   0.556 -1.8228  1.2768  1.5663
 2992TIP3    H230612   4.578   0.587   0.593 -0.6850 -0.2426 -2.8486
 2993TIP3   OH230613   0.919   6.689   3.908 -0.4767  0.3800 -0.2154
 2993TIP3    H130614   0.928   6.600   3.873  1.3030  0.8625 -1.1186
 2993TIP3    H230615   0.981   6.692   3.980  0.7680  1.3690 -1.2831
 2994TIP3   OH230616   5.744   1.739   0.044  0.0476  0.7856 -0.2617
 2994TIP3    H130617   5.702   1.810   0.094 -0.2413  0.9939 -0.7905
 2994TIP3    H230618   5.735   1.766  -0.047  0.2155  0.2103 -0.4503
 2995TIP3   OH230619   1.632   1.046   0.596 -0.0763  0.2370  0.2472
 2995TIP3    H130620   1.574   1.030   0.522  3.2131  0.0793 -2.5390
 2995TIP3    H230621   1.627   0.965   0.648 -2.0169  0.1254 -0.0254
 2996TIP3   OH230622   0.790   0.257   1.269 -0.3164  0.0769  0.0352
 2996TIP3    H130623   0.815   0.308   1.192 -0.4829 -0.7701 -0.5925
 2996TIP3    H230624   0.694   0.254   1.265 -0.3681  0.7047  0.7212
 2997TIP3   OH230625   0.281   1.545   1.417 -0.0659  0.0431 -0.7401
 2997TIP3    H130626   0.194   1.575   1.391 -0.1111  0.9780  0.4454
 2997TIP3    H230627   0.265   1.482   1.487  0.1647 -0.8337 -1.4503
 2998TIP3   OH230628   5.532   5.642   1.444  0.0075 -0.8420 -0.1431
 2998TIP3    H130629   5.557   5.553   1.420  3.4217  0.2931 -1.4973
 2998TIP3    H230630   5.502   5.681   1.362 -1.0237 -0.5909  0.3397
 2999TIP3   OH230631   0.404   4.437   8.757 -0.1468 -0.8213 -0.0359
 2999TIP3    H130632   0.311   4.454   8.742  0.2614  0.0521 -2.0267
 2999TIP3    H230633   0.424   4.364   8.699  0.6925  0.0087 -0.8355
 3000TIP3   OH230634   5.964   3.321   2.100  0.0664 -0.1518 -0.2706
 3000TIP3    H130635   5.890   3.269   2.133  1.7401 -1.4838  1.6799
 3000TIP3    H230636   5.945   3.410   2.128 -1.0137 -0.3846 -0.2188
 3001TIP3   OH230637   5.815   0.098   4.068  0.1864 -0.5068  0.2848
 3001TIP3    H130638   5.750   0.090   3.999 -0.3574  0.5890  0.6474
 3001TIP3    H230639   5.860   0.014   4.069 -2.0732 -1.7886  0.8830
 3002TIP3   OH230640   0.627   4.400   2.097 -0.0376  0.2993  0.0975
 3002TIP3    H130641   0.694   4.391   2.029  0.9721 -1.4478  1.2251
 3002TIP3    H230642   0.581   4.480   2.075  3.4141  2.5016  0.0647
 3003TIP3   OH230643   3.451   0.191   1.036 -0.2817 -0.2650 -0.3648
 3003TIP3    H130644   3.506   0.187   0.958  0.5933 -2.5183  0.2916
 3003TIP3    H230645   3.380   0.251   1.013  1.5443  1.4809 -1.8100
 3004TIP3   OH230646   3.586   0.260   8.278 -0.1511 -0.1595 -0.5850
 3004TIP3    H130647   3.598   0.217   8.363 -0.9617 -0.7736 -0.7687
 3004TIP3    H230648   3.598   0.190   8.214 -0.7078  0.0528 -0.9244
 3005TIP3   OH230649   2.361   0.828   8.776 -0.2750  0.2196 -0.3393
 3005TIP3    H130650   2.384   0.833   8.869 -1.4378  1.4079 -0.0854
 3005TIP3    H230651   2.265   0.828   8.775 -0.2833  1.2344 -1.5791
 3006TIP3   OH230652   2.220   2.793   0.745  0.3460 -0.0238 -0.0725
 3006TIP3    H130653   2.162   2.725   0.781  0.1456 -0.8033 -1.7623
 3006TIP3    H230654   2.181   2.875   0.774 -0.7154 -0.5820  0.1424
 3007TIP3   OH230655   6.157   1.591   0.098  0.5802  0.0872 -0.0639
 3007TIP3    H130656   6.147   1.679   0.133  2.9533  1.0352 -1.5712
 3007TIP3    H230657   6.222   1.550   0.155  0.7660 -0.0971 -0.4114
 3008TIP3   OH230658   2.466   1.640   8.393 -0.1994 -0.1133  0.2525
 3008TIP3    H130659   2.376   1.632   8.363 -1.3242  2.2349  2.5983
 3008TIP3    H230660   2.490   1.731   8.373  1.4477 -0.5085  0.2645
 3009TIP3   OH230661   0.445   4.789   8.234 -0.0752  0.1478 -0.0193
 3009TIP3    H130662   0.504   4.783   8.158  0.9624 -0.0498  0.7811
 3009TIP3    H230663   0.465   4.874   8.273  0.2257 -0.2366  0.6856
 3010TIP3   OH230664   1.999   6.587   3.336  0.4334  0.4665 -0.8884
 3010TIP3    H130665   1.938   6.636   3.281 -0.3612 -0.2057 -0.6243
 3010TIP3    H230666   2.029   6.514   3.282 -0.1616 -0.0561 -0.5325
 3011TIP3   OH230667   1.072   3.943   3.175  0.1061 -0.2649  0.3924
 3011TIP3    H130668   1.076   3.889   3.096 -0.0727 -1.0087  0.8832
 3011TIP3    H230669   0.981   3.937   3.204  0.3874 -0.8166  1.2038
 3012TIP3   OH230670   6.284   2.338   0.281  0.2644 -0.4762  0.1098
 3012TIP3    H130671   6.305   2.291   0.362  0.3228  0.6402  0.7592
 3012TIP3    H230672   6.355   2.401   0.271 -1.5563  1.8863  1.1725
 3013TIP3   OH230673   1.414   5.858   8.171  0.3100 -0.6099  0.3297
 3013TIP3    H130674   1.439   5.945   8.203  1.3610 -0.5551 -0.5867
 3013TIP3    H230675   1.497   5.813   8.156 -0.1925 -1.3042 -0.4656
 3014TIP3   OH230676   5.296   5.656   0.842 -0.2910  0.2032 -0.5364
 3014TIP3    H130677   5.319   5.564   0.828  0.3304  0.0381  1.2625
 3014TIP3    H230678   5.201   5.655   0.856 -0.1409 -0.3394  0.5364
 3015TIP3   OH230679   2.219   4.091   0.978 -0.3036 -0.1542 -0.0570
 3015TIP3    H130680   2.285   4.155   0.950  0.0842 -0.2071  0.7071
 3015TIP3    H230681   2.251   4.059   1.062  0.3780 -2.5799 -1.1449
 3016TIP3   OH230682   1.897   0.774   0.641  0.0470 -0.1325 -0.1461
 3016TIP3    H130683   1.837   0.827   0.693  0.3617  0.3357 -0.2528
 3016TIP3    H230684   1.949   0.838   0.592  2.2033 -0.3916  1.6336
 3017TIP3   OH230685   1.436   3.598   3.785  0.0025 -0.2494 -0.0111
 3017TIP3    H130686   1.466   3.574   3.873 -0.0994  0.1065  0.1224
 3017TIP3    H230687   1.393   3.683   3.797 -2.3834 -1.4116  0.0484
 3018TIP3   OH230688   3.172   5.866   1.263 -0.1892  0.2291 -0.1739
 3018TIP3    H130689   3.248   5.884   1.318 -1.4437 -0.8147  2.0126
 3018TIP3    H230690   3.097   5.888   1.318 -1.5092 -0.8739 -1.4636
 3019TIP3   OH230691   1.396   2.242   0.471  0.4816  0.0273  0.1101
 3019TIP3    H130692   1.487   2.213   0.465 -0.2460 -2.3364 -0.5624
 3019TIP3    H230693   1.395   2.328   0.428  1.9995 -0.9131 -1.9858
 3020TIP3   OH230694   0.946   1.099   1.151 -0.4954  0.4637 -0.2825
 3020TIP3    H130695   0.885   1.134   1.216  0.8355 -0.0765  1.3186
 3020TIP3    H230696   1.009   1.170   1.137  0.3709 -0.1073  0.5688
 3021TIP3   OH230697   6.046   4.878   1.532  0.0837  0.0925  0.2048
 3021TIP3    H130698   6.077   4.968   1.528  0.8413 -0.1111  1.1359
 3021TIP3    H230699   6.081   4.837   1.453  0.3458  0.4227  0.1486
 3022TIP3   OH230700   1.302   0.901   0.869 -0.8317 -0.3388  0.2214
 3022TIP3    H130701   1.325   0.857   0.951  2.5828  0.8091  0.0300
 3022TIP3    H230702   1.297   0.831   0.805 -1.6684 -1.0519  1.0408
 3023TIP3   OH230703   3.293   6.850   0.809  0.3461  0.3335 -0.0096
 3023TIP3    H130704   3.354   6.800   0.755 -0.4122  2.1292 -2.7437
 3023TIP3    H230705   3.258   6.916   0.750  1.0202  3.9379  3.2192
 3024TIP3   OH230706   3.638   2.109   4.260 -0.2096  0.5732  0.0576
 3024TIP3    H130707   3.561   2.056   4.282  0.5714 -0.3709  0.5902
 3024TIP3    H230708   3.605   2.173   4.197 -1.9602  1.6838  1.9439
 3025TIP3   OH230709   6.697   6.781   3.722  0.4541  0.4754 -0.1727
 3025TIP3    H130710   6.766   6.754   3.782  1.1021 -1.0393 -1.5253
 3025TIP3    H230711   6.677   6.872   3.747  1.6951  0.3646  1.3556
 3026TIP3   OH230712   6.326   2.745   0.325  0.1477  0.1858 -0.3653
 3026TIP3    H130713   6.331   2.838   0.303 -0.7422  0.4549  0.5104
 3026TIP3    H230714   6.250   2.713   0.276  0.4340 -0.0778 -0.6420
 3027TIP3   OH230715   5.920   5.920   3.227 -0.3852 -0.1207  0.2421
 3027TIP3    H130716   5.825   5.914   3.243 -0.0436 -0.3853  2.3533
 3027TIP3    H230717   5.960   5.875   3.301  1.4851  2.1370  0.6979
 3028TIP3   OH230718   0.713   3.179   4.064  0.1356 -0.0679 -0.1152
 3028TIP3    H130719   0.772   3.105   4.076 -0.9458 -0.7315  1.5448
 3028TIP3    H230720   0.757   3.252   4.107  0.5433 -0.1244 -0.4416
 3029TIP3   OH230721   3.783   3.976   2.745  0.1746  0.7548 -0.2933
 3029TIP3    H130722   3.831   3.983   2.662  0.5179 -0.3184 -0.2020
 3029TIP3    H230723   3.699   3.938   2.720  0.7797 -0.8329 -0.0020
 3030TIP3   OH230724   0.540   5.627   0.611 -0.0108 -0.3410  0.3842
 3030TIP3    H130725   0.466   5.666   0.657  0.4582  0.9036  0.1161
 3030TIP3    H230726   0.613   5.687   0.627 -0.0587  0.7347 -2.7978
 3031TIP3   OH230727   6.166   3.443   3.415 -0.0750  0.6172  0.1930
 3031TIP3    H130728   6.223   3.370   3.389 -0.1781  0.9629 -1.0490
 3031TIP3    H230729   6.077   3.412   3.396 -0.1907  0.7135  0.5684
 3032TIP3   OH230730   3.941   1.641   1.217  0.1621 -0.0582 -0.5519
 3032TIP3    H130731   3.977   1.669   1.133 -1.0933 -1.6428 -1.6806
 3032TIP3    H230732   3.879   1.571   1.195 -1.5363  0.6622  1.5258
 3033TIP3   OH230733   0.854   6.510   4.332  0.2289  0.0974  0.0029
 3033TIP3    H130734   0.841   6.423   4.370  1.7524 -0.0511  0.2450
 3033TIP3    H230735   0.922   6.498   4.266  0.4200  1.0935  0.0006
 3034TIP3   OH230736   0.638   4.229   3.485 -0.1767 -0.1096 -0.0161
 3034TIP3    H130737   0.659   4.311   3.530  0.1773 -1.1579  1.8382
 3034TIP3    H230738   0.568   4.252   3.424 -0.2202  1.5220  0.6053
 3035TIP3   OH230739   4.503   1.580   3.254  0.3720 -0.2171 -0.0912
 3035TIP3    H130740   4.584   1.545   3.291 -0.1054 -2.3167 -0.9065
 3035TIP3    H230741   4.498   1.669   3.288  3.8308  0.5789 -1.2611
 3036TIP3   OH230742   2.014   0.573   1.903  0.2381 -0.4233  0.0237
 3036TIP3    H130743   1.955   0.497   1.906  0.5397 -0.6802 -0.3439
 3036TIP3    H230744   1.960   0.644   1.870  0.1754 -0.7039 -0.4857
 3037TIP3   OH230745   5.375   0.988   1.785  0.3812  0.0554 -0.0152
 3037TIP3    H130746   5.292   0.951   1.753 -0.1235 -0.4225  1.7251
 3037TIP3    H230747   5.382   1.072   1.741 -0.1336 -0.6750 -1.5439
 3038TIP3   OH230748   2.527   5.159   1.139 -0.1019  0.6275  0.4108
 3038TIP3    H130749   2.606   5.110   1.113  1.1267  2.4770  0.4954
 3038TIP3    H230750   2.517   5.225   1.070 -0.8451  1.2091  1.0662
 3039TIP3   OH230751   5.289   5.558   3.824 -0.4423  0.3909 -0.1513
 3039TIP3    H130752   5.226   5.627   3.844  0.9014  2.0726 -1.4233
 3039TIP3    H230753   5.316   5.524   3.910 -1.0880  1.4845  0.5004
 3040TIP3   OH230754   3.776   6.446   2.044 -0.3655 -0.1403  0.0389
 3040TIP3    H130755   3.817   6.483   2.122 -1.5599  0.2625  0.4926
 3040TIP3    H230756   3.771   6.352   2.062  1.2602 -0.3553 -0.4623
 3041TIP3   OH230757   5.283   6.246   0.485  0.7682  0.5516 -0.3081
 3041TIP3    H130758   5.371   6.225   0.515  0.9166 -0.3238 -1.3059
 3041TIP3    H230759   5.232   6.257   0.565  1.6878  0.6572  0.2685
 3042TIP3   OH230760   2.556   4.537   3.481 -0.0066 -0.4920 -0.0717
 3042TIP3    H130761   2.633   4.588   3.503 -0.4126 -0.0560  0.3559
 3042TIP3    H230762   2.518   4.512   3.565 -0.4848 -0.4687 -0.2754
 3043TIP3   OH230763   3.464   6.767   3.949  0.1576  0.2445  0.2177
 3043TIP3    H130764   3.370   6.781   3.935  0.3664  0.6358 -0.9293
 3043TIP3    H230765   3.493   6.843   3.998 -0.2335 -0.1819  1.1273
 3044TIP3   OH230766   0.450   1.768   1.394  0.3951  0.5587  0.2840
 3044TIP3    H130767   0.373   1.711   1.391  0.1098  0.9494  0.1248
 3044TIP3    H230768   0.451   1.803   1.483 -1.1462  2.6314 -0.4518
 3045TIP3   OH230769   6.726   5.269   1.737  0.1839  0.1837  0.3425
 3045TIP3    H130770   6.709   5.306   1.823 -1.0679 -2.0418  1.1190
 3045TIP3    H230771   6.776   5.190   1.754  2.9953  1.4300 -1.2877
 3046TIP3   OH230772   6.560   5.831   0.832 -0.8046 -0.0297 -0.2385
 3046TIP3    H130773   6.563   5.799   0.742 -1.0502  1.4756 -0.8061
 3046TIP3    H230774   6.606   5.915   0.830  0.3176 -0.5533  1.3163
 3047TIP3   OH230775   0.767   1.482   8.514  0.6992  0.3208  0.6505
 3047TIP3    H130776   0.817   1.477   8.595  0.3735  3.2333  1.1370
 3047TIP3    H230777   0.833   1.488   8.445  0.9811 -0.2529  0.8649
 3048TIP3   OH230778   0.992   1.252   2.829 -0.0447  0.2366 -0.1770
 3048TIP3    H130779   0.949   1.262   2.914 -0.1054 -0.6636 -0.0859
 3048TIP3    H230780   1.066   1.194   2.848  0.2390  0.4468 -0.6452
 3049TIP3   OH230781   4.496   6.259   2.703 -0.0581  0.3830 -0.2414
 3049TIP3    H130782   4.477   6.325   2.637  0.1655  1.4282  0.7023
 3049TIP3    H230783   4.468   6.299   2.786  0.1942 -0.6596  0.3708
 3050TIP3   OH230784   5.768   0.141   2.924  0.2920  0.2606 -0.4169
 3050TIP3    H130785   5.864   0.133   2.923  0.3237  0.5894 -1.4432
 3050TIP3    H230786   5.742   0.122   2.834 -0.8101 -1.9201  0.2948
 3051TIP3   OH230787   4.223   1.943   0.412 -0.1974 -0.1632  0.2123
 3051TIP3    H130788   4.281   1.908   0.479  1.3051 -0.7951 -1.3673
 3051TIP3    H230789   4.223   1.877   0.343  0.4138  1.6343 -1.5786
 3052TIP3   OH230790   3.034   4.540   3.452  0.0719  0.1165  0.2160
 3052TIP3    H130791   3.017   4.450   3.425  0.7009  0.6947 -2.3005
 3052TIP3    H230792   3.107   4.569   3.398 -0.9360  2.5514  0.0052
 3053TIP3   OH230793   6.273   4.821   0.827 -0.4961  0.6735  0.7902
 3053TIP3    H130794   6.202   4.848   0.886 -0.4222 -1.3525  1.8579
 3053TIP3    H230795   6.227   4.789   0.749 -0.6668  1.0131  0.7440
 3054TIP3   OH230796   4.697   4.998   0.493 -0.1028  0.6368  0.2324
 3054TIP3    H130797   4.778   5.046   0.476  1.1825 -1.0678  1.2457
 3054TIP3    H230798   4.682   5.010   0.587 -0.9143  0.7579  0.0932
 3055TIP3   OH230799   3.337   5.221   1.371  0.3160  0.1611 -0.6119
 3055TIP3    H130800   3.257   5.274   1.366 -0.2481 -0.5911  0.2130
 3055TIP3    H230801   3.341   5.177   1.286 -1.4241 -1.5531  0.1124
 3056TIP3   OH230802   2.792   5.913   0.120 -0.1858  0.4971  0.1553
 3056TIP3    H130803   2.731   5.880   0.054 -1.1486  2.7961 -0.2033
 3056TIP3    H230804   2.745   5.985   0.162  1.3112  0.6211  1.7313
 3057TIP3   OH230805   2.962   0.500   0.773  0.7171  0.4592  0.3462
 3057TIP3    H130806   3.008   0.566   0.721  1.7308 -0.1543  0.4383
 3057TIP3    H230807   2.987   0.518   0.863  0.5683  0.2817  0.4231
 3058TIP3   OH230808   5.939   1.163   2.164 -0.7760  0.1561 -0.1121
 3058TIP3    H130809   6.033   1.147   2.150 -0.3911  0.9797  1.3865
 3058TIP3    H230810   5.900   1.148   2.078  0.6326 -0.8416 -0.6225
 3059TIP3   OH230811   3.940   5.044   3.681  0.5435  0.7731  0.3015
 3059TIP3    H130812   3.902   4.969   3.726  1.8310  0.1864  0.4434
 3059TIP3    H230813   4.034   5.038   3.698  0.9063  1.3207 -1.2932
 3060TIP3   OH230814   1.996   2.119   1.366  0.0089 -0.8957 -0.7754
 3060TIP3    H130815   1.988   2.071   1.448 -0.4282 -0.0716 -0.3192
 3060TIP3    H230816   2.090   2.118   1.347  0.2867 -0.0043  0.4207
 3061TIP3   OH230817   1.942   5.861   1.230 -0.2023  0.9565 -0.8365
 3061TIP3    H130818   1.954   5.781   1.281  2.3046  1.3710 -0.6330
 3061TIP3    H230819   1.961   5.836   1.140  0.9512  1.3523 -0.7225
 3062TIP3   OH230820   2.090   2.394   8.166 -0.2384  0.5378 -0.3475
 3062TIP3    H130821   2.077   2.480   8.127  1.7328  1.1842  0.2946
 3062TIP3    H230822   2.092   2.333   8.092 -1.0876  1.0975 -0.8460
 3063TIP3   OH230823   6.202   2.081   0.563 -0.5324  0.0939  0.0986
 3063TIP3    H130824   6.238   2.170   0.568  0.7762 -0.4336  0.3657
 3063TIP3    H230825   6.107   2.094   0.564 -0.3785  1.4204  1.6822
 3064TIP3   OH230826   2.627   5.288   0.053  0.0145  0.3671 -0.7280
 3064TIP3    H130827   2.716   5.256   0.036  0.1715  0.8142 -0.7774
 3064TIP3    H230828   2.605   5.252   0.139  0.5322  0.8405 -0.3868
 3065TIP3   OH230829   5.718   6.840   8.310  0.8650  0.2628  0.1284
 3065TIP3    H130830   5.668   6.918   8.335 -0.9760 -1.1903  1.2198
 3065TIP3    H230831   5.699   6.828   8.217 -0.3306  0.1154  0.3733
 3066TIP3   OH230832   1.607   3.730   0.343 -0.1320 -0.4165 -0.3129
 3066TIP3    H130833   1.666   3.785   0.394  0.2516 -0.9096 -0.2238
 3066TIP3    H230834   1.519   3.757   0.370  0.0434  0.5327 -0.6691
 3067TIP3   OH230835   5.602   3.664   3.693  0.1950  0.6314  0.1701
 3067TIP3    H130836   5.669   3.610   3.735 -0.5835  0.2311  0.9246
 3067TIP3    H230837   5.524   3.608   3.690  0.0671  0.8279 -1.3624
 3068TIP3   OH230838   6.215   1.657   1.956  0.1660 -0.5624  0.5049
 3068TIP3    H130839   6.194   1.679   1.865  2.7801  0.5659  0.0886
 3068TIP3    H230840   6.162   1.717   2.008 -0.8838 -0.7783 -0.2895
 3069TIP3   OH230841   3.216   6.087   2.816  0.2187 -0.6313 -0.2380
 3069TIP3    H130842   3.162   6.109   2.740 -0.0108  0.1265  0.1320
 3069TIP3    H230843   3.269   6.165   2.830  0.1744 -0.7244  0.4512
 3070TIP3   OH230844   5.450   0.368   1.423  0.1280 -0.1527 -0.2140
 3070TIP3    H130845   5.490   0.449   1.392 -0.1675  0.6925  1.4851
 3070TIP3    H230846   5.355   0.383   1.413 -0.0088  0.3515  1.4218
 3071TIP3   OH230847   5.372   6.621   2.281 -0.1676 -0.8811 -0.0592
 3071TIP3    H130848   5.362   6.526   2.271  1.0959 -1.2538  1.7109
 3071TIP3    H230849   5.462   6.639   2.254 -0.7937  0.0902 -1.7087
 3072TIP3   OH230850   0.237   6.460   0.660 -0.1162  0.0150  0.1815
 3072TIP3    H130851   0.332   6.460   0.668 -0.1817  1.2600  1.2474
 3072TIP3    H230852   0.216   6.546   0.624 -0.8535 -0.1292  0.2539
 3073TIP3   OH230853   1.787   6.584   1.156  0.3347  0.4746  0.3181
 3073TIP3    H130854   1.866   6.532   1.141  0.4287  1.2209 -2.1963
 3073TIP3    H230855   1.753   6.552   1.240  3.2633  0.1462  1.4952
 3074TIP3   OH230856   1.831   2.221   0.445 -0.3273  0.3038  0.0623
 3074TIP3    H130857   1.771   2.249   0.376  1.5995  0.6491 -1.5612
 3074TIP3    H230858   1.828   2.125   0.442  0.5423  0.2982 -1.2842
 3075TIP3   OH230859   6.232   2.655   1.728  0.6316  0.1647  0.2700
 3075TIP3    H130860   6.218   2.744   1.760  1.5660  0.1903  0.6475
 3075TIP3    H230861   6.160   2.605   1.765 -0.1537  0.8386 -0.3018
 3076TIP3   OH230862   5.181   5.481   1.752 -0.0950 -0.2197 -0.1501
 3076TIP3    H130863   5.133   5.562   1.735 -0.8236 -0.7426 -0.6467
 3076TIP3    H230864   5.171   5.430   1.672  1.4540 -0.2754 -0.3375
 3077TIP3   OH230865   3.184   4.046   2.498 -0.2235 -0.0732  0.1183
 3077TIP3    H130866   3.202   4.002   2.581  0.0876  1.9247  1.1545
 3077TIP3    H230867   3.097   4.015   2.473  0.0890 -1.4721  0.6411
 3078TIP3   OH230868   1.249   2.298   1.603 -0.1454  0.1595  0.0268
 3078TIP3    H130869   1.301   2.326   1.527 -1.2037  1.6219 -0.2162
 3078TIP3    H230870   1.184   2.239   1.566  1.4924 -1.9941  0.3908
 3079TIP3   OH230871   5.352   4.523   8.738  0.4249  0.7146 -0.0540
 3079TIP3    H130872   5.402   4.582   8.681 -0.3681  2.5156  1.0190
 3079TIP3    H230873   5.277   4.575   8.766 -1.7711 -1.6648 -1.0870
 3080TIP3   OH230874   0.514   3.772   0.487  0.1141  0.1138  0.2329
 3080TIP3    H130875   0.579   3.748   0.421 -0.6553 -0.3764 -0.3675
 3080TIP3    H230876   0.461   3.840   0.445 -1.4020 -1.3278 -0.3203
 3081TIP3   OH230877   1.139   5.308   2.350 -0.2099  0.2747 -0.1303
 3081TIP3    H130878   1.085   5.230   2.338 -1.3390  0.9480  0.4581
 3081TIP3    H230879   1.211   5.279   2.406  0.8892 -0.9887 -2.0904
 3082TIP3   OH230880   1.695   5.953   1.347 -0.2018 -0.5843 -0.4603
 3082TIP3    H130881   1.698   5.911   1.433 -2.1461  1.0011  0.4670
 3082TIP3    H230882   1.781   5.935   1.308  1.4379  0.1080  2.5221
 3083TIP3   OH230883   4.627   0.674   1.515 -0.0371  0.3210 -0.1941
 3083TIP3    H130884   4.638   0.629   1.599 -0.1397 -1.2584 -0.9789
 3083TIP3    H230885   4.543   0.719   1.522  0.4137  1.0264  0.8914
 3084TIP3   OH230886   3.845   6.101   1.595  0.3081 -0.2465 -0.2287
 3084TIP3    H130887   3.800   6.160   1.655  0.6894 -0.9034  0.7376
 3084TIP3    H230888   3.871   6.156   1.522 -1.9682  0.1741 -0.8067
 3085TIP3   OH230889   4.196   0.161   0.518 -0.1655  0.3925  0.3451
 3085TIP3    H130890   4.205   0.250   0.484 -1.0103  0.4650  0.2818
 3085TIP3    H230891   4.277   0.145   0.566  0.1411  1.0680  0.0651
 3086TIP3   OH230892   6.069   2.380   0.734 -0.3537  0.4482 -0.3778
 3086TIP3    H130893   6.013   2.415   0.665  0.2343  0.3970 -0.8844
 3086TIP3    H230894   6.141   2.443   0.741 -1.0451  1.1391  1.0738
 3087TIP3   OH230895   5.607   2.608   2.600  0.2361  0.2888 -0.4312
 3087TIP3    H130896   5.687   2.603   2.653 -0.5820 -0.4912  0.7696
 3087TIP3    H230897   5.613   2.694   2.557  3.3892 -1.0991 -3.1865
 3088TIP3   OH230898   4.411   0.961   1.806 -0.1505  0.0635 -0.0103
 3088TIP3    H130899   4.347   0.977   1.876 -1.5043 -2.9225 -0.4359
 3088TIP3    H230900   4.493   0.995   1.841 -0.9832 -0.4275  2.6342
 3089TIP3   OH230901   0.732   0.420   1.517 -0.6739  0.2160 -0.3286
 3089TIP3    H130902   0.775   0.408   1.432  2.0264  1.3473  0.7623
 3089TIP3    H230903   0.792   0.379   1.579 -3.1111 -1.5389  1.0002
 3090TIP3   OH230904   3.641   2.466   0.223 -0.1923 -0.7523 -0.2901
 3090TIP3    H130905   3.551   2.451   0.253 -0.2131 -1.8956 -0.8816
 3090TIP3    H230906   3.631   2.522   0.147 -0.3345 -0.1406  0.1714
 3091TIP3   OH230907   5.159   2.098   1.108  0.2261 -0.3304  0.2579
 3091TIP3    H130908   5.144   2.028   1.171 -3.5707  0.0895  0.0444
 3091TIP3    H230909   5.160   2.178   1.161 -0.1380 -0.1914  0.0568
 3092TIP3   OH230910   6.261   4.641   0.380  0.0515  0.0474  0.5461
 3092TIP3    H130911   6.318   4.680   0.313 -0.4529 -1.0973 -0.6106
 3092TIP3    H230912   6.224   4.564   0.337 -1.9793  0.4643  1.4224
 3093TIP3   OH230913   2.443   4.631   0.685 -0.3089  0.3783  0.8569
 3093TIP3    H130914   2.460   4.723   0.703 -2.3363  0.7290  1.2275
 3093TIP3    H230915   2.464   4.619   0.593 -0.7222  1.3988  0.6207
 3094TIP3   OH230916   0.814   0.011   0.101 -0.0689 -0.1810 -0.2760
 3094TIP3    H130917   0.789  -0.054   0.166  0.0166 -0.4618 -0.5253
 3094TIP3    H230918   0.883   0.062   0.144 -1.7907  1.3326  0.8565
 3095TIP3   OH230919   1.754   4.668   1.636 -0.1072  0.2414 -0.0778
 3095TIP3    H130920   1.732   4.761   1.638  2.6121  0.9805 -0.5464
 3095TIP3    H230921   1.695   4.631   1.570 -1.1849  1.6103  0.0623
 3096TIP3   OH230922   5.988   5.383   3.162  0.6806 -0.3365  0.2881
 3096TIP3    H130923   5.991   5.314   3.228 -1.8709  0.3616  1.2873
 3096TIP3    H230924   6.032   5.458   3.203  2.2785 -0.9455 -0.2725
 3097TIP3   OH230925   6.634   2.351   8.518  0.5801 -0.1296  0.3612
 3097TIP3    H130926   6.642   2.256   8.529  1.0848 -0.2371 -0.8205
 3097TIP3    H230927   6.550   2.363   8.472  0.9889 -0.0878 -0.3872
 3098TIP3   OH230928   5.848   5.668   3.093  0.3854  0.0802  0.4431
 3098TIP3    H130929   5.832   5.760   3.116  1.7182  0.1896  1.0048
 3098TIP3    H230930   5.939   5.665   3.066  0.2340 -1.0115 -0.0201
 3099TIP3   OH230931   0.387   2.753   0.468  0.3084 -0.4032  0.3105
 3099TIP3    H130932   0.442   2.711   0.402 -0.2908 -1.5066  0.4796
 3099TIP3    H230933   0.347   2.827   0.424  1.3453 -0.0257 -0.0232
 3100TIP3   OH230934   0.170   1.722   1.657  0.1072 -0.6435  0.0452
 3100TIP3    H130935   0.200   1.652   1.714 -1.0782  0.2273  1.8655
 3100TIP3    H230936   0.106   1.681   1.599 -0.1971 -1.1902  0.7509
 3101TIP3   OH230937   0.713   2.944   3.358  0.0393 -0.1268 -0.3218
 3101TIP3    H130938   0.683   3.015   3.301 -2.6318 -0.4922  0.5105
 3101TIP3    H230939   0.809   2.950   3.354 -0.0346  1.0610 -3.2800
 3102TIP3   OH230940   1.510   1.307   1.006 -0.2275 -0.4881  0.0119
 3102TIP3    H130941   1.513   1.403   0.998 -0.4904 -0.6255 -2.7419
 3102TIP3    H230942   1.585   1.276   0.956 -1.1949 -1.7454 -0.7361
 3103TIP3   OH230943   3.712   1.471   1.198  0.1964  0.2843  0.1338
 3103TIP3    H130944   3.672   1.558   1.190  1.7278  1.2491  1.9515
 3103TIP3    H230945   3.638   1.410   1.193 -1.2112  1.8275  0.9343
 3104TIP3   OH230946   4.973   4.843   1.476 -0.1628  0.2371  0.1083
 3104TIP3    H130947   4.914   4.910   1.512  0.4264  0.0636  1.4583
 3104TIP3    H230948   4.980   4.778   1.546  0.4753 -0.4772 -0.6080
 3105TIP3   OH230949   3.893   3.357   1.025 -0.8252  0.3122  0.1601
 3105TIP3    H130950   3.802   3.373   1.052 -0.4903 -1.0912  2.3634
 3105TIP3    H230951   3.932   3.444   1.019 -1.7901  0.8390  1.1928
 3106TIP3   OH230952   3.594   3.177   0.766 -0.7541 -0.2005 -0.3294
 3106TIP3    H130953   3.620   3.110   0.830  1.1646  0.9656  0.1938
 3106TIP3    H230954   3.626   3.145   0.682 -1.4778 -0.7716 -0.4016
 3107TIP3   OH230955   4.141   4.783   4.154 -0.2163 -0.0343  0.0892
 3107TIP3    H130956   4.224   4.736   4.143 -0.3004 -1.0437  2.8997
 3107TIP3    H230957   4.167   4.875   4.162  0.6968 -0.3739  1.2957
 3108TIP3   OH230958   3.026   2.913   3.002  0.3978  0.9414 -0.2436
 3108TIP3    H130959   3.050   2.840   2.946 -2.1862  0.5439 -0.9712
 3108TIP3    H230960   3.035   2.879   3.091  2.9661  1.0675 -0.3717
 3109TIP3   OH230961   1.651   3.101   8.108 -0.0232 -0.3435 -0.1697
 3109TIP3    H130962   1.650   3.140   8.196 -0.0816  0.5735 -0.5614
 3109TIP3    H230963   1.567   3.127   8.069  0.4173  0.1214 -0.8450
 3110TIP3   OH230964   4.846   0.201   0.408  0.6545  0.1696  0.1045
 3110TIP3    H130965   4.757   0.183   0.377  0.4550  1.1782  0.0485
 3110TIP3    H230966   4.898   0.206   0.328  1.1572 -2.2925  0.2244
 3111TIP3   OH230967   2.090   6.374   3.177  0.2138  0.5247  0.1888
 3111TIP3    H130968   2.083   6.306   3.110 -2.5845  0.7578  0.1300
 3111TIP3    H230969   2.158   6.433   3.145  1.4129 -1.2306 -0.6567
 3112TIP3   OH230970   2.114   5.237   8.649 -0.0635  0.4299 -0.0597
 3112TIP3    H130971   2.098   5.143   8.641 -0.0566  0.3780  0.5058
 3112TIP3    H230972   2.194   5.253   8.600  0.2105  0.0539  0.2610
 3113TIP3   OH230973   2.645   4.565   8.017 -0.2069 -0.3225 -0.0377
 3113TIP3    H130974   2.675   4.612   8.095  1.4794 -1.3392 -0.0359
 3113TIP3    H230975   2.620   4.633   7.956 -0.6439  0.5093  1.0340
 3114TIP3   OH230976   2.772   3.412   0.572 -0.1085 -0.9625 -0.7734
 3114TIP3    H130977   2.798   3.346   0.508  1.5202  0.9229 -2.2048
 3114TIP3    H230978   2.776   3.368   0.657 -0.3663 -2.9931 -1.7627
 3115TIP3   OH230979   2.661   6.004   3.598  0.1847  0.5011 -0.2370
 3115TIP3    H130980   2.586   6.016   3.540 -0.7105  0.4614  0.8801
 3115TIP3    H230981   2.639   5.926   3.649 -0.0864  1.7801  1.6949
 3116TIP3   OH230982   3.210   2.429   8.335  0.1634  0.5266  0.5522
 3116TIP3    H130983   3.292   2.438   8.383  0.9454 -1.8758 -0.2161
 3116TIP3    H230984   3.210   2.339   8.303 -1.7037  1.1541 -1.4513
 3117TIP3   OH230985   2.801   1.190   2.620 -1.0511 -0.4196  0.0206
 3117TIP3    H130986   2.895   1.181   2.635 -0.8520 -2.3973 -1.8884
 3117TIP3    H230987   2.761   1.177   2.706  0.3865 -0.2646  0.7293
 3118TIP3   OH230988   4.886   6.088   1.973 -0.2930  0.0104  0.0209
 3118TIP3    H130989   4.926   6.056   1.892 -1.2467  1.6665 -1.1914
 3118TIP3    H230990   4.959   6.105   2.031  0.6515  0.9965 -1.3735
 3119TIP3   OH230991   4.608   1.213   3.474  0.0670  0.1387  0.1536
 3119TIP3    H130992   4.667   1.211   3.398  0.1791  2.0686  0.1471
 3119TIP3    H230993   4.526   1.177   3.440  0.4752 -0.1655 -0.5483
 3120TIP3   OH230994   3.504   0.692   2.061  0.0468  0.0015 -0.6486
 3120TIP3    H130995   3.567   0.628   2.029 -1.3614 -0.6839 -2.2207
 3120TIP3    H230996   3.485   0.663   2.151  0.8890 -0.6211 -0.6573
 3121TIP3   OH230997   3.770   4.335   3.203  0.6423 -0.1819  0.8561
 3121TIP3    H130998   3.677   4.314   3.211  0.6858 -0.4180  0.7683
 3121TIP3    H230999   3.794   4.371   3.288  0.1163  1.3048  0.3953
 3122TIP3   OH231000   5.476   5.474   1.050  0.0486 -0.0906 -0.0655
 3122TIP3    H131001   5.513   5.389   1.074 -1.8647 -0.5536  1.5624
 3122TIP3    H231002   5.438   5.460   0.963 -0.1110 -0.8910  0.1185
 3123TIP3   OH231003   4.719   1.094   3.726  0.0105 -0.7202 -0.1541
 3123TIP3    H131004   4.711   1.173   3.779  0.0097 -1.7351  1.4431
 3123TIP3    H231005   4.779   1.118   3.656 -1.2927  1.1644 -0.7101
 3124TIP3   OH231006   1.921   1.814   8.176  0.4395 -0.2174 -0.3803
 3124TIP3    H131007   1.832   1.848   8.166  0.1559 -1.0497 -0.7320
 3124TIP3    H231008   1.962   1.873   8.239  0.0298  0.9028 -1.1344
 3125TIP3   OH231009   4.238   6.582   2.032  0.5655 -0.1383  0.1893
 3125TIP3    H131010   4.276   6.522   1.967  1.5885  0.0409  0.5999
 3125TIP3    H231011   4.288   6.662   2.022 -0.2964  0.4091  0.1686
 3126TIP3   OH231012   2.877   5.944   8.509  0.4739 -0.3412  0.8855
 3126TIP3    H131013   2.822   5.986   8.576 -0.3280  0.2282 -0.1138
 3126TIP3    H231014   2.940   6.012   8.484  0.5527 -0.4410  0.8141
 3127TIP3   OH231015   1.680   3.921   1.828 -0.7420  0.4337  0.4004
 3127TIP3    H131016   1.625   3.942   1.904 -1.4801  0.0841 -0.0241
 3127TIP3    H231017   1.692   3.826   1.832 -0.2870  0.4902  0.4083
 3128TIP3   OH231018   2.238   3.179   2.511 -0.1162  0.7046 -0.0319
 3128TIP3    H131019   2.258   3.112   2.576 -0.8901  1.2750  0.8401
 3128TIP3    H231020   2.323   3.214   2.484  0.2057  1.6390  1.9819
 3129TIP3   OH231021   3.682   5.680   1.883  0.5360  1.1350  0.6575
 3129TIP3    H131022   3.768   5.665   1.844  0.2737 -0.8319  0.7505
 3129TIP3    H231023   3.625   5.618   1.838 -0.6790  1.8626  1.1602
 3130TIP3   OH231024   5.273   4.618   2.902 -0.3869  0.4608  0.0003
 3130TIP3    H131025   5.288   4.524   2.890 -0.4172  0.4012  0.4069
 3130TIP3    H231026   5.353   4.659   2.869 -0.3918  0.2945 -0.2219
 3131TIP3   OH231027   4.293   5.502   1.032 -0.0692 -0.2790 -0.2404
 3131TIP3    H131028   4.268   5.586   1.070  0.5411 -0.7255  1.2260
 3131TIP3    H231029   4.248   5.437   1.086  1.5039 -0.9688  0.2860
 3132TIP3   OH231030   3.078   1.832   8.260 -0.1290 -0.3210  0.4826
 3132TIP3    H131031   3.123   1.850   8.343 -0.9468 -1.7461  1.2771
 3132TIP3    H231032   3.138   1.776   8.211  0.3061  0.4278  0.1476
 3133TIP3   OH231033   1.537   1.414   3.113 -0.5439  0.3244 -0.3182
 3133TIP3    H131034   1.570   1.348   3.174 -0.0920  1.2964  0.5172
 3133TIP3    H231035   1.591   1.404   3.035  0.1892  0.3753  0.1792
 3134TIP3   OH231036   0.472   5.874   0.788  0.4043  0.5618 -0.4770
 3134TIP3    H131037   0.495   5.933   0.859 -0.0096  0.6175 -0.3868
 3134TIP3    H231038   0.376   5.868   0.791  0.2940  1.3398 -1.6421
 3135TIP3   OH231039   0.047   6.019   8.524 -0.2696  0.0417  0.5365
 3135TIP3    H131040   0.015   5.986   8.440 -0.4930 -2.0615  1.3722
 3135TIP3    H231041   0.091   6.101   8.503  0.3121 -0.7815 -1.7428
 3136TIP3   OH231042   2.335   5.178   0.297 -0.0930  0.2254  0.1104
 3136TIP3    H131043   2.247   5.144   0.280 -0.7061  1.4635  0.7208
 3136TIP3    H231044   2.383   5.162   0.216 -0.7468 -0.8546 -0.0799
 3137TIP3   OH231045   3.982   0.088   0.367  0.4672 -0.3710 -0.2445
 3137TIP3    H131046   3.956  -0.004   0.362  2.3245 -0.9983  0.8727
 3137TIP3    H231047   4.069   0.087   0.407  0.4423  1.8933  0.0136
 3138TIP3   OH231048   3.149   1.092   1.254  0.1423 -0.7189  0.0509
 3138TIP3    H131049   3.186   1.036   1.323  0.2665  0.3366  0.8734
 3138TIP3    H231050   3.056   1.095   1.274  0.4522  1.3221  1.5398
 3139TIP3   OH231051   0.012   0.580   3.129 -0.2941 -0.5315 -0.3624
 3139TIP3    H131052   0.071   0.541   3.065  0.8013  0.2722  0.1422
 3139TIP3    H231053   0.062   0.580   3.211  0.1752  2.8145 -0.5265
 3140TIP3   OH231054   1.533   2.807   3.387 -0.2387  0.2500  0.0490
 3140TIP3    H131055   1.582   2.742   3.335 -1.3177 -2.0504  1.7257
 3140TIP3    H231056   1.443   2.801   3.355 -0.5612  0.0837  0.9481
 3141TIP3   OH231057   2.678   0.940   0.114  0.4220 -0.5574 -0.0150
 3141TIP3    H131058   2.645   0.852   0.098  1.5931 -1.0790  0.3435
 3141TIP3    H231059   2.663   0.954   0.208  0.9805 -0.6983  0.0968
 3142TIP3   OH231060   3.495   4.271   0.363  0.1210 -0.0257  0.1319
 3142TIP3    H131061   3.475   4.187   0.405  0.3946  0.7818  1.9756
 3142TIP3    H231062   3.502   4.333   0.436  0.7592  1.4367 -1.1244
 3143TIP3   OH231063   2.786   1.630   1.633 -0.4152  0.0434  0.2367
 3143TIP3    H131064   2.870   1.659   1.598  0.1735 -0.3642  1.2566
 3143TIP3    H231065   2.779   1.676   1.717 -1.4455  0.4438 -0.0476
 3144TIP3   OH231066   6.369   2.306   0.592 -0.6559 -0.0896 -0.1692
 3144TIP3    H131067   6.372   2.396   0.560  0.9590  1.1489  3.0119
 3144TIP3    H231068   6.450   2.267   0.560  0.8693  1.0887  1.9816
 3145TIP3   OH231069   6.653   1.337   2.227 -0.0007  0.0436 -0.0734
 3145TIP3    H131070   6.600   1.272   2.180 -0.7249  1.2483 -0.9862
 3145TIP3    H231071   6.592   1.379   2.288  0.3594  0.1660  0.2083
 3146TIP3   OH231072   2.028   0.689   0.105 -0.5338 -0.2841 -0.3503
 3146TIP3    H131073   1.978   0.636   0.042 -1.9089  1.9010 -1.2005
 3146TIP3    H231074   2.043   0.772   0.060 -0.2201  0.8072  1.6675
 3147TIP3   OH231075   4.998   1.369   3.399 -0.5027  0.2093  0.3201
 3147TIP3    H131076   5.082   1.333   3.371 -0.7184 -0.6049  0.6940
 3147TIP3    H231077   4.977   1.434   3.332  0.1769  0.0638 -0.0508
 3148TIP3   OH231078   6.728   5.100   0.974  0.6663 -0.4673 -0.4847
 3148TIP3    H131079   6.732   5.023   0.918  3.4401  0.4598 -1.7107
 3148TIP3    H231080   6.743   5.066   1.062  2.2073 -1.3254 -1.0491
 3149TIP3   OH231081   2.551   1.505   2.991 -0.3047  0.5956  0.0988
 3149TIP3    H131082   2.472   1.536   3.034 -0.2151  0.0130  0.7026
 3149TIP3    H231083   2.616   1.501   3.061 -0.2227 -0.6100 -0.0194
 3150TIP3   OH231084   5.903   2.745   1.861  0.4918  0.0946  0.5658
 3150TIP3    H131085   5.840   2.717   1.795  0.1531  0.3765  0.7679
 3150TIP3    H231086   5.923   2.665   1.910 -0.1846  0.1213  0.8977
 3151TIP3   OH231087   2.228   3.578   2.020  0.0366  0.3071 -0.1065
 3151TIP3    H131088   2.225   3.647   2.086  0.5654  0.4721 -0.2490
 3151TIP3    H231089   2.316   3.586   1.981  0.3031 -0.7864  0.2486
 3152TIP3   OH231090   4.740   3.819   1.264 -0.1126 -0.1650  0.0470
 3152TIP3    H131091   4.801   3.793   1.195  0.3222 -1.4468  0.8866
 3152TIP3    H231092   4.684   3.743   1.277  0.6894 -0.4849  2.0195
 3153TIP3   OH231093   2.141   3.418   3.708  0.3417 -0.0667 -0.2490
 3153TIP3    H131094   2.217   3.477   3.705  0.2632  0.0440 -0.0925
 3153TIP3    H231095   2.101   3.435   3.793  0.2097 -0.2111 -0.2818
 3154TIP3   OH231096   4.035   4.185   3.406 -0.1089 -0.8434  0.3383
 3154TIP3    H131097   3.992   4.265   3.437  1.2131 -0.0510  0.1967
 3154TIP3    H231098   4.038   4.129   3.483  1.8170  0.5228  1.3380
 3155TIP3   OH231099   2.890   2.853   3.805 -0.0062  0.3845 -0.4508
 3155TIP3    H131100   2.984   2.843   3.817 -0.0927 -1.2988 -0.9248
 3155TIP3    H231101   2.853   2.770   3.834 -1.3846  1.1193 -0.0286
 3156TIP3   OH231102   0.894   5.379   0.954 -0.3854 -0.6276 -0.0131
 3156TIP3    H131103   0.817   5.337   0.916 -0.2935 -0.1648 -0.7299
 3156TIP3    H231104   0.968   5.337   0.911 -0.1836 -1.5786  1.1916
 3157TIP3   OH231105   3.646   5.601   8.464 -0.2115  0.0896 -0.3178
 3157TIP3    H131106   3.684   5.678   8.423 -0.2198  0.1048 -0.2965
 3157TIP3    H231107   3.553   5.606   8.443 -0.3905  0.6289  0.5393
 3158TIP3   OH231108   1.902   3.455   0.894  0.5286 -0.1813  0.1990
 3158TIP3    H131109   1.846   3.407   0.832 -1.1107  3.2837 -1.2280
 3158TIP3    H231110   1.883   3.415   0.979 -0.2746 -2.3880 -0.9394
 3159TIP3   OH231111   2.779   2.962   0.763 -0.0635  0.2069 -0.7807
 3159TIP3    H131112   2.857   2.972   0.818  1.0305 -1.8098 -1.8301
 3159TIP3    H231113   2.710   2.935   0.825  1.5968 -4.0035 -0.3757
 3160TIP3   OH231114   6.024   6.632   7.915  0.1434 -0.5221  0.4413
 3160TIP3    H131115   6.071   6.671   7.988  2.4343 -1.6647 -0.3377
 3160TIP3    H231116   6.032   6.697   7.845  0.6162 -0.7152  0.3093
 3161TIP3   OH231117   1.459   2.054   1.503  0.0517 -0.4611 -0.5889
 3161TIP3    H131118   1.419   2.127   1.456  0.4109  0.3707  0.3814
 3161TIP3    H231119   1.441   2.071   1.595 -1.2316 -2.4260 -0.3966
 3162TIP3   OH231120   6.152   1.437   2.914 -0.7989 -0.0458 -0.1193
 3162TIP3    H131121   6.204   1.408   2.840  0.5976  0.1819  0.7328
 3162TIP3    H231122   6.121   1.355   2.955 -0.3574 -0.2174 -0.1225
 3163TIP3   OH231123   4.905   3.576   1.437 -0.0965 -0.2557  0.0426
 3163TIP3    H131124   4.827   3.627   1.459 -0.1071 -0.0153 -0.5433
 3163TIP3    H231125   4.933   3.538   1.521 -0.2672  0.4516  0.4244
 3164TIP3   OH231126   2.257   5.047   8.355 -0.1751  0.3147 -0.8397
 3164TIP3    H131127   2.187   5.108   8.332  1.3172  2.4987  0.0324
 3164TIP3    H231128   2.335   5.081   8.310  0.8150 -0.6666  0.0664
 3165TIP3   OH231129   5.712   5.917   1.107 -0.4471  0.3208 -0.4134
 3165TIP3    H131130   5.658   5.889   1.033 -1.4297  1.0542  0.0207
 3165TIP3    H231131   5.650   5.941   1.175  0.4540 -0.5322  0.7428
 3166TIP3   OH231132   1.624   5.027   7.956 -0.4566  0.2317  0.1822
 3166TIP3    H131133   1.591   4.948   7.914 -1.1847  1.2254 -1.2096
 3166TIP3    H231134   1.550   5.088   7.954  0.2605  1.1498  0.6995
 3167TIP3   OH231135   2.491   5.474   2.685  0.0286  0.0249 -0.4836
 3167TIP3    H131136   2.397   5.455   2.694 -0.1159  1.2918  1.0349
 3167TIP3    H231137   2.495   5.543   2.619 -0.0278 -0.5027 -1.0504
 3168TIP3   OH231138   5.570   6.039   2.973  0.1844 -0.0185 -0.0581
 3168TIP3    H131139   5.630   6.055   2.900  0.2947 -1.1865 -0.2379
 3168TIP3    H231140   5.540   5.949   2.960 -1.2630  0.3923  0.2872
 3169TIP3   OH231141   2.095   4.250   2.011  0.6319 -0.5572 -0.8838
 3169TIP3    H131142   2.002   4.237   1.990  0.2789 -0.4292  0.4851
 3169TIP3    H231143   2.116   4.336   1.974 -0.3756  0.3486  0.5603
 3170TIP3   OH231144   2.176   3.537   0.985 -0.1286  0.3414  0.4795
 3170TIP3    H131145   2.189   3.446   1.012  0.1449 -0.3545 -1.7736
 3170TIP3    H231146   2.094   3.537   0.936  1.6751  0.3882 -2.8511
 3171TIP3   OH231147   1.017   3.463   8.757  0.0784 -0.0691  0.7200
 3171TIP3    H131148   0.977   3.546   8.731  1.6491  0.6801  0.5728
 3171TIP3    H231149   1.110   3.483   8.765  0.4842 -1.8123  0.7392
 3172TIP3   OH231150   5.355   6.049   3.185  0.9523 -0.6343  0.4668
 3172TIP3    H131151   5.419   6.022   3.120  0.6649 -1.9978  0.7305
 3172TIP3    H231152   5.270   6.031   3.146  0.6945  0.9602  0.2089
 3173TIP3   OH231153   5.842   2.789   1.195 -0.2698  0.3330 -0.0673
 3173TIP3    H131154   5.817   2.879   1.175 -0.8775  1.0706  3.3872
 3173TIP3    H231155   5.818   2.777   1.286  0.4803 -3.1409 -0.1845
 3174TIP3   OH231156   0.314   2.954   1.710  0.0356  0.0591  0.4081
 3174TIP3    H131157   0.291   2.957   1.617  1.0622  1.9006  0.1636
 3174TIP3    H231158   0.409   2.967   1.712  0.1553 -0.8154  1.7004
 3175TIP3   OH231159   0.279   3.307   4.245  0.1570  0.4240 -0.0880
 3175TIP3    H131160   0.336   3.300   4.322  0.8765  0.5809 -0.5859
 3175TIP3    H231161   0.233   3.391   4.256 -1.1153 -0.3944  1.0537
 3176TIP3   OH231162   2.713   5.841   3.346 -0.8363  0.0012  0.0598
 3176TIP3    H131163   2.634   5.855   3.399 -0.6653 -1.3082  0.7018
 3176TIP3    H231164   2.757   5.767   3.388  0.4861  0.4013 -0.5856
 3177TIP3   OH231165   2.788   4.789   0.121 -0.8058 -0.1027  0.4345
 3177TIP3    H131166   2.882   4.804   0.113  0.1558 -4.5683  0.2859
 3177TIP3    H231167   2.755   4.794   0.031 -0.3303 -0.2697  0.2466
 3178TIP3   OH231168   3.028   5.784   8.782  0.0878  0.1531  0.1715
 3178TIP3    H131169   2.949   5.822   8.820 -0.3604 -0.0558 -0.5293
 3178TIP3    H231170   3.098   5.847   8.802  0.1195 -0.4854  2.3379
 3179TIP3   OH231171   1.365   1.905   2.861 -0.2041  0.3262  0.2484
 3179TIP3    H131172   1.357   1.844   2.934  0.9633 -3.2458 -2.2768
 3179TIP3    H231173   1.280   1.901   2.817 -0.1411  0.5573  0.1062
 3180TIP3   OH231174   5.330   2.041   2.889 -0.0690 -0.2836  0.8168
 3180TIP3    H131175   5.406   2.026   2.834  0.0442 -0.6890  1.0735
 3180TIP3    H231176   5.258   2.054   2.827  0.4541  1.6139  0.5548
 3181TIP3   OH231177   4.998   1.915   0.890  0.3880  0.7522 -0.3843
 3181TIP3    H131178   4.984   1.889   0.981  0.4883 -0.7946 -0.7694
 3181TIP3    H231179   5.047   1.842   0.852 -0.9565  0.6487 -2.0496
 3182TIP3   OH231180   3.178   3.389   3.817 -0.2123  0.1409 -0.5936
 3182TIP3    H131181   3.185   3.351   3.729 -0.4293 -1.4635  0.0474
 3182TIP3    H231182   3.091   3.363   3.847  0.0167  0.3297  0.2488
 3183TIP3   OH231183   1.507   6.278   8.080 -0.5385 -0.2905  0.5771
 3183TIP3    H131184   1.475   6.359   8.041 -0.4856 -0.7139 -0.3715
 3183TIP3    H231185   1.600   6.276   8.060 -0.8961 -1.5238 -1.1596
 3184TIP3   OH231186   5.633   3.038   2.989 -0.6419  0.0855 -0.1724
 3184TIP3    H131187   5.575   3.114   2.998  0.1045  0.8974 -1.7544
 3184TIP3    H231188   5.715   3.074   2.957  0.2479 -1.2270  0.5638
 3185TIP3   OH231189   6.727   3.880   3.318 -0.0725  0.6517  0.3025
 3185TIP3    H131190   6.653   3.923   3.276 -0.3456  0.8949  1.0196
 3185TIP3    H231191   6.788   3.952   3.337  0.8507  0.3287 -1.2525
 3186TIP3   OH231192   1.958   5.614   8.784  0.1546 -0.0465 -0.1301
 3186TIP3    H131193   1.992   5.616   8.695  0.3956 -0.1113 -0.0387
 3186TIP3    H231194   1.869   5.580   8.774 -0.4260  1.5012 -0.5484
 3187TIP3   OH231195   0.461   1.589   2.785 -0.2917 -0.5459 -0.1279
 3187TIP3    H131196   0.434   1.498   2.778 -0.4879 -0.4605 -0.5461
 3187TIP3    H231197   0.551   1.590   2.753 -0.3398 -0.5709 -0.2652
 3188TIP3   OH231198   2.417   2.433   1.340  0.0271 -0.1952  0.0461
 3188TIP3    H131199   2.370   2.418   1.258 -0.4877 -0.3802  0.3735
 3188TIP3    H231200   2.372   2.379   1.404 -1.1707  1.8562  1.0172
 3189TIP3   OH231201   2.110   0.777   1.226  0.2972  0.5010 -0.0072
 3189TIP3    H131202   2.197   0.792   1.187  1.1236 -1.0795  1.1336
 3189TIP3    H231203   2.116   0.814   1.314 -0.3197  0.7111 -0.0473
 3190TIP3   OH231204   4.495   0.699   2.597 -0.2884  0.0141 -0.5146
 3190TIP3    H131205   4.520   0.609   2.617  1.2294  0.0000 -2.2357
 3190TIP3    H231206   4.433   0.691   2.524 -0.9464  0.3416 -0.0069
 3191TIP3   OH231207   0.899   1.579   1.065  0.0754  0.3398 -0.6427
 3191TIP3    H131208   0.825   1.520   1.077 -1.1840  1.6461 -1.7075
 3191TIP3    H231209   0.972   1.535   1.110 -1.2048 -1.1957  0.0298
 3192TIP3   OH231210   2.667   0.555   0.297  0.1654 -0.3596  0.2009
 3192TIP3    H131211   2.732   0.487   0.277  1.2121  0.5363  0.4465
 3192TIP3    H231212   2.694   0.589   0.383  2.2904  3.2124 -1.6101
 3193TIP3   OH231213   1.460   5.252   8.048 -0.2491 -0.2008  0.3319
 3193TIP3    H131214   1.367   5.236   8.065 -0.4158  1.8323  1.7124
 3193TIP3    H231215   1.467   5.347   8.041  1.8084 -0.2834  0.7065
 3194TIP3   OH231216   2.871   1.932   2.613  0.1661  0.0965  0.1442
 3194TIP3    H131217   2.866   1.881   2.694 -0.1913  0.2506  0.2207
 3194TIP3    H231218   2.795   1.989   2.616  2.2358  3.0116  1.6275
 3195TIP3   OH231219   6.420   1.782   1.351 -0.3021  0.0087 -0.7870
 3195TIP3    H131220   6.383   1.705   1.307 -0.7706 -0.6895  0.7791
 3195TIP3    H231221   6.356   1.851   1.334 -1.1791 -0.6051 -0.0509
 3196TIP3   OH231222   3.552   5.297   3.755 -0.5837 -0.0070 -0.7070
 3196TIP3    H131223   3.643   5.312   3.731  0.4302 -1.4458  1.8301
 3196TIP3    H231224   3.535   5.207   3.729 -0.4184 -0.5797  1.0335
 3197TIP3   OH231225   6.675   1.946   2.182 -0.4947 -0.0203 -0.5597
 3197TIP3    H131226   6.751   1.992   2.147  0.7340 -1.4313  0.1281
 3197TIP3    H231227   6.600   1.984   2.136  0.4246  2.5955 -0.0740
 3198TIP3   OH231228   6.075   6.621   0.425 -0.4702  0.1379 -0.2499
 3198TIP3    H131229   6.071   6.659   0.514 -0.3362 -0.8368  0.1794
 3198TIP3    H231230   6.134   6.547   0.433 -0.3882  0.0951 -1.1899
 3199TIP3   OH231231   5.593   0.199   1.971 -0.2746 -0.0344  0.9767
 3199TIP3    H131232   5.641   0.228   2.048 -0.1640  0.3922  0.7481
 3199TIP3    H231233   5.543   0.123   2.001  0.0418 -0.0861  1.3776
 3200TIP3   OH231234   4.433   3.433   1.947 -0.3402 -0.0193 -0.6433
 3200TIP3    H131235   4.463   3.407   1.859  0.0947 -0.9249 -0.2438
 3200TIP3    H231236   4.465   3.523   1.958 -1.3675  0.5226 -1.8405
 3201TIP3   OH231237   5.832   1.507   0.732  0.6720  0.2577 -0.5627
 3201TIP3    H131238   5.926   1.499   0.718  0.6283  0.8576 -1.2477
 3201TIP3    H231239   5.818   1.600   0.749  0.3002  0.0519  0.3169
 3202TIP3   OH231240   0.294   6.756   0.593  0.1914  0.0226 -0.8020
 3202TIP3    H131241   0.323   6.824   0.533  0.2510  0.4389 -0.3104
 3202TIP3    H231242   0.302   6.795   0.680  0.2442 -0.6166 -0.5086
 3203TIP3   OH231243   2.441   4.618   8.725  0.0117  0.3949  0.4926
 3203TIP3    H131244   2.467   4.535   8.764 -0.2045 -0.2315 -0.6731
 3203TIP3    H231245   2.518   4.647   8.676 -0.5404 -0.0851 -0.6804
 3204TIP3   OH231246   3.561   2.404   0.567 -0.1975 -0.3702  0.5111
 3204TIP3    H131247   3.594   2.486   0.604 -1.1199  0.2006  0.1299
 3204TIP3    H231248   3.635   2.366   0.520  0.0337  0.6698  0.0055
 3205TIP3   OH231249   2.441   2.263   2.811  0.2087  0.4055  0.0971
 3205TIP3    H131250   2.447   2.350   2.850  1.2524  0.1566  0.5349
 3205TIP3    H231251   2.511   2.213   2.853  0.6497 -0.2031 -1.2902
 3206TIP3   OH231252   1.105   3.731   1.687  0.1477 -0.1844  0.0266
 3206TIP3    H131253   1.144   3.787   1.754  2.3161 -2.2381  0.6236
 3206TIP3    H231254   1.180   3.700   1.636 -0.9378 -2.4776 -0.2854
 3207TIP3   OH231255   4.230   2.113   2.652  0.0924 -0.3660 -0.0250
 3207TIP3    H131256   4.303   2.054   2.670 -0.5432 -1.1045  0.2036
 3207TIP3    H231257   4.243   2.186   2.713  1.1396 -0.0209 -0.6296
 3208TIP3   OH231258   1.408   5.626   0.850  0.3550 -0.0309 -0.2413
 3208TIP3    H131259   1.485   5.574   0.873 -1.1202 -1.5483  1.5698
 3208TIP3    H231260   1.334   5.575   0.881 -1.4262  1.3423 -2.0102
 3209TIP3   OH231261   4.020   0.327   0.259  0.4704 -0.3289 -0.4579
 3209TIP3    H131262   4.039   0.236   0.283 -0.2759 -0.4303 -0.2360
 3209TIP3    H231263   4.095   0.353   0.205  0.7048 -1.0654 -0.5021
 3210TIP3   OH231264   1.904   2.134   0.169 -0.4730 -0.2319 -0.1513
 3210TIP3    H131265   1.866   2.093   0.091  0.4638 -1.8588  0.1860
 3210TIP3    H231266   1.836   2.193   0.201 -1.5722 -0.9039 -1.1695
 3211TIP3   OH231267   1.444   0.957   1.809 -0.0069 -0.5856 -0.2508
 3211TIP3    H131268   1.429   0.909   1.890  0.8743 -2.4577 -1.1382
 3211TIP3    H231269   1.502   1.029   1.834  0.3247 -1.1819  0.7623
 3212TIP3   OH231270   4.559   0.234   3.250 -0.2555 -0.0637 -0.4347
 3212TIP3    H131271   4.644   0.270   3.276 -0.2621 -0.8567  0.7329
 3212TIP3    H231272   4.506   0.236   3.330 -0.5906 -1.6563 -0.5760
 3213TIP3   OH231273   6.574   6.118   0.994  0.3319 -0.4661  0.4365
 3213TIP3    H131274   6.652   6.068   1.015  3.4163  4.2463  1.7905
 3213TIP3    H231275   6.504   6.077   1.045  2.3151 -3.6162  0.8732
 3214TIP3   OH231276   5.433   6.344   1.629 -0.0418 -0.4430 -0.1637
 3214TIP3    H131277   5.466   6.386   1.708 -1.5471 -1.1460  0.8980
 3214TIP3    H231278   5.477   6.389   1.557  2.3840 -0.6764  1.0785
 3215TIP3   OH231279   4.138   3.762   8.203 -0.7751  0.6670  0.7150
 3215TIP3    H131280   4.054   3.718   8.214 -0.7114  0.0305 -1.0898
 3215TIP3    H231281   4.201   3.701   8.241 -0.7552 -0.6357 -1.2515
 3216TIP3   OH231282   0.068   6.287   2.498  0.0830  0.0442 -0.6134
 3216TIP3    H131283   0.012   6.240   2.436 -1.4349  0.6042  0.2853
 3216TIP3    H231284   0.121   6.219   2.539  0.0792 -0.5003 -1.4892
 3217TIP3   OH231285   4.494   3.988   8.517  0.2557 -0.1956  0.5978
 3217TIP3    H131286   4.438   3.993   8.440 -1.4633 -1.5270  1.6756
 3217TIP3    H231287   4.537   3.903   8.509 -1.2135 -1.1082  1.8706
 3218TIP3   OH231288   4.312   0.098   1.794 -0.1193 -0.1759  0.1979
 3218TIP3    H131289   4.330   0.053   1.877 -1.2131 -0.3011  0.3908
 3218TIP3    H231290   4.373   0.172   1.793 -0.6665  0.3316  1.5317
 3219TIP3   OH231291   5.242   2.563   3.051 -0.2516 -0.1835 -0.8205
 3219TIP3    H131292   5.278   2.627   3.112  0.8226 -0.8872 -0.6812
 3219TIP3    H231293   5.158   2.537   3.089 -0.4469  0.7442 -0.6115
 3220TIP3   OH231294   2.708   6.132   0.230  0.0112 -0.0743  0.9139
 3220TIP3    H131295   2.644   6.203   0.222  0.6450  0.5737  1.5088
 3220TIP3    H231296   2.788   6.175   0.259  0.3517 -1.0648  1.4863
 3221TIP3   OH231297   3.662   5.479   0.604  0.3402 -0.3571 -0.1358
 3221TIP3    H131298   3.583   5.451   0.649  1.2059 -0.1051  1.6532
 3221TIP3    H231299   3.635   5.493   0.513 -0.9755 -3.2191 -0.2983
 3222TIP3   OH231300   4.722   2.467   0.079 -0.1569  0.4361 -0.1437
 3222TIP3    H131301   4.741   2.381   0.116  0.5662  0.0336 -1.3632
 3222TIP3    H231302   4.754   2.462  -0.011 -1.6579  1.4197 -0.7847
 3223TIP3   OH231303   2.216   2.518   2.577 -0.3411  0.2381  0.1619
 3223TIP3    H131304   2.273   2.440   2.574 -0.5107  0.0870  0.7277
 3223TIP3    H231305   2.240   2.561   2.659 -0.2665  0.7752 -0.1413
 3224TIP3   OH231306   4.122   3.043   0.565  0.3472  0.6565 -0.6049
 3224TIP3    H131307   4.119   3.117   0.625  0.0351  0.5065 -0.4325
 3224TIP3    H231308   4.030   3.020   0.551  0.4618 -0.5389  0.3822
 3225TIP3   OH231309   3.976   3.984   4.114 -0.9063 -0.4184 -0.3310
 3225TIP3    H131310   4.071   3.992   4.122 -1.1212  2.0299  0.6765
 3225TIP3    H231311   3.959   3.993   4.020 -0.2439  1.6980 -0.3074
 3226TIP3   OH231312   1.883   3.985   3.192  0.3086  0.5451  0.2248
 3226TIP3    H131313   1.858   3.926   3.121  2.0401  0.6097 -0.5073
 3226TIP3    H231314   1.935   3.931   3.251  0.6854  0.9853  0.3029
 3227TIP3   OH231315   1.923   3.794   1.129  0.4781 -0.3356  0.4919
 3227TIP3    H131316   1.936   3.769   1.037  1.1382 -2.2750  1.0692
 3227TIP3    H231317   1.836   3.760   1.151  1.0204 -1.3988  1.0455
 3228TIP3   OH231318   4.438   4.655   2.491  0.3892  0.5045  0.0752
 3228TIP3    H131319   4.375   4.721   2.518  0.4229  0.7366 -0.4077
 3228TIP3    H231320   4.506   4.657   2.559  0.5109  1.1338 -0.0545
 3229TIP3   OH231321   4.058   1.591   2.003  0.4670 -0.0512  0.6198
 3229TIP3    H131322   4.135   1.556   1.957 -0.0510 -1.0978  0.5061
 3229TIP3    H231323   3.987   1.583   1.940  0.3182  1.2537  0.5961
 3230TIP3   OH231324   0.211   0.091   1.131  0.1107 -0.7299 -0.6062
 3230TIP3    H131325   0.288   0.039   1.154  2.2824  1.9344 -1.3378
 3230TIP3    H231326   0.176   0.049   1.052  0.1896 -2.4893  0.2320
 3231TIP3   OH231327   2.798   5.761   2.653 -0.3816 -0.1764 -0.3148
 3231TIP3    H131328   2.790   5.672   2.689 -0.6217 -0.9095 -2.0614
 3231TIP3    H231329   2.891   5.769   2.631 -0.2971  0.1459  0.1408
 3232TIP3   OH231330   5.474   2.343   0.040 -0.0342 -0.1233 -0.7180
 3232TIP3    H131331   5.555   2.295   0.025  0.5275  0.3611  0.6447
 3232TIP3    H231332   5.503   2.433   0.058 -0.8671  0.0300 -0.1264
 3233TIP3   OH231333   0.565   5.201   2.778  0.7280  0.1916  0.3783
 3233TIP3    H131334   0.611   5.261   2.836  1.6327  1.0623 -1.1887
 3233TIP3    H231335   0.634   5.150   2.735  0.1380  0.1121 -0.5177
 3234TIP3   OH231336   2.088   1.506   1.614 -0.3749 -0.1456 -0.2334
 3234TIP3    H131337   2.026   1.474   1.548 -1.8987  0.9681  0.5680
 3234TIP3    H231338   2.058   1.467   1.696  0.9860 -0.8434 -0.0378
 3235TIP3   OH231339   6.285   2.093   8.229 -0.0011  0.3613  0.2442
 3235TIP3    H131340   6.201   2.047   8.233  0.4536 -0.4464  1.2233
 3235TIP3    H231341   6.336   2.045   8.163  1.3770 -2.2992  2.9579
 3236TIP3   OH231342   2.974   4.781   1.841  0.3289  0.3193 -0.3546
 3236TIP3    H131343   3.061   4.817   1.822  0.1353  1.8098  1.3170
 3236TIP3    H231344   2.988   4.720   1.913 -0.0339  0.7620  0.0970
 3237TIP3   OH231345   4.484   3.908   0.897  0.5026  0.0541  0.1426
 3237TIP3    H131346   4.573   3.941   0.904  0.7802 -0.7231  0.3957
 3237TIP3    H231347   4.431   3.985   0.876  1.2178  0.5345  0.0765
 3238TIP3   OH231348   4.359   0.778   1.307 -0.2050 -0.5567 -0.1399
 3238TIP3    H131349   4.367   0.789   1.402 -1.8015 -1.5476  0.1287
 3238TIP3    H231350   4.324   0.690   1.295  2.3450 -1.4589 -1.7970
 3239TIP3   OH231351   3.469   1.738   2.237 -0.3094 -0.8619  0.3088
 3239TIP3    H131352   3.397   1.800   2.227 -1.3910 -2.2104 -0.5678
 3239TIP3    H231353   3.481   1.699   2.150  1.6706 -0.5033  0.3600
 3240TIP3   OH231354   1.483   5.582   2.015  0.5462  0.0095  0.3658
 3240TIP3    H131355   1.400   5.579   1.968  1.4849 -2.2592 -1.3211
 3240TIP3    H231356   1.546   5.614   1.951  1.5770 -1.6562  0.4899
 3241TIP3   OH231357   1.968   1.036   2.078 -0.1116  0.3346  0.7431
 3241TIP3    H131358   1.925   1.093   2.015 -0.2903  0.9298  1.3910
 3241TIP3    H231359   1.896   0.994   2.126  0.0131  0.8445  1.3943
 3242TIP3   OH231360   2.552   1.744   0.410 -0.1601 -0.4137 -0.5088
 3242TIP3    H131361   2.534   1.714   0.320 -0.2109  0.2011 -0.7055
 3242TIP3    H231362   2.482   1.705   0.463 -0.5185 -0.2269 -0.8407
 3243TIP3   OH231363   1.219   4.590   0.457 -0.3634 -0.2841 -0.8154
 3243TIP3    H131364   1.284   4.575   0.526 -1.5721 -1.2812  0.1375
 3243TIP3    H231365   1.246   4.673   0.417  0.9736 -0.2262  0.1459
 3244TIP3   OH231366   1.840   5.951   3.913 -0.3438  0.0910  0.6368
 3244TIP3    H131367   1.837   5.975   4.005 -0.7523 -1.6866  1.1331
 3244TIP3    H231368   1.914   5.889   3.907  0.4339  1.0783 -0.4802
 3245TIP3   OH231369   6.094   0.476   3.501 -0.3515 -0.6500  0.8705
 3245TIP3    H131370   6.178   0.458   3.544  0.2360 -0.4953 -0.1954
 3245TIP3    H231371   6.099   0.568   3.476  0.0314 -1.1491 -1.0400
 3246TIP3   OH231372   4.331   2.338   2.109  0.4042 -0.2138 -0.0559
 3246TIP3    H131373   4.303   2.315   2.198 -0.6931 -1.7663 -0.7631
 3246TIP3    H231374   4.314   2.431   2.101 -0.2533 -0.2250  1.0893
 3247TIP3   OH231375   0.760   6.764   8.135 -0.6804  0.4253 -0.1101
 3247TIP3    H131376   0.677   6.811   8.130 -0.8057  0.4229  1.3717
 3247TIP3    H231377   0.820   6.826   8.177 -0.5998 -0.3772  1.0151
 3248TIP3   OH231378   5.759   3.505   3.917  0.2969  0.2349 -0.4128
 3248TIP3    H131379   5.806   3.580   3.882  0.4887 -0.2054 -1.1359
 3248TIP3    H231380   5.733   3.531   4.005  4.1263 -0.3979  1.1208
 3249TIP3   OH231381   3.652   5.322   0.282 -0.0813 -0.3244  0.5420
 3249TIP3    H131382   3.692   5.307   0.196 -3.0471  2.8154 -1.6677
 3249TIP3    H231383   3.706   5.389   0.322  0.5783 -0.8738  0.5941
 3250TIP3   OH231384   0.426   1.162   2.525 -0.8277  0.7585 -0.2425
 3250TIP3    H131385   0.426   1.241   2.578  0.8549  0.3205  0.4923
 3250TIP3    H231386   0.481   1.184   2.450 -1.5764  0.7457 -0.8019
 3251TIP3   OH231387   1.182   1.947   0.646  0.1187  0.1181  0.0253
 3251TIP3    H131388   1.096   1.984   0.624  0.3331  0.6922  0.1202
 3251TIP3    H231389   1.166   1.854   0.661 -0.3394  0.0611 -0.7915
 3252TIP3   OH231390   3.610   6.749   3.405  0.1540 -0.0956 -0.3842
 3252TIP3    H131391   3.611   6.841   3.431  1.7812 -0.1264 -0.2075
 3252TIP3    H231392   3.693   6.714   3.439 -0.0060 -1.3846 -1.2606
 3253TIP3   OH231393   5.095   5.455   2.836  0.7991 -0.1432  0.3935
 3253TIP3    H131394   5.086   5.360   2.825  1.5276 -0.1130 -0.5533
 3253TIP3    H231395   5.125   5.465   2.926  2.4224 -0.9531 -0.0084
 3254TIP3   OH231396   1.217   4.444   1.852 -0.1261  0.1404 -0.0363
 3254TIP3    H131397   1.163   4.497   1.910 -0.1861  0.9916 -0.8414
 3254TIP3    H231398   1.293   4.499   1.833  0.0174 -0.2285 -0.5513
 3255TIP3   OH231399   6.642   1.305   0.019 -0.0801  0.4254  0.3208
 3255TIP3    H131400   6.706   1.235   0.009  2.1007  2.2014  0.9658
 3255TIP3    H231401   6.629   1.339  -0.070  1.5591  1.3937  0.4114
 3256TIP3   OH231402   5.822   3.379   4.435 -0.5452  0.4614 -0.0168
 3256TIP3    H131403   5.811   3.357   4.342 -1.7237 -3.0059  0.8057
 3256TIP3    H231404   5.915   3.364   4.453 -0.1932  1.6866 -0.7084
 3257TIP3   OH231405   4.685   5.632   2.896  0.5945  0.2754 -0.4632
 3257TIP3    H131406   4.666   5.605   2.806  0.1056 -2.0855  0.2817
 3257TIP3    H231407   4.602   5.667   2.929  0.6314  0.6412 -0.7559
 3258TIP3   OH231408   2.863   5.337   1.478 -0.5913  0.5709 -0.8613
 3258TIP3    H131409   2.953   5.361   1.455 -0.7329 -0.2261 -2.4152
 3258TIP3    H231410   2.858   5.243   1.461 -1.6067  0.5244 -0.3880
 3259TIP3   OH231411   6.159   6.250   1.697  0.1162  0.7833 -0.2062
 3259TIP3    H131412   6.118   6.274   1.614 -1.5294 -0.9385  0.0267
 3259TIP3    H231413   6.131   6.159   1.712  3.2141 -0.1669  0.5443
 3260TIP3   OH231414   4.005   3.052   8.500  0.1428  0.8934  0.2508
 3260TIP3    H131415   4.032   3.134   8.459 -1.3712  0.8325 -0.9702
 3260TIP3    H231416   4.074   3.033   8.564  1.8677  1.7630 -1.2510
 3261TIP3   OH231417   1.123   6.072   8.196 -0.0545 -0.2309  0.2498
 3261TIP3    H131418   1.037   6.041   8.224  1.2375 -3.1838  1.3820
 3261TIP3    H231419   1.137   6.030   8.111  0.1098  0.6314 -0.1642
 3262TIP3   OH231420   4.919   5.463   3.664 -0.2803 -0.0525  0.0615
 3262TIP3    H131421   4.957   5.524   3.727  0.4009 -0.0364 -0.3560
 3262TIP3    H231422   4.881   5.393   3.717 -1.8064  1.1176  0.5891
 3263TIP3   OH231423   6.828   4.842   1.099 -0.0330 -0.4524  0.0325
 3263TIP3    H131424   6.837   4.840   1.003  0.8625 -1.7927  0.1217
 3263TIP3    H231425   6.914   4.868   1.131 -0.5639  0.8587  0.4799
 3264TIP3   OH231426   4.128   2.470   1.780 -0.2355  0.8324 -0.2198
 3264TIP3    H131427   4.211   2.514   1.791  0.4018  0.1099 -1.7711
 3264TIP3    H231428   4.096   2.501   1.695  0.3654 -1.7749 -1.4958
 3265TIP3   OH231429   1.892   1.307   2.948  0.5989 -0.0756 -0.1440
 3265TIP3    H131430   1.945   1.387   2.952  0.8625  0.0008 -3.1931
 3265TIP3    H231431   1.911   1.262   3.031  0.6205  2.8544  1.5773
 3266TIP3   OH231432   3.569   4.665   1.919  1.0941 -0.3887 -0.6576
 3266TIP3    H131433   3.636   4.601   1.893  2.3187  0.0796  1.1633
 3266TIP3    H231434   3.527   4.690   1.836  2.3000 -1.6439 -1.7094
 3267TIP3   OH231435   3.990   0.568   3.936 -0.5952  0.2326  0.3280
 3267TIP3    H131436   3.932   0.601   3.867  1.9404 -1.0656 -2.7424
 3267TIP3    H231437   4.039   0.644   3.966 -0.8959  0.6622 -0.2598
 3268TIP3   OH231438   5.787   4.376   1.629 -0.4540 -0.1226 -0.1285
 3268TIP3    H131439   5.756   4.428   1.555 -0.9668 -0.5111 -0.1898
 3268TIP3    H231440   5.770   4.285   1.603 -0.8479 -0.2512  0.5593
 3269TIP3   OH231441   2.340   5.454   3.587 -0.0096  0.1748  0.3357
 3269TIP3    H131442   2.262   5.399   3.581 -0.1738  0.4372 -0.0102
 3269TIP3    H231443   2.335   5.494   3.673 -0.3251  0.2816  0.2684
 3270TIP3   OH231444   1.521   3.959   1.352  0.3673  0.0170 -0.5895
 3270TIP3    H131445   1.586   3.978   1.420 -1.6265  1.3087  1.0555
 3270TIP3    H231446   1.483   3.875   1.378 -0.7405  0.7442  0.2534
 3271TIP3   OH231447   0.518   5.044   2.361  0.0933  0.4147 -0.5032
 3271TIP3    H131448   0.458   5.002   2.300 -0.4770  1.5910 -0.7670
 3271TIP3    H231449   0.479   5.029   2.447 -1.1461  2.0320 -0.7486
 3272TIP3   OH231450   2.759   2.432   2.395  0.0527 -0.2093  0.2691
 3272TIP3    H131451   2.786   2.509   2.445  1.6001 -0.5073 -0.0561
 3272TIP3    H231452   2.738   2.366   2.461 -1.0295  0.3762  0.5421
 3273TIP3   OH231453   4.244   2.251   2.389 -0.1953 -0.5914 -0.3143
 3273TIP3    H131454   4.233   2.206   2.473 -1.8287 -4.4824 -2.3622
 3273TIP3    H231455   4.156   2.255   2.352  0.5471  0.5125 -2.1056
 3274TIP3   OH231456   0.835   5.645   4.022  0.4270  0.4664  0.2102
 3274TIP3    H131457   0.925   5.671   4.045  0.4308  0.2486  0.4542
 3274TIP3    H231458   0.843   5.605   3.936  0.7588 -0.5919  0.7081
 3275TIP3   OH231459   3.960   6.466   3.069  0.2785  0.4505  0.1327
 3275TIP3    H131460   4.025   6.396   3.067  0.3333  0.4552  1.3123
 3275TIP3    H231461   3.927   6.466   3.158  0.0239  1.7038  0.0597
 3276TIP3   OH231462   5.431   0.495   2.112 -0.2673 -0.3772  0.1592
 3276TIP3    H131463   5.517   0.455   2.115  0.2552  0.5493 -1.3826
 3276TIP3    H231464   5.433   0.561   2.182 -0.3024 -1.3726  1.1337
 3277TIP3   OH231465   4.511   3.716   2.015 -0.2631 -0.1309 -0.3216
 3277TIP3    H131466   4.601   3.748   2.024  0.1125 -1.3420  0.5748
 3277TIP3    H231467   4.471   3.730   2.101 -0.5051 -0.7839 -0.3166
 3278TIP3   OH231468   4.764   5.445   0.113 -0.1098  0.2635  0.7554
 3278TIP3    H131469   4.704   5.384   0.155 -0.3585  0.0933  0.1728
 3278TIP3    H231470   4.733   5.532   0.140 -0.8881  0.1927  0.1276
 3279TIP3   OH231471   2.613   3.059   1.607 -0.0647 -0.4124 -0.4472
 3279TIP3    H131472   2.610   3.109   1.689  0.7717 -0.6645 -0.2552
 3279TIP3    H231473   2.676   2.989   1.624  2.1070  1.0187 -2.1211
 3280TIP3   OH231474   2.947   3.091   3.684  0.4146  0.6350 -0.3567
 3280TIP3    H131475   3.034   3.066   3.655  0.1535  1.7086 -2.1970
 3280TIP3    H231476   2.918   3.017   3.739  1.2804 -1.1832 -2.2014
 3281TIP3   OH231477   0.922   4.348   2.640  0.4505  0.2409 -0.1127
 3281TIP3    H131478   0.990   4.282   2.646  0.4923  0.3225  0.3683
 3281TIP3    H231479   0.853   4.317   2.699 -0.4404 -0.4314 -1.4642
 3282TIP3   OH231480   2.156   0.376   2.854  0.7953  0.0015 -0.1003
 3282TIP3    H131481   2.222   0.342   2.793 -0.6359 -1.3245 -0.9888
 3282TIP3    H231482   2.104   0.436   2.802  2.2159  2.3360  1.0181
 3283TIP3   OH231483   4.139   6.240   3.617 -0.1037  0.1851 -0.9302
 3283TIP3    H131484   4.147   6.258   3.711 -0.3916  2.6374 -1.2965
 3283TIP3    H231485   4.139   6.145   3.610 -0.2413 -0.0565  1.5681
 3284TIP3   OH231486   4.204   2.636   0.339 -0.6472  0.3033 -0.2660
 3284TIP3    H131487   4.173   2.594   0.259  0.3258 -1.9690  0.4825
 3284TIP3    H231488   4.183   2.574   0.409  1.2695  0.8229  0.8427
 3285TIP3   OH231489   6.106   0.749   3.592  0.2922 -0.4436 -0.3182
 3285TIP3    H131490   6.158   0.793   3.659  1.0166  0.9416 -1.7217
 3285TIP3    H231491   6.016   0.777   3.610  0.5421  0.3225 -0.2039
 3286TIP3   OH231492   6.484   6.823   3.009  0.6358 -0.6037  0.8111
 3286TIP3    H131493   6.542   6.747   3.010 -0.9736 -1.8987  0.7008
 3286TIP3    H231494   6.517   6.879   3.079  0.9576 -2.1262  1.9416
 3287TIP3   OH231495   4.262   2.820   2.032  0.1310 -0.4389 -0.5815
 3287TIP3    H131496   4.298   2.864   2.109  0.8022 -2.2331  0.1756
 3287TIP3    H231497   4.245   2.730   2.061  1.4820 -1.4861 -2.8148
 3288TIP3   OH231498   0.498   4.559   2.777  0.0538 -0.3896 -0.2739
 3288TIP3    H131499   0.455   4.479   2.808  1.5057 -0.7813  0.8992
 3288TIP3    H231500   0.536   4.597   2.857  1.1608  0.3409 -1.1257
 3289TIP3   OH231501   1.785   5.708   0.284 -0.7953  0.6820  0.0657
 3289TIP3    H131502   1.776   5.674   0.373 -0.3118  1.1249  0.2910
 3289TIP3    H231503   1.786   5.803   0.294 -3.3703  0.8605 -0.6803
 3290TIP3   OH231504   5.948   4.594   2.211  0.0996  1.0148  0.1070
 3290TIP3    H131505   5.925   4.686   2.199  0.6139  1.3765  1.6909
 3290TIP3    H231506   6.040   4.596   2.239 -0.1525  0.0980  1.0664
 3291TIP3   OH231507   4.341   4.357   2.847 -0.3791 -0.0905 -0.6588
 3291TIP3    H131508   4.247   4.348   2.829 -0.2659 -0.0953 -1.2477
 3291TIP3    H231509   4.349   4.444   2.886 -1.0542 -1.2166  2.2516
 3292TIP3   OH231510   3.798   0.232   1.923  0.4565 -0.4499 -0.2638
 3292TIP3    H131511   3.726   0.268   1.975  0.6530  0.5353 -0.6522
 3292TIP3    H231512   3.774   0.140   1.909 -0.5775 -0.2124 -0.1356
 3293TIP3   OH231513   0.263   5.891   2.774  0.6682  0.1620 -0.0446
 3293TIP3    H131514   0.336   5.920   2.828  2.4516 -1.2119 -1.5726
 3293TIP3    H231515   0.266   5.795   2.777 -0.3030  0.0650 -1.1106
 3294TIP3   OH231516   4.870   2.034   0.195 -0.0930  0.1110  0.5638
 3294TIP3    H131517   4.923   2.005   0.269 -0.1067 -0.0941  0.4920
 3294TIP3    H231518   4.930   2.032   0.120 -0.3348 -0.6166  0.3828
 3295TIP3   OH231519   5.595   0.152   0.032 -0.1872 -0.0125  0.3860
 3295TIP3    H131520   5.599   0.233  -0.018 -0.8882 -1.0422 -1.4675
 3295TIP3    H231521   5.636   0.087  -0.025 -2.7358 -1.6469  0.2564
 3296TIP3   OH231522   2.507   2.615   2.066  0.4678 -0.0385 -0.2356
 3296TIP3    H131523   2.573   2.642   2.130 -0.0956 -0.5568  0.5889
 3296TIP3    H231524   2.542   2.535   2.027 -0.1699 -1.0038  1.0698
 3297TIP3   OH231525   1.918   4.546   0.657  0.1758 -0.8043  0.2398
 3297TIP3    H131526   1.957   4.597   0.585  0.8978 -0.2391  1.0010
 3297TIP3    H231527   1.988   4.487   0.685  0.0373 -0.7489  0.7192
 3298TIP3   OH231528   4.665   2.837   8.512  0.3307 -0.0060 -0.5149
 3298TIP3    H131529   4.640   2.903   8.576  2.0504 -0.4145  0.6351
 3298TIP3    H231530   4.633   2.754   8.549  0.1289 -0.0846 -0.8602
 3299TIP3   OH231531   1.469   0.823   0.403  0.0250  0.5027  0.0071
 3299TIP3    H131532   1.561   0.801   0.417 -0.3946 -0.8962  0.6916
 3299TIP3    H231533   1.438   0.756   0.343 -1.0113 -0.1873  1.2738
 3300TIP3   OH231534   5.857   0.021   2.182  0.0396  0.4042  0.4138
 3300TIP3    H131535   5.892  -0.014   2.100 -2.5639  2.4268 -1.7457
 3300TIP3    H231536   5.927   0.078   2.215  0.4074  1.1799 -1.5669
 3301TIP3   OH231537   1.337   4.325   1.642  0.2853 -0.8492 -0.0519
 3301TIP3    H131538   1.390   4.259   1.686 -2.5637 -3.4084 -0.1520
 3301TIP3    H231539   1.289   4.368   1.712  2.0939  1.2452  0.0099
 3302TIP3   OH231540   0.747   3.493   3.354 -0.1749  0.3591  0.1924
 3302TIP3    H131541   0.731   3.454   3.268  0.3959  0.6303 -0.0386
 3302TIP3    H231542   0.768   3.584   3.336  0.3505  0.3220  0.5874
 3303TIP3   OH231543   3.583   5.840   8.173  0.1753  0.0235 -0.1196
 3303TIP3    H131544   3.514   5.803   8.228  0.0793 -1.0876 -0.9653
 3303TIP3    H231545   3.661   5.841   8.229 -0.1004 -0.3656  0.2772
 3304TIP3   OH231546   4.583   1.451   1.782  0.2688 -0.0153  0.0574
 3304TIP3    H131547   4.565   1.545   1.772 -1.2648 -0.3556 -0.6559
 3304TIP3    H231548   4.596   1.420   1.692  0.9437 -0.4703  0.3072
 3305TIP3   OH231549   2.584   4.037   2.372 -0.6242 -0.0489  0.2650
 3305TIP3    H131550   2.561   3.987   2.293  0.8088 -0.5896  0.1711
 3305TIP3    H231551   2.500   4.053   2.415 -1.4833  0.6273 -1.5713
 3306TIP3   OH231552   5.611   4.566   8.476 -0.6896 -0.0720 -0.2037
 3306TIP3    H131553   5.653   4.518   8.547 -1.0450 -1.0714 -0.6601
 3306TIP3    H231554   5.587   4.500   8.412  1.3401  0.9862 -2.2083
 3307TIP3   OH231555   1.352   0.403   4.450  0.4463 -0.3397  0.1839
 3307TIP3    H131556   1.437   0.403   4.407  1.1029 -1.3190  1.4218
 3307TIP3    H231557   1.310   0.322   4.423 -1.4713  1.4447 -2.8550
 3308TIP3   OH231558   3.773   3.645   0.481 -0.3375  0.4515 -0.3463
 3308TIP3    H131559   3.769   3.648   0.577 -1.0652 -0.0252 -0.3548
 3308TIP3    H231560   3.852   3.594   0.463 -0.4556  0.1396  0.0019
 3309TIP3   OH231561   3.327   6.044   3.074 -0.1499  0.3359 -0.1062
 3309TIP3    H131562   3.314   6.053   2.980  0.2742  1.5440 -0.0623
 3309TIP3    H231563   3.240   6.058   3.112 -0.6788 -1.8779 -0.3885
 3310TIP3   OH231564   5.979   6.262   0.528  0.0473  0.5334  0.0853
 3310TIP3    H131565   6.005   6.172   0.546 -0.2688  0.5532  0.6618
 3310TIP3    H231566   6.038   6.291   0.459 -0.0557 -0.2147 -0.3200
 3311TIP3   OH231567   0.847   6.277   8.655 -0.5792  0.6754 -0.6280
 3311TIP3    H131568   0.809   6.305   8.571 -0.1673 -1.5720 -1.6488
 3311TIP3    H231569   0.897   6.198   8.633  1.6104  1.4033  1.3265
 3312TIP3   OH231570   2.162   1.454   0.480 -0.2088  0.3752  0.0466
 3312TIP3    H131571   2.222   1.511   0.527 -0.4313 -0.2554  1.1327
 3312TIP3    H231572   2.185   1.465   0.388  1.4836  0.2363  0.4241
 3313TIP3   OH231573   2.566   4.929   8.028  0.0398  0.1688 -0.2147
 3313TIP3    H131574   2.518   4.851   8.056 -0.2648  0.4784  0.1373
 3313TIP3    H231575   2.541   4.997   8.091 -0.2151  0.7298 -0.9005
 3314TIP3   OH231576   3.788   6.742   3.082  0.3828 -0.0269 -0.4296
 3314TIP3    H131577   3.859   6.679   3.075  0.2682 -0.3469  0.9131
 3314TIP3    H231578   3.713   6.691   3.112 -0.3941  0.3257 -1.7146
 3315TIP3   OH231579   5.987   0.913   2.387 -0.2860 -0.5965 -0.1625
 3315TIP3    H131580   6.029   0.941   2.306 -2.4314 -1.1669 -1.5393
 3315TIP3    H231581   6.012   0.821   2.396  0.2540 -0.4365  0.0582
 3316TIP3   OH231582   3.609   2.505   1.082  0.0530  0.3346 -0.0081
 3316TIP3    H131583   3.549   2.549   1.022 -1.1005 -0.6554  0.3842
 3316TIP3    H231584   3.651   2.437   1.029  1.0663  1.2015 -0.3519
 3317TIP3   OH231585   2.407   1.052   1.799 -0.1507 -0.7003  0.5056
 3317TIP3    H131586   2.326   1.084   1.761 -0.6339 -0.5262  1.6222
 3317TIP3    H231587   2.472   1.060   1.730 -0.5810  1.3121  0.2786
 3318TIP3   OH231588   1.972   4.999   1.659 -0.4298 -0.3185 -0.5161
 3318TIP3    H131589   2.022   5.065   1.612  1.1942  0.7747  2.5061
 3318TIP3    H231590   2.037   4.935   1.687 -1.0743 -0.2249  1.3013
 3319TIP3   OH231591   3.010   5.421   3.764  0.1609 -0.0957 -0.1021
 3319TIP3    H131592   3.101   5.452   3.770  0.0783  0.1237  0.0362
 3319TIP3    H231593   2.957   5.500   3.771 -0.0437 -0.2269 -0.1485
 3320TIP3   OH231594   4.790   5.001   1.604 -0.4988 -0.3462  0.2272
 3320TIP3    H131595   4.803   5.090   1.639  1.4823 -0.1959 -0.7619
 3320TIP3    H231596   4.724   5.012   1.536  0.2245  0.5164 -0.3555
 3321TIP3   OH231597   3.411   4.031   1.255  0.0116 -0.0627  0.1468
 3321TIP3    H131598   3.493   4.081   1.249 -0.3288  0.6766  1.2036
 3321TIP3    H231599   3.344   4.092   1.224 -0.2478 -0.3544  0.1328
 3322TIP3   OH231600   4.727   5.915   2.700 -0.3660  0.2036  0.2203
 3322TIP3    H131601   4.649   5.887   2.748 -2.1113  2.8843 -0.7828
 3322TIP3    H231602   4.716   5.878   2.613 -0.0173 -0.1757  0.3346
 3323TIP3   OH231603   3.366   5.284   8.175  0.1398 -0.2202  0.0238
 3323TIP3    H131604   3.415   5.204   8.153 -0.4589 -0.5327 -0.1797
 3323TIP3    H231605   3.324   5.263   8.258 -0.7548 -0.4550 -0.4770
 3324TIP3   OH231606   0.269   0.457   2.410  0.9262 -0.0059  0.5053
 3324TIP3    H131607   0.195   0.397   2.422  0.2302  0.8665  0.7005
 3324TIP3    H231608   0.327   0.411   2.350 -0.5345 -0.0743 -0.9330
 3325TIP3   OH231609   0.631   2.247   0.912  0.0440 -1.1551  0.1532
 3325TIP3    H131610   0.586   2.180   0.962 -1.5692  0.4654  1.0004
 3325TIP3    H231611   0.561   2.302   0.877  1.2959  0.6902  0.3991
 3326TIP3   OH231612   2.043   5.481   1.621  0.3123  0.2614  0.2461
 3326TIP3    H131613   2.034   5.415   1.552 -2.0326 -0.0818  0.7857
 3326TIP3    H231614   2.091   5.437   1.690  0.7267 -0.1313 -0.2857
 3327TIP3   OH231615   3.822   4.767   0.491  0.3900  0.1171  0.6475
 3327TIP3    H131616   3.894   4.705   0.485 -0.4729 -0.9050  0.4307
 3327TIP3    H231617   3.861   4.853   0.475  1.7053 -0.3006  1.4913
 3328TIP3   OH231618   6.232   4.637   2.271  0.2357  0.4366 -0.4132
 3328TIP3    H131619   6.237   4.731   2.285  0.2362  0.2650  0.8762
 3328TIP3    H231620   6.311   4.616   2.220  1.9898  0.7381  1.9616
 3329TIP3   OH231621   0.116   1.160   3.326  0.0890  0.0774  0.8111
 3329TIP3    H131622   0.111   1.165   3.421 -2.5135 -3.2326  1.0071
 3329TIP3    H231623   0.037   1.204   3.295  0.2145 -0.0927  0.2273
 3330TIP3   OH231624   4.351   2.961   1.515 -0.6634 -0.6315  0.0356
 3330TIP3    H131625   4.423   2.912   1.474  0.2077  1.7673 -1.5582
 3330TIP3    H231626   4.374   2.965   1.608 -0.1075 -2.1069 -0.0227
 3331TIP3   OH231627   5.279   4.803   0.997 -0.0168 -0.1954 -0.1218
 3331TIP3    H131628   5.204   4.790   0.938  0.6076  2.1917 -1.6102
 3331TIP3    H231629   5.240   4.808   1.084 -1.3738 -0.6824 -0.6666
 3332TIP3   OH231630   3.764   3.808   8.677 -0.7332  0.2623  0.2762
 3332TIP3    H131631   3.811   3.785   8.757 -2.1855 -1.3614  0.7386
 3332TIP3    H231632   3.807   3.758   8.608  0.0694  1.1093  0.1453
 3333TIP3   OH231633   3.962   1.406   3.318 -0.2109 -0.1982  0.5528
 3333TIP3    H131634   3.961   1.392   3.412 -0.9432  0.4875  0.6528
 3333TIP3    H231635   4.051   1.439   3.300  0.1933 -1.0819  0.8741
 3334TIP3   OH231636   5.941   5.038   0.412  0.1998  0.6325 -0.4997
 3334TIP3    H131637   5.862   4.991   0.440  1.5625 -1.1611  0.5358
 3334TIP3    H231638   5.978   4.983   0.343  0.6385  1.3796 -0.8693
 3335TIP3   OH231639   6.596   0.316   0.285  0.4720 -0.2438  0.4160
 3335TIP3    H131640   6.618   0.375   0.356  1.1877  0.9642 -0.7651
 3335TIP3    H231641   6.572   0.234   0.328  0.0563  0.7047  2.0583
 3336TIP3   OH231642   4.185   0.095   0.066 -0.3292 -0.0645 -0.0662
 3336TIP3    H131643   4.213   0.176   0.109 -0.1977 -0.5040  0.6837
 3336TIP3    H231644   4.261   0.068   0.014 -0.2506  0.0982 -0.0371
 3337TIP3   OH231645   1.264   1.564   0.382  0.3734 -0.0192 -0.1221
 3337TIP3    H131646   1.184   1.592   0.338  0.3220  0.7637  0.4443
 3337TIP3    H231647   1.334   1.588   0.321  0.2198 -0.0836 -0.3231
 3338TIP3   OH231648   2.077   1.252   4.080 -0.2990 -0.1368 -0.2314
 3338TIP3    H131649   2.167   1.277   4.057 -0.2739 -0.1756 -0.1754
 3338TIP3    H231650   2.028   1.263   3.999 -0.3573  0.4189 -0.1305
 3339TIP3   OH231651   5.196   0.572   1.170 -0.6600 -0.6518  0.2087
 3339TIP3    H131652   5.194   0.530   1.256 -2.9081 -1.2650 -0.0589
 3339TIP3    H231653   5.241   0.509   1.114 -0.4336 -0.8969  0.6557
 3340TIP3   OH231654   0.240   6.538   1.786 -0.0165 -0.3828  0.7567
 3340TIP3    H131655   0.264   6.484   1.861  1.9604 -0.1020  0.3821
 3340TIP3    H231656   0.238   6.627   1.820  1.7852 -0.1474  0.3318
 3341TIP3   OH231657   1.484   5.518   2.542 -0.0150  0.0893 -0.6020
 3341TIP3    H131658   1.543   5.449   2.512  0.3256 -0.6158  1.5416
 3341TIP3    H231659   1.498   5.590   2.480  1.8905 -0.6562 -1.1042
 3342TIP3   OH231660   3.313   6.663   3.350  0.7716  0.0757 -0.4896
 3342TIP3    H131661   3.293   6.720   3.424  1.3712  0.3928 -0.5650
 3342TIP3    H231662   3.392   6.700   3.312  0.7613 -0.3902 -0.9768
 3343TIP3   OH231663   5.081   6.473   4.029 -0.4642  0.0811  0.0370
 3343TIP3    H131664   5.109   6.549   3.978 -0.6691  1.1419  1.4617
 3343TIP3    H231665   5.155   6.413   4.025  0.1819  0.8671 -0.1091
 3344TIP3   OH231666   6.003   2.461   1.911 -0.5335  0.2141 -0.1770
 3344TIP3    H131667   5.930   2.418   1.956  0.0775 -0.1980  0.4237
 3344TIP3    H231668   6.028   2.400   1.842 -0.9880  0.5176 -0.6156
 3345TIP3   OH231669   3.069   6.418   1.269  0.2974  0.6031  0.0344
 3345TIP3    H131670   3.085   6.462   1.353  0.6179  1.1356 -0.2947
 3345TIP3    H231671   2.993   6.463   1.233 -0.9885 -0.8341  0.8487
 3346TIP3   OH231672   4.859   4.173   1.388 -0.3511 -0.2290 -0.4630
 3346TIP3    H131673   4.925   4.138   1.448 -0.0468  2.1492  0.7106
 3346TIP3    H231674   4.781   4.120   1.405  0.6173 -1.6662 -0.3139
 3347TIP3   OH231675   3.407   4.807   1.413  0.1424  0.2921 -0.2786
 3347TIP3    H131676   3.348   4.862   1.362  1.2758  0.0259 -1.9801
 3347TIP3    H231677   3.457   4.758   1.347  0.7673 -1.0604  1.1343
 3348TIP3   OH231678   3.483   3.811   2.399  0.3675 -0.3283 -0.2682
 3348TIP3    H131679   3.482   3.906   2.401 -1.1417 -0.3322 -0.0016
 3348TIP3    H231680   3.497   3.785   2.490  1.0407 -0.3751 -0.3779
 3349TIP3   OH231681   5.057   3.688   2.504  0.7561 -0.1004 -0.0812
 3349TIP3    H131682   5.113   3.621   2.464  3.7125  1.2511  1.4760
 3349TIP3    H231683   5.026   3.649   2.585  0.1338 -0.5479 -0.5289
 3350TIP3   OH231684   4.989   3.826   1.382  0.3273 -0.4970 -0.3239
 3350TIP3    H131685   4.988   3.736   1.414 -1.3098 -1.0046 -1.6640
 3350TIP3    H231686   4.897   3.852   1.377  0.7772  1.5696  0.7817
 3351TIP3   OH231687   3.637   4.672   0.766  0.5087  0.1825  0.2869
 3351TIP3    H131688   3.605   4.613   0.835 -1.7064 -0.1587 -0.9522
 3351TIP3    H231689   3.709   4.623   0.725  1.1605 -0.0461  1.6392
 3352TIP3   OH231690   5.652   0.136   3.166  0.0778 -0.0041  0.1106
 3352TIP3    H131691   5.686   0.155   3.079 -0.8179  1.3344  0.0204
 3352TIP3    H231692   5.590   0.206   3.184 -1.0696 -1.2073  1.1218
 3353TIP3   OH231693   0.603   3.016   1.705  0.2860  0.0954  0.1385
 3353TIP3    H131694   0.688   3.059   1.693  0.1502  0.2506 -0.2765
 3353TIP3    H231695   0.590   3.014   1.799  0.6951  0.1834  0.1973
 3354TIP3   OH231696   2.847   2.617   3.925  0.0099 -0.1746  0.2143
 3354TIP3    H131697   2.806   2.609   4.011  0.0794 -1.5611  0.1256
 3354TIP3    H231698   2.941   2.607   3.942  0.2736  1.8615  0.2618
 3355TIP3   OH231699   2.096   3.238   3.175 -0.2930  0.0914  0.0839
 3355TIP3    H131700   2.029   3.171   3.169 -0.7240  0.5053  0.2189
 3355TIP3    H231701   2.087   3.274   3.263 -0.1334  0.3961 -0.0223
 3356TIP3   OH231702   1.131   3.354   3.185  0.5981  0.2055  0.3810
 3356TIP3    H131703   1.217   3.387   3.160  0.5007  0.2413  0.0862
 3356TIP3    H231704   1.148   3.298   3.261  1.2232 -1.6565 -1.0350
 3357TIP3   OH231705   6.403   3.545   2.866 -0.4733 -0.1639  0.5928
 3357TIP3    H131706   6.470   3.570   2.802 -1.4060  2.4648  0.5409
 3357TIP3    H231707   6.346   3.622   2.873 -2.9148 -1.9225  1.3995
 3358TIP3   OH231708   0.944   1.200   8.409 -0.7832 -0.2739  0.5013
 3358TIP3    H131709   1.004   1.226   8.339 -0.7973 -0.0631  0.5666
 3358TIP3    H231710   0.969   1.110   8.430  1.2672  0.6362  2.3311
 3359TIP3   OH231711   5.289   6.081   2.256 -0.4124  0.4661 -0.2788
 3359TIP3    H131712   5.304   6.063   2.349  1.0492  0.1178 -0.5625
 3359TIP3    H231713   5.200   6.049   2.240 -0.1671 -0.7878  0.6693
 3360TIP3   OH231714   0.449   5.343   0.645  0.3434  0.4180 -0.1949
 3360TIP3    H131715   0.354   5.332   0.652  0.2599  0.6788 -0.9046
 3360TIP3    H231716   0.464   5.437   0.657  0.4185  0.5195 -1.0198
 3361TIP3   OH231717   4.049   2.204   3.068 -0.8043 -0.7942 -0.1641
 3361TIP3    H131718   4.120   2.225   3.129 -1.7535 -0.2127  0.7949
 3361TIP3    H231719   3.971   2.242   3.109 -1.6646 -1.3879 -1.1959
 3362TIP3   OH231720   1.822   1.470   2.643  0.2713 -0.3865  0.2025
 3362TIP3    H131721   1.903   1.468   2.592  0.0600  0.7974 -0.2243
 3362TIP3    H231722   1.784   1.383   2.630  0.0413 -0.0272 -2.0152
 3363TIP3   OH231723   5.499   1.860   1.933  0.4123  0.5524 -0.3244
 3363TIP3    H131724   5.515   1.770   1.961  2.2727  0.6790 -0.8484
 3363TIP3    H231725   5.563   1.875   1.863 -0.1692  2.1374 -0.5514
 3364TIP3   OH231726   6.656   2.439   8.768 -0.3905  0.0281 -0.1719
 3364TIP3    H131727   6.736   2.397   8.801 -0.9926 -1.3344 -0.3798
 3364TIP3    H231728   6.648   2.410   8.678 -1.1065  0.1687 -0.1642
 3365TIP3   OH231729   5.195   1.372   1.524 -0.3852 -0.4808 -0.2650
 3365TIP3    H131730   5.265   1.323   1.567  0.4983 -0.0094 -1.1064
 3365TIP3    H231731   5.235   1.403   1.443 -1.5411 -0.0729 -0.6959
 3366TIP3   OH231732   6.735   5.281   3.506  0.3001 -0.1676  0.4408
 3366TIP3    H131733   6.791   5.210   3.538  1.4499 -0.3046 -1.7160
 3366TIP3    H231734   6.778   5.361   3.537 -0.3268 -0.3168  1.8132
 3367TIP3   OH231735   2.971   0.894   1.005  0.0935  0.0030 -0.5342
 3367TIP3    H131736   3.055   0.863   1.040 -0.9199  1.3423  3.6146
 3367TIP3    H231737   2.991   0.978   0.965  0.8894 -0.2069 -0.5945
 3368TIP3   OH231738   0.225   5.169   2.524 -0.5674 -1.1007  0.4536
 3368TIP3    H131739   0.185   5.205   2.603 -2.0317 -3.1595  0.7322
 3368TIP3    H231740   0.236   5.244   2.466  0.8942  0.5474  2.6826
 3369TIP3   OH231741   6.811   3.341   0.683  0.1446  0.2069 -0.4509
 3369TIP3    H131742   6.736   3.312   0.631  0.8948 -0.2305 -1.3298
 3369TIP3    H231743   6.793   3.310   0.771 -0.0488 -1.1449 -0.9432
 3370TIP3   OH231744   5.899   1.703   1.945 -0.2054  0.2995  0.5269
 3370TIP3    H131745   5.927   1.623   1.990 -0.7653 -0.9615 -1.2485
 3370TIP3    H231746   5.921   1.774   2.006  0.7446 -1.1529  1.9592
 3371TIP3   OH231747   4.684   1.310   8.752  0.7908 -0.4575  0.3296
 3371TIP3    H131748   4.737   1.287   8.676  1.3702 -0.3767  0.6985
 3371TIP3    H231749   4.748   1.331   8.820  0.2818 -0.5747  0.8528
 3372TIP3   OH231750   4.141   5.285   3.265  0.4102 -0.1706 -0.0571
 3372TIP3    H131751   4.220   5.258   3.219  0.1163 -0.2102 -0.5436
 3372TIP3    H231752   4.112   5.364   3.219 -0.3744 -0.7104 -0.5073
 3373TIP3   OH231753   2.296   4.531   8.497 -0.8493 -0.8793 -0.5027
 3373TIP3    H131754   2.330   4.565   8.580 -2.1507  1.7322 -0.9394
 3373TIP3    H231755   2.365   4.472   8.465  1.0049  0.3505  0.9945
 3374TIP3   OH231756   4.857   3.049   0.419  0.7164  0.0689 -0.0333
 3374TIP3    H131757   4.837   2.965   0.459 -0.4692  0.4506  0.2109
 3374TIP3    H231758   4.807   3.050   0.338  1.4700  0.1542 -0.5011
 3375TIP3   OH231759   0.897   2.221   1.087  0.1046 -0.1502  0.3724
 3375TIP3    H131760   0.851   2.174   1.157 -1.1684  0.3851 -0.0863
 3375TIP3    H231761   0.829   2.245   1.025  1.1741 -0.3465 -0.9188
 3376TIP3   OH231762   5.463   4.791   2.363  0.0570  0.3305  0.2073
 3376TIP3    H131763   5.403   4.858   2.330  0.0292  0.8425  1.2328
 3376TIP3    H231764   5.461   4.722   2.297 -0.0933  1.2349 -0.7682
 3377TIP3   OH231765   6.241   6.447   0.971 -0.3050  0.4879  0.3363
 3377TIP3    H131766   6.229   6.496   1.052  0.2195 -1.3682  1.5941
 3377TIP3    H231767   6.212   6.358   0.991 -1.5896  0.2895 -1.9672
 3378TIP3   OH231768   2.865   4.626   0.527 -0.6382 -0.1889  0.1949
 3378TIP3    H131769   2.883   4.539   0.491 -0.3918 -0.2111  0.3719
 3378TIP3    H231770   2.770   4.634   0.523 -0.6346 -0.3283 -0.1448
 3379TIP3   OH231771   2.833   0.590   2.522 -0.4917  0.2857  0.2557
 3379TIP3    H131772   2.840   0.629   2.434 -1.4206 -2.0005 -0.8989
 3379TIP3    H231773   2.924   0.583   2.552 -0.2698  4.4102  1.1532
 3380TIP3   OH231774   1.616   6.650   1.407  0.4936  0.9737 -0.3091
 3380TIP3    H131775   1.551   6.585   1.434  1.2451  0.0761 -0.5912
 3380TIP3    H231776   1.568   6.709   1.349  0.0580 -0.0033 -0.9725
 3381TIP3   OH231777   6.067   1.614   8.234 -0.4434 -0.3666 -0.4189
 3381TIP3    H131778   6.017   1.555   8.178 -1.3714  1.4323 -1.5934
 3381TIP3    H231779   6.002   1.654   8.292  0.1509 -0.3687  0.2770
 3382TIP3   OH231780   5.292   6.133   0.777  0.3653  0.2814 -0.0726
 3382TIP3    H131781   5.297   6.102   0.867 -1.0893  0.2606  0.0139
 3382TIP3    H231782   5.340   6.067   0.727 -0.6382 -0.8535  0.4175
 3383TIP3   OH231783   1.238   1.696   0.065  0.0185  0.6435 -0.3557
 3383TIP3    H131784   1.332   1.715   0.058 -0.0948  0.8499 -1.6044
 3383TIP3    H231785   1.204   1.764   0.123  0.1942  2.3279 -2.1070
 3384TIP3   OH231786   5.195   2.367   1.199  0.2020  0.0915 -0.0993
 3384TIP3    H131787   5.242   2.416   1.131  0.3516 -0.0243 -0.0805
 3384TIP3    H231788   5.210   2.417   1.279  0.6136 -0.1471 -0.0227
 3385TIP3   OH231789   6.802   1.917   1.523  0.2711 -0.6219  0.1826
 3385TIP3    H131790   6.771   1.990   1.470  1.0626 -0.4461 -0.0486
 3385TIP3    H231791   6.749   1.842   1.495  1.0063 -0.6411 -1.2133
 3386TIP3   OH231792   4.110   1.599   2.484  0.2862 -0.1678  0.1041
 3386TIP3    H131793   4.060   1.652   2.421  0.7134  1.7504  1.3008
 3386TIP3    H231794   4.196   1.589   2.443  0.2103  0.1157 -0.1314
 3387TIP3   OH231795   0.055   2.074   3.676  0.3041  0.1581 -0.1979
 3387TIP3    H131796   0.144   2.041   3.683  0.6380  0.3999 -2.4641
 3387TIP3    H231797   0.064   2.169   3.684  0.3288  0.2181 -0.8845
 3388TIP3   OH231798   1.932   0.894   4.023  0.0222  0.4975  0.0411
 3388TIP3    H131799   1.842   0.864   4.032 -0.3466  1.5966  0.2211
 3388TIP3    H231800   1.944   0.956   4.095  0.4053  1.5203 -0.8621
 3389TIP3   OH231801   3.483   5.607   2.796 -0.4355  0.9684  0.7789
 3389TIP3    H131802   3.389   5.628   2.802 -0.1327  2.7503 -0.0793
 3389TIP3    H231803   3.515   5.616   2.886 -0.8815  1.4369  0.8971
 3390TIP3   OH231804   1.116   1.347   1.052  0.0528 -0.2873  0.0268
 3390TIP3    H131805   1.099   1.364   1.144  1.1240  0.8218  0.0447
 3390TIP3    H231806   1.157   1.261   1.051  1.6764  0.4339  0.8059
 3391TIP3   OH231807   2.099   5.105   2.166 -0.0671  0.5761  0.0673
 3391TIP3    H131808   2.177   5.158   2.181  0.1219  0.8504 -1.6447
 3391TIP3    H231809   2.131   5.032   2.113 -0.2591 -1.4870  2.5815
 3392TIP3   OH231810   6.403   3.680   2.271  0.3782 -0.0093  0.3343
 3392TIP3    H131811   6.313   3.700   2.298 -0.2973  0.0242 -1.7617
 3392TIP3    H231812   6.413   3.586   2.287 -0.7995 -0.4617 -1.3567
 3393TIP3   OH231813   2.826   3.130   8.486 -0.1024 -0.2895  0.2651
 3393TIP3    H131814   2.843   3.081   8.566 -1.8491 -0.8613  0.3169
 3393TIP3    H231815   2.908   3.176   8.468  0.1570  0.3107  2.6811
 3394TIP3   OH231816   5.622   2.327   1.002  0.5702 -0.1569  0.7102
 3394TIP3    H131817   5.709   2.364   0.984  0.8188 -0.9781  0.1827
 3394TIP3    H231818   5.619   2.317   1.097 -0.6372  3.9632  1.3052
 3395TIP3   OH231819   4.181   1.253   0.164  0.3390 -0.2526 -1.1486
 3395TIP3    H131820   4.180   1.195   0.240 -0.2233  0.3113 -0.7052
 3395TIP3    H231821   4.239   1.211   0.101  1.6720 -0.2041  0.0029
 3396TIP3   OH231822   6.224   5.776   1.942 -0.1178 -0.5397 -0.3269
 3396TIP3    H131823   6.147   5.831   1.930 -1.8126 -3.0178 -1.9901
 3396TIP3    H231824   6.258   5.762   1.853  0.8410 -1.3093  0.1420
 3397TIP3   OH231825   5.012   4.494   3.457 -0.2796  0.0210  0.3579
 3397TIP3    H131826   4.981   4.423   3.514  0.4269 -0.9513 -0.4186
 3397TIP3    H231827   5.034   4.450   3.375 -0.0540  1.1975 -0.2290
 3398TIP3   OH231828   5.359   4.335   3.171 -1.0016  0.1080  0.6519
 3398TIP3    H131829   5.423   4.348   3.101  0.9846  0.2145  2.3807
 3398TIP3    H231830   5.324   4.247   3.155  0.3608 -0.3919  0.2190
 3399TIP3   OH231831   6.542   3.062   2.666  0.1364 -0.3483  0.3790
 3399TIP3    H131832   6.567   3.154   2.667  1.6806 -0.7218 -0.1903
 3399TIP3    H231833   6.447   3.062   2.679 -0.2903  1.4373 -2.1403
 3400TIP3   OH231834   4.164   2.086   3.884  0.0608 -0.0094  0.0099
 3400TIP3    H131835   4.201   2.054   3.966  0.9494  0.8916 -0.0284
 3400TIP3    H231836   4.115   2.011   3.850 -1.3787 -0.0221  1.9578
 3401TIP3   OH231837   2.976   6.157   0.843  0.6524  0.3698  0.2525
 3401TIP3    H131838   3.058   6.121   0.877  1.5332  0.3375 -1.7570
 3401TIP3    H231839   2.915   6.084   0.845  0.2168  0.6938  2.9252
 3402TIP3   OH231840   6.271   5.360   1.532 -0.0233 -0.8762 -0.6748
 3402TIP3    H131841   6.324   5.426   1.487  0.2041 -0.5592  0.0493
 3402TIP3    H231842   6.335   5.301   1.572 -0.2135 -2.2196 -2.2582
 3403TIP3   OH231843   3.902   3.851   3.266  0.5178  0.8820  0.1757
 3403TIP3    H131844   3.989   3.832   3.231  0.4708  0.2556  0.3687
 3403TIP3    H231845   3.897   3.946   3.269  2.1642  0.9873  2.4472
 3404TIP3   OH231846   6.779   0.737   3.524 -0.0223 -0.2183  0.2840
 3404TIP3    H131847   6.730   0.819   3.525  1.3778  0.6523  0.1475
 3404TIP3    H231848   6.767   0.701   3.612 -2.1310 -0.8314 -0.1979
 3405TIP3   OH231849   2.067   4.363   0.815  0.0255 -0.4060 -0.1101
 3405TIP3    H131850   2.112   4.319   0.743 -0.7801 -1.2729 -0.1088
 3405TIP3    H231851   2.130   4.427   0.848  0.3954  0.0463 -1.6100
 3406TIP3   OH231852   2.862   5.257   2.967 -0.1028 -0.3847 -0.4266
 3406TIP3    H131853   2.937   5.265   2.907 -1.0568  0.2446 -1.5797
 3406TIP3    H231854   2.878   5.175   3.014  1.8527  0.2779  0.1553
 3407TIP3   OH231855   5.344   3.317   3.172 -0.1119 -0.1570  0.2341
 3407TIP3    H131856   5.290   3.243   3.200 -2.1010  0.7563 -0.9333
 3407TIP3    H231857   5.305   3.393   3.214  0.4386  0.5037 -0.4074
 3408TIP3   OH231858   1.462   1.410   0.175 -0.2944  0.6759  0.3222
 3408TIP3    H131859   1.409   1.351   0.122 -0.7642 -0.0274  1.5464
 3408TIP3    H231860   1.481   1.484   0.117  0.9157 -0.9631 -1.5063
 3409TIP3   OH231861   2.358   5.954   3.002  0.5094  0.2380 -0.1959
 3409TIP3    H131862   2.422   5.934   2.933 -1.4893 -0.4753 -1.9394
 3409TIP3    H231863   2.372   5.885   3.067 -0.3777 -1.7272 -1.9602
 3410TIP3   OH231864   2.629   6.088   1.067 -0.2033  0.5721  0.0547
 3410TIP3    H131865   2.711   6.136   1.057 -0.7616  1.1291 -2.4129
 3410TIP3    H231866   2.564   6.156   1.086 -0.5707  0.5012 -0.9160
 3411TIP3   OH231867   0.445   3.528   2.644 -0.5904  0.0367 -0.1252
 3411TIP3    H131868   0.514   3.468   2.672  0.2297  1.0900  0.1607
 3411TIP3    H231869   0.375   3.471   2.613  0.5805 -1.0563 -0.8600
 3412TIP3   OH231870   1.026   3.180   1.419  0.4587 -0.1161 -0.2026
 3412TIP3    H131871   1.098   3.235   1.387  0.7593  0.0507  0.7368
 3412TIP3    H231872   1.044   3.093   1.382  0.6866  0.1119 -0.6397
 3413TIP3   OH231873   4.085   2.061   3.490 -0.1413 -0.4622 -0.2261
 3413TIP3    H131874   4.122   2.121   3.555  0.2372  0.6366 -1.4011
 3413TIP3    H231875   4.000   2.035   3.527 -0.2638  0.7050  0.3848
 3414TIP3   OH231876   0.421   3.985   0.313  0.0767 -0.3913  0.7724
 3414TIP3    H131877   0.461   4.040   0.246  1.0940 -2.2226 -0.2303
 3414TIP3    H231878   0.336   4.025   0.331  0.2472  0.7672 -0.8223
 3415TIP3   OH231879   6.290   5.164   1.308 -0.1731 -0.1847  0.4480
 3415TIP3    H131880   6.350   5.238   1.321  0.3018 -0.3405 -0.7430
 3415TIP3    H231881   6.347   5.087   1.308 -0.1670 -0.2375 -1.9190
 3416TIP3   OH231882   3.934   5.577   0.109 -0.0755  0.5434 -0.1085
 3416TIP3    H131883   3.940   5.672   0.116  0.0524  0.6666 -1.5219
 3416TIP3    H231884   3.901   5.562   0.020  0.8184 -0.7487 -0.2497
 3417TIP3   OH231885   2.225   4.858   3.276 -0.1080  0.3377 -1.0376
 3417TIP3    H131886   2.259   4.914   3.346  1.4872 -0.5141 -1.1041
 3417TIP3    H231887   2.138   4.831   3.307  1.5952 -2.2992  2.0310
 3418TIP3   OH231888   0.685   5.978   1.254 -0.2467  0.4116  0.0613
 3418TIP3    H131889   0.728   6.060   1.229  2.0068 -0.5718  0.4539
 3418TIP3    H231890   0.754   5.928   1.298 -1.3842 -1.9527 -0.6987
 3419TIP3   OH231891   3.230   6.452   3.211  0.2968 -0.3094 -0.1543
 3419TIP3    H131892   3.291   6.474   3.140  0.2627  1.7817  0.4099
 3419TIP3    H231893   3.258   6.506   3.285 -1.3474 -0.3911  0.5676
 3420TIP3   OH231894   2.930   3.417   8.638  0.3474 -0.4137  0.0606
 3420TIP3    H131895   2.866   3.353   8.607  0.1889 -0.6755  0.9091
 3420TIP3    H231896   3.014   3.370   8.634  0.7646  0.3777 -2.4309
 3421TIP3   OH231897   1.457   6.483   8.501  0.2367 -0.4396  0.2573
 3421TIP3    H131898   1.547   6.486   8.469  0.2153 -0.8244  0.1587
 3421TIP3    H231899   1.404   6.490   8.422  0.1839 -1.3008  0.2132
 3422TIP3   OH231900   3.106   3.381   7.900 -0.0043  0.4154 -0.1402
 3422TIP3    H131901   3.099   3.466   7.857 -0.3960  0.5008  0.0877
 3422TIP3    H231902   3.117   3.401   7.993  1.7883  0.2514 -0.2803
 3423TIP3   OH231903   4.861   6.419   8.239 -0.5688 -0.2335  0.8188
 3423TIP3    H131904   4.767   6.435   8.245 -0.1260  3.0008  0.7920
 3423TIP3    H231905   4.868   6.335   8.194 -3.4225 -0.4361  0.5760
 3424TIP3   OH231906   5.071   6.415   3.733 -0.6306 -0.3587 -0.4242
 3424TIP3    H131907   5.090   6.323   3.752 -0.8295 -0.6561 -1.6064
 3424TIP3    H231908   5.143   6.463   3.773 -0.7568 -0.9856  0.5922
 3425TIP3   OH231909   1.099   0.453   3.340 -0.4508 -0.2018 -0.5351
 3425TIP3    H131910   1.035   0.408   3.285 -0.2105  0.2057 -1.1635
 3425TIP3    H231911   1.182   0.441   3.294 -0.4199  1.0594 -0.8355
 3426TIP3   OH231912   6.693   2.691   8.504  0.0002  0.1792  0.1470
 3426TIP3    H131913   6.610   2.643   8.494  0.0093 -0.1692  1.5522
 3426TIP3    H231914   6.756   2.624   8.530 -0.3248  1.0658  3.7718
 3427TIP3   OH231915   5.811   4.174   0.241  0.3616 -0.2148 -0.1599
 3427TIP3    H131916   5.785   4.102   0.299  0.2377 -0.3575 -0.3928
 3427TIP3    H231917   5.895   4.146   0.204 -0.1141 -0.6517 -0.9469
 3428TIP3   OH231918   4.366   1.141   2.236  0.0099 -0.1667  0.1989
 3428TIP3    H131919   4.324   1.226   2.248  0.7573  0.6518 -2.3475
 3428TIP3    H231920   4.457   1.162   2.212  0.5459 -1.7319  0.6784
 3429TIP3   OH231921   6.823   5.912   2.441  0.1275 -0.5009  0.1081
 3429TIP3    H131922   6.747   5.869   2.402 -0.3503 -1.4609  1.9896
 3429TIP3    H231923   6.789   5.955   2.519  1.5175 -1.0703  1.0739
 3430TIP3   OH231924   3.098   5.347   1.307 -0.2915  0.2034  0.2733
 3430TIP3    H131925   3.081   5.253   1.310 -0.6145  0.2772  1.4650
 3430TIP3    H231926   3.038   5.381   1.241  0.6722 -0.5722 -1.0471
 3431TIP3   OH231927   1.139   5.527   3.098 -0.0466  0.0794  0.1641
 3431TIP3    H131928   1.138   5.544   3.192  0.7806 -1.1574  0.4237
 3431TIP3    H231929   1.222   5.564   3.068  0.2190 -0.5057  0.1469
 3432TIP3   OH231930   5.838   3.807   8.131 -0.5998  0.1843 -1.2767
 3432TIP3    H131931   5.753   3.773   8.159 -0.2881  1.3557  1.3245
 3432TIP3    H231932   5.901   3.741   8.161 -0.2686  1.4067  0.8752
 3433TIP3   OH231933   0.426   0.487   2.923 -0.1761  0.4541 -0.1740
 3433TIP3    H131934   0.421   0.418   2.989  0.5794  1.7828  1.3493
 3433TIP3    H231935   0.420   0.441   2.839 -0.9201 -1.3156  0.7993
 3434TIP3   OH231936   1.254   3.589   8.721 -0.0338 -0.7732 -0.1509
 3434TIP3    H131937   1.267   3.669   8.772 -1.5225 -1.3235  1.1797
 3434TIP3    H231938   1.277   3.614   8.632 -1.0499  1.3376  0.1056
 3435TIP3   OH231939   5.436   6.353   2.498 -0.0953 -0.1481 -0.6023
 3435TIP3    H131940   5.482   6.402   2.430 -1.4671 -0.3779 -1.7543
 3435TIP3    H231941   5.502   6.295   2.535  1.3666  1.9341  0.2171
 3436TIP3   OH231942   6.071   5.545   0.508 -0.1686 -0.2771  0.1956
 3436TIP3    H131943   6.122   5.487   0.451  1.4074 -0.6151  1.8742
 3436TIP3    H231944   6.048   5.491   0.583 -2.8682 -0.0526 -0.3699
 3437TIP3   OH231945   1.026   4.894   1.198 -0.3097 -0.0963 -0.5059
 3437TIP3    H131946   1.000   4.960   1.263 -0.9949 -0.1765 -0.6874
 3437TIP3    H231947   0.982   4.922   1.117  1.0025  0.3297 -1.0978
 3438TIP3   OH231948   4.329   5.719   0.504 -0.5726  0.1961 -0.2201
 3438TIP3    H131949   4.235   5.701   0.507 -0.3454 -1.3876 -1.1909
 3438TIP3    H231950   4.335   5.814   0.494 -2.1884  0.1294 -2.7891
 3439TIP3   OH231951   5.136   4.876   3.298  0.0923  0.2101  0.2196
 3439TIP3    H131952   5.113   4.862   3.390 -1.0428  0.8834  0.0485
 3439TIP3    H231953   5.231   4.864   3.295 -0.0992 -2.0305  1.0646
 3440TIP3   OH231954   5.660   6.700   2.202  0.2232  0.2940 -0.2450
 3440TIP3    H131955   5.719   6.776   2.200  0.2737  0.2593 -0.1124
 3440TIP3    H231956   5.612   6.705   2.120 -0.4548  1.0018  0.1851
 3441TIP3   OH231957   6.743   1.281   4.517  0.4882 -0.2280  0.4371
 3441TIP3    H131958   6.776   1.332   4.442  0.0122 -1.3555 -0.5741
 3441TIP3    H231959   6.785   1.320   4.593  1.6383  0.4273 -0.5019
 3442TIP3   OH231960   4.806   2.405   0.393 -0.4939 -0.1330  0.4067
 3442TIP3    H131961   4.781   2.317   0.419  0.7508 -0.9961 -1.1624
 3442TIP3    H231962   4.882   2.393   0.337 -0.5206  1.9215 -0.1475
 3443TIP3   OH231963   1.895   3.552   0.282  0.3937  0.0812  0.1391
 3443TIP3    H131964   1.958   3.579   0.216  2.6229 -2.4150  1.0269
 3443TIP3    H231965   1.823   3.513   0.232  2.1868 -2.0860 -0.9579
 3444TIP3   OH231966   5.291   3.083   1.232 -0.6634  0.0552 -0.2039
 3444TIP3    H131967   5.201   3.050   1.227 -1.1170  1.0263  0.9559
 3444TIP3    H231968   5.281   3.171   1.269  0.8483 -0.1577  0.7411
 3445TIP3   OH231969   0.471   6.650   1.632  0.4810 -0.6017  0.3919
 3445TIP3    H131970   0.449   6.611   1.717 -1.0161 -0.6207  0.0271
 3445TIP3    H231971   0.491   6.575   1.576  0.5559 -0.6479  0.4797
 3446TIP3   OH231972   4.276   2.858   0.824 -0.3499 -0.2292  0.0145
 3446TIP3    H131973   4.186   2.886   0.809  0.7584  2.9805 -1.5816
 3446TIP3    H231974   4.307   2.828   0.739  1.0716  2.2197 -0.4414
 3447TIP3   OH231975   6.124   3.705   8.531 -0.6284  0.3288 -0.5866
 3447TIP3    H131976   6.044   3.702   8.479 -0.2064 -2.1045 -1.2187
 3447TIP3    H231977   6.191   3.736   8.470 -0.7227  0.5255 -0.5915
 3448TIP3   OH231978   5.458   1.742   2.254 -0.3674 -0.6406  0.1178
 3448TIP3    H131979   5.509   1.701   2.183  0.8103  0.5875  0.2094
 3448TIP3    H231980   5.375   1.695   2.254 -0.5817 -0.3573 -2.3857
 3449TIP3   OH231981   1.851   6.485   2.628  0.0255  0.1896  0.9693
 3449TIP3    H131982   1.939   6.475   2.592 -0.1745  0.6551  0.3323
 3449TIP3    H231983   1.813   6.397   2.624 -0.0374  0.2467 -0.1081
 3450TIP3   OH231984   2.055   2.292   2.690 -0.3707 -0.2134 -0.2018
 3450TIP3    H131985   2.103   2.293   2.772 -0.7097 -0.6146  0.0058
 3450TIP3    H231986   2.035   2.200   2.674  0.1806 -0.2004 -1.0258
 3451TIP3   OH231987   4.972   0.280   2.572  0.2612 -0.5229  0.4037
 3451TIP3    H131988   4.966   0.186   2.589  0.8387 -0.8000 -0.8026
 3451TIP3    H231989   4.915   0.294   2.496 -1.1621  0.4190  1.5983
 3452TIP3   OH231990   1.622   4.284   0.080  1.0032 -0.1593  0.4516
 3452TIP3    H131991   1.632   4.254  -0.010  1.8405 -0.1939  0.5490
 3452TIP3    H231992   1.707   4.269   0.120  0.5313 -0.4898  1.3592
 3453TIP3   OH231993   1.770   3.835   8.089 -0.3139 -0.5379 -0.0848
 3453TIP3    H131994   1.699   3.899   8.090 -1.1903 -1.4605  1.5352
 3453TIP3    H231995   1.842   3.878   8.136 -0.7718 -0.5814  0.6778
 3454TIP3   OH231996   1.827   6.489   3.519  0.2105  0.4086  0.3854
 3454TIP3    H131997   1.894   6.520   3.459  0.2520  0.2258  0.3353
 3454TIP3    H231998   1.838   6.394   3.519 -0.7590  0.2844 -0.4627
 3455TIP3   OH231999   1.762   1.660   1.186 -0.2343  0.0407  0.6043
 3455TIP3    H132000   1.776   1.565   1.185 -3.9454 -0.7065 -2.2771
 3455TIP3    H232001   1.714   1.676   1.267  0.4265 -0.5116  1.1153
 3456TIP3   OH232002   4.615   2.561   2.784 -0.6156 -0.7630  0.0324
 3456TIP3    H132003   4.535   2.607   2.761 -0.1811 -0.3886 -0.7711
 3456TIP3    H232004   4.681   2.594   2.723 -0.1841 -2.1210 -0.2775
 3457TIP3   OH232005   0.722   1.790   8.475 -0.0829  0.0581  0.1322
 3457TIP3    H132006   0.777   1.719   8.507  0.2505  1.0814  1.9839
 3457TIP3    H232007   0.783   1.862   8.460 -0.7983  1.1158  1.9205
 3458TIP3   OH232008   6.270   3.897   3.549 -0.1600  0.6568  0.0633
 3458TIP3    H132009   6.235   3.906   3.638 -0.3535  1.2805 -0.0694
 3458TIP3    H232010   6.365   3.896   3.561 -0.1821  0.8693  0.2700
 3459TIP3   OH232011   2.899   5.654   2.261 -0.2763  0.2843 -0.3446
 3459TIP3    H132012   2.974   5.600   2.237  0.0132  0.2368  0.6136
 3459TIP3    H232013   2.923   5.743   2.233  0.5413  0.4333  0.7624
 3460TIP3   OH232014   3.858   3.752   2.963 -0.6443 -0.1100 -0.3567
 3460TIP3    H132015   3.880   3.718   2.876  0.8100  0.6023 -0.2886
 3460TIP3    H232016   3.851   3.673   3.017  0.8776 -0.4501 -0.6038
 3461TIP3   OH232017   3.239   4.245   1.206  0.1596 -0.0448  0.3168
 3461TIP3    H132018   3.269   4.235   1.116 -1.7723  2.2070 -0.6998
 3461TIP3    H232019   3.261   4.335   1.228 -1.4122  0.1392  1.2527
 3462TIP3   OH232020   4.441   2.235   4.247  0.0210 -1.1050  0.9951
 3462TIP3    H132021   4.530   2.226   4.213 -0.5381 -0.1910 -0.8251
 3462TIP3    H232022   4.436   2.325   4.277 -0.4077 -1.0561  0.7711
 3463TIP3   OH232023   1.300   4.410   0.768  0.2144 -0.0467  0.7514
 3463TIP3    H132024   1.324   4.450   0.685 -1.5419  2.0546  1.1845
 3463TIP3    H232025   1.369   4.345   0.784  1.3520  0.4824 -1.6235
 3464TIP3   OH232026   5.194   2.575   2.396 -0.5821  0.0952 -0.2776
 3464TIP3    H132027   5.263   2.607   2.337 -0.0527  0.1125  0.3328
 3464TIP3    H232028   5.233   2.581   2.483 -0.9651 -0.9510 -0.0207
 3465TIP3   OH232029   0.612   5.611   1.204 -0.5863 -0.0566  0.3461
 3465TIP3    H132030   0.596   5.548   1.274  1.0632  0.1415  0.9356
 3465TIP3    H232031   0.572   5.692   1.235 -0.1160 -0.0473  0.9498
 3466TIP3   OH232032   0.377   3.475   0.262 -0.2527 -0.0104  0.4211
 3466TIP3    H132033   0.411   3.530   0.333 -0.6486 -0.5844  1.0643
 3466TIP3    H232034   0.282   3.491   0.262 -0.4317 -1.0084  0.8978
 3467TIP3   OH232035   6.207   0.945   0.825  0.3181 -0.3639 -0.0162
 3467TIP3    H132036   6.219   0.940   0.730  0.9572  0.1036  0.0302
 3467TIP3    H232037   6.112   0.945   0.837  0.1267  2.0881 -0.8475
 3468TIP3   OH232038   5.783   6.064   0.217 -0.5049 -0.0235  0.2187
 3468TIP3    H132039   5.871   6.051   0.251 -1.1309 -2.4304  1.0803
 3468TIP3    H232040   5.775   6.159   0.207  2.4419  0.2240 -0.6901
 3469TIP3   OH232041   2.135   5.634   8.161 -0.3955  0.0739  0.0938
 3469TIP3    H132042   2.114   5.628   8.068 -1.3066 -0.8092  0.3440
 3469TIP3    H232043   2.229   5.617   8.166 -0.3914 -0.1252 -0.6365
 3470TIP3   OH232044   6.507   6.340   3.357 -0.1402 -0.1920  0.0486
 3470TIP3    H132045   6.529   6.277   3.426 -0.2233 -1.6210 -1.1647
 3470TIP3    H232046   6.577   6.405   3.361  2.2984 -2.5101 -1.1784
 3471TIP3   OH232047   5.593   6.601   1.664 -0.2544 -0.3173 -0.2836
 3471TIP3    H132048   5.662   6.555   1.615 -0.1543 -0.1405 -0.3093
 3471TIP3    H232049   5.585   6.685   1.620 -1.3078 -0.7794 -1.0159
 3472TIP3   OH232050   6.787   2.577   3.449 -0.0188 -0.4108  1.0175
 3472TIP3    H132051   6.859   2.577   3.385  0.3933 -2.7019  1.4039
 3472TIP3    H232052   6.728   2.509   3.418  0.4110 -1.9112  3.2648
 3473TIP3   OH232053   1.841   6.229   3.207 -0.0488 -0.6556 -0.4427
 3473TIP3    H132054   1.924   6.270   3.229  0.5852 -0.8922 -2.2134
 3473TIP3    H232055   1.860   6.135   3.207 -0.8287 -0.8439  1.0172
 3474TIP3   OH232056   3.109   4.299   1.970  0.0601 -0.1093  0.0364
 3474TIP3    H132057   3.013   4.304   1.974  0.0013 -0.6593 -0.4173
 3474TIP3    H232058   3.127   4.275   1.879  0.5652 -1.1345  0.3929
 3475TIP3   OH232059   4.405   1.621   2.821  0.2345  0.4823  0.4120
 3475TIP3    H132060   4.404   1.571   2.902  0.1282  0.9911  0.7245
 3475TIP3    H232061   4.386   1.556   2.753  1.9060 -0.2628  0.6011
 3476TIP3   OH232062   6.127   2.842   2.605  0.1869  0.2928  0.6482
 3476TIP3    H132063   6.129   2.794   2.688  2.0214 -0.2076  0.3723
 3476TIP3    H232064   6.088   2.780   2.543  0.8683 -0.1892  0.6840
 3477TIP3   OH232065   5.892   4.466   2.534 -0.3795  0.4632  0.0934
 3477TIP3    H132066   5.861   4.425   2.614 -0.8414 -0.9086 -0.7626
 3477TIP3    H232067   5.817   4.517   2.503 -0.4087  0.4874  0.2047
 3478TIP3   OH232068   4.669   3.386   0.273 -0.1309  0.3034 -0.5401
 3478TIP3    H132069   4.733   3.331   0.318 -1.9460 -0.8260  0.8103
 3478TIP3    H232070   4.595   3.392   0.334 -1.2545  1.7017 -1.9507
 3479TIP3   OH232071   2.776   3.253   8.232  0.3764  0.4640 -0.6108
 3479TIP3    H132072   2.865   3.238   8.199  0.8148  1.6815 -0.0521
 3479TIP3    H232073   2.773   3.205   8.315  0.1281 -0.4856 -1.1546
 3480TIP3   OH232074   3.812   3.226   3.825  0.5907  0.3300 -0.1562
 3480TIP3    H132075   3.901   3.196   3.840  0.1986  0.0337  1.8027
 3480TIP3    H232076   3.819   3.321   3.818  1.3656  0.1603 -2.8010
 3481TIP3   OH232077   2.076   2.386   3.212  0.1849  0.0298 -0.2359
 3481TIP3    H132078   2.086   2.474   3.248 -2.0644 -0.1036  0.9340
 3481TIP3    H232079   2.058   2.331   3.289  2.2777 -1.6444 -0.8440
 3482TIP3   OH232080   2.699   5.267   2.425 -0.0112 -0.0030  0.1600
 3482TIP3    H132081   2.652   5.340   2.386  0.0888 -0.6041 -1.1398
 3482TIP3    H232082   2.630   5.202   2.443 -0.0758  0.3183  1.1431
 3483TIP3   OH232083   0.497   0.697   1.831 -0.4449  0.3337 -0.1507
 3483TIP3    H132084   0.436   0.756   1.874 -1.7745  1.2028 -3.0095
 3483TIP3    H232085   0.555   0.667   1.902 -1.4776  2.8119  1.9004
 3484TIP3   OH232086   0.487   3.247   0.385  0.1028 -0.2404 -0.0642
 3484TIP3    H132087   0.477   3.305   0.460 -0.7174 -1.2240  0.6193
 3484TIP3    H232088   0.448   3.295   0.311 -0.9642 -0.0822  0.5793
 3485TIP3   OH232089   3.510   3.839   2.679  0.2058 -0.0839  0.1122
 3485TIP3    H132090   3.462   3.791   2.747 -0.4489 -0.2831 -0.4748
 3485TIP3    H232091   3.499   3.931   2.704  0.4263 -0.1753  0.5669
 3486TIP3   OH232092   6.767   1.177   0.865  0.0712  0.0325  0.7908
 3486TIP3    H132093   6.859   1.163   0.885  0.0453 -1.9423 -0.2100
 3486TIP3    H232094   6.767   1.239   0.792  0.6290 -0.2165  0.5773
 3487TIP3   OH232095   5.952   5.932   1.949 -0.0980  0.0678  0.9027
 3487TIP3    H132096   5.868   5.930   1.995  0.6960 -1.9497  2.4177
 3487TIP3    H232097   6.011   5.976   2.010  0.5942 -1.1740  1.1584
 3488TIP3   OH232098   0.369   4.843   0.073  0.6759 -0.6190  0.4652
 3488TIP3    H132099   0.324   4.868   0.154 -0.8442 -0.5669 -0.3654
 3488TIP3    H232100   0.453   4.888   0.077 -0.3851  1.4288  0.8627
 3489TIP3   OH232101   3.746   5.064   3.045  0.3722  0.4037  0.0783
 3489TIP3    H132102   3.804   4.988   3.040  0.2614  0.3799 -3.1134
 3489TIP3    H232103   3.659   5.029   3.024 -0.0595  1.0726  0.7210
 3490TIP3   OH232104   2.029   4.254   3.920  0.4062  0.5314 -0.5528
 3490TIP3    H132105   2.122   4.263   3.901  0.3388 -0.9848 -1.7557
 3490TIP3    H232106   1.997   4.345   3.921  2.0924  1.1973  1.2980
 3491TIP3   OH232107   5.527   6.055   2.089  0.3525  0.3658  0.8296
 3491TIP3    H132108   5.524   5.992   2.017  0.2746  0.5104  0.7066
 3491TIP3    H232109   5.454   6.030   2.146 -0.4044  1.0672  0.1789
 3492TIP3   OH232110   0.862   5.379   3.295  0.2490 -0.6129  0.0493
 3492TIP3    H132111   0.919   5.410   3.366 -1.0409 -1.7517  1.6546
 3492TIP3    H232112   0.835   5.458   3.249  2.0987  0.0473  0.0262
 3493TIP3   OH232113   6.413   6.347   1.424  0.6744 -0.2652 -0.8794
 3493TIP3    H132114   6.413   6.317   1.333  0.4250  0.9180 -1.2881
 3493TIP3    H232115   6.324   6.330   1.455  0.9319 -1.2500 -0.6381
 3494TIP3   OH232116   3.938   4.668   8.211 -0.1798 -0.0601 -0.0714
 3494TIP3    H132117   4.024   4.643   8.178  0.5795 -0.6147  2.1040
 3494TIP3    H232118   3.890   4.586   8.220 -0.4188  0.0917  0.0673
 3495TIP3   OH232119   4.740   0.626   2.897  0.1801  0.0937  0.4299
 3495TIP3    H132120   4.776   0.539   2.880  0.3923  0.5529 -1.6782
 3495TIP3    H232121   4.744   0.634   2.993 -0.6156 -2.5166  0.7792
 3496TIP3   OH232122   4.834   5.296   0.867 -0.4735 -0.0056 -0.5758
 3496TIP3    H132123   4.880   5.328   0.944 -0.7160  1.6695 -1.0847
 3496TIP3    H232124   4.899   5.241   0.821  0.2126  0.3460 -0.0385
 3497TIP3   OH232125   1.059   6.004   0.925  0.5467 -0.8292 -0.6605
 3497TIP3    H132126   0.966   5.980   0.925  0.4608 -0.5043 -0.6644
 3497TIP3    H232127   1.104   5.925   0.956  0.2744 -1.0063 -0.7082
 3498TIP3   OH232128   0.743   1.485   3.580  0.1619  0.0848 -0.5996
 3498TIP3    H132129   0.654   1.455   3.560  0.3135  0.0921 -1.3081
 3498TIP3    H232130   0.795   1.459   3.504  1.2274 -1.7970  0.7087
 3499TIP3   OH232131   4.895   2.731   3.302 -0.3045  0.0166  0.2265
 3499TIP3    H132132   4.918   2.709   3.392  1.1757  1.2538  0.1807
 3499TIP3    H232133   4.855   2.818   3.308 -1.4425 -0.4591 -0.1749
 3500TIP3   OH232134   5.146   4.164   0.469  0.4229  0.0324  0.2366
 3500TIP3    H132135   5.150   4.090   0.530  1.1664 -1.2893 -1.3411
 3500TIP3    H232136   5.100   4.233   0.517  0.2863 -1.2315  1.9841
 3501TIP3   OH232137   3.987   0.021   8.650 -0.6072 -0.3414  0.5467
 3501TIP3    H132138   4.009  -0.070   8.631 -2.6059 -0.5457 -1.1835
 3501TIP3    H232139   4.061   0.054   8.701 -0.4012 -3.2593  2.3487
 3502TIP3   OH232140   1.976   1.294   3.825 -0.2829 -0.2719  0.0850
 3502TIP3    H132141   2.008   1.381   3.803  1.6011 -0.7715  0.6698
 3502TIP3    H232142   1.911   1.275   3.757  0.2971  1.0240 -0.8785
 3503TIP3   OH232143   1.951   5.306   0.420  0.4565  0.3136  0.1320
 3503TIP3    H132144   2.029   5.336   0.375  0.4139 -0.2224 -0.3146
 3503TIP3    H232145   1.951   5.211   0.408 -1.0512  0.4271 -1.2054
 3504TIP3   OH232146   3.202   2.314   2.717 -0.4829  0.2923 -0.6165
 3504TIP3    H132147   3.138   2.250   2.750 -0.5829  1.3407  1.3991
 3504TIP3    H232148   3.217   2.288   2.626 -2.0611 -1.3449 -0.4766
 3505TIP3   OH232149   1.474   2.226   1.756 -0.4317  0.4980  0.2412
 3505TIP3    H132150   1.394   2.247   1.708 -1.9038 -0.4167  2.1828
 3505TIP3    H232151   1.508   2.311   1.784  0.1716  1.0137 -1.8196
 3506TIP3   OH232152   6.693   5.468   2.664 -0.2850 -0.1453  0.1845
 3506TIP3    H132153   6.669   5.477   2.571  0.0916 -0.0171  0.0945
 3506TIP3    H232154   6.700   5.558   2.695  3.2839  0.0258 -0.6591
 3507TIP3   OH232155   6.072   3.288   3.790  0.3108 -0.4917  0.4494
 3507TIP3    H132156   6.103   3.240   3.713 -0.2457 -1.1778  0.6407
 3507TIP3    H232157   5.977   3.293   3.777  0.3038  0.0886  0.7055
 3508TIP3   OH232158   4.004   6.747   8.392  0.2933  0.8132 -0.7118
 3508TIP3    H132159   4.024   6.706   8.308  0.2988  2.3991 -1.5217
 3508TIP3    H232160   3.999   6.674   8.454 -1.3061 -0.5629 -2.3607
 3509TIP3   OH232161   4.115   4.760   2.356 -1.1040 -0.1277 -0.6531
 3509TIP3    H132162   4.190   4.745   2.298 -1.5702 -1.1666 -1.0100
 3509TIP3    H232163   4.048   4.796   2.298 -0.7403  1.2823 -0.2370
 3510TIP3   OH232164   1.140   3.135   0.496  0.2415  0.5169  0.2585
 3510TIP3    H132165   1.111   3.062   0.441  0.8437  0.2573  0.2837
 3510TIP3    H232166   1.083   3.130   0.573 -1.1676  1.3746 -0.6678
 3511TIP3   OH232167   5.583   4.083   3.076 -0.2003 -0.7071  0.0036
 3511TIP3    H132168   5.607   4.023   3.005 -2.1446 -1.8433  0.2357
 3511TIP3    H232169   5.495   4.057   3.100 -0.5474  1.3267  1.1442
 3512TIP3   OH232170   4.527   2.248   2.377 -0.4433 -0.7948 -0.5962
 3512TIP3    H132171   4.576   2.328   2.398  0.3102 -0.9277 -1.7585
 3512TIP3    H232172   4.436   2.277   2.372 -0.1572  0.0556 -1.2390
 3513TIP3   OH232173   1.961   0.588   2.607  0.0933 -0.1319 -0.6062
 3513TIP3    H132174   1.874   0.626   2.618  0.1956 -0.4256  1.7600
 3513TIP3    H232175   1.947   0.511   2.553 -1.6151 -1.6014  1.7444
 3514TIP3   OH232176   6.276   6.072   2.493  0.5748  0.1484  0.7707
 3514TIP3    H132177   6.208   6.024   2.539  1.2337 -1.0597  0.5075
 3514TIP3    H232178   6.357   6.051   2.539  1.0836 -0.1953 -0.2568
 3515TIP3   OH232179   1.022   0.311   0.804 -0.1085 -0.2909  0.1576
 3515TIP3    H132180   1.040   0.351   0.719 -1.6138 -2.8456 -1.4980
 3515TIP3    H232181   0.936   0.344   0.829 -0.5999 -1.1412 -0.3768
 3516TIP3   OH232182   4.197   2.362   0.759 -0.7999 -0.1112  0.1306
 3516TIP3    H132183   4.142   2.335   0.685  0.6044 -1.6183 -0.4060
 3516TIP3    H232184   4.272   2.406   0.718  0.0293 -1.0309  0.6171
 3517TIP3   OH232185   6.666   4.024   2.200  0.6925 -0.2036 -0.2671
 3517TIP3    H132186   6.612   3.976   2.137  1.3236  0.0714 -1.0400
 3517TIP3    H232187   6.609   4.094   2.231  0.7548  0.4021 -1.4672
 3518TIP3   OH232188   4.532   5.946   0.297  0.0502  0.0318 -0.8251
 3518TIP3    H132189   4.439   5.927   0.280  0.1748  0.0701 -1.6088
 3518TIP3    H232190   4.558   6.005   0.226  0.9156 -0.7444 -1.1775
 3519TIP3   OH232191   2.967   0.600   1.625 -0.2743  0.2245 -0.0820
 3519TIP3    H132192   2.938   0.691   1.624 -0.9493  0.0623  1.7152
 3519TIP3    H232193   3.063   0.606   1.626 -0.3060  0.9000 -0.4354
 3520TIP3   OH232194   2.526   4.207   1.220  0.0170  0.1727  0.2384
 3520TIP3    H132195   2.572   4.291   1.229 -2.7651  1.8662 -0.0049
 3520TIP3    H232196   2.497   4.206   1.129 -2.1540  0.2274  0.8821
 3521TIP3   OH232197   0.561   6.140   2.481  0.7625  0.2111  0.0011
 3521TIP3    H132198   0.519   6.165   2.564  1.5559  0.7647  0.2431
 3521TIP3    H232199   0.489   6.141   2.418 -0.4574 -2.9198  1.1358
 3522TIP3   OH232200   1.523   3.638   8.215  0.5707 -0.0469  0.0750
 3522TIP3    H132201   1.446   3.683   8.248 -0.3025 -2.2279  1.1733
 3522TIP3    H232202   1.579   3.708   8.182 -0.5700  1.8489  1.9340
 3523TIP3   OH232203   1.710   1.562   0.758  0.1042 -0.1168  0.2425
 3523TIP3    H132204   1.709   1.570   0.663  1.1579  1.6390  0.3281
 3523TIP3    H232205   1.660   1.638   0.789 -0.3846 -0.7664  1.0981
 3524TIP3   OH232206   4.950   0.975   1.278  0.5730 -0.0316 -0.4431
 3524TIP3    H132207   5.006   0.928   1.216  3.5410  1.2617  1.0488
 3524TIP3    H232208   4.948   0.918   1.355  1.7012  0.8838  0.2900
 3525TIP3   OH232209   0.494   3.872   2.921 -0.5821  0.2437 -0.4004
 3525TIP3    H132210   0.546   3.946   2.890  1.2206 -0.5203  0.6885
 3525TIP3    H232211   0.441   3.847   2.845  1.3619  0.4287 -1.9054
 3526TIP3   OH232212   1.664   1.753   1.417  0.1154 -0.5400  0.3266
 3526TIP3    H132213   1.581   1.717   1.449  0.7176 -2.8375 -0.5331
 3526TIP3    H232214   1.707   1.788   1.495 -1.3210  0.0544  0.8926
 3527TIP3   OH232215   2.822   6.203   2.995  0.0645  0.4208 -0.0897
 3527TIP3    H132216   2.767   6.129   3.019 -3.2602  2.8665  0.4756
 3527TIP3    H232217   2.855   6.237   3.078  0.1014  0.6418 -0.1924
 3528TIP3   OH232218   0.700   1.553   2.629 -0.0308  0.3325 -0.0361
 3528TIP3    H132219   0.705   1.472   2.578  1.2059  0.3623  0.0064
 3528TIP3    H232220   0.789   1.565   2.663 -0.1250  1.8341 -0.2526
 3529TIP3   OH232221   1.290   6.506   3.537 -0.6418  0.1764 -0.0304
 3529TIP3    H132222   1.381   6.496   3.508 -0.1258 -0.0606  1.5276
 3529TIP3    H232223   1.296   6.508   3.633 -2.4903 -2.1988  0.2320
 3530TIP3   OH232224   0.687   4.241   3.105  0.8693 -0.1630  0.6967
 3530TIP3    H132225   0.692   4.328   3.145  1.8715 -0.4031  1.1232
 3530TIP3    H232226   0.599   4.210   3.126 -0.2128  1.4861 -1.0521
 3531TIP3   OH232227   3.398   1.961   1.649  0.2711 -0.8000  0.0180
 3531TIP3    H132228   3.476   1.950   1.595  0.5821  1.0794  0.0209
 3531TIP3    H232229   3.395   2.055   1.667 -2.2999 -0.7282 -0.4415
 3532TIP3   OH232230   0.757   4.447   3.699 -0.3815  0.2579 -0.2646
 3532TIP3    H132231   0.836   4.488   3.665 -0.8931  2.0464  0.5685
 3532TIP3    H232232   0.714   4.517   3.749 -1.8434 -1.0311  0.3439
 3533TIP3   OH232233   1.111   0.252   8.477  0.4362 -0.0626  0.2255
 3533TIP3    H132234   1.124   0.195   8.402  0.9085 -1.0016  1.0005
 3533TIP3    H232235   1.194   0.298   8.488 -0.1837  1.4301 -0.8806
 3534TIP3   OH232236   4.878   5.094   1.903  0.5732  0.0351  0.8405
 3534TIP3    H132237   4.887   5.137   1.818 -0.5762  1.6880  1.4948
 3534TIP3    H232238   4.955   5.038   1.910  1.7895  1.4668 -0.3823
 3535TIP3   OH232239   4.750   3.489   3.544 -0.2807  0.3787 -0.7453
 3535TIP3    H132240   4.709   3.562   3.497 -1.1582  1.2616  1.3002
 3535TIP3    H232241   4.826   3.527   3.588 -0.2233 -0.1406 -0.3851
 3536TIP3   OH232242   3.075   2.589   2.024 -0.2766 -0.2579 -0.0910
 3536TIP3    H132243   3.147   2.638   2.064  0.1253 -0.2611 -0.7848
 3536TIP3    H232244   3.084   2.501   2.059 -0.0002 -0.2337 -0.0975
 3537TIP3   OH232245   4.738   1.505   3.395  0.3073  0.2424  0.1524
 3537TIP3    H132246   4.676   1.526   3.465  0.2202 -0.4236  0.2866
 3537TIP3    H232247   4.772   1.418   3.419 -1.0362 -0.8168 -1.5232
 3538TIP3   OH232248   2.059   5.225   1.489 -0.2571 -0.0955  0.3741
 3538TIP3    H132249   2.140   5.195   1.532 -0.6943 -2.1326 -0.1051
 3538TIP3    H232250   2.068   5.195   1.398 -2.0754 -1.5850  0.6238
 3539TIP3   OH232251   4.561   4.375   3.541  0.1692 -0.2256 -0.4427
 3539TIP3    H132252   4.505   4.319   3.594 -0.5655  0.8317 -0.0620
 3539TIP3    H232253   4.509   4.393   3.462  0.7378 -0.7391 -0.9488
 3540TIP3   OH232254   5.520   5.719   1.703  0.4897 -0.0860  0.5824
 3540TIP3    H132255   5.477   5.801   1.679 -1.0079 -1.3809 -1.4951
 3540TIP3    H232256   5.570   5.695   1.625  2.9394  0.0161  2.0190
 3541TIP3   OH232257   2.749   2.509   3.680  0.3833 -0.1938 -0.9394
 3541TIP3    H132258   2.767   2.543   3.768 -2.2827 -0.3047 -0.2463
 3541TIP3    H232259   2.709   2.582   3.634  0.9133 -0.4089 -1.7437
 3542TIP3   OH232260   6.370   2.831   3.308 -0.3949  0.0957 -0.2348
 3542TIP3    H132261   6.346   2.886   3.234  0.3070 -0.7320 -1.1000
 3542TIP3    H232262   6.456   2.862   3.335 -1.5778  1.9619  1.8103
 3543TIP3   OH232263   0.458   3.214   8.681  0.1247  0.4082 -0.7320
 3543TIP3    H132264   0.399   3.192   8.753  0.8394  0.6433 -0.0586
 3543TIP3    H232265   0.401   3.250   8.613 -0.2574  3.0895  0.8870
 3544TIP3   OH232266   1.011   1.341   2.397  0.1915  0.0928 -0.3235
 3544TIP3    H132267   1.042   1.404   2.332  2.2103  1.2634  1.6312
 3544TIP3    H232268   1.080   1.338   2.464 -0.5169 -3.0726  0.4754
 3545TIP3   OH232269   1.902   3.013   0.395  0.0996 -0.3675 -0.3531
 3545TIP3    H132270   1.919   3.005   0.489 -0.6149  0.0744 -0.1821
 3545TIP3    H232271   1.986   2.990   0.354  0.9801  1.1964  0.4471
 3546TIP3   OH232272   0.593   2.293   3.491  0.2434  0.8026 -0.0938
 3546TIP3    H132273   0.615   2.377   3.532 -1.2594  1.4670 -0.5514
 3546TIP3    H232274   0.614   2.228   3.557 -0.3767  1.7076  1.0441
 3547TIP3   OH232275   3.122   0.353   2.244 -0.6387  0.1427 -0.1804
 3547TIP3    H132276   3.097   0.444   2.262 -1.5625 -0.3234  1.0219
 3547TIP3    H232277   3.055   0.301   2.287 -0.9778 -1.1337 -2.1391
 3548TIP3   OH232278   2.100   5.732   3.382  0.8238  0.1658  0.6811
 3548TIP3    H132279   2.084   5.703   3.472 -0.3104 -1.4538 -0.0070
 3548TIP3    H232280   2.169   5.675   3.349  0.6305  0.1806  0.2427
 3549TIP3   OH232281   4.378   0.740   0.843 -0.4405  0.2905  0.5304
 3549TIP3    H132282   4.450   0.716   0.785  0.3662  1.8748  0.8042
 3549TIP3    H232283   4.388   0.684   0.919 -1.2073 -1.4580 -0.6037
 3550TIP3   OH232284   6.359   3.521   1.966  0.4027 -0.0034  0.1030
 3550TIP3    H132285   6.334   3.460   2.036 -0.3098  0.2013  0.0367
 3550TIP3    H232286   6.454   3.522   1.969  0.4113 -0.6992  0.4671
 3551TIP3   OH232287   0.384   5.334   2.187 -0.4471 -0.4128  0.5144
 3551TIP3    H132288   0.397   5.316   2.280  1.0226 -0.6346  0.2861
 3551TIP3    H232289   0.386   5.430   2.180  2.5156 -0.3744  0.3843
 3552TIP3   OH232290   4.450   3.435   2.517  0.0048 -0.3990  0.2455
 3552TIP3    H132291   4.390   3.469   2.583 -0.0419  0.7006 -0.3399
 3552TIP3    H232292   4.430   3.341   2.513 -0.5537 -0.3338  1.1986
 3553TIP3   OH232293   2.773   1.461   1.427  1.0265 -0.6179 -0.0455
 3553TIP3    H132294   2.857   1.420   1.446  0.2033 -1.9900  0.8927
 3553TIP3    H232295   2.756   1.518   1.502  0.0530 -2.2158  1.0144
 3554TIP3   OH232296   0.769   6.516   1.613  0.0353 -0.1386 -0.0794
 3554TIP3    H132297   0.714   6.487   1.540  1.7324 -0.1008 -1.4445
 3554TIP3    H232298   0.858   6.513   1.578  1.0099 -0.9850  2.2934
 3555TIP3   OH232299   2.150   3.515   0.050 -0.1990  0.3146 -0.4531
 3555TIP3    H132300   2.181   3.511  -0.041  0.0450  2.8117 -0.5466
 3555TIP3    H232301   2.131   3.608   0.065 -1.4353 -0.2108  1.6788
 3556TIP3   OH232302   1.954   3.557   1.534 -0.2772 -0.1579 -0.0597
 3556TIP3    H132303   2.012   3.563   1.610 -0.9374  3.1743  0.3406
 3556TIP3    H232304   1.988   3.483   1.484  4.0839  1.2479  0.3873
 3557TIP3   OH232305   3.553   4.934   0.281  0.1737  0.2052 -0.0378
 3557TIP3    H132306   3.579   4.959   0.370 -0.0252  1.1173 -0.2230
 3557TIP3    H232307   3.462   4.905   0.290  0.4746 -0.6668  0.2165
 3558TIP3   OH232308   0.190   2.075   1.596  0.4315  0.0095  0.2652
 3558TIP3    H132309   0.128   2.002   1.588  0.5913  0.0077 -1.1345
 3558TIP3    H232310   0.136   2.153   1.588  0.3426  0.0515  1.1659
 3559TIP3   OH232311   6.472   5.229   1.655 -0.1987 -0.5820  0.5689
 3559TIP3    H132312   6.565   5.252   1.661 -0.2760 -0.5730  2.1752
 3559TIP3    H232313   6.472   5.133   1.654 -0.1522 -0.5816 -0.2065
 3560TIP3   OH232314   2.929   4.996   3.063  0.3425 -0.5200  0.4870
 3560TIP3    H132315   3.004   4.967   3.011  1.0327 -0.0773  1.2055
 3560TIP3    H232316   2.956   4.979   3.154  0.7274  2.1651  0.9545
 3561TIP3   OH232317   6.031   3.263   0.816 -0.5369  0.3595  0.2017
 3561TIP3    H132318   6.114   3.233   0.853 -0.4712  0.5333  0.1947
 3561TIP3    H232319   6.033   3.358   0.827  0.3232  0.6345 -1.9988
 3562TIP3   OH232320   0.797   4.652   0.093  0.2761 -0.0408  0.0864
 3562TIP3    H132321   0.747   4.614   0.020  0.9425 -1.0076  0.1245
 3562TIP3    H232322   0.733   4.661   0.163 -0.5308  1.4777 -0.7794
 3563TIP3   OH232323   6.220   3.772   0.545 -0.0461  0.5020  0.2392
 3563TIP3    H132324   6.200   3.753   0.453 -1.4347 -0.4613  0.7165
 3563TIP3    H232325   6.192   3.863   0.556 -1.9246 -0.0180  0.2162
 3564TIP3   OH232326   1.660   5.500   0.902  0.5071 -0.0626  0.1137
 3564TIP3    H132327   1.646   5.414   0.864  0.3560  0.3432 -0.7873
 3564TIP3    H232328   1.749   5.498   0.937  0.0986 -0.9512  1.1456
 3565TIP3   OH232329   4.926   2.110   1.417 -0.5043  0.6063  0.3602
 3565TIP3    H132330   4.884   2.027   1.397 -1.2109  1.1380 -0.4565
 3565TIP3    H232331   4.885   2.173   1.358  1.3468  1.1899 -0.3872
 3566TIP3   OH232332   1.289   6.017   3.480 -0.1863  0.0784  0.0049
 3566TIP3    H132333   1.307   5.941   3.424 -0.6132  0.8539 -1.2336
 3566TIP3    H232334   1.270   6.088   3.418 -1.3359  0.8164  1.1577
 3567TIP3   OH232335   5.571   0.028   0.356  0.3707  0.1917 -0.3618
 3567TIP3    H132336   5.621  -0.019   0.289 -0.1838  0.5190 -1.0173
 3567TIP3    H232337   5.634   0.042   0.427  0.4525 -1.8764  0.0478
 3568TIP3   OH232338   5.867   0.779   1.281 -0.0666 -0.2872 -0.1582
 3568TIP3    H132339   5.875   0.718   1.208  0.2259 -2.3563  1.5002
 3568TIP3    H232340   5.957   0.795   1.309 -0.2134  0.0011  0.1516
 3569TIP3   OH232341   4.047   3.381   1.754  0.3126 -0.0628 -0.3266
 3569TIP3    H132342   4.059   3.325   1.677  1.0991  0.2997 -0.4673
 3569TIP3    H232343   4.111   3.349   1.817  0.7249  0.6437 -0.3854
 3570TIP3   OH232344   4.832   3.533   0.522 -0.3872 -0.3479  0.2878
 3570TIP3    H132345   4.890   3.471   0.566 -0.2192 -0.4003 -0.0054
 3570TIP3    H232346   4.878   3.556   0.442 -0.3013  0.3902  0.5359
 3571TIP3   OH232347   0.927   4.436   2.083 -0.3355  0.3564  0.2675
 3571TIP3    H132348   0.899   4.351   2.118  0.1592  0.3832  0.7357
 3571TIP3    H232349   1.019   4.443   2.108 -0.1193  0.6227 -0.5733
 3572TIP3   OH232350   1.141   5.023   2.084 -0.0041 -0.3985 -0.1345
 3572TIP3    H132351   1.138   5.065   2.170  0.6230 -1.0498  0.2140
 3572TIP3    H232352   1.200   5.079   2.033  0.3830 -0.5320  0.1582
 3573TIP3   OH232353   3.892   2.204   0.738 -0.3223  0.3493  0.5921
 3573TIP3    H132354   3.980   2.174   0.715 -0.6346 -1.0864  1.1436
 3573TIP3    H232355   3.842   2.194   0.657 -0.0814  0.8292  0.3753
 3574TIP3   OH232356   5.731   3.115   2.390 -0.1284  0.0681 -0.2235
 3574TIP3    H132357   5.717   3.148   2.479 -0.6237 -1.1332  0.1569
 3574TIP3    H232358   5.657   3.057   2.373  1.5688 -2.2797 -0.1785
 3575TIP3   OH232359   3.240   4.674   3.309 -0.3746 -0.2409 -0.1867
 3575TIP3    H132360   3.323   4.627   3.311 -1.2392 -1.8374  0.1623
 3575TIP3    H232361   3.256   4.754   3.358  1.1998 -0.0742 -0.9291
 3576TIP3   OH232362   3.432   2.062   2.798  0.3054 -0.5819 -0.4519
 3576TIP3    H132363   3.496   2.021   2.856 -1.3319 -1.7493  0.6436
 3576TIP3    H232364   3.432   2.154   2.823  0.3970 -0.8718  0.6974
 3577TIP3   OH232365   3.453   5.037   2.182 -0.0118 -0.0137  0.0099
 3577TIP3    H132366   3.376   5.060   2.130  0.4239  0.5079 -0.4176
 3577TIP3    H232367   3.512   5.112   2.172  0.8468 -0.7034 -0.2486
 3578TIP3   OH232368   3.740   1.416   2.336 -0.2964 -0.2775 -0.8725
 3578TIP3    H132369   3.752   1.506   2.365  0.7043 -0.5107 -0.5397
 3578TIP3    H232370   3.743   1.421   2.240 -0.0505  0.0186 -0.8488
 3579TIP3   OH232371   0.996   6.370   1.471  0.7259  0.1517  0.5348
 3579TIP3    H132372   1.017   6.348   1.381  0.7026 -1.2737  0.8518
 3579TIP3    H232373   1.018   6.291   1.521 -0.1289  0.5746  1.6387
 3580TIP3   OH232374   4.955   5.418   0.370  0.0579  0.3386  0.4598
 3580TIP3    H132375   5.051   5.413   0.368 -0.0097 -3.1518  0.4281
 3580TIP3    H232376   4.929   5.425   0.278  0.2339  2.4914  0.5270
 3581TIP3   OH232377   1.917   3.108   2.447  0.0648 -0.7562  0.4463
 3581TIP3    H132378   1.943   3.121   2.355  0.7154  0.8420  0.8149
 3581TIP3    H232379   1.834   3.154   2.454  0.2513 -0.4635  0.7633
 3582TIP3   OH232380   5.189   4.130   2.889 -0.5182  0.0809 -0.4581
 3582TIP3    H132381   5.126   4.070   2.850  1.5783 -0.9780 -2.4643
 3582TIP3    H232382   5.199   4.100   2.979 -0.8988 -1.4184 -0.8856
 3583TIP3   OH232383   5.806   4.828   7.956  0.4734  0.2718  0.1684
 3583TIP3    H132384   5.748   4.762   7.993 -0.9775  1.1987 -0.3876
 3583TIP3    H232385   5.894   4.795   7.976 -0.1997 -1.4611  0.5110
 3584TIP3   OH232386   3.298   2.337   0.643  0.4120  0.4191 -0.8272
 3584TIP3    H132387   3.386   2.367   0.622  0.2851  0.4736 -1.3097
 3584TIP3    H232388   3.246   2.362   0.566 -0.0424  0.4762 -0.5050
 3585TIP3   OH232389   4.761   1.603   0.276  0.3332  0.0153  0.2605
 3585TIP3    H132390   4.707   1.673   0.314  0.4498 -0.5722  1.5844
 3585TIP3    H232391   4.701   1.553   0.221 -1.5448 -2.6747  4.2747
 3586TIP3   OH232392   3.712   0.552   0.653 -0.1074  0.4855  0.0505
 3586TIP3    H132393   3.645   0.496   0.692 -0.2573  0.0512 -0.8108
 3586TIP3    H232394   3.795   0.514   0.683 -0.2274  0.4640  0.3569
 3587TIP3   OH232395   6.027   1.823   2.648  0.3465  0.6356 -0.3558
 3587TIP3    H132396   5.935   1.815   2.622  1.0835 -1.3307 -2.7721
 3587TIP3    H232397   6.035   1.767   2.725 -0.2477 -0.2135 -0.8901
 3588TIP3   OH232398   5.990   1.870   8.748  0.4554 -1.0872  0.3234
 3588TIP3    H132399   5.952   1.829   8.826 -0.0482  0.8951  1.1571
 3588TIP3    H232400   5.919   1.872   8.684 -0.1346  0.2936  0.9952
 3589TIP3   OH232401   2.844   5.866   0.610  0.1581 -0.3276 -0.2551
 3589TIP3    H132402   2.799   5.935   0.657 -2.2717 -1.8732 -0.1260
 3589TIP3    H232403   2.917   5.909   0.566 -1.8268  2.4987 -1.0198
 3590TIP3   OH232404   3.616   4.628   2.847 -0.6152 -0.0999 -0.3512
 3590TIP3    H132405   3.565   4.639   2.767 -0.6638 -0.9905 -0.4568
 3590TIP3    H232406   3.697   4.585   2.818 -0.1661  0.5433 -0.0681
 3591TIP3   OH232407   4.659   5.208   3.230  0.2407 -0.8504 -0.3532
 3591TIP3    H132408   4.667   5.120   3.191 -0.3008 -1.7511  1.4625
 3591TIP3    H232409   4.722   5.207   3.302  1.5690  0.9542 -1.4028
 3592TIP3   OH232410   6.110   1.787   3.164 -0.9422 -0.6241 -0.4806
 3592TIP3    H132411   6.158   1.826   3.236 -1.3258  0.9595 -1.0304
 3592TIP3    H232412   6.031   1.751   3.204 -1.3680  0.6371 -0.1494
 3593TIP3   OH232413   5.824   3.407   8.400  0.4151 -0.1766 -0.0064
 3593TIP3    H132414   5.848   3.357   8.322  0.2789  0.0077 -0.1674
 3593TIP3    H232415   5.870   3.363   8.471  0.8837 -0.0814 -0.2483
 3594TIP3   OH232416   0.067   2.339   1.594  1.0494  0.3449  0.0209
 3594TIP3    H132417  -0.011   2.395   1.590 -0.3332 -1.5016 -2.4050
 3594TIP3    H232418   0.129   2.381   1.535  1.5388  1.2980  1.1872
 3595TIP3   OH232419   4.313   2.306   1.391  0.5078  0.3108 -0.6802
 3595TIP3    H132420   4.251   2.370   1.358  1.5283  1.1410 -1.0210
 3595TIP3    H232421   4.396   2.329   1.351  0.9163 -1.1979 -0.7655
 3596TIP3   OH232422   3.467   3.432   1.503 -0.0923 -0.1277 -0.2678
 3596TIP3    H132423   3.447   3.378   1.580 -3.4238  0.0359 -0.8556
 3596TIP3    H232424   3.521   3.376   1.448 -1.1855 -1.8981  0.3586
 3597TIP3   OH232425   0.564   5.999   3.688 -0.0432 -0.1471  0.4744
 3597TIP3    H132426   0.592   6.050   3.765 -2.1591 -0.5334  1.5822
 3597TIP3    H232427   0.480   6.037   3.664 -1.2846 -2.5444  0.8030
 3598TIP3   OH232428   6.633   1.873   0.275  0.2648  0.0516  0.2387
 3598TIP3    H132429   6.570   1.803   0.257  0.5390 -0.2588  0.4582
 3598TIP3    H232430   6.693   1.870   0.201  0.6137 -0.3341  0.5330
 3599TIP3   OH232431   6.620   3.859   1.329  0.4665  0.2820 -0.1079
 3599TIP3    H132432   6.615   3.763   1.323  0.6973  0.2945 -0.5454
 3599TIP3    H232433   6.542   3.890   1.283  0.8306  0.3193 -0.7113
 3600TIP3   OH232434   6.265   1.300   8.636 -0.0942  0.1700  0.0008
 3600TIP3    H132435   6.206   1.364   8.596  0.2170  1.1732  1.0995
 3600TIP3    H232436   6.302   1.252   8.561 -2.0572 -0.2981 -0.7162
 3601TIP3   OH232437   4.236   1.289   0.935  0.2209 -0.0925 -0.4541
 3601TIP3    H132438   4.316   1.311   0.983  1.0709 -1.1813 -1.3176
 3601TIP3    H232439   4.209   1.204   0.969 -1.7157  1.0833  1.2008
 3602TIP3   OH232440   4.516   2.839   2.376 -0.0810 -1.2323 -0.4497
 3602TIP3    H132441   4.457   2.905   2.339 -0.3778 -0.2662  1.5995
 3602TIP3    H232442   4.590   2.837   2.315 -0.4908  0.3080 -1.0599
 3603TIP3   OH232443   4.833   5.144   1.264 -0.0395  0.2246 -0.1382
 3603TIP3    H132444   4.790   5.109   1.342 -0.0777  2.5209  0.9539
 3603TIP3    H232445   4.832   5.239   1.277  1.2954  0.5873 -2.2532
 3604TIP3   OH232446   5.313   2.091   3.781 -0.3065 -0.3163  0.8890
 3604TIP3    H132447   5.238   2.129   3.827  0.0575 -1.0809  2.1649
 3604TIP3    H232448   5.307   2.126   3.692 -1.4047  0.6983  1.3334
 3605TIP3   OH232449   4.836   4.286   2.683  0.0124  0.0382  0.3207
 3605TIP3    H132450   4.762   4.342   2.661  1.5123  2.2613  0.6768
 3605TIP3    H232451   4.804   4.232   2.756 -0.8925  1.8683  1.3471
 3606TIP3   OH232452   6.419   2.099   1.565  0.2140  0.1364  0.0828
 3606TIP3    H132453   6.430   2.023   1.508  2.5945  0.5776 -0.1694
 3606TIP3    H232454   6.405   2.173   1.505 -2.6203 -0.0869  0.3408
 3607TIP3   OH232455   5.612   1.281   3.073 -0.0317  0.4374  0.2502
 3607TIP3    H132456   5.592   1.254   2.983 -0.2367 -1.5760  0.8453
 3607TIP3    H232457   5.586   1.373   3.076 -0.8512  0.3207 -1.5023
 3608TIP3   OH232458   1.441   5.429   0.612 -0.2612  0.3364 -0.6516
 3608TIP3    H132459   1.399   5.508   0.580  0.4975  0.6328 -0.9372
 3608TIP3    H232460   1.506   5.460   0.676 -0.4061 -0.1005 -0.2891
 3609TIP3   OH232461   4.651   6.544   2.646  0.2353 -0.5478 -0.6016
 3609TIP3    H132462   4.620   6.581   2.563 -1.2981 -1.4307 -0.4509
 3609TIP3    H232463   4.595   6.582   2.712  0.1032 -1.4140 -0.2006
 3610TIP3   OH232464   1.454   0.760   2.012  0.5395 -0.7935  0.4327
 3610TIP3    H132465   1.364   0.727   2.012 -0.6199  2.0528 -0.2595
 3610TIP3    H232466   1.467   0.794   2.101  0.7581 -0.8071  0.4072
 3611TIP3   OH232467   1.722   2.274   3.449 -0.6291 -0.2831  0.1149
 3611TIP3    H132468   1.677   2.354   3.421  3.9691  2.0576 -1.5708
 3611TIP3    H232469   1.706   2.211   3.379 -0.1450  0.9758 -1.1698
 3612TIP3   OH232470   3.801   1.724   3.500  0.1091 -0.0691  0.3036
 3612TIP3    H132471   3.841   1.683   3.576 -1.0294 -2.7843 -0.4336
 3612TIP3    H232472   3.856   1.697   3.426 -0.2017  0.4631 -0.1315
 3613TIP3   OH232473   4.482   2.750   0.057  0.1222  0.5025  0.2328
 3613TIP3    H132474   4.450   2.661   0.072 -0.6104  0.7820  0.3638
 3613TIP3    H232475   4.572   2.738   0.025 -0.2855 -0.3219 -0.6410
 3614TIP3   OH232476   4.054   2.247   8.422 -0.0289 -0.3988 -0.5382
 3614TIP3    H132477   4.139   2.235   8.462  0.1536  0.2485 -0.7195
 3614TIP3    H232478   4.002   2.295   8.487  0.6440  1.7402 -1.4753
 3615TIP3   OH232479   5.953   3.593   3.175 -0.6436  0.2733 -0.1329
 3615TIP3    H132480   6.017   3.534   3.135 -1.4810 -0.2491 -0.7313
 3615TIP3    H232481   5.969   3.586   3.269  0.9109  1.0062 -0.3009
 3616TIP3   OH232482   1.508   4.807   2.448 -0.2400  0.2980  0.2712
 3616TIP3    H132483   1.589   4.846   2.417 -0.7760  0.9364 -0.3598
 3616TIP3    H232484   1.530   4.715   2.466  0.4212  0.2730 -0.6475
 3617TIP3   OH232485   6.473   3.351   3.049 -0.2207  0.2328  0.0629
 3617TIP3    H132486   6.549   3.389   3.094  0.6067 -1.6660  0.3969
 3617TIP3    H232487   6.455   3.411   2.977  0.0515  2.0060  1.3932
 3618TIP3   OH232488   0.558   0.907   0.081  0.2750  0.5823  0.2320
 3618TIP3    H132489   0.561   0.939  -0.009  0.0014  0.5755  0.2187
 3618TIP3    H232490   0.472   0.867   0.089  0.3617  0.4373  0.4487
 3619TIP3   OH232491   4.798   4.733   0.705  0.6400  0.3731 -0.4916
 3619TIP3    H132492   4.863   4.750   0.773 -1.6265  0.6715  1.7278
 3619TIP3    H232493   4.753   4.816   0.693 -0.5626 -0.2701 -0.5869
 3620TIP3   OH232494   3.475   1.719   1.947  0.0761 -0.4731 -0.5810
 3620TIP3    H132495   3.508   1.692   1.862 -0.8410 -0.9813 -0.7929
 3620TIP3    H232496   3.525   1.798   1.969  1.4855 -1.2770 -0.8109
 3621TIP3   OH232497   6.497   1.246   4.236  0.7085  0.0356  0.6265
 3621TIP3    H132498   6.496   1.225   4.329  0.7517  0.1464  0.6528
 3621TIP3    H232499   6.581   1.290   4.222  1.4155 -1.3864  0.2132
 3622TIP3   OH232500   4.130   2.375   3.581  0.4058 -0.3684  0.2972
 3622TIP3    H132501   4.133   2.396   3.488  0.6626  0.0147  0.3879
 3622TIP3    H232502   4.038   2.383   3.605  0.4748  0.5760  0.3026
 3623TIP3   OH232503   3.987   0.838   2.127  0.6325 -0.1040  0.2868
 3623TIP3    H132504   4.023   0.893   2.196 -0.3308  0.0147  0.7057
 3623TIP3    H232505   3.901   0.875   2.108 -0.0009 -1.3862  0.5140
 3624TIP3   OH232506   6.717   1.781   1.195 -0.3424 -0.0902  0.3751
 3624TIP3    H132507   6.641   1.734   1.230  0.4943 -0.9556  1.0756
 3624TIP3    H232508   6.712   1.867   1.235 -2.4894  0.8802 -1.7246
 3625TIP3   OH232509   6.081   4.876   0.201  0.2761  0.8533 -0.1470
 3625TIP3    H132510   6.041   4.800   0.242  0.6271  0.4420 -0.5646
 3625TIP3    H232511   6.089   4.853   0.108 -0.3154  1.6914 -0.4140
 3626TIP3   OH232512   6.647   1.233   3.982 -0.5505 -0.7942 -0.1468
 3626TIP3    H132513   6.658   1.278   4.066  1.4059 -0.4030 -0.5594
 3626TIP3    H232514   6.562   1.263   3.949  0.2128  1.8554  0.0682
 3627TIP3   OH232515   4.127   0.021   7.803 -0.1150  0.2213 -0.0958
 3627TIP3    H132516   4.205   0.022   7.747  0.5145  0.5713  0.7543
 3627TIP3    H232517   4.053   0.025   7.742  0.5014 -0.9856 -0.9504
 3628TIP3   OH232518   6.295   6.592   2.317 -0.1353  0.6788 -0.6301
 3628TIP3    H132519   6.256   6.620   2.235  3.4011 -1.2428 -3.2311
 3628TIP3    H232520   6.389   6.599   2.302  0.7540 -2.8305  2.0417
 3629TIP3   OH232521   3.570   3.413   0.038 -0.0656 -0.0682 -0.4426
 3629TIP3    H132522   3.615   3.366  -0.032 -0.7536 -0.4143 -0.6619
 3629TIP3    H232523   3.638   3.430   0.104  0.4952 -0.0991 -1.0090
 3630TIP3   OH232524   0.771   2.509   0.530 -0.2302  0.2810 -0.7815
 3630TIP3    H132525   0.815   2.426   0.516  1.0332  0.5679  1.1042
 3630TIP3    H232526   0.680   2.486   0.549 -0.3748 -0.4898 -2.2707
 3631TIP3   OH232527   4.955   3.970   2.791 -0.0059 -0.5755  0.6729
 3631TIP3    H132528   4.970   4.009   2.705 -1.0121 -1.8945 -0.1303
 3631TIP3    H232529   4.867   3.997   2.815 -0.3605 -1.5643  0.5232
 3632TIP3   OH232530   1.029   5.853   1.728 -0.0700 -0.0327 -0.2586
 3632TIP3    H132531   1.050   5.926   1.786  0.3726 -0.1143 -0.3124
 3632TIP3    H232532   1.031   5.776   1.785 -1.4651  0.0954 -0.0060
 3633TIP3   OH232533   5.017   2.702   3.971 -0.0384  0.0465 -0.5172
 3633TIP3    H132534   5.097   2.721   3.922  0.1084 -0.7739 -0.6075
 3633TIP3    H232535   4.967   2.644   3.914 -1.3163  1.5623 -1.0271
 3634TIP3   OH232536   5.765   2.286   1.310  0.4083 -0.0848 -0.3283
 3634TIP3    H132537   5.753   2.370   1.265 -1.5085 -0.0239  0.1861
 3634TIP3    H232538   5.802   2.309   1.395 -1.2336  0.4170  0.2899
 3635TIP3   OH232539   3.049   1.508   2.021  0.7491 -0.7329  0.3614
 3635TIP3    H132540   3.107   1.552   1.960  0.8670 -0.3639  0.7361
 3635TIP3    H232541   3.101   1.499   2.101  0.0141  0.3752  0.9835
 3636TIP3   OH232542   0.592   3.173   0.908  0.4320  0.4050  0.0376
 3636TIP3    H132543   0.615   3.206   0.995 -2.6774  2.5501  0.2112
 3636TIP3    H232544   0.619   3.243   0.849 -0.4543  0.4515 -0.3238
 3637TIP3   OH232545   4.404   0.010   3.448  0.1096 -0.0601  0.4414
 3637TIP3    H132546   4.356  -0.002   3.366 -1.3612 -0.9503  1.3646
 3637TIP3    H232547   4.369  -0.058   3.506  2.4063 -0.6258  1.2540
 3638TIP3   OH232548   0.485   2.553   8.381  0.3073  1.1486  0.4526
 3638TIP3    H132549   0.458   2.525   8.294 -0.4462 -0.6479  1.2119
 3638TIP3    H232550   0.579   2.567   8.374  0.1643  1.6133 -0.7837
 3639TIP3   OH232551   5.992   2.602   2.535 -0.3847  0.3022  0.0863
 3639TIP3    H132552   5.941   2.565   2.463  0.1562  0.3640 -0.3286
 3639TIP3    H232553   5.939   2.583   2.613  0.0513 -1.6931 -0.0519
 3640TIP3   OH232554   3.035   5.402   2.184 -0.2684  0.4477  0.2750
 3640TIP3    H132555   2.949   5.365   2.167  0.4095 -0.5810 -1.1589
 3640TIP3    H232556   3.046   5.395   2.279 -1.9542  1.1086  0.5526
 3641TIP3   OH232557   5.587   1.793   0.406  0.1050  0.6690  0.1410
 3641TIP3    H132558   5.555   1.884   0.404 -0.8191  0.3628  0.5540
 3641TIP3    H232559   5.556   1.759   0.490  0.2696 -0.0958 -0.1078
 3642TIP3   OH232560   6.170   0.163   8.308  0.5507 -0.0117  0.0077
 3642TIP3    H132561   6.094   0.121   8.347  0.2162 -0.0345 -0.6620
 3642TIP3    H232562   6.221   0.194   8.383  0.3352 -0.7793  0.4832
 3643TIP3   OH232563   2.413   4.975   1.756  0.1888  0.1225  0.5148
 3643TIP3    H132564   2.400   4.903   1.817 -0.1773  0.0545  0.3565
 3643TIP3    H232565   2.412   5.054   1.811 -1.6290  0.1886  0.4375
 3644TIP3   OH232566   2.219   6.648   2.594  0.0650 -0.3338  0.1001
 3644TIP3    H132567   2.288   6.604   2.644 -0.3938  1.4853  2.5206
 3644TIP3    H232568   2.263   6.680   2.515  1.5651 -0.7393  0.7408
 3645TIP3   OH232569   4.354   5.043   1.696  0.7128 -0.3584  0.7033
 3645TIP3    H132570   4.346   5.025   1.790 -0.7427 -0.0953  0.6468
 3645TIP3    H232571   4.351   4.957   1.655  0.6284 -0.4229  0.8433
 3646TIP3   OH232572   3.916   0.578   2.465 -0.3174 -0.6338 -0.4177
 3646TIP3    H132573   3.875   0.657   2.430 -0.2149  0.1920  1.2165
 3646TIP3    H232574   4.007   0.602   2.481 -0.5678 -0.6662  1.2196
 3647TIP3   OH232575   3.521   0.188   3.670 -0.2381  0.2438  0.0211
 3647TIP3    H132576   3.439   0.236   3.659 -0.3417 -0.1263 -0.9006
 3647TIP3    H232577   3.565   0.231   3.744  0.3526  2.7020 -1.6702
 3648TIP3   OH232578   6.529   5.273   1.144 -0.4190 -0.0204  0.7340
 3648TIP3    H132579   6.609   5.304   1.186  0.6664 -0.1569 -1.0917
 3648TIP3    H232580   6.559   5.206   1.082 -1.7057  1.0364 -1.1589
 3649TIP3   OH232581   3.011   4.738   3.665 -0.2305  0.0378 -0.2413
 3649TIP3    H132582   2.988   4.674   3.598  0.5736 -0.0495 -0.4456
 3649TIP3    H232583   2.942   4.804   3.660 -0.6119 -0.3831 -0.5996
 3650TIP3   OH232584   4.955   4.047   4.101  0.4042 -0.2968  0.3479
 3650TIP3    H132585   4.949   3.990   4.178  0.0466 -1.2086 -0.3409
 3650TIP3    H232586   4.864   4.065   4.077  0.4949 -0.9346 -0.5187
 3651TIP3   OH232587   1.140   2.319   0.902 -0.3884  0.5694  0.4418
 3651TIP3    H132588   1.121   2.268   0.823  1.2345 -1.3248  1.2032
 3651TIP3    H232589   1.199   2.388   0.872 -1.1830  0.9627 -0.2772
 3652TIP3   OH232590   0.924   4.830   2.474 -0.1713  0.2276 -0.5187
 3652TIP3    H132591   0.977   4.887   2.531  0.2755  1.9495 -2.5261
 3652TIP3    H232592   0.857   4.794   2.532  1.1975  0.6280  1.4113
 3653TIP3   OH232593   5.519   0.254   0.973 -0.3753  0.0255  0.0467
 3653TIP3    H132594   5.499   0.167   1.008 -1.4195 -0.5461 -1.8095
 3653TIP3    H232595   5.609   0.247   0.941 -0.1882 -0.1246  0.5988
 3654TIP3   OH232596   0.017   6.026   3.071  0.4383  0.0531 -0.2465
 3654TIP3    H132597  -0.020   6.114   3.061 -1.9415 -0.9497 -1.0418
 3654TIP3    H232598   0.112   6.039   3.066  0.2827  2.7643  1.5346
 3655TIP3   OH232599   1.033   6.492   2.152  0.2855 -0.0366  0.2887
 3655TIP3    H132600   1.053   6.565   2.093 -0.1089  0.5087  0.8199
 3655TIP3    H232601   0.971   6.438   2.102  0.8597 -0.2066 -0.2469
 3656TIP3   OH232602   2.500   5.452   1.261 -0.1980  0.8661 -0.0891
 3656TIP3    H132603   2.532   5.491   1.179  1.8493  1.4039  0.9276
 3656TIP3    H232604   2.554   5.490   1.329  1.4426 -3.0705  1.1122
 3657TIP3   OH232605   0.310   4.415   0.741 -0.1342  0.1338  0.1757
 3657TIP3    H132606   0.375   4.402   0.810 -1.4226 -3.3826  0.9520
 3657TIP3    H232607   0.238   4.462   0.784 -0.3060 -0.7137  0.8345
 3658TIP3   OH232608   5.914   0.643   8.702 -0.6680  0.8262  0.0393
 3658TIP3    H132609   5.976   0.579   8.668  1.4898  1.0425  3.2249
 3658TIP3    H232610   5.966   0.703   8.755 -3.2354  2.6626  0.7344
 3659TIP3   OH232611   3.403   3.105   8.685  0.0790  0.4126  0.0583
 3659TIP3    H132612   3.317   3.141   8.707  0.4847  0.4412  1.7094
 3659TIP3    H232613   3.445   3.173   8.633  0.2057  1.6524  1.7447
 3660TIP3   OH232614   0.165   1.763   2.657 -0.5979 -0.1108  0.1034
 3660TIP3    H132615   0.239   1.709   2.632 -1.2403 -0.4450 -1.1326
 3660TIP3    H232616   0.202   1.828   2.717  0.4346 -1.0547  0.5116
 3661TIP3   OH232617   0.396   2.950   0.692  0.1848 -0.0428  0.1824
 3661TIP3    H132618   0.474   2.997   0.720 -0.5682  1.6752 -0.4328
 3661TIP3    H232619   0.420   2.910   0.609  0.1465  1.3251 -0.5129
 3662TIP3   OH232620   4.613   6.604   8.481  0.0691 -0.7795  0.2307
 3662TIP3    H132621   4.635   6.690   8.447 -0.9866 -0.3727  0.5374
 3662TIP3    H232622   4.597   6.551   8.403 -1.4237 -0.1015  0.0440
 3663TIP3   OH232623   1.382   5.640   3.040  0.3509 -0.2148 -0.1901
 3663TIP3    H132624   1.447   5.593   2.989  1.2019  1.8751 -1.1351
 3663TIP3    H232625   1.426   5.720   3.067 -2.2114  2.0109 -2.1176
 3664TIP3   OH232626   1.203   2.149   8.016 -0.3155  0.5257  0.1769
 3664TIP3    H132627   1.280   2.095   8.033 -0.5892 -0.4483 -1.4160
 3664TIP3    H232628   1.229   2.206   7.944 -1.3451 -0.5462 -1.1076
 3665TIP3   OH232629   6.336   3.686   1.194 -0.5999  0.1810  0.3104
 3665TIP3    H132630   6.309   3.708   1.283 -0.2095 -0.1245  0.5117
 3665TIP3    H232631   6.334   3.769   1.147  1.6972  0.8894  1.2748
 3666TIP3   OH232632   1.788   1.717   2.554  0.0631  0.1390 -0.8312
 3666TIP3    H132633   1.846   1.720   2.478 -0.5348  1.6909 -1.2733
 3666TIP3    H232634   1.780   1.624   2.575 -1.4404 -0.6205 -4.0039
 3667TIP3   OH232635   4.509   4.033   0.507 -0.0680  0.2012  0.0873
 3667TIP3    H132636   4.511   4.119   0.464  4.4286  0.2703 -0.0770
 3667TIP3    H232637   4.497   3.971   0.436 -1.9694  0.5533  0.0436
 3668TIP3   OH232638   0.947   0.690   2.148 -0.1122 -0.4484  0.1193
 3668TIP3    H132639   0.947   0.700   2.243 -1.5706 -0.2125  0.1179
 3668TIP3    H232640   0.985   0.772   2.115 -2.3202  0.7762  0.4429
 3669TIP3   OH232641   3.509   2.585   2.036  0.0585 -0.3448 -0.6757
 3669TIP3    H132642   3.446   2.653   2.012  0.2916  0.2139  0.2448
 3669TIP3    H232643   3.470   2.504   2.003 -0.0823  0.2600 -2.0436
 3670TIP3   OH232644   6.296   4.016   8.658 -0.0177  0.1028  0.2141
 3670TIP3    H132645   6.381   4.038   8.695  0.3584  0.1673 -0.6732
 3670TIP3    H232646   6.315   3.982   8.571 -0.6654 -2.5109  1.0034
 3671TIP3   OH232647   4.920   3.025   3.671 -0.2587  0.8613 -0.2666
 3671TIP3    H132648   4.923   3.074   3.589 -1.2882  0.8059 -0.3439
 3671TIP3    H232649   4.973   2.947   3.653 -1.7568  0.0594 -1.4249
 3672TIP3   OH232650   6.570   5.484   2.197  0.1770 -0.1956  0.4120
 3672TIP3    H132651   6.503   5.545   2.226 -0.0239 -1.1250  2.0430
 3672TIP3    H232652   6.528   5.398   2.203  0.2818 -0.5179 -2.3180
 3673TIP3   OH232653   6.550   4.351   8.629 -0.7831 -0.0588 -0.2138
 3673TIP3    H132654   6.543   4.364   8.534 -1.2299 -2.0641 -0.5100
 3673TIP3    H232655   6.626   4.294   8.639  0.0902  1.2483  0.7828
 3674TIP3   OH232656   1.002   3.245   3.443  0.0547 -0.0512 -0.2865
 3674TIP3    H132657   0.928   3.187   3.458 -0.3791  0.0311 -1.9125
 3674TIP3    H232658   0.963   3.331   3.425  0.6641  0.6688  1.5732
 3675TIP3   OH232659   5.605   5.885   1.896  0.1611 -0.3953 -0.2729
 3675TIP3    H132660   5.597   5.799   1.854  2.3914 -0.6212 -0.3629
 3675TIP3    H232661   5.664   5.934   1.839 -1.8538  1.6026 -0.7465
 3676TIP3   OH232662   0.113   3.677   3.241 -0.2303 -0.1259 -0.1228
 3676TIP3    H132663   0.040   3.651   3.185 -3.1011  0.0202  3.2411
 3676TIP3    H232664   0.112   3.773   3.238 -2.4854  0.0204  2.4316
 3677TIP3   OH232665   3.156   6.811   1.963  0.7426  0.2832  0.4383
 3677TIP3    H132666   3.164   6.746   1.894 -0.9558  0.4233  0.0619
 3677TIP3    H232667   3.117   6.887   1.920 -1.9616 -0.1986  1.8002
 3678TIP3   OH232668   0.844   3.906   8.406 -0.5866  0.3779 -0.2381
 3678TIP3    H132669   0.862   3.958   8.327 -0.9573 -1.4956 -1.6203
 3678TIP3    H232670   0.926   3.860   8.424 -0.4316  0.9702  0.6469
 3679TIP3   OH232671   3.388   4.814   1.053 -0.5914  0.4287  0.0396
 3679TIP3    H132672   3.426   4.740   1.100  2.2466  0.9610 -1.1879
 3679TIP3    H232673   3.320   4.776   0.997  0.4899 -1.1901 -0.2282
 3680TIP3   OH232674   5.459   6.430   1.915 -0.9184  0.3347 -0.6400
 3680TIP3    H132675   5.507   6.508   1.890 -0.9521  0.1491 -1.2899
 3680TIP3    H232676   5.418   6.453   1.999 -0.8215  0.9627 -0.7633
 3681TIP3   OH232677   2.017   4.452   1.746 -0.2443 -0.0562 -0.0222
 3681TIP3    H132678   1.986   4.542   1.731  0.6674  0.1573 -0.7612
 3681TIP3    H232679   1.942   4.406   1.783 -0.3204  1.3656  1.7069
 3682TIP3   OH232680   1.459   2.056   2.180  0.5233 -0.4944  0.0955
 3682TIP3    H132681   1.503   2.110   2.115  1.4185  0.0272  1.1015
 3682TIP3    H232682   1.481   2.097   2.264 -0.7747 -1.0249  0.7154
 3683TIP3   OH232683   3.697   6.128   0.009 -0.2978 -0.3001 -0.0815
 3683TIP3    H132684   3.692   6.087   0.095 -0.7630 -2.2369 -0.9871
 3683TIP3    H232685   3.606   6.151  -0.012 -0.3349 -0.7927 -0.4823
 3684TIP3   OH232686   3.831   5.505   0.356  0.1827 -0.7489  0.1227
 3684TIP3    H132687   3.787   5.581   0.395  2.8151 -0.0323  1.9297
 3684TIP3    H232688   3.875   5.539   0.278 -1.8356 -1.3497 -1.3613
 3685TIP3   OH232689   2.312   4.914   3.006 -0.4078 -0.1899  0.1598
 3685TIP3    H132690   2.306   4.886   3.098 -1.1521 -0.2653  0.0934
 3685TIP3    H232691   2.340   5.006   3.011  1.2236 -0.6551  0.4040
 3686TIP3   OH232692   0.947   5.519   2.268  0.0520 -0.4026 -0.1703
 3686TIP3    H132693   0.876   5.496   2.208  1.0084 -0.3286 -1.3586
 3686TIP3    H232694   0.924   5.606   2.300  1.6846  1.6351 -3.9210
 3687TIP3   OH232695   0.561   5.687   1.769 -0.6508  0.1485  0.0409
 3687TIP3    H132696   0.589   5.689   1.678  0.9188 -0.0774  0.4830
 3687TIP3    H232697   0.475   5.729   1.769  0.3665  2.4179 -1.1898
 3688TIP3   OH232698   6.169   1.474   3.956  0.6009  0.0100  0.6767
 3688TIP3    H132699   6.099   1.538   3.941  0.4328 -0.3149  0.0587
 3688TIP3    H232700   6.123   1.391   3.973  0.8269 -0.5863 -1.4192
 3689TIP3   OH232701   1.600   4.897   0.851 -0.5475  0.6131 -0.0568
 3689TIP3    H132702   1.690   4.928   0.861 -0.7730  1.1637  0.3048
 3689TIP3    H232703   1.609   4.815   0.802  0.2436  0.0348  1.0058
 3690TIP3   OH232704   2.777   6.389   3.576 -0.3522  0.1992 -1.0406
 3690TIP3    H132705   2.803   6.471   3.616  4.0955 -0.9921 -0.9798
 3690TIP3    H232706   2.747   6.335   3.649  0.0856  0.6245 -0.5404
 3691TIP3   OH232707   4.365   5.589   1.391 -0.0608 -0.0424 -0.2263
 3691TIP3    H132708   4.378   5.648   1.317  1.6741  1.0212  0.8649
 3691TIP3    H232709   4.398   5.504   1.360  0.3808  0.3243 -0.7739
 3692TIP3   OH232710   4.887   6.850   0.048  0.0417  0.3857  0.3330
 3692TIP3    H132711   4.924   6.910   0.113 -1.7283  2.9420 -0.8665
 3692TIP3    H232712   4.826   6.904  -0.003 -0.1300 -1.9742 -2.1834
 3693TIP3   OH232713   6.289   2.287   3.016  0.7190 -0.3078 -0.3377
 3693TIP3    H132714   6.273   2.351   2.946 -1.9981  0.0553  0.5028
 3693TIP3    H232715   6.310   2.206   2.971 -0.4629  0.0504 -1.5852
 3694TIP3   OH232716   0.080   5.810   8.693  0.5702  0.0628  0.1143
 3694TIP3    H132717   0.056   5.873   8.626  1.5904 -1.5825 -1.9066
 3694TIP3    H232718  -0.003   5.781   8.731  0.0185  1.4787  0.0275
 3695TIP3   OH232719   0.204   0.332   0.674 -0.1772  0.9677  0.3915
 3695TIP3    H132720   0.185   0.416   0.715 -0.4982  0.9026  0.3782
 3695TIP3    H232721   0.254   0.284   0.741  0.5517  1.4005  0.1641
 3696TIP3   OH232722   1.660   5.873   0.902  0.1135 -0.2068 -0.2129
 3696TIP3    H132723   1.617   5.879   0.987  0.3326  2.5485 -0.1982
 3696TIP3    H232724   1.629   5.791   0.864 -0.1692 -1.3843  2.3985
 3697TIP3   OH232725   1.426   5.451   3.235  0.3452 -0.2459 -0.0938
 3697TIP3    H132726   1.390   5.514   3.174 -0.4170  1.1290  1.6802
 3697TIP3    H232727   1.375   5.371   3.221  1.2476 -0.5223 -2.2835
 3698TIP3   OH232728   4.870   1.464   0.987 -0.2440  0.4277  0.4138
 3698TIP3    H132729   4.964   1.481   0.993 -0.3571  1.1229  0.2492
 3698TIP3    H232730   4.833   1.503   1.065 -0.2812 -0.7771  1.0247
 3699TIP3   OH232731   3.988   0.035   3.281  0.0462  0.0499  0.2922
 3699TIP3    H132732   3.966   0.128   3.281  1.7541  0.4839 -0.7443
 3699TIP3    H232733   3.919  -0.005   3.334  0.5524  2.1837  2.7792
 3700TIP3   OH232734   2.109   3.778   1.900  0.0831 -0.7380  0.1068
 3700TIP3    H132735   2.025   3.780   1.946  0.3292  0.4051  0.5573
 3700TIP3    H232736   2.147   3.693   1.923  0.5152  0.0565  2.6894
 3701TIP3   OH232737   3.808   2.037   0.508  0.1184 -0.0525  0.0835
 3701TIP3    H132738   3.867   1.961   0.504 -1.1135 -1.1796  1.9108
 3701TIP3    H232739   3.723   2.002   0.482 -0.2749  0.9483  0.0035
 3702TIP3   OH232740   2.990   2.615   3.006  0.4300  0.1291 -0.4659
 3702TIP3    H132741   3.043   2.613   2.926 -0.3419  0.5778 -0.9964
 3702TIP3    H232742   3.023   2.541   3.058  1.5987  0.4157 -0.7573
 3703TIP3   OH232743   5.046   4.821   0.827 -0.1753 -0.9621 -0.3430
 3703TIP3    H132744   5.008   4.897   0.870 -0.1044 -0.4339 -1.2093
 3703TIP3    H232745   5.088   4.855   0.749  1.2708 -1.6543  0.0906
 3704TIP3   OH232746   3.930   6.644   0.440 -0.3913  0.3642  0.0095
 3704TIP3    H132747   3.924   6.683   0.527  0.7359 -0.8474  0.6714
 3704TIP3    H232748   3.951   6.552   0.457 -0.3103  0.0743 -1.5481
 3705TIP3   OH232749   0.300   2.781   4.345  0.2947 -0.4651  0.2242
 3705TIP3    H132750   0.230   2.836   4.310 -0.0661 -1.5242 -0.8022
 3705TIP3    H232751   0.271   2.691   4.328  1.6584 -0.9361  0.2505
 3706TIP3   OH232752   2.921   5.921   8.186 -0.9377  0.0187  1.1112
 3706TIP3    H132753   2.836   5.954   8.158 -1.6309 -2.3821  0.2138
 3706TIP3    H232754   2.906   5.829   8.207  1.2243 -0.1912  1.9826
 3707TIP3   OH232755   3.400   0.791   1.830 -0.1939  0.2002 -0.5905
 3707TIP3    H132756   3.391   0.885   1.815  0.1287  0.4393  0.6177
 3707TIP3    H232757   3.464   0.784   1.901 -2.4478 -0.7753  1.4723
 3708TIP3   OH232758   3.958   4.131   3.162  0.7956  0.6618 -0.7715
 3708TIP3    H132759   4.021   4.148   3.232  0.1745  0.7015 -0.2111
 3708TIP3    H232760   3.887   4.193   3.178 -0.2276 -0.5873 -0.3142
 3709TIP3   OH232761   6.374   4.823   8.449 -0.1358 -0.0338  0.1765
 3709TIP3    H132762   6.438   4.838   8.379  0.0910 -0.4504  0.2954
 3709TIP3    H232763   6.399   4.885   8.518  0.4367 -0.5385  0.4220
 3710TIP3   OH232764   1.376   2.076   3.549  0.1907  0.0141 -0.1391
 3710TIP3    H132765   1.307   2.106   3.489  0.5896  1.1464 -0.0367
 3710TIP3    H232766   1.402   2.154   3.598  0.8452 -0.6139  0.5411
 3711TIP3   OH232767   5.172   1.944   1.382 -0.5540 -0.7543  0.3087
 3711TIP3    H132768   5.106   2.005   1.412  0.2547 -0.3057  1.2472
 3711TIP3    H232769   5.132   1.858   1.393 -1.0975 -0.4740  0.5711
 3712TIP3   OH232770   3.250   1.883   2.252  0.3502 -0.5992  0.2202
 3712TIP3    H132771   3.211   1.879   2.339 -0.4442 -0.7760 -0.1415
 3712TIP3    H232772   3.179   1.912   2.195  0.4835 -1.8030 -0.5962
 3713TIP3   OH232773   6.055   5.481   2.516  0.7924 -0.4315 -0.3926
 3713TIP3    H132774   6.038   5.389   2.535  1.5295 -0.1079  2.3018
 3713TIP3    H232775   6.116   5.509   2.585  1.4107  1.8206 -1.7320
 3714TIP3   OH232776   1.472   1.732   3.869  0.2362  0.1087 -0.0196
 3714TIP3    H132777   1.545   1.778   3.827  1.0706 -2.4004 -1.5816
 3714TIP3    H232778   1.514   1.669   3.928 -0.7619  0.0613  0.6638
 3715TIP3   OH232779   0.828   2.275   2.322  0.3480 -0.2715  0.2547
 3715TIP3    H132780   0.855   2.193   2.362 -0.9061 -0.2738  1.1823
 3715TIP3    H232781   0.808   2.253   2.231  2.6192 -0.4002 -0.2738
 3716TIP3   OH232782   4.040   5.059   1.890  0.1291  1.0755  0.3093
 3716TIP3    H132783   4.122   5.084   1.933  0.9413 -0.7946 -0.0309
 3716TIP3    H232784   4.064   4.983   1.836 -1.4109  1.7056 -1.3649
 3717TIP3   OH232785   1.471   3.405   0.440  0.3042  0.0757  0.2070
 3717TIP3    H132786   1.385   3.441   0.464  0.3343 -1.0152  2.1839
 3717TIP3    H232787   1.509   3.471   0.383 -0.8404  1.7684  1.3018
 3718TIP3   OH232788   0.641   4.722   8.048  0.1009 -0.4563 -0.1961
 3718TIP3    H132789   0.572   4.773   8.006  0.1983  0.9788  1.2866
 3718TIP3    H232790   0.684   4.676   7.976 -2.0323 -0.9839 -1.2274
 3719TIP3   OH232791   4.491   6.808   0.984 -0.8674 -0.2552  0.4355
 3719TIP3    H132792   4.569   6.864   0.974 -0.6513 -0.0239  2.8027
 3719TIP3    H232793   4.526   6.723   1.012 -1.3713 -0.7533 -0.4107
 3720TIP3   OH232794   1.835   6.486   1.465  0.1314 -0.1177 -0.1788
 3720TIP3    H132795   1.870   6.575   1.463 -0.4891  0.1494  0.3818
 3720TIP3    H232796   1.742   6.497   1.487 -0.6998 -0.6911 -3.0385
 3721TIP3   OH232797   1.207   2.530   3.582  0.4598  0.2495 -0.2783
 3721TIP3    H132798   1.141   2.581   3.628 -0.8069 -2.0834  0.6831
 3721TIP3    H232799   1.182   2.535   3.490  0.8493  1.9551 -0.3244
 3722TIP3   OH232800   4.484   5.593   2.410  0.3989 -0.2062 -0.4510
 3722TIP3    H132801   4.559   5.543   2.376 -0.0290 -1.1309 -0.0678
 3722TIP3    H232802   4.438   5.624   2.331  1.4817  0.8547 -0.6943
 3723TIP3   OH232803   4.215   4.461   0.299  0.1224  0.1731 -0.2869
 3723TIP3    H132804   4.246   4.372   0.281 -0.4239 -0.6531  2.3798
 3723TIP3    H232805   4.187   4.494   0.214  0.8921 -1.9846 -1.4623
 3724TIP3   OH232806   5.045   6.747   1.562 -0.1862 -0.0994 -0.2565
 3724TIP3    H132807   5.033   6.706   1.648  0.2851 -0.3433 -0.3040
 3724TIP3    H232808   5.139   6.740   1.545  0.3131  2.8219  0.6691
 3725TIP3   OH232809   2.602   2.894   8.738  0.6436  0.2837  0.1006
 3725TIP3    H132810   2.565   2.872   8.824  0.4410  0.3956  0.0410
 3725TIP3    H232811   2.552   2.970   8.708 -0.8625 -1.1275 -1.1431
 3726TIP3   OH232812   4.924   6.851   2.603 -0.1399 -0.1843  0.5879
 3726TIP3    H132813   4.874   6.844   2.522 -0.5264 -0.3067  0.8345
 3726TIP3    H232814   4.971   6.768   2.611  1.2043  0.4491 -0.3536
 3727TIP3   OH232815   0.428   0.985   2.852  0.1847  0.4945 -0.7030
 3727TIP3    H132816   0.499   1.045   2.830  0.3746  0.5918  0.1201
 3727TIP3    H232817   0.466   0.898   2.841 -0.2115  0.4987 -2.2874
 3728TIP3   OH232818   4.620   5.692   1.151  0.0774 -0.4398 -0.2549
 3728TIP3    H132819   4.619   5.787   1.162  0.6109 -0.4400 -0.1481
 3728TIP3    H232820   4.626   5.657   1.240  1.4244 -0.5180 -0.3417
 3729TIP3   OH232821   2.361   1.463   3.783  0.0612 -0.0438 -0.0625
 3729TIP3    H132822   2.455   1.482   3.786  0.2047 -0.5667 -0.8800
 3729TIP3    H232823   2.345   1.410   3.861  1.3387 -3.5795 -1.9658
 3730TIP3   OH232824   6.361   2.367   2.255 -0.3777 -0.3499  0.6094
 3730TIP3    H132825   6.316   2.299   2.206 -1.8024  0.8531  0.1781
 3730TIP3    H232826   6.447   2.374   2.214 -1.3224  0.2239 -1.4061
 3731TIP3   OH232827   1.832   0.605   3.388 -0.6939 -0.1477  0.5227
 3731TIP3    H132828   1.884   0.525   3.398 -0.2074  0.0283 -0.5019
 3731TIP3    H232829   1.836   0.647   3.474 -0.8030 -1.1281  1.0241
 3732TIP3   OH232830   3.369   1.510   2.372 -0.0387  0.0052 -0.4162
 3732TIP3    H132831   3.311   1.569   2.420  1.0315  0.5328  0.2725
 3732TIP3    H232832   3.432   1.567   2.329  1.2340 -0.6131  0.5422
 3733TIP3   OH232833   6.332   0.890   4.110  0.4251  0.3661  0.6389
 3733TIP3    H132834   6.268   0.830   4.073  0.3483  1.4015 -1.0151
 3733TIP3    H232835   6.302   0.904   4.200  0.4492 -2.0044  1.0804
 3734TIP3   OH232836   1.233   4.994   3.006  0.2427 -0.1128  0.3242
 3734TIP3    H132837   1.139   5.008   3.018  0.0325  0.2384 -1.4255
 3734TIP3    H232838   1.238   4.928   2.936  1.2973  0.7119 -0.3976
 3735TIP3   OH232839   0.655   1.029   1.015  0.1922 -0.0327  0.1227
 3735TIP3    H132840   0.724   1.010   1.079 -1.2230  1.9532  2.4175
 3735TIP3    H232841   0.701   1.074   0.944  1.5074 -0.2520  0.7949
 3736TIP3   OH232842   1.135   3.200   0.078  0.1238  0.2106 -0.3643
 3736TIP3    H132843   1.215   3.208   0.131 -0.4382 -0.0891  0.5581
 3736TIP3    H232844   1.150   3.258   0.003  0.9427  0.6479  0.1216
 3737TIP3   OH232845   6.849   6.246   1.298  0.2919  0.1323 -0.1555
 3737TIP3    H132846   6.766   6.291   1.315  0.6599  0.0842  1.9321
 3737TIP3    H232847   6.867   6.266   1.206 -0.5402  2.6595  0.1397
 3738TIP3   OH232848   3.717   1.833   2.742  0.3540 -0.7697  0.0321
 3738TIP3    H132849   3.641   1.860   2.692  1.4941 -0.3744 -1.5645
 3738TIP3    H232850   3.713   1.886   2.822 -0.1703  0.4404 -0.7699
 3739TIP3   OH232851   3.868   5.059   0.740  0.0298  0.6167 -0.2883
 3739TIP3    H132852   3.843   5.130   0.681 -0.7627  0.1072 -0.5844
 3739TIP3    H232853   3.918   4.998   0.686 -2.7824 -1.1081 -1.1736
 3740TIP3   OH232854   2.162   3.787   0.043 -0.3721 -0.1425 -0.1509
 3740TIP3    H132855   2.130   3.868   0.082 -1.1922  0.1910 -1.4842
 3740TIP3    H232856   2.239   3.812  -0.007 -0.1237 -0.3445  0.1218
 3741TIP3   OH232857   3.952   0.475   0.798  0.2069  0.4899 -0.2863
 3741TIP3    H132858   3.913   0.404   0.849 -1.6987 -0.4733 -2.9025
 3741TIP3    H232859   4.007   0.522   0.861 -1.5861 -0.8869  2.4919
 3742TIP3   OH232860   4.645   4.006   1.463 -0.1483 -0.1054 -0.5700
 3742TIP3    H132861   4.552   3.984   1.471  0.1104 -0.8233  0.6394
 3742TIP3    H232862   4.680   3.940   1.404 -0.4207  0.2518 -1.1435
 3743TIP3   OH232863   5.170   1.246   2.925  0.0410 -0.1800  0.0176
 3743TIP3    H132864   5.216   1.314   2.975  0.1850 -0.0582 -0.2754
 3743TIP3    H232865   5.231   1.172   2.925 -0.9208 -1.0321  2.0189
 3744TIP3   OH232866   2.453   6.282   1.167 -1.0625  0.0592  0.3755
 3744TIP3    H132867   2.411   6.258   1.249 -0.9713  0.8989  0.6706
 3744TIP3    H232868   2.447   6.377   1.163  1.0781  0.2493  0.5982
 3745TIP3   OH232869   3.256   1.820   0.643  0.6464 -0.7405 -0.0551
 3745TIP3    H132870   3.193   1.852   0.579  2.4500 -1.0360 -2.1052
 3745TIP3    H232871   3.207   1.812   0.725 -1.4181  0.9833 -1.0521
 3746TIP3   OH232872   2.562   4.388   8.187 -0.0328  0.1244 -0.0976
 3746TIP3    H132873   2.597   4.432   8.264 -0.2039 -0.1190  0.1186
 3746TIP3    H232874   2.611   4.426   8.113  2.1652 -1.6699  0.3502
 3747TIP3   OH232875   5.159   5.654   0.244  0.2228  0.2100  0.0068
 3747TIP3    H132876   5.066   5.674   0.240  0.8002  3.1435 -1.6204
 3747TIP3    H232877   5.184   5.674   0.334 -0.6844 -0.6258  0.4599
 3748TIP3   OH232878   0.334   4.945   2.607 -0.3260 -0.4192 -0.6096
 3748TIP3    H132879   0.285   4.925   2.687 -0.7170 -0.0428 -0.7458
 3748TIP3    H232880   0.314   5.037   2.589  0.1960 -0.3488 -0.8378
 3749TIP3   OH232881   6.600   1.358   2.481 -0.1277  0.1303 -0.1558
 3749TIP3    H132882   6.589   1.449   2.510  1.4990  0.1769  0.3695
 3749TIP3    H232883   6.687   1.356   2.441 -0.6863 -0.8990 -1.3743
 3750TIP3   OH232884   4.743   5.428   3.077 -0.1829  0.3025 -0.3092
 3750TIP3    H132885   4.694   5.346   3.077  0.2553 -0.0816 -3.5951
 3750TIP3    H232886   4.700   5.482   3.011  1.2454  1.6264 -0.2122
 3751TIP3   OH232887   0.556   1.571   1.222  0.1662 -0.2823 -0.1598
 3751TIP3    H132888   0.513   1.634   1.281  1.7306  0.9403 -0.2568
 3751TIP3    H232889   0.589   1.503   1.281  0.7342  0.3493  0.2684
 3752TIP3   OH232890   2.872   0.015   0.663 -0.2264 -0.1303  0.0693
 3752TIP3    H132891   2.949  -0.041   0.656  0.9522  1.5719 -2.5503
 3752TIP3    H232892   2.907   0.104   0.653 -2.4932  0.6958 -1.4917
 3753TIP3   OH232893   2.767   0.664   0.554  0.2202  0.1069 -0.2572
 3753TIP3    H132894   2.860   0.682   0.553  0.2628  0.0804  1.0168
 3753TIP3    H232895   2.749   0.636   0.644 -1.5357  2.9866  0.4321
 3754TIP3   OH232896   1.398   0.830   1.581  0.2976 -0.1892  0.0029
 3754TIP3    H132897   1.408   0.831   1.677 -1.4218 -1.8039  0.2648
 3754TIP3    H232898   1.468   0.772   1.550  0.2715 -0.4311  0.3879
 3755TIP3   OH232899   3.729   2.342   1.830  0.2273  0.0698 -0.2886
 3755TIP3    H132900   3.636   2.325   1.818 -0.2877  2.1000  0.3236
 3755TIP3    H232901   3.772   2.289   1.764 -1.4343 -0.2062 -1.2047
 3756TIP3   OH232902   2.491   5.042   2.359  0.0146 -0.2610 -0.1370
 3756TIP3    H132903   2.477   5.037   2.453  0.2782  1.2417  0.0076
 3756TIP3    H232904   2.432   5.111   2.329  1.1593  0.4863 -0.7816
 3757TIP3   OH232905   2.485   3.289   2.176  0.1953  0.0016  0.0973
 3757TIP3    H132906   2.407   3.250   2.136 -0.1076  1.3388 -0.6649
 3757TIP3    H232907   2.459   3.378   2.199  2.0691  1.2276 -2.1361
 3758TIP3   OH232908   1.274   2.454   2.061  0.0031 -0.0690 -0.3156
 3758TIP3    H132909   1.273   2.522   1.994  2.9148 -0.0219 -0.4431
 3758TIP3    H232910   1.280   2.372   2.013  2.9973  0.0094 -0.2301
 3759TIP3   OH232911   1.222   5.169   8.116 -0.2206  0.1317  0.0744
 3759TIP3    H132912   1.234   5.120   8.197 -1.2273  1.0700  0.8060
 3759TIP3    H232913   1.128   5.185   8.111 -0.5698 -1.9590 -2.5163
 3760TIP3   OH232914   5.563   0.614   2.566 -0.0923  0.3785 -0.1648
 3760TIP3    H132915   5.546   0.521   2.557  0.3598  0.1319  1.2404
 3760TIP3    H232916   5.476   0.653   2.577 -0.1798 -0.3766  2.8876
 3761TIP3   OH232917   0.849   3.005   4.230  0.2060 -0.5593 -0.1206
 3761TIP3    H132918   0.820   2.930   4.282  0.8379  0.5065  1.8942
 3761TIP3    H232919   0.936   2.980   4.199 -0.9682 -2.0308 -2.5449
 3762TIP3   OH232920   1.266   5.959   2.556 -0.6795  0.0571  0.0735
 3762TIP3    H132921   1.198   5.912   2.508  1.0278 -1.8090 -0.6710
 3762TIP3    H232922   1.314   5.890   2.603  2.3298  0.8729 -1.5536
 3763TIP3   OH232923   5.179   5.304   2.547 -0.0248 -0.3925  0.2485
 3763TIP3    H132924   5.219   5.389   2.566  0.2146 -0.4285 -0.0980
 3763TIP3    H232925   5.219   5.244   2.610  1.5954 -0.7438 -1.0623
 3764TIP3   OH232926   2.795   2.712   0.614  0.8009 -0.3250  0.7272
 3764TIP3    H132927   2.734   2.763   0.666 -0.1288  0.3510 -0.9795
 3764TIP3    H232928   2.832   2.774   0.551  3.5172 -0.6306  1.8749
 3765TIP3   OH232929   2.419   5.152   2.593  0.1562 -0.1707  0.9927
 3765TIP3    H132930   2.357   5.223   2.578 -0.8729 -1.1648  0.4095
 3765TIP3    H232931   2.479   5.186   2.659 -0.3776  1.1914  0.8019
 3766TIP3   OH232932   4.295   1.473   1.960 -0.0844 -0.5903 -0.3827
 3766TIP3    H132933   4.300   1.386   1.920  0.8708 -0.2764 -0.9735
 3766TIP3    H232934   4.385   1.505   1.961 -0.2740 -0.0153  0.7702
 3767TIP3   OH232935   1.578   3.216   2.974  0.9185 -0.8581 -0.4130
 3767TIP3    H132936   1.615   3.254   3.053  0.6635 -2.1144  0.3527
 3767TIP3    H232937   1.648   3.161   2.939  0.1485 -2.5174  0.5317
 3768TIP3   OH232938   3.997   1.881   3.780 -0.4715  0.0722 -0.2526
 3768TIP3    H132939   3.958   1.797   3.804  0.7884 -0.3487  0.4166
 3768TIP3    H232940   3.930   1.924   3.727 -0.7422 -1.7933 -1.5351
 3769TIP3   OH232941   3.101   2.361   1.191  0.7796 -0.3574 -0.3166
 3769TIP3    H132942   3.155   2.292   1.230  2.4317 -0.8729 -3.3094
 3769TIP3    H232943   3.049   2.316   1.125  0.4241  0.9633 -0.9665
 3770TIP3   OH232944   6.522   4.872   0.684 -0.4788  0.2010  0.0146
 3770TIP3    H132945   6.432   4.858   0.712 -0.4204  0.0413  0.1302
 3770TIP3    H232946   6.538   4.804   0.619 -0.4160  0.1744  0.0569
 3771TIP3   OH232947   5.315   4.851   1.891 -0.2971 -0.3983 -0.0337
 3771TIP3    H132948   5.268   4.874   1.971  1.0975  0.5788  0.5440
 3771TIP3    H232949   5.299   4.923   1.831 -1.1825 -1.0380 -0.5921
 3772TIP3   OH232950   3.392   0.749   2.793 -0.2019  0.0419  0.1584
 3772TIP3    H132951   3.305   0.789   2.793 -1.0046 -1.5995 -0.5335
 3772TIP3    H232952   3.402   0.713   2.881 -0.6089 -0.4784  0.0050
 3773TIP3   OH232953   6.553   4.731   0.468 -0.7434  0.4932  0.3468
 3773TIP3    H132954   6.625   4.668   0.468 -2.4643 -1.6074  1.0064
 3773TIP3    H232955   6.538   4.750   0.375 -0.3419 -0.2692  0.1205
 3774TIP3   OH232956   1.629   3.385   2.028  0.6218 -0.3792 -0.1643
 3774TIP3    H132957   1.611   3.349   1.940  1.0422 -0.5825 -0.1672
 3774TIP3    H232958   1.717   3.354   2.049  0.5974 -0.1666  0.2506
 3775TIP3   OH232959   2.609   2.940   0.978  0.8667  0.0039  0.1028
 3775TIP3    H132960   2.572   2.929   1.066 -0.0633  0.6575 -0.1973
 3775TIP3    H232961   2.565   2.874   0.925 -0.5806  1.3779 -0.4578
 3776TIP3   OH232962   0.674   2.893   0.656 -0.4193  0.0616 -1.1665
 3776TIP3    H132963   0.722   2.973   0.677  0.5560 -1.1171  1.4899
 3776TIP3    H232964   0.734   2.842   0.602 -0.2638  0.2814 -1.2025
 3777TIP3   OH232965   3.835   5.294   3.125 -0.6267 -0.2858 -0.4738
 3777TIP3    H132966   3.784   5.215   3.110  0.1198 -0.7323 -0.7198
 3777TIP3    H232967   3.845   5.334   3.038 -1.1263  0.1648 -0.3309
 3778TIP3   OH232968   6.764   4.880   1.644  0.0740 -0.6079 -0.1035
 3778TIP3    H132969   6.762   4.796   1.599  0.5157 -0.2214 -0.8573
 3778TIP3    H232970   6.820   4.865   1.720  0.6630 -0.8311 -0.5759
 3779TIP3   OH232971   5.011   0.926   3.392  0.3867  0.8386  0.2924
 3779TIP3    H132972   4.969   0.847   3.360  0.3439 -0.3271  2.9485
 3779TIP3    H232973   5.094   0.931   3.344 -0.8711  0.8594 -1.9810
 3780TIP3   OH232974   5.872   3.678   8.399 -0.4872  0.0851 -0.5705
 3780TIP3    H132975   5.798   3.712   8.448 -0.3606 -1.0568  0.4837
 3780TIP3    H232976   5.858   3.583   8.397  1.1360 -0.2106  0.0433
 3781TIP3   OH232977   5.141   3.462   2.367 -0.4010  0.7107 -0.2384
 3781TIP3    H132978   5.200   3.390   2.389 -1.2487  0.4017  1.1302
 3781TIP3    H232979   5.124   3.452   2.274 -0.9560 -1.2283  0.0326
 3782TIP3   OH232980   6.054   5.994   0.560 -1.2590 -0.1486 -0.5554
 3782TIP3    H132981   6.067   5.971   0.468 -1.4073  1.5970 -1.0457
 3782TIP3    H232982   6.086   5.918   0.608 -1.1278 -1.0792 -2.0374
 3783TIP3   OH232983   3.677   5.587   8.089 -0.2248  0.4507  0.2689
 3783TIP3    H132984   3.590   5.624   8.097 -0.2495  0.6000 -0.5402
 3783TIP3    H232985   3.734   5.663   8.072 -0.4448  0.0809 -2.5930
 3784TIP3   OH232986   1.310   2.750   0.215  0.4097 -0.1378  0.0461
 3784TIP3    H132987   1.238   2.784   0.162 -1.1135 -0.1719  1.9739
 3784TIP3    H232988   1.374   2.821   0.218 -0.5864  0.7779  0.1624
 3785TIP3   OH232989   1.720   2.111   1.570  0.0796 -0.2175  0.0652
 3785TIP3    H132990   1.632   2.087   1.541  1.2155 -1.9912 -2.2506
 3785TIP3    H232991   1.731   2.202   1.540 -1.0588  0.1605  0.7262
 3786TIP3   OH232992   2.971   2.722   1.374  0.3809  0.2615 -0.2275
 3786TIP3    H132993   2.915   2.797   1.394 -0.3219 -0.7398  1.7732
 3786TIP3    H232994   2.924   2.676   1.304 -0.6450  0.1642  0.5014
 3787TIP3   OH232995   3.832   1.961   3.171  0.8240  0.8314 -0.7296
 3787TIP3    H132996   3.750   1.931   3.210  0.3227  1.7749 -1.0308
 3787TIP3    H232997   3.877   2.006   3.242  0.9427  0.5909 -0.6502
 3788TIP3   OH232998   2.388   1.753   2.864  0.2111  0.0353  0.4578
 3788TIP3    H132999   2.362   1.839   2.898 -1.3895  0.0269 -0.6049
 3788TIP3    H233000   2.402   1.700   2.942 -1.9708  0.3953  1.1627
 3789TIP3   OH233001   5.154   4.455   2.300 -0.1003  0.4219 -0.0104
 3789TIP3    H133002   5.098   4.447   2.377 -0.1778 -0.6037 -0.1601
 3789TIP3    H233003   5.192   4.542   2.307  0.1783  0.2082  1.3826
 3790TIP3   OH233004   0.880   1.420   3.365  0.0179 -0.3106  0.4280
 3790TIP3    H133005   0.874   1.329   3.335 -1.8340 -0.0668 -0.0961
 3790TIP3    H233006   0.914   1.468   3.290  0.8055 -0.5317  0.6383
 3791TIP3   OH233007   6.095   3.520   0.841  0.6213 -0.0907 -0.0118
 3791TIP3    H133008   6.187   3.508   0.817  0.3724 -2.2305 -0.0635
 3791TIP3    H233009   6.095   3.595   0.900  2.3098  0.3240 -0.4868
 3792TIP3   OH233010   5.563   2.773   0.531  0.0507 -0.1144 -0.0809
 3792TIP3    H133011   5.469   2.786   0.519  0.0185 -1.1099 -1.0973
 3792TIP3    H233012   5.594   2.854   0.571 -1.2162  0.2670  0.1681
 3793TIP3   OH233013   3.245   0.833   1.068 -0.0710  0.0374 -0.4502
 3793TIP3    H133014   3.303   0.836   1.145 -0.2480 -1.4442 -0.2202
 3793TIP3    H233015   3.277   0.903   1.012 -0.3475  1.6019  1.2409
 3794TIP3   OH233016   3.690   1.699   0.409  0.1074 -0.0436  0.1781
 3794TIP3    H133017   3.772   1.734   0.442  1.1063  0.2719 -2.3961
 3794TIP3    H233018   3.638   1.680   0.488  2.2101  0.7119  1.8394
 3795TIP3   OH233019   3.302   4.547   3.059 -0.5132 -0.1029 -0.7095
 3795TIP3    H133020   3.272   4.561   2.969 -0.3070  0.7993 -0.6403
 3795TIP3    H233021   3.230   4.580   3.114 -1.4735 -2.3394 -0.4975
 3796TIP3   OH233022   3.683   2.669   0.432 -0.1543 -0.4521 -0.3295
 3796TIP3    H133023   3.630   2.727   0.378 -1.8295 -0.8264  0.8261
 3796TIP3    H233024   3.710   2.599   0.373 -0.2139  0.2020 -1.1501
 3797TIP3   OH233025   2.027   1.647   3.276  0.3048 -0.0597  0.1821
 3797TIP3    H133026   1.935   1.622   3.288  1.0168 -2.3474  1.3834
 3797TIP3    H233027   2.056   1.674   3.363  0.6016  1.3745 -0.3409
 3798TIP3   OH233028   5.842   0.846   3.354  0.5128 -0.6621 -0.1960
 3798TIP3    H133029   5.774   0.910   3.375  0.1287 -0.9613 -0.5265
 3798TIP3    H233030   5.900   0.891   3.293 -0.5648 -1.1018 -1.5802
 3799TIP3   OH233031   5.166   5.832   3.376  0.0087 -0.3119 -0.4164
 3799TIP3    H133032   5.109   5.759   3.396  0.9392 -1.7805 -2.7078
 3799TIP3    H233033   5.107   5.907   3.366 -1.0461 -0.9001  1.1232
 3800TIP3   OH233034   2.035   2.828   2.453 -0.7057 -0.1371 -0.4895
 3800TIP3    H133035   2.056   2.812   2.360 -0.5620 -0.8810 -0.3338
 3800TIP3    H233036   2.030   2.923   2.460 -0.9076 -0.0787 -1.3051
 3801TIP3   OH233037   1.482   4.884   0.559 -0.1219  0.1962  0.0881
 3801TIP3    H133038   1.445   4.918   0.478 -2.2963 -0.7526  0.5787
 3801TIP3    H233039   1.456   4.948   0.626  0.2371  0.1593  0.2657
 3802TIP3   OH233040   0.359   6.552   2.088  0.4029 -0.2538  0.0852
 3802TIP3    H133041   0.328   6.637   2.058  0.4651 -0.4566 -0.5656
 3802TIP3    H233042   0.422   6.573   2.157  2.0256  0.3407 -1.4806
 3803TIP3   OH233043   6.668   0.449   1.568  0.1780 -0.0466 -0.2052
 3803TIP3    H133044   6.706   0.393   1.636 -2.1399 -1.7817 -0.2075
 3803TIP3    H233045   6.695   0.407   1.486  0.1675  0.0755 -0.2710
 3804TIP3   OH233046   4.602   2.679   3.572 -0.0974  0.3885 -0.5554
 3804TIP3    H133047   4.567   2.670   3.660  0.3770 -1.4287 -0.5169
 3804TIP3    H233048   4.696   2.689   3.584  0.0300 -0.3877 -0.8604
 3805TIP3   OH233049   4.626   6.815   1.640  0.5905 -0.2964 -0.1209
 3805TIP3    H133050   4.684   6.824   1.564 -1.1207  0.3859 -1.3982
 3805TIP3    H233051   4.629   6.902   1.682  0.3902 -0.2225 -0.2603
 3806TIP3   OH233052   3.420   5.710   3.548 -0.0805 -0.0744 -0.0695
 3806TIP3    H133053   3.401   5.639   3.487  1.2774 -0.8538  0.3549
 3806TIP3    H233054   3.511   5.733   3.530 -0.6866  2.0411 -0.6409
 3807TIP3   OH233055   2.401   1.956   3.697 -0.5998  0.2027 -0.1006
 3807TIP3    H133056   2.305   1.949   3.701 -0.6189 -0.0284 -0.8182
 3807TIP3    H233057   2.426   1.991   3.782 -1.1070 -2.1817  1.1383
 3808TIP3   OH233058   4.485   3.518   0.119  0.1680  0.2102  0.0314
 3808TIP3    H133059   4.531   3.452   0.171  1.3777  0.4846 -0.6468
 3808TIP3    H233060   4.457   3.584   0.183  2.7538  1.1929  0.2653
 3809TIP3   OH233061   2.269   5.566   3.019 -0.1253 -0.2341 -0.0936
 3809TIP3    H133062   2.351   5.594   3.060  0.4143 -1.3453 -0.3803
 3809TIP3    H233063   2.291   5.484   2.975 -0.7823  0.6379 -2.2188
 3810TIP3   OH233064   0.050   4.351   3.315  0.1356  0.3479 -0.1953
 3810TIP3    H133065   0.075   4.310   3.233  2.4088  0.2345  0.4780
 3810TIP3    H233066   0.125   4.405   3.339  0.0386 -0.5258  2.3678
 3811TIP3   OH233067   4.752   1.081   1.694 -0.0184 -0.3848 -0.4417
 3811TIP3    H133068   4.707   1.149   1.643 -0.0870 -0.7970 -0.9432
 3811TIP3    H233069   4.828   1.058   1.640  1.7575  1.4370  1.1092
 3812TIP3   OH233070   2.405   3.225   1.054  0.2049  0.0738  0.4699
 3812TIP3    H133071   2.413   3.258   0.964 -0.0687  3.4025  1.5181
 3812TIP3    H233072   2.315   3.246   1.078 -0.1971 -2.1377  1.1175
 3813TIP3   OH233073   5.698   1.894   0.924 -0.0071  0.4656 -0.4370
 3813TIP3    H133074   5.706   1.820   0.984  0.6652  0.2299 -0.7988
 3813TIP3    H233075   5.746   1.965   0.966  0.5608  0.2667 -0.7394
 3814TIP3   OH233076   4.264   1.177   3.878  0.1549  0.8715 -0.3432
 3814TIP3    H133077   4.298   1.128   3.804 -0.1097 -1.4667  0.9738
 3814TIP3    H233078   4.334   1.238   3.901  1.6626 -0.7511 -0.4165
 3815TIP3   OH233079   3.465   4.297   1.496  0.1054  0.7094  0.2581
 3815TIP3    H133080   3.516   4.248   1.431 -0.1084 -1.1001  1.3762
 3815TIP3    H233081   3.518   4.374   1.515  1.3898 -0.0166 -0.2266
 3816TIP3   OH233082   4.736   0.718   4.116  0.3077  0.2256  0.3095
 3816TIP3    H133083   4.827   0.747   4.117  0.3089  0.2324  1.5370
 3816TIP3    H233084   4.692   0.780   4.058  0.9399  0.6886  0.3117
 3817TIP3   OH233085   5.489   2.245   1.716  0.0401 -0.2472 -0.0973
 3817TIP3    H133086   5.463   2.218   1.628 -1.3745 -0.0562  0.2405
 3817TIP3    H233087   5.407   2.249   1.765  0.5097  2.0104  0.5951
 3818TIP3   OH233088   5.830   3.570   2.157  0.4672  0.3045 -0.5215
 3818TIP3    H133089   5.830   3.650   2.105  0.1030 -0.9118 -2.5301
 3818TIP3    H233090   5.742   3.533   2.145  0.8081 -0.6685 -0.1492
 3819TIP3   OH233091   3.873   3.597   1.736 -0.3695  0.4009 -0.2464
 3819TIP3    H133092   3.865   3.587   1.641  0.6525  1.4350 -0.4534
 3819TIP3    H233093   3.932   3.526   1.763 -1.9579 -0.9332 -0.1197
 3820TIP3   OH233094   3.003   3.057   0.900  0.0512  0.3735 -0.3180
 3820TIP3    H133095   3.099   3.050   0.895  0.2096  1.4590  0.6276
 3820TIP3    H233096   2.986   3.080   0.991 -1.2267 -1.1260 -0.1553
 3821TIP3   OH233097   3.457   4.796   1.700  0.0958  0.2203 -0.5144
 3821TIP3    H133098   3.494   4.877   1.734  0.5115 -0.0828 -0.2461
 3821TIP3    H233099   3.455   4.809   1.605  0.5279  0.3903 -0.5030
 3822TIP3   OH233100   0.431   0.871   3.223  0.0883  0.4019 -0.1657
 3822TIP3    H133101   0.450   0.777   3.230 -1.6837  0.0006 -0.2559
 3822TIP3    H233102   0.450   0.905   3.310 -3.4741 -0.9566  1.3469
 3823TIP3   OH233103   0.729   1.036   0.286  0.2777 -0.2802 -0.6982
 3823TIP3    H133104   0.763   1.057   0.200 -1.6912  1.0960 -1.2224
 3823TIP3    H233105   0.658   0.973   0.269  0.3394 -0.5428 -0.0114
 3824TIP3   OH233106   6.579   2.506   0.982 -0.0181  0.2064  0.3998
 3824TIP3    H133107   6.540   2.568   0.921 -0.3022 -0.3498  0.0046
 3824TIP3    H233108   6.558   2.541   1.068 -0.1601  0.6646  0.1832
 3825TIP3   OH233109   6.007   3.678   1.085 -0.7960  0.3441 -0.4686
 3825TIP3    H133110   6.021   3.762   1.128 -1.6938  0.2606  0.0180
 3825TIP3    H233111   6.042   3.613   1.146  1.0946  0.3999 -1.4037
 3826TIP3   OH233112   1.068   0.157   3.770  0.0566  0.1219  0.0076
 3826TIP3    H133113   1.142   0.108   3.808 -0.9482 -0.9127  0.7102
 3826TIP3    H233114   1.053   0.229   3.831  0.0680 -0.0482  0.2126
 3827TIP3   OH233115   6.511   5.401   0.248 -0.4362  0.1385 -0.0942
 3827TIP3    H133116   6.470   5.385   0.163 -1.2530 -0.4358  0.3969
 3827TIP3    H233117   6.482   5.489   0.272 -1.1156 -0.1293  0.0902
 3828TIP3   OH233118   2.204   2.296   2.932 -0.1010 -0.3544 -0.3297
 3828TIP3    H133119   2.294   2.291   2.899  0.4913  0.4337  1.0999
 3828TIP3    H233120   2.212   2.328   3.022 -1.9167  1.2310 -0.6552
 3829TIP3   OH233121   0.897   3.201   2.743 -0.2480  0.4205 -0.3626
 3829TIP3    H133122   0.824   3.247   2.783 -0.6012 -0.2976 -0.1782
 3829TIP3    H233123   0.861   3.163   2.662 -0.0641  0.1372 -0.3140
 3830TIP3   OH233124   0.181   4.649   3.103 -0.5281 -0.1135  0.6295
 3830TIP3    H133125   0.188   4.715   3.034  0.6907 -1.8059 -0.9324
 3830TIP3    H233126   0.259   4.663   3.157 -0.9577  0.5377  1.1126
 3831TIP3   OH233127   2.737   6.172   8.613 -0.7653  0.9123  0.0854
 3831TIP3    H133128   2.785   6.181   8.531 -2.1070  0.5877 -0.7674
 3831TIP3    H233129   2.754   6.253   8.660 -0.8387  1.5832 -0.9949
 3832TIP3   OH233130   3.783   2.969   2.631 -0.2378 -0.2457 -0.2695
 3832TIP3    H133131   3.709   3.002   2.579 -0.6650 -0.5763  0.1227
 3832TIP3    H233132   3.802   3.040   2.692 -0.1443 -0.1068 -0.4591
 3833TIP3   OH233133   1.093   1.618   1.404 -0.2784  0.7997  0.4327
 3833TIP3    H133134   1.034   1.693   1.410  0.3382  1.2459  1.0002
 3833TIP3    H233135   1.180   1.655   1.417  0.2792  0.3501 -1.5849
 3834TIP3   OH233136   2.159   2.547   2.323 -0.2947 -0.3629 -0.3463
 3834TIP3    H133137   2.152   2.567   2.417 -0.0767 -0.7253 -0.2517
 3834TIP3    H233138   2.233   2.599   2.293 -1.5264  1.2621 -0.7404
 3835TIP3   OH233139   2.026   2.575   1.322  0.1069 -0.6450  0.2262
 3835TIP3    H133140   1.978   2.656   1.302 -0.6429 -1.1256  0.0382
 3835TIP3    H233141   1.964   2.523   1.374  0.9069 -0.7265  1.1275
 3836TIP3   OH233142   2.435   2.929   1.786 -0.5204 -0.5331  0.2134
 3836TIP3    H133143   2.351   2.911   1.827 -0.7298  0.2633  0.1560
 3836TIP3    H233144   2.413   2.954   1.696 -0.3810  1.2570  0.6406
 3837TIP3   OH233145   2.629   1.180   0.904 -0.2959  0.4624 -0.4488
 3837TIP3    H133146   2.642   1.112   0.970  0.7383 -0.3726 -1.4671
 3837TIP3    H233147   2.576   1.138   0.837 -0.3534  0.9273 -0.6990
 3838TIP3   OH233148   5.122   2.076   3.516 -0.9886  0.7052  0.7056
 3838TIP3    H133149   5.097   2.067   3.607  0.0979 -1.9835  0.8231
 3838TIP3    H233150   5.054   2.030   3.467 -0.8154  0.8905  0.2870
 3839TIP3   OH233151   4.861   3.251   3.496 -0.4158  0.3738  0.3946
 3839TIP3    H133152   4.831   3.337   3.526 -0.6661 -0.3466  2.3535
 3839TIP3    H233153   4.905   3.268   3.413  1.5010  2.7140  1.7983
 3840TIP3   OH233154   6.339   5.984   1.108 -0.0280  0.2601  0.8549
 3840TIP3    H133155   6.266   6.045   1.122 -0.4933  0.2117 -1.0272
 3840TIP3    H233156   6.310   5.903   1.150 -0.8242  0.4140  0.6337
 3841TIP3   OH233157   2.479   6.721   8.749 -0.4912  0.4774 -0.0894
 3841TIP3    H133158   2.389   6.696   8.728 -0.2411 -0.1805 -0.3768
 3841TIP3    H233159   2.533   6.674   8.686  0.2771 -1.3766  1.8345
 3842TIP3   OH233160   6.732   0.211   4.417  0.3589 -0.0434 -0.3788
 3842TIP3    H133161   6.774   0.125   4.408  1.0739  0.4360 -2.1568
 3842TIP3    H233162   6.765   0.245   4.500  0.5885 -1.2148  0.0317
 3843TIP3   OH233163   4.244   2.448   8.614  0.3727 -0.0129 -0.0016
 3843TIP3    H133164   4.257   2.354   8.606 -0.7880 -0.3575  1.7130
 3843TIP3    H233165   4.297   2.474   8.689  1.6430  0.9650 -1.1691
 3844TIP3   OH233166   4.057   2.365   4.365 -0.3112  0.1956  0.4372
 3844TIP3    H133167   4.048   2.455   4.396 -0.4689  0.7228 -1.0670
 3844TIP3    H233168   3.977   2.321   4.394 -0.9368  0.9496 -0.1035
 3845TIP3   OH233169   1.718   2.146   3.683 -0.1515  0.0649  0.0373
 3845TIP3    H133170   1.721   2.219   3.745 -1.2845 -1.0702  1.5116
 3845TIP3    H233171   1.733   2.186   3.598 -2.0071  2.2378  0.6359
 3846TIP3   OH233172   2.972   6.614   0.184  0.0301 -0.3273 -0.1519
 3846TIP3    H133173   3.035   6.581   0.247  0.5874  0.3636 -0.3405
 3846TIP3    H233174   2.926   6.684   0.230  0.2599  0.0037 -0.4184
 3847TIP3   OH233175   2.814   2.859   2.729  0.5883  0.3373  0.4334
 3847TIP3    H133176   2.791   2.860   2.822  1.8964 -0.0976  0.7782
 3847TIP3    H233177   2.744   2.909   2.687 -0.4286 -0.0885  1.5461
 3848TIP3   OH233178   1.690   1.747   1.993  0.3267  0.1654 -0.2483
 3848TIP3    H133179   1.777   1.778   2.019  0.6447  0.3471 -1.4885
 3848TIP3    H233180   1.635   1.825   1.992  0.3061  0.1530 -0.0970
 3849TIP3   OH233181   2.391   4.576   3.247  0.4209 -0.5516  0.4885
 3849TIP3    H133182   2.428   4.544   3.329  0.0785  1.0144  1.3070
 3849TIP3    H233183   2.306   4.613   3.272  0.0659 -0.5460 -0.6757
 3850TIP3   OH233184   6.253   5.047   0.329  0.1220  0.1483 -0.3204
 3850TIP3    H133185   6.193   5.005   0.267  1.7729 -2.4952 -0.3157
 3850TIP3    H233186   6.210   5.040   0.414 -0.6249  0.5309 -0.6684
 3851TIP3   OH233187   5.420   5.421   0.780  0.0157 -0.0842  0.2379
 3851TIP3    H133188   5.489   5.469   0.735  1.0183 -0.8404  0.9448
 3851TIP3    H233189   5.452   5.331   0.784 -1.5594 -0.7161 -0.5160
 3852TIP3   OH233190   3.711   1.641   0.748 -0.0492 -1.1205  0.5265
 3852TIP3    H133191   3.617   1.624   0.747 -0.7923  1.9075 -3.1679
 3852TIP3    H233192   3.718   1.731   0.781  1.5533 -1.1763  0.3952
 3853TIP3   OH233193   3.917   3.194   2.873 -0.5908  0.0133  0.3111
 3853TIP3    H133194   3.979   3.177   2.802 -0.3126  0.1666  0.5143
 3853TIP3    H233195   3.959   3.263   2.925  0.1167 -1.4619  1.7590
 3854TIP3   OH233196   5.555   1.584   1.962 -0.6591 -0.2197  0.0234
 3854TIP3    H133197   5.526   1.497   1.991 -2.5769  0.6695  0.8837
 3854TIP3    H233198   5.642   1.568   1.924 -0.4108 -2.3139  1.2989
 3855TIP3   OH233199   6.846   1.716   0.556  0.1217 -0.3718  0.2638
 3855TIP3    H133200   6.933   1.689   0.586  0.2608  1.3869  1.6214
 3855TIP3    H233201   6.789   1.700   0.631 -0.8817 -2.0783 -0.8241
 3856TIP3   OH233202   3.451   2.994   3.463 -0.3849 -0.0920 -0.2822
 3856TIP3    H133203   3.461   2.899   3.460  0.2614 -0.0257 -0.3638
 3856TIP3    H233204   3.505   3.022   3.537  0.7244  0.3572 -1.2298
 3857TIP3   OH233205   1.374   0.222   3.634  0.2752 -0.1894 -0.4631
 3857TIP3    H133206   1.301   0.280   3.614  0.7407  1.6164  2.3940
 3857TIP3    H233207   1.334   0.136   3.648 -0.8198  0.0405 -2.0432
 3858TIP3   OH233208   6.436   2.878   1.568  0.4321 -0.1071 -0.1497
 3858TIP3    H133209   6.516   2.869   1.621  1.8844  1.2892 -1.9590
 3858TIP3    H233210   6.416   2.789   1.539  1.8524 -0.3808 -0.3588
 3859TIP3   OH233211   0.263   3.902   0.701 -0.0631  0.0903 -0.3521
 3859TIP3    H133212   0.298   3.902   0.612 -1.4849  0.3868 -0.9341
 3859TIP3    H233213   0.310   3.830   0.745 -1.2260 -1.8534 -2.1171
 3860TIP3   OH233214   5.428   5.709   3.232 -0.3178  0.3874  0.2774
 3860TIP3    H133215   5.354   5.765   3.257  1.7726  2.5082  2.2773
 3860TIP3    H233216   5.392   5.621   3.229 -3.5274  1.5714 -1.8001
 3861TIP3   OH233217   5.413   0.235   0.284  0.4253  0.0971 -0.0416
 3861TIP3    H133218   5.456   0.233   0.198 -0.3432 -1.0840 -0.4269
 3861TIP3    H233219   5.432   0.149   0.322 -1.4586 -0.4314 -0.1927
 3862TIP3   OH233220   3.626   0.903   8.628 -0.3387  1.0172 -0.1640
 3862TIP3    H133221   3.714   0.929   8.655 -0.6783  0.1178  2.0426
 3862TIP3    H233222   3.637   0.873   8.537  2.0482 -0.8097  0.5951
 3863TIP3   OH233223   1.311   1.268   3.233 -0.1359  0.6081  0.3279
 3863TIP3    H133224   1.369   1.191   3.227  0.3704  0.8890  1.2482
 3863TIP3    H233225   1.358   1.336   3.186 -0.1302  0.6012  0.3236
 3864TIP3   OH233226   5.409   3.565   0.352 -0.0600  0.6710  0.5796
 3864TIP3    H133227   5.431   3.491   0.297  1.0564  0.7785  0.8518
 3864TIP3    H233228   5.375   3.526   0.433  2.0898  0.3633  1.3903
 3865TIP3   OH233229   5.017   2.533   0.565  0.1053  0.6737  0.1632
 3865TIP3    H133230   5.028   2.496   0.652 -0.2716 -0.8818 -0.4298
 3865TIP3    H233231   4.939   2.490   0.530 -0.2653  1.9300 -0.6226
 3866TIP3   OH233232   0.228   1.569   0.388  0.6194 -0.1619 -0.1963
 3866TIP3    H133233   0.298   1.505   0.373 -0.1377 -1.5336  1.7234
 3866TIP3    H233234   0.273   1.646   0.424  1.4671  0.2123 -1.9308
 3867TIP3   OH233235   1.946   0.183   1.657 -0.2294  0.2344  0.1967
 3867TIP3    H133236   1.900   0.133   1.589 -0.9833 -0.5489  1.2536
 3867TIP3    H233237   2.005   0.240   1.608 -0.7594 -0.2948 -1.1215
 3868TIP3   OH233238   5.771   5.868   0.469 -0.4826  0.2384 -0.4249
 3868TIP3    H133239   5.765   5.834   0.558 -0.0082 -0.7991 -0.7804
 3868TIP3    H233240   5.830   5.943   0.476  0.7828 -0.7635 -0.1205
 3869TIP3   OH233241   2.228   6.663   0.284 -0.4124  0.1685 -0.1876
 3869TIP3    H133242   2.139   6.698   0.278 -0.0447  1.0129 -1.0837
 3869TIP3    H233243   2.232   6.594   0.218 -0.4235  0.0714 -0.0876
 3870TIP3   OH233244   2.986   3.810   1.835  0.1565  0.2264 -0.6855
 3870TIP3    H133245   2.995   3.716   1.824  1.7839  0.4124 -1.1726
 3870TIP3    H233246   2.976   3.822   1.930  3.4152 -0.2547 -0.1792
 3871TIP3   OH233247   3.003   5.878   1.507  0.0327 -0.4904  0.2004
 3871TIP3    H133248   3.073   5.813   1.515 -0.1623 -0.5172  2.0993
 3871TIP3    H233249   2.934   5.847   1.565 -0.8572  0.4463 -0.3123
 3872TIP3   OH233250   1.484   6.365   2.444 -0.2087 -0.0920 -0.5306
 3872TIP3    H133251   1.404   6.371   2.392  0.1263  0.0500 -1.0381
 3872TIP3    H233252   1.533   6.444   2.420 -0.8979  0.9994  1.4445
 3873TIP3   OH233253   0.379   2.308   1.536 -0.6502  0.5555 -0.0565
 3873TIP3    H133254   0.318   2.247   1.578 -0.7506  1.9889  2.0069
 3873TIP3    H233255   0.461   2.295   1.583  0.0652  0.1564 -1.3878
 3874TIP3   OH233256   3.840   0.648   3.715 -0.1009  0.0780 -0.0371
 3874TIP3    H133257   3.887   0.648   3.631 -0.0339  0.9559 -0.0111
 3874TIP3    H233258   3.751   0.622   3.693 -0.1581  0.5861 -0.4354
 3875TIP3   OH233259   4.693   5.734   2.050 -0.3808  0.6084  0.5643
 3875TIP3    H133260   4.738   5.762   1.970 -0.1184  1.5439  1.0253
 3875TIP3    H233261   4.617   5.791   2.056 -1.8756 -1.1574 -0.3734
 3876TIP3   OH233262   1.074   1.185   3.357  0.4762  0.6564  0.6803
 3876TIP3    H133263   1.159   1.215   3.326  0.6345  1.1146  1.5438
 3876TIP3    H233264   1.093   1.132   3.434 -0.0419  1.0552  1.0916
 3877TIP3   OH233265   3.834   0.786   1.812 -0.3092  0.2858  0.0264
 3877TIP3    H133266   3.744   0.773   1.842 -0.1785  0.9907  0.7586
 3877TIP3    H233267   3.877   0.702   1.830 -1.1845 -0.6130 -1.8050
 3878TIP3   OH233268   1.497   2.163   2.860  0.2619 -0.6814  0.1560
 3878TIP3    H133269   1.558   2.236   2.862 -0.5849  0.0545 -0.3681
 3878TIP3    H233270   1.450   2.168   2.943 -0.8626  0.3197 -0.5124
 3879TIP3   OH233271   1.415   6.652   2.865 -0.4760  0.0304 -0.0209
 3879TIP3    H133272   1.424   6.744   2.887  1.7195 -0.3332  0.8214
 3879TIP3    H233273   1.498   6.628   2.825 -0.9346 -1.6230 -0.0762
 3880TIP3   OH233274   2.365   3.980   1.187 -0.8608  0.1205  0.1805
 3880TIP3    H133275   2.405   4.062   1.217  0.1563  0.1394 -1.0966
 3880TIP3    H233276   2.386   3.916   1.255 -3.3243  1.2764  2.1640
 3881TIP3   OH233277   5.103   5.582   1.048 -0.3674 -0.3049 -0.6588
 3881TIP3    H133278   5.011   5.599   1.027 -1.1813 -0.0427  2.5291
 3881TIP3    H233279   5.102   5.497   1.092  1.0635 -0.6433 -1.2205
 3882TIP3   OH233280   2.350   2.021   2.655 -0.0841 -0.1671  0.4301
 3882TIP3    H133281   2.369   2.113   2.674 -0.0308  0.0299 -0.4993
 3882TIP3    H233282   2.330   1.982   2.740 -1.7562  1.0928  0.6710
 3883TIP3   OH233283   6.741   2.194   0.287 -0.4609  0.0196 -0.0207
 3883TIP3    H133284   6.736   2.164   0.378 -1.2055 -0.9623 -0.3665
 3883TIP3    H233285   6.664   2.157   0.245  0.4592 -0.4951 -1.3346
 3884TIP3   OH233286   1.510   1.703   0.133  0.5368 -0.2628 -0.2208
 3884TIP3    H133287   1.589   1.748   0.161 -0.4748  1.8128 -0.5574
 3884TIP3    H233288   1.521   1.690   0.039  0.6500 -0.3519 -0.1952
 3885TIP3   OH233289   1.616   0.568   3.223 -0.0051 -0.7729 -0.2242
 3885TIP3    H133290   1.655   0.633   3.166 -1.5358 -0.6768 -1.2111
 3885TIP3    H233291   1.669   0.571   3.303  0.3129  1.2614 -0.4616
 3886TIP3   OH233292   4.709   5.642   1.406  0.2795 -0.2854 -0.0290
 3886TIP3    H133293   4.690   5.620   1.497  1.3241  0.5823  0.4079
 3886TIP3    H233294   4.746   5.730   1.409 -0.1334 -0.0399 -1.3499
 3887TIP3   OH233295   2.441   3.640   0.822 -0.0967 -0.0672  0.1620
 3887TIP3    H133296   2.348   3.618   0.826  0.0719 -0.8806 -0.1692
 3887TIP3    H233297   2.454   3.704   0.892 -0.8019 -0.3283  0.5402
 3888TIP3   OH233298   3.456   3.244   3.943  0.3462  0.1992 -0.2150
 3888TIP3    H133299   3.421   3.179   3.882  2.9964 -0.6718 -0.9246
 3888TIP3    H233300   3.478   3.319   3.889 -1.0193  1.0397  0.3398
 3889TIP3   OH233301   1.021   0.552   8.690 -0.5582  0.5424  0.1197
 3889TIP3    H133302   0.959   0.624   8.701 -1.4705 -0.0801 -0.7542
 3889TIP3    H233303   1.087   0.566   8.758 -0.6898  2.2180 -0.0687
 3890TIP3   OH233304   2.023   1.983   8.710 -0.1425  0.1088 -0.1707
 3890TIP3    H133305   1.936   1.978   8.671  0.2801 -0.6747 -1.0396
 3890TIP3    H233306   2.083   1.993   8.636  0.6685 -1.4520  0.2301
 3891TIP3   OH233307   6.673   6.184   1.940  0.1399  0.1252  0.1098
 3891TIP3    H133308   6.607   6.114   1.939 -0.3192  0.5535 -1.2152
 3891TIP3    H233309   6.730   6.165   1.866  0.0920  1.0626 -0.1828
 3892TIP3   OH233310   2.551   5.164   1.422 -0.0370 -0.2401 -0.1108
 3892TIP3    H133311   2.582   5.082   1.383 -0.8579 -0.6046 -0.0246
 3892TIP3    H233312   2.521   5.216   1.348 -1.8156 -1.0272  0.0161
 3893TIP3   OH233313   4.420   6.358   2.986 -0.3282 -0.9273 -0.1479
 3893TIP3    H133314   4.347   6.418   3.000 -0.8805 -1.6034 -0.0934
 3893TIP3    H233315   4.498   6.413   2.992 -0.8616 -0.0349 -1.0758
 3894TIP3   OH233316   0.077   5.406   3.275  0.4410  0.1451 -0.2562
 3894TIP3    H133317   0.034   5.320   3.271 -0.3866  0.5302  0.1112
 3894TIP3    H233318   0.095   5.419   3.369  1.7631 -0.1861 -0.4340
 3895TIP3   OH233319   1.978   6.747   0.323 -0.0080  0.6174 -0.3066
 3895TIP3    H133320   1.894   6.707   0.348  1.0946 -0.4386  2.0231
 3895TIP3    H233321   2.003   6.800   0.398  2.2540 -0.5831 -0.1065
 3896TIP3   OH233322   5.528   1.890   2.488  0.4228  0.2765 -0.2283
 3896TIP3    H133323   5.573   1.971   2.462 -1.4344  1.2203 -0.6452
 3896TIP3    H233324   5.483   1.861   2.409 -1.5705  0.6493  0.7144
 3897TIP3   OH233325   1.517   0.228   3.092 -0.1540  0.5548 -0.0267
 3897TIP3    H133326   1.486   0.232   3.002 -0.2944  1.2086  0.0456
 3897TIP3    H233327   1.481   0.307   3.134  0.3144  0.5158  0.4691
 3898TIP3   OH233328   0.167   4.556   1.810 -0.1806 -0.0318  0.5662
 3898TIP3    H133329   0.138   4.466   1.825 -0.4971 -0.1318 -0.5296
 3898TIP3    H233330   0.260   4.548   1.788 -0.3981 -0.1930 -0.3414
 3899TIP3   OH233331   4.454   1.010   3.651 -0.1500 -0.5996  0.8937
 3899TIP3    H133332   4.430   1.034   3.561 -0.9692  1.8298  1.6628
 3899TIP3    H233333   4.539   1.054   3.665 -1.2389  1.2857  2.0570
 3900TIP3   OH233334   4.363   4.075   2.909 -0.1878  0.4772  0.5217
 3900TIP3    H133335   4.369   4.166   2.881  0.2738  0.0714 -0.7273
 3900TIP3    H233336   4.302   4.077   2.983 -0.6765  1.6982  0.1016
 3901TIP3   OH233337   1.353   6.551   8.211 -0.4058 -0.1704  0.0434
 3901TIP3    H133338   1.261   6.524   8.209 -0.5822  0.4365 -1.9633
 3901TIP3    H233339   1.381   6.549   8.119  0.3823  3.6216  0.0430
 3902TIP3   OH233340   3.733   4.791   2.451  0.5202  0.2022  0.5928
 3902TIP3    H133341   3.671   4.833   2.512  1.5802  0.2940  1.6405
 3902TIP3    H233342   3.812   4.777   2.503  1.8224  1.1712 -1.0209
 3903TIP3   OH233343   1.727   2.750   1.580 -0.0024  0.2929 -0.0581
 3903TIP3    H133344   1.703   2.676   1.525  1.4305  0.5646 -1.0873
 3903TIP3    H233345   1.712   2.718   1.669 -2.6423 -0.0546 -0.5348
 3904TIP3   OH233346   6.344   6.767   3.435  0.1302  1.0499  0.2635
 3904TIP3    H133347   6.252   6.772   3.410 -0.0996  2.9002  1.3025
 3904TIP3    H233348   6.386   6.836   3.383  1.0399 -0.0389 -0.5014
 3905TIP3   OH233349   0.979   1.774   8.714  0.4073 -0.4613 -0.6896
 3905TIP3    H133350   0.995   1.835   8.786 -1.4425 -0.6372 -0.0581
 3905TIP3    H233351   0.980   1.829   8.636 -1.1212  0.4327 -0.1383
 3906TIP3   OH233352   2.210   0.391   4.360  0.6980  0.1438 -0.0986
 3906TIP3    H133353   2.156   0.470   4.360 -0.4627 -0.6022 -1.1652
 3906TIP3    H233354   2.239   0.382   4.269 -0.9364 -1.7691 -0.4812
 3907TIP3   OH233355   3.164   0.195   8.270  0.1897  0.0320 -0.3929
 3907TIP3    H133356   3.123   0.160   8.191  2.0853  0.5519 -1.6851
 3907TIP3    H233357   3.135   0.137   8.340  1.8723 -3.2481 -2.1480
 3908TIP3   OH233358   6.202   1.665   2.294  0.5269 -0.4408 -0.4052
 3908TIP3    H133359   6.121   1.620   2.271  0.2271 -0.0236 -0.1840
 3908TIP3    H233360   6.205   1.662   2.390 -0.7681  2.1134 -0.1907
 3909TIP3   OH233361   4.056   2.002   2.872 -0.6409  0.6701  0.1474
 3909TIP3    H133362   4.127   1.942   2.894 -1.1198  0.0859  0.1195
 3909TIP3    H233363   4.039   2.050   2.953  0.4941  1.5762 -0.1239
 3910TIP3   OH233364   1.785   6.393   0.069 -0.1803 -0.2039 -0.0821
 3910TIP3    H133365   1.786   6.482   0.033  2.2016  0.3988  1.2179
 3910TIP3    H233366   1.840   6.343   0.008 -1.5365 -0.8283 -0.8244
 3911TIP3   OH233367   0.180   6.215   1.911  0.0938 -0.4301 -0.1858
 3911TIP3    H133368   0.252   6.260   1.955  0.6988  0.3915 -1.9338
 3911TIP3    H233369   0.102   6.263   1.937  0.5733  0.7641 -0.8774
 3912TIP3   OH233370   2.295   1.265   2.987 -0.1438 -0.1004  0.5670
 3912TIP3    H133371   2.328   1.229   3.069  0.5409 -1.1061 -0.1296
 3912TIP3    H233372   2.227   1.327   3.013 -0.8453 -1.3545  1.8300
 3913TIP3   OH233373   4.450   3.050   0.516 -0.3647 -0.1986 -0.0653
 3913TIP3    H133374   4.497   3.027   0.436 -0.0550  1.9691 -0.5447
 3913TIP3    H233375   4.360   3.021   0.500 -0.6070  1.3310 -1.7486
 3914TIP3   OH233376   0.267   4.665   0.941  0.0366 -0.2417 -1.2297
 3914TIP3    H133377   0.327   4.714   0.997 -1.7408  0.2783  0.3213
 3914TIP3    H233378   0.204   4.625   1.001 -3.0881  1.8237 -2.7959
 3915TIP3   OH233379   3.651   4.254   2.584  0.0552  0.6908 -0.3933
 3915TIP3    H133380   3.638   4.233   2.491  1.5883 -0.7872 -0.3297
 3915TIP3    H233381   3.589   4.197   2.630  0.0801  0.6048 -0.4663
 3916TIP3   OH233382   0.105   1.663   0.902  0.2954 -0.9324  0.2508
 3916TIP3    H133383   0.171   1.637   0.966  0.1427 -0.3252  0.6551
 3916TIP3    H233384   0.155   1.702   0.830  0.3848 -0.6339  0.4778
 3917TIP3   OH233385   5.221   3.979   1.831  0.2331 -0.0228  0.2315
 3917TIP3    H133386   5.279   3.958   1.904 -0.5696  0.7494  1.1210
 3917TIP3    H233387   5.157   3.908   1.830  1.0337 -0.7526 -0.6036
 3918TIP3   OH233388   6.220   3.916   1.778 -0.0315 -0.0256 -0.5138
 3918TIP3    H133389   6.315   3.925   1.773  0.3171 -2.1418  1.0755
 3918TIP3    H233390   6.191   3.991   1.829  0.7931  0.5442 -0.8609
 3919TIP3   OH233391   2.282   0.059   0.403  0.3690 -0.1947 -0.4623
 3919TIP3    H133392   2.200   0.058   0.452  1.0580 -0.9758  0.7364
 3919TIP3    H233393   2.291  -0.030   0.370  0.6388 -0.0613 -0.7496
 3920TIP3   OH233394   1.697   4.055   8.692 -0.4687  0.3184  0.2199
 3920TIP3    H133395   1.674   4.121   8.626  0.5804  1.5096  1.0066
 3920TIP3    H233396   1.755   3.995   8.646 -0.9717  0.2570 -0.3502
 3921TIP3   OH233397   0.922   3.149   8.623  0.0639 -0.0148 -0.5013
 3921TIP3    H133398   0.971   3.081   8.578  1.1585  0.5561 -0.2001
 3921TIP3    H233399   0.988   3.201   8.668 -0.9658 -0.5733  1.8058
 3922TIP3   OH233400   0.789   3.250   1.189 -0.0346 -0.1818 -0.0575
 3922TIP3    H133401   0.843   3.226   1.265  0.2022  1.0417  0.1872
 3922TIP3    H233402   0.699   3.236   1.217  0.0925 -1.6561 -0.2606
 3923TIP3   OH233403   6.358   6.185   0.146  0.6765 -0.3902  0.4579
 3923TIP3    H133404   6.311   6.211   0.067 -0.2503  0.1017  1.1381
 3923TIP3    H233405   6.450   6.203   0.127  0.3293  1.0204 -0.0224
 3924TIP3   OH233406   5.410   5.558   1.875 -0.3221 -0.1664 -0.6490
 3924TIP3    H133407   5.447   5.630   1.824  0.8645 -0.9079 -0.8777
 3924TIP3    H233408   5.376   5.498   1.808 -1.0749  0.0418 -0.4658
 3925TIP3   OH233409   6.139   0.430   0.971 -0.4948 -0.1702 -0.3050
 3925TIP3    H133410   6.213   0.431   0.911 -1.7949 -1.7148 -2.0505
 3925TIP3    H233411   6.119   0.337   0.984 -2.2412  0.2036 -0.0609
 3926TIP3   OH233412   1.962   0.746   7.750 -0.1124  0.0347 -0.2844
 3926TIP3    H133413   1.995   0.836   7.742  3.8679 -1.0758  1.1708
 3926TIP3    H233414   1.917   0.744   7.834  1.1831  0.3563  0.4366
 3927TIP3   OH233415   1.362   6.721   1.696 -0.1366  0.5964  0.1467
 3927TIP3    H133416   1.410   6.673   1.764 -0.5467 -0.5253 -0.3192
 3927TIP3    H233417   1.276   6.679   1.695  0.1187  0.0277 -1.6063
 3928TIP3   OH233418   5.250   3.780   1.514 -0.4261  0.3774 -0.2542
 3928TIP3    H133419   5.181   3.841   1.486 -0.1213  1.2491  0.8193
 3928TIP3    H233420   5.275   3.735   1.433 -1.7239  0.5746 -0.8003
 3929TIP3   OH233421   5.148   1.620   0.494 -0.1152  0.1197  0.4586
 3929TIP3    H133422   5.234   1.657   0.512 -0.6882  1.0564  1.4144
 3929TIP3    H233423   5.113   1.675   0.423 -0.4305  0.5686  0.9561
 3930TIP3   OH233424   4.545   0.302   0.072 -0.4924  0.3311  0.4193
 3930TIP3    H133425   4.546   0.277   0.164 -1.2363  1.1660  0.6681
 3930TIP3    H233426   4.454   0.327   0.055 -0.5642 -0.6356 -0.7752
 3931TIP3   OH233427   2.898   1.708   4.001  1.1876  0.5129  0.4839
 3931TIP3    H133428   2.955   1.664   3.937  1.2572  0.1780  0.7758
 3931TIP3    H233429   2.837   1.640   4.030  1.6100  0.4778  1.3065
 3932TIP3   OH233430   5.799   5.953   1.435  0.3813  0.8193 -0.1364
 3932TIP3    H133431   5.818   6.046   1.420  0.5609  0.6165 -1.2388
 3932TIP3    H233432   5.714   5.939   1.394  0.0008  0.6695  0.7036
 3933TIP3   OH233433   2.324   6.324   4.068 -0.2676 -0.2384 -0.0110
 3933TIP3    H133434   2.361   6.239   4.045 -0.1168 -0.0916 -0.3089
 3933TIP3    H233435   2.381   6.357   4.138  0.2467  0.0483 -0.5627
 3934TIP3   OH233436   3.057   5.721   0.914 -0.2987  0.6904 -0.4199
 3934TIP3    H133437   3.070   5.811   0.884 -1.6490  0.9462 -0.2998
 3934TIP3    H233438   2.962   5.712   0.922 -0.5526 -1.8589 -3.9208
 3935TIP3   OH233439   4.879   1.552   0.548  0.5543 -0.1424  0.3395
 3935TIP3    H133440   4.849   1.566   0.459 -2.1575  1.1261  1.3342
 3935TIP3    H233441   4.971   1.577   0.547  0.3523  0.7123 -1.9099
 3936TIP3   OH233442   4.724   4.991   0.805  0.0905  0.0041 -0.2575
 3936TIP3    H133443   4.741   4.925   0.871  1.1899 -0.5209 -1.0237
 3936TIP3    H233444   4.781   5.065   0.829 -0.4064  0.2875  0.0525
 3937TIP3   OH233445   5.376   3.523   1.664  0.0367 -0.5417  0.1225
 3937TIP3    H133446   5.438   3.535   1.593 -0.3561 -1.0024 -0.3125
 3937TIP3    H233447   5.290   3.521   1.621 -0.1604 -1.5022  0.5182
 3938TIP3   OH233448   6.055   5.213   3.365  0.1709 -0.1969 -0.2478
 3938TIP3    H133449   6.031   5.126   3.334  1.1785 -0.9588  1.0204
 3938TIP3    H233450   6.080   5.200   3.456  3.5399  0.7965 -0.8988
 3939TIP3   OH233451   4.060   4.418   0.080  0.2777 -0.3849 -0.7605
 3939TIP3    H133452   4.019   4.402   0.165  0.3812 -0.5696 -0.7428
 3939TIP3    H233453   3.988   4.417   0.018  0.3596 -1.7488 -0.8628
 3940TIP3   OH233454   5.010   0.628   0.970 -0.0273 -0.3210 -0.1101
 3940TIP3    H133455   5.060   0.597   1.045  0.2318 -1.9929 -0.9133
 3940TIP3    H233456   5.058   0.594   0.894 -2.2802 -1.9139 -0.9243
 3941TIP3   OH233457   0.576   4.381   0.533  0.3992 -0.0349 -0.1138
 3941TIP3    H133458   0.581   4.334   0.616 -0.6024  1.0116  0.5786
 3941TIP3    H233459   0.658   4.360   0.488 -0.1391 -2.6770 -0.0066
 3942TIP3   OH233460   4.291   3.025   8.551  0.6016  0.0790 -0.1117
 3942TIP3    H133461   4.316   2.953   8.493  0.7520 -0.4684  0.6137
 3942TIP3    H233462   4.282   2.984   8.637 -1.3780  0.5121 -0.0603
 3943TIP3   OH233463   3.846   5.991   3.619 -0.5436 -0.1704  0.1012
 3943TIP3    H133464   3.941   6.003   3.627 -0.2834 -0.1921 -2.3904
 3943TIP3    H233465   3.818   5.968   3.708  1.7187  0.1576  0.9718
 3944TIP3   OH233466   0.020   3.748   1.240  0.8315  0.1292 -0.0082
 3944TIP3    H133467  -0.072   3.723   1.249  1.0113 -0.0119  1.7775
 3944TIP3    H233468   0.060   3.677   1.190  0.1285 -0.1789 -0.1478
 3945TIP3   OH233469   6.799   1.149   8.648 -0.0494  0.2913  0.0879
 3945TIP3    H133470   6.770   1.167   8.559  1.7649  0.8123 -0.4397
 3945TIP3    H233471   6.894   1.157   8.645  0.1637 -0.9316  1.8038
 3946TIP3   OH233472   4.878   4.735   8.664 -0.4249 -0.8800  0.5226
 3946TIP3    H133473   4.810   4.764   8.603  2.1446  2.2088 -1.1668
 3946TIP3    H233474   4.933   4.678   8.611  0.2530 -0.4796  0.7906
 3947TIP3   OH233475   4.624   5.037   1.110  0.0304  0.0683  0.0353
 3947TIP3    H133476   4.662   4.958   1.071 -1.1726 -1.5721  1.9980
 3947TIP3    H233477   4.694   5.074   1.164  0.5940  0.3892 -0.8826
 3948TIP3   OH233478   1.290   3.759   3.581  0.1216 -0.0723  0.5133
 3948TIP3    H133479   1.240   3.678   3.587  1.4935 -0.9610  0.4854
 3948TIP3    H233480   1.300   3.787   3.673 -0.9243  0.4527  0.4802
 3949TIP3   OH233481   4.513   6.053   8.534 -0.3218  0.7937  0.2607
 3949TIP3    H133482   4.604   6.050   8.564 -0.3863 -1.8044  0.4089
 3949TIP3    H233483   4.518   6.025   8.442 -1.0488 -0.4322  0.5795
 3950TIP3   OH233484   1.192   4.278   0.194 -0.6990  0.3940  0.2317
 3950TIP3    H133485   1.125   4.340   0.224  0.3734  1.8933 -0.3470
 3950TIP3    H233486   1.271   4.331   0.186  0.2685 -1.0840 -0.2601
 3951TIP3   OH233487   1.127   3.047   2.784  0.1043  0.0525 -0.4002
 3951TIP3    H133488   1.037   3.076   2.771  0.4514  1.5298  0.3023
 3951TIP3    H233489   1.179   3.128   2.784  1.5188 -0.7964 -1.3937
 3952TIP3   OH233490   3.311   6.351   0.488 -0.4264 -0.3571  0.2066
 3952TIP3    H133491   3.361   6.302   0.554 -1.0003  1.1322  1.8374
 3952TIP3    H233492   3.360   6.432   0.477 -2.0060  0.8159  1.3033
 3953TIP3   OH233493   3.564   1.316   2.539  0.3927  0.1833  0.4343
 3953TIP3    H133494   3.479   1.321   2.495 -0.1406  0.3813  1.4507
 3953TIP3    H233495   3.626   1.351   2.475 -0.4346  0.9567  0.0234
 3954TIP3   OH233496   2.829   3.386   3.300  0.2242 -0.1291 -0.0219
 3954TIP3    H133497   2.865   3.298   3.308 -0.8489 -0.4137  3.8623
 3954TIP3    H233498   2.739   3.373   3.272  0.7795  0.0021 -1.9931
 3955TIP3   OH233499   5.560   0.622   0.926 -0.2289  0.4096 -0.3881
 3955TIP3    H133500   5.604   0.562   0.866  0.5683  0.3225  0.2609
 3955TIP3    H233501   5.467   0.610   0.909 -0.0722 -0.8499 -0.4400
 3956TIP3   OH233502   3.761   5.299   0.024  0.6402  0.1114 -0.1525
 3956TIP3    H133503   3.840   5.246   0.019  0.1752 -0.7039  0.8283
 3956TIP3    H233504   3.785   5.382  -0.018  1.6322 -0.5598 -0.9545
 3957TIP3   OH233505   6.322   1.067   3.563 -0.4575  0.8629 -0.2105
 3957TIP3    H133506   6.227   1.075   3.570 -0.3343  1.2249  1.5148
 3957TIP3    H233507   6.355   1.153   3.591  0.4162  0.0816  1.2782
 3958TIP3   OH233508   2.272   2.382   1.083  0.2409 -0.7403  0.3743
 3958TIP3    H133509   2.350   2.357   1.034  0.2990 -1.3011  0.7502
 3958TIP3    H233510   2.204   2.322   1.051 -0.1787  0.0986 -0.3483
 3959TIP3   OH233511   5.006   5.515   0.695 -0.1897  0.0659  0.4034
 3959TIP3    H133512   5.023   5.577   0.624 -0.7452  0.7256  0.8352
 3959TIP3    H233513   4.911   5.517   0.707 -0.5275 -2.5596 -1.0645
 3960TIP3   OH233514   6.438   0.498   8.653 -0.4630 -0.4067  0.3704
 3960TIP3    H133515   6.525   0.482   8.691  0.1875  0.6570 -0.5729
 3960TIP3    H233516   6.416   0.586   8.682 -0.2832  0.1287 -1.0510
 3961TIP3   OH233517   5.318   0.174   0.782  0.4393 -0.1794 -0.9773
 3961TIP3    H133518   5.367   0.245   0.824  1.2601  0.4982 -2.9722
 3961TIP3    H233519   5.323   0.102   0.845  0.9493  1.0126  0.4102
 3962TIP3   OH233520   4.777   6.727   1.912 -0.1238 -0.0272  0.9943
 3962TIP3    H133521   4.805   6.670   1.984  3.0173 -0.9456 -0.7567
 3962TIP3    H233522   4.750   6.666   1.843 -0.7794  0.7679  0.5279
 3963TIP3   OH233523   2.183   2.254   0.812  0.0927  0.4404 -0.1581
 3963TIP3    H133524   2.099   2.208   0.807 -0.4493  1.4757 -1.0690
 3963TIP3    H233525   2.197   2.287   0.724  2.2629 -1.0471 -0.4389
 3964TIP3   OH233526   2.977   4.726   2.357 -0.2029 -0.2525 -0.0455
 3964TIP3    H133527   2.972   4.741   2.263  0.3659  0.7494  0.0696
 3964TIP3    H233528   3.058   4.769   2.384 -0.0350 -1.0723  0.8100
 3965TIP3   OH233529   2.802   5.667   0.266 -0.5589 -0.7905 -0.6504
 3965TIP3    H133530   2.815   5.747   0.215 -0.9521 -0.4803 -0.2732
 3965TIP3    H233531   2.727   5.686   0.322 -0.7294 -1.4668 -0.6380
 3966TIP3   OH233532   6.570   2.427   0.271 -0.3426  0.1540 -0.5196
 3966TIP3    H133533   6.585   2.447   0.178  2.7566  0.6458 -0.0313
 3966TIP3    H233534   6.601   2.337   0.282 -0.7989  0.0568  0.0189
 3967TIP3   OH233535   0.643   4.633   2.982 -0.0946  0.2924  0.0876
 3967TIP3    H133536   0.651   4.576   3.059 -1.0573  0.7029  0.5121
 3967TIP3    H233537   0.730   4.631   2.941  0.1822 -0.6199  0.6957
 3968TIP3   OH233538   4.200   0.937   0.589  0.1789  0.0901  0.3383
 3968TIP3    H133539   4.153   0.916   0.670  0.0077 -1.3085 -0.0918
 3968TIP3    H233540   4.277   0.879   0.590  0.6296  0.6675 -0.0955
 3969TIP3   OH233541   0.796   3.096   2.505  0.2400  0.4576  0.1299
 3969TIP3    H133542   0.835   3.009   2.507  1.5261  1.0169  0.5110
 3969TIP3    H233543   0.773   3.109   2.413  3.1827  1.0011 -0.6239
 3970TIP3   OH233544   0.698   0.902   2.417 -0.1998 -0.4972 -0.2162
 3970TIP3    H133545   0.780   0.852   2.406 -1.6165 -2.6710 -1.8623
 3970TIP3    H233546   0.707   0.944   2.503  2.3031 -1.2662 -0.0004
 3971TIP3   OH233547   6.657   4.263   0.603  0.0167  0.0754 -0.2500
 3971TIP3    H133548   6.640   4.304   0.688  0.5653  1.0884 -0.6060
 3971TIP3    H233549   6.727   4.200   0.621 -0.1394  0.0047  0.1264
 3972TIP3   OH233550   5.403   4.373   0.589  0.8934  0.0906 -0.5174
 3972TIP3    H133551   5.309   4.374   0.607  1.2151 -0.3700  1.3934
 3972TIP3    H233552   5.414   4.438   0.519 -0.9084 -0.3393 -1.2886
 3973TIP3   OH233553   1.232   0.649   4.442 -0.0850  0.4940  0.4394
 3973TIP3    H133554   1.287   0.572   4.457 -0.7691 -0.0609  0.1517
 3973TIP3    H233555   1.143   0.620   4.466 -0.2247  1.4567  1.1867
 3974TIP3   OH233556   4.452   0.171   1.405  0.3856  0.4602  0.0138
 3974TIP3    H133557   4.499   0.174   1.488 -1.8063  2.4686  1.2989
 3974TIP3    H233558   4.497   0.236   1.350  1.6909 -0.7027 -0.3494
 3975TIP3   OH233559   1.154   0.018   8.652 -0.3510 -0.1429 -0.2495
 3975TIP3    H133560   1.150   0.078   8.577 -2.4228  1.0462  0.7039
 3975TIP3    H233561   1.185  -0.065   8.616 -0.1026  0.7417 -2.1698
 3976TIP3   OH233562   3.252   3.415   0.044  0.3145 -0.4257  0.1593
 3976TIP3    H133563   3.230   3.492   0.097 -1.3476  1.2999 -2.7615
 3976TIP3    H233564   3.341   3.392   0.071  0.2084  1.3969  2.3824
 3977TIP3   OH233565   6.735   1.379   0.660 -0.2204 -0.7245  0.5058
 3977TIP3    H133566   6.743   1.453   0.720  1.3636  0.1968 -0.7691
 3977TIP3    H233567   6.644   1.381   0.631 -0.2927  0.5225  0.7740
 3978TIP3   OH233568   3.946   2.735   2.027 -0.7050  0.5344 -0.0710
 3978TIP3    H133569   3.982   2.819   1.999 -0.6256  0.4056 -0.3588
 3978TIP3    H233570   3.927   2.689   1.945  0.8636 -0.4253  0.0581
 3979TIP3   OH233571   6.345   6.726   8.614 -0.2133 -0.1579 -0.0230
 3979TIP3    H133572   6.291   6.662   8.567  0.4748 -1.0912  0.4149
 3979TIP3    H233573   6.434   6.709   8.582 -0.0777  0.8738 -0.2074
 3980TIP3   OH233574   0.796   4.099   0.211 -0.4439 -0.5299 -0.6386
 3980TIP3    H133575   0.836   4.087   0.125 -0.4712 -2.5160 -0.4208
 3980TIP3    H233576   0.806   4.014   0.254 -0.1825  0.4895  1.4409
 3981TIP3   OH233577   0.519   2.305   3.846 -0.4434 -0.6642  0.1461
 3981TIP3    H133578   0.601   2.352   3.835 -0.6060 -0.8844 -2.7462
 3981TIP3    H233579   0.545   2.218   3.875 -0.0123  0.3902  3.3441
 3982TIP3   OH233580   5.337   6.789   1.747 -0.3175  0.4130 -0.9263
 3982TIP3    H133581   5.254   6.805   1.793  0.1448 -0.1826  0.1440
 3982TIP3    H233582   5.391   6.865   1.768  0.9595 -1.1450  2.0553
 3983TIP3   OH233583   2.066   3.791   2.436 -0.2346 -0.3140 -0.3426
 3983TIP3    H133584   2.006   3.864   2.422  0.0906 -0.1751 -1.0916
 3983TIP3    H233585   2.054   3.767   2.527 -1.4361 -0.2991 -0.4845
 3984TIP3   OH233586   0.291   1.636   4.075 -0.5614 -0.0960 -0.0576
 3984TIP3    H133587   0.363   1.574   4.093 -1.6928 -1.3232  0.4042
 3984TIP3    H233588   0.213   1.592   4.109 -2.0367 -0.1524 -3.1642
 3985TIP3   OH233589   1.962   0.742   8.543 -0.3832 -0.0396  0.1372
 3985TIP3    H133590   1.950   0.657   8.585 -0.0217 -0.4830 -0.6297
 3985TIP3    H233591   2.007   0.795   8.608  1.0954 -1.0317 -0.0282
 3986TIP3   OH233592   5.254   4.574   3.208 -0.1353  0.4997  0.6672
 3986TIP3    H133593   5.237   4.605   3.119 -1.0293 -2.4503 -0.3203
 3986TIP3    H233594   5.262   4.479   3.199  1.2977  0.2341  3.5495
 3987TIP3   OH233595   3.217   6.126   4.441 -0.5198 -0.2493 -0.3606
 3987TIP3    H133596   3.191   6.190   4.375 -0.8587  0.9570  0.8986
 3987TIP3    H233597   3.297   6.162   4.479 -0.2331 -1.0141 -0.2118
 3988TIP3   OH233598   0.629   0.996   8.605  0.3039  0.2886 -0.8228
 3988TIP3    H133599   0.664   0.950   8.528 -0.3253 -0.0959 -0.8818
 3988TIP3    H233600   0.537   1.009   8.586  0.5049  1.8179 -0.9087
 3989TIP3   OH233601   1.542   5.422   3.482  0.7389 -0.0374 -0.0068
 3989TIP3    H133602   1.485   5.365   3.533 -0.1302 -0.1288 -1.0355
 3989TIP3    H233603   1.505   5.419   3.393  2.5507 -0.3579 -0.7870
 3990TIP3   OH233604   5.346   3.430   1.135  0.2751 -0.1315  0.1739
 3990TIP3    H133605   5.340   3.488   1.060 -1.1650  0.3051  0.5889
 3990TIP3    H233606   5.437   3.399   1.135  0.4778  0.3891 -1.3262
 3991TIP3   OH233607   2.197   5.479   3.347  0.0384  0.2475 -0.0990
 3991TIP3    H133608   2.164   5.397   3.385 -1.0178  0.4445 -0.5526
 3991TIP3    H233609   2.273   5.501   3.401  0.4761 -1.1382 -0.0997
 3992TIP3   OH233610   1.786   1.070   1.615 -0.1621 -0.1636  0.1672
 3992TIP3    H133611   1.786   0.975   1.606  1.3660 -0.1971  0.1859
 3992TIP3    H233612   1.704   1.099   1.575  0.3161 -1.3163 -1.7573
 3993TIP3   OH233613   2.278   5.884   2.339  0.2861  0.3541  0.4320
 3993TIP3    H133614   2.206   5.886   2.401  0.0898  0.8215  0.1893
 3993TIP3    H233615   2.239   5.909   2.255  0.6560  0.2662  0.2312
 3994TIP3   OH233616   3.222   2.074   3.078 -0.0589  0.3999 -0.2450
 3994TIP3    H133617   3.270   1.995   3.103 -1.1678 -0.2312 -0.0404
 3994TIP3    H233618   3.272   2.146   3.117  0.4537 -0.2738  0.3658
 3995TIP3   OH233619   0.973   2.473   1.210  0.2528 -0.5154 -0.0936
 3995TIP3    H133620   0.953   2.380   1.196 -0.6592 -0.3633  0.1469
 3995TIP3    H233621   0.903   2.520   1.166 -1.1218  0.0035  2.4159
 3996TIP3   OH233622   0.120   2.745   8.417  0.0598 -0.4145 -0.1774
 3996TIP3    H133623   0.047   2.796   8.452 -0.9107 -1.7403 -0.1818
 3996TIP3    H233624   0.099   2.654   8.440  1.6820 -0.8304 -0.2392
 3997TIP3   OH233625   6.336   5.123   3.586  0.0256  0.4690  0.1077
 3997TIP3    H133626   6.385   5.178   3.526  3.6348 -0.5971  1.8327
 3997TIP3    H233627   6.271   5.182   3.625  1.7065  2.7206 -0.3234
 3998TIP3   OH233628   2.738   3.302   1.454 -0.3322 -0.1271  0.2710
 3998TIP3    H133629   2.678   3.245   1.404  1.7084 -0.8905 -1.4628
 3998TIP3    H233630   2.695   3.313   1.539 -2.7409 -0.9076 -0.7356
 3999TIP3   OH233631   2.352   6.729   2.371 -0.1469  0.0182  0.2409
 3999TIP3    H133632   2.436   6.683   2.368 -1.0132 -1.5916 -2.1030
 3999TIP3    H233633   2.373   6.818   2.343  0.6646 -0.6319 -1.3202
 4000TIP3   OH233634   1.952   5.705   1.742  0.6609 -0.0076 -0.0459
 4000TIP3    H133635   2.021   5.719   1.807 -1.6977  0.3430  2.5850
 4000TIP3    H233636   1.969   5.617   1.709  1.2822 -0.7288  2.0109
 4001TIP3   OH233637   0.741   4.438   8.568  0.4411  0.2346  0.2802
 4001TIP3    H133638   0.789   4.517   8.589  0.7200  0.3135 -0.5996
 4001TIP3    H233639   0.710   4.452   8.478  2.6096 -1.6476 -0.8429
 4002TIP3   OH233640   0.894   1.885   2.841  0.5547 -0.6162  0.4137
 4002TIP3    H133641   0.878   1.914   2.751  1.2524 -0.6199  0.2797
 4002TIP3    H233642   0.807   1.878   2.880  0.3437  1.6939  0.4706
 4003TIP3   OH233643   1.750   1.941   8.451  0.5365  0.2215 -0.2818
 4003TIP3    H133644   1.714   1.982   8.372 -0.8347 -0.6070 -0.1270
 4003TIP3    H233645   1.844   1.953   8.444  0.4049  0.5689 -1.8211
 4004TIP3   OH233646   1.807   4.096   8.413  0.2060 -0.5390  0.6641
 4004TIP3    H133647   1.728   4.130   8.369  0.0544 -0.2723  1.1357
 4004TIP3    H233648   1.846   4.037   8.349 -0.9639 -1.5242  0.8221
 4005TIP3   OH233649   6.149   6.785   2.448 -0.1838 -0.1675  0.6241
 4005TIP3    H133650   6.215   6.723   2.418  0.9211  1.4414 -0.4094
 4005TIP3    H233651   6.095   6.735   2.509  1.8517 -1.6096  1.3476
 4006TIP3   OH233652   1.875   3.328   2.074  0.3507  0.2922  1.3301
 4006TIP3    H133653   1.947   3.339   2.136  1.7887 -1.8239  0.1837
 4006TIP3    H233654   1.862   3.233   2.070 -1.6398  0.5512  0.4860
 4007TIP3   OH233655   3.967   3.282   2.512  0.1846  0.2281  0.5573
 4007TIP3    H133656   3.963   3.356   2.573 -1.9438 -0.7744  1.7605
 4007TIP3    H233657   3.932   3.316   2.430  0.0623  0.7923  0.8373
 4008TIP3   OH233658   4.226   5.453   0.779  0.2009 -0.2687  0.1234
 4008TIP3    H133659   4.202   5.360   0.783 -2.4180  0.2341 -1.4336
 4008TIP3    H233660   4.233   5.480   0.871 -1.2312 -1.5274  0.6490
 4009TIP3   OH233661   4.623   1.370   0.362  0.2754  0.2988 -0.4639
 4009TIP3    H133662   4.572   1.434   0.412  1.0204  1.1943 -0.8153
 4009TIP3    H233663   4.657   1.310   0.427 -0.9838 -0.1462 -0.1950
 4010TIP3   OH233664   0.624   1.454   0.088  0.0686  0.7310  0.0688
 4010TIP3    H133665   0.577   1.394   0.031 -0.1591  0.6021  0.3877
 4010TIP3    H233666   0.696   1.487   0.035  0.3404 -0.0129 -0.0345
 4011TIP3   OH233667   3.295   5.939   0.316 -0.0607  0.2882 -0.0854
 4011TIP3    H133668   3.335   6.026   0.317  1.9772 -0.5902  1.2224
 4011TIP3    H233669   3.255   5.931   0.229  0.7594  2.0641 -0.6582
 4012TIP3   OH233670   2.639   0.599   3.394 -0.2443 -0.9080 -0.2108
 4012TIP3    H133671   2.639   0.694   3.406 -0.0630 -0.6371 -2.0810
 4012TIP3    H233672   2.682   0.565   3.472 -0.4470  0.5260  0.5602
 4013TIP3   OH233673   3.114   2.061   2.046 -0.2663  0.2892  0.7475
 4013TIP3    H133674   3.204   2.060   2.015 -1.4925  1.3323 -3.4249
 4013TIP3    H233675   3.084   1.971   2.039  0.0204  0.1927  0.7604
 4014TIP3   OH233676   2.318   5.826   8.715 -0.1081 -0.4677  0.2977
 4014TIP3    H133677   2.341   5.918   8.700  0.9740 -0.5895  1.1070
 4014TIP3    H233678   2.287   5.795   8.630 -0.5702  0.6650  0.0368
 4015TIP3   OH233679   1.141   3.561   2.802  0.0375  0.4307 -0.3010
 4015TIP3    H133680   1.088   3.619   2.857 -1.9208  0.2822 -1.9008
 4015TIP3    H233681   1.190   3.620   2.746  0.3467  0.5552  0.0938
 4016TIP3   OH233682   1.721   2.925   1.903 -0.4408 -0.3674 -0.3642
 4016TIP3    H133683   1.705   2.832   1.886 -0.2780 -0.5398  0.3864
 4016TIP3    H233684   1.764   2.957   1.823  0.6364 -1.2337 -0.1609
 4017TIP3   OH233685   0.145   2.643   1.423 -0.0840  0.9626  0.5050
 4017TIP3    H133686   0.237   2.619   1.409 -1.0543 -1.7057 -2.6609
 4017TIP3    H233687   0.123   2.695   1.345 -1.8191 -0.5828 -0.1018
 4018TIP3   OH233688   5.499   6.801   2.512 -0.0864  0.0319  0.1453
 4018TIP3    H133689   5.550   6.721   2.500 -0.2927  0.0153 -0.6302
 4018TIP3    H233690   5.421   6.773   2.561 -0.0757 -0.2110  0.0214
 4019TIP3   OH233691   6.237   6.481   8.533  0.8546 -0.0894 -0.3187
 4019TIP3    H133692   6.173   6.454   8.600  1.4518  0.4353  0.4708
 4019TIP3    H233693   6.207   6.436   8.454 -0.5657  0.2275 -0.0012
 4020TIP3   OH233694   0.746   5.037   3.061  0.5167 -0.2032  0.1163
 4020TIP3    H133695   0.667   5.000   3.022  0.8332 -0.0521 -0.6773
 4020TIP3    H233696   0.715   5.079   3.142 -0.3557  0.5954 -0.6070
 4021TIP3   OH233697   5.383   0.997   3.504 -0.1466 -0.4402  0.4054
 4021TIP3    H133698   5.427   0.954   3.577 -0.6122  0.6701  1.3718
 4021TIP3    H233699   5.347   0.925   3.452 -0.0774 -1.2460  1.4402
 4022TIP3   OH233700   5.243   2.847   1.795  0.1092  0.6770  0.6414
 4022TIP3    H133701   5.188   2.789   1.849  0.4514  0.8498  1.1848
 4022TIP3    H233702   5.199   2.850   1.711 -0.9227  1.1168  1.1873
 4023TIP3   OH233703   2.207   2.575   1.690  0.3554  0.0763 -0.1667
 4023TIP3    H133704   2.289   2.623   1.698  0.4845 -0.2267  0.3784
 4023TIP3    H233705   2.233   2.487   1.663  0.2908 -0.2693  0.8439
 4024TIP3   OH233706   4.779   6.596   0.081 -0.1692 -0.1053 -0.0755
 4024TIP3    H133707   4.786   6.691   0.067  0.7140 -0.1705 -0.0777
 4024TIP3    H233708   4.826   6.580   0.162 -1.5434 -0.3525  0.6992
 4025TIP3   OH233709   0.903   3.647   4.117  0.2834  0.3457  0.1813
 4025TIP3    H133710   0.905   3.718   4.181  0.1790  0.9777 -0.5021
 4025TIP3    H233711   0.992   3.644   4.082  1.4249 -2.4036  2.8819
 4026TIP3   OH233712   1.739   6.849   2.157  0.1752 -0.5635 -0.1201
 4026TIP3    H133713   1.755   6.788   2.229 -0.6559  1.0621  1.5368
 4026TIP3    H233714   1.825   6.863   2.118  0.8450 -0.6861  1.2503
 4027TIP3   OH233715   1.963   5.908   2.717 -0.7320  0.2745 -0.1446
 4027TIP3    H133716   1.885   5.900   2.773 -0.4401  3.1987  0.8499
 4027TIP3    H233717   2.033   5.867   2.767 -0.6352  2.2003  1.4621
 4028TIP3   OH233718   6.560   5.185   2.019 -0.5173  0.0215 -0.0042
 4028TIP3    H133719   6.475   5.177   2.063 -0.8106 -1.3962 -0.7549
 4028TIP3    H233720   6.623   5.188   2.091 -1.0904 -0.6677  0.5526
 4029TIP3   OH233721   2.955   3.036   1.178 -0.2280  0.1187  0.7975
 4029TIP3    H133722   3.022   3.029   1.247  0.3117  3.6046  0.8281
 4029TIP3    H233723   2.872   3.042   1.225 -0.2247 -0.6726  0.9271
 4030TIP3   OH233724   5.417   5.868   8.502 -0.3374 -0.7666 -1.0264
 4030TIP3    H133725   5.458   5.946   8.466 -0.8677 -0.5082 -1.0724
 4030TIP3    H233726   5.324   5.878   8.484 -0.1927 -2.5105 -3.1099
 4031TIP3   OH233727   0.985   4.706   1.773 -0.2423  0.6762  0.3713
 4031TIP3    H133728   0.929   4.690   1.849 -0.1248 -2.2058 -0.0325
 4031TIP3    H233729   1.054   4.763   1.806 -2.3353  2.8706  1.3319
 4032TIP3   OH233730   4.137   4.164   0.792  0.1640  0.8556 -0.1027
 4032TIP3    H133731   4.047   4.145   0.816  1.0190 -0.4796  2.3983
 4032TIP3    H233732   4.152   4.111   0.713 -1.7604  2.7260 -1.8367
 4033TIP3   OH233733   5.364   4.372   2.872  0.3666 -0.2156 -0.1118
 4033TIP3    H133734   5.408   4.383   2.788  0.6232  0.4990  0.1043
 4033TIP3    H233735   5.298   4.305   2.857  1.0621 -0.7931 -0.6324
 4034TIP3   OH233736   3.746   4.800   8.436  0.0511  0.3945  0.3961
 4034TIP3    H133737   3.811   4.802   8.366 -0.2563  0.5273  0.1136
 4034TIP3    H233738   3.712   4.711   8.434  0.9786  0.0077  1.2441
 4035TIP3   OH233739   5.286   2.991   4.137 -0.4433 -0.6710 -0.0108
 4035TIP3    H133740   5.285   2.982   4.042 -0.3154  0.2444 -0.1106
 4035TIP3    H233741   5.361   2.939   4.165  1.5954  1.6443 -0.7525
 4036TIP3   OH233742   4.277   1.950   1.137  0.1038 -0.4242  0.1996
 4036TIP3    H133743   4.266   2.045   1.139 -0.0573 -0.3815 -1.6511
 4036TIP3    H233744   4.196   1.918   1.097  1.5137 -1.0330 -2.3797
 4037TIP3   OH233745   1.725   5.357   2.738 -0.0649  0.2045  0.4954
 4037TIP3    H133746   1.767   5.442   2.728  0.4636  0.1005  1.7214
 4037TIP3    H233747   1.745   5.310   2.657 -0.3652  1.2335 -0.1898
 4038TIP3   OH233748   0.438   1.630   0.832  0.2730  0.0647 -0.2090
 4038TIP3    H133749   0.511   1.622   0.771 -0.5612 -0.3154 -1.1775
 4038TIP3    H233750   0.380   1.693   0.791 -0.2901 -0.1864  0.1968
 4039TIP3   OH233751   6.498   1.818   1.943 -0.6641 -0.1265 -0.7725
 4039TIP3    H133752   6.590   1.794   1.935 -0.6068 -0.0933 -0.2486
 4039TIP3    H233753   6.453   1.735   1.960 -0.2149  0.2583  3.1713
 4040TIP3   OH233754   5.981   5.468   2.027  0.1054 -0.2708  0.4073
 4040TIP3    H133755   5.999   5.531   2.098  0.6848 -0.8205  0.7606
 4040TIP3    H233756   5.938   5.520   1.959  2.1779  0.9265 -0.0765
 4041TIP3   OH233757   2.308   5.632   1.724 -0.0286  0.2844 -0.0368
 4041TIP3    H133758   2.299   5.676   1.809 -1.5200 -0.2816  0.1376
 4041TIP3    H233759   2.246   5.559   1.728  0.8753 -0.5823 -1.1097
 4042TIP3   OH233760   0.694   6.600   2.061 -0.7850 -0.3804  0.5583
 4042TIP3    H133761   0.691   6.691   2.034 -1.6373 -0.8965 -1.2050
 4042TIP3    H233762   0.637   6.596   2.138  0.2270  0.7707  1.4016
 4043TIP3   OH233763   3.512   0.807   0.155 -0.5406 -0.1228  0.0910
 4043TIP3    H133764   3.531   0.799   0.062 -0.3999  0.0544  0.1019
 4043TIP3    H233765   3.433   0.756   0.169 -0.2300 -0.6359 -0.0134
 4044TIP3   OH233766   4.421   6.270   3.842 -0.4499 -0.0670 -0.6872
 4044TIP3    H133767   4.327   6.277   3.856 -0.7097 -2.4184 -0.7370
 4044TIP3    H233768   4.446   6.192   3.892  1.2468 -0.1946 -1.6734
 4045TIP3   OH233769   0.534   6.368   8.278 -0.8028 -0.3195 -0.2205
 4045TIP3    H133770   0.492   6.447   8.245 -0.8393  0.3331  1.2919
 4045TIP3    H233771   0.559   6.319   8.200 -0.8504  1.1445 -1.1903
 4046TIP3   OH233772   1.438   0.892   3.903  0.5758  0.7589 -0.0535
 4046TIP3    H133773   1.478   0.970   3.865  0.2934  1.4045  0.9229
 4046TIP3    H233774   1.353   0.923   3.936 -0.1772 -0.2872 -0.9308
 4047TIP3   OH233775   5.390   5.824   3.548  0.3630 -0.5839 -0.4140
 4047TIP3    H133776   5.440   5.904   3.535  2.3082 -1.8165 -1.0950
 4047TIP3    H233777   5.315   5.832   3.490  0.6411  0.6381 -0.6384
 4048TIP3   OH233778   3.487   1.571   0.590  0.2990 -0.3103  0.3621
 4048TIP3    H133779   3.454   1.540   0.506  0.3996  1.0691 -0.2113
 4048TIP3    H233780   3.408   1.591   0.641  0.2158  0.9151 -0.2148
 4049TIP3   OH233781   1.476   5.833   1.571 -0.4497 -0.0074  0.0877
 4049TIP3    H133782   1.532   5.777   1.517 -0.2829  1.1953 -1.0315
 4049TIP3    H233783   1.390   5.792   1.566 -0.7463  0.7392 -2.2065
 4050TIP3   OH233784   0.508   1.750   8.305  0.1980  0.0004  0.1467
 4050TIP3    H133785   0.511   1.656   8.287  0.0493  0.4465 -2.8616
 4050TIP3    H233786   0.593   1.771   8.344  0.3949 -1.3084  0.4536
 4051TIP3   OH233787   4.532   0.072   1.998  0.3513  0.5596 -0.1351
 4051TIP3    H133788   4.510   0.004   2.062 -1.6620 -0.2487 -1.5668
 4051TIP3    H233789   4.604   0.034   1.947  0.4123  0.2529  0.1753
 4052TIP3   OH233790   3.123   4.675   1.495 -0.6007 -0.0040  0.0614
 4052TIP3    H133791   3.193   4.739   1.481  1.4243 -1.9422  0.8513
 4052TIP3    H233792   3.135   4.646   1.585 -2.2483 -0.6593  0.1092
 4053TIP3   OH233793   3.407   5.490   0.746 -0.1323  0.0833 -0.2269
 4053TIP3    H133794   3.457   5.571   0.761  0.9124 -0.6528  0.3704
 4053TIP3    H233795   3.324   5.520   0.709 -0.2108  1.5238  1.0288
 4054TIP3   OH233796   0.199   6.449   1.334  0.3459  0.6659 -0.2874
 4054TIP3    H133797   0.161   6.533   1.356 -0.2379  0.2831  0.1959
 4054TIP3    H233798   0.132   6.385   1.356  1.5878 -0.0973  1.5214
 4055TIP3   OH233799   5.354   4.514   1.439  0.1073 -0.2857  0.0033
 4055TIP3    H133800   5.405   4.443   1.400  2.5332  1.6339 -0.5869
 4055TIP3    H233801   5.356   4.496   1.533  1.1965 -0.7159 -0.0894
 4056TIP3   OH233802   2.345   5.125   0.861  0.1576  0.4330 -0.1887
 4056TIP3    H133803   2.371   5.106   0.771  0.7180 -1.2950  0.3021
 4056TIP3    H233804   2.372   5.215   0.876  2.9605 -0.2354 -0.7664
 4057TIP3   OH233805   4.697   0.560   3.393 -0.4172 -0.1655  0.6250
 4057TIP3    H133806   4.733   0.489   3.447 -0.5323  0.8899  2.1464
 4057TIP3    H233807   4.621   0.591   3.442 -0.8202  0.5239 -0.4028
 4058TIP3   OH233808   1.909   3.503   3.482 -0.0716  0.3337 -0.0288
 4058TIP3    H133809   1.954   3.419   3.472 -1.5076 -0.4508 -0.0682
 4058TIP3    H233810   1.936   3.534   3.569  1.1255  0.2638 -0.3511
 4059TIP3   OH233811   4.168   3.838   3.188 -0.5279 -0.1900  0.4196
 4059TIP3    H133812   4.263   3.838   3.203 -0.3845 -3.5099  0.3700
 4059TIP3    H233813   4.158   3.831   3.093 -0.7929 -0.4516  0.4640
 4060TIP3   OH233814   0.434   3.729   1.928 -0.0569  0.4381 -0.3744
 4060TIP3    H133815   0.413   3.660   1.865 -1.5436 -0.5623  1.1134
 4060TIP3    H233816   0.508   3.694   1.978  0.6229  0.8997 -1.0411
 4061TIP3   OH233817   4.217   0.489   1.246 -0.2726 -0.8123 -0.9196
 4061TIP3    H133818   4.238   0.416   1.303  1.3185 -0.7400 -1.3620
 4061TIP3    H233819   4.123   0.502   1.256 -0.1358 -1.1958  1.1860
 4062TIP3   OH233820   0.090   0.510   1.786 -0.2031 -0.2583  0.7225
 4062TIP3    H133821   0.140   0.547   1.859  0.1208  0.3751  0.1963
 4062TIP3    H233822   0.010   0.476   1.826  0.9857 -2.0412  1.7131
 4063TIP3   OH233823   1.869   0.770   3.625  0.5625 -0.4360 -0.3483
 4063TIP3    H133824   1.835   0.849   3.583 -0.2454 -1.9020 -2.6544
 4063TIP3    H233825   1.815   0.760   3.703 -0.6618  0.2671 -1.0572
 4064TIP3   OH233826   2.960   5.084   4.291  0.0758  0.3488 -0.5434
 4064TIP3    H133827   2.985   5.065   4.200  0.7945 -1.3574 -0.0254
 4064TIP3    H233828   3.005   5.166   4.311 -0.3714  0.9394 -1.8294
 4065TIP3   OH233829   0.718   0.317   0.778  0.4254 -0.4708  0.2420
 4065TIP3    H133830   0.701   0.234   0.734  0.3070 -0.1705 -0.2886
 4065TIP3    H233831   0.656   0.379   0.739  1.7956  0.3215 -0.7798
 4066TIP3   OH233832   5.521   6.492   3.299 -0.1843  0.3521 -0.2137
 4066TIP3    H133833   5.603   6.497   3.348 -0.9708  3.0495  1.0653
 4066TIP3    H233834   5.542   6.526   3.213 -0.0438  1.7586  0.3460
 4067TIP3   OH233835   0.437   4.665   8.628 -0.1098 -0.0198  0.2845
 4067TIP3    H133836   0.459   4.718   8.705 -0.0138  0.0229  0.2283
 4067TIP3    H233837   0.417   4.578   8.663  0.4229 -0.1377  0.3164
 4068TIP3   OH233838   3.950   3.216   0.797 -0.4443 -0.4400 -0.5792
 4068TIP3    H133839   3.892   3.232   0.722 -0.0653  0.5143 -0.6818
 4068TIP3    H233840   3.932   3.289   0.857  0.8770  0.0618 -0.7633
 4069TIP3   OH233841   4.033   2.328   1.997  0.1418 -0.3577 -0.3993
 4069TIP3    H133842   3.940   2.349   1.993  0.0919 -0.4284  0.3095
 4069TIP3    H233843   4.072   2.383   1.929 -0.1483  1.2620  0.6665
 4070TIP3   OH233844   4.523   4.329   1.444 -0.0471  0.1485  0.2151
 4070TIP3    H133845   4.608   4.354   1.406 -0.2771  1.5688  0.6041
 4070TIP3    H233846   4.527   4.359   1.534 -0.8015 -0.1972  0.3713
 4071TIP3   OH233847   1.600   1.612   3.607  0.0860  0.1564 -0.1816
 4071TIP3    H133848   1.696   1.620   3.606  0.1214 -0.2505 -0.7976
 4071TIP3    H233849   1.583   1.529   3.650 -0.0455  0.7145  0.8846
 4072TIP3   OH233850   1.541   0.013   1.253  0.0309  0.4659  0.2589
 4072TIP3    H133851   1.530   0.086   1.192 -0.8781  0.7103  0.6866
 4072TIP3    H233852   1.472   0.026   1.318  0.6902 -0.0486  1.0807
 4073TIP3   OH233853   2.950   3.983   2.106 -0.0550 -0.4395  0.4220
 4073TIP3    H133854   3.036   4.017   2.082 -0.6770  0.1122 -1.2343
 4073TIP3    H233855   2.944   3.995   2.200  0.7012  1.9279  0.2395
 4074TIP3   OH233856   1.688   4.034   0.961  0.3917  0.3834 -0.4112
 4074TIP3    H133857   1.716   3.992   1.043 -1.0263 -1.9280 -0.9986
 4074TIP3    H233858   1.768   4.072   0.925  1.2566  0.5211  1.4902
 4075TIP3   OH233859   3.499   2.848   1.545 -0.0920  0.5994 -0.0385
 4075TIP3    H133860   3.406   2.866   1.561  0.0252  1.2516 -0.0888
 4075TIP3    H233861   3.507   2.753   1.557 -0.5326  0.6984  1.1448
 4076TIP3   OH233862   6.337   5.032   2.175 -0.1594  0.8433  0.2287
 4076TIP3    H133863   6.366   4.961   2.119 -1.2296  0.4419  0.1683
 4076TIP3    H233864   6.256   5.063   2.135  0.0978  1.8545  0.4634
 4077TIP3   OH233865   2.711   3.178   3.570  0.1026 -0.4345  0.0964
 4077TIP3    H133866   2.792   3.137   3.600  0.4401 -0.3355 -0.6336
 4077TIP3    H233867   2.648   3.107   3.566  1.0601 -1.2673 -2.5598
 4078TIP3   OH233868   3.899   0.477   0.005  0.2659  0.1051 -0.3200
 4078TIP3    H133869   3.870   0.386   0.017  0.6194  0.2306  1.8733
 4078TIP3    H233870   3.849   0.527   0.070  1.3624  1.1744 -0.2660
 4079TIP3   OH233871   2.983   0.771   0.265 -0.0117  0.0437  0.4030
 4079TIP3    H133872   3.010   0.829   0.336 -1.2205 -1.0376  1.8048
 4079TIP3    H233873   2.909   0.815   0.224  0.2871  0.3783  0.2236
 4080TIP3   OH233874   3.177   3.218   2.687  0.0559  0.1521  0.8716
 4080TIP3    H133875   3.218   3.300   2.713 -1.4719  1.2491 -0.0634
 4080TIP3    H233876   3.106   3.206   2.749 -1.7474  1.2552 -0.8749
 4081TIP3   OH233877   3.539   5.429   2.352  0.4315  0.2296  0.3274
 4081TIP3    H133878   3.556   5.498   2.288  2.5801  0.5841  1.1829
 4081TIP3    H233879   3.617   5.373   2.348  0.4078 -0.0166  2.2422
 4082TIP3   OH233880   2.188   1.042   0.949 -0.4912  0.5144 -0.3147
 4082TIP3    H133881   2.155   1.061   1.036  0.4484 -1.8215  0.6260
 4082TIP3    H233882   2.203   1.128   0.910 -2.0703  1.6079  1.3522
 4083TIP3   OH233883   6.034   5.418   2.821  0.3173 -0.3496 -0.0057
 4083TIP3    H133884   5.963   5.359   2.848  0.2800  0.3893  1.5695
 4083TIP3    H233885   5.989   5.488   2.774  0.0337 -0.0806  0.6564
 4084TIP3   OH233886   6.020   4.043   1.549 -0.0263  0.0134 -0.1494
 4084TIP3    H133887   6.091   4.032   1.486  0.0825 -1.4587  0.1966
 4084TIP3    H233888   6.059   4.022   1.634  0.5549  4.4933  0.9586
 4085TIP3   OH233889   0.809   5.889   0.923 -0.2728 -0.4807  0.3885
 4085TIP3    H133890   0.714   5.878   0.917 -0.4068  0.5068  0.4827
 4085TIP3    H233891   0.839   5.813   0.972 -0.7844 -1.7827 -1.2430
 4086TIP3   OH233892   6.397   0.863   2.451  0.5298  0.0092 -0.0299
 4086TIP3    H133893   6.452   0.937   2.423 -1.8961  0.7224 -3.5746
 4086TIP3    H233894   6.331   0.903   2.507  0.4680  0.1718 -0.2141
 4087TIP3   OH233895   2.339   3.936   0.556  0.1628  0.1542 -0.5985
 4087TIP3    H133896   2.429   3.904   0.545  0.0055 -0.6032  0.1865
 4087TIP3    H233897   2.302   3.879   0.624 -1.5615 -0.8916 -2.3091
 4088TIP3   OH233898   5.196   0.150   8.446 -0.4462  0.0610 -0.3850
 4088TIP3    H133899   5.232   0.180   8.529 -1.3464  0.2171 -0.0370
 4088TIP3    H233900   5.239   0.066   8.430  0.5358  0.5373 -0.3133
 4089TIP3   OH233901   0.067   0.815   0.648  0.0643 -0.6711 -0.0745
 4089TIP3    H133902   0.056   0.836   0.555 -0.1231 -0.3701  0.0138
 4089TIP3    H233903   0.087   0.899   0.690  0.9480 -0.9310  0.0408
 4090TIP3   OH233904   3.665   5.626   3.056  0.3127  0.3006  0.2435
 4090TIP3    H133905   3.598   5.693   3.071  2.1023  2.1038  0.5953
 4090TIP3    H233906   3.625   5.545   3.087 -1.8565  1.2310  0.0197
 4091TIP3   OH233907   2.822   3.509   8.107 -0.1679 -0.1899  0.2480
 4091TIP3    H133908   2.908   3.516   8.149  0.3716 -0.0438 -0.8556
 4091TIP3    H233909   2.779   3.438   8.153  0.2972  0.1502  1.2397
 4092TIP3   OH233910   4.057   1.321   3.066 -0.0983 -0.0351  0.3721
 4092TIP3    H133911   4.060   1.233   3.103  1.0940  0.0487  0.5263
 4092TIP3    H233912   4.029   1.377   3.139  1.1874 -0.0202  0.8831
 4093TIP3   OH233913   1.370   6.855   3.105 -0.2007  0.6043  0.2185
 4093TIP3    H133914   1.426   6.930   3.126 -0.6343  0.6047  1.4575
 4093TIP3    H233915   1.420   6.779   3.134 -0.4906  0.5443  0.5606
 4094TIP3   OH233916   5.287   5.188   1.927 -0.0604 -0.1393  0.0392
 4094TIP3    H133917   5.275   5.278   1.897 -0.2483  0.2025  1.1075
 4094TIP3    H233918   5.380   5.184   1.952 -0.4478  0.2860  1.6340
 4095TIP3   OH233919   5.347   2.204   0.567 -0.1134  0.1049 -0.0695
 4095TIP3    H133920   5.361   2.287   0.522 -0.3129 -0.7883 -1.8396
 4095TIP3    H233921   5.403   2.210   0.645  1.7405  0.9470 -1.3873
 4096TIP3   OH233922   5.573   5.010   3.051  0.3620 -0.0326  0.1858
 4096TIP3    H133923   5.577   5.022   3.145 -0.6536 -0.6014  0.3175
 4096TIP3    H233924   5.582   5.098   3.014 -1.2529  0.4642  0.8940
 4097TIP3   OH233925   2.899   4.860   2.766 -0.1710 -0.6088 -0.1444
 4097TIP3    H133926   2.983   4.877   2.807 -1.1006  3.0686  0.6500
 4097TIP3    H233927   2.843   4.829   2.837 -0.8073  2.2479  0.7402
 4098TIP3   OH233928   4.548   2.503   8.275 -0.0249 -0.1863  0.5642
 4098TIP3    H133929   4.509   2.538   8.355  0.0184 -1.1914  1.0508
 4098TIP3    H233930   4.513   2.414   8.269  1.4449 -0.7847  0.5034
 4099TIP3   OH233931   1.952   0.546   4.234  0.0916 -0.1499  0.5080
 4099TIP3    H133932   1.937   0.634   4.269 -2.2855 -0.3536  0.1853
 4099TIP3    H233933   1.936   0.488   4.308  0.1347 -0.3752  0.3397
 4100TIP3   OH233934   0.724   3.926   3.324  0.0796 -0.4254  0.1761
 4100TIP3    H133935   0.783   3.946   3.397  0.1835 -0.9581  0.2389
 4100TIP3    H233936   0.651   3.987   3.336  0.7717  0.4878 -0.0988
 4101TIP3   OH233937   5.432   6.845   8.329 -0.9592 -0.1783  0.5477
 4101TIP3    H133938   5.466   6.758   8.307  0.7643  0.3025  1.1901
 4101TIP3    H233939   5.387   6.873   8.249 -1.8278 -1.7505  0.4219
 4102TIP3   OH233940   1.047   0.956   8.477  0.0246  0.5166  0.0801
 4102TIP3    H133941   1.074   0.939   8.567 -0.0387 -0.0337 -0.0026
 4102TIP3    H233942   1.001   0.877   8.450  0.0336  0.6815 -0.4347
 4103TIP3   OH233943   3.360   0.958   0.338  0.0955 -0.8328 -0.1269
 4103TIP3    H133944   3.377   1.053   0.337  0.6459 -0.9296 -0.2551
 4103TIP3    H233945   3.387   0.928   0.251  0.1393 -1.1481 -0.0051
 4104TIP3   OH233946   1.944   6.849   0.044  0.0124  0.2783  0.1223
 4104TIP3    H133947   1.950   6.836   0.139 -1.8539 -2.9743 -0.0520
 4104TIP3    H233948   1.904   6.935   0.034  2.0366  1.5702  2.1476
 4105TIP3   OH233949   0.349   3.280   3.095 -0.8352  0.9496  0.0927
 4105TIP3    H133950   0.383   3.366   3.071  0.8720  0.3418  0.2171
 4105TIP3    H233951   0.402   3.218   3.045 -1.6715 -0.0529  0.4219
 4106TIP3   OH233952   0.396   3.696   0.892 -0.2686 -0.2759 -0.3686
 4106TIP3    H133953   0.321   3.650   0.930  0.9768 -1.3203  0.9528
 4106TIP3    H233954   0.461   3.627   0.877  0.8572  0.7635 -0.3800
 4107TIP3   OH233955   5.599   6.100   2.410  0.2286  0.3564 -0.0746
 4107TIP3    H133956   5.628   6.012   2.388  0.7493  0.1905  1.2036
 4107TIP3    H233957   5.624   6.153   2.335 -0.4236 -0.6316 -1.0268
 4108TIP3   OH233958   5.356   2.360   2.756 -0.3559  0.6326 -0.3215
 4108TIP3    H133959   5.276   2.309   2.744 -0.2276  0.4839 -0.5375
 4108TIP3    H233960   5.427   2.300   2.732 -0.1542  0.6291  0.2802
 4109TIP3   OH233961   2.284   2.623   0.503  0.2840 -0.4272 -0.0251
 4109TIP3    H133962   2.211   2.616   0.442  0.7909 -1.8242 -0.5071
 4109TIP3    H233963   2.250   2.675   0.576 -1.3982 -1.5867  0.0643
 4110TIP3   OH233964   4.705   2.950   1.598 -0.3819 -0.0299  0.9115
 4110TIP3    H133965   4.706   3.042   1.624  0.3739 -0.0650  1.0302
 4110TIP3    H233966   4.726   2.902   1.678 -0.9564 -0.3183  0.8894
 4111TIP3   OH233967   3.963   5.252   1.716  0.3848 -0.1985  0.5871
 4111TIP3    H133968   4.031   5.198   1.756 -0.2505 -0.1007  1.8480
 4111TIP3    H233969   3.885   5.196   1.718  0.3718 -0.2443 -0.6849
 4112TIP3   OH233970   2.439   0.796   1.602  0.0869 -0.2641  0.2552
 4112TIP3    H133971   2.423   0.729   1.668  0.7787 -0.7130 -0.0292
 4112TIP3    H233972   2.534   0.799   1.592  0.1138  1.1310  0.6394
 4113TIP3   OH233973   4.988   0.832   4.134 -0.7673  0.3024  0.2241
 4113TIP3    H133974   5.035   0.914   4.119 -1.7248  1.0581  1.1760
 4113TIP3    H233975   5.010   0.808   4.224 -0.5639 -0.4520 -0.0217
 4114TIP3   OH233976   1.142   6.597   1.547  0.5251  0.0043 -0.0852
 4114TIP3    H133977   1.199   6.582   1.472  0.4372  1.6805 -0.5311
 4114TIP3    H233978   1.090   6.517   1.554  1.6261 -0.8096 -0.8168
 4115TIP3   OH233979   2.912   5.561   4.260  0.1236 -0.4484  0.5023
 4115TIP3    H133980   2.905   5.645   4.304 -1.9933 -0.3747  0.1067
 4115TIP3    H233981   2.914   5.583   4.167  2.0337 -0.7439  0.4314
 4116TIP3   OH233982   4.210   2.585   7.738  0.4351 -0.1909 -0.0035
 4116TIP3    H133983   4.273   2.630   7.795  0.5683  0.2322 -0.4824
 4116TIP3    H233984   4.174   2.516   7.794  0.2591  0.4751  0.7304
 4117TIP3   OH233985   3.835   1.567   2.822 -0.1680  0.9859  0.4126
 4117TIP3    H133986   3.759   1.509   2.828  0.7626 -0.1771  1.3367
 4117TIP3    H233987   3.796   1.654   2.809 -1.6757  0.4415  0.9389
 4118TIP3   OH233988   2.403   3.234   1.774 -0.6626  0.0758 -0.0595
 4118TIP3    H133989   2.440   3.158   1.818 -0.3264  0.0561 -0.3775
 4118TIP3    H233990   2.313   3.240   1.808 -1.1634 -1.2725 -1.0348
 4119TIP3   OH233991   6.778   4.878   0.815  0.0870 -0.5266 -0.3263
 4119TIP3    H133992   6.829   4.858   0.736 -0.0482  1.8001 -1.0683
 4119TIP3    H233993   6.687   4.878   0.785 -0.1117 -1.2002  0.2275
 4120TIP3   OH233994   4.791   0.381   8.039  0.1017 -0.0938  0.4060
 4120TIP3    H133995   4.741   0.380   7.958  0.1046  1.0312  0.3630
 4120TIP3    H233996   4.816   0.290   8.055 -1.0732 -0.5208 -0.1214
 4121TIP3   OH233997   6.718   1.625   0.803 -0.1669  0.4632 -0.5892
 4121TIP3    H133998   6.788   1.633   0.868 -0.1204 -1.5132 -0.3448
 4121TIP3    H233999   6.638   1.651   0.850 -0.2309 -1.5230  0.5309
 4122TIP3   OH234000   2.580   4.730   2.731 -0.5493 -0.0988  0.3075
 4122TIP3    H134001   2.607   4.758   2.819 -1.3962 -1.1769  0.9335
 4122TIP3    H234002   2.654   4.753   2.675 -0.2636  1.2232  1.1734
 4123TIP3   OH234003   4.673   6.092   0.104  0.1810  0.0176  0.5002
 4123TIP3    H134004   4.691   6.185   0.105 -2.2318  0.5831 -0.1511
 4123TIP3    H234005   4.712   6.061   0.023 -0.1228  0.7667  0.0545
 4124TIP3   OH234006   2.634   4.036   0.886 -0.0755  0.1648 -0.2087
 4124TIP3    H134007   2.678   4.021   0.802 -0.6401 -1.5780 -0.2182
 4124TIP3    H234008   2.620   3.949   0.922 -1.1091  0.8228  1.0494
 4125TIP3   OH234009   1.014   5.900   0.344  0.0762 -0.1233  0.0027
 4125TIP3    H134010   1.050   5.961   0.409 -1.2352  0.8439 -0.1494
 4125TIP3    H234011   1.010   5.951   0.263 -0.5010 -0.5978 -0.2709
 4126TIP3   OH234012   2.916   1.958   3.028  0.0157 -0.6319 -0.2442
 4126TIP3    H134013   2.955   1.907   2.958 -0.0743  0.4793 -1.1313
 4126TIP3    H234014   2.828   1.921   3.038  0.2889 -1.2767 -0.2007
 4127TIP3   OH234015   0.038   1.562   3.046 -0.0853 -0.3511 -0.8380
 4127TIP3    H134016   0.046   1.569   2.951 -1.5522 -0.3970 -0.9759
 4127TIP3    H234017   0.127   1.539   3.075  1.2827  3.0392 -1.8305
 4128TIP3   OH234018   4.851   1.685   1.694  0.3684  0.0798 -0.4924
 4128TIP3    H134019   4.904   1.608   1.713  1.5985  0.7388 -1.1434
 4128TIP3    H234020   4.761   1.656   1.709  0.8623 -1.2212  0.1157
 4129TIP3   OH234021   1.287   2.724   3.315 -0.0647  1.1079 -0.0769
 4129TIP3    H134022   1.248   2.656   3.259 -0.9262  0.9421  0.7027
 4129TIP3    H234023   1.222   2.793   3.319 -0.5465  0.6094  1.6565
 4130TIP3   OH234024   0.962   1.132   1.478  0.1024 -0.1713 -0.6123
 4130TIP3    H134025   1.027   1.128   1.549  0.2921 -1.2142 -0.8251
 4130TIP3    H234026   0.881   1.157   1.522 -0.0733 -2.0539  0.2299
 4131TIP3   OH234027   0.360   1.254   1.246 -0.8993  0.0498 -0.3038
 4131TIP3    H134028   0.322   1.295   1.324  1.1848  1.0575  0.2448
 4131TIP3    H234029   0.346   1.318   1.176  2.1458  1.7817  0.5037
 4132TIP3   OH234030   0.004   1.834   4.178  0.0292 -0.1062  0.0479
 4132TIP3    H134031   0.040   1.746   4.165 -0.4834 -0.6900  2.2020
 4132TIP3    H234032  -0.091   1.822   4.168  0.0850  1.1415 -4.1038
 4133TIP3   OH234033   1.457   0.571   1.813 -0.1405 -0.0315  0.5878
 4133TIP3    H134034   1.492   0.623   1.885 -1.0990  1.4446  0.0276
 4133TIP3    H234035   1.386   0.521   1.852 -1.7991  2.0349  0.4178
 4134TIP3   OH234036   4.163   5.412   0.474  0.4400  0.4579  0.4630
 4134TIP3    H134037   4.154   5.461   0.556  1.9245  0.8105  0.4474
 4134TIP3    H234038   4.246   5.364   0.485  0.1149 -0.3281 -0.4093
 4135TIP3   OH234039   4.755   0.568   1.287 -0.4162 -0.6825 -0.2577
 4135TIP3    H134040   4.721   0.633   1.348  1.4234 -0.4821  0.6148
 4135TIP3    H234041   4.773   0.618   1.207  2.3598  0.2710  0.8751
 4136TIP3   OH234042   0.743   1.834   1.363  0.0450  0.1944  0.5901
 4136TIP3    H134043   0.655   1.813   1.330  0.7140  0.8284 -1.7972
 4136TIP3    H234044   0.767   1.760   1.418 -1.7016 -0.3033  0.7410
 4137TIP3   OH234045   0.043   3.617   0.771 -0.4703  0.3153  0.0618
 4137TIP3    H134046   0.120   3.631   0.715  1.6454 -0.7835  2.4907
 4137TIP3    H234047  -0.004   3.544   0.730  1.6183 -1.1974  0.2008
 4138TIP3   OH234048   4.530   2.535   3.807 -0.0341  0.3470 -0.0719
 4138TIP3    H134049   4.541   2.535   3.902  0.6387 -1.6908 -0.0964
 4138TIP3    H234050   4.437   2.520   3.793 -0.0274 -0.0197  0.2696
 4139TIP3   OH234051   6.726   0.176   8.333  0.1748 -0.2177 -0.8089
 4139TIP3    H134052   6.667   0.240   8.293 -1.2913 -1.3048 -0.4783
 4139TIP3    H234053   6.745   0.113   8.263  1.2869  0.3400 -1.0250
 4140TIP3   OH234054   6.741   2.853   2.767  0.2456 -0.0997  0.0001
 4140TIP3    H134055   6.730   2.758   2.772 -1.8418  0.1230  0.2583
 4140TIP3    H234056   6.750   2.880   2.859 -0.3170  0.0712  0.0042
 4141TIP3   OH234057   1.952   6.566   2.037 -0.5334 -0.0702 -0.2154
 4141TIP3    H134058   1.890   6.541   2.106 -1.9144  1.6051 -0.7765
 4141TIP3    H234059   2.031   6.593   2.084 -0.6001 -1.1600  0.5626
 4142TIP3   OH234060   6.432   3.715   0.945  0.4109  0.5336 -0.2819
 4142TIP3    H134061   6.412   3.645   0.883  0.3672 -0.0288  0.3539
 4142TIP3    H234062   6.409   3.679   1.031 -1.5265  2.0393 -0.1047
 4143TIP3   OH234063   5.662   0.715   2.008 -0.5281 -0.3106 -0.1658
 4143TIP3    H134064   5.745   0.688   1.970 -0.3667 -0.6262  0.3960
 4143TIP3    H234065   5.665   0.682   2.098 -1.2257 -0.2572 -0.1175
 4144TIP3   OH234066   3.314   1.801   3.071  0.0080 -0.4375  0.5036
 4144TIP3    H134067   3.388   1.743   3.049  0.4633  0.6180 -0.9035
 4144TIP3    H234068   3.251   1.786   3.001  0.2437  0.9307 -0.0242
 4145TIP3   OH234069   4.022   3.510   0.781  0.4232  0.0101 -0.2129
 4145TIP3    H134070   4.087   3.449   0.815  0.8473  1.2009  1.2582
 4145TIP3    H234071   4.043   3.519   0.688  1.4339 -0.7555 -0.0664
 4146TIP3   OH234072   4.871   5.566   1.658 -0.4303 -0.0191  0.2666
 4146TIP3    H134073   4.882   5.615   1.739  1.8920  2.2436 -1.2475
 4146TIP3    H234074   4.777   5.550   1.651 -0.7966  0.7059  2.8171
 4147TIP3   OH234075   1.157   5.811   0.633 -0.0464 -0.1643  0.0152
 4147TIP3    H134076   1.209   5.838   0.708 -0.4665 -0.2743  0.3496
 4147TIP3    H234077   1.220   5.800   0.562  0.7346 -2.5407  0.9836
 4148TIP3   OH234078   3.315   3.977   2.925  0.0025  0.1214  0.2390
 4148TIP3    H134079   3.284   3.915   2.859  0.2018  0.8952 -0.5951
 4148TIP3    H234080   3.266   3.954   3.004 -0.2117 -0.8425 -0.1652
 4149TIP3   OH234081   4.821   1.085   2.728 -0.2185  0.5371  0.5074
 4149TIP3    H134082   4.884   1.072   2.799  1.2925  0.9134 -0.7126
 4149TIP3    H234083   4.764   1.008   2.732  3.0956 -2.2524 -1.1222
 4150TIP3   OH234084   4.164   4.275   8.468 -0.1879 -0.0798  0.0567
 4150TIP3    H134085   4.129   4.273   8.379  0.1238 -1.4470 -0.0588
 4150TIP3    H234086   4.256   4.297   8.457 -0.6846  2.4382  0.2816
 4151TIP3   OH234087   4.990   6.033   1.663 -0.7858  0.5075  0.4592
 4151TIP3    H134088   4.987   6.123   1.630  0.7452  0.5676  0.3997
 4151TIP3    H234089   4.933   5.984   1.605 -1.6149  1.4283  0.4711
 4152TIP3   OH234090   4.678   2.952   0.225  0.5158  0.2402  0.1121
 4152TIP3    H134091   4.623   3.017   0.181  2.5382  2.5084  0.7128
 4152TIP3    H234092   4.730   2.914   0.154 -1.0272 -1.1786 -0.3130
 4153TIP3   OH234093   5.522   5.155   0.798  0.0892 -0.1177 -0.2034
 4153TIP3    H134094   5.507   5.093   0.726  1.0300 -0.6379  0.0291
 4153TIP3    H234095   5.590   5.114   0.851  1.1823  1.3867 -0.3654
 4154TIP3   OH234096   6.630   2.797   1.780 -0.5154 -0.3626  0.0105
 4154TIP3    H134097   6.651   2.709   1.749 -0.9007 -0.1969 -0.7770
 4154TIP3    H234098   6.560   2.784   1.844 -1.7957 -0.5522 -1.3392
 4155TIP3   OH234099   0.405   4.314   2.871 -0.3261  0.9125 -0.4734
 4155TIP3    H134100   0.414   4.223   2.846  1.5147  0.5532  1.2115
 4155TIP3    H234101   0.328   4.316   2.928 -0.3588  0.3952 -0.5002
 4156TIP3   OH234102   3.205   3.761   2.057  0.2887  0.0804 -0.0791
 4156TIP3    H134103   3.196   3.856   2.059 -0.6016  0.0042 -0.1440
 4156TIP3    H234104   3.244   3.742   1.972  1.7593  0.4798  0.4854
 4157TIP3   OH234105   6.635   2.850   3.422 -0.2964 -0.3726  0.1850
 4157TIP3    H134106   6.618   2.893   3.506  0.3147 -1.1830  0.7395
 4157TIP3    H234107   6.672   2.765   3.446 -0.4264 -0.7496 -0.9066
 4158TIP3   OH234108   4.445   4.347   1.745 -0.2638 -0.3637  0.2551
 4158TIP3    H134109   4.487   4.410   1.803 -0.8643  0.4825 -0.1946
 4158TIP3    H234110   4.494   4.266   1.757  1.1559  0.4431  0.1217
 4159TIP3   OH234111   5.756   6.324   0.116 -0.0895 -0.1064 -0.4078
 4159TIP3    H134112   5.780   6.374   0.194  1.5045 -0.8053 -0.4193
 4159TIP3    H234113   5.698   6.383   0.067 -1.0128  0.3931  1.2084
 4160TIP3   OH234114   4.815   2.588   3.836 -0.4401  0.0491  0.3806
 4160TIP3    H134115   4.839   2.506   3.793  0.8115  0.2690  0.6130
 4160TIP3    H234116   4.724   2.576   3.862 -0.1218 -1.4655  0.8661
 4161TIP3   OH234117   5.477   0.016   8.587  0.0181  0.5402 -0.3059
 4161TIP3    H134118   5.501   0.015   8.494 -0.1213 -0.4465 -0.3369
 4161TIP3    H234119   5.560   0.007   8.633  0.0849  1.0046 -0.3220
 4162TIP3   OH234120   2.389   1.650   8.652 -0.1702  0.1831  0.3783
 4162TIP3    H134121   2.427   1.633   8.566  2.2373  4.1101  0.4336
 4162TIP3    H234122   2.463   1.649   8.712 -1.2967  0.7996  1.8550
 4163TIP3   OH234123   0.867   6.591   0.618  0.3419  0.0200  0.2363
 4163TIP3    H134124   0.917   6.672   0.612  0.8916 -0.3269  0.0965
 4163TIP3    H234125   0.775   6.619   0.618  0.5078  0.5980 -0.5691
 4164TIP3   OH234126   2.151   3.466   2.900 -0.2631 -0.6911  0.0562
 4164TIP3    H134127   2.204   3.438   2.825  0.2789 -0.5643  0.3837
 4164TIP3    H234128   2.102   3.388   2.925 -1.0724 -0.5192 -0.9352
 4165TIP3   OH234129   0.537   4.856   0.431  0.3599  0.1955  0.2762
 4165TIP3    H134130   0.591   4.924   0.390  0.6378  0.0021  0.3183
 4165TIP3    H234131   0.577   4.842   0.516  1.8315 -1.7775 -0.6606
 4166TIP3   OH234132   0.962   0.427   2.345  0.0486  0.1908 -0.1645
 4166TIP3    H134133   0.945   0.521   2.338  1.1054  0.3521 -0.8877
 4166TIP3    H234134   0.957   0.408   2.439 -0.5816  0.8819 -0.0512
 4167TIP3   OH234135   5.145   5.155   8.756 -0.2147  0.1028 -0.0432
 4167TIP3    H134136   5.077   5.105   8.710 -0.0512 -0.3501  0.1947
 4167TIP3    H234137   5.205   5.182   8.686 -0.6247  0.4930 -0.2521
 4168TIP3   OH234138   3.827   4.459   2.697 -0.2808  0.4747 -0.0487
 4168TIP3    H134139   3.854   4.428   2.784 -1.0698  1.5460  0.6150
 4168TIP3    H234140   3.754   4.403   2.673 -0.6195  0.7311  0.3772
 4169TIP3   OH234141   6.311   2.830   0.013 -0.3289 -0.3121 -0.0416
 4169TIP3    H134142   6.369   2.905   0.028  0.2600 -0.4956 -1.2358
 4169TIP3    H234143   6.367   2.765  -0.030 -1.0172 -1.1481  0.2933
 4170TIP3   OH234144   2.155   1.119   0.507  0.0675 -0.1821 -0.2633
 4170TIP3    H134145   2.117   1.123   0.419 -0.7711 -0.5725  0.0670
 4170TIP3    H234146   2.243   1.084   0.493  1.0239  2.3551 -1.2386
 4171TIP3   OH234147   2.194   4.795   8.434  0.1521  0.0466 -0.0449
 4171TIP3    H134148   2.250   4.870   8.412  0.9328 -0.4154  0.3333
 4171TIP3    H234149   2.255   4.722   8.446 -0.6437 -0.8344 -1.1072
 4172TIP3   OH234150   0.529   6.469   0.617 -0.0214 -0.1547 -0.3653
 4172TIP3    H134151   0.623   6.483   0.623  0.0638 -1.1665  1.2099
 4172TIP3    H234152   0.518   6.374   0.620 -1.1518 -0.0322  1.6579
 4173TIP3   OH234153   4.771   2.171   1.793 -0.3472  0.1180 -0.3637
 4173TIP3    H134154   4.759   2.097   1.734  1.2943 -1.4486  1.1714
 4173TIP3    H234155   4.806   2.240   1.737  0.3570 -1.0373 -1.4025
 4174TIP3   OH234156   3.028   1.402   2.462 -0.0310  0.8164  0.6132
 4174TIP3    H134157   3.036   1.316   2.502  1.2737  0.7096  0.1776
 4174TIP3    H234158   2.941   1.432   2.487 -1.3703 -1.4854 -0.9585
 4175TIP3   OH234159   6.812   4.122   3.402  0.1732  0.0253 -0.0197
 4175TIP3    H134160   6.768   4.135   3.486  0.8682 -0.4978  0.4350
 4175TIP3    H234161   6.839   4.210   3.376  0.8027  0.0845  0.7879
 4176TIP3   OH234162   3.442   0.274   2.303  0.3083  0.5353 -0.6067
 4176TIP3    H134163   3.368   0.281   2.363  0.3373  0.6504 -0.5846
 4176TIP3    H234164   3.403   0.247   2.220  0.1048  1.6074 -0.8773
 4177TIP3   OH234165   1.204   0.621   8.463 -0.1625 -0.1912 -0.0961
 4177TIP3    H134166   1.121   0.601   8.505 -0.0567  0.3534  0.3913
 4177TIP3    H234167   1.264   0.554   8.495  0.1949  0.8538  1.5326
 4178TIP3   OH234168   2.004   0.383   3.496 -0.6311 -0.3290  0.5000
 4178TIP3    H134169   1.978   0.326   3.424  0.2813  0.1092 -0.2042
 4178TIP3    H234170   2.037   0.324   3.563 -0.7823 -0.7032  0.2464
 4179TIP3   OH234171   0.550   6.582   3.429 -0.4573  0.5647 -0.5344
 4179TIP3    H134172   0.640   6.550   3.433 -0.2389  1.1508 -0.6559
 4179TIP3    H234173   0.506   6.523   3.367  0.2607  1.2609 -1.7351
 4180TIP3   OH234174   4.443   3.395   4.141  0.9356  0.1548 -0.1892
 4180TIP3    H134175   4.392   3.358   4.069  0.2948  3.0453 -1.3889
 4180TIP3    H234176   4.378   3.418   4.208  1.1543  0.1629  0.0219
 4181TIP3   OH234177   5.223   5.586   2.638  0.2554 -0.4529 -0.0917
 4181TIP3    H134178   5.180   5.529   2.703  2.0109 -0.3451  1.2181
 4181TIP3    H234179   5.236   5.669   2.683  1.1478 -0.2392 -0.7185
 4182TIP3   OH234180   3.385   6.050   8.137  0.0942  0.2588  1.1251
 4182TIP3    H134181   3.406   6.125   8.082 -3.5785 -0.4630 -1.6551
 4182TIP3    H234182   3.459   5.991   8.127  0.9237  1.5054 -0.5923
 4183TIP3   OH234183   1.852   3.020   2.712  0.4242  0.2370  0.0767
 4183TIP3    H134184   1.884   3.061   2.632  1.0256 -0.1819  0.0898
 4183TIP3    H234185   1.865   2.926   2.698  1.8514  0.2269  1.2007
 4184TIP3   OH234186   1.562   2.549   0.472 -0.4030 -0.1043  0.2847
 4184TIP3    H134187   1.597   2.572   0.386 -1.5252 -0.5102 -0.3148
 4184TIP3    H234188   1.637   2.548   0.530  0.1340  2.0465 -0.2870
 4185TIP3   OH234189   5.982   0.247   1.855 -0.3818 -0.1067 -0.1552
 4185TIP3    H134190   5.913   0.188   1.825 -1.5913  0.7903  0.7346
 4185TIP3    H234191   6.038   0.261   1.779 -1.6192 -0.2711 -1.1158
 4186TIP3   OH234192   4.098   2.724   1.457  0.1477  0.0141  0.1116
 4186TIP3    H134193   4.079   2.638   1.419 -0.2077  0.3768 -0.5589
 4186TIP3    H234194   4.098   2.784   1.382  0.2128  0.6264  0.5895
 4187TIP3   OH234195   4.948   0.781   0.380 -0.1201  0.0209 -0.3639
 4187TIP3    H134196   4.899   0.736   0.449  0.6568  0.6282  0.6155
 4187TIP3    H234197   4.889   0.850   0.350 -0.1253  0.3558  0.3770
 4188TIP3   OH234198   6.428   1.477   1.993  0.2176 -0.0014 -0.7033
 4188TIP3    H134199   6.362   1.544   1.975  2.4486  2.1849 -1.2708
 4188TIP3    H234200   6.426   1.420   1.916 -1.9179 -0.8445 -0.0861
 4189TIP3   OH234201   0.429   5.812   1.228  0.2131 -0.3095 -0.4877
 4189TIP3    H134202   0.434   5.885   1.167  0.8176 -0.2038 -0.3158
 4189TIP3    H234203   0.339   5.781   1.220 -0.0925  0.5278 -0.4778
 4190TIP3   OH234204   5.941   2.193   4.247 -0.5686 -0.5299 -0.1775
 4190TIP3    H134205   5.998   2.231   4.180 -2.8623  1.4571 -1.1558
 4190TIP3    H234206   5.968   2.101   4.253  1.0901 -0.2493 -2.3315
 4191TIP3   OH234207   0.980   5.092   1.409 -0.4872 -0.8094 -0.0216
 4191TIP3    H134208   0.957   5.149   1.336 -0.3998 -1.8742 -0.9018
 4191TIP3    H234209   1.016   5.152   1.475 -0.5477  0.1698 -0.8458
 4192TIP3   OH234210   6.337   6.251   2.181 -0.5089 -0.2834 -0.7626
 4192TIP3    H134211   6.377   6.169   2.152 -1.3841 -1.2960  0.7193
 4192TIP3    H234212   6.245   6.243   2.153 -1.4589 -1.4174  2.2375
 4193TIP3   OH234213   0.539   0.703   2.820  0.0569 -0.4076 -0.9681
 4193TIP3    H134214   0.509   0.674   2.734 -1.5765  0.6794 -0.8002
 4193TIP3    H234215   0.519   0.630   2.878  0.4556 -0.8359 -1.3580
 4194TIP3   OH234216   3.657   0.872   8.330  0.0826  0.0064  0.4769
 4194TIP3    H134217   3.568   0.883   8.297 -0.2452 -2.4439  0.3525
 4194TIP3    H234218   3.665   0.778   8.347  2.9015  0.0108 -0.2632
 4195TIP3   OH234219   3.962   5.759   4.126  0.1403  0.1666  0.3328
 4195TIP3    H134220   3.937   5.804   4.045 -1.1694  0.8424  1.0746
 4195TIP3    H234221   3.981   5.829   4.188  1.6812 -0.3459  0.4859
 4196TIP3   OH234222   2.829   6.819   0.283  0.7005  0.3166  0.6396
 4196TIP3    H134223   2.828   6.914   0.289  0.0507  0.4656 -1.2652
 4196TIP3    H234224   2.737   6.793   0.284  0.5555  0.1278 -3.0681
 4197TIP3   OH234225   3.960   2.765   3.007 -0.1919  0.6385 -0.8568
 4197TIP3    H134226   4.006   2.777   3.091  1.2433 -0.3414 -1.4636
 4197TIP3    H234227   3.875   2.729   3.031  0.2359  0.2824  0.1809
 4198TIP3   OH234228   1.835   5.910   2.253 -0.3615  0.0062  0.1887
 4198TIP3    H134229   1.843   5.815   2.247  1.2166  0.1838 -1.0326
 4198TIP3    H234230   1.890   5.934   2.327  0.5562  0.0942 -0.5058
 4199TIP3   OH234231   6.165   2.750   1.449 -0.2309  0.2831  0.2062
 4199TIP3    H134232   6.171   2.687   1.377 -0.9030  0.2284  0.1900
 4199TIP3    H234233   6.166   2.696   1.528 -3.1489 -0.0042  0.1636
 4200TIP3   OH234234   6.087   3.651   2.689  0.0937  0.1025 -0.5084
 4200TIP3    H134235   6.098   3.746   2.686  1.5949 -0.0615 -1.1757
 4200TIP3    H234236   6.029   3.636   2.764  0.9355  1.4573  0.4640
 4201TIP3   OH234237   5.459   0.862   4.008 -0.4152  0.1610 -0.0026
 4201TIP3    H134238   5.445   0.784   3.953 -0.9312 -1.5262  2.3805
 4201TIP3    H234239   5.551   0.859   4.031 -0.4101  0.3216 -0.0053
 4202TIP3   OH234240   1.947   1.324   4.303 -0.0216 -0.5174  0.3293
 4202TIP3    H134241   2.001   1.403   4.308  0.7113 -0.8505 -1.4159
 4202TIP3    H234242   1.986   1.274   4.232 -0.3901 -2.5341  1.4778
 4203TIP3   OH234243   4.917   3.021   8.519 -0.0553 -0.1023 -0.4672
 4203TIP3    H134244   4.958   3.086   8.463  0.0023 -0.5044 -0.8903
 4203TIP3    H234245   4.966   2.941   8.504 -0.1874 -0.2725 -0.0180
 4204TIP3   OH234246   1.229   6.603   2.620  0.0196 -0.5580  0.1639
 4204TIP3    H134247   1.250   6.652   2.541 -0.8833  1.4793  1.1077
 4204TIP3    H234248   1.307   6.615   2.676 -0.6361  0.8331  0.8309
 4205TIP3   OH234249   1.702   5.681   1.436  0.6856 -0.2023 -0.4410
 4205TIP3    H134250   1.792   5.676   1.403  0.2219 -0.2553 -1.7648
 4205TIP3    H234251   1.649   5.645   1.365 -0.5377  1.4213 -0.4029
 4206TIP3   OH234252   1.521   0.214   2.800  0.4059 -0.3841 -0.0332
 4206TIP3    H134253   1.582   0.284   2.776 -1.9013  1.8811  0.2515
 4206TIP3    H234254   1.445   0.228   2.744 -1.6679 -0.2481  2.6438
 4207TIP3   OH234255   5.564   0.117   1.360 -0.6234 -0.1933 -0.1585
 4207TIP3    H134256   5.525   0.203   1.343  0.1982  0.0174 -1.0126
 4207TIP3    H234257   5.489   0.061   1.383 -1.1219  0.8477  0.8881
 4208TIP3   OH234258   3.163   4.229   0.754  0.0589  0.2787  1.0084
 4208TIP3    H134259   3.165   4.142   0.714  0.6301  0.5252  0.4808
 4208TIP3    H234260   3.183   4.288   0.682 -1.4954  0.9617  1.0908
 4209TIP3   OH234261   1.869   2.369   1.444  0.4756  0.5021  0.5566
 4209TIP3    H134262   1.931   2.311   1.399 -0.5300 -0.3384  0.1829
 4209TIP3    H234263   1.874   2.343   1.536 -1.8310 -2.1229  0.0802
 4210TIP3   OH234264   4.057   5.789   3.221 -0.1069 -0.0027  0.1355
 4210TIP3    H134265   4.055   5.879   3.253  0.9023  0.4049 -0.8864
 4210TIP3    H234266   3.985   5.784   3.158 -1.6948 -0.6293  1.8987
 4211TIP3   OH234267   0.636   6.275   3.076  0.4104 -0.3807  0.0964
 4211TIP3    H134268   0.703   6.219   3.036  2.1816  2.0519 -0.5589
 4211TIP3    H234269   0.643   6.257   3.170  2.7526  0.4971  0.1625
 4212TIP3   OH234270   1.776   4.630   3.240  0.2709 -0.4880  0.1047
 4212TIP3    H134271   1.711   4.671   3.297 -1.2171 -1.2165 -1.0307
 4212TIP3    H234272   1.731   4.617   3.157  2.7502  1.7617 -1.7720
 4213TIP3   OH234273   0.894   2.364   3.854  0.3645  0.1912 -0.4051
 4213TIP3    H134274   0.956   2.309   3.807 -0.4039 -1.2062  0.1559
 4213TIP3    H234275   0.934   2.451   3.854  1.3834 -0.2450 -1.7453
 4214TIP3   OH234276   5.897   0.372   3.352  0.3554  0.1273 -0.1645
 4214TIP3    H134277   5.965   0.385   3.418  0.7002 -0.1454 -0.4644
 4214TIP3    H234278   5.817   0.405   3.394  1.0166  2.4562 -0.5630
 4215TIP3   OH234279   4.446   4.939   3.342  0.1953  0.0384  0.2158
 4215TIP3    H134280   4.360   4.941   3.300  1.1282 -0.4213 -1.8269
 4215TIP3    H234281   4.432   4.981   3.427 -1.7170  1.4302 -0.7045
 4216TIP3   OH234282   3.855   5.852   0.036  0.2471  0.5581  0.2391
 4216TIP3    H134283   3.772   5.843  -0.011 -0.5184  0.6672  1.5401
 4216TIP3    H234284   3.914   5.893  -0.028 -0.2571 -0.8023 -1.1813
 4217TIP3   OH234285   3.680   0.915   3.482  0.1459  0.3533 -0.5519
 4217TIP3    H134286   3.704   0.941   3.571 -0.7371 -0.3124 -0.0972
 4217TIP3    H234287   3.590   0.945   3.472  0.0268 -0.1341 -0.9929
 4218TIP3   OH234288   6.298   1.915   2.251 -0.4676 -0.5587 -0.1118
 4218TIP3    H134289   6.372   1.913   2.191 -0.7428  0.0752 -0.4838
 4218TIP3    H234290   6.277   1.823   2.266 -0.1498 -0.7300 -0.6807
 4219TIP3   OH234291   2.098   3.667   8.295 -0.0720  0.4306  0.1706
 4219TIP3    H134292   2.090   3.601   8.226 -0.8055 -0.9818  1.5366
 4219TIP3    H234293   2.192   3.677   8.309  0.1011  0.9752 -1.2076
 4220TIP3   OH234294   0.614   5.548   0.002 -0.8197 -0.0489  0.1621
 4220TIP3    H134295   0.643   5.494  -0.071 -1.8803  0.9938 -1.0988
 4220TIP3    H234296   0.661   5.514   0.078  2.1025  0.2798 -1.3604
 4221TIP3   OH234297   1.832   0.390   3.754  0.1352  0.1702  0.7731
 4221TIP3    H134298   1.782   0.443   3.815 -1.1108 -0.7771  0.6142
 4221TIP3    H234299   1.801   0.416   3.668 -0.1622 -0.4701  0.6753
 4222TIP3   OH234300   2.390   0.942   3.168  0.4395 -0.1594  0.9242
 4222TIP3    H134301   2.395   0.860   3.218  0.9654 -1.4183 -1.0789
 4222TIP3    H234302   2.441   1.004   3.220  0.6783 -1.3064  2.1276
 4223TIP3   OH234303   2.765   1.076   3.267 -0.0747 -0.2739  0.0147
 4223TIP3    H134304   2.812   1.037   3.341 -0.0002 -1.8065 -0.8032
 4223TIP3    H234305   2.686   1.114   3.306  0.5211 -0.0338  1.0250
 4224TIP3   OH234306   1.904   6.402   0.318  0.3349  0.3256  0.3642
 4224TIP3    H134307   1.885   6.411   0.225  1.2781 -0.7914  0.0328
 4224TIP3    H234308   1.998   6.385   0.322 -0.1910 -3.1056  1.2122
 4225TIP3   OH234309   6.091   6.339   2.369  0.6698 -0.3404 -0.0346
 4225TIP3    H134310   6.056   6.391   2.297  1.1694 -0.4632 -0.3677
 4225TIP3    H234311   6.014   6.307   2.415  0.2762 -2.2014 -1.8703
 4226TIP3   OH234312   6.102   3.088   2.113  0.3085 -0.0520  0.1893
 4226TIP3    H134313   6.091   3.097   2.207 -0.4836  0.7589  0.0294
 4226TIP3    H234314   6.046   3.156   2.075  1.8759  0.7067 -0.8309
 4227TIP3   OH234315   3.956   2.399   8.209 -0.2635  0.0230  0.6125
 4227TIP3    H134316   4.005   2.382   8.290 -0.1869 -0.2339  0.5113
 4227TIP3    H234317   3.880   2.342   8.215 -0.1658 -0.1267  0.4193
 4228TIP3   OH234318   6.235   6.464   3.384 -0.3870 -0.4134  0.4389
 4228TIP3    H134319   6.227   6.505   3.298 -2.6398 -0.0183  0.7804
 4228TIP3    H234320   6.315   6.412   3.378  0.1364  0.5144 -1.4916
 4229TIP3   OH234321   1.665   2.298   8.709 -0.4314  0.0326 -0.0089
 4229TIP3    H134322   1.747   2.294   8.660  1.1005  0.6603  2.3429
 4229TIP3    H234323   1.619   2.374   8.673  1.2859  1.3249  0.4185
 4230TIP3   OH234324   3.497   0.328   0.274 -0.3118  0.4586 -0.0766
 4230TIP3    H134325   3.450   0.319   0.190 -1.1899  0.1890  0.4319
 4230TIP3    H234326   3.572   0.269   0.266 -0.1178  0.7951 -0.8529
 4231TIP3   OH234327   0.568   2.999   1.989  0.3289  0.2591  0.4949
 4231TIP3    H134328   0.587   3.090   2.010 -0.9877  1.2057 -1.9820
 4231TIP3    H234329   0.580   2.952   2.072  3.2292  2.2482  1.3592
 4232TIP3   OH234330   4.875   5.499   1.977 -0.0061  0.2426  0.9846
 4232TIP3    H134331   4.843   5.588   1.961 -0.2416 -0.1189 -0.7682
 4232TIP3    H234332   4.795   5.448   1.995 -0.2418 -0.1745 -0.9951
 4233TIP3   OH234333   4.670   2.637   1.479 -0.1557 -0.2943 -0.1320
 4233TIP3    H134334   4.671   2.665   1.571 -1.2749  0.1224 -0.2308
 4233TIP3    H234335   4.586   2.594   1.468  1.8101 -4.8313  0.2806
 4234TIP3   OH234336   3.405   0.432   0.792 -0.3427 -0.1083 -0.4671
 4234TIP3    H134337   3.353   0.376   0.735 -2.3095  1.5730 -0.4359
 4234TIP3    H234338   3.351   0.446   0.869 -1.4505  4.1776 -1.7072
 4235TIP3   OH234339   6.790   6.385   2.737 -0.3971 -0.4807 -0.0582
 4235TIP3    H134340   6.758   6.475   2.742  0.5893 -0.1828  2.3013
 4235TIP3    H234341   6.815   6.374   2.645  0.1411  1.9158 -0.2694
 4236TIP3   OH234342   5.073   2.197   0.530 -0.0583 -0.2512 -0.6683
 4236TIP3    H134343   5.095   2.159   0.445  1.8471  1.9987 -1.2862
 4236TIP3    H234344   5.158   2.206   0.574 -0.8546  0.0166  0.8621
 4237TIP3   OH234345   0.775   6.087   3.269 -0.5458  0.7548 -0.5734
 4237TIP3    H134346   0.778   5.999   3.308  1.4691  0.9243 -0.2529
 4237TIP3    H234347   0.699   6.128   3.311 -1.5124 -0.7978 -0.7075
 4238TIP3   OH234348   5.310   1.794   3.637  0.0176 -0.1417  0.4095
 4238TIP3    H134349   5.230   1.792   3.586  0.4848 -2.0950 -0.3164
 4238TIP3    H234350   5.381   1.796   3.573  0.5969  1.2655  1.0362
 4239TIP3   OH234351   0.995   3.699   3.017  0.5003 -0.1399 -0.8347
 4239TIP3    H134352   1.049   3.630   3.055 -2.0828 -1.5798  0.4531
 4239TIP3    H234353   0.938   3.728   3.088 -1.3700  0.3373 -2.4236
 4240TIP3   OH234354   3.071   2.362   3.139 -0.4986  0.4443  0.1660
 4240TIP3    H134355   3.102   2.367   3.229  2.4616  0.8734 -0.7484
 4240TIP3    H234356   3.109   2.280   3.105  1.8073  2.1520 -1.6990
 4241TIP3   OH234357   5.511   5.947   1.267  0.2458  0.2823 -0.0799
 4241TIP3    H134358   5.463   5.993   1.335  1.7135 -0.2694  1.3873
 4241TIP3    H234359   5.448   5.884   1.231 -0.3468  0.0772  1.2696
 4242TIP3   OH234360   4.472   3.685   1.562 -0.1484  0.0601 -0.0554
 4242TIP3    H134361   4.508   3.650   1.481  0.1538  0.3541 -0.0508
 4242TIP3    H234362   4.378   3.678   1.552 -0.1019 -0.3812 -0.2184
 4243TIP3   OH234363   3.399   2.376   2.891  0.4173  0.3953  0.7721
 4243TIP3    H134364   3.325   2.372   2.831  0.1398 -0.6135  1.1587
 4243TIP3    H234365   3.368   2.430   2.964  0.2998  0.5403  0.6136
 4244TIP3   OH234366   6.510   3.987   0.839  0.2081 -0.4899  0.2983
 4244TIP3    H134367   6.473   4.069   0.806  0.8491 -1.0241 -1.8834
 4244TIP3    H234368   6.467   3.918   0.788  1.8151 -1.3103 -0.0106
 4245TIP3   OH234369   2.877   5.030   1.477 -0.6200  0.0742  0.1506
 4245TIP3    H134370   2.841   4.961   1.532 -0.8940  0.0404 -0.0664
 4245TIP3    H234371   2.954   5.061   1.524 -0.3779 -0.5185  0.1502
 4246TIP3   OH234372   6.126   1.163   1.195 -0.2787  0.2602 -0.2990
 4246TIP3    H134373   6.038   1.189   1.224 -1.0962 -0.8574 -1.6864
 4246TIP3    H234374   6.113   1.124   1.109  1.5937  0.0695 -0.5379
 4247TIP3   OH234375   4.943   0.195   8.322 -0.2358  0.1459 -0.0483
 4247TIP3    H134376   5.033   0.195   8.355 -0.6809 -0.5625  1.2258
 4247TIP3    H234377   4.936   0.276   8.272  1.6293 -0.6409 -1.7064
 4248TIP3   OH234378   0.262   5.176   0.197 -0.2021 -0.2226 -0.3835
 4248TIP3    H134379   0.234   5.239   0.131 -2.1576  0.3301  0.9081
 4248TIP3    H234380   0.314   5.228   0.259  0.2338 -0.3961 -0.6000
 4249TIP3   OH234381   4.434   4.568   0.007 -0.0116  0.0330  0.4197
 4249TIP3    H134382   4.487   4.506  -0.044  0.9764  1.5131 -0.4087
 4249TIP3    H234383   4.479   4.652  -0.002 -0.4882  0.6204  2.7494
 4250TIP3   OH234384   0.893   3.723   3.286  0.5529 -0.2849  0.3888
 4250TIP3    H134385   0.812   3.771   3.305  0.3105 -1.0179  1.2940
 4250TIP3    H234386   0.953   3.748   3.356  1.2295  0.4957 -0.4545
 4251TIP3   OH234387   2.698   3.646   8.455 -0.0285 -0.3052 -0.1948
 4251TIP3    H134388   2.625   3.677   8.508  0.0580  0.0653 -0.2915
 4251TIP3    H234389   2.727   3.566   8.499 -0.8753 -0.7948 -0.4846
 4252TIP3   OH234390   2.975   6.627   4.303 -0.3660  0.0443 -0.7987
 4252TIP3    H134391   3.015   6.564   4.363 -0.9905  0.2693 -0.1298
 4252TIP3    H234392   2.995   6.593   4.216  0.6328 -0.2403 -0.4701
 4253TIP3   OH234393   0.812   5.494   8.100 -0.1037  0.8324 -0.9252
 4253TIP3    H134394   0.895   5.542   8.093 -0.3417  1.0780 -2.4139
 4253TIP3    H234395   0.744   5.560   8.086 -0.5822  0.6614  0.4546
 4254TIP3   OH234396   3.452   1.259   0.800  0.4168 -0.1751 -0.3345
 4254TIP3    H134397   3.416   1.303   0.877 -0.4668 -0.6808 -0.4445
 4254TIP3    H234398   3.411   1.303   0.726  1.3659  0.3977 -0.5364
 4255TIP3   OH234399   5.754   1.535   2.444  0.0690 -0.3946 -0.2163
 4255TIP3    H134400   5.721   1.453   2.482 -1.5018 -0.4737 -1.6488
 4255TIP3    H234401   5.778   1.511   2.354  2.3142  0.1183  0.1862
 4256TIP3   OH234402   1.582   4.627   0.872 -0.0187  0.6751 -0.5407
 4256TIP3    H134403   1.528   4.643   0.949 -0.5554 -0.7625 -0.5798
 4256TIP3    H234404   1.671   4.616   0.906 -0.1163  0.8619 -0.2253
 4257TIP3   OH234405   0.572   4.014   1.306  0.4937  0.4261 -0.2110
 4257TIP3    H134406   0.557   3.920   1.293  0.7130  0.3959 -0.2568
 4257TIP3    H234407   0.556   4.053   1.220 -0.8288  0.5983  0.0961
 4258TIP3   OH234408   2.247   3.744   2.229 -0.2221 -0.0439  0.2280
 4258TIP3    H134409   2.170   3.775   2.276  0.4116  1.0165  0.6041
 4258TIP3    H234410   2.303   3.821   2.221  0.7269 -0.7519 -0.2024
 4259TIP3   OH234411   4.655   2.342   3.622  0.4880  0.1199  0.4154
 4259TIP3    H134412   4.618   2.426   3.650 -0.9162 -1.1141  2.4604
 4259TIP3    H234413   4.726   2.325   3.684  0.9383 -0.1067 -0.1549
 4260TIP3   OH234414   4.405   0.045   8.652  0.1870  0.4193  0.1601
 4260TIP3    H134415   4.496   0.072   8.641  0.0477  1.0220  0.4570
 4260TIP3    H234416   4.409  -0.050   8.661  0.6581  0.2925 -1.1887
 4261TIP3   OH234417   6.067   2.224   1.366 -0.1800  0.0403 -0.4789
 4261TIP3    H134418   6.049   2.318   1.372 -0.7451 -0.0654 -0.4426
 4261TIP3    H234419   5.981   2.185   1.349  0.0702 -0.4597 -0.6000
 4262TIP3   OH234420   1.711   1.658   8.010 -0.3561 -0.5222 -0.0838
 4262TIP3    H134421   1.739   1.665   7.919 -1.0073 -1.3487 -0.3619
 4262TIP3    H234422   1.643   1.725   8.020 -0.3951 -0.5384 -0.2467
 4263TIP3   OH234423   3.161   3.312   1.116  0.3579  0.1587  0.1755
 4263TIP3    H134424   3.072   3.298   1.147  0.1622  2.5285  0.8595
 4263TIP3    H234425   3.157   3.296   1.022 -0.5827 -0.5857  0.3335
 4264TIP3   OH234426   1.298   5.480   1.831 -0.7749  0.4609 -0.2057
 4264TIP3    H134427   1.251   5.402   1.800 -0.8495  0.7346 -0.8009
 4264TIP3    H234428   1.230   5.535   1.869 -0.8464  0.5917 -0.5209
 4265TIP3   OH234429   1.077   4.319   3.033  0.6370 -0.1204 -0.1159
 4265TIP3    H134430   1.118   4.239   3.001  0.7268 -0.2878  0.4170
 4265TIP3    H234431   1.064   4.305   3.126 -0.9944 -0.2282 -0.3327
 4266TIP3   OH234432   2.109   4.981   8.630 -0.4822 -0.1902  0.8257
 4266TIP3    H134433   2.158   4.935   8.699 -0.1999 -1.1750 -0.0031
 4266TIP3    H234434   2.129   4.932   8.550 -0.5987  1.0929 -0.0090
 4267TIP3   OH234435   6.107   6.759   8.138  0.5142 -0.0831  0.3038
 4267TIP3    H134436   6.086   6.681   8.189 -0.3523  0.0803  0.2182
 4267TIP3    H234437   6.060   6.830   8.183  1.1903  0.3648  0.3084
 4268TIP3   OH234438   0.257   0.317   1.717 -0.5186  0.1974  0.7204
 4268TIP3    H134439   0.184   0.367   1.752 -0.8839  0.4197 -0.3476
 4268TIP3    H234440   0.324   0.382   1.698 -0.3972  0.0973  0.7974
 4269TIP3   OH234441   6.040   0.122   2.993  0.0492  0.2765  0.2893
 4269TIP3    H134442   6.044   0.128   3.088 -0.8616  0.8395  0.2968
 4269TIP3    H234443   6.079   0.204   2.962 -0.8468  0.6846  0.2080
 4270TIP3   OH234444   3.972   0.630   0.281  0.1608 -0.7611  0.4595
 4270TIP3    H134445   3.987   0.611   0.374  3.3170 -1.4260 -0.0646
 4270TIP3    H234446   3.973   0.544   0.239 -2.8945 -0.6135 -0.0990
 4271TIP3   OH234447   6.803   6.702   0.839  0.7809  0.0151 -0.1334
 4271TIP3    H134448   6.786   6.796   0.837 -0.0758 -0.0775  1.1343
 4271TIP3    H234449   6.824   6.679   0.749 -0.2060  1.2118 -0.7068
 4272TIP3   OH234450   2.530   2.162   1.910  0.0998  0.3406 -0.7396
 4272TIP3    H134451   2.546   2.074   1.876  2.3272  0.6875 -0.7466
 4272TIP3    H234452   2.518   2.149   2.004 -2.5566 -0.2428 -1.1006
 4273TIP3   OH234453   0.593   0.678   0.462 -0.6268 -0.2055  0.0961
 4273TIP3    H134454   0.500   0.679   0.486 -0.3958  1.0828  1.0680
 4273TIP3    H234455   0.628   0.758   0.502  0.9992 -0.9125  0.1307
 4274TIP3   OH234456   2.471   2.165   1.472 -0.2928  0.2991  0.0501
 4274TIP3    H134457   2.418   2.087   1.453 -0.7790  0.7266 -0.3630
 4274TIP3    H234458   2.517   2.182   1.390 -1.8850  1.7601 -0.5852
 4275TIP3   OH234459   5.676   5.189   1.482  0.7635  0.3041 -0.2829
 4275TIP3    H134460   5.627   5.255   1.435 -1.5455 -0.5428  0.7860
 4275TIP3    H234461   5.680   5.221   1.572 -0.0406 -0.7808  0.1657
 4276TIP3   OH234462   1.478   2.903   1.990 -0.0407 -0.0564  0.6972
 4276TIP3    H134463   1.498   2.948   2.072  2.4116 -0.9171  0.6500
 4276TIP3    H234464   1.559   2.907   1.940 -1.2256 -0.3153 -1.3612
 4277TIP3   OH234465   4.705   6.741   2.373  0.3269 -0.0580  0.3146
 4277TIP3    H134466   4.679   6.822   2.330 -0.9291  0.7286  2.4245
 4277TIP3    H234467   4.623   6.699   2.397  0.9879 -0.7850  1.3522
 4278TIP3   OH234468   3.545   6.735   1.327 -0.0401 -0.3568 -0.0087
 4278TIP3    H134469   3.584   6.718   1.242  0.0414 -0.2114 -0.0013
 4278TIP3    H234470   3.451   6.725   1.313 -0.1753  1.2979 -0.5285
 4279TIP3   OH234471   5.274   5.853   2.714  0.3995  0.4986 -0.3674
 4279TIP3    H134472   5.326   5.921   2.673  1.0585  2.5143  3.3805
 4279TIP3    H234473   5.188   5.893   2.726  0.3745  0.1584  0.6441
 4280TIP3   OH234474   6.596   0.904   8.479  0.4173 -0.1042 -0.1261
 4280TIP3    H134475   6.544   0.905   8.559  0.5592  0.0558 -0.0329
 4280TIP3    H234476   6.638   0.818   8.479 -1.5219 -1.1039 -1.3160
 4281TIP3   OH234477   4.794   6.066   2.400 -0.8372 -0.2678 -0.5866
 4281TIP3    H134478   4.815   5.974   2.414 -1.4313 -0.2533  0.4849
 4281TIP3    H234479   4.774   6.100   2.488  0.5997  1.1964 -0.7778
 4282TIP3   OH234480   3.276   5.660   0.031  0.1395  0.0333 -0.2390
 4282TIP3    H134481   3.184   5.683   0.035 -0.6241 -2.5807 -0.7518
 4282TIP3    H234482   3.296   5.655  -0.063 -0.2971 -2.9315 -0.2816
 4283TIP3   OH234483   2.236   4.228   8.716  0.0164 -0.5495 -0.0245
 4283TIP3    H134484   2.233   4.296   8.783  3.4791  1.6101 -1.7940
 4283TIP3    H234485   2.146   4.220   8.685 -1.1216  0.5312  2.7317
 4284TIP3   OH234486   6.582   2.301   2.618 -0.6360  0.7305 -0.5248
 4284TIP3    H134487   6.617   2.257   2.695 -2.2825  0.6693  0.2385
 4284TIP3    H234488   6.621   2.255   2.544 -0.0060 -0.0377  0.2648
 4285TIP3   OH234489   2.997   6.572   3.089  0.4919 -0.4159 -0.1909
 4285TIP3    H134490   3.071   6.558   3.148  0.5835 -1.9080 -0.6048
 4285TIP3    H234491   3.037   6.602   3.008  0.4416  0.7932  0.2149
 4286TIP3   OH234492   2.906   1.087   1.356  0.3278  0.3914  0.5150
 4286TIP3    H134493   2.829   1.102   1.301  0.9813  0.9027 -0.2833
 4286TIP3    H234494   2.894   0.999   1.391 -1.4855  1.0929  1.8435
 4287TIP3   OH234495   6.760   5.999   1.415 -0.2274 -0.0985 -0.8344
 4287TIP3    H134496   6.814   6.073   1.387  1.4362 -0.0585  2.1033
 4287TIP3    H234497   6.724   6.027   1.499 -0.0526 -2.3713  0.0477
 4288TIP3   OH234498   2.625   1.900   3.031 -0.0628 -0.0854 -0.4187
 4288TIP3    H134499   2.585   1.853   3.104  1.7982  0.2477  0.8935
 4288TIP3    H234500   2.567   1.882   2.957 -1.0205 -1.9900  0.6932
 4289TIP3   OH234501   0.397   5.122   1.231  0.4769 -0.6050  0.2028
 4289TIP3    H134502   0.402   5.171   1.149 -0.3102 -1.2561 -0.2494
 4289TIP3    H234503   0.475   5.148   1.280  1.3610 -0.7948 -1.0779
 4290TIP3   OH234504   0.152   3.541   2.268 -0.2005  0.1209  0.1536
 4290TIP3    H134505   0.206   3.603   2.219 -0.3111 -1.0682 -1.5820
 4290TIP3    H234506   0.106   3.491   2.200  1.5657 -3.3832  1.2889
 4291TIP3   OH234507   4.424   3.825   2.255  0.0633 -0.4584  0.4859
 4291TIP3    H134508   4.422   3.768   2.332 -0.6753 -1.7943 -0.4881
 4291TIP3    H234509   4.424   3.914   2.291 -0.3078 -1.0468  2.0209
 4292TIP3   OH234510   6.155   4.775   0.586 -0.1079  0.5378  0.0326
 4292TIP3    H134511   6.161   4.868   0.565  0.4279  0.1157 -1.8888
 4292TIP3    H234512   6.222   4.733   0.532  0.6323 -0.8434  1.8809
 4293TIP3   OH234513   1.219   1.120   1.973  0.3469 -0.2583  0.2552
 4293TIP3    H134514   1.190   1.198   2.021 -1.1975  0.0202 -1.0404
 4293TIP3    H234515   1.309   1.140   1.947 -0.0044  1.0894 -0.0120
 4294TIP3   OH234516   4.646   2.821   3.856  0.5707 -0.3589 -0.5799
 4294TIP3    H134517   4.642   2.861   3.942  0.4589 -0.4355 -0.5499
 4294TIP3    H234518   4.734   2.783   3.851  0.5334 -0.4614 -0.4530
 4295TIP3   OH234519   5.553   1.372   1.076  0.2511  0.2290 -0.0980
 4295TIP3    H134520   5.550   1.359   0.981  0.0535  0.9439 -0.1897
 4295TIP3    H234521   5.630   1.426   1.091  0.1814  0.2666  0.1360
 4296TIP3   OH234522   3.878   0.956   8.749 -0.3654 -0.1102 -0.0793
 4296TIP3    H134523   3.917   0.964   8.836  0.8981  0.1984 -0.6635
 4296TIP3    H234524   3.952   0.951   8.689 -1.2021  1.1929 -1.2927
 4297TIP3   OH234525   4.338   2.212   1.871 -0.0366 -0.4181  0.1393
 4297TIP3    H134526   4.392   2.275   1.824 -2.0535  1.2206 -0.1707
 4297TIP3    H234527   4.327   2.250   1.958  1.3779 -2.0360  1.0871
 4298TIP3   OH234528   1.986   1.147   2.368 -0.4376  0.3164 -0.2811
 4298TIP3    H134529   2.070   1.140   2.414 -1.3708  0.6408  1.5563
 4298TIP3    H234530   1.967   1.058   2.340 -1.6092 -0.7701  3.3583
 4299TIP3   OH234531   6.838   1.511   2.140  0.2603  0.1497  0.2956
 4299TIP3    H134532   6.789   1.434   2.170  0.2504 -1.1410 -2.6174
 4299TIP3    H234533   6.824   1.577   2.208 -2.2757 -1.4337  1.4684
 4300TIP3   OH234534   4.413   0.968   0.367  0.1277 -0.4629  0.2507
 4300TIP3    H134535   4.394   1.010   0.284 -1.1805  0.0144  0.7588
 4300TIP3    H234536   4.327   0.954   0.407  0.6292 -1.9848  0.8986
 4301TIP3   OH234537   4.617   3.710   0.473 -0.1946  0.1095  0.1013
 4301TIP3    H134538   4.694   3.654   0.467  0.4252  0.7415  1.7419
 4301TIP3    H234539   4.650   3.793   0.509 -1.6771  0.2592  1.2185
 4302TIP3   OH234540   4.215   1.495   3.319  0.3002  0.4076  0.5868
 4302TIP3    H134541   4.269   1.470   3.394  0.9594 -1.4727 -0.4594
 4302TIP3    H234542   4.226   1.590   3.312  0.3934  0.5930  2.7100
 4303TIP3   OH234543   1.523   4.120   1.708  0.4679  0.1575  0.1842
 4303TIP3    H134544   1.575   4.053   1.751 -0.6980  0.5728  2.3469
 4303TIP3    H234545   1.436   4.081   1.699 -0.1295  1.2055  1.1488
 4304TIP3   OH234546   1.683   1.240   0.815 -0.7218 -0.1684  0.0674
 4304TIP3    H134547   1.643   1.301   0.753 -0.0771  1.4703  1.2014
 4304TIP3    H234548   1.691   1.158   0.766 -0.7799  0.8974 -1.8204
 4305TIP3   OH234549   2.611   5.763   3.734  0.3656  0.6171 -0.2474
 4305TIP3    H134550   2.676   5.732   3.797  0.1054 -2.4656 -1.3073
 4305TIP3    H234551   2.535   5.787   3.787  0.7220 -0.3455  0.7355
 4306TIP3   OH234552   5.159   2.138   0.285  0.0104  0.0483  0.2280
 4306TIP3    H134553   5.240   2.189   0.280 -0.1004  0.2607  0.5564
 4306TIP3    H234554   5.177   2.059   0.234 -0.1189  0.8179 -1.0444
 4307TIP3   OH234555   3.463   4.557   1.159 -0.4669 -0.4885  0.2836
 4307TIP3    H134556   3.482   4.480   1.105 -0.0195  0.3810 -0.8316
 4307TIP3    H234557   3.549   4.588   1.186 -0.4277  1.1416 -1.4870
 4308TIP3   OH234558   0.194   4.775   2.376  0.4571  0.2874  0.1052
 4308TIP3    H134559   0.130   4.845   2.391 -0.1371 -0.3594  0.6315
 4308TIP3    H234560   0.251   4.778   2.452  0.2287 -0.0142  0.2894
 4309TIP3   OH234561   3.649   0.172   2.851  1.0226 -0.5331 -0.2377
 4309TIP3    H134562   3.732   0.164   2.898 -0.1558 -0.5225  1.9472
 4309TIP3    H234563   3.593   0.222   2.910 -0.5493 -0.5448 -1.6646
 4310TIP3   OH234564   4.353   1.460   3.557 -0.1877 -0.1200  0.3071
 4310TIP3    H134565   4.369   1.548   3.590  0.6823  0.0783 -0.5981
 4310TIP3    H234566   4.431   1.410   3.583 -1.6562 -1.2923  2.8772
 4311TIP3   OH234567   0.116   5.870   3.371  0.0602 -0.0318  0.0084
 4311TIP3    H134568   0.148   5.923   3.444  1.1688  0.5848 -0.8934
 4311TIP3    H234569   0.023   5.857   3.390  0.1813  0.6756  1.1859
 4312TIP3   OH234570   1.662   2.613   0.222 -0.2094 -0.4878  0.1142
 4312TIP3    H134571   1.727   2.649   0.162  0.1370 -0.3663  0.5594
 4312TIP3    H234572   1.578   2.628   0.178 -0.0405  0.4810  0.0949
 4313TIP3   OH234573   0.734   4.162   1.049 -0.0088 -0.2066 -0.2054
 4313TIP3    H134574   0.640   4.152   1.037 -0.2062  0.3091  0.8007
 4313TIP3    H234575   0.767   4.072   1.061 -0.2316 -0.4627 -1.3997
 4314TIP3   OH234576   6.503   1.622   0.964  0.8776  0.6587  0.2518
 4314TIP3    H134577   6.442   1.645   1.034 -2.2575 -1.1800 -1.6480
 4314TIP3    H234578   6.545   1.541   0.995  0.3885  0.4898  0.4787
 4315TIP3   OH234579   3.771   6.219   2.780  0.4879 -0.0103 -0.0757
 4315TIP3    H134580   3.814   6.203   2.864 -1.3860 -3.0398  0.4712
 4315TIP3    H234581   3.682   6.246   2.804  1.4992  5.4988 -1.1697
 4316TIP3   OH234582   3.982   5.750   8.212  0.0200 -0.4576  0.2269
 4316TIP3    H134583   4.031   5.670   8.195  0.7493  0.3263 -1.5608
 4316TIP3    H234584   4.048   5.814   8.236 -0.7064 -0.7414  3.4509
 4317TIP3   OH234585   3.287   0.316   3.655 -0.0700  0.0899  0.2918
 4317TIP3    H134586   3.226   0.244   3.638  0.0275  0.3386 -1.2561
 4317TIP3    H234587   3.283   0.370   3.576  2.0670  0.1719  0.1846
 4318TIP3   OH234588   5.998   1.805   3.674  0.3612 -0.6314 -0.3312
 4318TIP3    H134589   5.972   1.719   3.707  0.8147 -2.0979 -3.4670
 4318TIP3    H234590   6.094   1.804   3.679  0.3485 -0.0410  0.1575
 4319TIP3   OH234591   6.680   2.535   2.783 -0.3881  0.3832  0.2811
 4319TIP3    H134592   6.736   2.500   2.715 -0.4558  1.1140 -0.1567
 4319TIP3    H234593   6.704   2.486   2.862  2.4868  2.1750  0.6625
 4320TIP3   OH234594   2.316   2.790   3.422  0.3074 -0.2992  0.3708
 4320TIP3    H134595   2.384   2.800   3.489 -0.2060 -0.9267  1.0041
 4320TIP3    H234596   2.310   2.876   3.381  0.8547  0.0085  0.9180
 4321TIP3   OH234597   6.287   2.580   2.034 -0.0234  0.0553 -0.6771
 4321TIP3    H134598   6.204   2.623   2.054 -0.2773 -0.3912 -0.7573
 4321TIP3    H234599   6.271   2.487   2.051 -0.0091 -0.2487 -2.1507
 4322TIP3   OH234600   4.786   2.243   1.045  0.8413  0.2690  0.1728
 4322TIP3    H134601   4.780   2.151   1.017 -1.5894 -1.0256  4.0289
 4322TIP3    H234602   4.745   2.293   0.974  1.8681 -1.6204 -1.8676
 4323TIP3   OH234603   1.552   2.936   0.281  0.1429 -0.2448  0.3059
 4323TIP3    H134604   1.559   2.851   0.324  1.3052  0.3412  1.3465
 4323TIP3    H234605   1.632   2.982   0.305 -0.4130  1.1144 -0.3077
 4324TIP3   OH234606   3.558   1.415   3.095 -0.2410  0.1845 -0.2835
 4324TIP3    H134607   3.578   1.377   3.009 -1.0871  1.1760 -0.9523
 4324TIP3    H234608   3.637   1.465   3.117  0.9290 -1.9550  0.6634
 4325TIP3   OH234609   2.908   3.593   2.929  0.2391 -0.3460 -0.3124
 4325TIP3    H134610   2.888   3.641   2.849  0.7380 -0.0690 -0.2735
 4325TIP3    H234611   2.823   3.580   2.971 -0.0084 -0.3730 -0.8189
 4326TIP3   OH234612   4.751   6.185   2.666  0.0378  0.2245 -0.0962
 4326TIP3    H134613   4.666   6.220   2.691  0.5437  1.3022  0.1550
 4326TIP3    H234614   4.752   6.096   2.702 -0.1023  0.9732  1.8536
 4327TIP3   OH234615   0.857   3.104   1.630 -0.3576  0.0854 -0.4599
 4327TIP3    H134616   0.892   3.136   1.547 -2.3569 -0.2798 -1.5006
 4327TIP3    H234617   0.934   3.072   1.678  0.9354  1.0179 -1.8154
 4328TIP3   OH234618   3.980   2.622   3.522 -0.2502  0.5605  0.0974
 4328TIP3    H134619   3.930   2.540   3.516 -0.8515  0.9087  0.2838
 4328TIP3    H234620   4.008   2.626   3.613  1.1723 -0.2354 -0.2743
 4329TIP3   OH234621   3.454   1.562   3.310  0.2616 -0.5098 -0.7244
 4329TIP3    H134622   3.446   1.496   3.379 -1.8091  1.1635  0.7471
 4329TIP3    H234623   3.451   1.512   3.229  0.4425 -2.3477  0.3416
 4330TIP3   OH234624   3.737   6.828   3.712  0.1261 -0.3378  0.7912
 4330TIP3    H134625   3.747   6.882   3.790  0.0099  0.0943  0.5161
 4330TIP3    H234626   3.651   6.852   3.678  0.4299 -0.0619  0.1957
 4331TIP3   OH234627   1.765   6.651   8.758 -0.0355  0.1366 -0.1058
 4331TIP3    H134628   1.822   6.717   8.796  2.1269 -1.5605 -0.1467
 4331TIP3    H234629   1.744   6.684   8.670 -0.4057  1.4991  0.4830
 4332TIP3   OH234630   6.666   4.657   3.760 -0.1615 -0.5541  0.6373
 4332TIP3    H134631   6.650   4.563   3.774 -1.3699 -0.5186 -0.2792
 4332TIP3    H234632   6.690   4.663   3.667  1.1424 -0.0729  0.9806
 4333TIP3   OH234633   2.188   6.072   3.290  0.5859  0.3267  0.4500
 4333TIP3    H134634   2.125   6.024   3.344  0.8038 -0.9069 -0.3564
 4333TIP3    H234635   2.155   6.063   3.201  0.6997  1.5963  0.2716
 4334TIP3   OH234636   3.577   6.454   2.440 -0.1693 -0.3173  0.0523
 4334TIP3    H134637   3.550   6.543   2.462 -0.0661 -0.1461 -0.5150
 4334TIP3    H234638   3.497   6.413   2.407  0.1143  0.0284 -1.1206
 4335TIP3   OH234639   1.975   4.002   0.074  0.0829 -0.1800  0.2318
 4335TIP3    H134640   1.982   4.036  -0.015  0.8041  0.9562  0.6977
 4335TIP3    H234641   1.927   3.920   0.064  0.8854 -0.5111 -1.3076
 4336TIP3   OH234642   0.708   0.226   3.653 -0.6450 -0.2345 -0.0684
 4336TIP3    H134643   0.719   0.226   3.557  0.9127 -0.7778  0.0750
 4336TIP3    H234644   0.708   0.134   3.677 -2.1528 -0.1394  0.3765
 4337TIP3   OH234645   3.290   4.380   0.204 -0.3937 -0.6827  0.1453
 4337TIP3    H134646   3.316   4.423   0.285  1.9267 -0.6989 -0.5186
 4337TIP3    H234647   3.318   4.289   0.214 -0.5476 -0.8031 -0.4744
 4338TIP3   OH234648   4.801   4.342   1.753 -0.1786  0.0290 -0.6896
 4338TIP3    H134649   4.895   4.326   1.750 -0.3594 -0.9948 -2.0526
 4338TIP3    H234650   4.786   4.411   1.688 -0.3989  0.0200 -0.6500
 4339TIP3   OH234651   0.206   5.337   1.626  0.5305  0.2231  0.2845
 4339TIP3    H134652   0.243   5.340   1.714 -0.0113 -0.4749  0.5528
 4339TIP3    H234653   0.162   5.252   1.622 -2.3573  1.5850  0.5371
 4340TIP3   OH234654   4.790   5.639   3.982 -0.3262 -0.1348  0.4095
 4340TIP3    H134655   4.759   5.649   4.072 -3.8478 -1.6133 -0.4859
 4340TIP3    H234656   4.744   5.562   3.949  1.9516 -0.5112 -2.2801
 4341TIP3   OH234657   4.787   3.554   7.907 -0.0773  0.2196  0.1162
 4341TIP3    H134658   4.694   3.535   7.917  0.1084  0.0208  1.6711
 4341TIP3    H234659   4.823   3.476   7.864 -0.1674 -0.9516  2.0650
 4342TIP3   OH234660   4.643   0.022   2.744  0.2275  0.1797  0.1157
 4342TIP3    H134661   4.674   0.103   2.784 -1.0828  0.6096  0.3285
 4342TIP3    H234662   4.721  -0.020   2.709  0.9295  1.5301  0.0186
 4343TIP3   OH234663   4.007   1.181   1.972  0.3705  0.2346 -0.7504
 4343TIP3    H134664   4.081   1.123   1.958 -1.3286 -1.6419 -2.7413
 4343TIP3    H234665   3.946   1.130   2.024 -0.0747  1.2514 -0.2474
 4344TIP3   OH234666   3.075   4.487   1.014  0.5434 -0.2301 -0.9184
 4344TIP3    H134667   3.109   4.480   1.104  2.5864 -0.9431 -1.6903
 4344TIP3    H234668   3.035   4.401   0.998 -0.5979  0.1892 -0.4311
 4345TIP3   OH234669   1.351   5.763   0.441  0.4585  0.0711 -0.2560
 4345TIP3    H134670   1.353   5.715   0.358  0.8323  0.5657 -0.5409
 4345TIP3    H234671   1.433   5.812   0.441  1.3544 -1.3416  1.2692
 4346TIP3   OH234672   1.791   4.816   0.016  0.6194 -0.2910 -0.0519
 4346TIP3    H134673   1.859   4.837  -0.047  0.4625  0.2416 -0.0462
 4346TIP3    H234674   1.709   4.828  -0.032  0.4734  0.8330  0.4493
 4347TIP3   OH234675   4.510   4.716   3.166  0.1469  0.1302  0.1285
 4347TIP3    H134676   4.585   4.658   3.170 -1.6661 -2.2936  1.8269
 4347TIP3    H234677   4.536   4.792   3.220  1.1553 -0.9510  1.2357
 4348TIP3   OH234678   0.740   1.834   0.704  0.0248 -0.1314 -0.3241
 4348TIP3    H134679   0.721   1.744   0.676 -2.2152 -0.4719  1.9452
 4348TIP3    H234680   0.776   1.824   0.792 -0.9347  1.1994  0.2463
 4349TIP3   OH234681   5.956   5.217   0.714  0.4932 -0.2355 -0.1676
 4349TIP3    H134682   5.961   5.161   0.792  1.3453  0.2259  0.1250
 4349TIP3    H234683   6.013   5.291   0.734 -0.9348  0.9707 -0.3770
 4350TIP3   OH234684   5.237   5.369   0.375 -0.4353  0.4841  0.2297
 4350TIP3    H134685   5.331   5.387   0.370 -0.7483  2.0618 -0.6266
 4350TIP3    H234686   5.219   5.361   0.469  0.5699  0.0143  0.3876
 4351TIP3   OH234687   2.569   1.466   2.243  0.2736  0.5206  0.1183
 4351TIP3    H134688   2.629   1.474   2.316 -1.7701 -2.4247  2.3814
 4351TIP3    H234689   2.524   1.551   2.239  1.8082  1.4033  0.9254
 4352TIP3   OH234690   3.867   2.432   8.625 -0.1557 -0.1878 -0.0856
 4352TIP3    H134691   3.847   2.474   8.709  0.5628  1.4037 -0.6878
 4352TIP3    H234692   3.807   2.472   8.563 -0.9872 -1.6816 -0.2885
 4353TIP3   OH234693   6.135   1.853   0.205 -0.0827 -0.1980 -0.3205
 4353TIP3    H134694   6.185   1.912   0.148  0.1947 -0.4080 -0.2955
 4353TIP3    H234695   6.173   1.865   0.292 -1.1106  0.8065  0.0148
 4354TIP3   OH234696   0.608   4.480   1.494  0.5673  0.1175 -0.4329
 4354TIP3    H134697   0.659   4.497   1.573  0.3579 -1.0500 -0.0246
 4354TIP3    H234698   0.630   4.390   1.469 -1.4940 -0.5673 -0.0480
 4355TIP3   OH234699   3.083   5.359   4.330  0.2876 -0.5318  0.0156
 4355TIP3    H134700   3.164   5.389   4.290 -0.0166  1.8210  1.0237
 4355TIP3    H234701   3.029   5.437   4.338 -0.8007 -1.4248  2.3268
 4356TIP3   OH234702   6.065   0.145   0.953  0.2905  0.1960  0.1699
 4356TIP3    H134703   6.092   0.080   1.017 -0.2469 -0.2796 -0.0812
 4356TIP3    H234704   5.982   0.112   0.917  1.2175 -0.2286 -1.7324
 4357TIP3   OH234705   2.559   6.728   2.810 -0.3924  0.0299 -0.3313
 4357TIP3    H134706   2.484   6.674   2.788 -0.3510 -0.1229 -0.0980
 4357TIP3    H234707   2.522   6.813   2.832 -0.3223  0.8136 -2.8847
 4358TIP3   OH234708   3.315   2.183   1.208  0.1391 -0.4006  0.2950
 4358TIP3    H134709   3.372   2.255   1.232 -1.5878  1.0364  0.3064
 4358TIP3    H234710   3.310   2.187   1.113  0.1426 -0.6035  0.2851
 4359TIP3   OH234711   3.320   5.589   1.317  0.3218 -0.1746 -0.0898
 4359TIP3    H134712   3.381   5.650   1.358  0.0425  0.8194 -1.1085
 4359TIP3    H234713   3.282   5.540   1.390 -0.6495  1.9614  0.9191
 4360TIP3   OH234714   5.244   0.633   2.859 -0.4200  0.5711 -0.4039
 4360TIP3    H134715   5.195   0.587   2.791  0.8069 -0.3454 -0.6857
 4360TIP3    H234716   5.290   0.564   2.907 -0.2901  1.3150  0.5750
 4361TIP3   OH234717   3.550   5.304   3.327  0.2345 -0.1417 -0.6666
 4361TIP3    H134718   3.557   5.210   3.341 -0.1158  0.0608  0.9935
 4361TIP3    H234719   3.634   5.339   3.355 -0.1626  0.1821  0.1518
 4362TIP3   OH234720   1.976   0.118   8.204 -0.0101 -0.3841 -0.0435
 4362TIP3    H134721   2.037   0.045   8.207  1.3511  0.7357  0.2962
 4362TIP3    H234722   2.011   0.178   8.138 -2.5788 -1.2314 -2.3895
 4363TIP3   OH234723   1.729   0.738   2.623  0.2567  0.4101 -0.4375
 4363TIP3    H134724   1.693   0.736   2.535  1.3699 -0.0177 -0.9090
 4363TIP3    H234725   1.752   0.830   2.639 -0.5988  0.6039 -0.3093
 4364TIP3   OH234726   6.256   2.037   0.030  0.2332  0.0477  0.3071
 4364TIP3    H134727   6.259   2.033  -0.065  4.3124  0.0857  0.2891
 4364TIP3    H234728   6.249   2.130   0.050  0.5643  0.1353  0.0231
 4365TIP3   OH234729   4.524   0.692   7.845  0.6460 -0.1320 -0.2921
 4365TIP3    H134730   4.515   0.785   7.822  0.0833 -0.2130 -0.4326
 4365TIP3    H234731   4.472   0.683   7.925  2.3962  0.1006  0.9297
 4366TIP3   OH234732   0.656   4.246   3.878 -0.1840 -0.3395  0.2635
 4366TIP3    H134733   0.713   4.175   3.907 -0.4357  0.0063  1.6991
 4366TIP3    H234734   0.703   4.287   3.807  0.4787 -1.2484  0.1534
 4367TIP3   OH234735   1.313   0.327   2.336 -0.0854 -0.4013 -0.0316
 4367TIP3    H134736   1.304   0.264   2.407  0.4447 -1.0630 -0.5328
 4367TIP3    H234737   1.278   0.409   2.371 -2.2892 -1.3339  0.1236
 4368TIP3   OH234738   5.015   5.797   0.799 -0.0055 -0.5360 -0.2977
 4368TIP3    H134739   5.013   5.890   0.823  3.3635 -0.5763  0.7712
 4368TIP3    H234740   4.964   5.753   0.868 -0.0277  0.3763  0.2854
 4369TIP3   OH234741   4.588   3.144   0.046 -0.3970 -0.4099 -0.4503
 4369TIP3    H134742   4.619   3.217   0.100 -0.6857 -1.1565  0.7484
 4369TIP3    H234743   4.619   3.166  -0.043  0.3933  0.6643  0.0624
 4370TIP3   OH234744   4.204   2.994   1.305  0.6551 -0.3330  0.4867
 4370TIP3    H134745   4.182   3.087   1.302  0.2163 -0.4627 -0.6322
 4370TIP3    H234746   4.255   2.984   1.386  0.8114  0.8941  0.5555
 4371TIP3   OH234747   1.073   5.765   2.539 -0.3676 -0.4850 -0.1643
 4371TIP3    H134748   1.004   5.786   2.477  0.0762 -2.0135 -1.2401
 4371TIP3    H234749   1.117   5.688   2.502  1.2657 -0.1807  0.9920
 4372TIP3   OH234750   3.217   6.056   1.583  0.4294 -0.3497 -0.6536
 4372TIP3    H134751   3.152   5.986   1.582 -0.4292  0.4117  0.1081
 4372TIP3    H234752   3.170   6.133   1.550  0.9427  0.2134 -0.1149
 4373TIP3   OH234753   0.644   3.050   8.492  0.4303 -0.0952 -0.5441
 4373TIP3    H134754   0.553   3.023   8.476 -0.7669  2.2929  1.5513
 4373TIP3    H234755   0.682   3.060   8.404 -0.9502 -2.1503 -1.4536
 4374TIP3   OH234756   6.494   2.825   4.321  0.0410 -0.6201 -0.1271
 4374TIP3    H134757   6.484   2.860   4.233  1.1226 -1.1378 -0.4770
 4374TIP3    H234758   6.527   2.898   4.373  2.5349 -1.0701 -0.9060
 4375TIP3   OH234759   2.343   0.752   2.476 -1.0138  0.2417  0.1443
 4375TIP3    H134760   2.396   0.823   2.439 -0.0133 -0.5894 -0.0896
 4375TIP3    H234761   2.387   0.672   2.447 -0.7144 -0.4751  2.3270
 4376TIP3   OH234762   2.851   1.813   1.818  0.2809 -0.5697 -0.2281
 4376TIP3    H134763   2.818   1.860   1.741 -2.1148  0.1105  1.1121
 4376TIP3    H234764   2.913   1.874   1.858 -1.1596  0.6165  0.2960
 4377TIP3   OH234765   0.936   6.010   0.663 -0.4553 -0.1347 -0.1611
 4377TIP3    H134766   0.889   5.960   0.729 -2.8250  0.6144 -1.1799
 4377TIP3    H234767   1.001   5.949   0.628 -1.5161 -1.6604  0.4272
 4378TIP3   OH234768   6.037   5.998   1.686 -0.1475 -0.5889  0.1896
 4378TIP3    H134769   6.032   5.975   1.779 -0.4004 -0.5673  0.1812
 4378TIP3    H234770   6.025   5.914   1.640 -1.1349 -0.4435  0.1571
 4379TIP3   OH234771   4.377   3.928   1.402 -0.9093 -0.4449 -0.0333
 4379TIP3    H134772   4.331   3.921   1.485  0.9704  0.2058  1.1195
 4379TIP3    H234773   4.319   3.886   1.339 -2.7692 -0.2013  1.4322
 4380TIP3   OH234774   3.586   4.770   3.102  0.4722 -0.2907 -0.2209
 4380TIP3    H134775   3.527   4.837   3.068 -0.9647 -1.4067 -0.0231
 4380TIP3    H234776   3.608   4.717   3.026  2.2882  0.8415 -0.5447
 4381TIP3   OH234777   3.322   3.005   0.413  0.0017 -0.1146  0.7795
 4381TIP3    H134778   3.336   2.985   0.505 -0.9461 -0.0707  0.9405
 4381TIP3    H234779   3.349   3.096   0.403  0.6826 -0.3036  0.8774
 4382TIP3   OH234780   6.188   4.876   2.397  0.1412  0.2290  0.6976
 4382TIP3    H134781   6.180   4.970   2.379 -0.3697 -0.0842 -0.9103
 4382TIP3    H234782   6.099   4.847   2.415  0.2826  0.0193  1.0744
 4383TIP3   OH234783   2.900   4.388   8.029  0.2824 -0.5078 -0.8181
 4383TIP3    H134784   2.867   4.360   8.114 -0.2440 -2.2967 -1.5639
 4383TIP3    H234785   2.866   4.477   8.018 -1.0244 -0.8715  0.1280
 4384TIP3   OH234786   0.710   5.046   1.213 -0.0256 -0.4630  0.5203
 4384TIP3    H134787   0.638   5.001   1.257  0.5762 -1.1347  0.8436
 4384TIP3    H234788   0.707   5.136   1.247 -0.4912 -0.5776  0.7926
 4385TIP3   OH234789   1.742   4.820   0.602  0.2998 -0.3661 -0.9486
 4385TIP3    H134790   1.737   4.735   0.647  1.4988  0.2300  0.3870
 4385TIP3    H234791   1.653   4.835   0.569 -0.3973 -1.2782  0.4148
 4386TIP3   OH234792   1.838   0.148   0.736 -0.7720 -0.3524  0.0489
 4386TIP3    H134793   1.884   0.073   0.701 -0.8819 -0.3800 -0.0374
 4386TIP3    H234794   1.765   0.162   0.675  0.0476  0.6950 -0.7299
 4387TIP3   OH234795   4.911   3.155   0.994 -0.4600  0.7370  0.2346
 4387TIP3    H134796   4.995   3.119   0.966 -1.6663 -0.4754 -2.0401
 4387TIP3    H234797   4.878   3.091   1.057 -1.4095 -0.9019 -1.8365
 4388TIP3   OH234798   4.367   0.360   3.425 -0.4727  0.4292 -0.2484
 4388TIP3    H134799   4.277   0.390   3.433 -1.2187 -1.6700 -0.0253
 4388TIP3    H234800   4.402   0.405   3.349 -2.3984 -0.2570 -1.5913
 4389TIP3   OH234801   1.483   5.697   2.306 -0.4111  0.3947  0.7445
 4389TIP3    H134802   1.419   5.629   2.284 -1.7672  2.0254 -0.6139
 4389TIP3    H234803   1.448   5.777   2.267  2.0688  1.5432  0.6681
 4390TIP3   OH234804   1.128   2.941   3.256  0.3018 -0.5428 -0.0918
 4390TIP3    H134805   1.196   2.999   3.220  0.4045 -0.6877 -0.1310
 4390TIP3    H234806   1.046   2.975   3.220  0.0540  1.2073  1.9048
 4391TIP3   OH234807   1.435   1.533   0.869 -0.0861 -0.0516  0.2271
 4391TIP3    H134808   1.462   1.525   0.778 -0.2724 -0.9182  0.2429
 4391TIP3    H234809   1.458   1.623   0.893 -1.3691  0.6675 -1.1045
 4392TIP3   OH234810   2.778   4.344   2.623  0.1926 -1.0835  0.5857
 4392TIP3    H134811   2.689   4.368   2.596  0.8083 -0.4041 -0.8785
 4392TIP3    H234812   2.810   4.421   2.670 -0.1922 -1.5670  1.6892
 4393TIP3   OH234813   0.214   3.991   1.925  0.4030 -0.0547 -0.1643
 4393TIP3    H134814   0.246   3.908   1.961 -0.7215 -0.3150  0.2831
 4393TIP3    H234815   0.170   4.034   1.998 -2.4287 -0.8546 -1.2480
 4394TIP3   OH234816   4.818   0.008   1.467  0.0739  0.3384 -0.6536
 4394TIP3    H134817   4.897  -0.029   1.507 -0.4402 -1.4101 -1.1698
 4394TIP3    H234818   4.840   0.017   1.375  0.2519  1.5551 -0.5080
 4395TIP3   OH234819   4.346   1.111   3.428 -0.0940  0.3284  0.2329
 4395TIP3    H134820   4.271   1.154   3.468  0.5022  1.2394  0.4079
 4395TIP3    H234821   4.312   1.073   3.347 -0.7341  0.7797  0.2832
 4396TIP3   OH234822   5.945   1.747   3.392  0.2760  0.1583  0.1733
 4396TIP3    H134823   5.851   1.768   3.389  0.1913 -0.2642 -0.2947
 4396TIP3    H234824   5.967   1.749   3.485  0.3565  2.6415  0.1708
 4397TIP3   OH234825   5.976   2.162   0.056 -0.1402 -0.3694  0.0568
 4397TIP3    H134826   6.023   2.096   0.005  0.6746 -0.7275  1.2244
 4397TIP3    H234827   5.914   2.112   0.108 -0.5353 -0.0737 -0.1322
 4398TIP3   OH234828   1.917   4.714   1.835 -0.6404  0.4477 -0.2927
 4398TIP3    H134829   1.865   4.712   1.915  0.0376  0.4016  0.1528
 4398TIP3    H234830   1.852   4.707   1.764 -1.1460 -1.0301  0.2757
 4399TIP3   OH234831   6.056   5.329   1.187  0.1824  0.4696 -0.2399
 4399TIP3    H134832   6.139   5.284   1.204  0.5629 -0.1971 -3.1960
 4399TIP3    H234833   5.993   5.284   1.243  1.1262 -1.7363 -0.8183
 4400TIP3   OH234834   2.186   0.458   1.696  0.0309 -0.1108 -0.6061
 4400TIP3    H134835   2.219   0.547   1.682  1.3052 -0.5518 -0.4744
 4400TIP3    H234836   2.119   0.468   1.764  0.0276  0.7695 -0.7296
 4401TIP3   OH234837   1.761   6.247   2.380 -0.0523 -0.1948  0.0688
 4401TIP3    H134838   1.724   6.255   2.468 -0.6657 -0.6904 -0.1357
 4401TIP3    H234839   1.692   6.205   2.329  0.1556  0.4414 -0.7448
 4402TIP3   OH234840   1.198   2.171   1.174  0.1964  0.8810  0.3553
 4402TIP3    H134841   1.116   2.168   1.125 -0.9581  0.9416  2.1596
 4402TIP3    H234842   1.263   2.134   1.115 -1.2177  0.3824 -0.9665
 4403TIP3   OH234843   3.941   5.699   3.488 -0.8250  1.0007  0.1506
 4403TIP3    H134844   4.000   5.708   3.563  1.8806  0.6918 -1.7958
 4403TIP3    H234845   3.980   5.755   3.421 -1.1916 -1.2947 -2.0914
 4404TIP3   OH234846   6.336   6.109   0.403  0.1838  0.1836  0.2071
 4404TIP3    H134847   6.300   6.180   0.457  0.8465 -0.2193  1.1984
 4404TIP3    H234848   6.322   6.139   0.313  2.4516  2.6237  0.5458
 4405TIP3   OH234849   4.085   6.052   1.708 -0.3718 -0.3797 -0.4071
 4405TIP3    H134850   4.063   6.065   1.800  1.1678 -0.2925 -0.0179
 4405TIP3    H234851   4.001   6.056   1.662 -1.1344 -0.1393  0.9509
 4406TIP3   OH234852   6.495   1.333   1.315 -0.1108  0.0452  0.4327
 4406TIP3    H134853   6.500   1.238   1.320  2.8970  0.1655  2.2806
 4406TIP3    H234854   6.556   1.364   1.382 -0.0627  3.2799 -0.9066
 4407TIP3   OH234855   0.828   1.632   2.082  0.3166  0.2526  0.0481
 4407TIP3    H134856   0.854   1.631   1.990  2.7867  0.9076  0.6669
 4407TIP3    H234857   0.903   1.669   2.128 -1.3723  1.2138  2.2038
 4408TIP3   OH234858   3.873   5.934   2.635 -0.3190 -0.0714 -0.6372
 4408TIP3    H134859   3.917   6.018   2.642  1.5129 -1.0576  0.1836
 4408TIP3    H234860   3.787   5.956   2.598 -0.0153  2.1678 -0.1841
 4409TIP3   OH234861   2.288   4.462   8.100  0.2755  0.2785 -0.0626
 4409TIP3    H134862   2.271   4.381   8.052  0.6557  0.8850 -1.2780
 4409TIP3    H234863   2.384   4.463   8.111  0.1082 -0.5519  2.0528
 4410TIP3   OH234864   6.177   0.969   2.190 -0.6377 -0.1441  0.0456
 4410TIP3    H134865   6.213   1.043   2.238 -2.1318  1.0294 -0.5610
 4410TIP3    H234866   6.246   0.943   2.130  0.3131  0.0106  1.0385
 4411TIP3   OH234867   1.078   3.365   2.518 -0.3034  0.4376 -0.2855
 4411TIP3    H134868   1.087   3.309   2.595  1.9531  2.4540  1.0480
 4411TIP3    H234869   1.107   3.310   2.445  0.7093 -0.5169  0.7998
 4412TIP3   OH234870   4.559   1.189   1.066  0.0191  0.2520  0.4398
 4412TIP3    H134871   4.541   1.095   1.063  0.3080  0.2283 -0.8174
 4412TIP3    H234872   4.626   1.198   1.133  0.4263 -0.5152  0.1532
 4413TIP3   OH234873   5.659   1.908   3.788 -0.4248  0.0349 -0.4513
 4413TIP3    H134874   5.679   1.837   3.726  0.1454 -0.0968 -0.1238
 4413TIP3    H234875   5.731   1.906   3.851  0.2052  1.6579 -1.0850
 4414TIP3   OH234876   0.267   4.350   0.472  0.2911  0.6176  0.2134
 4414TIP3    H134877   0.273   4.378   0.563 -2.2762 -1.8699  1.3105
 4414TIP3    H234878   0.354   4.313   0.453  1.2830  2.3170  1.1486
 4415TIP3   OH234879   1.240   3.986   1.644  0.0559  0.0201 -0.3460
 4415TIP3    H134880   1.224   3.995   1.550 -0.4872  1.0457 -0.1618
 4415TIP3    H234881   1.156   4.005   1.685  0.9752  2.6069  0.5010
 4416TIP3   OH234882   1.732   3.781   0.642  0.0266 -0.5890 -0.6525
 4416TIP3    H134883   1.764   3.831   0.567 -1.5988  1.3173 -0.1618
 4416TIP3    H234884   1.685   3.846   0.695  0.1080 -2.1334  1.3975
 4417TIP3   OH234885   2.141   0.004   0.825  0.3812  0.3040 -0.5328
 4417TIP3    H134886   2.234   0.005   0.848  0.9122 -3.2704 -2.0253
 4417TIP3    H234887   2.097  -0.020   0.906  0.7670  1.3181  0.0033
 4418TIP3   OH234888   3.896   5.208   3.369  0.2548 -0.0187  0.1858
 4418TIP3    H134889   3.874   5.273   3.303  0.0369 -2.2096 -2.0674
 4418TIP3    H234890   3.991   5.214   3.378  0.1160  1.4540  1.0526
 4419TIP3   OH234891   5.367   6.793   8.047  0.0117 -0.2812 -0.0503
 4419TIP3    H134892   5.288   6.846   8.039 -0.7276 -1.3872 -0.3909
 4419TIP3    H234893   5.334   6.703   8.059  1.2159 -0.7136  0.1347
 4420TIP3   OH234894   3.138   2.611   0.598  0.2615  0.9078 -0.2392
 4420TIP3    H134895   3.161   2.668   0.525  0.5114  0.4490 -0.5251
 4420TIP3    H234896   3.091   2.538   0.557  0.8646  0.3819 -0.0122
 4421TIP3   OH234897   5.246   0.602   1.642  0.0486 -0.3020 -0.3248
 4421TIP3    H134898   5.229   0.691   1.672  1.4798  0.4641 -1.6546
 4421TIP3    H234899   5.328   0.577   1.686  0.8068 -0.1197 -1.5901
 4422TIP3   OH234900   3.349   3.876   0.991  0.6644  0.5599  0.2310
 4422TIP3    H134901   3.396   3.815   0.934 -0.4421 -0.1568  0.0750
 4422TIP3    H234902   3.364   3.842   1.079  0.7861  0.5868  0.2222
 4423TIP3   OH234903   3.803   2.814   1.549  0.1881 -0.0514 -0.0022
 4423TIP3    H134904   3.731   2.755   1.526  0.3032  0.7699 -2.9100
 4423TIP3    H234905   3.768   2.902   1.533  1.7373  0.3658 -1.4268
 4424TIP3   OH234906   2.354   2.887   2.507  0.4268  0.7935 -0.2662
 4424TIP3    H134907   2.276   2.906   2.559  1.1030  0.6459  0.8355
 4424TIP3    H234908   2.372   2.795   2.523  0.2042  0.5415 -1.3958
 4425TIP3   OH234909   5.008   3.205   2.496 -0.0784 -0.1157  0.3361
 4425TIP3    H134910   5.076   3.255   2.540 -0.6121  1.8744 -0.9599
 4425TIP3    H234911   5.037   3.114   2.502  1.7200  0.4837  1.4403
 4426TIP3   OH234912   5.380   6.804   1.468 -0.1752 -0.2768 -0.0278
 4426TIP3    H134913   5.350   6.789   1.558 -2.1464  0.8502 -0.4407
 4426TIP3    H234914   5.339   6.735   1.417 -2.5481  1.4736 -0.6507
 4427TIP3   OH234915   5.962   0.114   8.774 -0.1785  0.1222 -0.2304
 4427TIP3    H134916   5.918   0.194   8.747  0.3837  0.4231 -0.2546
 4427TIP3    H234917   5.975   0.125   8.868 -0.1020  0.0554 -0.2336
 4428TIP3   OH234918   0.201   2.655   2.618 -0.0172 -0.1650 -0.1156
 4428TIP3    H134919   0.222   2.638   2.709  0.2106 -0.7169 -0.2697
 4428TIP3    H234920   0.117   2.611   2.604  0.0438 -0.2448 -0.2279
 4429TIP3   OH234921   4.698   5.780   2.480  0.6094 -0.5323  0.8852
 4429TIP3    H134922   4.784   5.747   2.506  1.5657  1.5891  0.5634
 4429TIP3    H234923   4.640   5.703   2.486  2.6467 -2.1941  0.3575
 4430TIP3   OH234924   2.124   3.470   8.083  0.4470  0.2544 -0.1880
 4430TIP3    H134925   2.123   3.473   7.987 -0.9815 -0.3809 -0.2158
 4430TIP3    H234926   2.153   3.381   8.104  1.1266  0.5104 -0.0125
 4431TIP3   OH234927   3.486   1.301   2.009  0.1989 -0.0038 -0.1413
 4431TIP3    H134928   3.399   1.311   1.971  0.4654  0.0704 -0.7602
 4431TIP3    H234929   3.473   1.251   2.089 -0.5908  1.3138  0.5753
 4432TIP3   OH234930   5.746   4.723   1.969  0.2854  0.2898 -0.0161
 4432TIP3    H134931   5.792   4.753   1.891 -2.2311  0.3653 -1.5561
 4432TIP3    H234932   5.747   4.628   1.962  0.3293  0.2873  0.0234
 4433TIP3   OH234933   6.685   0.320   2.535  0.3401 -0.6949 -0.2453
 4433TIP3    H134934   6.718   0.389   2.592  0.3576 -1.1371  0.2885
 4433TIP3    H234935   6.611   0.283   2.583  0.7248 -1.4670 -0.2323
 4434TIP3   OH234936   0.861   5.205   2.058 -0.3755  0.1619  0.7244
 4434TIP3    H134937   0.812   5.244   2.131  0.7602  0.0915  1.5600
 4434TIP3    H234938   0.874   5.114   2.083  0.5130  0.2733  0.7265
 4435TIP3   OH234939   0.859   4.446   0.660 -1.0031  0.0358 -0.3854
 4435TIP3    H134940   0.826   4.457   0.571 -2.8910 -0.0299  0.2495
 4435TIP3    H234941   0.793   4.391   0.703 -0.4238  0.5183  1.1965
 4436TIP3   OH234942   5.030   2.918   2.440  0.0117  0.3558 -0.7601
 4436TIP3    H134943   5.082   2.909   2.520  0.0709  1.0345 -0.7203
 4436TIP3    H234944   5.094   2.919   2.369  0.1041  1.6069 -0.6841
 4437TIP3   OH234945   0.551   6.172   3.391  0.3451 -0.4538  0.3266
 4437TIP3    H134946   0.537   6.184   3.485  1.3125  2.1166  0.2186
 4437TIP3    H234947   0.464   6.183   3.352  0.1813 -0.0347  0.8009
 4438TIP3   OH234948   4.162   1.772   1.368 -0.5353 -0.0702 -0.1423
 4438TIP3    H134949   4.070   1.766   1.345 -0.7266 -1.0752  0.7815
 4438TIP3    H234950   4.200   1.830   1.302 -1.6947 -0.1567 -0.9165
 4439TIP3   OH234951   3.868   1.770   1.532  0.1198 -0.2172  0.2467
 4439TIP3    H134952   3.918   1.849   1.554  1.6457 -0.7450 -1.1166
 4439TIP3    H234953   3.934   1.701   1.525 -1.1462 -1.5615  1.0843
 4440TIP3   OH234954   1.482   2.604   1.589 -0.1525  0.3139 -0.0821
 4440TIP3    H134955   1.489   2.638   1.499  1.0905  0.8672  0.1895
 4440TIP3    H234956   1.389   2.585   1.601 -0.2303 -0.4523 -1.7271
 4441TIP3   OH234957   5.404   5.793   2.929 -0.5997 -0.2771 -0.4872
 4441TIP3    H134958   5.344   5.785   3.003  0.1161 -3.1878 -0.0968
 4441TIP3    H234959   5.348   5.817   2.855 -1.5551  1.1385  0.6346
 4442TIP3   OH234960   6.457   2.650   3.714  0.0569 -0.3502  0.1899
 4442TIP3    H134961   6.370   2.678   3.744  0.4826  1.3563 -0.0771
 4442TIP3    H234962   6.447   2.639   3.620  0.0222 -0.6158  0.2231
 4443TIP3   OH234963   4.418   5.099   0.924  0.1904  0.8257 -0.6668
 4443TIP3    H134964   4.448   5.134   0.840  2.7378 -0.8485 -0.5687
 4443TIP3    H234965   4.490   5.116   0.985 -0.0460 -1.1418  0.2488
 4444TIP3   OH234966   4.438   4.267   8.449  0.2833  0.0644 -0.3723
 4444TIP3    H134967   4.452   4.310   8.365  1.7080 -0.2693 -0.3381
 4444TIP3    H234968   4.485   4.183   8.441 -1.4242 -0.9750 -0.0169
 4445TIP3   OH234969   1.380   4.780   2.135 -0.7363  0.1320 -0.1729
 4445TIP3    H134970   1.460   4.739   2.167 -1.2178  1.2471  2.7512
 4445TIP3    H234971   1.396   4.874   2.144 -1.6579  0.4385 -1.4801
 4446TIP3   OH234972   3.806   5.042   2.065 -0.2417  0.2007  0.3616
 4446TIP3    H134973   3.895   5.040   2.029 -0.3013 -2.1156  0.2078
 4446TIP3    H234974   3.803   5.123   2.117  1.7033  0.6834 -0.1839
 4447TIP3   OH234975   5.842   1.862   4.030 -0.4331 -0.3083  0.0743
 4447TIP3    H134976   5.854   1.892   4.120  0.8577 -1.4123  0.3053
 4447TIP3    H234977   5.897   1.920   3.977 -0.1375 -0.5054  0.1658
 4448TIP3   OH234978   0.746   3.398   3.611  0.3073  0.2478 -0.1290
 4448TIP3    H134979   0.662   3.363   3.581  0.5090 -0.5254  0.1970
 4448TIP3    H234980   0.768   3.466   3.547 -0.0667 -0.2574 -0.8044
 4449TIP3   OH234981   1.702   1.851   3.774  0.1404 -0.1843  0.3819
 4449TIP3    H134982   1.760   1.795   3.722  0.5105  0.0538  0.5333
 4449TIP3    H234983   1.730   1.941   3.753  0.7465 -0.0939  1.4920
 4450TIP3   OH234984   6.147   3.549   1.352  0.4152  0.2993  0.3490
 4450TIP3    H134985   6.239   3.573   1.353  0.2529  1.0036 -0.7848
 4450TIP3    H234986   6.131   3.514   1.440  1.7634  0.1037  0.5391
 4451TIP3   OH234987   3.211   0.904   1.445 -0.1638 -0.0954  0.1609
 4451TIP3    H134988   3.235   0.831   1.387 -2.5218 -1.0260  0.2307
 4451TIP3    H234989   3.190   0.862   1.529 -2.8307  0.3852 -0.1587
 4452TIP3   OH234990   1.392   0.012   1.480  0.9182 -0.1347  0.4961
 4452TIP3    H134991   1.407   0.090   1.533 -2.3697  0.9984  0.0178
 4452TIP3    H234992   1.390  -0.060   1.543  1.6099  0.4987  1.2670
 4453TIP3   OH234993   2.059   0.822   1.783  0.1080  0.1608  0.0886
 4453TIP3    H134994   2.076   0.811   1.877  1.7049 -0.0713 -0.2075
 4453TIP3    H234995   2.096   0.907   1.762  2.8460 -1.1455 -0.9481
 4454TIP3   OH234996   6.854   3.082   4.051 -0.7018 -0.4370  0.0443
 4454TIP3    H134997   6.838   3.023   3.977 -0.3646 -0.9224  0.3561
 4454TIP3    H234998   6.784   3.147   4.045 -0.0769  0.1534 -1.3266
 4455TIP3   OH234999   0.752   5.619   3.219 -0.2077 -0.3791  0.3251
 4455TIP3    H135000   0.790   5.706   3.230  1.9786 -1.2738  0.3637
 4455TIP3    H235001   0.717   5.620   3.130  1.2406  0.0575 -0.2734
 4456TIP3   OH235002   3.542   3.776   0.364  0.1865  0.3998 -0.3361
 4456TIP3    H135003   3.504   3.722   0.433  0.8707 -1.4373 -1.3148
 4456TIP3    H235004   3.636   3.775   0.383  0.0276  3.6992  1.2460
 4457TIP3   OH235005   4.931   2.387   2.475  0.1175 -0.0152 -0.3210
 4457TIP3    H135006   4.945   2.308   2.421 -1.6574 -0.3888 -0.3019
 4457TIP3    H235007   5.002   2.446   2.450 -0.1970 -0.4752 -2.5414
 4458TIP3   OH235008   6.483   4.955   2.405  0.2230 -0.0866 -0.2981
 4458TIP3    H135009   6.459   4.864   2.419 -3.4901  1.0535  1.8984
 4458TIP3    H235010   6.428   4.983   2.332  1.2813  0.4674 -0.9044
 4459TIP3   OH235011   4.179   1.261   3.567  0.1994 -0.4405  0.3094
 4459TIP3    H135012   4.248   1.320   3.538  0.6232 -1.6366 -1.2247
 4459TIP3    H235013   4.123   1.316   3.622  1.6699  0.8591  0.5827
 4460TIP3   OH235014   6.392   6.819   0.352  0.5911 -0.2723  0.1372
 4460TIP3    H135015   6.407   6.801   0.260 -0.0308 -0.0733 -0.0065
 4460TIP3    H235016   6.445   6.754   0.398 -0.4577 -1.5176 -0.3558
 4461TIP3   OH235017   4.090   4.806   1.784 -0.3107 -0.0223 -0.4741
 4461TIP3    H135018   4.137   4.745   1.727 -2.2905 -1.8476 -0.3090
 4461TIP3    H235019   4.093   4.765   1.871 -1.9034 -0.0888 -0.4099
 4462TIP3   OH235020   6.812   2.429   3.779 -0.3053  0.0048  0.3146
 4462TIP3    H135021   6.870   2.492   3.821  1.2040 -1.3078  0.2754
 4462TIP3    H235022   6.844   2.423   3.689 -1.2215  0.0820 -0.0301
 4463TIP3   OH235023   6.135   4.023   0.657  0.2471  0.1417  0.1905
 4463TIP3    H135024   6.127   3.958   0.727 -0.0688 -0.2597 -0.2117
 4463TIP3    H235025   6.217   4.069   0.677 -0.3151  0.6765  1.3463
 4464TIP3   OH235026   4.559   6.447   1.322  0.1318 -0.7307 -0.6993
 4464TIP3    H135027   4.637   6.424   1.373  1.5444  1.9472 -1.4654
 4464TIP3    H235028   4.591   6.457   1.233 -1.3620 -0.7349 -1.2636
 4465TIP3   OH235029   3.577   1.429   2.803 -0.1186  0.0269 -0.2168
 4465TIP3    H135030   3.580   1.391   2.715 -0.2328  0.6123 -0.4809
 4465TIP3    H235031   3.484   1.437   2.822 -0.0931 -0.3197  0.0575
 4466TIP3   OH235032   6.821   4.179   8.554  0.1001 -0.0512 -0.4407
 4466TIP3    H135033   6.913   4.175   8.529  0.5533 -0.8993  1.2269
 4466TIP3    H235034   6.778   4.225   8.481  1.8763  0.6643 -1.0869
 4467TIP3   OH235035   5.281   5.541   2.215  0.7115 -0.1520 -0.1843
 4467TIP3    H135036   5.249   5.551   2.125  1.8414 -0.5652 -0.6506
 4467TIP3    H235037   5.261   5.450   2.238 -0.7266  0.3129  0.4616
 4468TIP3   OH235038   2.475   5.052   8.580  0.3127  0.1695  0.5550
 4468TIP3    H135039   2.398   5.010   8.542  1.2261 -2.0072  0.9341
 4468TIP3    H235040   2.463   5.145   8.564 -2.3396 -0.1171  0.5194
 4469TIP3   OH235041   6.269   3.805   0.037 -0.5478  0.5498  0.1576
 4469TIP3    H135042   6.264   3.893  -0.000 -0.1610  0.8683  0.8367
 4469TIP3    H235043   6.290   3.749  -0.037  2.8105  1.4951  0.2188
 4470TIP3   OH235044   2.808   0.824   1.540  0.7161  0.2765  0.1443
 4470TIP3    H135045   2.788   0.730   1.538  3.7485 -0.4648  0.5082
 4470TIP3    H235046   2.751   0.861   1.473 -0.2715 -1.8794 -0.3072
 4471TIP3   OH235047   4.527   2.329   1.729  0.6508  0.4301 -0.0871
 4471TIP3    H135048   4.579   2.250   1.714 -2.2603 -1.1796 -2.8651
 4471TIP3    H235049   4.568   2.396   1.674  1.3519  0.0205 -0.0788
 4472TIP3   OH235050   6.411   6.583   2.816 -0.2542 -0.9494 -0.3382
 4472TIP3    H135051   6.485   6.604   2.759 -0.1728 -1.4214 -0.4133
 4472TIP3    H235052   6.419   6.643   2.890 -0.1759 -0.5532 -0.6656
 4473TIP3   OH235053   1.289   1.785   1.485  0.4990  0.4665 -0.2678
 4473TIP3    H135054   1.348   1.710   1.485 -1.7643 -1.5174  1.6754
 4473TIP3    H235055   1.309   1.830   1.567 -2.5184 -2.0574  2.1126
 4474TIP3   OH235056   6.377   3.103   1.726  0.0292 -0.2363 -0.5756
 4474TIP3    H135057   6.369   3.023   1.675 -0.3901  0.1895 -1.1857
 4474TIP3    H235058   6.338   3.171   1.671  2.7587  0.9164 -1.2195
 4475TIP3   OH235059   6.452   0.285   4.417 -0.2077  0.3940  0.0579
 4475TIP3    H135060   6.547   0.280   4.413 -0.1116  2.0886 -1.1759
 4475TIP3    H235061   6.422   0.198   4.392  1.0543  0.6360 -2.7894
 4476TIP3   OH235062   0.192   0.797   1.575  0.1748  0.7634  0.1804
 4476TIP3    H135063   0.161   0.866   1.516  0.2965  1.4519  0.9131
 4476TIP3    H235064   0.280   0.777   1.545  0.1123  0.8757 -0.0781
 4477TIP3   OH235065   1.083   6.478   2.803 -0.3920 -0.7251 -0.0065
 4477TIP3    H135066   1.109   6.388   2.824  1.3995  0.0502  1.3339
 4477TIP3    H235067   1.147   6.506   2.737 -1.1577 -0.5350 -0.6749
 4478TIP3   OH235068   6.530   0.282   1.814  0.2289 -0.0771  0.0018
 4478TIP3    H135069   6.469   0.355   1.825 -1.4729 -1.2388 -1.1963
 4478TIP3    H235070   6.579   0.279   1.896  0.1273  2.1682  0.2178
 4479TIP3   OH235071   4.713   0.765   8.680  0.4184 -0.4052 -0.2586
 4479TIP3    H135072   4.711   0.756   8.775 -0.0865 -1.5102 -0.3669
 4479TIP3    H235073   4.647   0.832   8.660  1.1581  0.4888  0.2228
 4480TIP3   OH235074   4.825   3.586   0.104  0.0475 -0.3170  0.8726
 4480TIP3    H135075   4.786   3.517   0.159 -2.0483 -0.7297 -0.9621
 4480TIP3    H235076   4.763   3.596   0.032  1.4378  1.9535 -0.1029
 4481TIP3   OH235077   4.570   4.691   2.744 -0.0370  0.4579  0.6714
 4481TIP3    H135078   4.530   4.719   2.826 -0.9521 -0.6888  0.6502
 4481TIP3    H235079   4.641   4.753   2.729 -0.1632  0.9749  2.0708
 4482TIP3   OH235080   4.981   4.721   2.006 -0.6965  0.0057 -0.1833
 4482TIP3    H135081   5.023   4.806   2.015  0.0259 -0.1328 -1.8742
 4482TIP3    H235082   5.052   4.658   2.021 -1.6918 -0.4662  3.6050
 4483TIP3   OH235083   5.063   6.443   0.209 -0.4218  0.3104 -0.0668
 4483TIP3    H135084   5.157   6.436   0.191 -0.3374  0.3333  0.3723
 4483TIP3    H235085   5.040   6.359   0.248 -0.7243  0.0489 -0.7844
 4484TIP3   OH235086   6.238   6.187   8.689 -0.3289 -0.1174  0.6790
 4484TIP3    H135087   6.216   6.099   8.721  0.0964 -0.8281 -0.8820
 4484TIP3    H235088   6.154   6.223   8.661 -0.3235 -0.6018  0.0032
 4485TIP3   OH235089   6.754   0.688   1.306  0.0437 -0.3046 -0.0322
 4485TIP3    H135090   6.766   0.594   1.293  2.5559  0.0953 -1.2068
 4485TIP3    H235091   6.799   0.707   1.388  0.9560  0.0829 -0.6048
 4486TIP3   OH235092   2.809   1.157   8.478  0.4313 -0.2081 -0.7707
 4486TIP3    H135093   2.739   1.166   8.414 -0.2980  3.4130  0.3064
 4486TIP3    H235094   2.864   1.234   8.464  1.2343 -0.2370  1.7929
 4487TIP3   OH235095   0.168   0.232   3.952 -0.0727 -0.6370 -0.6229
 4487TIP3    H135096   0.218   0.164   3.907 -1.6383 -2.0531 -0.2906
 4487TIP3    H235097   0.088   0.189   3.981 -1.5556  1.5552 -1.1836
 4488TIP3   OH235098   5.195   5.335   0.645 -0.3768  0.6580 -0.0199
 4488TIP3    H135099   5.120   5.394   0.659 -0.5609  0.1971  0.9982
 4488TIP3    H235100   5.268   5.379   0.688 -0.6752 -0.1854  1.3905
 4489TIP3   OH235101   5.737   6.606   8.481  0.3168 -0.2529 -0.0015
 4489TIP3    H135102   5.707   6.666   8.413 -1.3939 -1.2107 -0.1528
 4489TIP3    H235103   5.664   6.545   8.494  0.8234 -0.4915  2.2591
 4490TIP3   OH235104   4.543   1.467   0.930  0.2715 -0.3906 -0.4409
 4490TIP3    H135105   4.582   1.383   0.956  1.6542 -0.3498 -2.2408
 4490TIP3    H235106   4.600   1.533   0.969 -1.2472 -0.2093  1.6225
 4491TIP3   OH235107   4.801   4.048   3.736 -0.3359 -0.6048  0.4672
 4491TIP3    H135108   4.832   3.968   3.778  0.3973 -0.6410 -0.1140
 4491TIP3    H235109   4.729   4.020   3.680 -2.8158 -0.2566  3.2332
 4492TIP3   OH235110   3.053   1.393   3.462 -0.1320  0.2465  0.5069
 4492TIP3    H135111   3.106   1.356   3.533  0.3478 -0.0431  0.0090
 4492TIP3    H235112   3.101   1.471   3.435  0.2876 -0.2450 -0.2288
 4493TIP3   OH235113   4.858   1.615   2.107  0.1511  0.6024  0.4650
 4493TIP3    H135114   4.937   1.654   2.071 -0.2754  3.1393  2.0694
 4493TIP3    H235115   4.793   1.623   2.037  0.7985  0.2585 -0.1818
 4494TIP3   OH235116   2.313   5.831   0.204  0.3146  0.6395  0.3425
 4494TIP3    H135117   2.346   5.917   0.232 -0.4987  1.1574 -0.2443
 4494TIP3    H235118   2.303   5.840   0.109 -0.3017  0.0761  0.3546
 4495TIP3   OH235119   0.223   6.371   3.573  0.3377  0.0442 -0.1643
 4495TIP3    H135120   0.248   6.322   3.652  1.4816  1.2348  0.2404
 4495TIP3    H235121   0.278   6.334   3.504  0.5517  0.1430 -0.0478
 4496TIP3   OH235122   5.375   1.182   4.353 -0.1732  0.1666 -0.2484
 4496TIP3    H135123   5.408   1.254   4.406 -3.2295  0.9871  0.7310
 4496TIP3    H235124   5.313   1.223   4.292 -1.7770 -1.5201  0.1492
 4497TIP3   OH235125   1.537   6.043   2.844 -0.3085  0.3887 -0.4769
 4497TIP3    H135126   1.510   6.132   2.823  0.8022  0.6763 -0.7786
 4497TIP3    H235127   1.460   6.002   2.882 -0.5431  1.8098  0.6434
 4498TIP3   OH235128   2.466   4.267   1.576  0.0318  0.3154 -0.0716
 4498TIP3    H135129   2.443   4.186   1.622 -1.0901  0.2292 -0.7574
 4498TIP3    H235130   2.382   4.310   1.559  0.3504  0.1656 -2.3332
 4499TIP3   OH235131   5.600   3.093   3.922  0.2358 -0.8428 -0.0146
 4499TIP3    H135132   5.615   3.108   4.016  2.7092 -0.4862 -0.4142
 4499TIP3    H235133   5.564   3.176   3.890  1.2936 -0.2497  0.2761
 4500TIP3   OH235134   5.443   3.773   1.071  0.6387  0.2544  0.3433
 4500TIP3    H135135   5.521   3.720   1.088  0.9569  0.9318  1.0452
 4500TIP3    H235136   5.412   3.742   0.985  0.7648 -1.1017  0.7566
 4501TIP3   OH235137   4.002   0.017   0.802 -0.2649  0.4352 -0.3744
 4501TIP3    H135138   4.094  -0.010   0.795  0.1878  1.3578  1.4475
 4501TIP3    H235139   3.992   0.083   0.733  0.7311  1.0382  0.0299
 4502TIP3   OH235140   2.830   2.604   1.607 -0.4314 -0.2449  0.2084
 4502TIP3    H135141   2.795   2.569   1.525 -0.6722  0.8976 -0.1953
 4502TIP3    H235142   2.870   2.688   1.582  0.9448 -0.6440  0.9825
 4503TIP3   OH235143   0.116   5.438   0.549  0.0585  0.2080 -0.2649
 4503TIP3    H135144   0.027   5.425   0.516 -0.3953  0.2975  0.8779
 4503TIP3    H235145   0.161   5.484   0.478 -0.5418 -0.6396 -1.2204
 4504TIP3   OH235146   6.040   2.784   0.477 -0.3558  0.0850  0.2514
 4504TIP3    H135147   6.034   2.693   0.504 -0.1248  0.1476  0.5234
 4504TIP3    H235148   6.053   2.781   0.382 -1.5726 -0.1240  0.0763
 4505TIP3   OH235149   6.583   3.248   1.470  0.8006  0.4641  0.1121
 4505TIP3    H135150   6.669   3.232   1.432 -0.4136  0.3837 -2.8681
 4505TIP3    H235151   6.531   3.171   1.448 -0.9066  1.8526 -1.0462
 4506TIP3   OH235152   1.600   0.709   2.357  0.1436 -0.0325  0.0481
 4506TIP3    H135153   1.559   0.780   2.308 -0.6731 -1.5668 -1.6612
 4506TIP3    H235154   1.557   0.630   2.324  1.2085 -1.3600  1.6434
 4507TIP3   OH235155   4.492   4.051   3.931 -0.0061 -0.3116  0.7829
 4507TIP3    H135156   4.516   3.964   3.961 -1.6985 -0.7457  0.9662
 4507TIP3    H235157   4.477   4.101   4.011  0.3969 -0.0145  0.6741
 4508TIP3   OH235158   3.967   4.496   2.320  0.1746 -0.4858  0.1076
 4508TIP3    H135159   4.005   4.563   2.377 -0.7566 -0.2267  0.4261
 4508TIP3    H235160   3.972   4.415   2.371  0.0499 -0.4003  0.2553
 4509TIP3   OH235161   3.460   5.182   0.413  0.1441 -0.1433 -0.3846
 4509TIP3    H135162   3.531   5.221   0.362  0.5273 -0.7558 -0.3256
 4509TIP3    H235163   3.503   5.116   0.467 -0.0806  1.2161  1.5400
 4510TIP3   OH235164   1.299   1.041   8.287  0.3605  0.3277 -0.3587
 4510TIP3    H135165   1.374   1.101   8.282  1.4360 -0.9285  0.1446
 4510TIP3    H235166   1.223   1.098   8.279  1.3607  1.5616 -1.6792
 4511TIP3   OH235167   4.306   1.613   0.849 -0.3818  0.1295  0.2221
 4511TIP3    H135168   4.347   1.531   0.878  1.8544  0.9862 -0.2830
 4511TIP3    H235169   4.374   1.679   0.861 -1.5602  1.6250 -0.9296
 4512TIP3   OH235170   3.393   2.660   1.763 -0.3760  0.0411 -0.6875
 4512TIP3    H135171   3.314   2.632   1.715  0.5252 -0.3468 -2.0052
 4512TIP3    H235172   3.439   2.578   1.783 -1.1224  0.1146  1.6394
 4513TIP3   OH235173   4.479   4.833   1.192  0.3132  0.3651 -0.0336
 4513TIP3    H135174   4.495   4.924   1.167  0.9592 -0.0720 -1.2895
 4513TIP3    H235175   4.564   4.800   1.220  0.2623 -0.0778 -0.3823
 4514TIP3   OH235176   2.559   6.444   1.790  0.0827 -0.1290 -0.2395
 4514TIP3    H135177   2.504   6.368   1.768  0.8178 -0.2008 -1.9868
 4514TIP3    H235178   2.648   6.408   1.798  0.0304  0.0842  1.9654
 4515TIP3   OH235179   5.839   5.509   1.572  0.3511  0.3058  0.6909
 4515TIP3    H135180   5.821   5.590   1.525 -0.9534 -0.3220  0.0542
 4515TIP3    H235181   5.932   5.514   1.595  0.7989  1.0613 -1.1231
 4516TIP3   OH235182   2.764   0.782   0.848 -0.4861 -0.6318 -0.1906
 4516TIP3    H135183   2.677   0.781   0.886 -0.1307  1.6838  0.8730
 4516TIP3    H235184   2.823   0.795   0.923  0.5686  0.0664 -1.1055
 4517TIP3   OH235185   3.874   4.146   0.830 -0.3634 -0.3564 -0.1393
 4517TIP3    H135186   3.842   4.160   0.741  0.9330 -0.6943 -0.6766
 4517TIP3    H235187   3.807   4.092   0.872 -0.3782 -1.2860 -1.3130
 4518TIP3   OH235188   2.454   6.172   3.264  0.2201  0.5315  0.4302
 4518TIP3    H135189   2.446   6.255   3.310  0.4711  1.0969 -0.5104
 4518TIP3    H235190   2.365   6.135   3.265 -0.6831  2.3688 -1.9106
 4519TIP3   OH235191   4.141   0.789   2.449 -0.3481 -0.7451  0.2612
 4519TIP3    H135192   4.229   0.794   2.411  0.3098 -0.1014  1.7719
 4519TIP3    H235193   4.096   0.867   2.417  0.2085 -0.1954  0.7809
 4520TIP3   OH235194   0.878   5.336   2.692  0.5368 -0.0321 -0.9066
 4520TIP3    H135195   0.831   5.394   2.631 -3.2801 -0.2531  1.4575
 4520TIP3    H235196   0.843   5.249   2.673 -1.3039 -0.0252  1.7949
 4521TIP3   OH235197   5.030   0.368   0.513 -0.5722  0.3484  0.0966
 4521TIP3    H135198   4.950   0.348   0.465  0.7134  1.1981 -2.5856
 4521TIP3    H235199   5.080   0.287   0.510 -1.2787 -0.2019  1.8277
 4522TIP3   OH235200   0.077   2.563   1.100  1.0773 -0.4098 -0.2118
 4522TIP3    H135201   0.171   2.552   1.108  1.1104  0.0839  0.0836
 4522TIP3    H235202   0.057   2.641   1.151  0.6053 -0.1143 -0.8358
 4523TIP3   OH235203   2.579   1.092   2.477 -0.0055 -0.2269  0.0209
 4523TIP3    H135204   2.607   1.179   2.503 -0.9133  0.1180 -0.1129
 4523TIP3    H235205   2.512   1.107   2.411 -0.1553 -1.0274 -0.0206
 4524TIP3   OH235206   1.144   2.152   3.400  0.2128  0.0975  0.3005
 4524TIP3    H135207   1.085   2.222   3.431 -0.0845  0.3856 -0.8639
 4524TIP3    H235208   1.098   2.071   3.422 -0.9860  0.3262 -1.2046
 4525TIP3   OH235209   5.619   0.378   2.903 -0.5766  0.3344  0.2716
 4525TIP3    H135210   5.688   0.437   2.872  0.5543 -0.3341  1.4258
 4525TIP3    H235211   5.659   0.291   2.900 -1.7366 -0.2047 -0.0252
 4526TIP3   OH235212   2.883   4.646   8.571  0.0971 -0.3013 -0.7562
 4526TIP3    H135213   2.926   4.561   8.580 -1.5031 -1.0391  0.2252
 4526TIP3    H235214   2.934   4.691   8.504  1.9752 -1.3856 -0.1334
 4527TIP3   OH235215   1.983   5.509   0.795 -0.1471  0.1974  0.0087
 4527TIP3    H135216   1.927   5.433   0.783  0.0315  0.1084 -0.2647
 4527TIP3    H235217   2.022   5.524   0.709  0.9821 -0.3118  0.4115
 4528TIP3   OH235218   4.771   3.897   0.149  0.0950  0.1288  0.3533
 4528TIP3    H135219   4.818   3.952   0.212 -0.6272 -1.2904  2.2437
 4528TIP3    H235220   4.810   3.810   0.160  1.1520  0.1596 -2.4991
 4529TIP3   OH235221   6.435   2.172   1.263 -0.3085 -0.3747  0.1900
 4529TIP3    H135222   6.397   2.256   1.237 -0.9719 -0.7187  0.0279
 4529TIP3    H235223   6.367   2.108   1.244  0.4892 -1.0588 -0.4355
 4530TIP3   OH235224   4.538   5.549   2.683  0.0749 -0.0833 -0.0943
 4530TIP3    H135225   4.466   5.601   2.648 -0.1918  1.1471  2.0808
 4530TIP3    H235226   4.495   5.470   2.716  0.0299 -0.2703 -0.5859
 4531TIP3   OH235227   5.958   3.990   1.877  0.5034  0.0338 -0.2642
 4531TIP3    H135228   5.889   3.947   1.827  0.8980 -1.3346  0.3246
 4531TIP3    H235229   5.951   4.082   1.854 -2.5735  0.2288  0.9574
 4532TIP3   OH235230   5.177   2.766   1.503 -0.1250 -0.9442 -0.3239
 4532TIP3    H135231   5.090   2.742   1.472 -0.2346 -3.1146  1.4032
 4532TIP3    H235232   5.228   2.783   1.424 -2.1422  0.6607 -1.3616
 4533TIP3   OH235233   0.245   6.179   0.652  0.6396  0.7690 -0.7403
 4533TIP3    H135234   0.223   6.252   0.710  0.3007  0.4491 -0.4602
 4533TIP3    H235235   0.338   6.161   0.670  0.4096  0.3541  0.0624
 4534TIP3   OH235236   0.216   1.346   3.076  0.1239 -0.4149  0.0617
 4534TIP3    H135237   0.156   1.276   3.103 -0.7215  0.4634  0.5217
 4534TIP3    H235238   0.237   1.326   2.985  0.5915 -1.7391  0.4306
 4535TIP3   OH235239   6.670   4.638   1.520  0.1017 -0.1605 -0.2173
 4535TIP3    H135240   6.581   4.673   1.530 -0.7157 -1.8743 -1.0719
 4535TIP3    H235241   6.695   4.663   1.431  0.6364  0.5929  0.1291
 4536TIP3   OH235242   5.595   1.006   0.271 -0.2121 -0.0216  0.4107
 4536TIP3    H135243   5.662   0.943   0.297 -0.0116 -0.3774 -0.9341
 4536TIP3    H235244   5.584   1.062   0.348 -0.6069 -1.8606  1.7693
 4537TIP3   OH235245   1.670   1.195   3.201  0.2616  0.0829  0.8738
 4537TIP3    H135246   1.733   1.149   3.145  0.8459  0.9847  0.7571
 4537TIP3    H235247   1.715   1.203   3.285 -1.2807 -2.8109  2.1069
 4538TIP3   OH235248   2.386   3.509   3.709 -0.4695 -0.2511  0.1086
 4538TIP3    H135249   2.414   3.600   3.722  0.2428 -0.4725  0.1777
 4538TIP3    H235250   2.428   3.461   3.780 -0.2401 -0.7562 -0.3659
 4539TIP3   OH235251   5.904   4.459   2.881  0.3717 -0.0262 -0.1125
 4539TIP3    H135252   5.945   4.403   2.947  0.3615 -0.1107 -0.1789
 4539TIP3    H235253   5.818   4.419   2.865  0.3812 -0.0151 -0.1902
 4540TIP3   OH235254   2.285   2.783   1.521  0.3467  0.1620  0.5446
 4540TIP3    H135255   2.317   2.693   1.535  0.8971 -0.1551 -2.1532
 4540TIP3    H235256   2.194   2.781   1.549  0.4683 -1.1206  0.9079
 4541TIP3   OH235257   0.503   2.071   1.092  0.3890 -1.0508  0.4759
 4541TIP3    H135258   0.408   2.068   1.086  0.3928 -0.4340  0.0071
 4541TIP3    H235259   0.532   1.985   1.061 -0.0191 -1.3493  0.9045
 4542TIP3   OH235260   0.486   0.888   0.732 -0.5155 -0.1634  0.2703
 4542TIP3    H135261   0.569   0.934   0.724 -0.0100 -0.9071  1.1408
 4542TIP3    H235262   0.463   0.895   0.825 -1.5610  0.2490  0.0004
 4543TIP3   OH235263   4.242   3.205   3.279  0.1153 -0.1726 -0.6762
 4543TIP3    H135264   4.147   3.205   3.284  0.1263  0.7976 -0.2467
 4543TIP3    H235265   4.271   3.174   3.365  0.1881 -1.0146 -0.9992
 4544TIP3   OH235266   5.320   5.168   0.163  0.2201 -0.0913  0.0262
 4544TIP3    H135267   5.287   5.211   0.242 -1.6843 -0.8318 -0.3123
 4544TIP3    H235268   5.249   5.177   0.100  0.0341 -2.9902 -0.3108
 4545TIP3   OH235269   5.510   1.993   4.038  0.0370  0.2551  0.2360
 4545TIP3    H135270   5.547   1.954   4.118  1.3896 -1.5270 -1.1605
 4545TIP3    H235271   5.532   2.086   4.044  0.2051  0.1365  1.8751
 4546TIP3   OH235272   0.570   2.680   0.280 -0.1828 -0.4109 -0.1194
 4546TIP3    H135273   0.504   2.637   0.225 -0.1591 -0.5498 -0.0393
 4546TIP3    H235274   0.571   2.771   0.249  0.0699 -0.5683 -0.5728
 4547TIP3   OH235275   0.183   5.673   1.164 -0.2931 -0.1117  0.4553
 4547TIP3    H135276   0.130   5.633   1.233  1.2763 -1.2042  1.0939
 4547TIP3    H235277   0.226   5.599   1.120 -3.2091  0.2326 -3.5609
 4548TIP3   OH235278   4.915   4.239   3.547  0.4215  0.3520  0.3397
 4548TIP3    H135279   4.967   4.177   3.497 -3.2260 -1.5348 -1.5654
 4548TIP3    H235280   4.882   4.189   3.621 -0.8807  0.5755 -0.0605
 4549TIP3   OH235281   1.774   5.152   0.002 -0.1034 -0.1299 -0.6093
 4549TIP3    H135282   1.834   5.181   0.071 -0.2971  0.8838 -0.8496
 4549TIP3    H235283   1.744   5.066   0.031  0.3838 -0.0315  0.2103
 4550TIP3   OH235284   0.393   2.347   3.322  0.1345  0.1828 -0.6124
 4550TIP3    H135285   0.463   2.336   3.386  0.4611  0.0120 -0.9931
 4550TIP3    H235286   0.423   2.298   3.245 -0.2982  0.2984 -0.8587
 4551TIP3   OH235287   0.398   0.332   1.131 -0.1269  0.4220 -0.4895
 4551TIP3    H135288   0.467   0.279   1.171 -0.2508 -0.0029 -0.8301
 4551TIP3    H235289   0.337   0.268   1.093 -0.4923  0.8001 -0.5485
 4552TIP3   OH235290   5.787   5.010   0.155  0.1359 -0.1886  0.3874
 4552TIP3    H135291   5.699   5.024   0.120  0.6916  0.8749 -0.6840
 4552TIP3    H235292   5.845   5.032   0.082  1.2866 -1.6450  0.8260
 4553TIP3   OH235293   2.212   5.190   3.936  0.5683  0.5172  0.1633
 4553TIP3    H135294   2.175   5.140   3.864 -1.2306 -1.0322  2.0377
 4553TIP3    H235295   2.261   5.125   3.987  1.1003  1.4056  0.8091
 4554TIP3   OH235296   4.551   2.499   4.082  0.1153  0.1112  0.3853
 4554TIP3    H135297   4.558   2.403   4.087  0.4608  0.1185  0.1430
 4554TIP3    H235298   4.617   2.531   4.143  0.0028  0.1939  0.4628
 4555TIP3   OH235299   5.299   3.614   3.192 -0.0955 -0.5823 -0.2575
 4555TIP3    H135300   5.360   3.654   3.131 -1.5573  1.6386 -0.3784
 4555TIP3    H235301   5.353   3.583   3.264  1.3477 -0.5420 -1.2958
 4556TIP3   OH235302   0.513   2.069   2.865  0.3224  0.1754 -0.9255
 4556TIP3    H135303   0.594   2.119   2.878  1.6938 -1.3690 -2.9846
 4556TIP3    H235304   0.502   2.064   2.770 -1.9609 -0.0754 -0.7037
 4557TIP3   OH235305   5.057   4.681   0.095  0.3298  0.1921 -0.5487
 4557TIP3    H135306   4.986   4.717   0.042 -2.4840  1.4680  3.5911
 4557TIP3    H235307   5.131   4.740   0.081 -1.0930  1.8956 -1.1588
 4558TIP3   OH235308   3.694   4.124   3.487  0.0474 -0.7538 -0.3945
 4558TIP3    H135309   3.758   4.191   3.464  2.8852 -1.8846  3.1708
 4558TIP3    H235310   3.650   4.158   3.565  0.1250 -2.1880  0.3094
 4559TIP3   OH235311   0.170   3.194   8.528  0.3725 -0.5655 -0.3712
 4559TIP3    H135312   0.180   3.264   8.593 -1.5184  0.3129 -0.9540
 4559TIP3    H235313   0.229   3.220   8.457  0.3883 -0.0663 -0.1852
 4560TIP3   OH235314   2.304   2.306   0.526 -0.4772  0.4288 -0.0229
 4560TIP3    H135315   2.250   2.269   0.457  0.9546 -0.3775 -0.7765
 4560TIP3    H235316   2.350   2.379   0.485  0.5008 -0.1505 -0.0131
 4561TIP3   OH235317   2.614   6.156   2.087  0.0953 -0.5342 -0.2168
 4561TIP3    H135318   2.641   6.171   1.996 -1.9468  2.1682 -0.4922
 4561TIP3    H235319   2.548   6.087   2.081 -2.6796  2.0325 -1.4213
 4562TIP3   OH235320   0.892   5.781   1.284  0.4898 -0.1610  0.6155
 4562TIP3    H135321   0.971   5.829   1.260 -0.7216  0.9276 -1.4203
 4562TIP3    H235322   0.869   5.731   1.205  0.1270 -1.9048  1.7641
 4563TIP3   OH235323   2.955   2.526   8.398  0.1011  0.5503 -0.3519
 4563TIP3    H135324   2.892   2.523   8.326  0.7612 -1.0613 -0.9048
 4563TIP3    H235325   3.036   2.493   8.360  0.9575  1.3943  0.6824
 4564TIP3   OH235326   5.864   1.857   0.661  0.0636  0.4767  0.4654
 4564TIP3    H135327   5.818   1.889   0.739  0.5688  2.1122  0.1283
 4564TIP3    H235328   5.872   1.933   0.604 -0.0619 -0.6261 -1.1052
 4565TIP3   OH235329   1.362   5.561   8.745 -0.1613  0.0043 -0.3152
 4565TIP3    H135330   1.395   5.633   8.800  1.3103 -1.4876  0.8710
 4565TIP3    H235331   1.408   5.571   8.662 -1.0747  1.2570 -0.7010
 4566TIP3   OH235332   5.633   4.950   0.964  0.7038 -0.0466 -0.6376
 4566TIP3    H135333   5.621   4.856   0.978  2.6619 -0.1350  0.9790
 4566TIP3    H235334   5.696   4.976   1.032  0.4453  2.3771 -1.2468
 4567TIP3   OH235335   0.783   5.072   2.660  0.0888  0.1336  0.1731
 4567TIP3    H135336   0.740   4.989   2.645 -1.1765  0.9430 -0.8391
 4567TIP3    H235337   0.875   5.056   2.636 -0.1538 -0.9279 -0.0904
 4568TIP3   OH235338   3.521   5.767   0.105  0.0217  0.7825 -0.0859
 4568TIP3    H135339   3.439   5.724   0.080  0.6963 -0.7276  0.1808
 4568TIP3    H235340   3.575   5.764   0.025  0.5089  0.0275  0.2570
 4569TIP3   OH235341   5.891   3.560   2.882  0.0819 -0.0380  0.5755
 4569TIP3    H135342   5.847   3.524   2.959 -1.5065  0.5130 -0.0354
 4569TIP3    H235343   5.848   3.516   2.808  0.2686  0.8248 -0.0534
 4570TIP3   OH235344   5.950   0.653   2.481 -0.3018 -0.0101 -0.5356
 4570TIP3    H135345   5.987   0.665   2.568 -0.0065  1.1293 -0.7969
 4570TIP3    H235346   6.023   0.620   2.428 -0.5903 -1.1174 -0.2778
 4571TIP3   OH235347   3.176   0.632   3.676 -0.5496  0.1569 -1.2887
 4571TIP3    H135348   3.103   0.694   3.675 -1.8948 -1.2669  0.9517
 4571TIP3    H235349   3.138   0.551   3.708  2.1294 -0.4701  0.6540
 4572TIP3   OH235350   5.097   6.360   3.422  0.5929  0.0649  0.0829
 4572TIP3    H135351   5.143   6.282   3.454  0.1108  0.0585  0.7838
 4572TIP3    H235352   5.006   6.331   3.409  0.5971  0.2893 -0.5002
 4573TIP3   OH235353   4.750   0.401   3.590 -0.1720 -0.0547 -0.4403
 4573TIP3    H135354   4.695   0.327   3.562 -2.5067  1.5465 -0.3738
 4573TIP3    H235355   4.761   0.389   3.684 -1.5405  0.2333 -0.2161
 4574TIP3   OH235356   1.914   0.666   0.939 -0.0702 -0.3989  0.6489
 4574TIP3    H135357   1.904   0.578   0.904  0.4457 -1.4504  2.9571
 4574TIP3    H235358   2.004   0.691   0.917  0.4945 -1.3466  1.7313
 4575TIP3   OH235359   5.812   0.626   1.023 -0.4349 -0.8156 -0.4172
 4575TIP3    H135360   5.816   0.532   1.001  0.7326 -0.8978  0.0800
 4575TIP3    H235361   5.728   0.655   0.987  0.0626 -1.5995 -2.3406
 4576TIP3   OH235362   0.483   6.140   2.754  0.1068  0.1446 -0.0937
 4576TIP3    H135363   0.441   6.071   2.805  0.2546 -0.5647 -0.9024
 4576TIP3    H235364   0.574   6.140   2.784 -0.3950  1.6440  1.6177
 4577TIP3   OH235365   4.164   3.008   3.009  0.3240 -1.0792  0.6073
 4577TIP3    H135366   4.232   2.986   3.073 -0.1336 -1.0753  1.1048
 4577TIP3    H235367   4.127   2.923   2.985  0.6873 -1.1045  0.1255
 4578TIP3   OH235368   3.888   2.657   2.350 -0.0925  0.1945 -0.0777
 4578TIP3    H135369   3.868   2.744   2.316  0.1542 -0.0561 -0.8832
 4578TIP3    H235370   3.853   2.597   2.284  3.9342 -0.2768 -2.0613
 4579TIP3   OH235371   3.671   5.055   3.358  0.3475 -0.3789 -0.1262
 4579TIP3    H135372   3.693   4.971   3.399 -0.2877  0.1448  1.3431
 4579TIP3    H235373   3.751   5.107   3.365  0.3798 -0.4502  0.0570
 4580TIP3   OH235374   5.653   3.930   0.300 -0.0825  0.0468  0.5110
 4580TIP3    H135375   5.654   3.898   0.210 -0.6344  0.3976  0.3763
 4580TIP3    H235376   5.716   3.875   0.346 -0.7705 -1.0138  0.2170
 4581TIP3   OH235377   0.987   0.673   1.386  0.7047 -0.2218  0.3502
 4581TIP3    H135378   1.041   0.705   1.314 -0.9972  0.3760 -0.7015
 4581TIP3    H235379   0.982   0.579   1.371  1.0586 -0.2216  0.1983
 4582TIP3   OH235380   3.756   5.483   3.339 -0.2641  0.2912 -0.1725
 4582TIP3    H135381   3.805   5.546   3.392  0.3666 -0.1635 -0.1978
 4582TIP3    H235382   3.793   5.492   3.251 -0.0965 -0.1736 -0.1548
 4583TIP3   OH235383   4.300   5.114   8.067 -0.4287 -0.2281  0.1590
 4583TIP3    H135384   4.309   5.044   8.002  2.2171 -1.2131  1.4304
 4583TIP3    H235385   4.355   5.185   8.034  0.3749 -0.4687  0.9455
 4584TIP3   OH235386   5.981   6.537   1.599  0.0692 -0.1765 -0.1096
 4584TIP3    H135387   5.911   6.563   1.539 -0.8751 -0.0537  0.9977
 4584TIP3    H235388   6.028   6.467   1.554 -1.2155 -0.7512 -0.6022
 4585TIP3   OH235389   6.758   3.009   0.514 -0.0071  0.3081  0.7059
 4585TIP3    H135390   6.824   3.078   0.503  0.8523 -0.4187  1.1912
 4585TIP3    H235391   6.691   3.030   0.449  0.8519  0.8913 -0.0180
 4586TIP3   OH235392   2.197   0.059   8.445  0.4415 -0.3414  0.6778
 4586TIP3    H135393   2.177   0.019   8.361  2.8396 -0.3992  0.0851
 4586TIP3    H235394   2.215   0.151   8.425  1.7660 -0.5151  0.9709
 4587TIP3   OH235395   3.255   2.741   2.183  0.0770  0.3970 -0.3265
 4587TIP3    H135396   3.264   2.755   2.278  0.7591 -0.2281 -0.2810
 4587TIP3    H235397   3.255   2.828   2.145  2.6012  0.6495  0.0418
 4588TIP3   OH235398   0.117   0.574   3.415  0.0931  0.0857 -0.1871
 4588TIP3    H135399   0.072   0.650   3.453  2.3941  1.7640 -0.5667
 4588TIP3    H235400   0.131   0.515   3.489  0.0823  1.0024  0.5601
 4589TIP3   OH235401   0.120   5.870   1.670  0.0746  0.0767  0.1594
 4589TIP3    H135402   0.207   5.909   1.667 -0.6974  1.8582 -0.0468
 4589TIP3    H235403   0.060   5.944   1.666 -1.4627 -1.0265  1.4369
 4590TIP3   OH235404   2.411   3.192   0.278 -0.2863  0.3166 -0.1231
 4590TIP3    H135405   2.347   3.216   0.211 -0.1892  1.7001  0.2440
 4590TIP3    H235406   2.473   3.265   0.278  0.7641 -0.5707  0.1693
 4591TIP3   OH235407   6.528   5.670   3.605  0.0724  0.6082 -0.8890
 4591TIP3    H135408   6.498   5.717   3.683 -1.0370 -0.3924 -0.6825
 4591TIP3    H235409   6.453   5.618   3.578  1.5535 -1.9156 -0.4525
 4592TIP3   OH235410   5.018   3.531   1.196 -0.7834  0.2995  0.1583
 4592TIP3    H135411   4.954   3.508   1.128 -1.7928  0.9751  0.8575
 4592TIP3    H235412   4.965   3.565   1.268  0.2524 -0.7017  1.4286
 4593TIP3   OH235413   4.128   6.703   0.168  0.6022  0.0530 -0.4696
 4593TIP3    H135414   4.091   6.639   0.106 -1.0512  0.0151  0.5060
 4593TIP3    H235415   4.131   6.785   0.119  0.6155 -0.2787 -1.0316
 4594TIP3   OH235416   3.332   2.850   2.460 -0.0589  0.9231 -0.1669
 4594TIP3    H135417   3.300   2.839   2.549  0.7043  0.5098  0.0564
 4594TIP3    H235418   3.423   2.822   2.462 -0.5365 -0.9711 -1.4914
 4595TIP3   OH235419   2.663   0.560   1.449  0.1212  0.1092 -0.0882
 4595TIP3    H135420   2.687   0.556   1.356  2.1322  1.3141  0.3263
 4595TIP3    H235421   2.731   0.511   1.494 -0.5361 -0.0005  0.8229
 4596TIP3   OH235422   6.055   5.153   2.309 -0.0621  0.0501 -0.3619
 4596TIP3    H135423   6.084   5.238   2.276  2.8950 -0.5826  0.2868
 4596TIP3    H235424   6.073   5.157   2.403  0.9478 -1.5258 -0.4473
 4597TIP3   OH235425   3.548   0.108   1.724  0.0537  0.5465 -0.0785
 4597TIP3    H135426   3.571   0.160   1.647 -1.0087  0.1501 -0.6821
 4597TIP3    H235427   3.599   0.027   1.715 -0.0522  0.5106 -0.3578
 4598TIP3   OH235428   5.284   6.573   2.542  0.3258 -0.0425  0.4425
 4598TIP3    H135429   5.305   6.593   2.451 -1.9642 -0.9334 -0.3645
 4598TIP3    H235430   5.326   6.489   2.559 -1.2612 -1.1202 -0.6694
 4599TIP3   OH235431   0.953   2.914   3.501  0.2978 -0.0165  0.2429
 4599TIP3    H135432   1.042   2.932   3.471  0.4739  0.0054  0.7603
 4599TIP3    H235433   0.964   2.847   3.569  0.3128  2.3448  2.7622
 4600TIP3   OH235434   1.657   3.658   1.787  0.1742  0.0691  0.6240
 4600TIP3    H135435   1.583   3.716   1.769 -0.9926 -1.2631  0.9714
 4600TIP3    H235436   1.627   3.571   1.760  1.5524 -0.5288  0.9385
 4601TIP3   OH235437   2.755   4.168   2.917  0.2622 -0.2750  0.5409
 4601TIP3    H135438   2.693   4.098   2.896 -0.7874  1.4169 -2.6989
 4601TIP3    H235439   2.832   4.148   2.864  1.8154 -1.2319  2.9777
 4602TIP3   OH235440   2.311   6.195   0.046  0.0082 -0.3828 -0.5809
 4602TIP3    H135441   2.337   6.176  -0.045 -0.1182  0.8700 -0.9019
 4602TIP3    H235442   2.392   6.222   0.089  0.1766 -1.5298 -0.1469
 4603TIP3   OH235443   1.094   2.943   2.362  0.0547 -0.1287 -0.3004
 4603TIP3    H135444   1.149   2.865   2.363  2.0122  1.1920  0.9922
 4603TIP3    H235445   1.155   3.016   2.349 -1.4145  1.3900  0.8503
 4604TIP3   OH235446   1.464   3.195   2.602  0.3550 -0.3371 -0.5830
 4604TIP3    H135447   1.474   3.234   2.689 -2.0864 -1.6697  0.3779
 4604TIP3    H235448   1.509   3.111   2.608 -0.3740 -0.7180 -0.3789
 4605TIP3   OH235449   3.045   4.299   1.656  0.0108 -0.3961 -0.1417
 4605TIP3    H135450   2.999   4.218   1.636  1.2363 -1.2076  0.2130
 4605TIP3    H235451   3.080   4.328   1.572 -0.3140 -0.2952 -0.2445
 4606TIP3   OH235452   5.032   2.651   1.076  0.4292  0.3091  0.2080
 4606TIP3    H135453   5.033   2.668   1.170 -1.4620  1.8273 -0.0018
 4606TIP3    H235454   5.055   2.735   1.036  0.5379 -0.1441 -0.7219
 4607TIP3   OH235455   6.635   4.478   1.741  0.3594 -0.0919 -0.0830
 4607TIP3    H135456   6.660   4.503   1.653  1.0668  0.7224  0.3389
 4607TIP3    H235457   6.600   4.389   1.732  1.9154 -0.6425 -0.9395
 4608TIP3   OH235458   5.927   6.743   2.679  0.3644 -0.0668 -0.0189
 4608TIP3    H135459   5.868   6.805   2.637  0.0769  0.2240  0.7875
 4608TIP3    H235460   5.997   6.797   2.714  1.5353 -0.4809 -1.6072
 4609TIP3   OH235461   1.082   1.328   2.054  0.7372  0.2118  0.6369
 4609TIP3    H135462   1.135   1.407   2.042 -0.1956  0.6943 -0.3886
 4609TIP3    H235463   1.041   1.313   1.969 -0.2887 -0.5042  1.2393
 4610TIP3   OH235464   3.257   1.713   2.745 -0.2074 -0.2297  0.0393
 4610TIP3    H135465   3.268   1.624   2.779 -1.7905  0.4977  2.6706
 4610TIP3    H235466   3.338   1.730   2.697  1.3066 -2.1236  1.7649
 4611TIP3   OH235467   5.717   2.628   3.150 -0.0661 -0.5044  0.0602
 4611TIP3    H135468   5.713   2.534   3.168 -0.4247 -0.2696  1.3085
 4611TIP3    H235469   5.632   2.662   3.179 -0.3207  0.0667 -1.2861
 4612TIP3   OH235470   0.337   3.569   3.090 -0.5763 -0.4028 -0.3782
 4612TIP3    H135471   0.260   3.584   3.146 -0.6062 -1.0433 -0.2354
 4612TIP3    H235472   0.406   3.621   3.130 -0.0214 -2.4575  1.5526
 4613TIP3   OH235473   5.366   2.001   0.942  0.2931 -0.0304 -0.3417
 4613TIP3    H135474   5.288   2.029   0.990 -1.0520 -1.2437 -1.7189
 4613TIP3    H235475   5.429   1.977   1.011 -0.3392  1.4608  0.7995
 4614TIP3   OH235476   6.820   5.005   0.416  0.3211 -0.0800  0.1330
 4614TIP3    H135477   6.818   4.917   0.453  1.6046  1.0468  3.1445
 4614TIP3    H235478   6.892   5.048   0.460 -1.5446  3.1447  0.3329
 4615TIP3   OH235479   1.282   6.394   2.242 -0.3853 -0.5224  0.2727
 4615TIP3    H135480   1.328   6.461   2.192  0.5340 -0.8553  0.6591
 4615TIP3    H235481   1.189   6.414   2.227 -0.1693  1.5107  1.2793
 4616TIP3   OH235482   6.285   6.452   1.872  0.4027 -0.6260  0.0330
 4616TIP3    H135483   6.363   6.461   1.927 -0.1430 -2.4588  1.2075
 4616TIP3    H235484   6.287   6.361   1.842 -0.7023 -0.3855 -0.8390
 4617TIP3   OH235485   3.147   4.797   3.892 -0.2284 -0.3597  0.2010
 4617TIP3    H135486   3.086   4.773   3.823 -1.1414  1.5068  0.2847
 4617TIP3    H235487   3.233   4.777   3.856 -0.6583  0.8155 -1.6363
 4618TIP3   OH235488   1.411   0.800   1.085  0.3045  0.7102 -0.3043
 4618TIP3    H135489   1.470   0.862   1.128  0.3258 -0.2685  1.1579
 4618TIP3    H235490   1.466   0.757   1.019  1.0552  0.2796  0.5848
 4619TIP3   OH235491   4.129   6.208   4.390  0.1973 -0.2154  0.3432
 4619TIP3    H135492   4.040   6.210   4.425 -0.1180  0.5586 -0.4657
 4619TIP3    H235493   4.132   6.279   4.326  2.0863  1.3534  2.0276
 4620TIP3   OH235494   4.746   5.808   0.633  0.0033  0.5755 -0.7207
 4620TIP3    H135495   4.734   5.733   0.574  0.5905  1.8982 -2.6212
 4620TIP3    H235496   4.841   5.818   0.640  0.0059 -0.6277  1.9609
 4621TIP3   OH235497   0.729   0.875   1.296  0.3765 -0.2804  0.2843
 4621TIP3    H135498   0.693   0.815   1.361  0.2768 -3.2753 -2.3142
 4621TIP3    H235499   0.807   0.831   1.263  0.0856  0.7980 -2.0488
 4622TIP3   OH235500   0.322   6.708   4.237 -0.6040  0.2691  0.6339
 4622TIP3    H135501   0.357   6.619   4.238 -2.0471 -0.6281 -3.8447
 4622TIP3    H235502   0.227   6.696   4.230 -0.7301  1.8964 -2.3362
 4623TIP3   OH235503   4.760   1.187   1.224  0.3437 -0.8026 -0.2816
 4623TIP3    H135504   4.802   1.102   1.234 -0.5090 -1.3476 -1.2058
 4623TIP3    H235505   4.833   1.249   1.222  1.1155 -1.7055 -1.6736
 4624TIP3   OH235506   4.911   0.084   2.857  0.6164  0.2275  0.1305
 4624TIP3    H135507   4.898   0.003   2.904 -1.0607  0.0020 -0.6201
 4624TIP3    H235508   4.939   0.057   2.769 -0.5448  0.3761 -0.3155
 4625TIP3   OH235509   2.520   4.837   8.335 -0.2230 -0.1110 -0.1655
 4625TIP3    H135510   2.484   4.926   8.339 -0.7465 -0.3049 -0.4746
 4625TIP3    H235511   2.465   4.792   8.271  0.0140 -0.6712  0.0212
 4626TIP3   OH235512   5.430   0.655   1.382  0.2795  0.3137 -0.2433
 4626TIP3    H135513   5.336   0.638   1.394  0.2680 -0.0020 -0.7716
 4626TIP3    H235514   5.437   0.751   1.388 -0.2811  0.4592 -1.5587
 4627TIP3   OH235515   2.704   3.985   1.278  0.3703 -0.3135  0.2128
 4627TIP3    H135516   2.657   3.996   1.195  0.1243  1.2981  0.5337
 4627TIP3    H235517   2.709   4.073   1.315 -0.4743 -1.1034  2.4299
 4628TIP3   OH235518   5.237   1.904   0.152 -0.8191 -0.1586 -1.2302
 4628TIP3    H135519   5.258   1.903   0.059 -0.0500  2.2885 -1.1601
 4628TIP3    H235520   5.314   1.865   0.194 -1.5685 -2.1568 -1.6170
 4629TIP3   OH235521   0.018   0.265   1.164 -0.0200 -0.2142  0.3242
 4629TIP3    H135522   0.062   0.350   1.157 -1.8538  0.7748 -0.0639
 4629TIP3    H235523   0.089   0.201   1.166  1.4113  1.2623 -0.3390
 4630TIP3   OH235524   2.515   4.516   0.453 -0.1579  0.1163  0.5677
 4630TIP3    H135525   2.511   4.421   0.442 -1.3951  0.1837  0.2833
 4630TIP3    H235526   2.550   4.549   0.370 -3.3227  0.1426 -0.9235
 4631TIP3   OH235527   5.810   5.227   0.955 -0.7908 -0.3167  0.2935
 4631TIP3    H135528   5.800   5.322   0.954 -0.2590 -0.2557  0.2623
 4631TIP3    H235529   5.894   5.213   1.000  0.1929 -0.6550 -1.5460
 4632TIP3   OH235530   2.767   2.477   0.382 -0.9729  0.7399 -0.5232
 4632TIP3    H135531   2.739   2.449   0.295 -2.1914  1.6915 -0.4567
 4632TIP3    H235532   2.694   2.528   0.416 -1.1909 -0.9357  1.7235
 4633TIP3   OH235533   2.538   0.444   3.007  0.6638  0.0375 -0.2369
 4633TIP3    H135534   2.621   0.488   3.024  0.6743  0.9469 -2.3692
 4633TIP3    H235535   2.525   0.452   2.913 -1.5536 -0.6211 -0.0468
 4634TIP3   OH235536   1.502   3.299   4.138  0.2314  0.3578 -0.1141
 4634TIP3    H135537   1.551   3.360   4.193  1.3354  0.0578 -0.7330
 4634TIP3    H235538   1.563   3.226   4.123 -0.5208 -0.1716 -0.6543
 4635TIP3   OH235539   3.702   1.957   0.221  0.4136 -0.5318 -0.5863
 4635TIP3    H135540   3.698   1.907   0.140  1.1049 -0.2084 -0.8240
 4635TIP3    H235541   3.744   2.039   0.197  0.0659 -0.1848 -0.0219
 4636TIP3   OH235542   6.103   3.125   0.422 -0.0094 -0.2027 -0.1680
 4636TIP3    H135543   6.176   3.078   0.380  1.3737  1.3145  0.4442
 4636TIP3    H235544   6.099   3.089   0.510 -0.0312 -0.3053 -0.2104
 4637TIP3   OH235545   4.045   0.352   1.687  0.1726  0.6065  0.1891
 4637TIP3    H135546   4.011   0.267   1.659 -0.6028  1.5610 -2.0109
 4637TIP3    H235547   3.968   0.407   1.696  0.7419  1.3976  0.3482
 4638TIP3   OH235548   2.056   3.346   2.624  0.5727 -0.2823 -0.3843
 4638TIP3    H135549   2.099   3.267   2.592  0.8967  0.0211 -0.7023
 4638TIP3    H235550   2.083   3.414   2.563  1.8620  0.4804  0.9645
 4639TIP3   OH235551   4.274   2.488   3.769  0.4061 -0.0379 -0.4365
 4639TIP3    H135552   4.242   2.432   3.699  1.4305 -0.9022 -0.2480
 4639TIP3    H235553   4.195   2.519   3.814 -0.2105 -2.1387  0.0588
 4640TIP3   OH235554   3.098   5.959   0.567  0.9477 -0.1443 -0.3620
 4640TIP3    H135555   3.156   6.000   0.631 -0.8370  2.5405 -0.3001
 4640TIP3    H235556   3.132   5.987   0.482 -0.0276  1.2047 -0.3343
 4641TIP3   OH235557   6.434   2.297   3.663 -0.4328 -0.2270 -0.4065
 4641TIP3    H135558   6.362   2.235   3.674 -0.3555 -0.3989 -0.8322
 4641TIP3    H235559   6.503   2.246   3.621  0.5912 -0.5334  1.5282
 4642TIP3   OH235560   0.910   3.517   8.014  0.4884  0.0110  0.5161
 4642TIP3    H135561   0.871   3.510   8.101  0.0529 -1.6772  0.2282
 4642TIP3    H235562   0.844   3.481   7.955  1.2696 -0.0208 -0.3642
 4643TIP3   OH235563   1.234   4.178   1.996  0.2768  0.0969  0.4941
 4643TIP3    H135564   1.226   4.247   2.062 -1.8533 -0.4434  0.8949
 4643TIP3    H235565   1.248   4.226   1.914 -4.2685  1.4232  0.2081
 4644TIP3   OH235566   3.631   0.152   3.429  0.1191  0.1013  0.6071
 4644TIP3    H135567   3.613   0.161   3.523 -0.8939  2.4392  0.2589
 4644TIP3    H235568   3.701   0.215   3.412  0.8140 -0.8399 -0.0919
 4645TIP3   OH235569   4.461   0.571   2.957 -0.3137 -0.1990 -0.7199
 4645TIP3    H135570   4.488   0.642   2.898 -1.0084  0.1886 -0.5847
 4645TIP3    H235571   4.541   0.546   3.003 -0.0490  0.4703 -0.8042
 4646TIP3   OH235572   4.986   1.666   2.668  0.5107  0.3452  0.1697
 4646TIP3    H135573   5.053   1.681   2.601 -0.8849  2.8138 -0.8005
 4646TIP3    H235574   5.028   1.607   2.730  2.3304 -1.0252 -2.1854
 4647TIP3   OH235575   0.817   2.122   3.604 -0.3787  0.4004  0.2640
 4647TIP3    H135576   0.862   2.049   3.561 -1.3295  0.6922 -1.3106
 4647TIP3    H235577   0.796   2.089   3.692 -1.1712 -1.4122 -0.5530
 4648TIP3   OH235578   4.295   0.649   0.438 -0.9414 -0.3111  0.2375
 4648TIP3    H135579   4.309   0.630   0.345 -1.3470 -1.2689  0.3573
 4648TIP3    H235580   4.209   0.610   0.457 -0.0746 -1.7327  1.4268
 4649TIP3   OH235581   0.898   1.906   1.609  0.1286 -0.2034 -0.3237
 4649TIP3    H135582   0.889   1.902   1.513  0.3655  0.1790 -0.3634
 4649TIP3    H235583   0.921   1.816   1.634  1.4002 -0.0302 -0.7687
 4650TIP3   OH235584   2.420   3.345   8.768  0.0430  0.0484  0.1001
 4650TIP3    H135585   2.405   3.251   8.779  0.6383 -0.0450  0.1441
 4650TIP3    H235586   2.431   3.379   8.857  1.0335 -0.0544  0.0298
 4651TIP3   OH235587   3.802   0.874   1.547  0.0573 -0.4677  0.5861
 4651TIP3    H135588   3.813   0.833   1.633 -1.7049 -0.5850  0.7845
 4651TIP3    H235589   3.811   0.968   1.564 -0.0679 -0.5048  0.8690
 4652TIP3   OH235590   1.616   2.668   3.190  1.3003 -0.5509  0.1989
 4652TIP3    H135591   1.561   2.681   3.114  0.6509 -0.2264  0.7135
 4652TIP3    H235592   1.705   2.671   3.157  1.0150 -2.2903 -0.8453
 4653TIP3   OH235593   3.168   6.240   8.763 -0.0497  0.1553  0.0814
 4653TIP3    H135594   3.125   6.261   8.680 -1.4022  0.4304  0.8076
 4653TIP3    H235595   3.096   6.239   8.827  1.1788  1.7315  1.5828
 4654TIP3   OH235596   3.787   0.026   4.004  0.3897 -0.2624 -0.0272
 4654TIP3    H135597   3.707   0.034   4.055 -0.2175  1.0460 -1.1290
 4654TIP3    H235598   3.853   0.071   4.056 -0.0820  0.5075 -0.0785
 4655TIP3   OH235599   5.540   3.511   2.387 -0.5301 -0.3742  0.0236
 4655TIP3    H135600   5.563   3.506   2.294 -1.3577 -1.0012 -0.1575
 4655TIP3    H235601   5.541   3.604   2.407  0.5728 -0.2938 -0.3757
 4656TIP3   OH235602   3.503   5.773   0.735  0.0828  0.7692  0.2270
 4656TIP3    H135603   3.439   5.839   0.763  0.7606  1.5156  0.0554
 4656TIP3    H235604   3.481   5.755   0.644 -0.8515 -0.1548  0.6056
 4657TIP3   OH235605   3.521   0.383   3.026  0.2298 -0.1941  0.2658
 4657TIP3    H135606   3.469   0.451   3.070  0.1137 -1.4338  2.1491
 4657TIP3    H235607   3.611   0.414   3.034  0.1158  0.0973  0.4475
 4658TIP3   OH235608   0.281   4.711   0.475 -0.3821 -0.2455  0.3078
 4658TIP3    H135609   0.322   4.793   0.448 -3.3730  0.9356 -1.1818
 4658TIP3    H235610   0.340   4.675   0.540  1.5933  2.5682  0.2692
 4659TIP3   OH235611   4.578   5.838   0.859 -0.3163  0.3609  0.2397
 4659TIP3    H135612   4.631   5.892   0.918 -1.0817 -0.2974  1.5722
 4659TIP3    H235613   4.631   5.831   0.780  0.4933  1.7405  0.6173
 4660TIP3   OH235614   0.906   1.680   0.307  0.6370 -0.1226 -0.7521
 4660TIP3    H135615   0.911   1.649   0.216 -2.0847  0.2110 -1.0998
 4660TIP3    H235616   0.871   1.605   0.356  0.7682  0.1523 -0.2302
 4661TIP3   OH235617   5.061   0.460   3.056 -0.7078  0.4398 -0.2074
 4661TIP3    H135618   5.074   0.371   3.088 -0.9179 -0.5990 -2.7946
 4661TIP3    H235619   5.138   0.477   3.001 -1.7925  0.8857 -1.6541
 4662TIP3   OH235620   5.927   3.400   0.024 -0.3841 -0.3248  0.2677
 4662TIP3    H135621   5.869   3.327   0.043 -1.7674  0.5789 -0.3421
 4662TIP3    H235622   5.962   3.381  -0.064 -2.1657  0.5958 -0.6844
 4663TIP3   OH235623   2.644   4.772   8.597  0.1470 -0.2325 -0.2064
 4663TIP3    H135624   2.628   4.820   8.515 -0.1958 -1.3899 -0.8307
 4663TIP3    H235625   2.729   4.731   8.585  0.2913 -0.0554  0.1973
 4664TIP3   OH235626   2.678   5.663   0.737  0.2608  0.1526  0.1630
 4664TIP3    H135627   2.738   5.703   0.674  0.1249 -1.9413 -1.4138
 4664TIP3    H235628   2.731   5.598   0.782 -0.3455 -0.3961  0.1013
 4665TIP3   OH235629   1.540   0.637   1.353  0.3053 -0.7981  0.4436
 4665TIP3    H135630   1.522   0.586   1.274 -1.0531  1.1898 -0.6196
 4665TIP3    H235631   1.611   0.696   1.329 -1.5942  1.3870 -0.1275
 4666TIP3   OH235632   5.040   1.696   1.485 -0.1700  0.2402 -0.3543
 4666TIP3    H135633   4.959   1.713   1.533 -1.0457  0.7154 -1.9349
 4666TIP3    H235634   5.016   1.625   1.425  0.0396  1.6016 -2.0971
 4667TIP3   OH235635   0.355   4.558   2.184  0.9795  0.2890 -0.0544
 4667TIP3    H135636   0.311   4.579   2.266  1.4081  0.9003  0.0210
 4667TIP3    H235637   0.330   4.467   2.167 -0.8694  0.8004 -0.3726
 4668TIP3   OH235638   0.605   3.719   1.320 -0.2187 -0.1878  0.7071
 4668TIP3    H135639   0.524   3.706   1.369 -1.3362 -1.4632 -1.3422
 4668TIP3    H235640   0.602   3.653   1.250  1.7099  0.9492 -0.5515
 4669TIP3   OH235641   1.450   4.249   1.269 -0.1264  0.3694  0.1624
 4669TIP3    H135642   1.473   4.157   1.259 -1.3063  0.2223 -1.6612
 4669TIP3    H235643   1.519   4.296   1.221  0.9276  0.5264  1.7750
 4670TIP3   OH235644   6.039   5.823   0.778 -0.4553 -0.0906 -0.2031
 4670TIP3    H135645   6.004   5.803   0.865  0.0728 -0.6566 -0.1194
 4670TIP3    H235646   6.133   5.832   0.791 -0.4753  0.7203 -0.5600
 4671TIP3   OH235647   2.727   4.234   1.503 -0.2505  0.1691 -0.1696
 4671TIP3    H135648   2.760   4.271   1.422  0.0162 -1.6910 -0.9774
 4671TIP3    H235649   2.632   4.244   1.498 -0.1923  0.5561 -0.4495
 4672TIP3   OH235650   0.140   1.833   2.002  0.2210  0.3115  0.5754
 4672TIP3    H135651   0.208   1.895   1.978  0.1720 -0.2134 -0.9957
 4672TIP3    H235652   0.164   1.752   1.956 -0.8437 -0.2151  0.9161
 4673TIP3   OH235653   6.561   5.814   1.399  0.0804 -0.4053 -0.1967
 4673TIP3    H135654   6.637   5.872   1.411 -0.1156  0.1401 -1.4173
 4673TIP3    H235655   6.545   5.815   1.305 -2.4123  0.7480  0.1575
 4674TIP3   OH235656   6.594   1.770   3.444 -0.3010 -0.0431 -0.4482
 4674TIP3    H135657   6.597   1.735   3.354 -0.1220  0.6093 -0.7022
 4674TIP3    H235658   6.501   1.778   3.463 -0.3660  1.3449 -1.2015
 4675TIP3   OH235659   4.046   4.883   3.421  0.0782  0.3081 -0.1544
 4675TIP3    H135660   4.100   4.918   3.492  1.6782 -0.6728 -0.8352
 4675TIP3    H235661   3.956   4.893   3.453  0.5818  2.5152  0.7847
 4676TIP3   OH235662   0.749   0.718   0.042 -0.0411 -0.1485 -0.0402
 4676TIP3    H135663   0.708   0.796   0.081  1.0225  0.6017 -0.3666
 4676TIP3    H235664   0.703   0.706  -0.041 -0.9558 -0.5447  0.5063
 4677TIP3   OH235665   1.225   4.267   1.393  0.8371 -0.0109 -0.1911
 4677TIP3    H135666   1.270   4.270   1.478  0.7106 -1.7970 -0.0224
 4677TIP3    H235667   1.296   4.264   1.329  0.9383  0.2304 -0.0916
 4678TIP3   OH235668   0.732   4.665   1.672 -0.5211 -0.5051 -0.2847
 4678TIP3    H135669   0.827   4.672   1.677 -0.4907 -1.4510  1.3936
 4678TIP3    H235670   0.705   4.741   1.622  0.9928  0.9033  0.9120
 4679TIP3   OH235671   6.197   4.366   2.814 -0.1046  0.0554 -0.2899
 4679TIP3    H135672   6.203   4.437   2.878  1.0397  1.8965 -2.3074
 4679TIP3    H235673   6.164   4.408   2.735  0.5305 -1.6768 -1.5370
 4680TIP3   OH235674   2.592   6.317   2.672 -0.0246 -0.3662 -0.0885
 4680TIP3    H135675   2.524   6.315   2.604 -1.1150  1.5564  0.8569
 4680TIP3    H235676   2.557   6.263   2.742  0.0719 -0.5236 -0.1616
 4681TIP3   OH235677   3.430   4.609   2.625  0.4588  0.1235 -0.4331
 4681TIP3    H135678   3.408   4.516   2.614 -0.6920  0.3434 -0.1942
 4681TIP3    H235679   3.481   4.631   2.547  1.4991 -0.9110 -0.0708
 4682TIP3   OH235680   3.885   1.916   8.134  0.5963  0.0795  0.2962
 4682TIP3    H135681   3.824   1.988   8.115  0.5161 -0.2844 -0.9269
 4682TIP3    H235682   3.897   1.919   8.228 -2.1532 -0.4623  0.7697
 4683TIP3   OH235683   3.213   0.014   8.673 -0.1864  0.0876  0.3719
 4683TIP3    H135684   3.265  -0.061   8.642  0.1156  0.3886  0.1495
 4683TIP3    H235685   3.200  -0.003   8.766  1.5162  0.7059  0.7477
 4684TIP3   OH235686   3.805   4.147   1.578 -0.0003 -0.5838  0.2603
 4684TIP3    H135687   3.811   4.063   1.623 -0.0147 -0.9633 -0.4418
 4684TIP3    H235688   3.734   4.193   1.622  0.3896 -0.7002  1.0296
 4685TIP3   OH235689   3.134   4.949   2.879 -0.2129 -0.2248 -0.5290
 4685TIP3    H135690   3.189   4.883   2.836  2.5442  1.2605  0.5257
 4685TIP3    H235691   3.157   5.031   2.836 -0.7079  0.6156  0.7572
 4686TIP3   OH235692   2.379   6.545   0.775  0.0205 -0.0337 -0.4138
 4686TIP3    H135693   2.309   6.547   0.710  0.5842  0.7407 -1.0142
 4686TIP3    H235694   2.459   6.562   0.725  0.6877 -1.2247  0.2106
 4687TIP3   OH235695   4.910   3.326   2.748  0.5745  0.1989 -0.5407
 4687TIP3    H135696   4.903   3.420   2.731  0.1879  0.1480 -0.6587
 4687TIP3    H235697   4.877   3.284   2.669  1.2513 -0.0415 -0.7046
 4688TIP3   OH235698   2.868   5.408   0.350  0.1282 -0.4362 -0.4307
 4688TIP3    H135699   2.928   5.371   0.285  1.5516 -1.0006  1.1212
 4688TIP3    H235700   2.855   5.498   0.322  2.3165 -0.0781 -0.4636
 4689TIP3   OH235701   6.758   1.487   1.765  0.6484 -0.1101 -0.2822
 4689TIP3    H135702   6.748   1.576   1.800 -2.3593 -0.4872  0.0862
 4689TIP3    H235703   6.832   1.450   1.813  1.2824  1.8345  0.3137
 4690TIP3   OH235704   2.880   6.152   3.358 -0.0840  0.3026 -0.8335
 4690TIP3    H135705   2.888   6.236   3.402  0.2566  0.5797 -1.4067
 4690TIP3    H235706   2.785   6.136   3.355 -0.1526  0.6712 -0.7260
 4691TIP3   OH235707   3.718   5.744   0.396  0.4112  0.6826  0.4297
 4691TIP3    H135708   3.695   5.741   0.303  0.3528 -1.7230  0.4536
 4691TIP3    H235709   3.640   5.778   0.439  0.0864  0.8884 -0.3000
 4692TIP3   OH235710   0.540   4.574   4.102 -0.6331 -0.1379  0.1949
 4692TIP3    H135711   0.447   4.593   4.092 -0.5770  0.9209  1.3638
 4692TIP3    H235712   0.543   4.488   4.143 -1.2059  0.6706  2.0419
 4693TIP3   OH235713   4.227   6.146   0.649  0.1102 -0.0166 -0.2701
 4693TIP3    H135714   4.230   6.107   0.736 -3.3445 -0.0330 -0.0280
 4693TIP3    H235715   4.206   6.238   0.665  2.8059  0.8122 -1.0440
 4694TIP3   OH235716   0.090   2.914   3.353 -0.3812 -0.0298  0.1464
 4694TIP3    H135717   0.068   2.915   3.446  0.8459 -0.5851  0.4677
 4694TIP3    H235718   0.121   3.002   3.333 -0.3240 -0.0069  0.3444
 4695TIP3   OH235719   1.197   2.928   0.021  0.1896 -0.1699 -0.5049
 4695TIP3    H135720   1.181   3.016   0.056 -1.5605 -0.6219 -0.1233
 4695TIP3    H235721   1.183   2.937  -0.073 -0.7327 -0.1835 -0.3782
 4696TIP3   OH235722   5.447   0.800   3.656 -0.0637  0.0505  0.3519
 4696TIP3    H135723   5.403   0.750   3.724 -1.3837  1.5093  0.6523
 4696TIP3    H235724   5.529   0.754   3.640 -0.5348 -1.3062  1.6578
 4697TIP3   OH235725   0.134   4.384   8.678  0.1938 -0.1182 -0.3976
 4697TIP3    H135726   0.069   4.446   8.645 -0.8096 -1.5115 -1.1285
 4697TIP3    H235727   0.108   4.300   8.642  2.6284 -0.6852 -1.0436
 4698TIP3   OH235728   1.955   1.684   0.308 -0.0519  0.2542 -0.4697
 4698TIP3    H135729   1.879   1.704   0.252  0.2232  2.8645 -0.0752
 4698TIP3    H235730   1.919   1.634   0.381 -1.0311 -0.1981 -1.2363
 4699TIP3   OH235731   0.477   0.209   3.002  0.0204  0.3262  0.1044
 4699TIP3    H135732   0.513   0.120   2.997 -0.5830  0.0814  0.0167
 4699TIP3    H235733   0.452   0.219   3.094 -1.5296 -0.2512 -0.2366
 4700TIP3   OH235734   2.282   6.309   0.385  0.0260 -0.3218 -0.4522
 4700TIP3    H135735   2.239   6.245   0.328  0.8839 -0.2542 -1.1970
 4700TIP3    H235736   2.319   6.257   0.456 -3.3758 -0.1528  1.6325
 4701TIP3   OH235737   1.402   3.335   0.003  0.5346  0.2021 -0.0593
 4701TIP3    H135738   1.405   3.278   0.080 -0.7597  0.4717  0.2165
 4701TIP3    H235739   1.369   3.418   0.036 -0.2041  0.2706 -0.9110
 4702TIP3   OH235740   3.984   1.747   2.225  0.7230  0.6002  0.8032
 4702TIP3    H135741   3.986   1.793   2.141 -0.3686 -0.1574  0.3397
 4702TIP3    H235742   3.990   1.655   2.202  2.7279  0.4492  1.7129
 4703TIP3   OH235743   5.044   0.699   2.142  0.2038  0.0968 -0.6001
 4703TIP3    H135744   5.106   0.711   2.214 -1.3622  0.6216  0.7201
 4703TIP3    H235745   5.089   0.734   2.065  1.2783  1.0707  0.4440
 4704TIP3   OH235746   1.249   1.616   2.412 -0.2205  0.1359 -0.2809
 4704TIP3    H135747   1.309   1.549   2.377  1.2905 -0.3301  2.8574
 4704TIP3    H235748   1.291   1.699   2.391  2.2295 -0.1872  2.6186
 4705TIP3   OH235749   3.438   3.755   3.152 -0.0908  0.1406 -0.7738
 4705TIP3    H135750   3.426   3.805   3.232 -0.3304 -0.5190 -0.3928
 4705TIP3    H235751   3.420   3.664   3.176  1.5641 -0.3313 -1.1625
 4706TIP3   OH235752   2.858   0.897   3.473  0.0235 -0.4314  0.5315
 4706TIP3    H135753   2.765   0.879   3.487 -0.1107 -1.4280 -1.3078
 4706TIP3    H235754   2.901   0.867   3.553 -1.2183  0.1396  1.4493
 4707TIP3   OH235755   5.432   4.205   0.013 -0.0062 -0.1169 -0.0472
 4707TIP3    H135756   5.422   4.244  -0.074  2.3971  0.7954  0.0141
 4707TIP3    H235757   5.435   4.111  -0.003 -1.4609 -0.0828 -0.6999
 4708TIP3   OH235758   3.572   1.168   0.347 -0.4279 -0.6320  0.0498
 4708TIP3    H135759   3.609   1.228   0.411 -0.7768  0.7666 -1.0194
 4708TIP3    H235760   3.641   1.104   0.330  0.4028  0.1972  0.2772
 4709TIP3   OH235761   2.006   6.823   0.589  0.4434  0.2159 -0.4449
 4709TIP3    H135762   2.067   6.850   0.658 -0.5835 -0.4377  0.7645
 4709TIP3    H235763   1.979   6.735   0.615  0.2567 -0.1600 -1.8595
 4710TIP3   OH235764   0.236   4.023   0.939  0.0280  0.1433  0.1654
 4710TIP3    H135765   0.225   3.977   0.856 -1.2731  0.6562  0.0307
 4710TIP3    H235766   0.267   3.956   0.999  1.4866 -0.1262 -0.8342
 4711TIP3   OH235767   2.813   1.168   1.818  0.4601 -0.2436 -0.0097
 4711TIP3    H135768   2.807   1.252   1.863 -1.8020  0.1295 -0.8409
 4711TIP3    H235769   2.822   1.103   1.888  1.8321  0.6203  0.6624
 4712TIP3   OH235770   2.970   4.798   1.103 -0.2278 -0.2379 -0.9007
 4712TIP3    H135771   2.992   4.836   1.018  0.3961  0.6297 -0.3564
 4712TIP3    H235772   2.987   4.704   1.092  0.1945 -0.0806 -1.6275
 4713TIP3   OH235773   3.072   1.100   3.786  0.5370 -0.1686  0.1806
 4713TIP3    H135774   3.143   1.117   3.724  2.0026 -1.2209  1.4905
 4713TIP3    H235775   3.028   1.185   3.797  0.3305  0.0848 -2.1140
 4714TIP3   OH235776   4.387   4.132   3.667  0.4219 -0.4678  0.5512
 4714TIP3    H135777   4.427   4.122   3.753 -0.5664  0.5617  1.1709
 4714TIP3    H235778   4.293   4.132   3.684  0.1037 -2.6148 -0.8306
 4715TIP3   OH235779   5.840   0.359   0.992 -0.7712  0.2441 -0.3365
 4715TIP3    H135780   5.884   0.295   1.047 -0.0305 -0.2490 -1.4514
 4715TIP3    H235781   5.812   0.309   0.915 -3.8885  0.3980  0.5673
 4716TIP3   OH235782   3.726   5.705   2.652  0.1800  0.2885  0.1202
 4716TIP3    H135783   3.650   5.703   2.711  1.3627  3.2272  1.9714
 4716TIP3    H235784   3.783   5.773   2.688  2.8272 -0.4402 -2.3017
 4717TIP3   OH235785   2.370   6.039   2.023  0.0562  0.0454  0.4902
 4717TIP3    H135786   2.281   6.030   2.055  0.2721  0.6035  1.2942
 4717TIP3    H235787   2.370   6.124   1.978  0.0889 -0.1238  0.1716
 4718TIP3   OH235788   2.881   5.472   0.859  0.1322  0.1352 -0.6407
 4718TIP3    H135789   2.961   5.501   0.903 -0.0270  2.9857 -1.9824
 4718TIP3    H235790   2.901   5.384   0.828  0.4719 -1.9004  4.3268
 4719TIP3   OH235791   3.846   6.690   3.490 -0.3408 -0.7144  0.1049
 4719TIP3    H135792   3.941   6.676   3.495 -0.1885  0.2464  0.2190
 4719TIP3    H235793   3.823   6.727   3.575 -0.5854  0.2564 -0.3599
 4720TIP3   OH235794   0.524   6.658   2.289 -0.6605 -0.0346 -0.2472
 4720TIP3    H135795   0.450   6.617   2.336 -1.2297  0.6905 -0.5012
 4720TIP3    H235796   0.486   6.734   2.246 -0.0671 -0.4929 -1.6264
 4721TIP3   OH235797   2.177   4.586   0.526 -0.3166 -0.3875  0.4085
 4721TIP3    H135798   2.134   4.596   0.441  1.6212 -0.5080 -0.6337
 4721TIP3    H235799   2.231   4.508   0.517  2.0637  1.1224  0.7507
 4722TIP3   OH235800   4.780   2.619   4.154  0.2736  0.0818 -0.1981
 4722TIP3    H135801   4.827   2.561   4.213  1.1420  1.1889  0.2423
 4722TIP3    H235802   4.839   2.629   4.079 -0.9080 -1.4855 -1.4090
 4723TIP3   OH235803   2.421   2.328   0.127  0.8014  0.4538 -0.4131
 4723TIP3    H135804   2.456   2.263   0.066 -0.8195  0.8833 -1.8817
 4723TIP3    H235805   2.326   2.327   0.111  0.5756  2.0911  0.6158
 4724TIP3   OH235806   0.239   5.567   0.273 -0.1005 -0.5786 -0.0687
 4724TIP3    H135807   0.246   5.482   0.230 -0.7031 -2.0110  2.5175
 4724TIP3    H235808   0.327   5.584   0.308  0.1074  0.0664 -0.8632
 4725TIP3   OH235809   1.738   5.846   2.884 -0.1018  0.3120  0.1002
 4725TIP3    H135810   1.704   5.777   2.940 -0.1317 -0.2915 -0.6372
 4725TIP3    H235811   1.669   5.911   2.881  0.3365  0.8904  1.6435
 4726TIP3   OH235812   2.671   2.100   2.841  0.1097 -0.1067  0.2037
 4726TIP3    H135813   2.674   2.019   2.892 -2.4573  0.8192  2.0056
 4726TIP3    H235814   2.747   2.150   2.871  1.4968 -1.5889 -0.6394
 4727TIP3   OH235815   0.251   1.863   3.970  0.0978  0.1559  0.3544
 4727TIP3    H135816   0.283   1.782   4.011  2.1175  1.9035  2.4990
 4727TIP3    H235817   0.160   1.871   4.001 -0.1123 -1.1985  0.1739
 4728TIP3   OH235818   5.664   0.493   0.713  0.2196  0.1503 -0.0190
 4728TIP3    H135819   5.730   0.492   0.644  1.0970 -1.1315  0.7961
 4728TIP3    H235820   5.588   0.451   0.674 -1.3440  4.3048 -2.0012
 4729TIP3   OH235821   6.458   4.084   2.544 -0.4204  0.3489 -0.5027
 4729TIP3    H135822   6.377   4.092   2.493 -0.5609 -0.1659 -0.3665
 4729TIP3    H235823   6.498   4.003   2.513 -0.5974 -0.0652  0.3346
 4730TIP3   OH235824   5.575   4.999   1.685 -0.4640 -0.5091  0.1190
 4730TIP3    H135825   5.549   5.088   1.659  1.5208 -0.3025 -1.4208
 4730TIP3    H235826   5.625   5.011   1.766 -0.8458 -0.3236  0.3309
 4731TIP3   OH235827   3.251   3.454   2.511  0.0042 -0.0141 -0.9340
 4731TIP3    H135828   3.228   3.494   2.596 -0.2061  0.7255 -1.3310
 4731TIP3    H235829   3.260   3.528   2.452 -0.7835 -0.5829 -1.7903
 4732TIP3   OH235830   5.409   2.479   0.551 -0.1603 -0.0068  0.0942
 4732TIP3    H135831   5.461   2.560   0.547 -1.9304  1.2269  0.6696
 4732TIP3    H235832   5.354   2.490   0.628 -1.0918 -1.3595 -0.3488
 4733TIP3   OH235833   0.566   1.682   3.440 -0.4430  0.0304  0.4262
 4733TIP3    H135834   0.525   1.604   3.478 -0.2979 -0.2375  0.0430
 4733TIP3    H235835   0.574   1.662   3.347 -1.3347  0.9265  0.1467
 4734TIP3   OH235836   2.025   2.406   0.305  0.1051  0.0619 -0.1605
 4734TIP3    H135837   1.964   2.342   0.343 -0.8934  0.2375 -1.3948
 4734TIP3    H235838   2.085   2.353   0.253 -1.6244  0.1367 -2.4109
 4735TIP3   OH235839   6.841   6.241   3.353 -0.3262  0.4378 -0.1407
 4735TIP3    H135840   6.842   6.319   3.409 -1.7376  0.9596 -0.7931
 4735TIP3    H235841   6.758   6.198   3.373  0.2261 -0.6566 -0.1325
 4736TIP3   OH235842   6.122   0.718   1.935  0.2102  0.1189 -0.2723
 4736TIP3    H135843   6.038   0.722   1.980  0.4049 -3.6594  0.7679
 4736TIP3    H235844   6.099   0.696   1.844  0.0625  1.6006 -0.6257
 4737TIP3   OH235845   0.399   1.862   1.645 -0.4051 -0.6173  0.7435
 4737TIP3    H135846   0.374   1.953   1.628  1.3015 -0.3628 -0.8584
 4737TIP3    H235847   0.317   1.814   1.643 -1.1765  0.6514 -0.2727
 4738TIP3   OH235848   2.739   2.888   1.345 -0.4245  0.2171  0.4073
 4738TIP3    H135849   2.697   2.970   1.370 -0.1148  0.4902  0.0405
 4738TIP3    H235850   2.671   2.822   1.357 -1.2430  0.7609 -1.0111
 4739TIP3   OH235851   3.458   1.061   2.695 -0.7127  0.5523 -0.1900
 4739TIP3    H135852   3.518   0.989   2.675  0.7299  1.4159  0.8533
 4739TIP3    H235853   3.486   1.132   2.637 -1.1112  0.7910 -0.0941
 4740TIP3   OH235854   3.788   2.342   0.947 -0.1656 -0.0282  0.4593
 4740TIP3    H135855   3.864   2.390   0.979  0.1944 -1.1931  1.4307
 4740TIP3    H235856   3.816   2.304   0.864  0.3335 -0.4748  0.8278
 4741TIP3   OH235857   5.257   1.461   8.494  0.6545 -0.5858 -0.0401
 4741TIP3    H135858   5.229   1.550   8.476  1.8904 -0.1268  0.2248
 4741TIP3    H235859   5.231   1.411   8.416 -0.3709 -0.0857 -0.0316
 4742TIP3   OH235860   3.542   2.429   3.328 -0.2941 -0.3858 -0.0006
 4742TIP3    H135861   3.611   2.388   3.380  0.5548  1.1062  0.0963
 4742TIP3    H235862   3.548   2.522   3.349 -2.3547 -0.2195  0.0147
 4743TIP3   OH235863   6.381   0.893   2.003  0.3396  0.3509 -0.1883
 4743TIP3    H135864   6.448   0.842   2.049 -0.0645 -0.2804 -0.2909
 4743TIP3    H235865   6.408   0.890   1.911 -0.2512 -0.5733 -0.3389
 4744TIP3   OH235866   5.301   4.994   1.663  0.8061 -0.0515 -0.2205
 4744TIP3    H135867   5.268   4.960   1.580  0.0817  0.7797 -0.2853
 4744TIP3    H235868   5.396   4.990   1.655  0.7435  0.5626 -1.3154
 4745TIP3   OH235869   4.171   4.562   8.112 -0.1999  0.0363  0.1400
 4745TIP3    H135870   4.264   4.587   8.111 -0.4396  0.9677 -0.8824
 4745TIP3    H235871   4.172   4.468   8.128  0.9535 -0.0411 -0.3019
 4746TIP3   OH235872   4.822   4.417   3.799 -0.4784  0.3949 -0.0921
 4746TIP3    H135873   4.781   4.368   3.727 -2.0523  0.2237  0.8631
 4746TIP3    H235874   4.803   4.364   3.877  0.8079  0.8055  0.5203
 4747TIP3   OH235875   5.864   1.535   3.759  0.1978  0.4305 -0.6880
 4747TIP3    H135876   5.899   1.447   3.745 -0.1701  0.3710 -1.2812
 4747TIP3    H235877   5.783   1.537   3.707 -1.5536  0.0579  1.8573
 4748TIP3   OH235878   5.946   3.567   0.243 -0.3191 -0.0355  0.1462
 4748TIP3    H135879   5.932   3.510   0.319  0.6342  0.7195  0.9211
 4748TIP3    H235880   5.922   3.513   0.167 -1.3593 -0.7849  0.9761
 4749TIP3   OH235881   1.820   5.637   2.721 -0.2284 -0.3430 -0.4808
 4749TIP3    H135882   1.797   5.709   2.780  0.4944  0.7043 -1.4396
 4749TIP3    H235883   1.795   5.667   2.634  0.1854 -1.2075 -0.9172
 4750TIP3   OH235884   1.388   1.930   0.986 -0.0040  0.4459  0.7083
 4750TIP3    H135885   1.441   2.008   0.969 -0.2555  0.7576  1.3467
 4750TIP3    H235886   1.395   1.916   1.080 -0.6859  0.2189  0.7287
 4751TIP3   OH235887   2.609   5.622   1.071  0.3588  0.3553 -0.0673
 4751TIP3    H135888   2.573   5.691   1.127  0.0978 -0.1082  0.3402
 4751TIP3    H235889   2.685   5.663   1.029 -0.4473  1.2493 -0.6969
 4752TIP3   OH235890   6.725   4.645   1.264 -0.3338 -0.4232 -0.0328
 4752TIP3    H135891   6.693   4.577   1.204  0.8573 -0.7516 -0.3234
 4752TIP3    H235892   6.764   4.711   1.207 -1.2602  0.4029  0.2669
 4753TIP3   OH235893   1.302   3.579   1.845 -0.5316  0.0010 -0.0503
 4753TIP3    H135894   1.258   3.552   1.925  0.0800 -0.5179  0.1214
 4753TIP3    H235895   1.280   3.510   1.781  0.4659 -0.5642  0.1934
 4754TIP3   OH235896   0.879   0.115   4.286  0.1885  0.1542  0.4476
 4754TIP3    H135897   0.880   0.210   4.299 -1.7419  0.4923 -1.2162
 4754TIP3    H235898   0.952   0.098   4.227  0.0433  0.7576  0.0802
 4755TIP3   OH235899   2.815   3.574   2.379 -0.0191  0.3524 -0.1606
 4755TIP3    H135900   2.848   3.645   2.324  1.5272 -0.4864 -0.3850
 4755TIP3    H235901   2.791   3.506   2.316  2.0628 -0.7405  0.1225
 4756TIP3   OH235902   2.265   1.462   0.232  0.1603 -0.0931  0.1968
 4756TIP3    H135903   2.275   1.556   0.220 -0.0843 -0.2231 -1.1053
 4756TIP3    H235904   2.196   1.437   0.171 -0.1913 -1.0296  0.9529
 4757TIP3   OH235905   6.570   5.837   2.329 -0.0318  0.1441 -0.3715
 4757TIP3    H135906   6.554   5.792   2.246 -0.3184 -1.3376  0.4618
 4757TIP3    H235907   6.501   5.805   2.387  0.9337  0.1858  0.8253
 4758TIP3   OH235908   1.329   5.959   8.594 -0.4933 -0.1822 -0.2911
 4758TIP3    H135909   1.404   6.019   8.603  0.0532 -0.8752 -0.1413
 4758TIP3    H235910   1.316   5.923   8.682  0.6192 -1.9585 -0.7960
 4759TIP3   OH235911   4.283   5.688   3.380  0.5342  0.4805 -0.0314
 4759TIP3    H135912   4.233   5.744   3.320  3.3563  1.4423 -1.6504
 4759TIP3    H235913   4.321   5.749   3.443 -1.7530 -0.4453  2.4572
 4760TIP3   OH235914   2.184   1.254   2.055 -0.0726 -0.0776  0.1874
 4760TIP3    H135915   2.266   1.243   2.007  0.5054 -1.3201  1.3821
 4760TIP3    H235916   2.147   1.166   2.057 -1.7515  0.5637 -0.8140
 4761TIP3   OH235917   2.317   3.711   2.940 -0.4079  0.0205  0.0069
 4761TIP3    H135918   2.376   3.746   2.873 -0.2299  0.3943  0.3587
 4761TIP3    H235919   2.253   3.660   2.890  0.8141 -1.2964 -0.2952
 4762TIP3   OH235920   1.267   3.337   1.359  0.4161 -0.0414 -0.0890
 4762TIP3    H135921   1.290   3.247   1.333  0.1455 -0.5061  1.1958
 4762TIP3    H235922   1.300   3.392   1.288  0.0878 -1.2040 -1.1813
 4763TIP3   OH235923   3.173   3.337   1.512  0.4628 -0.2497  0.1944
 4763TIP3    H135924   3.111   3.407   1.490  1.4283  0.7460  0.5944
 4763TIP3    H235925   3.259   3.373   1.493  0.9191 -2.0090 -1.4224
 4764TIP3   OH235926   4.312   2.877   3.210 -0.1018  0.1675  0.1025
 4764TIP3    H135927   4.303   2.815   3.282 -0.0112  1.4159  1.2150
 4764TIP3    H235928   4.400   2.862   3.176 -0.1092 -0.3517  0.2995
 4765TIP3   OH235929   1.473   1.041   0.217  0.0359  0.8395 -0.7219
 4765TIP3    H135930   1.537   1.091   0.167  0.7354  0.5560 -0.1262
 4765TIP3    H235931   1.526   0.985   0.275 -0.7452  1.6616  0.8345
 4766TIP3   OH235932   1.122   4.126   2.619 -0.0095 -0.0199 -0.2903
 4766TIP3    H135933   1.158   4.134   2.530 -1.2712 -1.2529 -0.9580
 4766TIP3    H235934   1.193   4.088   2.670  0.0633 -1.3520 -1.3101
 4767TIP3   OH235935   6.198   4.638   3.302 -0.3443  0.3408 -0.0991
 4767TIP3    H135936   6.150   4.608   3.380  0.4234 -0.3003  0.1417
 4767TIP3    H235937   6.177   4.731   3.296 -1.5804  0.0937  0.0167
 4768TIP3   OH235938   4.252   4.024   4.089 -0.0791  0.5558  0.0153
 4768TIP3    H135939   4.287   3.946   4.045 -0.9970 -0.8379  1.6418
 4768TIP3    H235940   4.247   4.090   4.020 -1.4354 -1.5046 -2.0242
 4769TIP3   OH235941   6.027   3.009   3.212 -0.0061  0.2174 -0.0956
 4769TIP3    H135942   6.012   2.997   3.118 -0.1546  0.9932 -0.1803
 4769TIP3    H235943   5.985   3.092   3.232  1.9531  1.1872  0.2084
 4770TIP3   OH235944   6.634   1.363   1.537  0.3215 -0.4752 -0.0264
 4770TIP3    H135945   6.653   1.432   1.601 -0.5926 -0.6076  0.4019
 4770TIP3    H235946   6.596   1.292   1.589 -0.4125 -0.5968 -0.7052
 4771TIP3   OH235947   5.434   1.797   1.429  0.4929  1.0242 -0.2061
 4771TIP3    H135948   5.439   1.795   1.524  3.4946  0.1574 -0.2849
 4771TIP3    H235949   5.359   1.853   1.410 -1.1428 -0.0092  2.6291
 4772TIP3   OH235950   5.420   4.364   2.354 -0.3510 -0.6382  0.5163
 4772TIP3    H135951   5.475   4.363   2.275  0.6417 -1.0566  1.1970
 4772TIP3    H235952   5.331   4.375   2.321  0.0420 -0.9014 -0.6697
 4773TIP3   OH235953   6.289   2.352   1.506  0.0576  0.3222  0.4405
 4773TIP3    H135954   6.253   2.336   1.594 -0.7014  2.6609  0.6049
 4773TIP3    H235955   6.227   2.311   1.446 -0.1784 -0.0441  0.9278
 4774TIP3   OH235956   2.990   1.221   0.569 -0.5291  0.3792 -0.3819
 4774TIP3    H135957   2.936   1.293   0.602 -0.3682 -0.5035  1.9400
 4774TIP3    H235958   2.958   1.144   0.615  1.7078 -0.4136 -0.0616
 4775TIP3   OH235959   6.490   3.354   1.224 -0.8554  0.7012  0.0932
 4775TIP3    H135960   6.548   3.348   1.300 -1.3196  0.9276  0.4753
 4775TIP3    H235961   6.402   3.337   1.260 -0.9056 -0.7954 -0.6746
 4776TIP3   OH235962   2.050   2.029   3.405  0.1425 -0.4432  0.1242
 4776TIP3    H135963   1.968   1.989   3.433  0.7305 -1.3327  0.6068
 4776TIP3    H235964   2.049   2.115   3.447 -1.1937  0.1546 -1.0327
 4777TIP3   OH235965   1.512   4.155   2.724 -0.5326 -0.2194  0.2224
 4777TIP3    H135966   1.521   4.174   2.817 -1.4556 -0.0141  0.2792
 4777TIP3    H235967   1.467   4.070   2.722  1.6171 -1.4259 -0.0388
 4778TIP3   OH235968   0.442   4.233   0.937 -0.1980  0.2302  0.0846
 4778TIP3    H135969   0.388   4.251   1.015  0.6029 -0.6021  0.8562
 4778TIP3    H235970   0.433   4.139   0.923  1.3811 -0.0255  0.5196
 4779TIP3   OH235971   2.249   0.921   1.436 -0.0507 -0.5693  0.0238
 4779TIP3    H135972   2.234   0.993   1.498  0.5036 -1.5496  1.3269
 4779TIP3    H235973   2.325   0.874   1.471 -0.0683 -1.4789 -1.1062
 4780TIP3   OH235974   6.097   3.806   3.378 -0.4212  0.3798 -0.2333
 4780TIP3    H135975   6.151   3.859   3.437 -0.4509  1.3941 -1.0794
 4780TIP3    H235976   6.158   3.778   3.309 -1.0239  1.9248 -1.4511
 4781TIP3   OH235977   2.348   5.897   8.413 -0.4788  0.0724  0.5594
 4781TIP3    H135978   2.408   5.884   8.340 -0.2242  0.1452  0.7555
 4781TIP3    H235979   2.261   5.880   8.376 -0.3501  0.1072  0.2418
 4782TIP3   OH235980   3.146   2.052   2.803 -0.0658 -0.3651  0.6575
 4782TIP3    H135981   3.240   2.039   2.815 -0.2294 -1.2141  1.0911
 4782TIP3    H235982   3.108   2.034   2.889 -0.7791 -1.7434  0.0985
 4783TIP3   OH235983   1.368   5.199   1.992 -0.4795 -0.0687 -0.2198
 4783TIP3    H135984   1.424   5.211   1.915  2.9242  1.3502  2.2066
 4783TIP3    H235985   1.336   5.287   2.012  2.4093  0.5692  2.3574
 4784TIP3   OH235986   4.419   1.027   2.754  0.3267 -0.0339 -0.1208
 4784TIP3    H135987   4.480   1.005   2.684 -0.1740 -0.7958 -0.3188
 4784TIP3    H235988   4.467   1.006   2.835  0.1940 -1.0271 -0.2840
 4785TIP3   OH235989   4.916   4.351   2.998  0.2945 -0.3922  0.1319
 4785TIP3    H135990   4.848   4.304   2.950  1.0055  0.9633 -2.3868
 4785TIP3    H235991   4.994   4.342   2.943  1.4235  0.4616  1.5359
 4786TIP3   OH235992   2.314   6.230   1.380 -0.0172 -0.1428 -0.4096
 4786TIP3    H135993   2.278   6.301   1.433 -0.2243 -1.2911  1.0493
 4786TIP3    H235994   2.237   6.183   1.348  0.1007 -1.7660  1.5484
 4787TIP3   OH235995   6.743   1.716   1.921 -0.0445 -0.9498  0.1089
 4787TIP3    H135996   6.798   1.792   1.941 -1.8251  0.0836  1.3658
 4787TIP3    H235997   6.745   1.664   2.002 -0.5850 -1.1171  0.0156
 4788TIP3   OH235998   1.457   6.368   8.753  0.1363 -0.1332 -0.0969
 4788TIP3    H135999   1.444   6.394   8.662 -1.8367 -0.3235  0.0801
 4788TIP3    H236000   1.485   6.276   8.748  0.6868  0.0503 -0.5134
 4789TIP3   OH236001   6.805   3.063   0.890 -0.0878  0.1320 -0.3944
 4789TIP3    H136002   6.799   2.967   0.892 -0.4122  0.1523 -0.3895
 4789TIP3    H236003   6.872   3.081   0.824 -0.3407 -0.0881 -0.7161
 4790TIP3   OH236004   3.540   5.716   1.444 -0.1167  0.8244 -0.2510
 4790TIP3    H136005   3.502   5.791   1.488  1.2450  0.6138  1.3822
 4790TIP3    H236006   3.624   5.748   1.410  0.3163  0.1677  0.1647
 4791TIP3   OH236007   6.430   0.654   3.965  0.2582 -0.1279  0.3446
 4791TIP3    H136008   6.444   0.563   3.989  0.9071  0.1801  1.1849
 4791TIP3    H236009   6.369   0.687   4.032  0.6482  0.2601  0.5111
 4792TIP3   OH236010   4.746   4.426   2.364 -0.7639 -0.4540  0.4456
 4792TIP3    H136011   4.698   4.343   2.357  0.7941 -1.3969  0.4725
 4792TIP3    H236012   4.721   4.475   2.285 -0.3532 -1.7068 -0.5005
 4793TIP3   OH236013   0.670   0.305   2.826 -0.1961 -0.0113 -0.1816
 4793TIP3    H136014   0.591   0.296   2.880 -0.3233  0.0263 -0.3600
 4793TIP3    H236015   0.637   0.328   2.739 -0.0631 -1.1965 -0.5633
 4794TIP3   OH236016   6.315   0.425   1.881  0.3349 -0.4790 -0.4062
 4794TIP3    H136017   6.268   0.355   1.927 -1.6251  0.9246 -0.1607
 4794TIP3    H236018   6.248   0.488   1.858  1.9866  1.1651 -0.9862
 4795TIP3   OH236019   3.636   0.469   2.486 -0.2018 -0.0767  0.5203
 4795TIP3    H136020   3.581   0.408   2.535 -0.7659  1.1973  1.5284
 4795TIP3    H236021   3.724   0.432   2.493 -0.3937 -0.3438  1.8380
 4796TIP3   OH236022   6.541   3.801   2.081  0.1651  0.0321  0.0428
 4796TIP3    H136023   6.574   3.726   2.032  2.0533 -1.7860  3.6880
 4796TIP3    H236024   6.498   3.762   2.158 -1.2319  2.6946  0.7353
 4797TIP3   OH236025   4.283   1.700   1.776  0.3562 -0.5030  0.1749
 4797TIP3    H136026   4.323   1.673   1.694 -1.7055 -0.5266 -0.8613
 4797TIP3    H236027   4.307   1.792   1.786 -0.8010  0.0004 -1.3767
 4798TIP3   OH236028   0.670   6.620   8.626 -1.0119 -0.4093  0.5677
 4798TIP3    H136029   0.686   6.712   8.604 -1.9126 -0.2161  0.6509
 4798TIP3    H236030   0.703   6.571   8.551 -2.4709  0.1333 -0.4959
 4799TIP3   OH236031   0.415   2.238   0.302 -0.3044  0.0929  0.0622
 4799TIP3    H136032   0.384   2.326   0.282 -0.6054  0.1137  0.5893
 4799TIP3    H236033   0.341   2.181   0.280 -1.2799  0.2626  2.5741
 4800TIP3   OH236034   3.470   2.156   0.334 -0.5270  0.2648  0.1992
 4800TIP3    H136035   3.537   2.096   0.366 -1.9672 -0.6046  1.7421
 4800TIP3    H236036   3.388   2.109   0.346 -1.4837  1.4805 -1.1982
 4801TIP3   OH236037   6.755   0.234   4.142 -0.0495  0.0797  0.2464
 4801TIP3    H136038   6.756   0.236   4.238 -0.1463  0.0307  0.2487
 4801TIP3    H236039   6.720   0.148   4.120  0.1922 -0.0003  0.1656
 4802TIP3   OH236040   2.226   1.708   1.451  0.0897 -0.1974 -0.0729
 4802TIP3    H136041   2.148   1.654   1.464 -0.9918  0.8315 -1.9683
 4802TIP3    H236042   2.298   1.645   1.451 -0.8429 -1.3006  0.6212
 4803TIP3   OH236043   5.725   0.966   1.653  0.3070  0.2831  0.4361
 4803TIP3    H136044   5.805   0.947   1.604 -0.1778  0.0411 -0.2822
 4803TIP3    H236045   5.658   0.913   1.610 -1.0461  3.2476 -1.3761
 4804TIP3   OH236046   2.858   2.577   4.257 -0.6719  0.6920 -0.3921
 4804TIP3    H136047   2.814   2.505   4.212 -0.3302  0.4455 -0.3387
 4804TIP3    H236048   2.936   2.537   4.296 -0.5375  1.0671 -0.2683
 4805TIP3   OH236049   1.221   6.109   2.312 -0.2717  0.6129  0.2388
 4805TIP3    H136050   1.225   6.066   2.398  2.2421 -0.3359 -0.2671
 4805TIP3    H236051   1.226   6.203   2.332 -0.7612  0.4667  1.1413
 4806TIP3   OH236052   5.210   2.507   3.799 -0.0313  0.5288 -0.0827
 4806TIP3    H136053   5.257   2.590   3.814  0.1857  0.9018 -2.3493
 4806TIP3    H236054   5.263   2.441   3.843  0.6882  1.4066  0.4015
 4807TIP3   OH236055   6.735   6.681   0.068  0.0581  0.2379 -0.7769
 4807TIP3    H136056   6.803   6.615   0.085 -0.5203 -0.5278 -1.3497
 4807TIP3    H236057   6.766   6.760   0.113 -0.3111 -1.0176  1.9372
 4808TIP3   OH236058   2.504   5.426   0.563 -0.0132  0.6484  0.5894
 4808TIP3    H136059   2.484   5.497   0.502 -0.6533 -0.9601 -1.1919
 4808TIP3    H236060   2.419   5.393   0.590  0.2737  0.9302  1.9160
 4809TIP3   OH236061   6.749   5.353   1.280  0.3535  0.2356 -0.1398
 4809TIP3    H136062   6.750   5.405   1.360  0.2457  0.8128 -0.5104
 4809TIP3    H236063   6.841   5.332   1.264  0.2711 -1.0977  0.9028
 4810TIP3   OH236064   1.909   2.804   1.244  0.4495 -0.4631 -0.0229
 4810TIP3    H136065   1.826   2.852   1.239  0.6948 -0.1001 -0.7072
 4810TIP3    H236066   1.976   2.868   1.221  0.9273 -0.7526  0.5384
 4811TIP3   OH236067   5.942   6.545   0.952  0.2129 -0.0382  0.8308
 4811TIP3    H136068   6.012   6.501   0.903  0.1010  1.5381 -0.8247
 4811TIP3    H236069   5.868   6.484   0.947  0.8481 -0.8430  0.9107
 4812TIP3   OH236070   2.695   4.380   3.895 -0.4659 -0.2083 -0.1587
 4812TIP3    H136071   2.642   4.458   3.880 -2.6541 -1.9761 -2.6173
 4812TIP3    H236072   2.740   4.366   3.811  2.2214 -0.0482  1.1552
 4813TIP3   OH236073   0.160   4.368   3.033 -0.2170  0.2288  0.4123
 4813TIP3    H136074   0.103   4.352   2.958  1.3450  0.4478 -0.8826
 4813TIP3    H236075   0.152   4.462   3.049 -0.3914  0.2185  0.3945
 4814TIP3   OH236076   1.345   0.932   3.326 -0.0618 -0.2122 -0.4266
 4814TIP3    H136077   1.391   0.950   3.244 -0.4775  0.8688 -0.4409
 4814TIP3    H236078   1.401   0.869   3.372  0.1006 -0.9450 -1.5928
 4815TIP3   OH236079   6.221   6.452   8.126  0.3395  0.2109 -0.6190
 4815TIP3    H136080   6.129   6.437   8.103  0.2399  2.1712 -1.6286
 4815TIP3    H236081   6.269   6.436   8.045  1.1739 -2.4752  0.2785
 4816TIP3   OH236082   3.974   5.261   0.357 -0.0282  0.0136 -0.5022
 4816TIP3    H136083   3.926   5.339   0.330  0.5354  0.2443 -0.8575
 4816TIP3    H236084   4.038   5.293   0.420  0.9592  0.0306 -1.4935
 4817TIP3   OH236085   5.534   0.354   2.473 -0.1817 -0.0856  0.2949
 4817TIP3    H136086   5.499   0.295   2.406  1.0659 -0.8456  0.3016
 4817TIP3    H236087   5.627   0.334   2.478 -0.1470  0.2958  1.9171
 4818TIP3   OH236088   5.134   5.553   1.998  0.1545  0.8354  0.1322
 4818TIP3    H136089   5.174   5.502   1.927  0.4185  2.6665 -1.0991
 4818TIP3    H236090   5.041   5.530   1.993 -0.2539  2.6183 -2.4145
 4819TIP3   OH236091   3.813   2.273   4.404  0.4137 -0.0251  0.5250
 4819TIP3    H136092   3.770   2.188   4.393  0.6157 -0.1010  0.3104
 4819TIP3    H236093   3.745   2.337   4.384  0.6372 -0.1523 -0.7270
 4820TIP3   OH236094   5.534   4.791   8.742 -0.1485 -0.9859 -0.5677
 4820TIP3    H136095   5.621   4.787   8.704  0.0730  2.0776 -0.6213
 4820TIP3    H236096   5.535   4.870   8.797 -2.4748 -1.6077  0.5000
 4821TIP3   OH236097   5.095   3.069   4.295 -0.0601  0.2671  0.2108
 4821TIP3    H136098   5.099   3.160   4.265 -0.8201  0.6481  1.2277
 4821TIP3    H236099   5.170   3.027   4.253  0.1411  1.2915 -0.4925
 4822TIP3   OH236100   2.070   2.583   2.962 -0.7103 -0.6850 -0.4633
 4822TIP3    H136101   2.083   2.570   3.056 -1.8924 -1.7275 -0.4217
 4822TIP3    H236102   2.130   2.521   2.921 -1.6316 -1.6865 -0.3448
 4823TIP3   OH236103   6.513   0.227   3.557  0.0554  0.4027  0.0153
 4823TIP3    H136104   6.501   0.238   3.652 -0.2837  2.7860 -0.2479
 4823TIP3    H236105   6.605   0.246   3.542  0.3491 -0.9413 -0.0685
 4824TIP3   OH236106   1.176   6.208   2.710  0.8071 -0.0007 -0.0497
 4824TIP3    H136107   1.173   6.249   2.623 -1.9086 -1.7049 -0.9104
 4824TIP3    H236108   1.093   6.160   2.716  2.2764 -2.5248  2.2255
 4825TIP3   OH236109   4.195   6.527   0.375 -0.3176  1.2965  0.1882
 4825TIP3    H136110   4.158   6.607   0.338  0.2085  1.8516  0.8254
 4825TIP3    H236111   4.214   6.472   0.300  0.5781  2.3230 -0.3631
 4826TIP3   OH236112   2.062   2.062   2.217 -0.4033 -0.2453 -0.7039
 4826TIP3    H136113   2.128   2.130   2.231 -1.5090  1.6172 -3.5764
 4826TIP3    H236114   2.084   1.994   2.280  0.2804  3.0721  3.0594
 4827TIP3   OH236115   3.472   3.925   1.875  0.1260 -0.0134  0.0750
 4827TIP3    H136116   3.414   3.962   1.808  0.3221 -0.3303 -0.2783
 4827TIP3    H236117   3.449   3.971   1.955  0.1729  0.6633 -0.2968
 4828TIP3   OH236118   6.622   1.083   1.340  1.0749 -0.7887  0.0689
 4828TIP3    H136119   6.557   1.029   1.296 -1.3480  0.7464  1.5132
 4828TIP3    H236120   6.650   1.032   1.415 -0.8422 -0.3434  1.1589
 4829TIP3   OH236121   1.245   4.743   0.850  0.2802 -0.3453  0.1753
 4829TIP3    H136122   1.287   4.724   0.766  0.3053  0.5989 -0.0373
 4829TIP3    H236123   1.159   4.702   0.844  0.8628 -1.6140  0.3028
 4830TIP3   OH236124   2.087   5.682   0.257  0.2577 -0.5394 -0.7444
 4830TIP3    H136125   2.156   5.734   0.215  0.8869 -1.2775 -0.6574
 4830TIP3    H236126   2.016   5.680   0.194  0.9553 -1.1214 -1.5316
 4831TIP3   OH236127   2.380   3.079   8.512 -0.6352 -0.0265  0.4309
 4831TIP3    H136128   2.305   3.129   8.481 -1.4013  0.3599  2.7206
 4831TIP3    H236129   2.427   3.055   8.433 -1.4914  2.3467 -0.8977
 4832TIP3   OH236130   4.128   3.956   0.369  0.2700 -0.3776 -0.2376
 4832TIP3    H136131   4.043   4.000   0.380 -0.0652 -1.0629 -0.0094
 4832TIP3    H236132   4.190   4.027   0.354  0.1705  0.3885  2.4930
 4833TIP3   OH236133   4.350   4.590   2.998 -0.0396  0.2468  0.0802
 4833TIP3    H136134   4.405   4.633   3.063  1.7905  0.9919 -1.8360
 4833TIP3    H236135   4.274   4.648   2.989 -0.6221 -0.1576  1.8651
 4834TIP3   OH236136   4.333   6.095   3.026 -0.4191 -0.5503  0.2821
 4834TIP3    H136137   4.319   6.089   3.121  0.6759 -0.1540  0.4892
 4834TIP3    H236138   4.384   6.175   3.015 -0.1895 -0.8109 -0.6061
 4835TIP3   OH236139   3.850   3.866   0.981 -0.4899 -0.0775  0.4152
 4835TIP3    H136140   3.946   3.868   0.985 -0.3335  2.9999 -1.2943
 4835TIP3    H236141   3.830   3.798   0.917  0.4057 -1.7722  1.8551
 4836TIP3   OH236142   3.026   4.607   2.069  0.2427 -0.1055  0.1088
 4836TIP3    H136143   2.945   4.565   2.040 -0.8112  1.3101  0.8356
 4836TIP3    H236144   3.085   4.535   2.089 -1.1234 -1.2059  0.3503
 4837TIP3   OH236145   5.549   6.619   3.724 -0.3959 -0.3907  0.1040
 4837TIP3    H136146   5.471   6.672   3.739 -0.1915  0.2503 -1.0128
 4837TIP3    H236147   5.573   6.587   3.811 -0.0783  1.9645  0.9444
 4838TIP3   OH236148   6.133   5.857   4.171 -0.0277 -0.0761  0.0374
 4838TIP3    H136149   6.187   5.904   4.107 -1.2967  0.9339 -0.3384
 4838TIP3    H236150   6.087   5.792   4.119  0.3966 -0.5679  0.2678
 4839TIP3   OH236151   1.932   1.888   2.032  0.3049 -0.0014 -0.1069
 4839TIP3    H136152   1.985   1.944   2.089 -0.2600  0.4851 -0.0422
 4839TIP3    H236153   1.904   1.946   1.961 -0.0781 -0.2593 -0.1694
 4840TIP3   OH236154   3.636   1.202   8.382 -0.2842 -0.4080  0.5097
 4840TIP3    H136155   3.663   1.219   8.292 -1.0712  1.4622  0.5707
 4840TIP3    H236156   3.604   1.112   8.382  1.1569 -0.9622 -0.6982
 4841TIP3   OH236157   6.784   0.960   1.967  0.1416  0.7817  0.4936
 4841TIP3    H136158   6.814   1.005   2.046  1.6898  1.3283 -0.3552
 4841TIP3    H236159   6.863   0.947   1.915 -0.7018 -0.4088 -0.5574
 4842TIP3   OH236160   1.849   1.614   8.581  0.1346 -0.4602  0.4931
 4842TIP3    H136161   1.922   1.666   8.614 -0.0798 -1.3064  2.4016
 4842TIP3    H236162   1.891   1.542   8.534  0.5176 -0.6587  1.1339
 4843TIP3   OH236163   2.498   0.853   8.245  0.0609 -0.0588  0.4676
 4843TIP3    H136164   2.459   0.776   8.203 -0.3382  0.4819 -0.1588
 4843TIP3    H236165   2.463   0.852   8.334 -0.2511 -0.3800  0.3428
 4844TIP3   OH236166   1.180   1.486   8.648 -0.5784 -0.1475 -0.5751
 4844TIP3    H136167   1.160   1.515   8.559 -0.3103  1.3232 -0.1842
 4844TIP3    H236168   1.167   1.564   8.702  2.0117 -0.2199  0.2791
 4845TIP3   OH236169   4.896   1.213   1.920  0.3515 -0.1678 -0.1255
 4845TIP3    H136170   4.893   1.264   2.001  0.7204  0.8777 -0.7341
 4845TIP3    H236171   4.806   1.213   1.888  0.3740  0.2624 -0.2007
 4846TIP3   OH236172   1.106   1.986   3.990 -0.2990 -0.0890 -0.0506
 4846TIP3    H136173   1.188   2.026   3.962 -0.8522  0.3748 -1.0620
 4846TIP3    H236174   1.126   1.892   3.994 -0.0524 -0.1360 -1.5995
 4847TIP3   OH236175   6.080   1.906   8.355 -0.4678  0.1760  0.2096
 4847TIP3    H136176   6.023   1.837   8.387  0.4176 -0.6719 -0.0185
 4847TIP3    H236177   6.094   1.884   8.263  0.7020  0.0431  0.4108
 4848TIP3   OH236178   5.599   1.592   2.754 -0.1211  0.1383 -0.2698
 4848TIP3    H136179   5.689   1.560   2.745  0.6220  1.0596  2.7798
 4848TIP3    H236180   5.566   1.550   2.834 -2.1895  0.3266 -0.9619
 4849TIP3   OH236181   5.741   4.577   0.591 -0.1232 -0.0991  0.0847
 4849TIP3    H136182   5.830   4.595   0.622  0.2380 -1.2755 -0.2310
 4849TIP3    H236183   5.746   4.490   0.553 -1.2113  0.2049 -0.7858
 4850TIP3   OH236184   0.461   1.115   0.587  0.0444 -0.1100  0.4722
 4850TIP3    H136185   0.376   1.157   0.578  0.1219  0.8974  3.4286
 4850TIP3    H236186   0.441   1.023   0.604 -0.5165  0.1568  1.3512
 4851TIP3   OH236187   5.509   1.844   1.140 -0.3381 -0.3191 -0.7373
 4851TIP3    H136188   5.503   1.819   1.232 -0.2164 -0.4200 -0.7563
 4851TIP3    H236189   5.563   1.923   1.140 -0.3268 -0.3268 -0.7231
 4852TIP3   OH236190   0.142   2.665   1.717  0.4807  0.1589  0.1457
 4852TIP3    H136191   0.118   2.648   1.626  3.1903 -0.4793 -0.5472
 4852TIP3    H236192   0.124   2.758   1.730 -1.3196 -0.0572 -0.5241
 4853TIP3   OH236193   4.080   2.785   1.174 -0.5486 -0.8127 -0.4211
 4853TIP3    H136194   4.138   2.859   1.188 -0.9397 -0.7466  0.9944
 4853TIP3    H236195   4.127   2.728   1.113  1.2957 -1.0755  1.1586
 4854TIP3   OH236196   2.139   5.540   2.355 -0.1951  0.5544  0.0521
 4854TIP3    H136197   2.106   5.592   2.428 -1.3345  0.5503 -0.4372
 4854TIP3    H236198   2.110   5.450   2.374 -0.7649  0.6036 -0.5368
 4855TIP3   OH236199   0.034   4.756   2.150 -0.0493  0.2209 -0.5454
 4855TIP3    H136200   0.009   4.666   2.171  0.1072  0.3075  0.0500
 4855TIP3    H236201   0.080   4.786   2.228  0.8851  0.4524 -1.1713
 4856TIP3   OH236202   3.359   6.159   2.526  0.2865 -0.8409  0.0999
 4856TIP3    H136203   3.374   6.211   2.448 -0.0325 -0.0572  0.5457
 4856TIP3    H236204   3.265   6.163   2.540  0.2010 -1.8808 -0.0782
 4857TIP3   OH236205   2.938   1.256   1.564 -0.3405 -0.7528  0.6415
 4857TIP3    H136206   2.855   1.218   1.593 -1.8495  0.6767 -1.4911
 4857TIP3    H236207   2.958   1.212   1.481  0.4611 -0.3186  0.5865
 4858TIP3   OH236208   4.198   1.212   1.353  0.0290 -0.1827  0.0932
 4858TIP3    H136209   4.266   1.257   1.303 -1.7811  0.7155 -1.7312
 4858TIP3    H236210   4.136   1.281   1.377 -0.7932 -1.1246  0.7655
 4859TIP3   OH236211   5.712   0.703   3.579 -0.4179  1.1739 -0.2351
 4859TIP3    H136212   5.761   0.763   3.522  2.2960  0.7466  1.4800
 4859TIP3    H236213   5.722   0.739   3.667 -0.1040 -0.8538  0.6247
 4860TIP3   OH236214   2.487   0.694   0.578  0.7904  0.0683 -0.2034
 4860TIP3    H136215   2.500   0.631   0.649 -0.1245  0.8470  0.6890
 4860TIP3    H236216   2.560   0.756   0.587  0.0274  0.8613  0.8618
 4861TIP3   OH236217   4.880   5.811   1.850 -0.8226  0.8385 -0.5208
 4861TIP3    H136218   4.941   5.824   1.923 -1.1357  0.7004 -0.2302
 4861TIP3    H236219   4.923   5.852   1.775 -0.3763  0.7479 -0.3168
 4862TIP3   OH236220   5.287   0.712   2.000 -1.0027  0.2697 -0.3953
 4862TIP3    H136221   5.228   0.721   1.924 -0.4997 -0.6499 -0.9102
 4862TIP3    H236222   5.340   0.636   1.980 -0.1454  0.6365  0.4243
 4863TIP3   OH236223   3.292   2.097   0.045 -0.5809 -0.1940  1.1527
 4863TIP3    H136224   3.240   2.018   0.030  0.1959 -0.6316  0.7386
 4863TIP3    H236225   3.264   2.157  -0.025 -0.6381 -0.3702  1.0251
 4864TIP3   OH236226   4.236   1.383   2.762  0.1539  0.2701 -0.3229
 4864TIP3    H136227   4.239   1.381   2.858  2.3305 -0.6003 -0.3316
 4864TIP3    H236228   4.149   1.349   2.740 -1.1627  2.3449  1.3151
 4865TIP3   OH236229   1.564   0.991   2.161 -0.7432 -0.2380  0.5240
 4865TIP3    H136230   1.536   1.055   2.096  0.9425  0.3470  0.3177
 4865TIP3    H236231   1.575   1.041   2.242  1.8085  0.1009  0.0700
 4866TIP3   OH236232   4.624   1.913   0.174 -0.6951  0.0041  0.4800
 4866TIP3    H136233   4.701   1.965   0.197  1.0617 -2.3833  0.4188
 4866TIP3    H236234   4.597   1.873   0.257 -1.7132  0.5942  0.4455
 4867TIP3   OH236235   5.597   2.074   1.224 -0.7612 -0.2288  0.0577
 4867TIP3    H136236   5.666   2.137   1.243  0.0995 -0.9741 -0.4797
 4867TIP3    H236237   5.552   2.061   1.307 -0.8112  0.9155  0.2161
 4868TIP3   OH236238   2.423   2.597   0.091  0.0415 -0.2625  0.1831
 4868TIP3    H136239   2.449   2.507   0.110 -1.6010 -0.6059  0.9531
 4868TIP3    H236240   2.485   2.651   0.141 -0.4621 -1.0322  1.7041
 4869TIP3   OH236241   5.539   2.101   3.303 -0.0419  0.0615  0.2439
 4869TIP3    H136242   5.608   2.081   3.240 -0.3819 -1.4588  0.3040
 4869TIP3    H236243   5.502   2.015   3.326 -1.3851  0.7701  0.8492
 4870TIP3   OH236244   1.341   4.966   2.642 -0.2484 -0.0434  0.6317
 4870TIP3    H136245   1.328   4.904   2.714 -0.4964 -0.3238  0.3478
 4870TIP3    H236246   1.393   4.918   2.578 -0.3824  0.0643  0.4410
 4871TIP3   OH236247   4.286   0.139   2.774  0.3783  0.5919 -0.3263
 4871TIP3    H136248   4.191   0.129   2.778  0.1061  2.1981 -1.4789
 4871TIP3    H236249   4.311   0.169   2.862 -0.8798  4.5031 -1.1009
 4872TIP3   OH236250   4.795   3.165   3.996  0.2578 -0.0747  0.1245
 4872TIP3    H136251   4.700   3.155   4.000  0.0399  1.3914 -0.5865
 4872TIP3    H236252   4.830   3.077   4.010 -1.2445 -0.8981 -1.1173
 4873TIP3   OH236253   5.987   6.064   2.998  0.6815 -0.1942  0.1276
 4873TIP3    H136254   5.966   5.998   3.064 -0.4809  0.7034  0.7049
 4873TIP3    H236255   5.901   6.093   2.965  1.1288  1.2915  0.1936
 4874TIP3   OH236256   0.797   2.392   2.681 -1.4882 -0.1643 -0.0838
 4874TIP3    H136257   0.830   2.358   2.598  2.1585  0.9286  0.7299
 4874TIP3    H236258   0.766   2.480   2.660 -2.6346 -0.6618 -0.5975
 4875TIP3   OH236259   2.745   2.367   4.120 -0.0417  0.2810  0.4978
 4875TIP3    H136260   2.753   2.279   4.158  1.6252 -0.5303 -1.4903
 4875TIP3    H236261   2.708   2.352   4.033  0.7329  1.4574 -0.0648
 4876TIP3   OH236262   1.100   6.011   3.914 -0.5872  0.3997 -0.4146
 4876TIP3    H136263   1.023   6.067   3.907 -1.9825 -1.2233  1.0052
 4876TIP3    H236264   1.110   5.972   3.827 -1.3439  0.6669 -0.6270
 4877TIP3   OH236265   2.787   4.310   1.243 -0.0801 -0.3236 -0.0915
 4877TIP3    H136266   2.859   4.355   1.289 -0.5538 -0.0703  0.4104
 4877TIP3    H236267   2.829   4.271   1.166  0.9371 -1.5968  1.0447
 4878TIP3   OH236268   6.377   1.551   1.211  0.2657 -0.2563  0.6909
 4878TIP3    H136269   6.424   1.479   1.253  0.4412  0.2689  1.4183
 4878TIP3    H236270   6.334   1.511   1.135 -0.9792 -1.4636  1.9699
 4879TIP3   OH236271   6.377   4.734   1.560 -0.0507  0.1653 -0.3239
 4879TIP3    H136272   6.361   4.729   1.466  0.9724  1.5847 -0.6017
 4879TIP3    H236273   6.396   4.827   1.576  2.7508 -0.4928  0.7707
 4880TIP3   OH236274   5.740   3.919   2.341 -0.4250  0.9178 -0.1471
 4880TIP3    H136275   5.714   3.826   2.337  1.0796  0.3943  1.1965
 4880TIP3    H236276   5.792   3.932   2.261  1.1038 -0.0186  0.6411
 4881TIP3   OH236277   2.438   3.738   1.299 -0.2195  0.0491  0.2305
 4881TIP3    H136278   2.465   3.709   1.387  1.0314  0.7942  0.1259
 4881TIP3    H236279   2.359   3.688   1.281  0.9353 -2.1216  0.6987
 4882TIP3   OH236280   0.290   5.608   0.737  0.7311  0.4004 -0.3279
 4882TIP3    H136281   0.198   5.613   0.762  0.5149 -2.5794 -0.1691
 4882TIP3    H236282   0.337   5.601   0.820  0.7999 -0.8013 -0.4416
 4883TIP3   OH236283   1.437   1.332   1.311 -0.1634  0.4117  0.1261
 4883TIP3    H136284   1.407   1.418   1.283  0.0592  0.5494  0.3032
 4883TIP3    H236285   1.363   1.274   1.295  0.1566  0.3627 -1.2895
 4884TIP3   OH236286   2.574   4.426   0.058  0.4033  0.0181  0.2465
 4884TIP3    H136287   2.628   4.352   0.029  0.2820  0.3188 -0.8027
 4884TIP3    H236288   2.630   4.474   0.118  1.1577  0.0694 -0.4691
 4885TIP3   OH236289   5.062   0.168   1.508 -0.1149 -0.5895 -0.1393
 4885TIP3    H136290   5.044   0.075   1.493  0.1498 -0.5680 -0.6018
 4885TIP3    H236291   4.981   0.202   1.546 -1.7478 -0.1502 -3.6160
 4886TIP3   OH236292   5.509   3.584   0.711  0.2572  0.0855  0.4742
 4886TIP3    H136293   5.512   3.496   0.672  2.7277  0.5638 -0.6670
 4886TIP3    H236294   5.487   3.569   0.803 -1.7453 -1.4619 -0.1861
 4887TIP3   OH236295   0.143   3.019   1.437 -0.0995 -0.3069  0.6610
 4887TIP3    H136296   0.097   2.956   1.382  0.4194  1.0101 -1.4415
 4887TIP3    H236297   0.234   2.989   1.438 -0.0240 -0.0976  0.3959
 4888TIP3   OH236298   2.086   1.402   3.150 -0.1338  0.6515  0.1627
 4888TIP3    H136299   2.059   1.472   3.210  1.4915  0.8996  0.6574
 4888TIP3    H236300   2.115   1.331   3.208  1.3869  0.8655 -0.2912
 4889TIP3   OH236301   5.452   6.645   0.976 -0.3426  0.1181 -0.0301
 4889TIP3    H136302   5.417   6.709   1.038  0.4238  0.2384  0.2811
 4889TIP3    H236303   5.525   6.604   1.022  0.0099 -0.0461 -0.7265
 4890TIP3   OH236304   1.231   5.321   1.313  0.5660 -0.1019  0.1594
 4890TIP3    H136305   1.283   5.254   1.357 -1.9656 -0.8526  2.2406
 4890TIP3    H236306   1.276   5.335   1.230  2.1144 -3.1968  0.3184
 4891TIP3   OH236307   4.964   3.761   3.433 -0.6092  0.2343  0.7492
 4891TIP3    H136308   4.977   3.692   3.368 -0.2767 -0.1327  1.1997
 4891TIP3    H236309   4.945   3.715   3.515  0.5355  0.6286  1.2688
 4892TIP3   OH236310   6.164   2.817   8.525  0.2515  0.2940  0.4677
 4892TIP3    H136311   6.069   2.817   8.523  0.2526  0.7157  0.0981
 4892TIP3    H236312   6.186   2.833   8.617 -0.0416  0.6881  0.4750
 4893TIP3   OH236313   2.430   3.940   2.168 -0.3192  0.1398  0.1830
 4893TIP3    H136314   2.518   3.933   2.131  0.1812  1.6881  0.9720
 4893TIP3    H236315   2.388   4.009   2.117 -0.4859  0.5584  0.8708
 4894TIP3   OH236316   2.045   4.902   2.403 -0.4572 -0.6206 -0.3945
 4894TIP3    H136317   2.063   4.963   2.331 -0.2556 -1.9381 -1.5145
 4894TIP3    H236318   1.960   4.929   2.437 -0.3377  0.3253 -0.8115
 4895TIP3   OH236319   1.446   6.210   1.996 -0.3423  0.5343  0.1260
 4895TIP3    H136320   1.412   6.250   2.076 -0.0591 -0.6249  0.8383
 4895TIP3    H236321   1.512   6.148   2.026 -1.3828 -1.1282 -0.8777
 4896TIP3   OH236322   3.224   1.685   0.968 -0.3462  0.4158  0.1476
 4896TIP3    H136323   3.167   1.755   0.940 -1.3200  0.2016  1.4845
 4896TIP3    H236324   3.306   1.728   0.991 -0.9484  1.1520  0.9961
 4897TIP3   OH236325   1.398   0.478   1.520  0.2469 -0.1742  0.5293
 4897TIP3    H136326   1.411   0.535   1.445  0.0300 -1.1354 -0.2606
 4897TIP3    H236327   1.433   0.527   1.595  0.4274  0.8062 -0.1908
 4898TIP3   OH236328   1.612   4.441   1.826  0.4904  0.0704  0.1700
 4898TIP3    H136329   1.609   4.364   1.768  0.9713  1.5038 -1.8755
 4898TIP3    H236330   1.592   4.514   1.768 -1.4907  1.3671  2.3816
 4899TIP3   OH236331   4.334   4.713   0.546  0.0559 -0.3686 -0.3296
 4899TIP3    H136332   4.358   4.770   0.620 -0.9500 -2.4160  1.7089
 4899TIP3    H236333   4.408   4.720   0.485  1.5849  0.3891  1.5010
 4900TIP3   OH236334   1.671   0.432   4.297 -0.4407 -0.4330 -0.0352
 4900TIP3    H136335   1.637   0.378   4.225 -0.6887  0.3244 -0.4961
 4900TIP3    H236336   1.742   0.379   4.335 -1.0327 -1.3197 -0.1186
 4901TIP3   OH236337   3.677   0.518   0.182 -0.5672 -0.3273  0.1516
 4901TIP3    H136338   3.648   0.609   0.188 -1.9705 -0.7075 -0.3249
 4901TIP3    H236339   3.603   0.467   0.215 -0.5079 -1.3681 -1.1999
 4902TIP3   OH236340   0.178   3.387   1.649  0.3378 -0.5904 -0.5993
 4902TIP3    H136341   0.106   3.366   1.709  0.5779 -1.3077 -0.5582
 4902TIP3    H236342   0.134   3.426   1.573  0.1330  1.7002  0.6038
 4903TIP3   OH236343   1.770   6.112   8.450 -0.1924 -0.7657  0.1184
 4903TIP3    H136344   1.846   6.118   8.393 -1.0971  0.4497 -1.0278
 4903TIP3    H236345   1.698   6.087   8.392 -0.6667 -2.1048  1.2105
 4904TIP3   OH236346   0.840   4.023   0.583  0.6547 -0.1656  0.8701
 4904TIP3    H136347   0.840   3.960   0.511 -1.0164 -1.1470  1.6677
 4904TIP3    H236348   0.863   4.107   0.541 -1.5734 -0.4261 -1.1068
 4905TIP3   OH236349   0.122   5.317   2.741 -0.0898 -0.2716 -0.3745
 4905TIP3    H136350   0.031   5.343   2.758 -0.7557 -2.2374 -0.6844
 4905TIP3    H236351   0.154   5.286   2.826  0.7093  1.4183 -0.0014
 4906TIP3   OH236352   1.910   3.800   2.067 -0.1654 -0.2517 -0.5886
 4906TIP3    H136353   1.928   3.839   2.153 -0.3883 -0.7220 -0.3280
 4906TIP3    H236354   1.819   3.771   2.073  0.0867 -1.0756 -0.6790
 4907TIP3   OH236355   4.202   6.810   3.147  0.3358  0.1633 -0.4627
 4907TIP3    H136356   4.193   6.825   3.053  1.3873 -0.1602 -0.6278
 4907TIP3    H236357   4.116   6.831   3.183  0.1183  0.9417 -1.4055
 4908TIP3   OH236358   5.048   5.318   1.144  0.1226 -0.8992 -0.5040
 4908TIP3    H136359   5.107   5.251   1.178 -0.2073 -0.8875  0.0963
 4908TIP3    H236360   4.984   5.332   1.214 -1.4339 -1.9198 -1.6465
 4909TIP3   OH236361   5.183   0.402   1.403 -0.2099  0.1207  0.1035
 4909TIP3    H136362   5.131   0.322   1.407  0.4596 -0.3271 -0.0791
 4909TIP3    H236363   5.186   0.434   1.493  0.4708 -0.6696  0.3676
 4910TIP3   OH236364   3.720   3.768   2.100 -0.2623  0.0550 -0.5904
 4910TIP3    H136365   3.713   3.778   2.195 -1.6662  0.4640 -0.7167
 4910TIP3    H236366   3.657   3.700   2.078 -1.0845  1.0338 -1.3907
 4911TIP3   OH236367   5.996   6.248   8.591  0.6213  0.2857  0.2151
 4911TIP3    H136368   5.978   6.326   8.643 -1.2620  1.3646 -1.8929
 4911TIP3    H236369   5.910   6.206   8.580  1.2234 -0.7805 -0.6721
 4912TIP3   OH236370   2.940   3.136   3.328 -0.5555 -0.3924  0.2515
 4912TIP3    H136371   3.002   3.133   3.255 -1.1092 -0.2489 -0.2414
 4912TIP3    H236372   2.965   3.063   3.384 -0.1596 -0.5480 -0.1212
 4913TIP3   OH236373   0.860   4.888   1.534 -0.2045 -0.3995 -0.3267
 4913TIP3    H136374   0.944   4.898   1.580 -0.5457  0.6184  0.1052
 4913TIP3    H236375   0.861   4.957   1.467 -1.0908  0.2550  0.3162
 4914TIP3   OH236376   6.330   4.375   2.171 -0.2167  0.2373  0.6575
 4914TIP3    H136377   6.380   4.324   2.235  0.3874 -1.0252 -0.7622
 4914TIP3    H236378   6.389   4.446   2.145  0.1265 -0.1456  0.3808
 4915TIP3   OH236379   1.271   0.592   2.438  0.5471  0.7977 -0.1116
 4915TIP3    H136380   1.304   0.639   2.362  0.7922  0.3330 -0.2974
 4915TIP3    H236381   1.181   0.622   2.447  1.2930  2.8725  1.0367
 4916TIP3   OH236382   4.683   6.431   3.317  0.0315 -0.0062 -0.2805
 4916TIP3    H136383   4.595   6.394   3.304 -0.1094 -0.1002  0.8150
 4916TIP3    H236384   4.724   6.426   3.231 -0.5442 -1.2883 -0.5056
 4917TIP3   OH236385   5.609   6.154   3.223  0.6113 -0.0779  0.4046
 4917TIP3    H136386   5.679   6.218   3.209 -1.3375  1.9834 -0.7846
 4917TIP3    H236387   5.592   6.118   3.136 -1.0132  0.9178  0.2574
 4918TIP3   OH236388   5.291   4.212   3.798  0.1266  0.5774 -0.2518
 4918TIP3    H136389   5.375   4.241   3.832  0.4100  0.2108 -0.6392
 4918TIP3    H236390   5.250   4.165   3.870  1.1406 -1.0539 -0.7066
 4919TIP3   OH236391   1.714   1.377   1.261  0.3529  0.4202  0.8198
 4919TIP3    H136392   1.748   1.357   1.173  1.1979 -2.0113  1.6278
 4919TIP3    H236393   1.622   1.351   1.257  0.3684  0.3890  0.6420
 4920TIP3   OH236394   1.786   2.717   2.481 -0.3239 -0.4578 -0.2806
 4920TIP3    H136395   1.857   2.779   2.464 -0.7781  0.6343  1.5577
 4920TIP3    H236396   1.821   2.657   2.547 -0.2735 -1.5264 -1.2348
 4921TIP3   OH236397   6.082   2.820   3.407 -0.4233 -0.3391  0.2051
 4921TIP3    H136398   6.083   2.866   3.322 -0.1907  0.0327  0.4076
 4921TIP3    H236399   6.174   2.813   3.432 -0.4192 -1.4430 -0.0980
 4922TIP3   OH236400   0.553   6.802   2.960 -0.6263  0.0476 -0.3894
 4922TIP3    H136401   0.581   6.749   2.885 -0.1428 -0.7330  0.3214
 4922TIP3    H236402   0.493   6.744   3.008 -0.9669  0.5600 -0.1936
 4923TIP3   OH236403   2.753   6.486   3.017  0.6604  0.0689 -0.3461
 4923TIP3    H136404   2.744   6.396   2.985  0.8515  0.3719 -1.2525
 4923TIP3    H236405   2.845   6.493   3.044  0.6278 -0.0209 -0.2063
 4924TIP3   OH236406   0.849   5.645   1.037 -0.7404 -0.2739  0.4371
 4924TIP3    H136407   0.910   5.579   1.003 -0.6832 -0.0655  0.1312
 4924TIP3    H236408   0.778   5.594   1.076 -0.0823 -0.5280  1.3245
 4925TIP3   OH236409   2.203   3.910   8.439 -0.3724  0.0598  0.2859
 4925TIP3    H136410   2.205   3.814   8.436 -1.4064  0.0380 -0.4883
 4925TIP3    H236411   2.212   3.937   8.347 -1.6596  0.6401  0.3069
 4926TIP3   OH236412   4.721   1.908   3.195  1.5130  0.7819 -0.3069
 4926TIP3    H136413   4.699   1.951   3.113 -0.4063 -1.4206 -1.0513
 4926TIP3    H236414   4.766   1.827   3.169 -0.1599 -0.5421  0.6644
 4927TIP3   OH236415   0.116   1.817   1.287  0.3950 -0.6445 -0.7026
 4927TIP3    H136416   0.071   1.751   1.235 -1.6267  0.2739 -0.2185
 4927TIP3    H236417   0.105   1.788   1.377  2.1605 -1.1838 -0.6105
 4928TIP3   OH236418   4.745   3.752   1.601  0.1353 -0.2745 -0.4698
 4928TIP3    H136419   4.650   3.742   1.602  0.2303 -1.6079  1.7163
 4928TIP3    H236420   4.764   3.811   1.674  1.0000  0.1978 -1.0557
 4929TIP3   OH236421   5.534   4.759   2.936  0.6915 -0.3262  0.7756
 4929TIP3    H136422   5.529   4.852   2.957 -1.4931 -0.4310  0.9240
 4929TIP3    H236423   5.543   4.715   3.021  2.0765 -0.2868  0.6858
 4930TIP3   OH236424   1.077   3.910   4.014 -0.5542 -0.0099  0.3637
 4930TIP3    H136425   1.161   3.947   4.042 -1.1872  1.9953 -0.2570
 4930TIP3    H236426   1.094   3.875   3.926  0.1558 -1.7364  1.1268
 4931TIP3   OH236427   3.750   0.610   8.129  0.3525 -0.1931  0.2710
 4931TIP3    H136428   3.825   0.551   8.138 -0.8632 -2.2742 -1.8746
 4931TIP3    H236429   3.694   0.589   8.204  1.0600  0.0322  0.8696
 4932TIP3   OH236430   0.267   6.302   0.396 -0.7601  0.6205  0.5049
 4932TIP3    H136431   0.226   6.312   0.483  0.0126 -1.3122  1.1492
 4932TIP3    H236432   0.194   6.284   0.337 -1.2487  1.4492  0.8516
 4933TIP3   OH236433   6.200   6.358   0.339  0.3583  0.4019 -0.1241
 4933TIP3    H136434   6.252   6.386   0.263  1.5181  0.5197  0.6880
 4933TIP3    H236435   6.148   6.285   0.306 -0.6699  1.6849 -1.5542
 4934TIP3   OH236436   6.758   5.956   1.077  0.0961 -0.0432  0.1658
 4934TIP3    H136437   6.738   5.864   1.096 -2.4481  0.8273  2.2205
 4934TIP3    H236438   6.852   5.964   1.097  0.8230 -2.4937 -1.7208
 4935TIP3   OH236439   2.826   1.477   8.131  0.8799 -0.0036 -0.1149
 4935TIP3    H136440   2.761   1.486   8.200  1.2330  0.0440  0.2214
 4935TIP3    H236441   2.830   1.563   8.089 -0.6143 -0.4982 -1.3869
 4936TIP3   OH236442   0.594   0.077   4.185 -0.2483  0.3595 -0.5361
 4936TIP3    H136443   0.509   0.039   4.207 -1.1254  2.3369 -0.3324
 4936TIP3    H236444   0.649   0.058   4.261 -1.0160  0.5335  0.0777
 4937TIP3   OH236445   5.096   6.847   1.913 -0.2991  0.3302  0.3246
 4937TIP3    H136446   5.134   6.931   1.939  1.3588 -0.9148  2.2260
 4937TIP3    H236447   5.050   6.816   1.991  0.0260 -0.9936  0.0180
 4938TIP3   OH236448   5.682   0.825   8.100 -0.3307 -0.1495 -0.4461
 4938TIP3    H136449   5.714   0.741   8.131  1.0124  0.7594  0.7096
 4938TIP3    H236450   5.644   0.805   8.014 -0.5221 -2.0016  0.0163
 4939TIP3   OH236451   4.032   3.489   3.323  0.3379 -0.1484 -0.2783
 4939TIP3    H136452   3.947   3.532   3.333  0.7455  1.2206 -2.1410
 4939TIP3    H236453   4.022   3.405   3.368 -1.2270  0.9349  1.5451
 4940TIP3   OH236454   6.760   2.473   3.111 -0.1080 -0.3954 -0.4820
 4940TIP3    H136455   6.749   2.568   3.104 -1.1790 -0.4652  0.1230
 4940TIP3    H236456   6.714   2.449   3.191  1.1782 -1.2786  0.0128
 4941TIP3   OH236457   6.064   6.433   0.026  0.3983  0.6679  0.1766
 4941TIP3    H136458   6.151   6.457   0.056  0.2155  0.1869  1.1056
 4941TIP3    H236459   6.009   6.508   0.051  0.5348  0.9726 -0.4120
 4942TIP3   OH236460   5.673   5.277   8.651  0.3544 -0.1440 -0.2220
 4942TIP3    H136461   5.751   5.224   8.666 -0.6326 -1.5512  0.0520
 4942TIP3    H236462   5.669   5.337   8.726  0.4994 -0.9018  0.3934
 4943TIP3   OH236463   2.967   5.090   1.195  0.0000 -0.0348  0.3965
 4943TIP3    H136464   2.906   5.061   1.127  1.1356 -0.6549 -0.3935
 4943TIP3    H236465   2.920   5.075   1.277 -1.2365  0.3310 -0.2219
 4944TIP3   OH236466   4.551   2.620   1.119 -0.8534 -0.1594 -0.4086
 4944TIP3    H136467   4.608   2.559   1.167 -1.3455 -0.8528 -0.6948
 4944TIP3    H236468   4.612   2.684   1.082 -0.1343 -1.3398 -1.3855
 4945TIP3   OH236469   4.079   1.086   0.345  0.2806  0.8245  0.9621
 4945TIP3    H136470   4.061   1.010   0.290  1.2792  0.4267  1.1655
 4945TIP3    H236471   4.104   1.049   0.430  0.9956  1.3593  0.9990
 4946TIP3   OH236472   1.803   4.491   2.569  0.1767  0.7989  0.5213
 4946TIP3    H136473   1.771   4.530   2.487 -3.6480 -0.2746  1.2901
 4946TIP3    H236474   1.814   4.565   2.628 -2.0709  1.2617  0.4633
 4947TIP3   OH236475   3.215   1.728   0.279  0.1635  0.0456 -0.4759
 4947TIP3    H136476   3.309   1.738   0.267  0.3893  1.2127  1.6875
 4947TIP3    H236477   3.205   1.714   0.373 -1.5625 -4.3030 -1.0662
 4948TIP3   OH236478   0.047   6.830   2.592  0.5799  0.6092 -0.3479
 4948TIP3    H136479   0.096   6.792   2.519 -0.1245  0.8974 -0.9874
 4948TIP3    H236480  -0.038   6.852   2.554  0.3360  1.1080  0.4755
 4949TIP3   OH236481   1.296   2.457   1.142  0.4771 -0.8919  0.5960
 4949TIP3    H136482   1.248   2.540   1.132  1.8970 -0.0785  0.2870
 4949TIP3    H236483   1.230   2.390   1.124 -0.3449  0.2047 -0.7249
 4950TIP3   OH236484   6.678   2.045   1.310 -0.0406 -0.1723  0.5867
 4950TIP3    H136485   6.588   2.076   1.315 -0.6322 -1.5841 -0.6068
 4950TIP3    H236486   6.724   2.110   1.257 -0.1604  0.9358  1.8201
 4951TIP3   OH236487   3.689   2.789   2.150 -0.2487 -0.4258  0.4162
 4951TIP3    H136488   3.645   2.725   2.094 -1.2189  0.8458 -0.3290
 4951TIP3    H236489   3.776   2.799   2.110 -0.7246  0.0319 -0.5525
 4952TIP3   OH236490   4.242   2.928   0.315 -0.6852 -0.0549  0.2722
 4952TIP3    H136491   4.189   2.984   0.372 -1.7991  0.1094 -0.8817
 4952TIP3    H236492   4.231   2.840   0.350  0.0385  0.2543  1.3268
 4953TIP3   OH236493   3.948   1.743   3.243  0.0928 -0.3361 -0.4627
 4953TIP3    H136494   3.928   1.819   3.187  1.5793  0.4549  0.0040
 4953TIP3    H236495   4.044   1.738   3.242  0.1698 -0.3435  1.9283
 4954TIP3   OH236496   4.018   6.323   2.088  0.1635 -0.7735 -0.2683
 4954TIP3    H136497   4.012   6.334   1.993  0.4198  0.4644 -0.1524
 4954TIP3    H236498   4.113   6.323   2.106  0.1766 -2.3892 -0.1420
 4955TIP3   OH236499   4.049   1.680   0.927  0.0465 -0.4522  0.3150
 4955TIP3    H136500   4.138   1.661   0.897  0.1797 -0.4503  0.7011
 4955TIP3    H236501   3.993   1.620   0.878  0.1274  0.3645 -0.8354
 4956TIP3   OH236502   6.844   5.954   2.792 -0.1140  0.1992  0.0170
 4956TIP3    H136503   6.818   5.950   2.884 -0.5464  0.5130 -0.0881
 4956TIP3    H236504   6.939   5.939   2.793 -0.3721 -1.6170  0.3401
 4957TIP3   OH236505   5.586   0.548   7.969  0.1194  0.5372  0.5677
 4957TIP3    H136506   5.647   0.499   8.023 -0.8124 -0.3152  0.8749
 4957TIP3    H236507   5.509   0.491   7.961 -0.8730  1.8083  0.6656
 4958TIP3   OH236508   1.014   4.079   0.810 -0.2484  0.4995 -0.0914
 4958TIP3    H136509   1.047   3.996   0.845 -1.4588  0.0299 -0.0313
 4958TIP3    H236510   0.956   4.054   0.739 -1.0622  1.2651  0.2894
 4959TIP3   OH236511   4.945   3.171   2.998 -0.0411 -0.7220  0.2249
 4959TIP3    H136512   4.963   3.085   2.960  2.7622  0.1936 -0.7775
 4959TIP3    H236513   4.956   3.232   2.926 -0.4507  0.6196  1.2591
 4960TIP3   OH236514   3.035   2.141   3.790 -0.0667 -0.3443 -0.2266
 4960TIP3    H136515   2.979   2.101   3.724  0.3104 -0.7929 -0.2833
 4960TIP3    H236516   3.031   2.081   3.865 -1.4588  0.7663  0.6454
 4961TIP3   OH236517   2.341   0.352   2.634  0.1681  0.3876 -0.3357
 4961TIP3    H136518   2.435   0.359   2.654  0.1786 -0.3107 -0.1392
 4961TIP3    H236519   2.331   0.402   2.553  0.2801  2.5136  0.8702
 4962TIP3   OH236520   0.395   1.014   1.151  0.5714  0.2293 -0.3744
 4962TIP3    H136521   0.478   1.020   1.103  0.4398 -0.7236 -0.7401
 4962TIP3    H236522   0.373   1.105   1.171 -0.0210  0.8248 -3.2602
 4963TIP3   OH236523   5.045   5.126   0.749 -0.3827 -0.2364  0.3002
 4963TIP3    H136524   5.011   5.123   0.660 -0.7329 -0.6667  0.4439
 4963TIP3    H236525   5.113   5.193   0.747 -1.1086  0.5042 -0.0357
 4964TIP3   OH236526   5.784   3.022   1.052 -0.9034 -0.3742  0.0490
 4964TIP3    H136527   5.791   3.015   0.957  0.2370 -0.9523  0.1671
 4964TIP3    H236528   5.825   3.106   1.074  0.5252 -1.0831  0.1869
 4965TIP3   OH236529   5.875   1.207   1.050 -0.1329  0.1322 -0.2082
 4965TIP3    H136530   5.847   1.229   0.962  0.6075 -1.1443 -0.7923
 4965TIP3    H236531   5.823   1.130   1.074 -0.3506  0.4831  0.4898
 4966TIP3   OH236532   4.121   2.705   2.806 -0.4596 -0.0990  0.5351
 4966TIP3    H136533   4.064   2.740   2.874 -1.0275 -1.1863  0.6257
 4966TIP3    H236534   4.062   2.683   2.734 -0.0003 -0.0629  0.1417
 4967TIP3   OH236535   1.100   1.803   8.251  0.1250 -0.0951 -0.1894
 4967TIP3    H136536   1.035   1.786   8.183 -0.1164  0.8781 -0.2233
 4967TIP3    H236537   1.142   1.885   8.224  1.9938 -1.1350 -0.6311
 4968TIP3   OH236538   2.897   6.478   1.527  0.5693 -0.6764  0.0732
 4968TIP3    H136539   2.911   6.564   1.488  0.4819 -0.1133  1.2521
 4968TIP3    H236540   2.821   6.442   1.479 -1.5516  1.2958  1.7376
 4969TIP3   OH236541   0.424   2.899   3.026 -0.6398  0.0199  0.3066
 4969TIP3    H136542   0.400   2.963   2.959  0.9216  1.7485  1.3252
 4969TIP3    H236543   0.489   2.843   2.984  0.5872  1.3051  0.4349
 4970TIP3   OH236544   0.822   3.895   1.199  0.4678 -0.0976 -0.1286
 4970TIP3    H136545   0.746   3.858   1.244  2.3816 -1.6493  2.0271
 4970TIP3    H236546   0.832   3.842   1.120  0.2408 -0.8846  0.3687
 4971TIP3   OH236547   5.613   4.017   1.948 -0.0883 -0.8425 -0.2057
 4971TIP3    H136548   5.643   4.053   2.031  1.6682 -1.6649 -0.4329
 4971TIP3    H236549   5.545   3.954   1.972 -0.6192 -0.0343  0.4637
 4972TIP3   OH236550   6.252   5.746   3.179  0.3700 -0.2036 -0.2298
 4972TIP3    H136551   6.298   5.799   3.113  0.2014  1.3114  0.8183
 4972TIP3    H236552   6.323   5.706   3.230  0.5206  0.2528 -0.0745
 4973TIP3   OH236553   5.334   1.145   0.031  0.0253  0.2543 -0.0756
 4973TIP3    H136554   5.305   1.233   0.007  0.9620  0.1811 -1.6095
 4973TIP3    H236555   5.260   1.088   0.009 -0.2391  0.5396  0.0656
 4974TIP3   OH236556   3.120   3.241   2.195  0.1552 -0.9197  0.4491
 4974TIP3    H136557   3.025   3.231   2.202 -0.4927  3.6988  0.9045
 4974TIP3    H236558   3.152   3.222   2.282 -0.6952 -0.0984  0.9610
 4975TIP3   OH236559   0.004   0.352   0.218  0.4144  0.0727 -0.4568
 4975TIP3    H136560  -0.089   0.334   0.233  0.9572 -0.8915  2.3972
 4975TIP3    H236561   0.030   0.405   0.294  2.6580 -1.6340  0.0831
 4976TIP3   OH236562   6.305   4.925   2.650 -0.3124 -0.1391 -0.5343
 4976TIP3    H136563   6.230   4.948   2.594 -0.2620  2.1985  0.2329
 4976TIP3    H236564   6.359   5.004   2.650  0.8388 -0.8897  0.9884
 4977TIP3   OH236565   0.549   4.581   0.867 -0.4012 -0.5091 -0.7216
 4977TIP3    H136566   0.634   4.552   0.902 -0.9257 -0.3982  0.6969
 4977TIP3    H236567   0.507   4.625   0.940 -0.3411  2.4386 -2.3000
 4978TIP3   OH236568   6.129   6.114   2.795  0.2647 -0.6191  0.2565
 4978TIP3    H136569   6.096   6.095   2.882  0.6867 -0.8329  0.3720
 4978TIP3    H236570   6.220   6.141   2.809  1.0870 -2.8625 -0.2957
 4979TIP3   OH236571   0.797   4.850   3.761  0.1276 -0.7652  0.5505
 4979TIP3    H136572   0.727   4.793   3.792 -0.9135 -0.5433 -1.2423
 4979TIP3    H236573   0.773   4.937   3.793  0.1724 -0.8639  0.8545
 4980TIP3   OH236574   0.922   2.491   0.889  0.0397 -0.0800  0.8284
 4980TIP3    H136575   0.996   2.445   0.928 -0.7288 -1.5932  0.5798
 4980TIP3    H236576   0.960   2.571   0.852  1.4712 -0.6237  1.0611
 4981TIP3   OH236577   0.947   1.284   0.224  0.4606 -0.2377  0.1048
 4981TIP3    H136578   1.000   1.205   0.212 -1.3925 -1.5545  0.0495
 4981TIP3    H236579   0.973   1.318   0.309  2.2061 -0.1518 -0.4339
 4982TIP3   OH236580   1.125   2.134   8.304 -0.1610 -0.2831 -0.0259
 4982TIP3    H136581   1.151   2.149   8.213 -2.6211  1.0052 -0.5881
 4982TIP3    H236582   1.207   2.110   8.348  1.0743 -1.1931 -2.5893
 4983TIP3   OH236583   2.833   0.205   3.146  0.7855  0.4245 -0.4906
 4983TIP3    H136584   2.866   0.225   3.059  0.7187  1.3049 -0.3202
 4983TIP3    H236585   2.759   0.146   3.130  0.2729  1.1968 -1.0959
 4984TIP3   OH236586   6.467   1.059   3.838 -0.0555 -0.4227 -0.2924
 4984TIP3    H136587   6.414   0.984   3.810  1.1623 -1.1920 -0.6376
 4984TIP3    H236588   6.494   1.101   3.756  0.9984 -0.8804 -0.2090
 4985TIP3   OH236589   5.671   1.719   3.594 -0.3669 -0.6353  0.2146
 4985TIP3    H136590   5.645   1.782   3.527  0.1353 -0.1550  0.4643
 4985TIP3    H236591   5.670   1.634   3.550  0.6799 -0.2364 -0.6102
 4986TIP3   OH236592   2.003   5.375   7.839  0.0368 -0.1161  0.0881
 4986TIP3    H136593   2.085   5.336   7.868  0.8647 -0.3318 -2.2781
 4986TIP3    H236594   1.968   5.312   7.775 -1.2427  0.6521 -0.0142
 4987TIP3   OH236595   6.102   6.725   3.269  0.2172  0.1954  0.1205
 4987TIP3    H136596   6.114   6.755   3.179 -0.2778  1.6764  0.5237
 4987TIP3    H236597   6.039   6.786   3.307  0.5150 -0.3281  1.5223
 4988TIP3   OH236598   6.566   0.544   2.862 -0.5437 -0.4272 -0.4751
 4988TIP3    H136599   6.604   0.611   2.920  0.0158 -0.9898 -0.1738
 4988TIP3    H236600   6.632   0.530   2.795  1.0401 -3.2362  1.4425
 4989TIP3   OH236601   5.043   0.123   3.134 -0.3932  0.1989 -0.4246
 4989TIP3    H136602   4.968   0.067   3.112  1.0434 -2.3116  0.6245
 4989TIP3    H236603   5.106   0.105   3.064 -1.2439  3.5548 -2.2416
 4990TIP3   OH236604   5.969   0.553   0.781 -0.0421 -0.3599  0.5366
 4990TIP3    H136605   5.999   0.489   0.846  0.1640 -0.8010  0.0098
 4990TIP3    H236606   5.883   0.580   0.813 -0.0077 -0.6896  0.9151
 4991TIP3   OH236607   0.864   5.024   1.003  0.2089 -0.2223 -0.9817
 4991TIP3    H136608   0.883   5.116   0.984  1.2257 -0.1628  0.1522
 4991TIP3    H236609   0.812   5.027   1.083  0.5167 -0.6286 -0.7629
 4992TIP3   OH236610   4.982   0.781   8.632  0.2323 -0.3193  0.6035
 4992TIP3    H136611   5.004   0.697   8.671 -1.4516 -3.0040 -3.5523
 4992TIP3    H236612   4.887   0.790   8.647 -0.0335 -0.3770 -0.9165
 4993TIP3   OH236613   5.027   6.075   3.289  0.5131  0.1655 -0.0539
 4993TIP3    H136614   4.952   6.125   3.320 -0.7224 -0.9605 -1.1004
 4993TIP3    H236615   5.064   6.128   3.218 -0.1386  0.1078 -0.4443
 4994TIP3   OH236616   1.897   2.488   2.186  0.4116  0.4919 -0.0399
 4994TIP3    H136617   1.955   2.503   2.261 -0.0162 -0.3809  0.4762
 4994TIP3    H236618   1.828   2.554   2.195 -0.0011 -0.0345  0.7105
 4995TIP3   OH236619   1.464   5.889   3.142 -0.2005  0.0693  0.8365
 4995TIP3    H136620   1.438   5.838   3.218 -0.7676 -0.1356  0.5142
 4995TIP3    H236621   1.429   5.977   3.159 -3.0887 -0.6862 -0.5349
 4996TIP3   OH236622   2.436   3.366   0.813  0.1704  1.0998  0.4448
 4996TIP3    H136623   2.478   3.451   0.807  1.3479  0.5026  0.0015
 4996TIP3    H236624   2.378   3.362   0.736  0.7866  1.1468 -0.0274
 4997TIP3   OH236625   3.883   0.098   8.191  0.1514 -0.0125  0.1519
 4997TIP3    H136626   3.916   0.021   8.145 -0.2560 -0.0318 -0.1160
 4997TIP3    H236627   3.800   0.119   8.147  0.4599  0.8328 -0.0516
 4998TIP3   OH236628   2.748   5.994   2.789 -0.1327  0.1030  0.3099
 4998TIP3    H136629   2.743   5.901   2.770 -2.0516 -0.3875  2.6477
 4998TIP3    H236630   2.833   6.006   2.833 -0.2742 -0.7550  0.8386
 4999TIP3   OH236631   1.730   0.785   0.326 -0.5389 -0.1557  0.2543
 4999TIP3    H136632   1.769   0.868   0.355  0.8411 -1.3948  2.1755
 4999TIP3    H236633   1.738   0.788   0.231  0.2074  1.5681  0.3194
 5000TIP3   OH236634   6.683   4.396   2.000 -0.0040  0.1173  0.0085
 5000TIP3    H136635   6.673   4.440   1.916 -1.7588 -1.4446 -0.6811
 5000TIP3    H236636   6.648   4.308   1.985 -0.1088 -0.2952  2.3042
 5001TIP3   OH236637   0.507   4.637   0.619 -0.2826 -0.0027  0.2845
 5001TIP3    H136638   0.511   4.546   0.588 -1.3955 -0.6637  1.9426
 5001TIP3    H236639   0.519   4.630   0.714 -0.1700  1.6184  0.4130
 5002TIP3   OH236640   0.827   2.976   0.954 -0.7697 -0.3589  0.4895
 5002TIP3    H136641   0.806   3.069   0.943  0.0874 -0.1307  0.6571
 5002TIP3    H236642   0.742   2.932   0.958 -1.1908  0.4514  0.6821
 5003TIP3   OH236643   0.992   2.542   2.108 -0.2195 -0.4799 -0.1171
 5003TIP3    H136644   0.984   2.636   2.124  1.4010 -0.6784  2.4018
 5003TIP3    H236645   1.047   2.535   2.030  1.9617  0.7443  1.2209
 5004TIP3   OH236646   3.904   4.801   0.916  0.2421  0.2322  0.3070
 5004TIP3    H136647   3.884   4.880   0.966  0.3125  0.5408 -0.1526
 5004TIP3    H236648   3.823   4.779   0.870  0.8455  1.3656 -1.3908
 5005TIP3   OH236649   1.464   5.170   3.590 -0.2935 -0.5316 -0.1044
 5005TIP3    H136650   1.413   5.168   3.671 -1.1416 -0.5003 -0.6218
 5005TIP3    H236651   1.418   5.110   3.532 -1.1656  1.2633 -1.3870
 5006TIP3   OH236652   4.594   1.665   3.859 -0.2470  0.2364 -0.2884
 5006TIP3    H136653   4.591   1.674   3.955  1.5578  1.0705 -0.2646
 5006TIP3    H236654   4.513   1.620   3.837 -0.7621  0.1170  1.6253
 5007TIP3   OH236655   0.332   5.124   2.013  0.0386  0.1593  0.0630
 5007TIP3    H136656   0.337   5.175   2.095  1.1343  0.2894 -0.0634
 5007TIP3    H236657   0.363   5.037   2.037  1.4757  0.5039 -0.4257
 5008TIP3   OH236658   0.198   3.401   2.496  0.5887  0.2151  0.4754
 5008TIP3    H136659   0.129   3.335   2.493 -0.3032  1.1515 -0.5015
 5008TIP3    H236660   0.195   3.443   2.410  0.1149  2.4908  1.5259
 5009TIP3   OH236661   1.556   6.105   8.290  0.3433  0.2228 -0.1484
 5009TIP3    H136662   1.468   6.119   8.326 -1.0764 -1.0622 -2.8378
 5009TIP3    H236663   1.561   6.163   8.215  1.9460  0.4795  0.1203
 5010TIP3   OH236664   5.653   6.621   0.585 -0.8561  0.0223 -0.0554
 5010TIP3    H136665   5.695   6.636   0.670 -1.8133 -2.6273  1.0233
 5010TIP3    H236666   5.580   6.682   0.583  0.0482  1.1405  0.3484
 5011TIP3   OH236667   3.537   4.357   1.015  0.1924  0.4231  0.1556
 5011TIP3    H136668   3.625   4.321   1.003 -0.0586  0.0517 -0.7183
 5011TIP3    H236669   3.481   4.302   0.959 -0.7490  0.0836  1.3811
 5012TIP3   OH236670   3.370   5.385   2.124  0.4482  0.3833 -0.1700
 5012TIP3    H136671   3.368   5.422   2.036 -0.5783  3.5520  1.0331
 5012TIP3    H236672   3.279   5.385   2.153  0.8156 -0.0752  1.0722
 5013TIP3   OH236673   5.185   3.489   2.112 -0.7062  0.0429  0.3512
 5013TIP3    H136674   5.094   3.479   2.083 -0.6496  0.9798 -0.2038
 5013TIP3    H236675   5.235   3.431   2.054 -0.9074 -0.1640  0.3858
 5014TIP3   OH236676   1.778   6.642   0.617  0.0278  0.2999 -0.5346
 5014TIP3    H136677   1.754   6.564   0.667  1.2405  0.7356  0.7767
 5014TIP3    H236678   1.737   6.629   0.531 -2.2854 -0.3748  0.5898
 5015TIP3   OH236679   5.248   1.977   2.607 -0.3326  0.2462 -0.2952
 5015TIP3    H136680   5.326   1.936   2.643  1.7882  1.5532 -3.0232
 5015TIP3    H236681   5.216   1.915   2.542 -1.5469 -0.2039  0.6837
 5016TIP3   OH236682   6.451   1.890   3.088 -0.3784 -0.0902 -0.0886
 5016TIP3    H136683   6.475   1.983   3.081  0.6956 -0.3410  0.0229
 5016TIP3    H236684   6.398   1.884   3.168 -2.8933  0.8756 -1.5685
 5017TIP3   OH236685   2.638   4.052   3.281  0.0658 -0.2416 -0.5242
 5017TIP3    H136686   2.665   4.141   3.261 -3.8542  1.1630 -0.4969
 5017TIP3    H236687   2.610   4.055   3.372  0.2503 -1.6015 -0.4055
 5018TIP3   OH236688   2.183   1.688   0.966  0.1636  0.4908 -0.1721
 5018TIP3    H136689   2.125   1.614   0.949 -0.2726  0.5337  1.0287
 5018TIP3    H236690   2.125   1.756   1.001  1.0079  0.2737  1.7846
 5019TIP3   OH236691   2.723   1.902   3.405  0.1859 -0.2628  0.3255
 5019TIP3    H136692   2.708   1.976   3.345  0.8353  0.8837  1.5196
 5019TIP3    H236693   2.793   1.852   3.364 -0.6690 -0.5869 -0.8005
 5020TIP3   OH236694   5.079   4.413   2.710  0.3678 -0.1717  0.1863
 5020TIP3    H136695   5.003   4.354   2.710  0.1775  0.0583 -0.7737
 5020TIP3    H236696   5.053   4.486   2.654  0.0241  1.6077  2.5044
 5021TIP3   OH236697   5.250   0.898   1.551 -0.3694 -0.8829 -0.1050
 5021TIP3    H136698   5.338   0.931   1.529 -0.3646 -1.2076 -0.6012
 5021TIP3    H236699   5.193   0.974   1.542  0.2519  0.1571  3.2631
 5022TIP3   OH236700   0.762   2.599   8.372 -0.2098 -0.2330 -0.6752
 5022TIP3    H136701   0.781   2.597   8.279 -0.0182 -0.6521 -0.6293
 5022TIP3    H236702   0.800   2.519   8.407  1.2639  0.7372  0.0571
 5023TIP3   OH236703   6.550   5.918   3.329 -0.1578  0.3289  0.4430
 5023TIP3    H136704   6.562   6.002   3.374 -3.0674  0.4235  1.2055
 5023TIP3    H236705   6.563   5.853   3.398 -1.8185  0.3656  0.8325
 5024TIP3   OH236706   1.658   3.204   1.303  0.4526  0.3624  0.3587
 5024TIP3    H136707   1.747   3.189   1.334  0.9381  0.6942 -0.8049
 5024TIP3    H236708   1.613   3.246   1.376  1.3243  0.4267  0.8711
 5025TIP3   OH236709   0.251   4.025   3.392  0.2490  0.1523  0.1492
 5025TIP3    H136710   0.264   3.994   3.302  0.3159 -0.6400  0.4202
 5025TIP3    H236711   0.156   4.023   3.404  0.2467  0.1448  0.1302
 5026TIP3   OH236712   6.642   1.280   2.807  0.4995  0.2091 -0.2679
 5026TIP3    H136713   6.694   1.354   2.776 -0.5466  0.3760 -1.7524
 5026TIP3    H236714   6.551   1.309   2.800  0.0543 -1.2322 -1.0038
 5027TIP3   OH236715   2.909   6.024   4.024  0.1725 -0.5378  0.5739
 5027TIP3    H136716   2.963   6.057   4.095  1.3058  0.7025 -0.7940
 5027TIP3    H236717   2.963   5.958   3.981 -0.2491 -0.8293  0.4884
 5028TIP3   OH236718   1.291   5.066   1.599  0.2189 -0.0709 -0.3004
 5028TIP3    H136719   1.261   4.975   1.599 -2.7064  0.7869 -1.1152
 5028TIP3    H236720   1.326   5.079   1.511  2.7846 -0.9327  0.4964
 5029TIP3   OH236721   2.673   4.816   0.929  0.3395 -0.1149 -0.1321
 5029TIP3    H136722   2.723   4.745   0.888 -1.9703 -1.1502 -1.3484
 5029TIP3    H236723   2.608   4.841   0.864  0.1975  2.2287  0.8012
 5030TIP3   OH236724   4.822   2.294   3.163  0.0861  0.2943 -0.3938
 5030TIP3    H136725   4.741   2.300   3.113 -0.4561  0.1106  0.4467
 5030TIP3    H236726   4.878   2.236   3.110  0.3853  1.8621 -1.8797
 5031TIP3   OH236727   6.359   3.264   3.779 -0.6376  0.0699  0.2929
 5031TIP3    H136728   6.414   3.306   3.845 -1.5477 -0.7429  1.6068
 5031TIP3    H236729   6.399   3.290   3.695 -0.4710  2.5486  1.0486
 5032TIP3   OH236730   3.929   4.922   2.638 -0.4413 -0.2667 -0.2815
 5032TIP3    H136731   3.863   4.977   2.680  1.4433  1.4594  0.5891
 5032TIP3    H236732   3.934   4.954   2.548 -1.0539 -0.6752 -0.4655
 5033TIP3   OH236733   5.968   5.208   1.827 -0.3083 -0.2257  0.1083
 5033TIP3    H136734   5.958   5.269   1.900  0.1711  0.2157 -0.1846
 5033TIP3    H236735   6.010   5.131   1.864 -3.0201 -1.4076  1.0051
 5034TIP3   OH236736   0.818   5.271   8.384  0.3128 -0.1001 -0.6301
 5034TIP3    H136737   0.856   5.354   8.358 -1.3547  1.3817  1.3240
 5034TIP3    H236738   0.851   5.208   8.320  0.5238  2.2781 -3.0451
 5035TIP3   OH236739   4.302   6.543   3.135 -1.0954 -0.1044  0.0952
 5035TIP3    H136740   4.267   6.631   3.148  0.0298  0.4905 -0.7330
 5035TIP3    H236741   4.261   6.490   3.203 -0.9947  1.2829  1.2613
 5036TIP3   OH236742   5.824   4.913   4.127  0.7569 -0.0798 -0.1048
 5036TIP3    H136743   5.883   4.963   4.070  2.1454 -1.2153  0.2650
 5036TIP3    H236744   5.882   4.852   4.173 -0.4909 -0.0999  1.5486
 5037TIP3   OH236745   3.753   6.627   1.040  0.0771  0.0607  0.4695
 5037TIP3    H136746   3.723   6.653   0.953 -0.3903 -1.3201  0.1919
 5037TIP3    H236747   3.826   6.686   1.059 -0.5990  1.1952 -0.3257
 5038TIP3   OH236748   0.994   5.821   3.245  0.2146  0.8146  0.0023
 5038TIP3    H136749   1.044   5.884   3.297  2.0287  0.2934 -1.0498
 5038TIP3    H236750   1.022   5.735   3.278  0.2276  0.5086 -0.7879
 5039TIP3   OH236751   2.182   0.079   2.944  0.5269  0.3221 -0.2826
 5039TIP3    H136752   2.192   0.035   3.028  1.9175 -1.1737 -1.1650
 5039TIP3    H236753   2.191   0.172   2.964 -0.3417  0.0882  1.3531
 5040TIP3   OH236754   1.427   5.989   0.197  0.0549  0.0825 -0.1165
 5040TIP3    H136755   1.416   5.999   0.292  1.8690  1.3263  0.0147
 5040TIP3    H236756   1.458   6.075   0.168 -0.7121 -0.2045 -1.8982
 5041TIP3   OH236757   4.915   5.811   2.218  0.2034  0.2766  0.0104
 5041TIP3    H136758   4.829   5.805   2.175  0.3107 -2.8962 -0.0207
 5041TIP3    H236759   4.939   5.720   2.236  3.3669  1.0785  0.4608
 5042TIP3   OH236760   0.566   3.645   3.533 -0.4638  1.1571  0.1021
 5042TIP3    H136761   0.501   3.715   3.537 -1.4786  0.3380 -1.0749
 5042TIP3    H236762   0.533   3.586   3.465  0.6752 -0.1449  0.6308
 5043TIP3   OH236763   4.607   2.692   8.103  0.1886  0.4366  0.2129
 5043TIP3    H136764   4.587   2.630   8.174  1.5536  0.1814  0.3988
 5043TIP3    H236765   4.537   2.679   8.040 -0.4811 -0.0867  1.0293
 5044TIP3   OH236766   2.241   2.035   1.099 -0.0878  0.5294 -0.3421
 5044TIP3    H136767   2.285   2.009   1.018 -0.2259 -2.2548  0.3950
 5044TIP3    H236768   2.283   1.983   1.167 -2.0277  0.5282  0.9377
 5045TIP3   OH236769   2.789   4.721   2.562 -0.3574  0.4359 -0.0126
 5045TIP3    H136770   2.834   4.793   2.608  0.0872 -0.1528  0.4999
 5045TIP3    H236771   2.837   4.712   2.480  0.6032 -0.2985  0.6042
 5046TIP3   OH236772   1.509   6.340   3.099  0.6307 -0.0536  0.3485
 5046TIP3    H136773   1.591   6.330   3.148  0.6534  0.0857  0.3401
 5046TIP3    H236774   1.537   6.358   3.009  0.5863 -0.6936  0.2060
 5047TIP3   OH236775   4.723   0.874   0.702 -0.1565 -0.2571 -0.0897
 5047TIP3    H136776   4.686   0.841   0.620 -1.4453 -0.0684  0.3870
 5047TIP3    H236777   4.651   0.867   0.765  0.9585 -0.9171  1.1815
 5048TIP3   OH236778   6.330   0.819   3.425  0.2303 -0.4461 -0.0508
 5048TIP3    H136779   6.333   0.912   3.446 -2.1190  0.0154 -1.3784
 5048TIP3    H236780   6.255   0.786   3.474  0.4165 -1.4048 -0.4001
 5049TIP3   OH236781   4.531   2.794   4.138 -0.0756  0.4312 -0.3414
 5049TIP3    H136782   4.601   2.729   4.141 -0.0722  0.4560  1.7185
 5049TIP3    H236783   4.453   2.748   4.169 -0.4780  0.9661 -0.5401
 5050TIP3   OH236784   5.250   1.028   3.226  0.5862 -0.7127 -0.8403
 5050TIP3    H136785   5.346   1.024   3.223  0.5195 -2.6036 -1.3353
 5050TIP3    H236786   5.221   0.942   3.196 -1.2852 -0.1196 -0.8572
 5051TIP3   OH236787   3.790   4.836   3.506  0.5353  0.2839  0.4825
 5051TIP3    H136788   3.734   4.839   3.584  2.1913 -0.5487  1.7900
 5051TIP3    H236789   3.772   4.751   3.466 -1.8706  1.5419 -1.3627
 5052TIP3   OH236790   1.080   0.806   0.459  0.5552 -0.3761  0.0148
 5052TIP3    H136791   1.036   0.891   0.466  1.7662  0.2000  1.4485
 5052TIP3    H236792   1.095   0.794   0.365 -0.1071  0.7526 -0.2540
 5053TIP3   OH236793   3.713   2.970   3.913 -0.1814 -0.5002 -0.1451
 5053TIP3    H136794   3.786   2.922   3.873  0.6911  0.8214 -0.1878
 5053TIP3    H236795   3.720   3.058   3.876  1.8707  1.4412  4.2179
 5054TIP3   OH236796   1.005   4.946   0.486 -0.1684 -0.5413 -0.4404
 5054TIP3    H136797   1.017   4.866   0.537  0.8829  0.5217  1.0583
 5054TIP3    H236798   0.939   4.996   0.534 -0.5828 -0.3349 -1.1953
 5055TIP3   OH236799   2.806   0.337   1.268  0.0608  0.2845  0.1731
 5055TIP3    H136800   2.741   0.270   1.289 -1.4768  1.3357 -1.0027
 5055TIP3    H236801   2.841   0.311   1.183  1.4972 -0.4602  0.9492
 5056TIP3   OH236802   5.755   3.827   1.341  0.2963 -0.3452 -0.0659
 5056TIP3    H136803   5.744   3.774   1.420 -0.7716  0.4152  0.3222
 5056TIP3    H236804   5.722   3.772   1.270 -1.4365 -0.0256  0.4198
 5057TIP3   OH236805   1.979   4.544   1.140 -0.4363  0.0484  0.1318
 5057TIP3    H136806   1.946   4.474   1.083  0.5876 -0.9971  0.7807
 5057TIP3    H236807   1.918   4.545   1.213 -2.2810  1.9907 -1.2937
 5058TIP3   OH236808   5.940   4.675   1.206 -0.2151 -0.5892  0.4334
 5058TIP3    H136809   5.952   4.683   1.301 -0.2182  2.0125  0.2730
 5058TIP3    H236810   6.019   4.629   1.176  0.6551  0.1512  1.5079
 5059TIP3   OH236811   1.253   5.935   2.845  0.2875 -0.0498 -0.3362
 5059TIP3    H136812   1.254   5.993   2.769  1.3046  0.4032 -0.0018
 5059TIP3    H236813   1.213   5.987   2.915  0.2549 -0.1116 -0.3089
 5060TIP3   OH236814   0.689   4.485   3.246  0.4947  0.0891 -0.1052
 5060TIP3    H136815   0.635   4.541   3.302  0.0883 -1.6235  1.3095
 5060TIP3    H236816   0.773   4.478   3.292 -0.0937 -1.9506  0.7922
 5061TIP3   OH236817   3.849   0.247   0.913 -0.3844  0.9194 -0.0420
 5061TIP3    H136818   3.797   0.274   0.989  0.4749  1.3146  0.4190
 5061TIP3    H236819   3.924   0.201   0.950  0.3546  1.6274 -0.6100
 5062TIP3   OH236820   5.870   1.450   8.122 -0.5525  0.6764 -0.1772
 5062TIP3    H136821   5.792   1.431   8.069 -0.3512 -0.1034 -0.1935
 5062TIP3    H236822   5.933   1.382   8.099  0.2819  1.5094 -0.4319
 5063TIP3   OH236823   2.505   2.647   2.515  0.1649  0.2374  0.1140
 5063TIP3    H136824   2.477   2.653   2.606  0.5637 -1.2589  0.3730
 5063TIP3    H236825   2.466   2.566   2.483  0.2561  0.6053 -0.9659
 5064TIP3   OH236826   2.742   4.144   0.374  0.0232 -0.5980 -0.1255
 5064TIP3    H136827   2.768   4.129   0.283 -1.4026 -1.7732 -0.3828
 5064TIP3    H236828   2.654   4.181   0.367  1.0910  2.4039  0.7213
 5065TIP3   OH236829   2.519   2.594   1.705 -0.1611  0.6283 -0.1810
 5065TIP3    H136830   2.533   2.505   1.673  0.1071  0.8341 -0.6468
 5065TIP3    H236831   2.600   2.617   1.750 -0.1226  0.7373 -0.3041
 5066TIP3   OH236832   4.788   1.939   1.662  0.3909 -0.0399 -0.3234
 5066TIP3    H136833   4.805   1.845   1.672  0.1605 -0.1382 -0.8144
 5066TIP3    H236834   4.787   1.953   1.567  1.6212  0.6838 -0.2490
 5067TIP3   OH236835   2.520   2.418   2.275 -0.0780 -0.2021 -0.2538
 5067TIP3    H136836   2.614   2.433   2.281  0.0510 -0.7073 -0.9154
 5067TIP3    H236837   2.492   2.462   2.195 -0.5337  0.5096  0.2779
 5068TIP3   OH236838   0.039   3.160   3.592 -0.2346 -0.1091  0.0878
 5068TIP3    H136839   0.118   3.106   3.597 -0.3748 -0.8881 -3.3517
 5068TIP3    H236840  -0.020   3.123   3.657  1.7952 -0.1620  2.0124
 5069TIP3   OH236841   1.398   1.769   2.261  0.2625 -0.0645  0.5538
 5069TIP3    H136842   1.427   1.848   2.214 -0.1844  0.2126  0.7373
 5069TIP3    H236843   1.416   1.697   2.200  0.7479  0.1716  0.4155
 5070TIP3   OH236844   6.310   3.352   2.209 -0.0777 -0.5513  0.0667
 5070TIP3    H136845   6.238   3.295   2.183 -1.2913 -0.2520  2.4788
 5070TIP3    H236846   6.315   3.343   2.304  1.5076  1.2939  0.2295
 5071TIP3   OH236847   5.921   4.717   2.775  0.5991  0.2756  0.6356
 5071TIP3    H136848   5.979   4.764   2.835 -0.4291 -1.0094  2.7534
 5071TIP3    H236849   5.945   4.625   2.787 -0.7633 -0.1274  0.3237
 5072TIP3   OH236850   2.038   3.516   3.939 -0.6487 -0.3316  0.5004
 5072TIP3    H136851   1.952   3.552   3.918 -0.0232  0.9292 -0.0263
 5072TIP3    H236852   2.090   3.592   3.965  0.9761 -0.6903 -1.4812
 5073TIP3   OH236853   2.831   6.710   3.243 -0.3698 -0.2376  0.0889
 5073TIP3    H136854   2.762   6.727   3.178 -0.0944 -0.7974 -0.3566
 5073TIP3    H236855   2.893   6.653   3.198  0.6692  0.6901  0.3173
 5074TIP3   OH236856   4.258   6.531   2.297  0.2177  0.0190 -1.0472
 5074TIP3    H136857   4.238   6.549   2.205  0.1586  1.9354 -0.6949
 5074TIP3    H236858   4.186   6.570   2.346  0.3976 -0.7261 -0.1616
 5075TIP3   OH236859   5.101   1.647   1.999  0.3617 -0.0773 -0.1197
 5075TIP3    H136860   5.153   1.574   1.965  1.7499  0.6308  0.4332
 5075TIP3    H236861   5.151   1.725   1.977 -1.3339  0.7882 -1.1174
 5076TIP3   OH236862   0.057   3.197   2.950  0.3216  0.1036 -0.5783
 5076TIP3    H136863   0.050   3.137   2.876 -0.0419  1.2178 -1.4875
 5076TIP3    H236864   0.130   3.163   3.002  0.1047 -1.1226 -1.0347
 5077TIP3   OH236865   3.216   4.838   2.022 -0.2227  0.2975  0.2947
 5077TIP3    H136866   3.305   4.808   2.044 -0.5113 -0.6389  0.2285
 5077TIP3    H236867   3.163   4.759   2.023 -0.5327  0.3820 -2.4275
 5078TIP3   OH236868   2.412   4.851   2.552  0.6291  0.6368 -0.0209
 5078TIP3    H136869   2.379   4.938   2.576 -0.5777  0.0010  0.7976
 5078TIP3    H236870   2.443   4.814   2.635  2.1601  0.6771 -0.5504
 5079TIP3   OH236871   4.787   3.933   0.529  0.1373 -0.3369 -0.5628
 5079TIP3    H136872   4.840   3.975   0.460  0.5295  2.4918  1.2943
 5079TIP3    H236873   4.749   4.006   0.577 -1.6002 -2.2504  1.1541
 5080TIP3   OH236874   6.141   4.565   2.516  0.4945 -0.2231 -0.0199
 5080TIP3    H136875   6.167   4.571   2.424 -0.2000 -1.1055 -0.2872
 5080TIP3    H236876   6.052   4.530   2.513  0.3001  0.1594  0.9802
 5081TIP3   OH236877   1.084   2.875   0.379 -0.0431 -0.5144 -0.2453
 5081TIP3    H136878   1.021   2.816   0.421 -0.1587 -0.8853 -0.9240
 5081TIP3    H236879   1.169   2.847   0.412 -0.1691 -0.5124  0.0844
 5082TIP3   OH236880   2.800   6.406   0.018  0.0146  0.2786  0.3670
 5082TIP3    H136881   2.833   6.328   0.063  0.0516  1.9761  3.6057
 5082TIP3    H236882   2.841   6.480   0.064 -1.3018  2.2555 -1.4436
 5083TIP3   OH236883   5.516   2.879   1.746 -0.3900 -0.0988 -0.0925
 5083TIP3    H136884   5.485   2.904   1.659 -1.2895  0.2516  0.3111
 5083TIP3    H236885   5.436   2.866   1.797  0.1091 -1.1552  0.4465
 5084TIP3   OH236886   6.035   4.173   0.426 -0.2655 -0.1086  0.3673
 5084TIP3    H136887   6.073   4.095   0.467 -1.6018 -0.2917  1.3023
 5084TIP3    H236888   5.991   4.219   0.497  0.9159  1.8003 -0.0579
 5085TIP3   OH236889   1.218   2.808   2.820  0.0052 -0.3972 -0.0358
 5085TIP3    H136890   1.196   2.900   2.806  0.9016 -0.0350  0.7579
 5085TIP3    H236891   1.276   2.809   2.897 -3.3411 -2.0193  2.8163
 5086TIP3   OH236892   5.973   2.080   3.930 -0.0138  0.2170 -0.0033
 5086TIP3    H136893   6.000   2.162   3.971 -0.1616  0.3019 -0.0763
 5086TIP3    H236894   6.035   2.068   3.858  0.9727 -0.5115  0.9177
 5087TIP3   OH236895   1.843   3.307   2.784  0.3445  0.0958  0.1365
 5087TIP3    H136896   1.819   3.215   2.773 -0.8308  0.3429  0.3969
 5087TIP3    H236897   1.918   3.320   2.727 -0.7584 -0.5236 -1.5518
 5088TIP3   OH236898   1.462   1.588   2.025  0.1793 -0.1093 -0.5363
 5088TIP3    H136899   1.432   1.554   1.941 -0.5438 -1.4353  0.2249
 5088TIP3    H236900   1.554   1.609   2.011 -0.2857  1.1132 -2.0567
 5089TIP3   OH236901   4.168   4.865   0.857  0.0403 -0.4166 -0.6467
 5089TIP3    H136902   4.083   4.822   0.856  0.1300 -0.6588  0.9259
 5089TIP3    H236903   4.186   4.882   0.949 -0.3603  3.7210 -1.1423
 5090TIP3   OH236904   2.152   2.975   1.917 -0.0135  0.5176  0.2077
 5090TIP3    H136905   2.110   3.027   1.848  2.0155 -1.9579 -3.2354
 5090TIP3    H236906   2.087   2.908   1.939  0.0511  0.0784 -0.8857
 5091TIP3   OH236907   1.915   2.468   1.065  0.4032 -0.3260  0.9938
 5091TIP3    H136908   1.961   2.489   1.146  0.0558 -1.7526  1.5840
 5091TIP3    H236909   1.940   2.378   1.045  1.0463  0.2193 -0.8982
 5092TIP3   OH236910   3.083   4.387   7.820  0.1333  0.5858 -0.4976
 5092TIP3    H136911   3.015   4.374   7.887  0.2645  0.2797 -0.4214
 5092TIP3    H236912   3.135   4.460   7.853 -0.8908  1.6449 -1.1578
 5093TIP3   OH236913   3.294   3.623   3.879 -0.2431  0.1258  0.1556
 5093TIP3    H136914   3.260   3.645   3.966  0.0900 -1.4003  0.6868
 5093TIP3    H236915   3.244   3.547   3.852  1.3872 -1.0089  0.1456
 5094TIP3   OH236916   1.571   5.902   0.470  0.5277 -0.2870  0.2116
 5094TIP3    H136917   1.521   5.968   0.519  2.3757  1.3382  0.0451
 5094TIP3    H236918   1.648   5.886   0.523  0.5946 -1.6251 -0.2416
 5095TIP3   OH236919   6.721   2.201   0.940  0.4690  0.2431 -0.0337
 5095TIP3    H136920   6.631   2.167   0.937  0.3147  0.7188 -1.2237
 5095TIP3    H236921   6.776   2.126   0.919  0.3066  0.1121  0.0034
 5096TIP3   OH236922   0.921   3.908   1.925 -0.3236  0.2521  0.2897
 5096TIP3    H136923   0.906   3.947   2.011 -2.5882 -0.5690  0.3143
 5096TIP3    H236924   0.982   3.836   1.941 -0.4746  0.3095  1.1294
 5097TIP3   OH236925   2.568   2.818   3.265 -0.3711 -0.0069 -0.4107
 5097TIP3    H136926   2.527   2.745   3.220 -0.9611 -0.3931  0.7117
 5097TIP3    H236927   2.661   2.797   3.266 -0.1229  0.7241 -2.7015
 5098TIP3   OH236928   1.682   0.248   2.488  0.7997  0.1444  0.0177
 5098TIP3    H136929   1.662   0.279   2.399 -0.3977 -2.6686 -0.7810
 5098TIP3    H236930   1.645   0.315   2.545  0.1813  1.2296 -1.5661
 5099TIP3   OH236931   2.564   1.578   0.165  0.1584 -0.7569  0.2446
 5099TIP3    H136932   2.492   1.531   0.207 -0.4071 -0.6017 -0.5231
 5099TIP3    H236933   2.570   1.539   0.078 -0.5692  0.7986 -0.5600
 5100TIP3   OH236934   4.811   0.216   2.018  0.1436  0.3669 -0.8785
 5100TIP3    H136935   4.850   0.158   1.953 -0.5354 -0.0367 -0.9338
 5100TIP3    H236936   4.885   0.261   2.058  0.8754 -1.7974  0.3944
 5101TIP3   OH236937   0.522   0.400   3.351  0.1042 -0.4042 -0.2442
 5101TIP3    H136938   0.459   0.347   3.398  0.2419  1.1341  1.8244
 5101TIP3    H236939   0.604   0.351   3.357 -0.3402 -1.2481 -0.8254
 5102TIP3   OH236940   2.486   5.536   0.101  0.3886 -0.2935 -0.2558
 5102TIP3    H136941   2.517   5.447   0.086  0.5604 -0.0791 -1.2339
 5102TIP3    H236942   2.391   5.529   0.097  0.3070 -0.7282  1.4826
 5103TIP3   OH236943   3.466   0.957   0.607  0.6879 -1.0114  0.5144
 5103TIP3    H136944   3.544   1.008   0.587  1.2787 -2.4369 -1.0205
 5103TIP3    H236945   3.439   0.921   0.523 -1.5322 -0.7294  1.0490
 5104TIP3   OH236946   5.606   1.973   1.716  0.0005 -0.2955 -0.1105
 5104TIP3    H136947   5.527   2.026   1.711 -0.2447 -0.5680  0.6912
 5104TIP3    H236948   5.657   1.998   1.639 -0.5955  0.3149 -0.3146
 5105TIP3   OH236949   3.469   3.243   1.717  0.1834  0.0791 -0.0812
 5105TIP3    H136950   3.476   3.212   1.808 -1.0283 -1.5375 -0.4864
 5105TIP3    H236951   3.559   3.256   1.689  0.6089 -0.0378  1.1551
 5106TIP3   OH236952   0.653   1.441   2.967 -0.0814  0.2322  0.2819
 5106TIP3    H136953   0.651   1.446   2.871 -0.6269 -0.6860  0.2349
 5106TIP3    H236954   0.605   1.361   2.988  1.5811 -0.5736  1.2342
 5107TIP3   OH236955   2.431   1.208   2.264  0.3161  0.5215  0.8745
 5107TIP3    H136956   2.427   1.153   2.187  1.3329 -2.4267  2.7457
 5107TIP3    H236957   2.499   1.272   2.244  0.1016  0.2457 -0.8876
 5108TIP3   OH236958   3.986   6.775   1.062  0.3003 -0.2275 -0.0401
 5108TIP3    H136959   4.008   6.786   0.969 -1.4018 -0.7978 -0.5426
 5108TIP3    H236960   3.997   6.863   1.099  0.2246  0.1895 -0.9586
 5109TIP3   OH236961   2.754   4.310   3.644 -0.1858 -0.3568 -0.0651
 5109TIP3    H136962   2.706   4.317   3.561  1.1122  0.2100 -0.7979
 5109TIP3    H236963   2.809   4.233   3.633 -1.2438 -1.2987  0.9672
 5110TIP3   OH236964   4.282   6.138   1.328  0.1484  0.0944  0.2812
 5110TIP3    H136965   4.356   6.086   1.295 -0.2330 -0.3406  0.0858
 5110TIP3    H236966   4.217   6.134   1.257 -0.1235  0.3354  0.5133
 5111TIP3   OH236967   0.794   3.682   3.666  0.3256 -0.3374  0.0467
 5111TIP3    H136968   0.764   3.722   3.747 -0.3485 -1.4343  0.3602
 5111TIP3    H236969   0.715   3.670   3.614  0.5371 -0.9994 -0.1448
 5112TIP3   OH236970   3.757   1.891   0.806 -0.6358  0.4407 -0.2764
 5112TIP3    H136971   3.814   1.926   0.737  1.6593 -0.4222  1.0802
 5112TIP3    H236972   3.745   1.964   0.867 -0.9094  0.5773 -0.4865
 5113TIP3   OH236973   5.349   2.326   0.309  0.3975 -0.1823 -0.1080
 5113TIP3    H136974   5.422   2.324   0.247 -0.1383  0.1271 -0.7715
 5113TIP3    H236975   5.364   2.405   0.361  0.0319  0.4179 -0.8923
 5114TIP3   OH236976   4.397   3.153   2.536  0.1870 -0.0069 -0.1411
 5114TIP3    H136977   4.405   3.084   2.470 -1.6280 -0.6452  0.2395
 5114TIP3    H236978   4.332   3.119   2.597 -0.7124  2.0303  0.0976
 5115TIP3   OH236979   1.800   4.104   4.016 -0.3195 -0.0960  0.2355
 5115TIP3    H136980   1.879   4.150   3.988  0.0414  0.6048  2.2520
 5115TIP3    H236981   1.794   4.029   3.958 -0.6939  2.1748 -2.9231
 5116TIP3   OH236982   5.668   6.281   2.037  0.5996 -0.3914 -0.6792
 5116TIP3    H136983   5.607   6.208   2.040  0.3157 -0.2163 -1.7569
 5116TIP3    H236984   5.616   6.355   2.005  0.8559  0.3183  0.5070
 5117TIP3   OH236985   3.821   1.162   1.234  0.1239 -0.1849  0.3557
 5117TIP3    H136986   3.892   1.214   1.196  0.3177 -0.2811  0.5791
 5117TIP3    H236987   3.816   1.084   1.178 -0.5418  0.3262 -0.3144
 5118TIP3   OH236988   3.518   0.026   0.411 -0.1034  0.4841 -0.0248
 5118TIP3    H136989   3.569   0.098   0.448 -0.0713  0.1272  0.6449
 5118TIP3    H236990   3.583  -0.042   0.393 -0.3748 -0.1730  1.3161
 5119TIP3   OH236991   2.893   2.985   2.484  0.2974 -0.0495 -0.4519
 5119TIP3    H136992   2.965   3.037   2.521 -1.5010  2.0009  0.3805
 5119TIP3    H236993   2.881   2.914   2.548  1.5446 -0.4352 -0.6081
 5120TIP3   OH236994   2.981   1.328   8.329 -0.8035 -0.1574  0.3243
 5120TIP3    H136995   2.932   1.394   8.280 -0.3886  1.0945  1.5128
 5120TIP3    H236996   3.001   1.260   8.265 -0.2685  1.4047 -1.2350
 5121TIP3   OH236997   2.358   1.012   2.057 -0.9023  0.1426 -0.3954
 5121TIP3    H136998   2.276   0.963   2.051 -0.2962 -0.9625  0.0396
 5121TIP3    H236999   2.387   1.021   1.966 -0.0579 -2.0416 -0.4084
 5122TIP3   OH237000   2.483   6.595   1.165  0.4976  0.0030 -0.2387
 5122TIP3    H137001   2.543   6.625   1.096 -0.0813  0.6141 -0.4912
 5122TIP3    H237002   2.532   6.610   1.246  1.2788 -0.9465 -0.5192
 5123TIP3   OH237003   5.886   2.638   1.608  0.1864 -0.3796 -0.3271
 5123TIP3    H137004   5.810   2.633   1.551 -0.2492 -2.8186  0.3307
 5123TIP3    H237005   5.932   2.555   1.595  1.3403 -0.0341  1.1445
 5124TIP3   OH237006   3.861   3.639   2.713 -0.0302 -0.3156  0.5662
 5124TIP3    H137007   3.813   3.665   2.635  0.1862 -2.0936 -0.2166
 5124TIP3    H237008   3.812   3.563   2.747 -0.1536  0.4560  2.2106
 5125TIP3   OH237009   3.102   0.916   1.748  0.1101  0.0577 -0.1904
 5125TIP3    H137010   3.033   0.963   1.702  0.6699 -0.6087 -1.8060
 5125TIP3    H237011   3.055   0.860   1.810 -0.6643  1.1014  0.1996
 5126TIP3   OH237012   1.301   0.829   4.241 -0.1154 -0.9312  0.4442
 5126TIP3    H137013   1.291   0.763   4.309  0.7317 -1.5731 -0.0312
 5126TIP3    H237014   1.396   0.843   4.236 -0.1256 -1.2485 -0.9217
 5127TIP3   OH237015   0.532   0.621   0.722 -0.2217 -0.2822  0.5197
 5127TIP3    H137016   0.613   0.625   0.671 -1.8900 -0.6896 -2.3628
 5127TIP3    H237017   0.486   0.702   0.701 -1.3575 -0.8714  0.6644
 5128TIP3   OH237018   2.541   2.287   1.004 -1.1088  0.1297 -0.1396
 5128TIP3    H137019   2.568   2.245   0.923  0.1531 -0.2851  0.4653
 5128TIP3    H237020   2.574   2.377   0.997 -1.5471  0.2741 -0.3489
 5129TIP3   OH237021   6.620   0.991   3.251  0.1496 -0.0260 -0.0036
 5129TIP3    H137022   6.660   1.078   3.255 -0.3710  0.2349 -0.5019
 5129TIP3    H237023   6.623   0.960   3.342 -1.7350  1.4433  0.6130
 5130TIP3   OH237024   0.002   4.763   0.552 -0.0115 -0.0558  0.3555
 5130TIP3    H137025  -0.034   4.675   0.546 -0.6328  0.2821 -1.7406
 5130TIP3    H237026   0.095   4.752   0.532 -0.2886 -0.1324 -0.9607
 5131TIP3   OH237027   3.325   0.389   0.463  0.6061 -0.5832  0.5565
 5131TIP3    H137028   3.316   0.484   0.467  1.3544 -0.5170  0.8053
 5131TIP3    H237029   3.380   0.373   0.387  0.1303 -0.8532  0.2619
 5132TIP3   OH237030   6.750   3.546   0.123 -0.1867 -0.1803 -0.6128
 5132TIP3    H137031   6.667   3.586   0.146 -0.1552 -0.5560  0.1877
 5132TIP3    H237032   6.785   3.601   0.053 -0.8714  0.2699 -0.6058
 5133TIP3   OH237033   4.040   5.504   3.140  0.1398  0.3525 -0.4428
 5133TIP3    H137034   3.991   5.487   3.059 -2.2196  4.1048 -0.0257
 5133TIP3    H237035   4.048   5.599   3.144  2.1880  0.1873  2.6799
 5134TIP3   OH237036   5.520   5.837   0.308 -0.3607  0.4895 -0.1344
 5134TIP3    H137037   5.609   5.852   0.339 -0.5503  2.0373 -0.2219
 5134TIP3    H237038   5.531   5.800   0.220  0.1654 -2.1795  0.9808
 5135TIP3   OH237039   3.631   3.815   3.545 -0.1996 -0.5411  0.3418
 5135TIP3    H137040   3.619   3.780   3.633 -0.0272  0.6228  0.8440
 5135TIP3    H237041   3.677   3.898   3.558 -0.4806 -0.1862 -0.8236
 5136TIP3   OH237042   0.232   6.769   0.925  0.5751 -0.5645  0.6320
 5136TIP3    H137043   0.143   6.743   0.899  0.6295  0.0259 -0.1777
 5136TIP3    H237044   0.266   6.692   0.970  0.1511 -1.3330 -0.3075
 5137TIP3   OH237045   1.466   0.707   8.309 -0.6850 -0.1019 -0.2095
 5137TIP3    H137046   1.516   0.748   8.238 -2.4062 -0.0884 -1.4942
 5137TIP3    H237047   1.512   0.626   8.328  0.8064  0.7407 -0.0785
 5138TIP3   OH237048   6.042   0.373   2.518  0.0332  0.3691 -0.1639
 5138TIP3    H137049   6.052   0.304   2.453  0.2900  0.1609  0.0957
 5138TIP3    H237050   6.130   0.387   2.553  0.1767  1.5161 -0.9104
 5139TIP3   OH237051   5.705   3.330   2.969 -0.2487  0.1991 -0.2546
 5139TIP3    H137052   5.772   3.331   2.900  0.1208 -0.2257  0.0808
 5139TIP3    H237053   5.753   3.302   3.047 -0.8999 -0.5002 -0.0931
 5140TIP3   OH237054   1.207   2.493   3.981  0.0783  0.0006  0.0631
 5140TIP3    H137055   1.175   2.406   4.004 -0.1687 -0.2525 -1.1335
 5140TIP3    H237056   1.133   2.533   3.935  1.5200 -0.8110 -3.3028
 5141TIP3   OH237057   6.646   4.161   0.269 -0.6592  0.1779  0.0978
 5141TIP3    H137058   6.688   4.246   0.255  0.9924 -0.3450  1.4795
 5141TIP3    H237059   6.577   4.178   0.332 -1.4908  0.7556 -0.9263
 5142TIP3   OH237060   5.295   0.388   1.007 -0.0347 -0.0774 -0.1703
 5142TIP3    H137061   5.248   0.307   1.027 -0.2282 -0.6239 -2.5310
 5142TIP3    H237062   5.387   0.362   1.000  0.0972  0.2035  0.4107
 5143TIP3   OH237063   0.260   4.287   1.790 -0.4656 -0.4313 -0.4991
 5143TIP3    H137064   0.353   4.273   1.807 -0.7324 -0.6355  0.9585
 5143TIP3    H237065   0.229   4.203   1.757 -0.0376 -0.2140 -1.4641
 5144TIP3   OH237066   6.183   5.382   0.269 -0.2702  0.0888 -0.0685
 5144TIP3    H137067   6.252   5.354   0.329 -0.8770  1.6446  1.4512
 5144TIP3    H237068   6.218   5.363   0.182  0.1474 -3.3887  0.7201
 5145TIP3   OH237069   6.133   2.486   0.037 -0.5156  0.2245  0.0524
 5145TIP3    H137070   6.122   2.526   0.124  1.1716 -0.3599  0.5715
 5145TIP3    H237071   6.216   2.521   0.005 -0.8005 -0.0782 -1.0562
 5146TIP3   OH237072   1.491   2.606   0.011 -0.0235 -0.1523  0.0715
 5146TIP3    H137073   1.398   2.591  -0.008 -0.2974 -0.0372  1.2497
 5146TIP3    H237074   1.535   2.595  -0.074 -1.1693  0.2851 -0.6013
 5147TIP3   OH237075   0.792   2.109   2.096  0.0624 -0.1463  0.3598
 5147TIP3    H137076   0.718   2.050   2.110  0.2471 -0.1206  1.5103
 5147TIP3    H237077   0.810   2.103   2.002 -1.2163 -0.3649  0.1115
 5148TIP3   OH237078   0.006   1.069   2.245 -0.2926  0.4151  0.3067
 5148TIP3    H137079  -0.048   1.027   2.312 -0.8832 -0.5477 -0.7559
 5148TIP3    H237080   0.092   1.079   2.287  0.0071 -2.2538  0.4984
 5149TIP3   OH237081   5.817   0.478   2.690  0.3214  0.0382  0.0792
 5149TIP3    H137082   5.888   0.432   2.736 -0.0523 -3.1404 -2.1346
 5149TIP3    H237083   5.856   0.503   2.606 -0.4510  0.6877 -0.0923
 5150TIP3   OH237084   4.129   0.868   4.450  0.0695  0.3738 -0.1489
 5150TIP3    H137085   4.184   0.792   4.467 -2.9758 -1.4964  2.3505
 5150TIP3    H237086   4.093   0.854   4.363  0.6498 -0.2644 -0.2895
 5151TIP3   OH237087   2.196   2.860   8.775  0.1552  0.5137 -0.2731
 5151TIP3    H137088   2.121   2.882   8.718 -0.3160 -0.2411  0.0369
 5151TIP3    H237089   2.188   2.766   8.788  0.2048  0.6864  1.1264
 5152TIP3   OH237090   1.959   0.394   2.390 -0.2287 -0.0556 -0.1350
 5152TIP3    H137091   1.896   0.348   2.334 -0.6146  1.4830 -1.0364
 5152TIP3    H237092   2.005   0.325   2.437 -0.3619 -1.3812 -1.8662
 5153TIP3   OH237093   0.044   4.799   1.877  0.3287 -0.2108 -0.1669
 5153TIP3    H137094   0.036   4.788   1.972  1.8598 -0.1798 -0.0065
 5153TIP3    H237095   0.102   4.728   1.850  0.5341  0.2499 -0.9528
 5154TIP3   OH237096   3.855   2.989   0.132  0.0527  0.2789 -0.3685
 5154TIP3    H137097   3.870   2.897   0.151 -2.0789  0.3057  2.0091
 5154TIP3    H237098   3.820   2.991   0.043 -0.6674 -1.3371 -0.1464
 5155TIP3   OH237099   5.472   5.306   2.708 -0.1809  0.1052 -0.3689
 5155TIP3    H137100   5.496   5.299   2.615  0.9925  0.7003 -0.1238
 5155TIP3    H237101   5.543   5.263   2.754 -1.9177 -2.3906  0.1854
 5156TIP3   OH237102   2.738   5.575   1.377 -0.0109 -0.2030 -0.3592
 5156TIP3    H137103   2.797   5.632   1.427 -0.2410  0.8693 -1.2754
 5156TIP3    H237104   2.772   5.487   1.392  2.0181  0.4035 -1.0862
 5157TIP3   OH237105   6.402   2.673   8.462 -0.3693 -0.2615 -0.1601
 5157TIP3    H137106   6.310   2.665   8.486 -0.6135  0.4852 -0.7972
 5157TIP3    H237107   6.412   2.764   8.436  0.5807 -0.3086 -0.0017
 5158TIP3   OH237108   2.866   4.364   1.869 -0.2052 -0.2732 -0.5113
 5158TIP3    H137109   2.923   4.328   1.801 -1.1417 -0.0676 -1.4203
 5158TIP3    H237110   2.810   4.427   1.824 -0.2357  0.5529  0.6161
 5159TIP3   OH237111   3.848   3.276   1.993 -0.1983  0.1300 -0.2002
 5159TIP3    H137112   3.758   3.245   1.984 -0.9468  0.9619  3.0314
 5159TIP3    H237113   3.841   3.371   1.985  0.3964  0.1822 -0.1251
 5160TIP3   OH237114   2.058   5.365   3.094  0.9641 -0.3118  0.0520
 5160TIP3    H137115   2.092   5.454   3.081  1.9683 -0.5539  0.7848
 5160TIP3    H237116   1.965   5.371   3.076  1.3757  0.4183 -2.0203
 5161TIP3   OH237117   0.701   4.901   1.869 -0.0764 -0.6306  0.2388
 5161TIP3    H137118   0.753   4.823   1.887 -0.3008 -0.8641 -0.1192
 5161TIP3    H237119   0.613   4.879   1.899 -0.7103 -1.4137 -2.0188
 5162TIP3   OH237120   4.474   0.414   2.355 -0.2417 -0.2098 -0.0937
 5162TIP3    H137121   4.505   0.413   2.445 -0.8568 -2.1150  0.1374
 5162TIP3    H237122   4.380   0.398   2.361 -0.7666  2.1149 -0.9821
 5163TIP3   OH237123   4.771   2.636   0.716 -0.3551  0.1025 -0.1779
 5163TIP3    H137124   4.852   2.602   0.755  0.2845  0.1139 -1.4335
 5163TIP3    H237125   4.701   2.584   0.756  0.2553  0.0961  0.9315
 5164TIP3   OH237126   0.411   4.827   1.920  0.4477 -0.3165  0.2389
 5164TIP3    H137127   0.405   4.736   1.892  1.0042 -0.2649 -0.0612
 5164TIP3    H237128   0.366   4.829   2.004  1.6062 -1.1696  0.9133
 5165TIP3   OH237129   3.811   2.370   2.464 -0.3683 -0.5170 -0.6938
 5165TIP3    H137130   3.762   2.340   2.388  0.7524 -0.3928 -1.5046
 5165TIP3    H237131   3.893   2.404   2.427 -1.0055  2.3631  0.2457
 5166TIP3   OH237132   4.618   2.172   2.127 -0.4538  0.4413  0.3933
 5166TIP3    H137133   4.562   2.220   2.189 -0.9558 -0.1715  0.4128
 5166TIP3    H237134   4.636   2.236   2.058 -0.9846  0.7213  0.5032
 5167TIP3   OH237135   4.688   2.275   4.153  0.2727 -0.3761 -0.0982
 5167TIP3    H137136   4.731   2.236   4.077 -1.5859  0.6906 -1.7869
 5167TIP3    H237137   4.760   2.315   4.202  1.5766 -1.4438 -1.0431
 5168TIP3   OH237138   1.032   6.727   2.038 -0.1537 -0.3670  0.4825
 5168TIP3    H137139   1.055   6.818   2.059 -0.1083 -0.1552 -0.4328
 5168TIP3    H237140   0.938   6.729   2.020  0.1969 -0.0702 -1.5723
 5169TIP3   OH237141   0.338   1.831   0.440 -0.2559 -0.5608 -0.8992
 5169TIP3    H137142   0.396   1.836   0.364 -0.2221  1.3746 -0.7989
 5169TIP3    H237143   0.281   1.907   0.431  0.0296 -0.0356  1.2232
 5170TIP3   OH237144   6.482   5.551   1.488  0.1018  0.3056 -0.0830
 5170TIP3    H137145   6.569   5.511   1.496 -0.3928 -0.6187  1.0515
 5170TIP3    H237146   6.499   5.637   1.452  1.3963 -0.2327 -0.8396
 5171TIP3   OH237147   3.262   5.682   2.942  0.1449  0.5141  0.3291
 5171TIP3    H137148   3.259   5.661   3.036 -0.5981  1.1899  0.4706
 5171TIP3    H237149   3.187   5.637   2.905 -0.6851  1.7917  0.4065
 5172TIP3   OH237150   2.081   1.878   1.610 -0.7117 -0.4765 -0.0457
 5172TIP3    H137151   2.093   1.826   1.531 -1.8489 -2.7028  1.1339
 5172TIP3    H237152   2.111   1.821   1.681 -0.5254  1.1064  1.2178
 5173TIP3   OH237153   6.195   4.512   1.584 -0.7508 -0.6179 -0.1071
 5173TIP3    H137154   6.210   4.459   1.662  0.6671 -1.2305 -0.7494
 5173TIP3    H237155   6.267   4.576   1.585 -1.8059  0.5981  0.0761
 5174TIP3   OH237156   3.542   4.916   0.869  0.2764  0.3034  0.2818
 5174TIP3    H137157   3.463   4.875   0.905  0.5099  0.3618  0.8559
 5174TIP3    H237158   3.591   4.844   0.829  0.3874  0.1201  0.7478
 5175TIP3   OH237159   4.823   2.796   0.519  0.0173  0.0794 -0.0841
 5175TIP3    H137160   4.825   2.748   0.436 -0.2610 -0.5552  0.2630
 5175TIP3    H237161   4.807   2.728   0.585  0.2559  0.5713  0.4907
 5176TIP3   OH237162   3.750   5.237   0.572  0.0414 -0.3313 -0.0613
 5176TIP3    H137163   3.720   5.318   0.614 -1.2343 -0.8284  0.0478
 5176TIP3    H237164   3.785   5.265   0.488 -0.9516  0.2788 -0.2877
 5177TIP3   OH237165   3.278   3.628   2.304  0.2249  0.0259 -0.4468
 5177TIP3    H137166   3.354   3.675   2.337 -1.0958  1.8700  0.1308
 5177TIP3    H237167   3.253   3.675   2.224 -1.1063  0.3452  0.1241
 5178TIP3   OH237168   6.794   4.396   0.213 -0.1902 -0.0294 -0.4897
 5178TIP3    H137169   6.864   4.443   0.169 -1.5534  1.1917 -1.4506
 5178TIP3    H237170   6.715   4.417   0.163 -1.5915  0.3109  1.7029
 5179TIP3   OH237171   2.746   3.783   3.275  0.5587  0.0769  0.4017
 5179TIP3    H137172   2.782   3.798   3.363  1.5500  0.2848 -0.0166
 5179TIP3    H237173   2.696   3.862   3.256  0.9984  0.3816  0.4813
 5180TIP3   OH237174   2.162   4.757   1.726 -0.5122 -0.1512  0.3163
 5180TIP3    H137175   2.189   4.666   1.710  1.3725  0.1684  1.3882
 5180TIP3    H237176   2.095   4.751   1.794  0.7901 -0.6891  1.6155
 5181TIP3   OH237177   3.519   5.871   2.340  0.6966 -0.5175 -0.2719
 5181TIP3    H137178   3.546   5.873   2.432  1.8712  1.1000 -0.5994
 5181TIP3    H237179   3.600   5.887   2.291  0.0174 -0.9303 -1.5771
 5182TIP3   OH237180   2.129   3.946   0.777  0.4011 -0.1297 -0.2873
 5182TIP3    H137181   2.151   4.003   0.851 -0.4310 -0.3146  0.1061
 5182TIP3    H237182   2.081   3.873   0.816  1.0062 -0.8476 -0.8563
 5183TIP3   OH237183   4.607   4.001   3.529 -0.0388  0.5007 -0.1983
 5183TIP3    H137184   4.601   4.039   3.442  0.5197  1.7929  0.2963
 5183TIP3    H237185   4.542   4.049   3.581 -2.1270 -1.8969 -0.4065
 5184TIP3   OH237186   0.597   1.967   1.824 -0.4466  0.6974 -0.1417
 5184TIP3    H137187   0.549   1.925   1.753 -2.0193  1.2050  0.5723
 5184TIP3    H237188   0.568   1.921   1.903  1.2643  0.1490  0.1917
 5185TIP3   OH237189   0.915   1.430   3.045 -0.4046  0.0862 -0.3035
 5185TIP3    H137190   0.962   1.506   3.079 -0.6309  0.6224 -1.1613
 5185TIP3    H237191   0.835   1.466   3.007 -2.2431 -0.9274  2.3089
 5186TIP3   OH237192   5.433   4.777   8.169 -0.2774  0.0338 -0.0917
 5186TIP3    H137193   5.525   4.750   8.173 -0.2966 -0.0015  0.1078
 5186TIP3    H237194   5.409   4.795   8.259 -0.3173  0.5469 -0.2020
 5187TIP3   OH237195   6.573   0.665   2.470 -0.2260 -0.1926 -0.0605
 5187TIP3    H137196   6.651   0.708   2.505  0.0801  0.0714 -1.0228
 5187TIP3    H237197   6.510   0.735   2.458  0.9850  0.5376 -3.6613
 5188TIP3   OH237198   6.280   0.363   3.967  0.0597 -0.2162  0.2144
 5188TIP3    H137199   6.269   0.318   4.051 -0.5625  1.6275  1.1795
 5188TIP3    H237200   6.201   0.415   3.957  0.4291  0.1131 -1.2090
 5189TIP3   OH237201   3.439   6.151   8.692 -0.3062  0.4760  0.1064
 5189TIP3    H137202   3.427   6.057   8.675  0.8359  0.3709 -0.1411
 5189TIP3    H237203   3.353   6.179   8.725 -0.6099 -0.6976  0.3947
 5190TIP3   OH237204   4.408   1.944   2.376  0.0678 -0.3134 -0.2039
 5190TIP3    H137205   4.394   2.026   2.328 -0.6910  0.4657  1.3039
 5190TIP3    H237206   4.483   1.961   2.432  0.9317 -1.2170 -1.0472
 5191TIP3   OH237207   3.740   2.669   3.134  0.0173 -0.0903 -0.2850
 5191TIP3    H137208   3.735   2.718   3.216  0.1313  1.0758 -0.9596
 5191TIP3    H237209   3.649   2.656   3.109 -0.1608 -2.7595  1.3114
 5192TIP3   OH237210   6.783   0.689   3.776 -0.0266 -0.7759  0.0536
 5192TIP3    H137211   6.730   0.749   3.828 -0.8938 -1.1674 -0.3645
 5192TIP3    H237212   6.844   0.650   3.839  1.7680  1.8043  0.0617
 5193TIP3   OH237213   0.135   6.848   3.404  0.0300 -0.3178  0.3852
 5193TIP3    H137214   0.123   6.862   3.498 -0.8968 -1.2891  0.4284
 5193TIP3    H237215   0.048   6.861   3.366  0.7865  2.4426 -0.7015
 5194TIP3   OH237216   4.046   5.692   0.487 -0.0224 -0.2560 -0.5631
 5194TIP3    H137217   4.018   5.769   0.536  0.8992 -0.3192  0.0757
 5194TIP3    H237218   4.046   5.720   0.395 -0.3674  0.2821 -0.4026
 5195TIP3   OH237219   2.611   4.718   7.799  0.5005  0.0684 -0.3423
 5195TIP3    H137220   2.636   4.809   7.811  0.0807  0.4934 -2.3018
 5195TIP3    H237221   2.684   4.679   7.751 -0.4284  0.0868 -1.8326
 5196TIP3   OH237222   6.647   5.879   0.268 -0.2338  0.1734 -0.5493
 5196TIP3    H137223   6.572   5.893   0.327  1.6692  0.1974  2.0239
 5196TIP3    H237224   6.619   5.918   0.185 -2.0776  2.7357  1.0923
 5197TIP3   OH237225   1.198   1.568   2.874 -0.3782 -0.3140  0.3341
 5197TIP3    H137226   1.217   1.573   2.968 -0.4541  0.4744  0.3124
 5197TIP3    H237227   1.269   1.514   2.838 -0.2689 -0.4952  0.8196
 5198TIP3   OH237228   6.647   6.527   1.743 -0.1182 -0.6833 -0.0616
 5198TIP3    H137229   6.569   6.581   1.729 -0.2924 -0.7023  0.8099
 5198TIP3    H237230   6.618   6.438   1.726  0.3862 -0.4731 -2.4028
 5199TIP3   OH237231   3.268   1.762   8.639 -0.3811 -0.2125  0.0311
 5199TIP3    H137232   3.210   1.771   8.715 -2.5177 -0.0478 -1.5139
 5199TIP3    H237233   3.263   1.847   8.595  1.0193 -0.2201 -0.1792
 5200TIP3   OH237234   0.466   3.242   3.581  0.1431 -0.8581 -0.5573
 5200TIP3    H137235   0.454   3.305   3.510  0.5431 -0.3790 -0.2078
 5200TIP3    H237236   0.386   3.189   3.581 -0.4761  0.0626 -0.4430
 5201TIP3   OH237237   6.543   1.610   0.212 -0.0382  0.1628  0.2996
 5201TIP3    H137238   6.502   1.526   0.195  1.2585 -0.2948 -0.6847
 5201TIP3    H237239   6.635   1.589   0.229  0.8869  1.5494 -2.4840
 5202TIP3   OH237240   4.829   2.501   8.585 -0.6162 -0.0196 -0.1135
 5202TIP3    H137241   4.896   2.435   8.603 -1.3743 -1.1921 -1.3534
 5202TIP3    H237242   4.868   2.556   8.516 -0.9308 -0.7588 -0.9031
 5203TIP3   OH237243   4.525   4.579   1.956 -0.0230  0.2765  0.6813
 5203TIP3    H137244   4.540   4.658   1.903 -1.2264  0.2771  0.3117
 5203TIP3    H237245   4.541   4.608   2.046 -0.3569  0.9340  0.5410
 5204TIP3   OH237246   6.518   0.885   0.508 -0.5766 -0.0029  0.9228
 5204TIP3    H137247   6.558   0.916   0.589  1.0104 -1.4051  0.7544
 5204TIP3    H237248   6.591   0.848   0.458 -1.6244  0.1833 -0.8504
 5205TIP3   OH237249   1.021   4.363   3.506 -0.2842 -0.1545  0.0062
 5205TIP3    H137250   1.053   4.423   3.574 -1.0598 -0.8069  0.9655
 5205TIP3    H237251   1.021   4.416   3.426  2.7511  0.0385 -0.0156
 5206TIP3   OH237252   0.528   2.454   2.984 -0.2392 -0.4696  0.1141
 5206TIP3    H137253   0.548   2.510   3.059 -0.5683 -1.4803  0.9687
 5206TIP3    H237254   0.456   2.399   3.012 -2.2603  0.9706 -1.8793
 5207TIP3   OH237255   5.585   3.477   8.516 -0.3872  0.1603 -0.0491
 5207TIP3    H137256   5.533   3.499   8.439 -1.3692 -0.7072  0.3370
 5207TIP3    H237257   5.650   3.415   8.485 -0.4141  0.2527 -0.2903
 5208TIP3   OH237258   3.400   4.725   0.605 -0.0035 -0.3181  0.4549
 5208TIP3    H137259   3.483   4.703   0.647  2.1010  2.8131 -1.6537
 5208TIP3    H237260   3.373   4.806   0.647  0.3524  1.0041 -1.7325
 5209TIP3   OH237261   4.027   2.776   3.277 -0.1213  0.0342  0.2712
 5209TIP3    H137262   4.120   2.793   3.289 -0.0123  0.7812 -1.3415
 5209TIP3    H237263   4.009   2.700   3.333  2.1603 -2.0870 -1.6140
 5210TIP3   OH237264   4.091   1.534   8.769  0.1917 -0.0623 -0.5697
 5210TIP3    H137265   4.097   1.443   8.740  0.1875 -0.0575 -0.5854
 5210TIP3    H237266   4.105   1.585   8.689 -2.8415 -0.0336 -1.2005
 5211TIP3   OH237267   5.143   0.043   8.131 -0.0781  0.1864  0.1618
 5211TIP3    H137268   5.061  -0.004   8.113  0.0586 -0.2214  0.5765
 5211TIP3    H237269   5.118   0.113   8.192  0.3011 -1.6444  2.5926
 5212TIP3   OH237270   0.925   4.338   0.081 -0.2151 -0.0278 -0.0747
 5212TIP3    H137271   0.857   4.404   0.092 -0.5987 -0.4830  0.2985
 5212TIP3    H237272   0.879   4.262   0.044  0.2351 -0.0632 -0.5745
 5213TIP3   OH237273   5.997   2.452   3.710 -0.3596 -0.0522  0.5688
 5213TIP3    H137274   6.033   2.437   3.623  0.0047 -0.4029  0.7777
 5213TIP3    H237275   6.040   2.387   3.766 -0.0849  0.6084  1.1397
 5214TIP3   OH237276   3.360   2.895   0.676  0.5564  0.9165 -0.3877
 5214TIP3    H137277   3.278   2.875   0.721 -0.4584  0.0145 -2.4862
 5214TIP3    H237278   3.403   2.810   0.666  0.5565  1.0200 -1.4201
 5215TIP3   OH237279   3.267   1.455   2.843 -0.0656  0.4789  0.2901
 5215TIP3    H137280   3.194   1.417   2.795  0.4645  2.2534 -2.1298
 5215TIP3    H237281   3.283   1.394   2.916 -2.2090 -1.3175 -0.6361
 5216TIP3   OH237282   1.448   5.744   2.727 -0.4600  0.7809  0.4380
 5216TIP3    H137283   1.370   5.759   2.780 -0.1514  0.4583  0.9972
 5216TIP3    H237284   1.439   5.653   2.698  0.9344 -0.1592  2.6547
 5217TIP3   OH237285   6.849   5.759   3.032 -0.3903  0.1444  0.3209
 5217TIP3    H137286   6.860   5.839   3.083  0.9678 -1.4192  2.6980
 5217TIP3    H237287   6.804   5.699   3.091 -0.0650 -1.3147 -0.8481
 5218TIP3   OH237288   4.955   2.728   1.364  0.7693  0.0916 -0.3517
 5218TIP3    H137289   4.868   2.768   1.356  0.6133 -0.1196  0.2658
 5218TIP3    H237290   4.938   2.638   1.392  0.9556 -1.3653 -4.2837
 5219TIP3   OH237291   1.866   2.032   1.825  0.4595  0.4252  0.7099
 5219TIP3    H137292   1.868   1.953   1.770 -1.1205  0.1292  1.0296
 5219TIP3    H237293   1.896   2.102   1.767 -1.7530  0.2341 -0.7948
 5220TIP3   OH237294   1.108   6.342   2.465 -0.0241  0.0259 -0.8411
 5220TIP3    H137295   1.135   6.422   2.510  1.5073  0.3237 -2.1741
 5220TIP3    H237296   1.029   6.366   2.418 -0.5768  0.2286  0.1583
 5221TIP3   OH237297   0.955   0.016   8.285 -0.4832 -0.1070  0.4412
 5221TIP3    H137298   1.046   0.039   8.263 -1.2858 -0.4349 -4.5308
 5221TIP3    H237299   0.961  -0.070   8.326  1.4499 -0.0365  0.4002
 5222TIP3   OH237300   6.473   2.916   2.907 -0.0915  0.1687  0.2752
 5222TIP3    H137301   6.479   3.011   2.920 -0.8166  0.3183 -0.3736
 5222TIP3    H237302   6.519   2.900   2.825  0.9282 -0.1932  0.9080
 5223TIP3   OH237303   0.317   6.754   2.646  0.1223 -0.4668  0.1954
 5223TIP3    H137304   0.285   6.833   2.690 -1.9919 -0.5680 -1.0186
 5223TIP3    H237305   0.320   6.687   2.714  0.0797  0.1760  0.8412
 5224TIP3   OH237306   5.556   5.242   1.992  0.3856 -0.0697  0.5049
 5224TIP3    H137307   5.585   5.324   1.953 -0.4524  0.2277  0.4980
 5224TIP3    H237308   5.615   5.175   1.955  0.5674  0.4113 -0.0834
 5225TIP3   OH237309   2.480   4.296   8.591 -0.3001  0.1872  0.2042
 5225TIP3    H137310   2.508   4.330   8.677  1.0502  3.7785 -1.4632
 5225TIP3    H237311   2.389   4.270   8.604  0.2094 -0.6451  2.9755
 5226TIP3   OH237312   0.562   2.690   3.198  0.2172  0.0772  0.0747
 5226TIP3    H137313   0.484   2.693   3.253  0.9641  0.2781  1.1466
 5226TIP3    H237314   0.562   2.775   3.153 -0.6785 -0.2941 -0.6539
 5227TIP3   OH237315   1.299   4.343   2.702  0.5391 -0.6764 -0.0954
 5227TIP3    H137316   1.217   4.295   2.696  0.4376 -0.6057  0.6093
 5227TIP3    H237317   1.366   4.276   2.709  0.6251 -0.7507 -1.4659
 5228TIP3   OH237318   5.644   1.298   2.562 -0.3345 -0.2693 -0.2629
 5228TIP3    H137319   5.574   1.274   2.501  0.2313 -1.6170 -0.4335
 5228TIP3    H237320   5.716   1.240   2.539  0.1972 -0.2008  1.1197
 5229TIP3   OH237321   4.772   1.217   3.259 -0.1532  0.0096 -0.2842
 5229TIP3    H137322   4.758   1.236   3.166 -1.5351 -1.8998 -0.5370
 5229TIP3    H237323   4.865   1.198   3.266 -0.2373 -1.0613 -1.5867
 5230TIP3   OH237324   1.547   2.428   1.054  0.6878  0.2117  0.0055
 5230TIP3    H137325   1.458   2.428   1.087  0.8147  1.9972  0.4494
 5230TIP3    H237326   1.537   2.435   0.959  0.3623 -2.7637 -0.2751
 5231TIP3   OH237327   4.873   4.918   3.216 -0.0646 -0.1663  0.0944
 5231TIP3    H137328   4.847   4.992   3.163 -3.1337  0.1301  1.7819
 5231TIP3    H237329   4.968   4.925   3.222 -0.1280  2.9064 -0.8120
 5232TIP3   OH237330   3.152   6.614   0.427 -0.3136 -0.5565  0.1353
 5232TIP3    H137331   3.111   6.616   0.514  0.9474  0.0466  0.7512
 5232TIP3    H237332   3.223   6.550   0.436 -0.4602 -0.8292 -0.5992
 5233TIP3   OH237333   2.316   6.449   8.389  0.0147  0.0014  0.0031
 5233TIP3    H137334   2.252   6.470   8.457 -0.8889  0.3244 -0.9120
 5233TIP3    H237335   2.315   6.525   8.331  0.1328 -0.6135 -0.8197
 5234TIP3   OH237336   5.759   4.764   8.611  0.1146  0.2783 -1.0257
 5234TIP3    H137337   5.785   4.809   8.531  0.1508 -0.4674 -1.4387
 5234TIP3    H237338   5.720   4.682   8.581 -0.6692  0.3837 -0.3153
 5235TIP3   OH237339   5.634   1.093   2.306 -0.0903  0.7729  1.0463
 5235TIP3    H137340   5.699   1.074   2.239 -0.4581  0.4991  0.7595
 5235TIP3    H237341   5.617   1.008   2.348 -0.1444  0.8714  1.2243
 5236TIP3   OH237342   0.836   1.752   3.431 -0.4210  0.1426 -0.4732
 5236TIP3    H137343   0.741   1.755   3.431 -0.4392  1.8206  1.6269
 5236TIP3    H237344   0.858   1.658   3.426 -2.0544 -0.2105 -2.8946
 5237TIP3   OH237345   6.695   0.071   1.457  0.1348  0.4158 -0.0478
 5237TIP3    H137346   6.662  -0.015   1.486  0.8500 -0.3019 -1.2803
 5237TIP3    H237347   6.783   0.076   1.495  0.5440  0.0743 -0.9221
 5238TIP3   OH237348   6.079   0.185   2.323 -0.2052  0.2578  0.5376
 5238TIP3    H137349   6.086   0.247   2.251 -3.4338  0.1108 -0.0368
 5238TIP3    H237350   6.141   0.116   2.301  0.7566  1.4522 -0.7076
 5239TIP3   OH237351   6.562   5.803   2.046  0.6974 -0.1719 -0.7580
 5239TIP3    H137352   6.532   5.765   1.963  0.1141  0.4523 -0.8495
 5239TIP3    H237353   6.652   5.773   2.055 -0.2622 -3.1176  0.1013
 5240TIP3   OH237354   4.509   5.446   3.718 -0.6823  0.4145 -0.0794
 5240TIP3    H137355   4.579   5.392   3.681 -1.0994  0.3693 -0.8210
 5240TIP3    H237356   4.539   5.468   3.806  2.1383  3.6627 -1.6280
 5241TIP3   OH237357   0.325   6.349   8.688  0.0502 -0.0448  0.1042
 5241TIP3    H137358   0.341   6.441   8.668 -0.4172 -0.1834 -0.9408
 5241TIP3    H237359   0.412   6.309   8.686  0.3125  0.4552  1.0416
 5242TIP3   OH237360   6.121   3.915   2.148  0.0435  0.8101  0.0096
 5242TIP3    H137361   6.112   3.851   2.078 -0.1220  0.4986  0.3171
 5242TIP3    H237362   6.036   3.959   2.151 -0.7856 -0.7988  1.6000
 5243TIP3   OH237363   6.448   2.805   2.031  0.1234 -0.2855  0.0877
 5243TIP3    H137364   6.501   2.827   2.107  0.4332  1.5863 -0.6279
 5243TIP3    H237365   6.370   2.763   2.067  0.7363 -0.3767  1.3481
 5244TIP3   OH237366   1.658   5.100   2.897  0.0042 -0.2828  0.4432
 5244TIP3    H137367   1.699   5.181   2.865  1.5683 -1.7703 -1.5898
 5244TIP3    H237368   1.566   5.110   2.875  0.2767  0.7109 -0.3430
 5245TIP3   OH237369   6.758   6.188   2.268  0.6218 -0.3702 -0.7215
 5245TIP3    H137370   6.710   6.169   2.188  2.1849 -1.0611 -1.5451
 5245TIP3    H237371   6.799   6.104   2.292  2.7850  0.5258 -1.0468
 5246TIP3   OH237372   3.932   5.644   1.162  0.3618 -0.5844 -0.7953
 5246TIP3    H137373   3.836   5.650   1.162  0.1743  0.6961  3.7875
 5246TIP3    H237374   3.950   5.563   1.210  1.5715 -0.6188 -1.2912
 5247TIP3   OH237375   0.533   4.840   1.328  0.0011 -0.4434 -0.2938
 5247TIP3    H137376   0.522   4.749   1.302  3.9023 -2.1623  2.9935
 5247TIP3    H237377   0.504   4.843   1.420  0.8673  1.3291 -0.0191
 5248TIP3   OH237378   5.901   2.440   0.975 -0.4177 -0.0944 -0.9663
 5248TIP3    H137379   5.972   2.376   0.966  0.3347  0.6642 -0.5909
 5248TIP3    H237380   5.945   2.525   0.973 -1.0271  0.3651  1.6441
 5249TIP3   OH237381   2.379   5.300   8.540  0.1959  0.0476  0.3926
 5249TIP3    H137382   2.426   5.303   8.457 -0.5671 -0.6837 -0.0871
 5249TIP3    H237383   2.339   5.387   8.548  0.3151  0.1389  0.0143
 5250TIP3   OH237384   1.545   0.116   2.021  0.3078 -0.4784 -0.1448
 5250TIP3    H137385   1.611   0.069   2.071  1.9542  2.0646  0.2530
 5250TIP3    H237386   1.593   0.151   1.945 -0.7489  0.8079 -0.2467
 5251TIP3   OH237387   2.878   6.448   0.793 -0.0734 -0.1699 -0.2114
 5251TIP3    H137388   2.950   6.461   0.855 -0.3292  0.8938 -0.1050
 5251TIP3    H237389   2.877   6.354   0.776  0.3570 -0.4021  0.9692
 5252TIP3   OH237390   2.231   6.590   1.009  0.1541 -0.0734  0.7908
 5252TIP3    H137391   2.293   6.614   1.078  0.0093 -1.4991  1.4581
 5252TIP3    H237392   2.285   6.560   0.936  0.3495 -2.9740  1.9796
 5253TIP3   OH237393   0.308   0.543   3.686 -0.1363  0.8069  0.0718
 5253TIP3    H137394   0.244   0.541   3.757  0.3032  1.1611  0.4920
 5253TIP3    H237395   0.359   0.462   3.697 -0.3613  0.6376 -0.1225
 5254TIP3   OH237396   5.763   2.597   7.990 -0.0595 -0.4481 -0.2398
 5254TIP3    H137397   5.766   2.543   8.069 -1.2445 -1.9956 -1.2038
 5254TIP3    H237398   5.675   2.636   7.990  0.3321  0.4806 -0.2335
 5255TIP3   OH237399   4.463   1.743   2.063 -0.3263  0.3179  0.6799
 5255TIP3    H137400   4.503   1.656   2.062 -1.1027 -0.0548  0.0940
 5255TIP3    H237401   4.372   1.727   2.038 -0.2990  1.3812 -0.2017
 5256TIP3   OH237402   1.868   6.828   3.241  0.3394 -0.4976  0.4812
 5256TIP3    H137403   1.779   6.823   3.275  0.5426 -0.2503  1.0789
 5256TIP3    H237404   1.859   6.864   3.153 -0.1002  0.2442  0.8159
 5257TIP3   OH237405   6.064   4.813   1.854 -0.7745  0.0942  0.3609
 5257TIP3    H137406   6.094   4.897   1.820  0.6441 -0.7661 -0.5974
 5257TIP3    H237407   5.991   4.789   1.797 -0.8809  0.4547  0.3454
 5258TIP3   OH237408   4.113   3.092   2.647  0.0096 -0.2221 -0.4000
 5258TIP3    H137409   4.073   3.151   2.583 -3.4939 -2.1914 -0.2839
 5258TIP3    H237410   4.154   3.024   2.594 -0.5990 -0.4620 -0.5715
 5259TIP3   OH237411   5.161   3.556   0.600  0.1691  0.2784  0.3346
 5259TIP3    H137412   5.192   3.478   0.554 -0.9050 -0.1285  0.2658
 5259TIP3    H237413   5.114   3.522   0.676 -1.3088  0.7687 -0.3067
 5260TIP3   OH237414   1.217   0.828   3.680  0.1036  0.3109  0.2515
 5260TIP3    H137415   1.310   0.845   3.696  0.1607  1.2627 -0.9296
 5260TIP3    H237416   1.202   0.859   3.591 -1.3137  0.0028  0.3578
 5261TIP3   OH237417   3.957   4.229   8.636  0.3846 -0.4081  0.2847
 5261TIP3    H137418   3.992   4.189   8.715  1.1837 -2.1010 -0.8723
 5261TIP3    H237419   4.034   4.244   8.581 -0.4308 -2.8511 -1.7035
 5262TIP3   OH237420   2.124   1.507   2.805 -0.4130 -0.4304  0.0433
 5262TIP3    H137421   2.040   1.548   2.827  0.3574 -0.6599  4.3050
 5262TIP3    H237422   2.101   1.415   2.789 -1.1489 -0.1852 -0.3479
 5263TIP3   OH237423   0.394   3.806   2.669 -0.4137  0.2242  0.2895
 5263TIP3    H137424   0.311   3.801   2.620 -0.6400  2.1303  0.3867
 5263TIP3    H237425   0.433   3.719   2.659 -1.0761  0.1242 -2.1861
 5264TIP3   OH237426   5.077   5.639   1.438  0.3882 -0.3269  0.3734
 5264TIP3    H137427   4.984   5.664   1.437  0.3054 -0.6164 -0.9267
 5264TIP3    H237428   5.117   5.693   1.370  0.8924 -1.2031 -0.0442
 5265TIP3   OH237429   1.249   5.573   8.204 -0.4194  0.4187  0.6608
 5265TIP3    H137430   1.256   5.652   8.258  0.9900  1.9326 -1.6235
 5265TIP3    H237431   1.338   5.538   8.200 -0.2047  1.1190 -1.7432
 5266TIP3   OH237432   1.294   0.273   0.689  0.2244 -0.1383 -0.5376
 5266TIP3    H137433   1.243   0.297   0.767  1.2967 -0.0613  0.1655
 5266TIP3    H237434   1.231   0.278   0.617 -1.0264 -1.1282  0.4299
 5267TIP3   OH237435   4.344   4.260   8.027  0.0586  0.2992  0.0818
 5267TIP3    H137436   4.249   4.274   8.034  0.2035  1.9495 -0.8092
 5267TIP3    H237437   4.380   4.307   8.102  0.2489  0.7872 -0.3129
 5268TIP3   OH237438   5.017   5.277   2.185  1.0420 -0.1848  0.2518
 5268TIP3    H137439   5.105   5.280   2.148  0.5890  1.1074 -0.7773
 5268TIP3    H237440   4.987   5.367   2.185 -0.7192 -0.7200 -0.5179
 5269TIP3   OH237441   5.393   0.807   2.662  0.0472  0.0651 -0.1163
 5269TIP3    H137442   5.340   0.771   2.733  0.8249 -2.7928 -0.8483
 5269TIP3    H237443   5.438   0.882   2.700 -0.7686 -0.4320  1.9321
 5270TIP3   OH237444   4.265   6.820   0.830  0.0731  0.2774  0.5842
 5270TIP3    H137445   4.330   6.813   0.760  0.4195  0.6294  0.8747
 5270TIP3    H237446   4.315   6.837   0.909 -0.1951 -1.4860  1.1897
 5271TIP3   OH237447   1.502   6.078   2.455  0.2882  0.4509  0.2742
 5271TIP3    H137448   1.476   6.148   2.395  0.9079  1.7331  1.4334
 5271TIP3    H237449   1.422   6.056   2.502 -0.0365 -0.0433 -0.4929
 5272TIP3   OH237450   2.271   5.463   0.917 -0.5458 -0.0155 -0.1945
 5272TIP3    H137451   2.305   5.551   0.931 -0.0051 -0.1469 -0.6350
 5272TIP3    H237452   2.220   5.469   0.836  0.2035 -0.2859 -0.7032
 5273TIP3   OH237453   0.712   6.016   1.755 -0.2810  0.1913 -0.2060
 5273TIP3    H137454   0.792   6.049   1.794 -0.0404 -0.7813  0.1597
 5273TIP3    H237455   0.742   5.960   1.683 -0.5906 -0.6038  0.2657
 5274TIP3   OH237456   6.265   1.900   3.369  0.5654 -0.0219 -0.0653
 5274TIP3    H137457   6.181   1.941   3.391  1.2963  2.7836 -1.9179
 5274TIP3    H237458   6.309   1.888   3.453 -0.8894  0.3117  0.7811
 5275TIP3   OH237459   5.619   2.317   0.346  0.1874  0.2526 -0.1714
 5275TIP3    H137460   5.641   2.407   0.322 -0.1242  0.0211 -1.3889
 5275TIP3    H237461   5.628   2.315   0.441  0.3167  1.5352 -0.1356
 5276TIP3   OH237462   4.050   4.641   0.441 -0.6765 -0.1692  0.1790
 5276TIP3    H137463   4.106   4.595   0.378  0.9160 -1.5628  2.4713
 5276TIP3    H237464   4.109   4.700   0.487 -1.0730 -1.3693  2.3773
 5277TIP3   OH237465   2.804   4.405   2.197  0.2978 -0.3239  0.0489
 5277TIP3    H137466   2.714   4.418   2.227  0.5110 -1.8264  1.5305
 5277TIP3    H237467   2.795   4.362   2.112 -0.4669 -2.1482  0.9871
 5278TIP3   OH237468   2.978   6.250   4.254 -0.3708  0.5696 -0.3670
 5278TIP3    H137469   2.886   6.228   4.238 -0.6025  1.4193 -0.2295
 5278TIP3    H237470   2.997   6.321   4.193  0.7732 -0.8899 -1.8126
 5279TIP3   OH237471   5.907   3.000   2.743  0.1439  0.1276 -0.2438
 5279TIP3    H137472   5.957   2.962   2.672  0.1218  0.2611 -0.3326
 5279TIP3    H237473   5.964   2.992   2.820  0.4972  0.6963 -0.4350
 5280TIP3   OH237474   2.300   1.966   1.372  0.2311  0.5345 -0.3938
 5280TIP3    H137475   2.387   1.926   1.362  0.0483 -0.0634  0.2870
 5280TIP3    H237476   2.242   1.892   1.389 -0.2693  1.0161  0.0250
 5281TIP3   OH237477   4.244   2.866   8.769 -0.0795  0.9643 -0.0691
 5281TIP3    H137478   4.194   2.848   8.848  0.0836 -1.7497 -0.4826
 5281TIP3    H237479   4.336   2.854   8.795  0.1073  1.8154 -0.2891
 5282TIP3   OH237480   2.242   4.382   0.167 -0.5029 -0.2691 -0.2555
 5282TIP3    H137481   2.214   4.305   0.217 -0.7871 -0.0496 -0.0779
 5282TIP3    H237482   2.337   4.385   0.178 -0.2106 -1.7459 -1.8666
 5283TIP3   OH237483   1.730   0.020   1.532 -0.2006  0.3417 -0.1621
 5283TIP3    H137484   1.687   0.096   1.492 -0.7533  0.0034 -0.2246
 5283TIP3    H237485   1.685  -0.055   1.493  1.8793 -0.1144 -1.8892
 5284TIP3   OH237486   5.985   1.487   1.411  0.1814  0.3871 -0.5257
 5284TIP3    H137487   5.989   1.577   1.445  0.8843  0.9000 -1.8658
 5284TIP3    H237488   6.074   1.454   1.421  0.3812  0.5235 -1.7379
 5285TIP3   OH237489   2.134   1.420   1.188 -0.7569 -0.3282 -0.1104
 5285TIP3    H137490   2.143   1.433   1.093  0.0829 -0.7094 -0.0905
 5285TIP3    H237491   2.223   1.426   1.222 -1.1949  1.3476  0.8826
 5286TIP3   OH237492   5.817   1.913   2.226  0.2995  0.6169 -0.0649
 5286TIP3    H137493   5.815   1.974   2.300  0.5176 -0.6956  1.0666
 5286TIP3    H237494   5.745   1.852   2.244  2.4572 -1.8007  0.9856
 5287TIP3   OH237495   0.099   0.965   3.542  0.0527 -0.4576  0.3794
 5287TIP3    H137496   0.057   0.933   3.462  1.4824 -2.4164  0.3516
 5287TIP3    H237497   0.032   0.960   3.609 -0.6057 -0.6637 -0.2877
 5288TIP3   OH237498   0.438   4.669   3.198 -0.2496 -0.0553  0.0166
 5288TIP3    H137499   0.491   4.665   3.118 -0.8017 -2.8461 -0.3131
 5288TIP3    H237500   0.468   4.748   3.242  2.7752 -0.4208 -1.1208
 5289TIP3   OH237501   0.889   4.733   2.791  0.2791  0.2484  0.5378
 5289TIP3    H137502   0.894   4.659   2.852 -0.7455 -2.3829 -2.3098
 5289TIP3    H237503   0.949   4.711   2.720  1.7178  3.3792  0.5910
 5290TIP3   OH237504   3.679   4.689   7.966  0.2951  0.3317 -0.2486
 5290TIP3    H137505   3.748   4.753   7.983 -0.8623  1.5570  0.0162
 5290TIP3    H237506   3.724   4.617   7.920  1.6563  1.2486 -0.4251
 5291TIP3   OH237507   2.196   3.763   3.876 -0.2575 -0.6089  0.3096
 5291TIP3    H137508   2.290   3.760   3.860 -0.2670 -0.6155  0.2547
 5291TIP3    H237509   2.186   3.824   3.949 -0.3704  1.0129 -0.9919
 5292TIP3   OH237510   2.394   1.891   1.732  0.3271  0.4299 -0.8254
 5292TIP3    H137511   2.473   1.876   1.680 -0.0406  0.1771 -1.3200
 5292TIP3    H237512   2.353   1.804   1.739  1.0275  0.2199  0.9792
 5293TIP3   OH237513   2.076   5.801   3.909  0.0442  0.3631 -0.3370
 5293TIP3    H137514   2.142   5.742   3.945 -0.6470  0.0608  0.4553
 5293TIP3    H237515   2.115   5.888   3.918  1.5400  0.0058 -2.5205
 5294TIP3   OH237516   5.287   2.771   1.251  0.3242  0.0073 -0.1586
 5294TIP3    H137517   5.361   2.718   1.221 -0.5441 -1.3195 -0.0137
 5294TIP3    H237518   5.239   2.793   1.171  1.0474  1.1959 -0.2978
 5295TIP3   OH237519   4.264   3.505   3.164 -0.8633 -0.3594  1.0776
 5295TIP3    H137520   4.319   3.504   3.242 -0.7390  0.8054  1.0129
 5295TIP3    H237521   4.176   3.484   3.197 -0.7717 -0.1055  1.4979
 5296TIP3   OH237522   1.214   2.925   3.577 -0.2926  0.0319  0.7921
 5296TIP3    H137523   1.294   2.878   3.553  0.8389  2.0735  0.3875
 5296TIP3    H237524   1.154   2.856   3.606  0.3472 -1.9638 -2.1553
 5297TIP3   OH237525   0.491   1.422   3.487 -0.8178  1.0362  0.7422
 5297TIP3    H137526   0.445   1.391   3.565  0.4008 -0.1957  1.0052
 5297TIP3    H237527   0.461   1.364   3.417 -0.8488  1.2379  0.5888
 5298TIP3   OH237528   3.550   3.294   8.553  0.5816 -0.2761  0.5921
 5298TIP3    H137529   3.544   3.235   8.478 -0.7627 -1.3349  1.4704
 5298TIP3    H237530   3.643   3.305   8.568  0.8746 -0.2767 -1.0459
 5299TIP3   OH237531   4.659   3.462   1.046 -0.5401 -0.2325 -0.4234
 5299TIP3    H137532   4.581   3.492   1.000 -1.4009  0.2125  1.2549
 5299TIP3    H237533   4.729   3.520   1.015 -0.3961 -1.7025 -3.2431
 5300TIP3   OH237534   1.095   1.472   3.979 -0.1927  0.1650  0.4920
 5300TIP3    H137535   1.157   1.471   4.052  0.2083 -0.9243  0.1532
 5300TIP3    H237536   1.046   1.391   3.989  0.1443 -0.1969 -0.6809
 5301TIP3   OH237537   0.940   1.041   0.480  0.0822 -0.1136 -0.0083
 5301TIP3    H137538   0.984   1.116   0.520  0.0504  0.7953 -1.5650
 5301TIP3    H237539   0.881   1.080   0.415 -0.0984 -1.4836 -0.6991
 5302TIP3   OH237540   5.788   6.763   3.120  0.1145 -0.1343  0.5019
 5302TIP3    H137541   5.747   6.848   3.136  1.0098  0.5887 -0.8529
 5302TIP3    H237542   5.720   6.710   3.079 -0.3537  0.0155  1.0702
 5303TIP3   OH237543   3.617   3.245   1.266 -0.2639 -0.4230 -0.0153
 5303TIP3    H137544   3.522   3.242   1.257 -0.3638  0.1518  0.7902
 5303TIP3    H237545   3.639   3.168   1.319  0.0067 -2.0139 -2.2914
 5304TIP3   OH237546   3.048   1.023   3.147  0.4662  0.0852  0.5826
 5304TIP3    H137547   3.068   1.116   3.145 -0.5753  0.3435  1.6562
 5304TIP3    H237548   2.959   1.017   3.181 -0.0507 -1.2246 -0.8422
 5305TIP3   OH237549   3.481   1.786   0.835  0.4323  0.8375 -0.6173
 5305TIP3    H137550   3.557   1.841   0.813  1.5017 -1.1304 -2.1027
 5305TIP3    H237551   3.413   1.813   0.774  0.9020  0.6372 -1.2418
 5306TIP3   OH237552   1.743   5.540   3.647  0.5742 -0.2356  0.5631
 5306TIP3    H137553   1.811   5.474   3.662  0.5574 -0.5817 -0.7950
 5306TIP3    H237554   1.664   5.489   3.629  0.6367  0.1283 -0.8255
 5307TIP3   OH237555   1.693   0.122   1.798  0.5889  0.0731  0.2482
 5307TIP3    H137556   1.700   0.028   1.818  1.4092 -0.6163 -2.7912
 5307TIP3    H237557   1.754   0.135   1.726  0.1332  2.8860  0.2900
 5308TIP3   OH237558   6.298   2.706   2.381  0.6042 -0.0213 -0.4501
 5308TIP3    H137559   6.346   2.769   2.434  0.6472  0.0497 -0.5737
 5308TIP3    H237560   6.238   2.759   2.329 -0.3579 -0.1873  0.4755
 5309TIP3   OH237561   6.388   4.464   0.576  0.4368  0.0807 -0.4099
 5309TIP3    H137562   6.329   4.525   0.531  0.5484 -0.7571 -1.7429
 5309TIP3    H237563   6.476   4.495   0.553  0.4953 -0.2858 -0.6786
 5310TIP3   OH237564   4.227   6.013   2.118  0.1516  0.2215  0.0198
 5310TIP3    H137565   4.187   6.040   2.201  1.1956 -1.7116  1.2363
 5310TIP3    H237566   4.316   5.988   2.143  0.9123  0.8306 -1.9495
 5311TIP3   OH237567   3.221   5.936   2.408 -0.2520 -0.3894  0.0779
 5311TIP3    H137568   3.262   6.021   2.426 -1.5424  0.3846 -0.5234
 5311TIP3    H237569   3.294   5.873   2.413  1.5952  1.1801 -3.2900
 5312TIP3   OH237570   5.009   3.073   1.627  0.2970  0.0548 -0.2395
 5312TIP3    H137571   4.918   3.101   1.641 -0.2174 -0.7251 -1.8610
 5312TIP3    H237572   5.032   3.111   1.542  1.3123 -0.2121 -0.0852
 5313TIP3   OH237573   1.623   1.004   1.079  0.4290  0.4353 -0.1311
 5313TIP3    H137574   1.577   1.087   1.080 -0.7696 -0.1957  1.3969
 5313TIP3    H237575   1.695   1.015   1.141 -0.3420  0.0318  0.8532
 5314TIP3   OH237576   6.220   0.609   0.726  0.5436 -0.1652  0.1219
 5314TIP3    H137577   6.172   0.687   0.752  1.4513 -0.5058  3.2628
 5314TIP3    H237578   6.279   0.591   0.800  3.6040 -1.2855 -2.3439
 5315TIP3   OH237579   3.717   1.426   2.050  0.5421 -0.5622  0.3268
 5315TIP3    H137580   3.780   1.389   1.988  0.2914  1.3331 -1.1352
 5315TIP3    H237581   3.639   1.371   2.042  0.0872  0.3231 -1.9668
 5316TIP3   OH237582   2.148   1.832   2.339  0.7233 -0.1866 -0.6448
 5316TIP3    H137583   2.078   1.773   2.367 -0.3725  1.3503  0.0127
 5316TIP3    H237584   2.192   1.786   2.268 -1.0064 -1.1813 -1.1250
 5317TIP3   OH237585   5.177   1.322   2.335  0.6309  0.0523 -0.1601
 5317TIP3    H137586   5.143   1.264   2.266 -2.3111  2.1840 -0.6808
 5317TIP3    H237587   5.141   1.286   2.416  0.3313  0.0947 -0.2717
 5318TIP3   OH237588   4.456   3.010   1.798  0.4988  0.2631  0.4934
 5318TIP3    H137589   4.470   3.088   1.852  1.5017 -1.2914  2.6107
 5318TIP3    H237590   4.493   2.938   1.849 -0.9248 -1.7208 -1.0911
 5319TIP3   OH237591   1.423   4.439   0.194 -0.1561 -0.0685 -0.4702
 5319TIP3    H137592   1.479   4.392   0.132  2.1172 -0.4410  1.7249
 5319TIP3    H237593   1.463   4.423   0.280  0.3842  5.1557  0.6002
 5320TIP3   OH237594   0.895   4.935   3.315 -0.2473 -0.4470 -0.6017
 5320TIP3    H137595   0.873   4.952   3.224 -0.4954  0.6934 -0.3416
 5320TIP3    H237596   0.987   4.910   3.313  0.0405  0.6208 -1.0528
 5321TIP3   OH237597   6.114   6.022   4.381  0.3111 -0.3144 -0.1478
 5321TIP3    H137598   6.150   5.966   4.450  0.7267 -1.3759 -1.1778
 5321TIP3    H237599   6.122   5.969   4.301  0.3567  1.0826 -1.1052
 5322TIP3   OH237600   5.630   2.831   2.077 -0.3492 -0.0363  0.7514
 5322TIP3    H137601   5.645   2.888   2.001  0.1160 -1.3038 -0.1388
 5322TIP3    H237602   5.573   2.762   2.045 -0.8254 -0.1428  1.7924
 5323TIP3   OH237603   3.116   3.900   3.962  0.6115  0.0938 -0.2368
 5323TIP3    H137604   3.197   3.862   3.997  0.9202 -1.2154 -2.1582
 5323TIP3    H237605   3.080   3.951   4.034  2.2723 -0.6687  1.2248
 5324TIP3   OH237606   6.436   5.875   0.425 -0.4082 -0.3413  0.1640
 5324TIP3    H137607   6.365   5.837   0.478 -1.5778  2.1752  0.5442
 5324TIP3    H237608   6.408   5.965   0.410  2.3895  0.5090 -0.3488
 5325TIP3   OH237609   5.178   4.731   2.257  0.0162 -0.1829  0.0704
 5325TIP3    H137610   5.192   4.730   2.351  1.8968  0.2199 -0.1515
 5325TIP3    H237611   5.183   4.824   2.233 -2.4261 -0.0542 -0.2264
 5326TIP3   OH237612   4.716   4.058   2.100 -0.8314  0.2725  0.1946
 5326TIP3    H137613   4.683   4.084   2.186 -0.9773  1.2706 -0.1543
 5326TIP3    H237614   4.770   4.131   2.071 -1.5416  0.3665 -0.9721
 5327TIP3   OH237615   1.706   3.652   1.450  0.2461  0.2162  0.2704
 5327TIP3    H137616   1.691   3.738   1.489 -0.7247 -0.3416  1.1903
 5327TIP3    H237617   1.788   3.622   1.488  0.5283  0.6782  0.0349
 5328TIP3   OH237618   1.790   4.103   2.714 -0.3676 -0.2079 -0.2347
 5328TIP3    H137619   1.695   4.112   2.726 -0.1824  0.4910  0.8781
 5328TIP3    H237620   1.827   4.127   2.799  0.7910 -0.9182 -0.5191
 5329TIP3   OH237621   5.173   4.486   2.007  0.5432 -0.4432 -0.1407
 5329TIP3    H137622   5.143   4.488   2.098 -1.3983 -0.7414 -0.7289
 5329TIP3    H237623   5.140   4.403   1.973  1.6663 -0.5612 -1.0103
 5330TIP3   OH237624   2.557   6.628   1.435 -0.1392  0.3743  0.3934
 5330TIP3    H137625   2.546   6.660   1.525  1.0152  0.0903  0.6454
 5330TIP3    H237626   2.593   6.540   1.444  0.4430  0.5243 -0.3508
 5331TIP3   OH237627   3.312   3.072   0.891 -0.0092  0.5092  0.1849
 5331TIP3    H137628   3.386   3.066   0.952  0.3733  1.6378 -0.1499
 5331TIP3    H237629   3.340   3.020   0.816  0.5618  1.1307 -0.0410
 5332TIP3   OH237630   0.448   4.588   1.312  0.0322  0.8940 -0.4013
 5332TIP3    H137631   0.435   4.520   1.246 -0.6684 -0.1601  0.7844
 5332TIP3    H237632   0.522   4.557   1.364  0.5255  1.6771 -0.6234
 5333TIP3   OH237633   0.894   6.694   2.554  0.3415  0.3638  0.5492
 5333TIP3    H137634   0.888   6.781   2.515  0.2250  0.1427  0.0670
 5333TIP3    H237635   0.891   6.634   2.480  0.5677 -0.0473  0.8680
 5334TIP3   OH237636   5.923   1.271   3.474  0.4869  0.1966  0.4105
 5334TIP3    H137637   5.945   1.279   3.566 -1.4092 -2.0096  1.1502
 5334TIP3    H237638   6.002   1.237   3.433  0.4767 -1.6225  1.8042
 5335TIP3   OH237639   3.715   2.939   7.888 -0.2297 -0.1179  0.1506
 5335TIP3    H137640   3.671   2.998   7.828 -1.2459  0.5549  1.4970
 5335TIP3    H237641   3.646   2.909   7.948  0.1985 -2.8351 -0.5746
 5336TIP3   OH237642   3.692   0.582   3.983  0.1277 -0.1198 -0.1610
 5336TIP3    H137643   3.663   0.659   4.032 -0.8111 -0.9293  0.6171
 5336TIP3    H237644   3.677   0.605   3.891 -3.2384 -0.4713  0.1629
 5337TIP3   OH237645   1.709   1.704   3.087  0.0742  0.5596 -0.4888
 5337TIP3    H137646   1.757   1.689   3.168  0.4659  3.7475 -0.0241
 5337TIP3    H237647   1.631   1.753   3.113  0.0616  1.4042 -1.9701
 5338TIP3   OH237648   5.113   3.062   0.231  0.3010  0.0223 -0.2632
 5338TIP3    H137649   5.067   3.017   0.302  2.0964  1.5925  2.0768
 5338TIP3    H237650   5.138   2.992   0.171  1.2912 -1.9240  2.1913
 5339TIP3   OH237651   6.814   6.140   1.667  0.3961 -0.1101 -0.0320
 5339TIP3    H137652   6.737   6.194   1.647  0.0609 -0.4660  0.2774
 5339TIP3    H237653   6.889   6.196   1.645  0.0700  0.7014  0.8117
 5340TIP3   OH237654   5.045   6.409   2.094  0.4121 -0.3647  0.0108
 5340TIP3    H137655   5.061   6.400   2.000  0.4464 -2.6215  0.1663
 5340TIP3    H237656   4.985   6.483   2.101 -0.6044 -0.9240 -1.9176
 5341TIP3   OH237657   4.302   4.085   2.348  0.2144  0.1627  0.6675
 5341TIP3    H137658   4.292   4.130   2.432 -1.3165  1.9544 -0.3902
 5341TIP3    H237659   4.219   4.100   2.302  0.2851 -2.3774 -0.4593
 5342TIP3   OH237660   0.446   3.256   4.469  0.1569 -0.4052 -0.0525
 5342TIP3    H137661   0.542   3.249   4.463  0.1485  0.1624 -1.1665
 5342TIP3    H237662   0.417   3.165   4.481  0.8362 -0.5791  0.3578
 5343TIP3   OH237663   0.277   2.943   1.013 -0.2028  0.4385  0.1453
 5343TIP3    H137664   0.351   2.948   1.073 -0.0275  1.3455 -0.1269
 5343TIP3    H237665   0.253   3.034   0.997 -0.3995  0.2154 -0.9685
 5344TIP3   OH237666   2.137   0.803   2.063  0.2660 -0.9108 -0.4404
 5344TIP3    H137667   2.087   0.883   2.082  2.5667  0.3695  0.6781
 5344TIP3    H237668   2.093   0.735   2.114  0.5674  0.5247  1.8863
 5345TIP3   OH237669   5.994   4.582   4.041 -0.4085 -0.2869  0.9017
 5345TIP3    H137670   5.988   4.554   4.132  0.2769 -1.0808  0.7228
 5345TIP3    H237671   5.990   4.500   3.990  0.8085 -0.0151  0.3177
 5346TIP3   OH237672   6.242   0.877   3.803 -0.2535 -0.2375  0.4183
 5346TIP3    H137673   6.160   0.927   3.805 -1.7144 -2.2644 -2.1147
 5346TIP3    H237674   6.225   0.803   3.862 -0.8917 -1.3963 -1.1308
 5347TIP3   OH237675   1.562   4.192   2.987 -0.0179 -0.0391 -0.6533
 5347TIP3    H137676   1.654   4.215   2.995  0.2776 -1.1101 -0.7318
 5347TIP3    H237677   1.535   4.166   3.075  0.2653 -1.4387 -0.9506
 5348TIP3   OH237678   1.196   4.156   3.262 -0.1567 -0.9419 -0.5310
 5348TIP3    H137679   1.200   4.170   3.357 -0.5502  1.3052 -0.7688
 5348TIP3    H237680   1.149   4.073   3.251  0.6394 -1.6629  1.2375
 5349TIP3   OH237681   2.073   1.883   2.886  0.2317  0.6621 -0.2158
 5349TIP3    H137682   2.057   1.881   2.980  0.6401  1.4665 -0.1241
 5349TIP3    H237683   2.023   1.808   2.852  1.0469 -0.3681  0.7722
 5350TIP3   OH237684   0.363   1.119   8.589  0.2042 -0.2718  0.2588
 5350TIP3    H137685   0.332   1.164   8.511 -0.6096  2.1479  1.8427
 5350TIP3    H237686   0.306   1.043   8.597 -0.4612  0.0833 -0.8881
 5351TIP3   OH237687   2.010   6.386   8.065 -0.0650  0.7075 -0.0882
 5351TIP3    H137688   1.921   6.417   8.047 -0.0396  0.6365 -0.3475
 5351TIP3    H237689   2.038   6.434   8.142 -0.6488  0.1002  0.5129
 5352TIP3   OH237690   4.347   3.585   8.264  0.0822 -0.0056 -0.0055
 5352TIP3    H137691   4.430   3.617   8.228 -0.2984 -1.5271 -2.4386
 5352TIP3    H237692   4.360   3.490   8.272 -1.3133 -0.2189 -0.1146
 5353TIP3   OH237693   5.387   6.328   1.263 -0.3597 -0.1656 -0.3474
 5353TIP3    H137694   5.466   6.349   1.313 -0.8166  1.3206 -0.2021
 5353TIP3    H237695   5.341   6.264   1.318  0.6598 -0.9401 -0.3713
 5354TIP3   OH237696   6.343   0.285   8.524  0.1985  0.5232  0.1058
 5354TIP3    H137697   6.381   0.358   8.573 -0.0697  0.0154  1.1068
 5354TIP3    H237698   6.321   0.220   8.591  0.8557 -0.6761 -0.8055
 5355TIP3   OH237699   4.444   3.471   2.233 -0.0056 -0.9596 -0.3255
 5355TIP3    H137700   4.428   3.494   2.325  1.6666  2.6430 -0.7481
 5355TIP3    H237701   4.361   3.486   2.189 -0.4887 -1.5227  0.3730
 5356TIP3   OH237702   3.127   6.625   2.842 -0.0390  0.7783  0.2798
 5356TIP3    H137703   3.134   6.600   2.750 -1.5563 -1.1391  0.6241
 5356TIP3    H237704   3.062   6.696   2.843 -0.0648  0.7621 -0.1091
 5357TIP3   OH237705   4.073   4.101   2.200 -0.4360 -0.1129 -0.1170
 5357TIP3    H137706   4.004   4.038   2.222 -0.1265 -0.3665  0.1255
 5357TIP3    H237707   4.026   4.185   2.192 -0.7907 -0.3017 -0.0640
 5358TIP3   OH237708   5.233   5.117   2.765  0.1388  0.2984 -0.1143
 5358TIP3    H137709   5.181   5.099   2.844 -0.1136  1.3525 -0.0243
 5358TIP3    H237710   5.310   5.163   2.798  0.4410  0.0047 -0.4048
 5359TIP3   OH237711   4.020   4.829   1.445  0.2957  0.1597  0.4803
 5359TIP3    H137712   4.084   4.800   1.510 -0.0175  0.5431  0.9698
 5359TIP3    H237713   4.010   4.754   1.386  2.4572  0.6762 -0.6283
 5360TIP3   OH237714   4.527   5.536   0.873 -0.0139  0.1539  0.3208
 5360TIP3    H137715   4.509   5.629   0.863 -1.4988 -0.0468  0.8697
 5360TIP3    H237716   4.447   5.500   0.911  1.2743 -0.9756  2.1657
 5361TIP3   OH237717   6.379   3.550   1.694 -0.1313 -0.1122 -0.3287
 5361TIP3    H137718   6.469   3.519   1.682 -0.6801 -1.2728 -1.7143
 5361TIP3    H237719   6.360   3.535   1.787  1.5305  1.4373  0.3250
 5362TIP3   OH237720   3.367   6.513   2.964  0.6619 -0.0127 -0.6569
 5362TIP3    H137721   3.303   6.583   2.953  0.0205 -0.7023 -1.4807
 5362TIP3    H237722   3.375   6.474   2.877  0.7968 -1.1384 -0.1542
 5363TIP3   OH237723   2.742   2.749   1.875  0.4276  0.0248 -0.1278
 5363TIP3    H137724   2.744   2.659   1.907  2.9569  0.5792  1.5594
 5363TIP3    H237725   2.663   2.786   1.914  0.4484 -0.8974  0.8313
 5364TIP3   OH237726   6.588   2.086   8.660  0.3320  0.0241  0.1047
 5364TIP3    H137727   6.590   2.093   8.756  1.7539  0.8843  0.0318
 5364TIP3    H237728   6.641   2.009   8.640 -0.7150 -0.6994  0.0294
 5365TIP3   OH237729   1.985   2.766   2.748  0.7078  0.4555 -0.5905
 5365TIP3    H137730   1.962   2.686   2.795  3.8916 -0.0863  0.2484
 5365TIP3    H237731   2.018   2.736   2.663 -0.0205  1.0816 -1.1188
 5366TIP3   OH237732   6.082   0.435   8.561 -0.2552 -0.4991  0.4335
 5366TIP3    H137733   6.116   0.351   8.591  0.6160 -0.4628 -0.3963
 5366TIP3    H237734   6.026   0.414   8.487 -0.7239 -0.4109  0.7553
 5367TIP3   OH237735   0.523   1.449   1.941 -0.9492 -0.0699 -0.2106
 5367TIP3    H137736   0.555   1.496   1.864 -1.1082  2.1285  1.0117
 5367TIP3    H237737   0.602   1.430   1.992 -1.0886  0.8451  0.3557
 5368TIP3   OH237738   6.124   1.455   8.473  0.0289 -0.2424 -0.1016
 5368TIP3    H137739   6.058   1.472   8.541  2.9801 -1.5670  3.4471
 5368TIP3    H237740   6.090   1.499   8.395 -2.9771  2.7514  2.5658
 5369TIP3   OH237741   1.481   2.161   2.556  0.2952 -0.1226 -0.4855
 5369TIP3    H137742   1.432   2.215   2.618  0.4438 -0.5865  0.0479
 5369TIP3    H237743   1.521   2.223   2.495  0.9015  0.4151  0.4305
 5370TIP3   OH237744   3.964   3.671   2.282 -0.1407  0.1351 -0.0615
 5370TIP3    H137745   4.023   3.708   2.348  0.7694 -0.5598 -0.4713
 5370TIP3    H237746   3.876   3.688   2.317  0.2091  2.4569 -0.1090
 5371TIP3   OH237747   2.107   6.048   3.036  0.6016  0.3696  0.1756
 5371TIP3    H137748   2.194   6.036   2.998  2.0517  2.2130  2.6320
 5371TIP3    H237749   2.072   6.126   2.992  0.9071  0.6046  0.3462
 5372TIP3   OH237750   2.338   3.081   8.778 -0.5712 -0.2845 -0.3580
 5372TIP3    H137751   2.362   3.083   8.685  1.2534 -2.0248  0.0197
 5372TIP3    H237752   2.289   2.999   8.789 -2.5459  0.8504 -0.1061
 5373TIP3   OH237753   2.758   6.186   3.785 -0.2227 -0.5693  0.0591
 5373TIP3    H137754   2.785   6.143   3.866 -1.0691  0.2303  0.7903
 5373TIP3    H237755   2.716   6.117   3.734  0.0597 -1.0139  0.4188
 5374TIP3   OH237756   5.906   2.977   3.585  0.6264  0.2840  0.1510
 5374TIP3    H137757   5.917   2.939   3.498 -0.1367 -0.7596  0.4912
 5374TIP3    H237758   5.817   2.955   3.610  0.9175  0.3357  1.3089
 5375TIP3   OH237759   2.455   2.378   2.558  0.2073  0.2915  0.3368
 5375TIP3    H137760   2.506   2.313   2.607 -1.2142  0.0984  1.6417
 5375TIP3    H237761   2.455   2.346   2.468 -0.3487 -1.4866  0.9221
 5376TIP3   OH237762   0.644   3.336   2.221  0.2112  0.1860  0.0157
 5376TIP3    H137763   0.590   3.368   2.149  0.2711 -0.4466 -0.3106
 5376TIP3    H237764   0.613   3.387   2.297  0.7277  1.4640 -0.5918
 5377TIP3   OH237765   1.636   2.578   8.569  0.0952  0.2343 -0.6993
 5377TIP3    H137766   1.622   2.519   8.495 -0.7570 -0.7238  0.1871
 5377TIP3    H237767   1.730   2.599   8.566  0.4590 -1.3107 -0.9541
 5378TIP3   OH237768   6.829   6.714   0.533  0.0963  0.0279  0.4163
 5378TIP3    H137769   6.888   6.784   0.504  0.3393  0.1106  1.0903
 5378TIP3    H237770   6.817   6.659   0.456 -0.5837  1.1400 -0.3046
 5379TIP3   OH237771   6.742   1.779   0.038 -0.3797  0.4611 -0.0131
 5379TIP3    H137772   6.780   1.692   0.048  0.3736  0.8592  0.6840
 5379TIP3    H237773   6.758   1.802  -0.054 -2.1582 -0.8361 -0.7002
 5380TIP3   OH237774   0.885   5.293   1.249  0.5673 -0.2904  0.1843
 5380TIP3    H137775   0.877   5.366   1.311  1.3731 -0.0086 -0.0444
 5380TIP3    H237776   0.890   5.335   1.163 -1.3072 -0.7027 -0.1799
 5381TIP3   OH237777   3.971   2.925   0.807  0.4656  0.4636  0.4385
 5381TIP3    H137778   3.917   2.916   0.885  1.1519  0.9693  0.9805
 5381TIP3    H237779   3.965   3.018   0.784 -0.1709  0.2264 -0.4470
 5382TIP3   OH237780   2.124   1.418   8.756  0.3725  0.1389  0.3721
 5382TIP3    H137781   2.216   1.404   8.732  0.3197  1.4849 -0.7389
 5382TIP3    H237782   2.100   1.500   8.712 -1.2413  0.0333  0.9962
 5383TIP3   OH237783   0.020   4.976   2.443 -0.2338  0.5665  0.2480
 5383TIP3    H137784   0.069   5.048   2.483 -0.3765  1.1717 -0.6276
 5383TIP3    H237785  -0.056   4.964   2.499  2.0173 -2.0627  3.1262
 5384TIP3   OH237786   2.597   2.315   1.665  0.4500 -0.2295 -0.0948
 5384TIP3    H137787   2.581   2.254   1.737  1.2932  0.1723  0.4464
 5384TIP3    H237788   2.549   2.277   1.591 -1.9816  0.3057  1.0901
 5385TIP3   OH237789   2.457   3.659   1.890  0.4861  0.3957 -0.0370
 5385TIP3    H137790   2.488   3.720   1.823  1.2401 -2.3755 -2.3902
 5385TIP3    H237791   2.521   3.667   1.961 -0.6775  3.8595  0.8353
 5386TIP3   OH237792   5.286   5.917   3.808  0.4506  0.0373 -0.1686
 5386TIP3    H137793   5.234   5.995   3.788 -0.2102 -0.1538  0.7239
 5386TIP3    H237794   5.328   5.894   3.726 -0.3812  0.5749 -0.7584
 5387TIP3   OH237795   4.185   3.708   1.598  0.9872 -0.0662  0.1052
 5387TIP3    H137796   4.129   3.770   1.553  0.1274 -0.4453  0.6284
 5387TIP3    H237797   4.167   3.721   1.691  1.7321 -0.2285  0.2832
 5388TIP3   OH237798   4.828   0.328   2.365 -0.4249 -0.4554 -0.2534
 5388TIP3    H137799   4.747   0.281   2.347 -1.7351  1.1821  1.0501
 5388TIP3    H237800   4.858   0.359   2.279 -2.4800  0.8952 -0.5460
 5389TIP3   OH237801   1.898   0.175   0.423 -0.0893 -0.0291 -0.5561
 5389TIP3    H137802   1.927   0.099   0.473  0.4826 -2.6994 -4.4934
 5389TIP3    H237803   1.805   0.158   0.405  0.1908 -0.2156 -1.9780
 5390TIP3   OH237804   1.300   0.807   2.244 -0.1245 -0.0141  0.1628
 5390TIP3    H137805   1.225   0.812   2.186 -0.5491 -1.7582  0.5057
 5390TIP3    H237806   1.288   0.880   2.305 -0.9539  0.3804 -0.4582
 5391TIP3   OH237807   2.370   6.258   2.441 -0.0221  0.2500 -0.5338
 5391TIP3    H137808   2.369   6.340   2.490  3.8186 -0.4714  1.1855
 5391TIP3    H237809   2.409   6.281   2.356 -0.5486  0.4696 -0.7161
 5392TIP3   OH237810   0.972   2.406   8.411 -0.2517  0.1861  0.5815
 5392TIP3    H137811   0.992   2.316   8.387 -0.1975  0.0425  1.1587
 5392TIP3    H237812   1.057   2.448   8.419 -0.2209 -0.0788  1.7107
 5393TIP3   OH237813   1.889   2.484   2.586 -0.1618 -0.0166  0.0892
 5393TIP3    H137814   1.830   2.416   2.617 -1.8656  2.2245  2.1374
 5393TIP3    H237815   1.975   2.443   2.586 -1.2376 -2.4121  0.2728
 5394TIP3   OH237816   3.087   5.833   2.651  0.4285  0.1091  0.1303
 5394TIP3    H137817   3.108   5.884   2.573 -2.1974  0.9574 -0.1392
 5394TIP3    H237818   3.095   5.742   2.623  1.6111  0.3788 -0.4701
 5395TIP3   OH237819   4.875   2.490   1.935 -0.3649 -0.4980 -0.0896
 5395TIP3    H137820   4.913   2.504   2.022 -1.0782  3.1526 -0.1989
 5395TIP3    H237821   4.790   2.451   1.953 -0.9851  1.2420  1.0109
 5396TIP3   OH237822   1.110   0.616   0.162 -0.1397 -0.2962  0.1198
 5396TIP3    H137823   1.066   0.701   0.157  0.9879  0.4777  2.2874
 5396TIP3    H237824   1.054   0.564   0.220  0.0989 -0.4249  0.2320
 5397TIP3   OH237825   0.575   0.329   2.566  0.5944  0.3470 -1.1650
 5397TIP3    H137826   0.543   0.246   2.530  0.1705 -0.6270  1.2787
 5397TIP3    H237827   0.498   0.369   2.607  1.2617  0.8683 -0.3974
 5398TIP3   OH237828   4.990   4.683   2.860 -0.3868 -0.0090  0.1152
 5398TIP3    H137829   4.989   4.669   2.954 -1.3219  1.1833  0.3049
 5398TIP3    H237830   5.080   4.662   2.833 -0.3332 -1.1447  1.1240
 5399TIP3   OH237831   3.691   0.523   1.930  0.4468  0.7756  0.0621
 5399TIP3    H137832   3.760   0.504   1.993  1.7877 -2.4886 -2.1269
 5399TIP3    H237833   3.631   0.449   1.936 -0.8579  1.7114 -0.7128
 5400TIP3   OH237834   0.367   2.585   8.657 -0.0641  0.1397 -0.5456
 5400TIP3    H137835   0.387   2.502   8.701  0.5008  0.0993 -0.8623
 5400TIP3    H237836   0.404   2.575   8.569 -0.0926  0.6851 -0.6226
 5401TIP3   OH237837   5.786   3.307   3.718 -0.1267  0.2080  0.2320
 5401TIP3    H137838   5.694   3.282   3.710  0.0461 -0.0469 -1.2079
 5401TIP3    H237839   5.786   3.378   3.783 -1.1564 -0.6450  1.2117
 5402TIP3   OH237840   3.098   0.950   0.435  0.3651 -0.5341  0.1471
 5402TIP3    H137841   3.187   0.950   0.399 -0.3864  2.8964 -2.2501
 5402TIP3    H237842   3.111   0.952   0.530  2.7284 -1.7456 -0.0566
 5403TIP3   OH237843   5.766   1.329   0.389  0.1105 -0.0086 -0.1341
 5403TIP3    H137844   5.678   1.300   0.414  0.4907 -1.2281 -0.1199
 5403TIP3    H237845   5.772   1.419   0.420 -0.2896 -0.6654  2.0436
 5404TIP3   OH237846   3.080   4.681   0.305 -0.3729  0.6760  0.6481
 5404TIP3    H137847   2.994   4.721   0.314 -0.0808  2.1100 -1.9328
 5404TIP3    H237848   3.065   4.603   0.251 -0.1553  0.5185  0.8119
 5405TIP3   OH237849   2.455   3.005   2.279  0.1409  0.7099  0.3599
 5405TIP3    H137850   2.403   2.979   2.355  0.9079  2.1935  1.4669
 5405TIP3    H237851   2.397   3.062   2.228  0.1779  1.1575  0.8060
 5406TIP3   OH237852   5.010   3.312   0.294 -0.0966  0.2709  0.2213
 5406TIP3    H137853   5.001   3.320   0.389  0.1040 -0.6999  0.3317
 5406TIP3    H237854   5.036   3.221   0.280 -1.7426 -0.0806 -0.8748
 5407TIP3   OH237855   2.734   5.701   3.971  0.4127 -0.5338  0.1708
 5407TIP3    H137856   2.703   5.703   4.061  2.2016 -3.7351  1.0186
 5407TIP3    H237857   2.826   5.675   3.978  1.1189  0.9053 -2.5243
 5408TIP3   OH237858   1.255   2.719   2.378 -0.0071  0.0568 -0.2526
 5408TIP3    H137859   1.313   2.788   2.411  1.8117 -1.5422  0.0505
 5408TIP3    H237860   1.314   2.656   2.337 -1.5895 -1.3915 -0.3931
 5409TIP3   OH237861   0.001   2.331   1.870  0.1184 -0.3222 -0.0204
 5409TIP3    H137862   0.007   2.303   1.779  0.4352  0.6175 -0.3026
 5409TIP3    H237863   0.068   2.400   1.878 -1.1200  0.8619  0.4333
 5410TIP3   OH237864   4.511   1.179   0.174  0.1983  1.0777 -0.5436
 5410TIP3    H137865   4.558   1.247   0.223  0.7581  0.2419  0.1130
 5410TIP3    H237866   4.560   1.172   0.091  0.1521  1.4513 -0.6046
 5411TIP3   OH237867   0.567   4.133   2.187 -0.0874 -0.0636  0.4118
 5411TIP3    H137868   0.567   4.227   2.171  0.2355  0.2534  2.0419
 5411TIP3    H237869   0.562   4.093   2.100  1.0969  1.4328 -0.3910
 5412TIP3   OH237870   0.061   4.440   1.448 -0.2771  0.2508 -0.3808
 5412TIP3    H137871   0.070   4.527   1.487  1.5358  0.6863 -1.6452
 5412TIP3    H237872   0.150   4.405   1.447 -0.5291 -0.4816 -2.3775
 5413TIP3   OH237873   5.002   2.414   2.882  0.2380 -0.1762 -0.3657
 5413TIP3    H137874   5.040   2.337   2.924 -1.5437 -1.3654 -0.8492
 5413TIP3    H237875   4.973   2.469   2.954  0.9308 -0.2539 -0.0214
 5414TIP3   OH237876   1.468   0.590   3.615 -0.1355  0.2297  0.3796
 5414TIP3    H137877   1.399   0.606   3.550 -1.2749  0.1039  1.5038
 5414TIP3    H237878   1.505   0.676   3.632  1.7333 -0.0140 -2.0304
 5415TIP3   OH237879   3.497   5.038   1.535 -0.0364  0.2776 -0.8741
 5415TIP3    H137880   3.482   4.963   1.477  0.8033  0.1221 -0.9105
 5415TIP3    H237881   3.441   5.107   1.499 -1.2431 -0.4812 -0.5063
 5416TIP3   OH237882   6.644   5.991   0.029 -0.0606 -0.9229  0.0662
 5416TIP3    H137883   6.684   6.070  -0.006  0.0747 -0.5959  0.9247
 5416TIP3    H237884   6.625   5.937  -0.048  2.2885 -1.2268 -0.3755
 5417TIP3   OH237885   3.376   1.363   3.510 -0.3096 -0.4450 -0.3354
 5417TIP3    H137886   3.462   1.323   3.520  0.2761 -0.2784 -3.6896
 5417TIP3    H237887   3.384   1.448   3.554  1.5237 -0.1119 -1.2018
 5418TIP3   OH237888   3.910   4.139   0.422 -0.1191 -0.3290 -0.0613
 5418TIP3    H137889   3.867   4.192   0.355 -0.5205 -0.6562 -0.0653
 5418TIP3    H237890   3.851   4.143   0.497  0.9760  1.1708  0.7807
 5419TIP3   OH237891   2.143   3.926   2.781 -0.0097 -0.7487  0.3066
 5419TIP3    H137892   2.078   3.989   2.749  0.5026  0.3630  1.3734
 5419TIP3    H237893   2.215   3.980   2.813  0.7771 -1.9190  0.5531
 5420TIP3   OH237894   4.265   2.695   4.337  0.0805 -0.0735  0.0378
 5420TIP3    H137895   4.177   2.680   4.372 -0.0782  1.2177  0.2474
 5420TIP3    H237896   4.263   2.659   4.249 -0.7401  0.1478 -0.0390
 5421TIP3   OH237897   6.815   5.683   0.118  0.3969  0.4639 -0.2858
 5421TIP3    H137898   6.770   5.733   0.186  1.0101  1.0773 -0.3118
 5421TIP3    H237899   6.746   5.638   0.071 -0.1506  1.0363 -0.0472
 5422TIP3   OH237900   0.639   4.254   0.768 -0.2765 -0.0432 -0.4262
 5422TIP3    H137901   0.560   4.267   0.819 -0.9970 -1.4762 -1.0930
 5422TIP3    H237902   0.678   4.174   0.805  1.3901  1.1586  0.5140
 5423TIP3   OH237903   0.131   3.009   0.708 -0.6012 -0.1217 -0.4298
 5423TIP3    H137904   0.130   3.030   0.615  0.6060  0.6052 -0.2987
 5423TIP3    H237905   0.210   2.957   0.720  0.3855  1.4990  0.5089
 5424TIP3   OH237906   4.725   4.797   8.216  0.0724  0.1836  0.4006
 5424TIP3    H137907   4.687   4.855   8.282  1.3137  0.0717  1.2357
 5424TIP3    H237908   4.680   4.714   8.229  0.1199  0.2368  0.9172
 5425TIP3   OH237909   3.124   1.819   2.473  0.3453 -0.2284  0.2408
 5425TIP3    H137910   3.035   1.799   2.503  0.9656 -4.2962 -0.1266
 5425TIP3    H237911   3.179   1.807   2.551  0.9917 -2.0402 -0.4576
 5426TIP3   OH237912   6.777   6.206   8.696 -0.0993 -0.5391  0.1017
 5426TIP3    H137913   6.835   6.134   8.670 -0.3973 -0.2662 -1.3908
 5426TIP3    H237914   6.834   6.284   8.696 -0.7451  0.0472 -3.1109
 5427TIP3   OH237915   6.329   3.254   2.478 -0.6738 -1.1024  0.7023
 5427TIP3    H137916   6.330   3.203   2.559 -0.6736 -0.6611  0.9859
 5427TIP3    H237917   6.378   3.333   2.499  1.1198 -1.8680 -0.3353
 5428TIP3   OH237918   1.675   2.955   1.158 -0.0091  0.2665 -0.2919
 5428TIP3    H137919   1.588   2.923   1.135 -0.2115  0.6298 -0.0317
 5428TIP3    H237920   1.660   3.019   1.227  0.5692 -0.6393  0.7064
 5429TIP3   OH237921   6.152   5.676   0.163 -0.2219  0.8330  0.0067
 5429TIP3    H137922   6.188   5.701   0.077 -0.3874 -0.2848 -0.3980
 5429TIP3    H237923   6.068   5.636   0.143 -0.1255  0.2859  0.6724
 5430TIP3   OH237924   1.764   0.257   7.845  0.2958  0.7341  0.2900
 5430TIP3    H137925   1.858   0.257   7.863 -0.0208  1.0471  2.2450
 5430TIP3    H237926   1.735   0.344   7.872 -0.4517  0.9240 -1.0516
 5431TIP3   OH237927   5.575   6.198   0.469  0.1799 -0.5427 -0.2995
 5431TIP3    H137928   5.667   6.187   0.445  0.3335 -1.6489  0.7270
 5431TIP3    H237929   5.575   6.269   0.533  0.3180 -0.5413 -0.3017
 5432TIP3   OH237930   3.724   5.094   1.680 -0.2100 -0.2884  0.1060
 5432TIP3    H137931   3.722   5.034   1.754  0.4263 -1.3410 -0.7016
 5432TIP3    H237932   3.658   5.061   1.620 -0.5391  0.4032  0.0815
 5433TIP3   OH237933   5.137   6.729   2.162  0.2534 -0.1015 -0.4853
 5433TIP3    H137934   5.216   6.709   2.213  0.2224  0.6239 -0.1540
 5433TIP3    H237935   5.081   6.652   2.175  1.2189 -1.0087 -1.3852
 5434TIP3   OH237936   4.869   0.793   1.500 -0.3949 -0.7327 -0.0036
 5434TIP3    H137937   4.924   0.729   1.545  0.4526  1.3242  2.0758
 5434TIP3    H237938   4.781   0.756   1.503  0.1712 -2.0824  0.5301
 5435TIP3   OH237939   6.824   0.794   1.062  0.0128  0.3255  0.3574
 5435TIP3    H137940   6.779   0.751   1.135  2.8973 -0.3027  1.9364
 5435TIP3    H237941   6.908   0.822   1.099  0.9866  1.3446 -2.3769
 5436TIP3   OH237942   0.409   1.218   8.325 -0.5532 -0.6200 -0.1962
 5436TIP3    H137943   0.460   1.298   8.313 -0.3922 -0.7635 -0.4793
 5436TIP3    H237944   0.447   1.156   8.263 -0.1299 -1.1798  0.6098
 5437TIP3   OH237945   1.346   4.988   0.353  0.0577  0.4962  0.5023
 5437TIP3    H137946   1.304   5.065   0.391 -0.3998  0.6404 -0.2792
 5437TIP3    H237947   1.365   5.013   0.263 -0.5837 -0.4795  0.0808
 5438TIP3   OH237948   3.889   2.711   0.172  0.4101  0.2604  0.0831
 5438TIP3    H137949   3.823   2.666   0.119 -0.0931 -0.4720  1.2931
 5438TIP3    H237950   3.967   2.655   0.166  0.1865 -0.1005  0.5502
 5439TIP3   OH237951   3.419   6.774   8.391 -0.3469 -0.5610 -0.0534
 5439TIP3    H137952   3.488   6.722   8.350 -0.6621  0.2348 -1.6880
 5439TIP3    H237953   3.337   6.733   8.363 -0.5808  0.4000 -0.8259
 5440TIP3   OH237954   6.540   3.943   3.643 -0.3745  0.3014  0.1622
 5440TIP3    H137955   6.537   4.036   3.666 -1.2169  0.3038  0.0820
 5440TIP3    H237956   6.616   3.935   3.585 -0.3316  0.9530  0.1184
 5441TIP3   OH237957   3.388   0.577   2.321 -0.2606 -0.4143  0.1046
 5441TIP3    H137958   3.423   0.621   2.398  1.7153  0.3202 -1.1567
 5441TIP3    H237959   3.435   0.494   2.317 -0.0812 -0.2895 -0.5012
 5442TIP3   OH237960   5.774   0.593   1.437 -0.1349 -0.2827 -0.4322
 5442TIP3    H137961   5.685   0.605   1.468 -0.1057 -1.7668  0.3100
 5442TIP3    H237962   5.801   0.680   1.406 -1.4750  0.4033  0.2521
 5443TIP3   OH237963   3.478   2.385   1.660  0.0820 -0.1606  0.1427
 5443TIP3    H137964   3.385   2.366   1.670  0.4745 -1.6045  1.5801
 5443TIP3    H237965   3.508   2.325   1.592 -0.2179  1.1331 -1.1920
 5444TIP3   OH237966   5.756   4.867   0.607 -0.2279 -0.0725  0.1900
 5444TIP3    H137967   5.762   4.914   0.691  1.9157 -1.7546  1.0870
 5444TIP3    H237968   5.784   4.778   0.628  0.3693 -0.5505 -2.3454
 5445TIP3   OH237969   4.099   0.759   3.504  0.5877 -0.0528 -0.4518
 5445TIP3    H137970   4.065   0.848   3.518  1.0785 -0.2131  2.3135
 5445TIP3    H237971   4.158   0.768   3.430  1.0299  2.0700  0.0829
 5446TIP3   OH237972   2.827   2.534   1.212 -0.1982 -0.1303 -0.1254
 5446TIP3    H137973   2.873   2.456   1.183 -1.1468 -0.0763 -1.9325
 5446TIP3    H237974   2.785   2.508   1.294 -1.4716 -1.9656 -1.2674
 5447TIP3   OH237975   4.102   6.354   0.888 -0.1079  0.7473  0.5520
 5447TIP3    H137976   4.106   6.399   0.803  2.1901  2.5201  1.4993
 5447TIP3    H237977   4.191   6.320   0.901 -0.8510 -0.9319  1.5685
 5448TIP3   OH237978   0.182   0.591   8.574 -0.0800  0.2197 -1.0806
 5448TIP3    H137979   0.196   0.547   8.657 -0.3896  2.5996  0.3373
 5448TIP3    H237980   0.236   0.543   8.512 -0.6573 -2.2729  0.2315
 5449TIP3   OH237981   0.189   5.547   8.682  0.7204  0.0247  0.6712
 5449TIP3    H137982   0.127   5.612   8.651  1.1927  0.7499  1.2246
 5449TIP3    H237983   0.233   5.516   8.603  1.4417  1.3691  0.5224
 5450TIP3   OH237984   5.003   2.904   2.912  0.6427 -0.0958 -0.0453
 5450TIP3    H137985   5.048   2.881   2.831  1.0837  0.8670 -0.0913
 5450TIP3    H237986   5.043   2.849   2.979 -1.3971 -2.7310 -0.8086
 5451TIP3   OH237987   4.795   2.824   2.283  0.8331 -0.0712  0.9989
 5451TIP3    H137988   4.863   2.852   2.345  1.3144  2.2673 -0.4299
 5451TIP3    H237989   4.828   2.854   2.198 -0.0663 -2.6501 -0.3538
 5452TIP3   OH237990   1.971   4.796   8.261 -0.1168  0.4175  0.2760
 5452TIP3    H137991   2.002   4.809   8.171  1.1520  0.1001  0.6471
 5452TIP3    H237992   2.048   4.811   8.315 -1.0045  1.1580  1.3642
 5453TIP3   OH237993   5.652   5.870   3.228 -0.0189 -0.4014  0.4534
 5453TIP3    H137994   5.618   5.959   3.234 -1.0238 -0.4730 -2.6136
 5453TIP3    H237995   5.574   5.814   3.226  0.5889 -1.3729  1.8828
 5454TIP3   OH237996   5.625   6.464   2.350 -0.4529  0.4833 -0.0873
 5454TIP3    H137997   5.681   6.507   2.286  0.0334 -0.5440 -0.3673
 5454TIP3    H237998   5.673   6.468   2.432  1.0425 -2.1973 -0.7272
 5455TIP3   OH237999   3.238   2.156   0.951 -0.2298 -0.0097  0.0083
 5455TIP3    H138000   3.208   2.065   0.949 -0.7597  0.1328  0.8327
 5455TIP3    H238001   3.176   2.203   0.896 -0.3493 -0.0410  0.1157
 5456TIP3   OH238002   4.404   4.068   8.782 -0.5507 -0.0343 -0.8672
 5456TIP3    H138003   4.377   4.160   8.779 -0.3767  0.1089  0.8175
 5456TIP3    H238004   4.440   4.051   8.695 -1.6174  1.1524 -1.5737
 5457TIP3   OH238005   0.563   3.273   1.956 -0.4774 -0.1875  0.6241
 5457TIP3    H138006   0.473   3.251   1.931 -0.2808  0.1722 -0.4719
 5457TIP3    H238007   0.605   3.299   1.874  0.8241 -0.9927  1.0029
 5458TIP3   OH238008   5.465   0.383   0.540 -0.2485  0.4404  0.1621
 5458TIP3    H138009   5.421   0.324   0.478  0.4457  2.8829 -2.9056
 5458TIP3    H238010   5.417   0.465   0.533 -0.4869  0.7134  3.4503
 5459TIP3   OH238011   1.368   3.723   1.448 -0.6933 -0.2214 -0.7897
 5459TIP3    H138012   1.392   3.716   1.541 -0.4998 -1.9645 -0.9394
 5459TIP3    H238013   1.297   3.787   1.447  1.8888  2.8750  0.0254
 5460TIP3   OH238014   3.828   6.357   2.542 -0.5238  0.2504  0.9692
 5460TIP3    H138015   3.831   6.291   2.612  1.8019  0.2816  0.9723
 5460TIP3    H238016   3.747   6.405   2.558 -2.6077 -2.8334  0.7060
 5461TIP3   OH238017   5.633   3.933   3.420  0.0584  0.3347  0.8694
 5461TIP3    H138018   5.662   3.894   3.337 -0.7861 -2.5921  1.8390
 5461TIP3    H238019   5.698   3.904   3.484 -1.4898 -0.9542  1.9221
 5462TIP3   OH238020   2.493   1.884   1.999 -0.1715 -0.4072 -0.7340
 5462TIP3    H138021   2.468   1.884   1.907 -0.4806 -3.1672 -0.7334
 5462TIP3    H238022   2.435   1.820   2.040 -1.0676  1.7713  1.7528
 5463TIP3   OH238023   1.958   1.093   0.763  0.2265  0.4517  0.0535
 5463TIP3    H138024   1.897   1.034   0.807  0.6091  0.0283  0.0226
 5463TIP3    H238025   2.045   1.058   0.782  0.4435  0.7997 -0.2621
 5464TIP3   OH238026   5.645   5.481   0.646 -0.3908  0.2103 -0.2000
 5464TIP3    H138027   5.711   5.550   0.641  0.6159 -0.5839  1.5821
 5464TIP3    H238028   5.692   5.400   0.627 -0.9585 -0.3048  0.5069
 5465TIP3   OH238029   6.056   6.787   1.369 -0.4940 -0.1582  0.6288
 5465TIP3    H138030   6.069   6.882   1.361  0.4510 -0.2810  0.7127
 5465TIP3    H238031   5.982   6.779   1.429 -1.2676  0.5455 -0.1926
 5466TIP3   OH238032   6.589   1.082   2.402  0.0692 -0.6854 -0.3284
 5466TIP3    H138033   6.625   1.081   2.490 -0.0069  1.2064 -0.2432
 5466TIP3    H238034   6.633   1.155   2.358 -2.7989  1.0720 -0.5468
 5467TIP3   OH238035   6.413   2.583   1.488  0.4877  0.1289  0.3119
 5467TIP3    H138036   6.366   2.500   1.503  2.1635 -0.7281  1.0758
 5467TIP3    H238037   6.393   2.605   1.397 -0.2577 -0.9437  0.1888
 5468TIP3   OH238038   0.728   2.818   1.277  0.4124  0.4278 -0.0719
 5468TIP3    H138039   0.740   2.733   1.319 -3.6695 -2.0556 -3.1293
 5468TIP3    H238040   0.809   2.832   1.228  1.5127 -1.2564  1.1623
 5469TIP3   OH238041   3.935   0.203   4.150  0.0766 -0.0956 -0.0587
 5469TIP3    H138042   4.022   0.219   4.185 -0.7973  0.1262  2.2144
 5469TIP3    H238043   3.883   0.277   4.181 -1.6060 -1.8034  1.4569
 5470TIP3   OH238044   2.204   6.319   7.889  0.0035  0.4846  0.1734
 5470TIP3    H138045   2.158   6.367   7.958  0.3454 -1.0327  1.5247
 5470TIP3    H238046   2.254   6.386   7.842 -2.3403  1.9679 -0.4069
 5471TIP3   OH238047   5.790   1.596   0.296  0.1521  0.8593  0.1842
 5471TIP3    H138048   5.816   1.644   0.217  0.2720  0.9155  0.2589
 5471TIP3    H238049   5.716   1.646   0.331 -0.0196  0.7320  0.0052
 5472TIP3   OH238050   1.300   6.188   8.379 -0.4715  0.0144  0.1811
 5472TIP3    H138051   1.248   6.264   8.407  1.0204  0.4734  1.8996
 5472TIP3    H238052   1.243   6.141   8.318 -1.7194  2.1228 -0.3832
 5473TIP3   OH238053   4.203   6.520   3.748  0.0513  0.2452  0.2154
 5473TIP3    H138054   4.183   6.444   3.803  2.2274 -0.3127  0.3334
 5473TIP3    H238055   4.263   6.572   3.801  1.0509  0.4362 -1.0597
 5474TIP3   OH238056   1.437   2.539   2.281 -0.3426  0.0148  0.5617
 5474TIP3    H138057   1.450   2.468   2.344 -0.3237 -1.0603 -0.6092
 5474TIP3    H238058   1.372   2.505   2.219 -0.2793  0.9900 -0.0637
 5475TIP3   OH238059   5.372   3.683   0.109  0.3450 -0.1282 -0.0584
 5475TIP3    H138060   5.387   3.681   0.203  1.0247 -1.8958 -0.1733
 5475TIP3    H238061   5.440   3.627   0.072 -0.7809 -0.6440 -1.4651
 5476TIP3   OH238062   2.011   3.185   3.697  0.0063  0.4637 -0.5829
 5476TIP3    H138063   2.092   3.236   3.693 -0.1885  1.1102  1.9779
 5476TIP3    H238064   2.036   3.102   3.735 -0.5095  0.6600  0.2153
 5477TIP3   OH238065   2.061   0.552   3.186  0.1105 -0.1243 -0.7536
 5477TIP3    H138066   1.982   0.596   3.154 -0.9760 -1.2021  0.3081
 5477TIP3    H238067   2.034   0.461   3.197  1.1600 -0.2868  0.7367
 5478TIP3   OH238068   4.476   6.621   1.870  0.2787 -0.1077  0.4241
 5478TIP3    H138069   4.532   6.602   1.795 -1.1854 -1.2693 -0.4139
 5478TIP3    H238070   4.509   6.563   1.939 -0.0157 -0.9487 -0.1313
 5479TIP3   OH238071   6.296   5.553   3.540 -0.4842 -0.2804 -0.2213
 5479TIP3    H138072   6.209   5.551   3.500 -0.4433  1.7413 -0.5019
 5479TIP3    H238073   6.281   5.583   3.629 -0.3767 -3.0871  0.8383
 5480TIP3   OH238074   4.975   0.615   3.312 -0.0562  0.4793  0.6934
 5480TIP3    H138075   4.892   0.594   3.270  0.8174 -0.7268 -0.4923
 5480TIP3    H238076   4.993   0.540   3.369 -0.0439  0.9996  1.3938
 5481TIP3   OH238077   2.648   4.675   1.503  0.2818  0.1281 -0.3494
 5481TIP3    H138078   2.705   4.703   1.432  0.8187 -1.3753 -0.5382
 5481TIP3    H238079   2.560   4.682   1.467  0.4504  0.7373 -0.6625
 5482TIP3   OH238080   6.062   5.151   3.653 -0.2736  0.5959  0.0737
 5482TIP3    H138081   5.992   5.100   3.695 -2.2076  0.9187 -2.5099
 5482TIP3    H238082   6.064   5.233   3.703 -0.4316 -0.1279  1.3226
 5483TIP3   OH238083   0.301   0.020   3.801  0.0889 -0.3077  0.6508
 5483TIP3    H138084   0.318  -0.041   3.728  1.0084  1.4458 -0.6841
 5483TIP3    H238085   0.223  -0.014   3.843 -1.1513 -0.8151 -1.8633
 5484TIP3   OH238086   6.730   6.486   3.437 -0.4510 -0.4224  0.0139
 5484TIP3    H138087   6.769   6.570   3.411  1.7150 -1.8168 -1.5438
 5484TIP3    H238088   6.748   6.480   3.531  1.2995 -0.0970 -0.2799
 5485TIP3   OH238089   0.608   3.852   0.016  0.3775  0.2162 -0.4394
 5485TIP3    H138090   0.570   3.938   0.036 -0.2478  0.2722 -1.7198
 5485TIP3    H238091   0.603   3.804   0.098 -0.2110  1.0665  0.0427
 5486TIP3   OH238092   6.007   0.985   3.195 -0.2116 -0.5411  0.3566
 5486TIP3    H138093   5.939   0.950   3.138 -0.2778 -1.6787  1.0941
 5486TIP3    H238094   6.089   0.965   3.149 -0.2861 -1.0165  0.4265
 5487TIP3   OH238095   2.461   5.923   3.435  0.0619  0.0191  0.0590
 5487TIP3    H138096   2.416   5.863   3.494  0.2270 -0.0695  0.0957
 5487TIP3    H238097   2.401   5.997   3.426 -0.0075 -0.0110  0.2604
 5488TIP3   OH238098   1.057   6.480   3.276 -0.0184  0.3647 -0.2404
 5488TIP3    H138099   1.127   6.512   3.220  1.1027  1.2030  1.5575
 5488TIP3    H238100   1.094   6.403   3.319 -0.4740  0.3602  0.1523
 5489TIP3   OH238101   0.545   0.109   2.401 -0.2922  0.3729 -0.6177
 5489TIP3    H138102   0.515   0.102   2.311 -1.1861 -1.2843 -0.2269
 5489TIP3    H238103   0.509   0.032   2.445  0.3047  1.0221  1.1085
 5490TIP3   OH238104   6.069   4.346   2.063  0.2385 -0.3934  0.1039
 5490TIP3    H138105   5.993   4.395   2.095  1.0874  0.3919  0.9854
 5490TIP3    H238106   6.144   4.402   2.085  0.9261  0.2268 -3.2963
 5491TIP3   OH238107   1.240   1.941   3.219 -0.0186 -0.5006 -0.0966
 5491TIP3    H138108   1.258   2.022   3.171  1.0612 -0.9930 -0.5755
 5491TIP3    H238109   1.147   1.944   3.238  0.1862  1.3391  0.8226
 5492TIP3   OH238110   2.524   5.490   3.959  0.0097  0.4843  0.1073
 5492TIP3    H138111   2.596   5.554   3.958  0.2675  0.1990 -1.2615
 5492TIP3    H238112   2.536   5.443   4.042  2.5921 -0.8357 -0.8957
 5493TIP3   OH238113   3.255   6.745   1.307  0.6650 -0.0772  0.9430
 5493TIP3    H138114   3.166   6.720   1.330  0.3247 -0.2425 -0.4700
 5493TIP3    H238115   3.264   6.721   1.215  2.3551 -0.5547  1.1996
 5494TIP3   OH238116   2.675   3.941   2.062 -0.5181 -0.6480  0.8636
 5494TIP3    H138117   2.762   3.934   2.102 -0.7649  1.6220  1.9632
 5494TIP3    H238118   2.691   3.986   1.979 -0.6810  0.3760  1.3714
 5495TIP3   OH238119   6.138   5.514   0.977 -0.6948 -0.1617  0.4891
 5495TIP3    H138120   6.117   5.480   1.064  0.9664 -0.1994  0.9214
 5495TIP3    H238121   6.078   5.588   0.964 -0.2028  0.5676  2.1661
 5496TIP3   OH238122   4.543   4.278   0.408 -0.5265  0.4636  0.4139
 5496TIP3    H138123   4.558   4.361   0.453  0.7952  0.0194  0.8323
 5496TIP3    H238124   4.605   4.278   0.335 -0.4609 -0.1829  0.4614
 5497TIP3   OH238125   6.602   5.199   8.697 -0.3827  0.3220  0.0726
 5497TIP3    H138126   6.571   5.108   8.701 -2.0838  0.8785  0.5238
 5497TIP3    H238127   6.597   5.222   8.604  1.0659 -0.3368 -0.2015
 5498TIP3   OH238128   4.549   4.811   0.372 -0.3017  0.6169 -0.0220
 5498TIP3    H138129   4.612   4.764   0.318 -0.3099 -0.4336  0.8651
 5498TIP3    H238130   4.602   4.870   0.426 -0.3049  1.8170 -1.2673
 5499TIP3   OH238131   0.434   6.177   4.118 -0.1947  0.2125  0.2209
 5499TIP3    H138132   0.488   6.159   4.041 -0.5043 -1.0202  0.2777
 5499TIP3    H238133   0.417   6.091   4.156 -2.7640  0.4728 -0.1831
 5500TIP3   OH238134   2.556   3.329   3.284  0.3405 -0.3118 -0.2137
 5500TIP3    H138135   2.477   3.354   3.235  0.9029 -0.2474 -1.1063
 5500TIP3    H238136   2.533   3.246   3.325 -0.9325  0.7231  1.3107
 5501TIP3   OH238137   2.926   4.067   2.357  0.9514 -0.2907 -0.3894
 5501TIP3    H138138   2.948   4.158   2.377 -0.7863  0.1256 -0.1770
 5501TIP3    H238139   2.830   4.065   2.358  0.9521 -2.2189  0.0319
 5502TIP3   OH238140   6.258   2.884   0.986  0.8712  0.2251 -0.1523
 5502TIP3    H138141   6.255   2.979   0.973 -0.8258  0.3828  1.0295
 5502TIP3    H238142   6.232   2.872   1.078  0.0674 -1.4421 -0.5672
 5503TIP3   OH238143   6.427   6.640   1.444 -0.4173 -0.1469  0.2065
 5503TIP3    H138144   6.405   6.650   1.351  2.8149  1.3967 -0.5332
 5503TIP3    H238145   6.470   6.555   1.449 -1.3544 -0.6157  0.5020
 5504TIP3   OH238146   4.407   2.051   3.148  0.2932  0.3507  0.2977
 5504TIP3    H138147   4.339   2.082   3.208  0.3496 -0.9873  1.1080
 5504TIP3    H238148   4.358   2.006   3.078  0.3168 -1.2177  1.2382
 5505TIP3   OH238149   3.102   3.107   7.882  0.3783 -0.2854  0.0021
 5505TIP3    H138150   3.116   3.200   7.897 -1.1222 -0.1143  0.5054
 5505TIP3    H238151   3.137   3.091   7.795  0.0233  0.9013 -0.3712
 5506TIP3   OH238152   6.146   0.035   0.191  0.3477  0.0281  0.5771
 5506TIP3    H138153   6.203   0.100   0.151  0.3764 -0.0635  0.4696
 5506TIP3    H238154   6.204  -0.018   0.246  0.2905  0.2245  0.8318
 5507TIP3   OH238155   2.506   4.572   3.006 -0.5508 -0.1791  0.6989
 5507TIP3    H138156   2.472   4.589   3.094 -1.7761  2.0296 -0.1223
 5507TIP3    H238157   2.428   4.560   2.952  0.1721 -1.1282 -0.1598
 5508TIP3   OH238158   0.515   2.050   3.912 -0.2852 -0.0087  0.4194
 5508TIP3    H138159   0.471   2.083   3.990 -1.4580 -0.9361  0.1897
 5508TIP3    H238160   0.562   1.972   3.941 -0.3750 -0.1134  0.2855
 5509TIP3   OH238161   4.616   6.090   2.000 -0.4842 -0.0929 -0.3391
 5509TIP3    H138162   4.606   6.126   2.088 -1.1842 -0.4976 -0.2437
 5509TIP3    H238163   4.710   6.091   1.984 -0.1340 -1.8323  1.2097
 5510TIP3   OH238164   6.836   3.760   1.769  0.5504 -0.0400  0.3020
 5510TIP3    H138165   6.759   3.728   1.722 -0.4777 -0.6121  2.2942
 5510TIP3    H238166   6.881   3.815   1.705 -2.3547  1.6468 -0.4817
 5511TIP3   OH238167   5.866   1.463   2.210  0.4311 -0.1235  0.0228
 5511TIP3    H138168   5.840   1.475   2.119  0.4052 -0.2705  0.0115
 5511TIP3    H238169   5.903   1.375   2.214 -1.8769 -1.1384  0.6744
 5512TIP3   OH238170   5.663   3.999   2.605 -0.1565 -0.1237  0.6640
 5512TIP3    H138171   5.572   3.978   2.582 -0.5883 -0.5408  2.6025
 5512TIP3    H238172   5.715   3.947   2.543 -1.1964  0.5559 -0.8572
 5513TIP3   OH238173   2.182   3.643   1.252  0.0786  0.2530  0.0575
 5513TIP3    H138174   2.187   3.677   1.163  1.1040  1.8370  0.6911
 5513TIP3    H238175   2.153   3.717   1.305 -0.7340 -0.7198  1.0489
 5514TIP3   OH238176   5.332   0.426   2.990  0.6058  0.1258  0.2284
 5514TIP3    H138177   5.400   0.412   2.923  1.2918 -0.2474  0.9845
 5514TIP3    H238178   5.359   0.371   3.063 -1.1802 -0.9814  0.1066
 5515TIP3   OH238179   5.442   3.488   1.403 -0.0765 -0.2946 -0.1689
 5515TIP3    H138180   5.466   3.401   1.372  2.0019  0.3883 -0.6714
 5515TIP3    H238181   5.386   3.523   1.333  1.4901 -0.1795 -1.4410
 5516TIP3   OH238182   3.042   5.308   2.744 -0.0212  0.0449 -0.6131
 5516TIP3    H138183   3.091   5.390   2.749 -0.8235  0.4564  1.9714
 5516TIP3    H238184   2.950   5.335   2.738 -0.1864 -0.7013 -1.7308
 5517TIP3   OH238185   4.841   5.415   1.304 -0.1595 -0.0027 -0.1766
 5517TIP3    H138186   4.810   5.474   1.372  0.5000 -0.4373  0.5150
 5517TIP3    H238187   4.765   5.401   1.247 -0.4167  1.2290 -0.1588
 5518TIP3   OH238188   0.764   0.246   3.393 -0.0464  0.4109 -0.4008
 5518TIP3    H138189   0.859   0.258   3.400  0.0255 -0.3143 -0.0111
 5518TIP3    H238190   0.754   0.166   3.342 -0.4917  1.5348 -2.1564
 5519TIP3   OH238191   4.992   5.022   2.614 -0.2072 -0.4004 -0.3285
 5519TIP3    H138192   5.086   5.035   2.630 -0.3935 -0.9555  1.4823
 5519TIP3    H238193   4.982   5.033   2.520  1.6464 -0.1337 -0.5380
 5520TIP3   OH238194   4.964   3.653   8.126 -0.3071 -0.9127  0.1511
 5520TIP3    H138195   4.983   3.569   8.168  0.5715 -0.3965  0.8093
 5520TIP3    H238196   4.921   3.629   8.044 -0.7882 -1.9815  0.6904
 5521TIP3   OH238197   4.982   0.417   2.147  0.3965 -0.6919  0.0399
 5521TIP3    H138198   5.053   0.404   2.209  0.6837 -0.0391 -0.1460
 5521TIP3    H238199   4.983   0.511   2.127 -1.9005 -0.2347  1.6951
 5522TIP3   OH238200   0.107   2.495   0.201 -0.1343 -0.1639 -0.8468
 5522TIP3    H138201   0.102   2.416   0.148  0.0048 -1.4379  0.9283
 5522TIP3    H238202   0.039   2.482   0.268  0.5640  0.7532  0.0655
 5523TIP3   OH238203   0.242   0.726   2.357  0.1654 -0.0038  0.0437
 5523TIP3    H138204   0.330   0.761   2.343  0.3554 -1.0646 -1.6936
 5523TIP3    H238205   0.254   0.631   2.356 -0.9279 -0.1587  0.4469
 5524TIP3   OH238206   5.770   2.051   0.244 -0.1419 -0.3496  0.3425
 5524TIP3    H138207   5.794   2.122   0.304 -1.9334  0.4168  0.2107
 5524TIP3    H238208   5.679   2.031   0.265 -0.6012 -0.5623 -1.5962
 5525TIP3   OH238209   0.575   6.853   0.849  0.2408  0.3586 -0.1934
 5525TIP3    H138210   0.578   6.795   0.773 -0.3437 -3.0497  2.1851
 5525TIP3    H238211   0.667   6.866   0.873  0.3917  0.8043 -0.9842
 5526TIP3   OH238212   4.533   1.305   2.767 -0.0841 -0.4120  0.4056
 5526TIP3    H138213   4.438   1.305   2.765 -0.0768  0.7866 -1.1058
 5526TIP3    H238214   4.559   1.244   2.698  0.2520 -0.3454  0.4692
 5527TIP3   OH238215   5.831   4.912   1.170 -0.4854 -0.7457 -0.6876
 5527TIP3    H138216   5.885   4.974   1.218 -1.6763 -0.1446 -0.0754
 5527TIP3    H238217   5.873   4.827   1.184  0.6563 -0.2242 -0.7973
 5528TIP3   OH238218   2.199   2.290   2.263  0.1132 -0.2041  0.4366
 5528TIP3    H138219   2.295   2.291   2.265  0.1273  1.6910  2.3781
 5528TIP3    H238220   2.174   2.380   2.280 -2.0648 -0.5315 -0.6859
 5529TIP3   OH238221   6.267   5.751   1.668  0.3687 -0.4782  0.3816
 5529TIP3    H138222   6.183   5.738   1.622  0.6389  0.7746 -0.5310
 5529TIP3    H238223   6.321   5.677   1.641 -0.1911 -0.8921  0.3767
 5530TIP3   OH238224   6.459   4.967   1.249 -0.3613  0.1203 -0.5018
 5530TIP3    H138225   6.548   4.999   1.265 -0.7239  0.0385  2.1637
 5530TIP3    H238226   6.469   4.873   1.239 -0.0239  0.2592 -1.5591
 5531TIP3   OH238227   3.504   2.002   2.534 -0.4705 -0.2948 -0.0207
 5531TIP3    H138228   3.463   2.040   2.612 -0.4694  0.3406 -0.3247
 5531TIP3    H238229   3.481   2.062   2.463  2.7083  1.2852  0.1196
 5532TIP3   OH238230   0.524   5.093   1.798 -0.3107 -0.6529 -0.5327
 5532TIP3    H138231   0.449   5.095   1.857  0.2724 -0.4517  0.2133
 5532TIP3    H238232   0.589   5.039   1.843  2.0416  3.3153  1.4374
 5533TIP3   OH238233   0.896   3.740   1.519  0.1668  0.4558  0.0597
 5533TIP3    H138234   0.948   3.752   1.439  0.2678  1.3224  0.2535
 5533TIP3    H238235   0.959   3.750   1.590 -0.5454  3.4465  0.3783
 5534TIP3   OH238236   6.406   6.362   3.690  0.1898 -0.6391 -0.2740
 5534TIP3    H138237   6.439   6.275   3.710 -0.9067 -1.0518 -0.2226
 5534TIP3    H238238   6.316   6.348   3.660 -0.0732  0.4849 -0.0669
 5535TIP3   OH238239   3.832   4.691   3.172  0.0032 -0.2866 -0.4786
 5535TIP3    H138240   3.755   4.747   3.174  0.6313  0.7407 -2.2529
 5535TIP3    H238241   3.822   4.633   3.247 -2.1483  0.2561 -0.2795
 5536TIP3   OH238242   6.235   2.958   1.248  0.1243  0.1263  0.1688
 5536TIP3    H138243   6.214   2.884   1.305  0.7652 -0.3332 -0.1929
 5536TIP3    H238244   6.187   3.031   1.287  1.3435  0.0656  1.9070
 5537TIP3   OH238245   2.698   4.210   8.781  0.1886 -0.4400 -0.2793
 5537TIP3    H138246   2.786   4.182   8.756  0.1032  0.5675 -1.9346
 5537TIP3    H238247   2.651   4.129   8.801  1.5540 -0.9637  0.9017
 5538TIP3   OH238248   6.677   1.164   1.862 -0.2106 -0.4522  0.1010
 5538TIP3    H138249   6.723   1.080   1.860 -0.0429 -0.3457 -1.9599
 5538TIP3    H238250   6.679   1.190   1.954  1.3447 -1.8130  0.4872
 5539TIP3   OH238251   1.731   2.658   1.919 -0.2893  0.1330 -0.2960
 5539TIP3    H138252   1.716   2.674   2.013 -0.0131 -1.1773 -0.0121
 5539TIP3    H238253   1.691   2.572   1.903 -0.9085  0.6314 -1.5381
 5540TIP3   OH238254   3.543   3.010   2.143  0.3643 -0.1793  0.4586
 5540TIP3    H138255   3.584   3.030   2.227 -1.2708 -0.3820  1.3498
 5540TIP3    H238256   3.577   2.924   2.119 -0.7818 -1.1092  2.0301
 5541TIP3   OH238257   5.860   0.944   0.083  0.1114 -0.1158 -0.4372
 5541TIP3    H138258   5.907   1.009   0.030  0.5908  0.5499  0.7587
 5541TIP3    H238259   5.771   0.943   0.047 -0.8801  3.5873  1.3982
 5542TIP3   OH238260   1.860   0.028   1.271 -0.1021 -0.1428  0.2831
 5542TIP3    H138261   1.765   0.027   1.258 -0.1771 -0.4620  0.8258
 5542TIP3    H238262   1.880   0.118   1.297 -0.4230 -0.3424  1.2854
 5543TIP3   OH238263   2.346   1.010   2.715  0.2900 -0.1173  0.0814
 5543TIP3    H138264   2.338   1.093   2.669  1.9882 -0.0125 -0.0910
 5543TIP3    H238265   2.285   0.951   2.670 -1.3705  1.1481  0.5897
 5544TIP3   OH238266   3.237   0.391   1.020  0.4272  0.6608 -0.3782
 5544TIP3    H138267   3.198   0.329   1.081 -1.0455 -1.0396 -2.8983
 5544TIP3    H238268   3.181   0.469   1.026 -0.8488 -0.1932 -0.9070
 5545TIP3   OH238269   4.397   6.529   0.744  0.2881  0.3235  0.0007
 5545TIP3    H138270   4.454   6.455   0.764  0.6884 -0.1704 -2.5870
 5545TIP3    H238271   4.449   6.606   0.766  0.4941 -0.1363  1.1688
 5546TIP3   OH238272   5.231   0.421   0.199 -0.5240 -0.5884 -0.7741
 5546TIP3    H138273   5.280   0.345   0.229  0.8516  0.5541  0.0022
 5546TIP3    H238274   5.268   0.442   0.113 -2.0139 -1.7151 -1.7457
 5547TIP3   OH238275   2.134   4.527   3.404  0.1916  0.2831 -0.5050
 5547TIP3    H138276   2.137   4.475   3.484  0.7037  0.5370 -0.3580
 5547TIP3    H238277   2.071   4.597   3.423 -1.6085 -1.0773 -1.1958
 5548TIP3   OH238278   5.491   2.299   4.162  0.2563  0.8305 -0.5584
 5548TIP3    H138279   5.426   2.360   4.196  0.0743 -0.3796  1.4268
 5548TIP3    H238280   5.562   2.301   4.225  0.7236 -0.1949 -1.0183
 5549TIP3   OH238281   6.434   0.769   0.015  0.0644  0.1142  0.0132
 5549TIP3    H138282   6.522   0.805   0.028  0.8344  0.1048 -4.0380
 5549TIP3    H238283   6.379   0.845  -0.005 -0.7967  0.0467  1.9140
 5550TIP3   OH238284   2.304   3.531   8.591 -0.2887  0.4288 -0.4609
 5550TIP3    H138285   2.228   3.501   8.541 -0.6081  0.4905 -0.0128
 5550TIP3    H238286   2.346   3.450   8.620 -2.0497  0.3194  2.1290
 5551TIP3   OH238287   2.394   0.031   0.988 -0.2110 -0.5639 -0.1324
 5551TIP3    H138288   2.437   0.110   1.021 -2.3420 -0.0644  1.7123
 5551TIP3    H238289   2.455  -0.004   0.923  0.8688  2.5085 -0.9590
 5552TIP3   OH238290   2.756   4.781   3.373  0.5006 -0.0140  0.3256
 5552TIP3    H138291   2.836   4.834   3.375  0.0571  0.6373  1.9347
 5552TIP3    H238292   2.717   4.793   3.459 -2.5514  1.5629 -1.1361
 5553TIP3   OH238293   3.863   2.617   1.794  0.5925 -0.0594  0.5347
 5553TIP3    H138294   3.796   2.568   1.842 -0.8841  0.2141 -1.1122
 5553TIP3    H238295   3.883   2.562   1.718  0.9685  0.6420  0.1124
 5554TIP3   OH238296   0.372   3.001   4.504 -0.2385  0.3202 -0.2176
 5554TIP3    H138297   0.353   2.921   4.454 -0.9348  1.1356 -1.3051
 5554TIP3    H238298   0.286   3.030   4.536  0.2077 -0.2680  1.6494
 5555TIP3   OH238299   2.984   5.598   2.907 -0.1816  0.3596 -0.1465
 5555TIP3    H138300   2.972   5.693   2.915  0.8613  0.5068 -0.2347
 5555TIP3    H238301   2.941   5.562   2.985 -1.9201  0.7703 -0.8631
 5556TIP3   OH238302   2.267   2.311   1.582  0.4225  0.7442  0.1851
 5556TIP3    H138303   2.193   2.271   1.627 -1.6122  2.5212 -1.3754
 5556TIP3    H238304   2.320   2.236   1.552  0.1812 -0.5262  2.6600
 5557TIP3   OH238305   5.258   1.892   2.076  0.4569 -0.4876 -0.0929
 5557TIP3    H138306   5.272   1.972   2.127  0.4760  0.6695 -1.8327
 5557TIP3    H238307   5.347   1.863   2.052  0.3995 -0.2872 -0.5541
 5558TIP3   OH238308   5.259   6.429   3.068  0.1876  0.2722  1.2678
 5558TIP3    H138309   5.235   6.441   3.160  0.5169 -1.1216  1.5584
 5558TIP3    H238310   5.279   6.517   3.036  0.0004  0.7763  2.5099
 5559TIP3   OH238311   4.432   6.308   3.341  0.2360 -0.2362 -0.5673
 5559TIP3    H138312   4.356   6.249   3.337  0.0087  0.0430 -0.4757
 5559TIP3    H238313   4.466   6.296   3.430  0.1744 -0.2132 -0.5399
 5560TIP3   OH238314   1.192   0.800   8.140 -0.0305 -0.6550  0.5325
 5560TIP3    H138315   1.111   0.756   8.113  0.2597 -0.8446 -0.0539
 5560TIP3    H238316   1.188   0.885   8.096  0.8141 -1.2671 -0.7773
 5561TIP3   OH238317   4.447   3.481   0.832 -0.0536 -0.1960  0.1400
 5561TIP3    H138318   4.374   3.423   0.852  0.5065 -1.2148 -0.6663
 5561TIP3    H238319   4.410   3.549   0.777 -0.8902  0.7062  1.7595
 5562TIP3   OH238320   0.042   2.820   2.250  0.1353  0.0163 -0.4779
 5562TIP3    H138321  -0.025   2.850   2.189  1.1993  1.7456 -0.8698
 5562TIP3    H238322   0.125   2.835   2.204  1.0230  2.0473  1.5685
 5563TIP3   OH238323   4.039   4.349   1.167 -0.1628 -0.0581 -0.9700
 5563TIP3    H138324   4.042   4.254   1.155 -1.0703 -0.3140  0.5355
 5563TIP3    H238325   4.117   4.369   1.218  0.1569  0.0496 -1.4949
 5564TIP3   OH238326   5.512   4.978   3.331 -0.1699 -0.2142 -0.6877
 5564TIP3    H138327   5.454   5.002   3.403 -0.0905  1.3794 -1.1049
 5564TIP3    H238328   5.545   4.892   3.354 -1.5810 -0.5349  0.2598
 5565TIP3   OH238329   0.128   3.583   0.314  0.0763  0.3194 -0.1016
 5565TIP3    H138330   0.124   3.661   0.369  0.0669 -0.0212  0.3882
 5565TIP3    H238331   0.043   3.580   0.270  0.3777  1.0356 -0.7642
 5566TIP3   OH238332   5.047   2.604   1.737  0.6441 -0.0309 -0.3422
 5566TIP3    H138333   4.984   2.599   1.809 -1.1894 -2.4934 -1.9538
 5566TIP3    H238334   5.111   2.535   1.756  1.0758  0.3851 -0.2781
 5567TIP3   OH238335   5.309   5.431   3.313  0.0999  0.0252 -0.0531
 5567TIP3    H138336   5.323   5.454   3.404 -1.8559  1.7825 -0.1333
 5567TIP3    H238337   5.255   5.352   3.316 -0.2985  0.3106  0.3286
 5568TIP3   OH238338   0.411   5.324   0.371  0.8194  0.2547 -0.1725
 5568TIP3    H138339   0.420   5.282   0.457 -0.8754  0.0664 -0.0686
 5568TIP3    H238340   0.477   5.394   0.372 -0.7305  1.8157  2.2408
 5569TIP3   OH238341   2.452   6.059   8.624 -0.1824  0.1511  0.2052
 5569TIP3    H138342   2.540   6.092   8.608 -0.5337  1.6173  1.1058
 5569TIP3    H238343   2.434   6.002   8.549  1.5903 -0.3610  0.1105
 5570TIP3   OH238344   4.690   6.521   1.730  0.1637  0.3611  0.0314
 5570TIP3    H138345   4.665   6.558   1.645 -2.1777  1.1920  0.9761
 5570TIP3    H238346   4.749   6.449   1.708  1.0972  1.6752 -2.1667
 5571TIP3   OH238347   5.598   4.832   3.694 -0.7699 -0.5580 -0.6038
 5571TIP3    H138348   5.586   4.831   3.789 -1.7200 -1.5168 -0.7110
 5571TIP3    H238349   5.601   4.925   3.671  1.4496 -0.2761  0.5656
 5572TIP3   OH238350   1.921   2.734   0.070 -0.3812  0.4650 -0.3289
 5572TIP3    H138351   2.002   2.685   0.054 -1.7721 -1.6786 -1.3813
 5572TIP3    H238352   1.909   2.786  -0.010 -0.7678 -0.3289 -0.7926
 5573TIP3   OH238353   2.991   0.084   1.493  0.2207 -0.0503  0.0890
 5573TIP3    H138354   3.030   0.158   1.540  0.1252  0.6286 -0.8800
 5573TIP3    H238355   2.930   0.046   1.556 -2.3134  2.7832 -0.4088
 5574TIP3   OH238356   0.202   4.022   2.421  0.0077 -0.2968 -0.1268
 5574TIP3    H138357   0.160   3.951   2.469  1.8455 -0.5159  1.2573
 5574TIP3    H238358   0.288   3.987   2.397  0.0412  0.6586 -1.5354
 5575TIP3   OH238359   5.790   0.988   3.038 -0.0411 -0.1679  0.6797
 5575TIP3    H138360   5.697   0.982   3.060 -0.0853  1.8808  1.3127
 5575TIP3    H238361   5.791   1.032   2.952  0.3383  0.7643  1.1470
 5576TIP3   OH238362   1.918   1.326   0.584  0.0195  0.5051 -0.3664
 5576TIP3    H138363   2.013   1.338   0.580  0.1463 -0.4699 -0.6978
 5576TIP3    H238364   1.906   1.262   0.655 -0.3465  0.2839 -0.6244
 5577TIP3   OH238365   1.461   5.172   0.602 -0.0950  0.2238 -0.5638
 5577TIP3    H138366   1.453   5.266   0.589 -0.5221  0.6583  2.2205
 5577TIP3    H238367   1.376   5.146   0.639  0.6102 -0.9303  0.2945
 5578TIP3   OH238368   3.380   6.559   8.603  0.5771 -0.4804 -0.6520
 5578TIP3    H138369   3.392   6.500   8.529  1.3354 -1.2416  0.0548
 5578TIP3    H238370   3.465   6.601   8.614  0.4047 -0.2108 -0.3465
 5579TIP3   OH238371   4.228   4.516   1.888  0.1195 -0.5452  0.3780
 5579TIP3    H138372   4.256   4.438   1.937  0.7954 -0.8790 -0.5277
 5579TIP3    H238373   4.202   4.483   1.802 -1.5487 -0.0255  0.6474
 5580TIP3   OH238374   1.428   0.841   2.896  0.2395  0.5161 -0.2688
 5580TIP3    H138375   1.448   0.754   2.931  0.5601  0.4352 -0.6469
 5580TIP3    H238376   1.383   0.824   2.814  0.7987  0.7042 -0.6214
 5581TIP3   OH238377   1.022   3.949   2.272 -0.0239  0.1606  0.0818
 5581TIP3    H138378   1.087   3.993   2.327  0.0546 -0.0977  0.1967
 5581TIP3    H238379   0.977   4.020   2.227  2.4846  0.3339 -2.4972
 5582TIP3   OH238380   6.011   0.191   1.285 -0.2371 -0.0393  0.3018
 5582TIP3    H138381   5.928   0.148   1.263  0.0547  0.0937 -1.1755
 5582TIP3    H238382   5.994   0.284   1.270 -0.2468  0.1556  1.4492
 5583TIP3   OH238383   6.583   3.279   0.554 -0.3186  0.3918  0.3159
 5583TIP3    H138384   6.573   3.331   0.474  0.5914  0.5161  0.2653
 5583TIP3    H238385   6.551   3.192   0.531 -1.3503  0.7871  0.2361
 5584TIP3   OH238386   3.490   1.944   1.174 -0.5831 -0.0742 -0.7859
 5584TIP3    H138387   3.561   2.005   1.156 -0.4336 -0.6682 -2.2984
 5584TIP3    H238388   3.418   1.999   1.207  0.1011  0.6902 -0.5520
 5585TIP3   OH238389   4.805   2.680   0.283  0.3158  0.3743 -0.3213
 5585TIP3    H138390   4.771   2.592   0.265  1.6685 -0.2133 -0.1495
 5585TIP3    H238391   4.867   2.696   0.212  0.3429  1.0494 -0.1499
 5586TIP3   OH238392   5.845   4.007   0.943 -0.6222 -0.3085 -0.1939
 5586TIP3    H138393   5.768   4.027   0.891 -0.4936 -0.5402 -0.4762
 5586TIP3    H238394   5.875   4.091   0.976 -1.8896 -0.3526  1.1847
 5587TIP3   OH238395   2.795   5.254   2.083  0.1276 -0.9963  0.2953
 5587TIP3    H138396   2.812   5.210   1.999 -1.0693 -1.1183  0.0997
 5587TIP3    H238397   2.714   5.216   2.114 -0.5409  0.5171  0.4978
 5588TIP3   OH238398   2.411   0.599   0.259 -0.3438  0.2721 -0.2416
 5588TIP3    H138399   2.500   0.571   0.281 -0.5369  0.4822  0.8546
 5588TIP3    H238400   2.413   0.694   0.269 -0.6145  0.3114 -0.5362
 5589TIP3   OH238401   4.002   2.230   2.254  0.3846 -0.2210  0.3540
 5589TIP3    H138402   4.028   2.265   2.169  0.8287  1.3904  1.1282
 5589TIP3    H238403   3.906   2.232   2.252  0.3960  0.3892  0.1102
 5590TIP3   OH238404   1.247   3.304   2.839  0.2837 -0.6293  0.0400
 5590TIP3    H138405   1.222   3.392   2.811 -0.1145 -0.4731  0.8366
 5590TIP3    H238406   1.311   3.318   2.908  2.3480 -1.0270 -1.6856
 5591TIP3   OH238407   1.856   4.150   0.780 -0.0350  0.1234  0.1696
 5591TIP3    H138408   1.861   4.239   0.745 -0.0662  0.3727  0.7847
 5591TIP3    H238409   1.937   4.108   0.751  0.9240  0.9646  1.5096
 5592TIP3   OH238410   5.510   6.062   3.464 -0.4945 -0.5001  0.0349
 5592TIP3    H138411   5.508   6.105   3.378  0.8168  0.6597  0.5479
 5592TIP3    H238412   5.603   6.045   3.479 -0.8308 -1.9785  0.6385
 5593TIP3   OH238413   1.931   2.087   0.780  0.2718  0.1606 -0.4220
 5593TIP3    H138414   1.836   2.097   0.775 -0.0453 -0.8682  2.0690
 5593TIP3    H238415   1.953   2.027   0.708 -1.2950 -1.2189  0.1720
 5594TIP3   OH238416   3.281   0.415   4.208 -0.4502 -0.0309  0.2345
 5594TIP3    H138417   3.377   0.419   4.205 -0.5100  1.2367 -0.6737
 5594TIP3    H238418   3.258   0.467   4.286 -0.4290  0.6995 -0.2343
 5595TIP3   OH238419   0.751   3.395   0.030  0.4003  0.1987 -0.4640
 5595TIP3    H138420   0.709   3.476   0.003  1.9773  1.0320 -0.5766
 5595TIP3    H238421   0.844   3.417   0.037  0.6879 -1.2282  0.9551
 5596TIP3   OH238422   3.785   2.156   1.642 -0.2513 -0.7488 -0.0919
 5596TIP3    H138423   3.724   2.095   1.601  1.1511 -1.9183 -0.5612
 5596TIP3    H238424   3.865   2.148   1.590  1.6540 -2.3292  2.7604
 5597TIP3   OH238425   4.787   2.272   2.693  0.1033 -0.2843  0.2258
 5597TIP3    H138426   4.835   2.298   2.772 -1.4590  0.3412  1.0174
 5597TIP3    H238427   4.787   2.351   2.638  0.7202 -0.5540 -0.1729
 5598TIP3   OH238428   1.334   6.378   7.844 -0.5724  0.5568  0.2065
 5598TIP3    H138429   1.266   6.413   7.786  1.6750  0.0891 -2.9766
 5598TIP3    H238430   1.393   6.452   7.859 -0.7752  0.4914  1.4224
 5599TIP3   OH238431   6.767   5.724   3.481  0.4231  0.2109  0.6577
 5599TIP3    H138432   6.687   5.725   3.534 -0.8004  1.7239 -1.1201
 5599TIP3    H238433   6.812   5.644   3.509 -1.9983 -1.0487  1.2970
 5600TIP3   OH238434   6.317   3.767   1.490  0.0379 -0.6467  0.0347
 5600TIP3    H138435   6.282   3.730   1.572 -1.5661  3.3541  1.3779
 5600TIP3    H238436   6.412   3.770   1.505 -0.1467 -0.7058  1.4262
 5601TIP3   OH238437   4.336   3.721   8.512 -0.2072  0.6799  0.1241
 5601TIP3    H138438   4.365   3.687   8.427 -0.9746 -0.1173  0.1641
 5601TIP3    H238439   4.416   3.732   8.562  0.0578 -2.9163  0.7655
 5602TIP3   OH238440   4.155   5.738   0.235 -0.7467  0.5842  0.1501
 5602TIP3    H138441   4.161   5.813   0.175 -0.6677 -1.5383 -2.6810
 5602TIP3    H238442   4.236   5.690   0.222 -1.9450 -1.4541 -0.2528
 5603TIP3   OH238443   3.055   3.896   1.199  0.4070  0.6364 -0.1033
 5603TIP3    H138444   2.981   3.869   1.253  0.5759  1.9538  0.8177
 5603TIP3    H238445   3.133   3.867   1.247  0.5181  0.1542 -0.5666
 5604TIP3   OH238446   1.484   3.917   2.321  0.0939 -0.2300  0.6526
 5604TIP3    H138447   1.571   3.877   2.315  0.8849  1.6099 -1.7030
 5604TIP3    H238448   1.439   3.888   2.241 -0.0490  1.8136 -0.0517
 5605TIP3   OH238449   4.115   6.833   2.440  0.0407  0.2873  0.6252
 5605TIP3    H138450   4.071   6.813   2.357 -1.5925  2.1341  0.9783
 5605TIP3    H238451   4.096   6.758   2.496 -0.0614 -0.3177 -0.1937
 5606TIP3   OH238452   3.320   4.372   2.362 -0.4069 -0.2606 -0.3441
 5606TIP3    H138453   3.230   4.356   2.334 -0.4101 -1.0902  0.0901
 5606TIP3    H238454   3.316   4.365   2.458 -0.6017  3.4933  0.0549
 5607TIP3   OH238455   3.661   3.403   2.843  0.4235  0.1371  0.3765
 5607TIP3    H138456   3.604   3.333   2.877 -2.4869  1.5768 -1.1637
 5607TIP3    H238457   3.656   3.472   2.908 -1.0219  0.8984 -0.4878
 5608TIP3   OH238458   3.333   0.668   3.057 -0.7280  0.0811 -0.0313
 5608TIP3    H138459   3.248   0.694   3.090 -0.8263  1.0665 -0.9710
 5608TIP3    H238460   3.395   0.693   3.126 -1.1223  0.1320  0.3049
 5609TIP3   OH238461   2.020   4.042   8.606 -0.2078 -0.0962  0.2196
 5609TIP3    H138462   1.994   4.120   8.557  1.0347  0.2122 -0.0011
 5609TIP3    H238463   2.069   3.990   8.543 -0.7828 -0.9294  0.4507
 5610TIP3   OH238464   6.368   1.378   0.123  0.4692 -0.4973  0.2249
 5610TIP3    H138465   6.454   1.335   0.122 -0.6517 -3.1536  2.4458
 5610TIP3    H238466   6.322   1.342   0.047  0.9015 -0.0716 -0.2366
 5611TIP3   OH238467   3.071   6.174   2.177 -0.1839  0.0624 -0.3595
 5611TIP3    H138468   3.043   6.225   2.253 -1.2519 -0.4625 -0.3752
 5611TIP3    H238469   3.090   6.240   2.110  1.9263  0.6053  0.6764
 5612TIP3   OH238470   1.971   5.925   0.078 -0.4243  0.5590  0.2905
 5612TIP3    H138471   1.898   5.930   0.140 -0.8229  2.0836 -0.2547
 5612TIP3    H238472   1.985   5.831   0.066 -1.7309  0.2297  1.0750
 5613TIP3   OH238473   5.893   5.603   0.031  0.1900 -0.3826 -0.6917
 5613TIP3    H138474   5.832   5.662  -0.014 -0.0604  0.5760  0.8064
 5613TIP3    H238475   5.874   5.616   0.124  1.1117 -1.8068 -0.2744
 5614TIP3   OH238476   4.409   4.750   1.778  0.4755  0.0100  0.0102
 5614TIP3    H138477   4.368   4.796   1.850  0.7564 -1.2217  1.0037
 5614TIP3    H238478   4.380   4.659   1.788 -0.2751 -0.0193 -2.0311
 5615TIP3   OH238479   4.159   0.124   8.392  0.2092  0.1315  0.2123
 5615TIP3    H138480   4.249   0.137   8.362  1.1401 -1.7970  1.8783
 5615TIP3    H238481   4.155   0.031   8.414 -2.8460 -0.3360 -1.7041
 5616TIP3   OH238482   5.487   3.892   1.627 -0.2770  0.2991 -0.5688
 5616TIP3    H138483   5.414   3.837   1.598  0.2867 -0.5687 -0.3923
 5616TIP3    H238484   5.470   3.978   1.589 -1.3454  0.0875 -0.5963
 5617TIP3   OH238485   4.899   1.032   0.254  0.0795  0.0444 -0.1274
 5617TIP3    H138486   4.969   1.081   0.297 -0.4655  2.3243 -1.6910
 5617TIP3    H238487   4.821   1.085   0.266 -1.1964 -1.8758  0.5333
 5618TIP3   OH238488   1.698   2.039   8.773  0.0023  0.1999  0.1361
 5618TIP3    H138489   1.661   2.013   8.689  1.0685  0.0481 -0.3054
 5618TIP3    H238490   1.690   2.135   8.775 -2.6189  0.0418  1.1373
 5619TIP3   OH238491   3.670   3.011   0.972  0.8809  0.2637 -0.2412
 5619TIP3    H138492   3.625   3.007   1.056  0.6345 -0.2277 -0.3899
 5619TIP3    H238493   3.735   2.942   0.976 -0.0937 -0.7463 -0.9844
 5620TIP3   OH238494   6.735   3.201   3.389  0.1688  0.2981  0.4416
 5620TIP3    H138495   6.793   3.192   3.464 -0.8147 -1.8205  1.0182
 5620TIP3    H238496   6.737   3.115   3.346  0.7390  1.4443 -2.0278
 5621TIP3   OH238497   3.484   3.337   0.961 -0.0235  0.1035 -0.8117
 5621TIP3    H138498   3.481   3.266   0.896  0.2985  0.5848 -1.3645
 5621TIP3    H238499   3.393   3.357   0.979 -0.1262  0.3361 -1.5417
 5622TIP3   OH238500   0.476   0.487   0.014  0.0839  0.3584 -0.2422
 5622TIP3    H138501   0.505   0.540  -0.060  0.1707 -1.4675 -1.5924
 5622TIP3    H238502   0.537   0.414   0.017 -0.8027 -0.3773  0.6913
 5623TIP3   OH238503   4.055   3.280   8.348 -0.2349 -0.4165  0.1387
 5623TIP3    H138504   3.970   3.241   8.328 -0.3807  0.1150 -0.3058
 5623TIP3    H238505   4.034   3.369   8.377  0.1431 -0.4301  0.4583
 5624TIP3   OH238506   4.087   3.853   8.455  0.6773  0.1300 -0.3525
 5624TIP3    H138507   4.123   3.844   8.367  0.8706  0.3481 -0.2980
 5624TIP3    H238508   4.147   3.804   8.511  0.8376  0.4066 -0.2763
 5625TIP3   OH238509   1.119   1.580   8.397 -0.4702 -0.3856  0.1453
 5625TIP3    H138510   1.091   1.516   8.331  0.9167 -0.9790  0.0802
 5625TIP3    H238511   1.102   1.665   8.357 -0.1467 -0.7371 -0.7700
 5626TIP3   OH238512   0.914   1.544   1.813 -0.1109 -0.2252 -0.4826
 5626TIP3    H138513   0.907   1.450   1.798 -1.3864 -0.1886 -0.2906
 5626TIP3    H238514   1.007   1.559   1.827  0.0821 -1.5141 -0.1883
 5627TIP3   OH238515   3.080   2.996   8.691  0.3511  0.4009  0.0837
 5627TIP3    H138516   3.133   2.978   8.769 -0.5538 -0.3109  0.5491
 5627TIP3    H238517   3.051   2.910   8.662 -1.4938  0.8326  0.5157
 5628TIP3   OH238518   6.486   6.365   3.010  0.3747 -0.0121 -0.4257
 5628TIP3    H138519   6.444   6.316   3.081  0.2565 -0.6080 -0.8995
 5628TIP3    H238520   6.428   6.440   2.995 -0.0761 -0.3700 -0.4953
 5629TIP3   OH238521   5.031   4.643   1.667  0.7166 -0.0891 -0.0641
 5629TIP3    H138522   5.045   4.550   1.650 -0.1231 -0.2650  0.1655
 5629TIP3    H238523   5.108   4.670   1.715 -0.6889 -1.5963  3.3696
 5630TIP3   OH238524   4.446   1.478   8.723  0.3328  0.3852  0.1377
 5630TIP3    H138525   4.398   1.414   8.671  1.5317 -0.0506 -0.4751
 5630TIP3    H238526   4.530   1.435   8.741  0.7376  1.3650  0.6435
 5631TIP3   OH238527   5.516   5.054   0.529  0.2115  0.5820  0.5698
 5631TIP3    H138528   5.575   4.978   0.529 -1.1874 -0.5569  1.4552
 5631TIP3    H238529   5.574   5.129   0.514  1.5460 -0.7129 -1.2483
 5632TIP3   OH238530   4.440   5.196   0.506  0.5814  0.0597 -0.3589
 5632TIP3    H138531   4.492   5.194   0.586 -0.2451  0.9993  0.2318
 5632TIP3    H238532   4.494   5.246   0.444  1.3473 -0.9169 -0.4923
 5633TIP3   OH238533   2.894   0.096   4.070  0.0434 -0.8395 -0.4653
 5633TIP3    H138534   2.854   0.181   4.051  1.1094 -0.2020  0.0513
 5633TIP3    H238535   2.892   0.049   3.987  0.3932  0.0942 -1.0122
 5634TIP3   OH238536   6.679   0.957   1.566  0.2015  0.0812  0.3059
 5634TIP3    H138537   6.669   0.863   1.552  1.8688 -0.2280  0.8948
 5634TIP3    H238538   6.649   0.971   1.656  1.7537 -0.2637  0.9106
 5635TIP3   OH238539   6.239   1.998   1.261  0.7522 -0.1292 -0.2297
 5635TIP3    H138540   6.201   1.960   1.181 -1.8481 -1.2260  1.4135
 5635TIP3    H238541   6.172   2.058   1.294  1.7037  0.1816  1.2303
 5636TIP3   OH238542   1.146   1.440   0.794  0.1345 -0.5469  0.5055
 5636TIP3    H138543   1.232   1.448   0.753  0.2320  2.0962  1.0806
 5636TIP3    H238544   1.165   1.417   0.885  0.1590 -0.9354  0.4065
 5637TIP3   OH238545   3.031   0.698   0.572 -0.5568  0.4929 -0.0786
 5637TIP3    H138546   3.045   0.780   0.620 -0.7950  0.9768 -0.8242
 5637TIP3    H238547   3.058   0.718   0.482 -0.9435 -0.1438 -0.3415
 5638TIP3   OH238548   0.953   1.148   2.215  0.7192 -0.3856  0.0229
 5638TIP3    H138549   0.987   1.223   2.166 -0.4778 -0.1644 -0.4977
 5638TIP3    H238550   0.918   1.187   2.296 -0.4882 -0.2826 -0.5359
 5639TIP3   OH238551   3.018   4.062   3.236 -0.4510 -0.1284  0.1459
 5639TIP3    H138552   3.097   4.009   3.230 -0.2584  0.1821 -0.1004
 5639TIP3    H238553   3.021   4.119   3.159  0.4911  1.7881  1.5157
 5640TIP3   OH238554   6.849   1.460   2.699 -0.1462 -0.7811  0.0604
 5640TIP3    H138555   6.834   1.442   2.606 -0.2933 -1.3379  0.1875
 5640TIP3    H238556   6.911   1.533   2.700 -0.8648 -0.1448 -0.4810
 5641TIP3   OH238557   6.287   1.197   0.905  0.4684 -0.3249  0.2847
 5641TIP3    H138558   6.285   1.112   0.861  0.4527  0.4577 -1.2931
 5641TIP3    H238559   6.279   1.261   0.834 -1.0922  0.9894  1.5595
 5642TIP3   OH238560   6.560   5.347   0.739 -0.5912  0.2821  0.1791
 5642TIP3    H138561   6.634   5.366   0.798  1.2105  3.6543 -2.7865
 5642TIP3    H238562   6.592   5.276   0.684 -0.7801 -0.2727  0.7677
 5643TIP3   OH238563   5.355   4.726   3.403  0.0831  0.3444 -0.7602
 5643TIP3    H138564   5.344   4.659   3.335  0.6154 -0.5439  0.0204
 5643TIP3    H238565   5.445   4.716   3.433  0.3927  1.8459 -1.0587
 5644TIP3   OH238566   5.978   2.942   1.536  0.0027 -0.1281  0.2616
 5644TIP3    H138567   5.998   2.935   1.629  0.3299  0.7991  0.2774
 5644TIP3    H238568   5.995   2.855   1.500 -0.1763 -0.5056  1.0756
 5645TIP3   OH238569   0.358   1.249   3.321  0.3538 -0.3438  0.5866
 5645TIP3    H138570   0.356   1.217   3.412  1.8632 -1.1338  0.3774
 5645TIP3    H238571   0.266   1.251   3.294 -0.0490 -0.9954  1.8298
 5646TIP3   OH238572   1.818   3.104   0.135 -0.1672  0.2956  0.4996
 5646TIP3    H138573   1.888   3.169   0.131 -1.2862  1.5464  0.6231
 5646TIP3    H238574   1.847   3.041   0.202  0.2402  1.5397  1.5338
 5647TIP3   OH238575   0.062   0.513   0.448  0.6839  0.5817 -0.3210
 5647TIP3    H138576  -0.024   0.549   0.468  0.3678  0.3560 -1.2291
 5647TIP3    H238577   0.092   0.476   0.530  0.9687  2.7720  0.6230
 5648TIP3   OH238578   2.389   5.106   0.597  0.3799  0.0969  0.1170
 5648TIP3    H138579   2.298   5.090   0.573  0.1902  0.9097  0.2451
 5648TIP3    H238580   2.425   5.154   0.523  0.8245 -0.6055 -0.1191
 5649TIP3   OH238581   5.180   4.697   2.537 -0.1191 -0.0325 -0.0401
 5649TIP3    H138582   5.088   4.672   2.535 -0.0844 -0.1175 -0.8771
 5649TIP3    H238583   5.208   4.677   2.626 -0.9229  0.0442  0.2388
 5650TIP3   OH238584   5.295   5.952   0.428  0.1616  0.3607  0.1030
 5650TIP3    H138585   5.333   6.040   0.429 -0.6303  0.7111  0.4612
 5650TIP3    H238586   5.363   5.897   0.389  0.9557  0.9940  0.5560
 5651TIP3   OH238587   3.940   2.477   2.909 -0.3271  0.4868 -0.1115
 5651TIP3    H138588   3.984   2.538   2.968 -0.8215 -0.8185  1.7104
 5651TIP3    H238589   3.855   2.462   2.950 -0.9306 -0.0222 -1.4886
 5652TIP3   OH238590   1.174   1.090   2.967  0.0405  0.1952 -0.0838
 5652TIP3    H138591   1.244   1.025   2.977  0.5118  0.9950  2.6316
 5652TIP3    H238592   1.203   1.164   3.020 -2.6500  0.7562  0.7321
 5653TIP3   OH238593   1.140   2.286   3.737 -0.2047 -0.0458 -0.4598
 5653TIP3    H138594   1.194   2.225   3.787  1.1897  1.9828  0.6405
 5653TIP3    H238595   1.198   2.358   3.716 -2.0446  1.4270 -0.7614
 5654TIP3   OH238596   3.613   5.315   1.798 -0.5990 -0.1895 -0.3097
 5654TIP3    H138597   3.632   5.392   1.744 -0.9881  1.3291  1.5859
 5654TIP3    H238598   3.655   5.243   1.752  1.7032  1.4973 -1.0732
 5655TIP3   OH238599   5.361   0.017   2.090 -0.0484  0.1245 -0.0036
 5655TIP3    H138600   5.290  -0.026   2.137 -0.3717  1.3019  0.6453
 5655TIP3    H238601   5.319   0.092   2.047  0.5888  0.1517 -0.5914
 5656TIP3   OH238602   4.630   3.121   2.784 -0.0083  0.4342  0.0590
 5656TIP3    H138603   4.541   3.101   2.754 -0.0494  0.6198  0.0568
 5656TIP3    H238604   4.643   3.213   2.760  0.3841  0.2523 -0.4339
 5657TIP3   OH238605   6.526   6.410   1.999  0.0682  0.2952  0.8839
 5657TIP3    H138606   6.487   6.389   2.084 -0.9615  0.0541  0.3589
 5657TIP3    H238607   6.566   6.328   1.970  1.5347  0.6853  1.6896
 5658TIP3   OH238608   2.684   6.023   3.149 -0.7220  0.0981  0.2114
 5658TIP3    H138609   2.722   5.954   3.204 -1.8986  0.0760  1.0397
 5658TIP3    H238610   2.595   6.033   3.182 -0.4924  2.2335  0.3267
 5659TIP3   OH238611   3.308   5.190   8.443 -0.1206 -0.1375  0.1416
 5659TIP3    H138612   3.282   5.241   8.519 -2.2756  1.8666 -1.7764
 5659TIP3    H238613   3.262   5.107   8.453 -0.2088  0.0164  1.1033
 5660TIP3   OH238614   1.479   0.347   1.205 -0.4023  0.4149  0.1333
 5660TIP3    H138615   1.444   0.284   1.142 -0.3993  0.3206  0.2244
 5660TIP3    H238616   1.564   0.371   1.170 -0.7716  1.0337 -0.3537
 5661TIP3   OH238617   0.268   6.152   1.232  0.4530  0.1251 -0.4262
 5661TIP3    H138618   0.239   6.086   1.169  2.5288 -0.4956 -0.8056
 5661TIP3    H238619   0.231   6.123   1.315 -1.4369  0.3713 -1.1356
 5662TIP3   OH238620   6.423   0.476   4.227 -0.0381  0.0514  0.5208
 5662TIP3    H138621   6.487   0.445   4.163  1.2175  0.1876  1.6817
 5662TIP3    H238622   6.409   0.402   4.286 -0.0862  0.3831  0.9359
 5663TIP3   OH238623   2.851   1.476   2.901  0.0976  0.1328  0.4468
 5663TIP3    H138624   2.817   1.392   2.933 -1.7347  1.0737  1.0722
 5663TIP3    H238625   2.854   1.532   2.978 -1.2061  1.4274 -0.4081
 5664TIP3   OH238626   6.064   2.964   1.794 -0.1464 -0.0321  0.4162
 5664TIP3    H138627   6.102   3.035   1.846  1.1448 -0.3993  0.0039
 5664TIP3    H238628   5.988   2.936   1.844 -0.0564  0.9207  1.1224
 5665TIP3   OH238629   0.285   1.189   3.577 -0.2664  0.2925 -0.0335
 5665TIP3    H138630   0.243   1.103   3.573  0.9321 -0.3669  0.7023
 5665TIP3    H238631   0.233   1.239   3.640  1.0786 -1.1763  2.4187
 5666TIP3   OH238632   0.991   1.292   0.564 -0.1603  0.2023  0.5105
 5666TIP3    H138633   1.011   1.360   0.629 -0.9128  1.7932 -0.8425
 5666TIP3    H238634   0.896   1.293   0.557 -0.1341 -0.5163 -0.0435
 5667TIP3   OH238635   0.671   2.562   4.205 -0.4620 -0.2078  0.1493
 5667TIP3    H138636   0.759   2.562   4.168  0.0623 -1.7585  1.3063
 5667TIP3    H238637   0.656   2.472   4.233 -1.7125  0.4086  1.6347
 5668TIP3   OH238638   3.740   3.277   1.609 -0.2870  0.2126  0.2221
 5668TIP3    H138639   3.815   3.332   1.586 -1.6707  1.8317 -0.7008
 5668TIP3    H238640   3.758   3.193   1.566  0.6482  0.8093 -0.5981
 5669TIP3   OH238641   6.841   0.687   4.090 -0.2351  0.3465 -0.2418
 5669TIP3    H138642   6.934   0.666   4.079 -0.6199 -2.2496  0.6952
 5669TIP3    H238643   6.821   0.659   4.180 -2.0902  0.0716 -0.6920
 5670TIP3   OH238644   5.262   3.581   0.916 -0.2651 -0.0305  0.0787
 5670TIP3    H138645   5.187   3.524   0.896 -0.4953 -0.0297  0.9086
 5670TIP3    H238646   5.268   3.639   0.841 -0.4523 -0.7060 -0.4721
 5671TIP3   OH238647   0.166   0.572   2.817  0.5441  0.2900 -0.2410
 5671TIP3    H138648   0.229   0.571   2.746  2.3217 -1.4698  1.2319
 5671TIP3    H238649   0.202   0.633   2.881  0.9492 -0.8974  0.7108
 5672TIP3   OH238650   6.710   2.430   2.391  0.0196  0.1212 -0.5714
 5672TIP3    H138651   6.732   2.460   2.303 -2.4762  1.1257 -0.9325
 5672TIP3    H238652   6.658   2.351   2.378  2.0481 -1.4400  0.1941
 5673TIP3   OH238653   3.591   3.073   4.140 -0.3923 -0.1001  0.4154
 5673TIP3    H138654   3.673   3.074   4.092  0.3322 -0.9354  1.5737
 5673TIP3    H238655   3.529   3.120   4.084  1.5859  3.2627  0.7833
 5674TIP3   OH238656   0.294   6.071   1.632  0.0555 -0.3143  0.4955
 5674TIP3    H138657   0.374   6.076   1.580 -1.0863 -1.7923 -1.5368
 5674TIP3    H238658   0.265   6.162   1.641  1.4093  0.1437  0.3815
 5675TIP3   OH238659   1.800   1.318   0.137  0.8475 -0.1211  0.2591
 5675TIP3    H138660   1.705   1.332   0.136  1.0482  1.4065  0.4846
 5675TIP3    H238661   1.822   1.296   0.047  0.4977  1.2814 -0.1866
 5676TIP3   OH238662   1.147   4.036   0.060 -0.0321 -0.3935 -0.1257
 5676TIP3    H138663   1.057   4.020   0.033 -0.7945 -0.6399  2.3218
 5676TIP3    H238664   1.146   4.123   0.098  0.4953 -0.8262  0.9140
 5677TIP3   OH238665   4.051   4.082   1.214  0.0890  0.3340 -0.1558
 5677TIP3    H138666   4.053   4.129   1.298 -1.9941  0.4075 -0.0800
 5677TIP3    H238667   3.986   4.013   1.228  0.3501 -0.2004 -1.4530
 5678TIP3   OH238668   3.910   0.437   1.140  0.2489 -0.8161  0.4399
 5678TIP3    H138669   3.910   0.532   1.129  1.7285 -0.5879  2.0254
 5678TIP3    H238670   3.827   0.418   1.183 -0.6442 -0.4397 -1.0370
 5679TIP3   OH238671   0.223   0.424   2.086 -0.0887  0.2793 -0.1659
 5679TIP3    H138672   0.143   0.475   2.094 -0.5313 -0.7123  3.3541
 5679TIP3    H238673   0.284   0.465   2.146  1.5504  0.0653 -1.6145
 5680TIP3   OH238674   2.698   0.346   2.353  0.0045  0.3957  0.2455
 5680TIP3    H138675   2.722   0.370   2.442 -0.5196  0.4985  0.3597
 5680TIP3    H238676   2.759   0.276   2.330  1.6531  1.9006 -0.1583
 5681TIP3   OH238677   2.837   0.189   2.112  0.1975 -0.1314 -0.1932
 5681TIP3    H138678   2.894   0.226   2.045 -1.1578 -1.5371 -2.2334
 5681TIP3    H238679   2.868   0.100   2.125 -1.1282 -0.7261 -0.9155
 5682TIP3   OH238680   2.312   2.772   2.169  0.4512 -0.0769  0.9000
 5682TIP3    H138681   2.362   2.850   2.191  0.7784  0.3919 -1.3414
 5682TIP3    H238682   2.374   2.715   2.124 -0.1470 -1.0470  1.2686
 5683TIP3   OH238683   3.991   2.826   0.439 -0.2154 -0.0920 -0.3008
 5683TIP3    H138684   3.941   2.792   0.366  0.2758  0.7987 -1.0818
 5683TIP3    H238685   3.982   2.760   0.508 -2.8768  0.2736 -0.2086
 5684TIP3   OH238686   4.812   1.651   3.181 -0.2076  0.3971 -0.3529
 5684TIP3    H138687   4.787   1.641   3.273 -1.0441 -2.2540 -0.7872
 5684TIP3    H238688   4.846   1.565   3.156 -1.8314  0.4250 -3.0197
 5685TIP3   OH238689   0.095   6.693   1.375 -0.2172 -0.0266 -0.3086
 5685TIP3    H138690   0.052   6.767   1.331  0.4463  0.1676 -0.6429
 5685TIP3    H238691   0.183   6.724   1.394 -0.3203 -0.3055  0.6790
 5686TIP3   OH238692   2.603   4.445   0.848 -0.1720  0.1030 -0.4425
 5686TIP3    H138693   2.687   4.480   0.877  1.0902 -3.1075  0.1328
 5686TIP3    H238694   2.547   4.522   0.839  2.2232  2.1712  1.0848
 5687TIP3   OH238695   6.829   5.696   1.987 -0.0210 -0.3466 -0.3478
 5687TIP3    H138696   6.870   5.780   2.007 -1.3991 -0.0835  1.6766
 5687TIP3    H238697   6.869   5.634   2.049  1.9741 -1.5769 -2.7018
 5688TIP3   OH238698   2.387   3.495   0.223 -0.2804  0.6058  0.6073
 5688TIP3    H138699   2.299   3.489   0.187  0.8500 -0.1702 -2.4038
 5688TIP3    H238700   2.398   3.587   0.246 -1.4156  1.0065 -0.3526
 5689TIP3   OH238701   1.303   1.131   0.999 -0.0117 -0.1395  0.5804
 5689TIP3    H138702   1.376   1.190   1.013 -0.0836 -0.5575  3.1173
 5689TIP3    H238703   1.344   1.046   0.981  0.1803 -0.3802  2.0282
 5690TIP3   OH238704   1.263   4.763   1.120  0.0761  0.0808 -0.0276
 5690TIP3    H138705   1.254   4.754   1.025 -0.8007 -0.3970  0.0827
 5690TIP3    H238706   1.176   4.791   1.149 -0.7552 -3.1548  0.9978
 5691TIP3   OH238707   4.460   5.476   0.518 -0.0704 -0.1586  0.4721
 5691TIP3    H138708   4.477   5.428   0.599  1.7762  2.2811  1.6409
 5691TIP3    H238709   4.399   5.545   0.544 -1.5330 -0.9159 -0.8453
 5692TIP3   OH238710   3.644   4.932   1.891 -1.2246 -0.5116 -0.3836
 5692TIP3    H138711   3.626   4.847   1.931 -1.8544  0.1790  0.8604
 5692TIP3    H238712   3.692   4.981   1.957 -0.6012  0.0093 -1.1982
 5693TIP3   OH238713   0.111   5.082   1.565  0.3241  0.0879  0.0009
 5693TIP3    H138714   0.171   5.018   1.604 -0.7284 -0.5901  0.5800
 5693TIP3    H238715   0.024   5.049   1.587 -0.2728  0.9188 -1.0119
 5694TIP3   OH238716   5.831   1.774   3.115  0.1257  0.1991  0.0365
 5694TIP3    H138717   5.833   1.683   3.145  0.5928  0.7316  1.7160
 5694TIP3    H238718   5.796   1.769   3.026 -0.5254 -1.5426  0.3531
 5695TIP3   OH238719   2.137   6.403   0.090  0.6088 -0.2575 -0.5469
 5695TIP3    H138720   2.209   6.340   0.086  0.2860 -0.6060 -1.0072
 5695TIP3    H238721   2.058   6.351   0.076 -0.0181 -0.2993  2.5451
 5696TIP3   OH238722   3.981   1.661   0.189  0.4700  0.4954  0.2750
 5696TIP3    H138723   4.000   1.579   0.234  0.5752  1.1389  1.4419
 5696TIP3    H238724   3.992   1.641   0.096  0.5627 -0.7836  0.5507
 5697TIP3   OH238725   0.296   0.285   0.235  0.6421 -0.0597  0.2147
 5697TIP3    H138726   0.382   0.318   0.263 -0.4705  1.3563  2.2773
 5697TIP3    H238727   0.313   0.196   0.206  3.0798  0.7786 -1.2569
 5698TIP3   OH238728   4.685   1.929   1.942  0.3436 -0.1234  0.1728
 5698TIP3    H138729   4.718   2.005   1.893  0.1802 -0.5099 -0.5417
 5698TIP3    H238730   4.668   1.863   1.876 -2.1973  0.1567  0.4368
 5699TIP3   OH238731   2.705   6.830   1.341 -0.2628 -0.2986 -0.0011
 5699TIP3    H138732   2.654   6.758   1.378 -0.8815 -0.0727 -0.3972
 5699TIP3    H238733   2.649   6.907   1.350 -0.1226 -0.0982 -0.7236
 5700TIP3   OH238734   5.932   0.981   0.795  0.5950 -0.2514  0.1055
 5700TIP3    H138735   5.847   0.938   0.799  0.1681  0.3001 -1.9678
 5700TIP3    H238736   5.912   1.075   0.800  1.2827 -0.1543  1.6445
 5701TIP3   OH238737   3.734   3.203   3.283 -0.4503  0.2995  0.1708
 5701TIP3    H138738   3.816   3.161   3.254 -0.4038  0.7598 -0.3696
 5701TIP3    H238739   3.752   3.227   3.374 -0.6515 -1.2885  0.6750
 5702TIP3   OH238740   5.789   3.608   3.471 -0.1359 -0.1668  0.2893
 5702TIP3    H138741   5.717   3.619   3.533 -0.0346 -0.2375  0.4195
 5702TIP3    H238742   5.779   3.680   3.409 -0.2250 -0.0849  0.3995
 5703TIP3   OH238743   2.369   2.666   2.770  0.2396 -0.5082 -0.4985
 5703TIP3    H138744   2.328   2.625   2.846  0.0234 -0.0374 -0.3556
 5703TIP3    H238745   2.392   2.754   2.800  0.0302 -0.2726 -1.0149
 5704TIP3   OH238746   0.576   0.038   1.587  0.1214 -0.1780  0.8482
 5704TIP3    H138747   0.549  -0.051   1.612  1.4278 -0.5522  1.0566
 5704TIP3    H238748   0.667   0.027   1.559 -0.0630  0.9167 -0.2324
 5705TIP3   OH238749   6.137   1.868   1.013 -0.4099  0.0296 -0.8385
 5705TIP3    H138750   6.111   1.783   0.977  2.6331 -0.2460 -2.8004
 5705TIP3    H238751   6.174   1.914   0.938  0.4823  2.0312  0.7558
 5706TIP3   OH238752   2.112   2.593   1.962  0.2623  0.3800 -0.6918
 5706TIP3    H138753   2.106   2.519   2.022  1.3194  1.2040  0.4774
 5706TIP3    H238754   2.203   2.595   1.935 -0.2856 -0.2303 -2.7169
 5707TIP3   OH238755   6.579   2.969   0.732  0.1086 -0.3260 -0.6982
 5707TIP3    H138756   6.659   2.982   0.681 -1.1946 -2.1401 -3.4431
 5707TIP3    H238757   6.508   2.990   0.671 -1.5454 -0.9156  0.9414
 5708TIP3   OH238758   1.352   3.543   1.188 -0.0668 -1.2719  0.1169
 5708TIP3    H138759   1.326   3.587   1.107  0.5758 -1.4984 -0.2211
 5708TIP3    H238760   1.361   3.614   1.252 -0.3648 -1.0685 -0.0636
 5709TIP3   OH238761   4.689   3.863   4.043  0.0286 -0.0773  0.2612
 5709TIP3    H138762   4.659   3.777   4.072  0.8348  0.3300  2.5225
 5709TIP3    H238763   4.733   3.847   3.960  0.5661 -1.9415  0.8593
 5710TIP3   OH238764   5.956   3.952   1.215 -0.7340 -0.1173  0.3590
 5710TIP3    H138765   5.916   3.877   1.260 -0.6081  0.8770  2.2289
 5710TIP3    H238766   5.903   4.027   1.243  0.6878  0.8236  0.5850
 5711TIP3   OH238767   0.218   6.494   1.026 -0.0858  0.2174  0.2073
 5711TIP3    H138768   0.125   6.482   1.049 -0.1342  2.1304  1.2730
 5711TIP3    H238769   0.266   6.457   1.100 -0.0727  1.1184  0.6573
 5712TIP3   OH238770   3.189   2.354   1.757  0.4265 -0.5875  0.4461
 5712TIP3    H138771   3.113   2.302   1.730 -1.9832  0.5635  4.2482
 5712TIP3    H238772   3.159   2.445   1.753  2.9050  0.2789 -1.3033
 5713TIP3   OH238773   4.605   3.678   8.680  0.2494  0.7524  0.2918
 5713TIP3    H138774   4.542   3.644   8.744  0.0737  1.3097  0.4139
 5713TIP3    H238775   4.616   3.606   8.618 -0.9677  0.8484 -0.0656
 5714TIP3   OH238776   3.332   0.142   4.324 -0.1924 -0.3697 -0.2239
 5714TIP3    H138777   3.251   0.107   4.287 -0.0661 -0.6369 -0.2520
 5714TIP3    H238778   3.305   0.219   4.374 -0.2956  0.3535 -1.3629
 5715TIP3   OH238779   3.284   0.672   0.188  0.0355  0.3676 -0.0117
 5715TIP3    H138780   3.248   0.673   0.277 -0.2760  2.0736 -0.1216
 5715TIP3    H238781   3.209   0.690   0.131  0.3119 -0.2798 -0.6023
 5716TIP3   OH238782   3.399   0.774   3.749  0.1323 -0.7073 -0.1934
 5716TIP3    H138783   3.385   0.775   3.844 -0.4547  0.2384 -0.2691
 5716TIP3    H238784   3.322   0.730   3.714  0.3182 -0.9987 -0.2364
 5717TIP3   OH238785   5.072   1.022   0.004  0.3917  0.8024  0.1480
 5717TIP3    H138786   5.054   0.951  -0.058  0.5495 -0.3381  1.3721
 5717TIP3    H238787   5.002   1.016   0.069  3.1265 -1.6994  3.2328
 5718TIP3   OH238788   4.350   2.594   2.684 -0.0307  0.4518 -0.2310
 5718TIP3    H138789   4.334   2.507   2.721  0.4750  0.0142 -1.0037
 5718TIP3    H238790   4.290   2.652   2.731 -0.5747 -0.3617  0.0991
 5719TIP3   OH238791   2.028   5.687   1.010 -0.0900 -0.0100 -0.3824
 5719TIP3    H138792   2.123   5.690   0.994  0.4286  0.0747  2.2398
 5719TIP3    H238793   1.995   5.621   0.949  1.9945 -1.5213  0.0113
 5720TIP3   OH238794   3.196   2.139   0.307  0.0739 -0.3675 -0.0064
 5720TIP3    H138795   3.122   2.079   0.310 -0.3849  0.2222  1.6844
 5720TIP3    H238796   3.230   2.131   0.218 -1.9445 -0.7259 -0.8066
 5721TIP3   OH238797   3.698   6.357   3.028  0.2180 -0.1884 -0.2140
 5721TIP3    H138798   3.784   6.398   3.034  1.0330 -1.5853 -1.6568
 5721TIP3    H238799   3.707   6.274   3.074 -0.1775 -0.5808 -0.8215
 5722TIP3   OH238800   3.853   4.884   8.103 -0.2437 -0.6655  0.1798
 5722TIP3    H138801   3.932   4.936   8.117 -0.5814  0.4155 -1.6901
 5722TIP3    H238802   3.860   4.813   8.167  1.3171  0.4352  1.3011
 5723TIP3   OH238803   3.507   4.345   2.171  0.3132 -0.2619 -0.5421
 5723TIP3    H138804   3.563   4.417   2.201  0.6200 -0.0904 -1.4889
 5723TIP3    H238805   3.431   4.348   2.229  0.4239  0.6836 -0.4333
 5724TIP3   OH238806   3.867   5.450   2.914 -0.2727  0.4159 -0.7913
 5724TIP3    H138807   3.797   5.515   2.914 -0.0028  0.7114 -0.5450
 5724TIP3    H238808   3.910   5.462   2.829 -1.1531 -0.4674 -1.3828
 5725TIP3   OH238809   2.863   4.672   8.182  0.7304  0.0613  0.0327
 5725TIP3    H138810   2.933   4.672   8.246 -0.4455 -1.2010  1.3954
 5725TIP3    H238811   2.905   4.698   8.100  2.6125  0.0488  0.9480
 5726TIP3   OH238812   6.468   4.606   2.101  0.1905  0.7288 -0.4133
 5726TIP3    H138813   6.507   4.620   2.187  2.4497  1.7480 -1.5144
 5726TIP3    H238814   6.505   4.675   2.047 -0.0624 -0.7017 -2.5390
 5727TIP3   OH238815   1.574   5.309   0.235  0.1595 -0.4491  0.7958
 5727TIP3    H138816   1.498   5.262   0.202  1.2384 -0.2264 -2.2899
 5727TIP3    H238817   1.635   5.239   0.262  0.0068 -0.7024  0.4903
 5728TIP3   OH238818   0.884   3.263   3.071  1.0617  0.0625  0.8396
 5728TIP3    H138819   0.849   3.352   3.079 -0.1820 -0.3075  0.0138
 5728TIP3    H238820   0.978   3.272   3.083  1.1146  1.6850 -0.4595
 5729TIP3   OH238821   0.075   4.225   0.985  0.0051 -0.4187 -0.2874
 5729TIP3    H138822   0.035   4.172   1.054 -1.9728 -1.9472 -2.4237
 5729TIP3    H238823   0.144   4.169   0.949 -0.2886 -0.4590 -0.7992
 5730TIP3   OH238824   2.041   3.811   1.444 -0.0972 -0.1225  0.7729
 5730TIP3    H138825   2.048   3.869   1.520  1.2336  1.0695 -0.2100
 5730TIP3    H238826   2.006   3.730   1.480 -0.2614  0.6636  2.5202
 5731TIP3   OH238827   3.536   6.719   2.568  0.7201  0.3342  0.5393
 5731TIP3    H138828   3.597   6.792   2.576  0.5383  0.5521 -0.0098
 5731TIP3    H238829   3.540   6.675   2.653  1.3927  0.5374  0.6180
 5732TIP3   OH238830   0.059   1.077   3.033  0.3007  0.3597 -0.0046
 5732TIP3    H138831  -0.036   1.069   3.040  0.0462  2.1614 -0.6899
 5732TIP3    H238832   0.093   1.027   3.107 -1.1925 -0.0029  0.4765
 5733TIP3   OH238833   2.692   4.294   3.151 -0.9079 -0.0566 -0.5612
 5733TIP3    H138834   2.732   4.265   3.069 -1.0454  1.3319 -1.1507
 5733TIP3    H238835   2.736   4.376   3.171  0.9433 -1.5890  2.1653
 5734TIP3   OH238836   2.681   4.401   7.770 -0.4701 -0.1184  0.2657
 5734TIP3    H138837   2.588   4.379   7.762 -0.4796 -0.5270  1.3169
 5734TIP3    H238838   2.691   4.431   7.860  0.9824 -3.2167  1.2915
 5735TIP3   OH238839   5.268   2.584   0.754 -0.2152 -0.1080  0.1209
 5735TIP3    H138840   5.314   2.562   0.835 -0.5514  1.3337  0.7343
 5735TIP3    H238841   5.189   2.531   0.756 -0.0230 -0.3848  0.5429
 5736TIP3   OH238842   6.197   4.049   1.105 -0.1032 -0.6550 -0.0174
 5736TIP3    H138843   6.113   4.044   1.152  1.0069  1.1212  2.3889
 5736TIP3    H238844   6.180   4.105   1.030 -1.1791 -0.6760  0.1924
 5737TIP3   OH238845   5.881   0.042   0.564 -0.1500 -0.9642 -0.2717
 5737TIP3    H138846   5.907   0.091   0.485 -1.6887 -0.2825 -0.3908
 5737TIP3    H238847   5.946  -0.028   0.571  0.9609 -0.0724 -1.2197
 5738TIP3   OH238848   1.228   5.888   0.055 -0.5067  0.0835  0.4522
 5738TIP3    H138849   1.297   5.911   0.117 -0.4602  2.6677 -0.4082
 5738TIP3    H238850   1.161   5.955   0.069 -3.5128 -2.9465  2.0645
 5739TIP3   OH238851   3.433   4.745   2.146 -0.3361 -0.4096  0.4423
 5739TIP3    H138852   3.491   4.820   2.159 -1.5001  0.9260 -1.5990
 5739TIP3    H238853   3.467   4.702   2.067 -0.8042 -0.9368  0.5236
 5740TIP3   OH238854   1.322   4.475   4.030  0.0789 -0.3704  0.0915
 5740TIP3    H138855   1.347   4.385   4.008  0.2157 -0.3075 -0.0165
 5740TIP3    H238856   1.228   4.478   4.018 -0.0874 -0.8095  1.1813
 5741TIP3   OH238857   6.242   3.797   2.909 -0.0289 -0.1701 -0.0063
 5741TIP3    H138858   6.212   3.787   2.819  1.6138  1.0266 -0.7314
 5741TIP3    H238859   6.309   3.865   2.905  0.1854 -0.1833  2.1044
 5742TIP3   OH238860   3.115   3.268   0.563  0.2805 -0.4014  0.7166
 5742TIP3    H138861   3.178   3.257   0.492  1.5180  1.3585  1.4584
 5742TIP3    H238862   3.030   3.245   0.523  0.9305  0.4452 -1.3203
 5743TIP3   OH238863   5.493   5.509   0.401 -0.0442 -0.4440 -0.1393
 5743TIP3    H138864   5.509   5.594   0.442 -1.0522  0.2260 -1.0828
 5743TIP3    H238865   5.553   5.449   0.446 -0.9467  0.2755  2.1597
 5744TIP3   OH238866   5.183   6.390   2.763  0.5001 -0.2349  0.0964
 5744TIP3    H138867   5.176   6.307   2.717  1.0932  0.2816 -0.9756
 5744TIP3    H238868   5.093   6.416   2.781  0.2757 -0.6224 -0.4547
 5745TIP3   OH238869   1.530   0.860   3.570  0.0541  0.0472  0.1404
 5745TIP3    H138870   1.586   0.852   3.493  1.3874  0.2309  1.0574
 5745TIP3    H238871   1.561   0.939   3.615 -2.1244  1.1982 -0.2308
 5746TIP3   OH238872   4.787   5.994   0.983  0.4855  1.1358 -0.5901
 5746TIP3    H138873   4.718   6.058   0.965  0.7881  2.3721  2.1865
 5746TIP3    H238874   4.867   6.046   0.985  1.3067  0.0084 -1.9395
 5747TIP3   OH238875   5.402   2.333   3.907 -0.4761 -0.1707 -0.7999
 5747TIP3    H138876   5.394   2.253   3.854 -1.2840  0.2663 -1.3721
 5747TIP3    H238877   5.424   2.301   3.994  1.9442 -0.8597 -1.5763
 5748TIP3   OH238878   2.942   3.703   2.168  0.2217  0.2937 -0.5640
 5748TIP3    H138879   3.030   3.738   2.158 -0.5303  1.8772 -2.3548
 5748TIP3    H238880   2.944   3.619   2.122  0.5603  0.8495 -1.6114
 5749TIP3   OH238881   0.879   1.821   0.952 -0.5888 -0.0087 -0.0367
 5749TIP3    H138882   0.875   1.744   1.010 -0.7900 -0.4172 -0.5818
 5749TIP3    H238883   0.855   1.894   1.008 -0.4862 -0.3563  0.4727
 5750TIP3   OH238884   0.397   5.203   0.931 -0.3005 -0.2515  0.0957
 5750TIP3    H138885   0.314   5.221   0.886  0.3372 -0.1492 -1.1071
 5750TIP3    H238886   0.433   5.129   0.883  0.7006  0.2576  0.0508
 5751TIP3   OH238887   0.483   1.903   0.203 -0.1654  0.7537  0.2206
 5751TIP3    H138888   0.466   1.965   0.132 -1.6742  1.0524  0.7938
 5751TIP3    H238889   0.538   1.951   0.265  2.7791 -0.1243 -1.5558
 5752TIP3   OH238890   1.491   1.240   8.273 -0.8010  0.3295 -0.0903
 5752TIP3    H138891   1.434   1.301   8.225  1.4303  2.0983 -0.6740
 5752TIP3    H238892   1.579   1.264   8.246  0.2609 -2.4882  0.5519
 5753TIP3   OH238893   0.817   0.558   1.950 -0.3512  0.3861  0.2771
 5753TIP3    H138894   0.847   0.605   2.027 -1.4662  1.5156  0.0500
 5753TIP3    H238895   0.895   0.549   1.895  0.1720  0.6924  0.9566
 5754TIP3   OH238896   3.731   0.948   0.281 -0.3546 -0.2677 -0.1164
 5754TIP3    H138897   3.808   0.930   0.228 -0.7549 -1.2716 -0.3921
 5754TIP3    H238898   3.664   0.888   0.247 -0.4706 -1.3367  1.8862
 5755TIP3   OH238899   2.468   5.637   0.355  0.1071 -0.6312  0.4640
 5755TIP3    H138900   2.407   5.705   0.328  0.1882  0.0248  1.8434
 5755TIP3    H238901   2.490   5.591   0.274  0.4740  1.3204 -0.6289
 5756TIP3   OH238902   3.278   1.794   3.815 -0.0692 -0.5753  0.5425
 5756TIP3    H138903   3.264   1.868   3.756 -0.8743 -0.7925  0.4486
 5756TIP3    H238904   3.351   1.821   3.871  1.1611 -0.6315 -0.9769
 5757TIP3   OH238905   5.503   4.688   1.785 -0.1049 -0.6574  0.0359
 5757TIP3    H138906   5.552   4.690   1.867 -1.8162  1.1122  1.0924
 5757TIP3    H238907   5.429   4.747   1.800 -0.0933  0.2869 -3.0328
 5758TIP3   OH238908   1.572   6.118   8.693 -0.4841  0.1563  0.0264
 5758TIP3    H138909   1.617   6.132   8.777  0.4474 -0.8775 -0.2884
 5758TIP3    H238910   1.638   6.135   8.627 -0.4673 -1.5314 -0.4391
 5759TIP3   OH238911   2.862   5.066   1.818  0.0231  0.1976 -0.0682
 5759TIP3    H138912   2.802   5.013   1.766  1.0133 -0.7395 -0.3036
 5759TIP3    H238913   2.917   5.002   1.863  2.7826  0.9269 -2.1126
 5760TIP3   OH238914   6.814   4.602   8.687  0.4878 -0.0971 -0.3925
 5760TIP3    H138915   6.852   4.627   8.771  0.4731  0.0986 -0.4424
 5760TIP3    H238916   6.729   4.647   8.685  0.6698  0.2408 -0.6936
 5761TIP3   OH238917   0.886   5.786   2.355 -0.0579  0.8482  0.2318
 5761TIP3    H138918   0.910   5.873   2.323  0.0056  0.6421 -0.3088
 5761TIP3    H238919   0.791   5.788   2.361 -0.4986 -0.1930 -3.4792
 5762TIP3   OH238920   0.088   5.084   3.603  0.1215  0.3166  0.4709
 5762TIP3    H138921   0.152   5.149   3.574 -0.8985  0.5632 -1.4005
 5762TIP3    H238922   0.140   5.005   3.619  1.0767  0.9226  0.4518
 5763TIP3   OH238923   3.678   5.923   2.872  0.4453 -0.5788 -0.1624
 5763TIP3    H138924   3.584   5.917   2.887  0.4906  0.9724  0.9818
 5763TIP3    H238925   3.688   6.002   2.818  1.2638  0.8063  1.9271
 5764TIP3   OH238926   6.854   5.635   1.707 -0.8479  0.4690 -0.2992
 5764TIP3    H138927   6.834   5.640   1.800 -0.9555  0.2845 -0.3092
 5764TIP3    H238928   6.899   5.716   1.687 -1.9104  1.0681 -0.3428
 5765TIP3   OH238929   0.038   4.109   0.671 -0.4903 -0.1659 -0.0387
 5765TIP3    H138930  -0.022   4.039   0.695 -1.1650  1.2809  2.9884
 5765TIP3    H238931   0.126   4.071   0.680 -0.8493 -0.7687  0.9858
 5766TIP3   OH238932   1.226   5.560   2.441 -0.3416  0.6489  0.0873
 5766TIP3    H138933   1.192   5.471   2.434  0.9996  0.0995  0.1576
 5766TIP3    H238934   1.314   5.548   2.478 -1.3405  2.2179  3.3359
 5767TIP3   OH238935   5.091   6.689   3.193 -0.1226 -0.0735  0.2263
 5767TIP3    H138936   5.142   6.748   3.136 -1.1122  2.0996  1.4377
 5767TIP3    H238937   5.152   6.665   3.263 -0.9132  3.8385  2.5874
 5768TIP3   OH238938   4.120   6.434   3.323 -0.9718  0.3963 -0.1015
 5768TIP3    H138939   4.144   6.408   3.412 -1.5307  0.3174  0.0253
 5768TIP3    H238940   4.031   6.468   3.331 -1.3871 -0.4993 -0.7942
 5769TIP3   OH238941   0.158   2.307   2.979  0.2964 -0.1617 -0.8031
 5769TIP3    H138942   0.089   2.240   2.984  0.2657 -0.0621  0.5279
 5769TIP3    H238943   0.236   2.264   3.013  0.6195  0.0622 -1.2593
 5770TIP3   OH238944   5.904   4.049   8.185  0.4512  0.0471  0.5638
 5770TIP3    H138945   5.820   4.094   8.195 -0.2964 -1.1189 -0.3027
 5770TIP3    H238946   5.881   3.961   8.156  2.0472  0.1655 -1.1996
 5771TIP3   OH238947   1.072   0.956   2.624  0.2151  0.2013  0.3801
 5771TIP3    H138948   1.021   0.898   2.567 -0.3446 -1.0480  2.0652
 5771TIP3    H238949   1.127   1.006   2.564 -2.2050  0.8770 -1.4623
 5772TIP3   OH238950   6.689   4.515   3.419  0.3017  0.1118 -0.2047
 5772TIP3    H138951   6.768   4.461   3.414 -0.4416 -1.1638  0.9698
 5772TIP3    H238952   6.632   4.468   3.480 -1.4431  0.8975 -1.1530
 5773TIP3   OH238953   4.614   3.628   4.116 -0.1025  0.2212 -0.1912
 5773TIP3    H138954   4.573   3.568   4.178 -0.2723  0.7975  0.2617
 5773TIP3    H238955   4.635   3.573   4.040  0.7957 -0.6675  0.6646
 5774TIP3   OH238956   2.976   2.091   3.266 -0.1913  0.0648 -0.2060
 5774TIP3    H138957   3.066   2.111   3.290 -0.3869  0.6635  0.0344
 5774TIP3    H238958   2.984   2.042   3.184  0.3229  0.6829 -0.5326
 5775TIP3   OH238959   5.918   3.895   3.581 -0.2575 -0.4812  0.1426
 5775TIP3    H138960   5.966   3.861   3.506 -1.6507  0.7649 -1.4064
 5775TIP3    H238961   5.891   3.983   3.554 -1.4440 -0.2725  1.8208
 5776TIP3   OH238962   2.070   4.618   3.096  0.2110 -0.3682  0.0999
 5776TIP3    H138963   2.136   4.655   3.154  0.0004  3.7553 -1.8561
 5776TIP3    H238964   1.986   4.647   3.134 -0.1313 -0.7122 -0.3822
 5777TIP3   OH238965   1.138   0.903   8.726  0.0487 -0.3614  0.2291
 5777TIP3    H138966   1.229   0.891   8.752  0.3866  1.9628  0.3191
 5777TIP3    H238967   1.087   0.893   8.806  0.6552  2.3038  1.0188
 5778TIP3   OH238968   3.205   2.583   1.327  0.2590  0.6729 -0.1002
 5778TIP3    H138969   3.139   2.644   1.358 -1.1031 -0.2495 -1.0729
 5778TIP3    H238970   3.156   2.516   1.279  1.9651  0.3073 -1.4415
 5779TIP3   OH238971   1.275   1.359   1.604  0.3584 -0.6646  0.7167
 5779TIP3    H138972   1.307   1.272   1.582 -1.5343 -1.1080 -0.5637
 5779TIP3    H238973   1.183   1.346   1.629 -0.2634  1.0473 -0.4666
 5780TIP3   OH238974   2.679   5.013   7.787 -0.1240  0.2773  0.3728
 5780TIP3    H138975   2.625   5.036   7.862  0.6290 -1.3384  1.4446
 5780TIP3    H238976   2.730   5.093   7.770 -0.4906  0.7527  1.4023
 5781TIP3   OH238977   0.766   6.443   8.446  0.2199  0.5240  0.5457
 5781TIP3    H138978   0.841   6.476   8.396  1.7493 -1.5061  1.3328
 5781TIP3    H238979   0.701   6.422   8.380  2.2684 -2.3008 -0.7895
 5782TIP3   OH238980   5.717   2.629   0.348  0.8956  0.0075 -0.0681
 5782TIP3    H138981   5.736   2.720   0.323  1.0265  0.1373  0.4775
 5782TIP3    H238982   5.674   2.636   0.433  3.4002 -0.5440  1.3462
 5783TIP3   OH238983   1.310   2.376   3.349  0.7989 -0.1988  0.1300
 5783TIP3    H138984   1.238   2.436   3.329  0.0207 -1.2395 -0.2502
 5783TIP3    H238985   1.268   2.300   3.389  1.7191 -0.6932  0.1860
 5784TIP3   OH238986   3.839   0.998   1.023  0.5507 -0.4081  0.2808
 5784TIP3    H138987   3.872   1.056   0.954 -1.1754  0.6175  0.2658
 5784TIP3    H238988   3.841   0.911   0.985  0.1999  0.0617 -0.8522
 5785TIP3   OH238989   0.913   2.503   4.117  0.2638 -0.2046  1.0188
 5785TIP3    H138990   0.964   2.422   4.123 -1.4590 -1.4473 -0.4199
 5785TIP3    H238991   0.924   2.532   4.026  0.2730  0.8139  1.3277
 5786TIP3   OH238992   0.524   2.937   0.051  0.3417  0.2949  0.1337
 5786TIP3    H138993   0.551   2.881  -0.021 -2.5718 -1.2977  0.0887
 5786TIP3    H238994   0.595   3.001   0.061  1.4543 -0.2012 -3.2457
 5787TIP3   OH238995   2.278   1.958   8.610  0.4614 -0.0889  0.6012
 5787TIP3    H138996   2.366   1.990   8.589  0.0611  0.7169  0.0656
 5787TIP3    H238997   2.237   1.942   8.524  0.0008 -0.2037  0.8363
 5788TIP3   OH238998   1.725   5.078   8.528  0.0162  0.3775 -0.4284
 5788TIP3    H138999   1.751   5.132   8.603  0.3154 -0.0208 -0.2441
 5788TIP3    H239000   1.745   5.132   8.452 -1.7437  1.4327 -0.1912
 5789TIP3   OH239001   5.595   5.827   2.307 -0.3349 -0.1857 -0.1983
 5789TIP3    H139002   5.506   5.828   2.343 -0.4578  1.0594 -0.4993
 5789TIP3    H239003   5.605   5.739   2.272 -1.3728 -0.4146  0.0362
 5790TIP3   OH239004   3.516   0.306   1.931  0.2767 -0.0655 -0.4654
 5790TIP3    H139005   3.446   0.287   1.994 -0.0439 -0.4365 -0.9272
 5790TIP3    H239006   3.503   0.243   1.861  1.6311 -0.7232 -0.1501
 5791TIP3   OH239007   6.538   5.871   8.595 -0.1860 -0.1636  0.3647
 5791TIP3    H139008   6.488   5.808   8.647 -0.1794  0.1146  0.7060
 5791TIP3    H239009   6.547   5.829   8.509  0.0784 -0.7670  0.6780
 5792TIP3   OH239010   3.037   5.352   2.459 -0.1355  0.2973 -0.2318
 5792TIP3    H139011   2.986   5.280   2.422  1.1859 -0.0443 -1.5204
 5792TIP3    H239012   3.106   5.309   2.510 -0.4934  0.7181  0.6242
 5793TIP3   OH239013   4.283   4.991   3.066  0.9448  0.0495 -0.2108
 5793TIP3    H139014   4.188   4.991   3.075  0.8325 -1.0700 -1.1885
 5793TIP3    H239015   4.310   5.079   3.095 -0.4859  0.7890 -1.0054
 5794TIP3   OH239016   5.410   6.776   0.557 -0.0458  0.1574 -0.2431
 5794TIP3    H139017   5.356   6.707   0.518 -1.5329  1.2889 -0.2601
 5794TIP3    H239018   5.442   6.827   0.483 -0.6790  0.7167 -0.1435
 5795TIP3   OH239019   3.506   3.121   2.826  0.6440  0.1331  0.0294
 5795TIP3    H139020   3.584   3.108   2.879  0.5518  1.0502  0.4210
 5795TIP3    H239021   3.452   3.181   2.878 -1.0651 -1.7219  0.5225
 5796TIP3   OH239022   4.176   2.205   0.345 -0.6898 -0.0399  0.1267
 5796TIP3    H139023   4.138   2.235   0.428  0.6253 -0.2458  0.8467
 5796TIP3    H239024   4.191   2.111   0.358  0.5367  0.1366  0.0923
 5797TIP3   OH239025   3.492   0.049   3.179 -0.1996 -0.0658  0.4004
 5797TIP3    H139026   3.520  -0.038   3.151 -2.2031 -0.6384  0.0372
 5797TIP3    H239027   3.562   0.079   3.237  0.5958 -1.8679  0.4404
 5798TIP3   OH239028   5.287   2.172   2.408 -0.0127  0.2023 -0.1554
 5798TIP3    H139029   5.307   2.125   2.489  0.7041  1.8565  0.6613
 5798TIP3    H239030   5.194   2.153   2.392 -0.1818 -0.0845  1.0907
 5799TIP3   OH239031   0.726   5.354   2.939  0.1471 -0.5193  0.3904
 5799TIP3    H139032   0.751   5.264   2.960  2.2285  0.0950  0.7452
 5799TIP3    H239033   0.786   5.380   2.869  1.7362  1.5698  2.3838
 5800TIP3   OH239034   6.768   3.359   1.047  0.4837 -0.0580  0.1316
 5800TIP3    H139035   6.739   3.450   1.038 -0.3311 -0.4187 -1.1567
 5800TIP3    H239036   6.692   3.312   1.080 -0.6054 -1.0288 -3.3628
 5801TIP3   OH239037   2.689   2.609   0.995  0.4061 -0.1450 -0.4922
 5801TIP3    H139038   2.603   2.635   1.027 -0.4831 -1.3182 -1.8477
 5801TIP3    H239039   2.740   2.593   1.074 -0.0902  2.1083  0.3616
 5802TIP3   OH239040   3.880   2.038   2.511 -0.3931  0.1046  0.1836
 5802TIP3    H139041   3.787   2.051   2.528 -0.3598 -1.7209  2.3585
 5802TIP3    H239042   3.904   2.107   2.450 -2.8889  1.3813  0.5299
 5803TIP3   OH239043   1.531   1.084   1.517  0.3101 -0.3603  0.2585
 5803TIP3    H139044   1.487   1.011   1.560 -1.1430  1.0067  1.1871
 5803TIP3    H239045   1.491   1.088   1.430 -0.2730 -0.1272  0.5310
 5804TIP3   OH239046   1.517   6.710   0.166  0.0266 -0.0136  0.5437
 5804TIP3    H139047   1.562   6.757   0.096  2.2567  0.4625  2.1724
 5804TIP3    H239048   1.497   6.777   0.231  0.0846 -0.7711  1.3684
 5805TIP3   OH239049   5.000   0.824   0.741 -0.0178  0.3235  0.2682
 5805TIP3    H139050   4.985   0.791   0.829 -0.4203  0.5195  0.2741
 5805TIP3    H239051   4.913   0.836   0.704  0.1535 -0.2919 -0.3644
 5806TIP3   OH239052   6.431   3.567   3.377  0.3984 -0.2192  0.7484
 5806TIP3    H139053   6.364   3.509   3.413  0.4874 -0.6533  0.2166
 5806TIP3    H239054   6.385   3.618   3.310 -0.0652  1.4242  2.2100
 5807TIP3   OH239055   5.850   3.045   0.783 -0.0671  0.5250 -0.3475
 5807TIP3    H139056   5.901   2.964   0.786  0.5992  0.8585 -1.7163
 5807TIP3    H239057   5.915   3.114   0.767 -0.5758  1.3932  1.0963
 5808TIP3   OH239058   2.851   0.156   8.777  0.5663  0.0091 -0.1635
 5808TIP3    H139059   2.855   0.217   8.704 -0.0474 -0.2374 -0.4021
 5808TIP3    H239060   2.875   0.071   8.739 -0.7673 -0.3216 -0.3143
 5809TIP3   OH239061   6.252   0.928   0.550  0.2095 -0.5838  0.2934
 5809TIP3    H139062   6.231   0.945   0.458  0.1774  0.7089  0.5164
 5809TIP3    H239063   6.341   0.894   0.549  0.4265 -0.0059 -0.1759
 5810TIP3   OH239064   2.012   3.188   0.645  0.7417  0.2846 -0.4037
 5810TIP3    H139065   2.030   3.249   0.574  0.7511  0.1908 -0.4821
 5810TIP3    H239066   1.917   3.176   0.642  0.9302 -1.2856 -1.7061
 5811TIP3   OH239067   1.661   5.989   3.415  0.2123  0.2057  0.1078
 5811TIP3    H139068   1.687   5.951   3.499  1.7613  0.4727 -0.2203
 5811TIP3    H239069   1.684   5.922   3.350 -2.2716 -0.6067 -0.0535
 5812TIP3   OH239070   4.693   5.286   2.029  0.1586 -0.3572  0.2087
 5812TIP3    H139071   4.773   5.234   2.015  0.8720  0.6237  0.5602
 5812TIP3    H239072   4.628   5.221   2.056  0.5072 -1.3417 -1.1691
 5813TIP3   OH239073   0.561   0.345   0.329 -0.0809 -0.6299 -0.4839
 5813TIP3    H139074   0.617   0.407   0.282  1.6379  0.1938  2.3820
 5813TIP3    H239075   0.613   0.265   0.336 -0.3320 -0.7636 -0.0593
 5814TIP3   OH239076   2.239   1.955   0.110  0.0118 -0.3544 -0.0613
 5814TIP3    H139077   2.301   1.947   0.037 -0.0054 -1.2040  0.0123
 5814TIP3    H239078   2.153   1.944   0.069 -0.0190 -0.4384  0.0259
 5815TIP3   OH239079   3.998   1.946   8.692 -0.5202 -0.4787  0.3122
 5815TIP3    H139080   4.065   1.966   8.757 -2.4345 -1.4804  2.7627
 5815TIP3    H239081   4.027   1.864   8.652  0.0526 -0.5429  0.8463
 5816TIP3   OH239082   0.344   3.223   2.195  0.1858 -0.6342 -0.0520
 5816TIP3    H139083   0.263   3.270   2.216  0.4749 -0.3353  0.4099
 5816TIP3    H239084   0.354   3.233   2.101 -1.3626 -2.3560 -0.4594
 5817TIP3   OH239085   5.321   2.373   2.064 -0.2486  0.5819 -0.0458
 5817TIP3    H139086   5.338   2.434   2.136 -0.6781  0.6221  0.0225
 5817TIP3    H239087   5.346   2.287   2.099  0.3496  0.7122 -0.1396
 5818TIP3   OH239088   6.832   2.130   2.074 -0.4527  0.0783 -0.5068
 5818TIP3    H139089   6.916   2.087   2.090 -0.5501 -0.3410 -1.0840
 5818TIP3    H239090   6.846   2.181   1.994 -0.9540 -0.5954 -1.0411
 5819TIP3   OH239091   6.388   2.264   8.646  0.2309  0.0824  0.6342
 5819TIP3    H139092   6.325   2.236   8.580 -0.6826  1.3577  0.9255
 5819TIP3    H239093   6.456   2.196   8.644 -0.0643 -0.2177 -1.1754
 5820TIP3   OH239094   5.496   3.774   2.429 -0.4629 -0.6197  0.0299
 5820TIP3    H139095   5.422   3.776   2.368 -0.4573  1.5449  0.0186
 5820TIP3    H239096   5.463   3.817   2.508 -0.4860 -3.4095  1.6921
 5821TIP3   OH239097   0.731   1.770   2.422 -0.6092  0.4058 -0.1446
 5821TIP3    H139098   0.806   1.716   2.445 -0.9386  0.4935  1.2698
 5821TIP3    H239099   0.737   1.846   2.481 -1.9112  0.3006  0.1569
 5822TIP3   OH239100   1.207   2.494   3.043  0.0164 -0.0432  0.3795
 5822TIP3    H139101   1.127   2.540   3.069 -0.3473  0.9888 -2.2969
 5822TIP3    H239102   1.177   2.405   3.024 -0.3100  0.0726  0.3355
 5823TIP3   OH239103   2.807   0.327   8.574 -0.1914  0.2556 -0.4793
 5823TIP3    H139104   2.773   0.413   8.550 -0.9371 -0.4731 -2.1534
 5823TIP3    H239105   2.895   0.324   8.535 -0.9355 -0.4652 -2.1871
 5824TIP3   OH239106   0.558   5.363   1.795 -0.3347  0.1916  0.2773
 5824TIP3    H139107   0.534   5.273   1.773  2.4047  0.0261 -2.8707
 5824TIP3    H239108   0.487   5.416   1.757 -0.5848 -0.5337 -0.2953
 5825TIP3   OH239109   2.207   4.917   1.980 -0.1364  0.1938  0.9199
 5825TIP3    H139110   2.270   4.849   2.002  0.6351  1.1194  1.6989
 5825TIP3    H239111   2.190   4.905   1.887 -0.5048 -1.4278  1.1728
 5826TIP3   OH239112   2.556   1.511   0.719  0.3117  0.3014 -0.4009
 5826TIP3    H139113   2.635   1.564   0.734  0.5902 -0.5900  1.4552
 5826TIP3    H239114   2.589   1.431   0.679  0.3250  0.0354  0.1381
 5827TIP3   OH239115   6.650   1.058   2.963  0.4826  0.3213  0.0956
 5827TIP3    H139116   6.556   1.042   2.962  0.1560  1.9665  0.8213
 5827TIP3    H239117   6.660   1.141   2.915  1.6278 -0.1137 -0.4512
 5828TIP3   OH239118   4.661   5.402   1.116 -0.2223  0.2539  0.8255
 5828TIP3    H139119   4.677   5.381   1.024  1.0830  1.1078  0.8374
 5828TIP3    H239120   4.630   5.493   1.115  0.1133  0.3785  1.2390
 5829TIP3   OH239121   6.781   0.504   0.736  0.5372 -0.2677  0.2747
 5829TIP3    H139122   6.873   0.517   0.759  0.3002 -0.4958  1.4075
 5829TIP3    H239123   6.738   0.585   0.763 -0.2651 -1.6488  3.6359
 5830TIP3   OH239124   4.051   5.050   8.200  0.1191  0.0979 -0.4905
 5830TIP3    H139125   4.138   5.064   8.161 -0.3595 -1.4807 -2.2685
 5830TIP3    H239126   4.026   5.136   8.234  2.3666  0.5945  0.1087
 5831TIP3   OH239127   2.534   2.735   1.424  0.0772 -0.1727  1.0063
 5831TIP3    H139128   2.559   2.734   1.516 -0.6839 -0.4328  1.2160
 5831TIP3    H239129   2.443   2.765   1.424  0.1326  0.0081  0.3257
 5832TIP3   OH239130   6.082   6.783   1.684 -0.3674 -0.8806  0.3877
 5832TIP3    H139131   6.113   6.826   1.605 -1.9369  0.2948  0.3498
 5832TIP3    H239132   6.060   6.694   1.657 -2.4970 -0.0173 -0.9877
 5833TIP3   OH239133   3.092   0.036   4.259 -0.0880  0.0747  0.2900
 5833TIP3    H139134   3.037   0.066   4.187  1.2569  0.5627 -0.5555
 5833TIP3    H239135   3.063  -0.054   4.275  1.4025 -1.0956 -2.7542
 5834TIP3   OH239136   6.800   6.097   0.362  0.0265  0.2388 -0.3847
 5834TIP3    H139137   6.765   6.017   0.324  0.2072 -0.0185 -0.0100
 5834TIP3    H239138   6.887   6.074   0.392 -0.6070  0.0686  1.4051
 5835TIP3   OH239139   4.215   0.538   2.529 -0.2987 -0.2264 -0.2429
 5835TIP3    H139140   4.205   0.633   2.535  3.3128  0.2917 -0.1698
 5835TIP3    H239141   4.241   0.511   2.617 -1.2965 -1.3495 -0.2611
 5836TIP3   OH239142   2.766   0.318   1.588 -0.3361  0.1073  0.0562
 5836TIP3    H139143   2.853   0.357   1.581 -1.0088  1.7549  0.5153
 5836TIP3    H239144   2.758   0.295   1.680 -0.3383 -0.1813 -0.0150
 5837TIP3   OH239145   4.995   4.722   8.430  0.4095  0.2137  0.2678
 5837TIP3    H139146   4.948   4.802   8.407  0.2508  0.4697  1.4229
 5837TIP3    H239147   5.073   4.722   8.373 -0.1713  0.5849 -0.5473
 5838TIP3   OH239148   5.979   3.824   2.983 -0.1511 -0.0555  0.4776
 5838TIP3    H139149   5.960   3.741   3.027 -2.5736  0.2834  0.2407
 5838TIP3    H239150   6.073   3.822   2.968  0.0514 -2.2191  1.5412
 5839TIP3   OH239151   0.573   2.792   0.902 -0.1205  0.1629  0.1679
 5839TIP3    H139152   0.598   2.835   0.821 -1.2942  1.1271  0.2939
 5839TIP3    H239153   0.485   2.758   0.885  1.0692 -3.0520 -0.2416
 5840TIP3   OH239154   1.951   6.501   4.167 -0.2325 -0.2727 -0.3093
 5840TIP3    H139155   2.028   6.498   4.110  0.2253  0.6135  0.2338
 5840TIP3    H239156   1.986   6.511   4.255 -0.8954 -2.8118  0.3292
 5841TIP3   OH239157   0.620   3.648   2.120 -0.3499  1.3651  0.3230
 5841TIP3    H139158   0.715   3.653   2.121 -0.0855 -1.7343  1.1071
 5841TIP3    H239159   0.594   3.663   2.211 -0.2366 -1.0759  0.8342
 5842TIP3   OH239160   1.340   6.132   3.205 -0.0234 -0.2123  0.5676
 5842TIP3    H139161   1.380   6.208   3.162 -0.1927  0.9698  2.3941
 5842TIP3    H239162   1.246   6.148   3.198 -0.1209 -1.0878 -0.4156
 5843TIP3   OH239163   3.097   0.248   1.215  0.4552  0.2610 -0.0719
 5843TIP3    H139164   3.037   0.239   1.289  1.2213  0.3786  0.5738
 5843TIP3    H239165   3.183   0.228   1.251  0.5829 -2.1987 -1.4867
 5844TIP3   OH239166   0.449   0.022   2.144 -0.2107  0.5451 -0.0947
 5844TIP3    H139167   0.535   0.024   2.103  0.9431  0.8691  2.1890
 5844TIP3    H239168   0.392   0.072   2.084  1.8285  2.7756 -0.3174
 5845TIP3   OH239169   1.023   4.600   8.571 -0.2964  0.3226  0.0893
 5845TIP3    H139170   0.939   4.646   8.573 -0.1567  0.5913 -0.1707
 5845TIP3    H239171   1.074   4.645   8.503  0.2914  0.5733  0.6837
 5846TIP3   OH239172   5.979   4.941   2.646 -0.2143 -0.3301 -0.2911
 5846TIP3    H139173   5.946   4.875   2.707 -3.1949  0.7049 -0.6386
 5846TIP3    H239174   5.957   4.907   2.559 -1.1101  0.7559 -0.5027
 5847TIP3   OH239175   2.145   1.098   1.710 -0.8698 -0.2004 -0.2453
 5847TIP3    H139176   2.180   1.133   1.628 -1.4448  0.6806 -0.1351
 5847TIP3    H239177   2.080   1.163   1.737 -4.0552 -2.6192 -1.4365
 5848TIP3   OH239178   2.512   0.399   0.486 -0.0958  0.5273  0.2612
 5848TIP3    H139179   2.504   0.481   0.438 -0.2255 -0.1353 -0.8881
 5848TIP3    H239180   2.482   0.420   0.575 -1.2995  1.4203 -0.3262
 5849TIP3   OH239181   4.368   2.618   1.815  0.1457  0.0808 -0.2490
 5849TIP3    H139182   4.391   2.682   1.881  0.7713 -1.1244  0.7386
 5849TIP3    H239183   4.387   2.661   1.732  1.5565  0.7974  0.4163
 5850TIP3   OH239184   1.700   3.420   8.268  0.3473  0.0997  1.0736
 5850TIP3    H139185   1.648   3.498   8.247  1.8133  0.7509 -0.3402
 5850TIP3    H239186   1.636   3.359   8.304 -1.3143  1.0665 -0.0527
 5851TIP3   OH239187   3.007   3.555   0.719  0.0390  0.1078 -0.1812
 5851TIP3    H139188   2.938   3.511   0.671 -0.5497 -0.6111  1.2665
 5851TIP3    H239189   3.046   3.487   0.774  0.3288  0.9998  0.7574
 5852TIP3   OH239190   6.324   0.273   3.376 -0.2084  0.0260 -0.3236
 5852TIP3    H139191   6.390   0.270   3.445  0.2216  1.3839 -0.6380
 5852TIP3    H239192   6.257   0.333   3.409  0.6536  1.7854 -1.5700
 5853TIP3   OH239193   3.375   6.427   0.054 -0.9742  0.8398  0.5173
 5853TIP3    H139194   3.394   6.476  -0.026  0.4814 -0.9355 -0.3264
 5853TIP3    H239195   3.297   6.376   0.033 -0.7827  0.6223  0.3172
 5854TIP3   OH239196   3.544   1.744   2.485 -0.6337  0.3076 -0.0110
 5854TIP3    H139197   3.518   1.827   2.524 -1.4862 -0.5889  1.4456
 5854TIP3    H239198   3.502   1.744   2.399  0.0976  1.7251 -0.4039
 5855TIP3   OH239199   3.651   2.111   1.015 -0.3721 -0.0308 -0.2300
 5855TIP3    H139200   3.598   2.129   0.937 -0.8735  1.2828  0.3766
 5855TIP3    H239201   3.712   2.184   1.020 -1.6743  1.0078  1.6865
 5856TIP3   OH239202   2.813   0.226   3.820 -0.3973  0.4072 -0.9756
 5856TIP3    H139203   2.854   0.144   3.790 -0.1701 -0.1428  0.7488
 5856TIP3    H239204   2.885   0.290   3.819 -0.6817  0.7763 -2.8044
 5857TIP3   OH239205   3.059   4.333   2.230 -0.4814 -0.3262 -0.2215
 5857TIP3    H139206   2.973   4.370   2.211 -0.8948 -0.7095  0.8110
 5857TIP3    H239207   3.094   4.307   2.145 -1.4910 -0.4015 -0.6204
 5858TIP3   OH239208   2.349   5.929   0.832  0.5862  0.4037 -0.0277
 5858TIP3    H139209   2.348   6.024   0.835  0.8004  0.4248 -0.5871
 5858TIP3    H239210   2.429   5.907   0.785 -0.1598 -0.0120 -1.1525
 5859TIP3   OH239211   1.952   4.874   0.213 -0.8221  0.5109 -0.8535
 5859TIP3    H139212   1.893   4.841   0.145  0.0648  1.0896 -1.9200
 5859TIP3    H239213   2.038   4.837   0.190 -0.3681  1.3190 -0.4861
 5860TIP3   OH239214   6.522   4.260   2.874  0.8938  0.5748 -0.1339
 5860TIP3    H139215   6.469   4.315   2.818 -0.7020 -1.2612 -0.5248
 5860TIP3    H239216   6.536   4.312   2.953 -0.1177  1.7192 -0.6861
 5861TIP3   OH239217   0.223   4.870   2.946  0.4454  0.0296  0.1851
 5861TIP3    H139218   0.223   4.926   3.023 -0.1175 -0.3691  0.4840
 5861TIP3    H239219   0.152   4.904   2.891  0.4645 -0.0443  0.1142
 5862TIP3   OH239220   6.046   3.151   4.164  0.2679 -0.2713  1.0089
 5862TIP3    H139221   5.959   3.189   4.151 -0.3513 -0.8905  2.9959
 5862TIP3    H239222   6.040   3.065   4.122 -0.1713 -0.4269  1.3845
 5863TIP3   OH239223   4.910   4.076   0.319 -0.3744 -0.0966 -0.6029
 5863TIP3    H139224   4.986   4.097   0.372 -0.2725 -0.1246 -0.7372
 5863TIP3    H239225   4.854   4.154   0.324 -1.3178 -0.8289  1.1918
 5864TIP3   OH239226   3.100   6.188   0.390  0.2058 -0.3834 -0.4915
 5864TIP3    H139227   3.042   6.199   0.466 -0.4348 -0.7513 -0.9168
 5864TIP3    H239228   3.179   6.237   0.413  1.0005 -2.3960  1.4494
 5865TIP3   OH239229   1.055   4.478   0.861 -0.6360  0.0913 -0.3336
 5865TIP3    H139230   1.148   4.457   0.849 -0.0530  0.5406  2.5931
 5865TIP3    H239231   1.010   4.427   0.794  1.7811  1.1408 -2.9802
 5866TIP3   OH239232   4.336   1.003   3.146  0.2270  0.0708 -0.5616
 5866TIP3    H139233   4.248   1.016   3.110  0.2215 -0.8790 -0.9284
 5866TIP3    H239234   4.394   1.038   3.079  0.1413  0.5119 -0.4099
 5867TIP3   OH239235   1.692   1.298   2.235 -0.0156  0.0964 -0.0722
 5867TIP3    H139236   1.650   1.278   2.150 -0.3277 -0.1573  0.1383
 5867TIP3    H239237   1.781   1.322   2.212  0.4573 -1.7250 -0.3474
 5868TIP3   OH239238   5.495   1.322   2.807  0.2880  0.4985  0.3793
 5868TIP3    H139239   5.506   1.366   2.722 -2.3445 -0.9792 -0.8724
 5868TIP3    H239240   5.518   1.231   2.790  3.0701  0.7507  2.2434
 5869TIP3   OH239241   1.768   0.785   1.285  0.0848  0.0774  0.6352
 5869TIP3    H139242   1.801   0.867   1.249 -1.8154  0.5174 -0.2061
 5869TIP3    H239243   1.845   0.728   1.290  1.1479  1.3890 -0.2067
 5870TIP3   OH239244   3.961   3.738   0.096  0.0973  0.8605  0.1135
 5870TIP3    H139245   3.995   3.787   0.171  0.1536  0.8370  0.1032
 5870TIP3    H239246   4.036   3.727   0.038  0.0116  1.0392 -0.0327
 5871TIP3   OH239247   0.144   6.567   0.120  0.0872  0.0965 -0.2268
 5871TIP3    H139248   0.144   6.471   0.130 -0.2421  0.0769 -0.3765
 5871TIP3    H239249   0.227   6.595   0.158 -1.3794  0.1293  3.3177
 5872TIP3   OH239250   1.762   1.525   1.747 -0.3656 -0.0584  0.0674
 5872TIP3    H139251   1.743   1.459   1.814  0.2485 -1.9849 -1.5649
 5872TIP3    H239252   1.728   1.488   1.666 -0.4243  1.8773 -0.8617
 5873TIP3   OH239253   2.240   2.115   3.859  0.5522 -0.4457  0.2031
 5873TIP3    H139254   2.159   2.065   3.869 -0.3892  0.9459 -0.2503
 5873TIP3    H239255   2.227   2.169   3.782  1.4809  0.6107  0.7477
 5874TIP3   OH239256   2.268   3.174   2.947  0.0888 -0.5696 -0.2734
 5874TIP3    H139257   2.229   3.184   3.034  2.1043 -1.0125  0.7402
 5874TIP3    H239258   2.320   3.093   2.953 -0.3128 -1.0049 -2.1338
 5875TIP3   OH239259   5.617   0.610   0.149 -0.5320 -0.2711  0.0902
 5875TIP3    H139260   5.699   0.658   0.140 -0.6631 -0.3412 -1.7267
 5875TIP3    H239261   5.638   0.538   0.208  0.8947 -0.6515 -0.8262
 5876TIP3   OH239262   1.057   2.901   1.393 -0.2908 -0.2619  0.1786
 5876TIP3    H139263   0.987   2.874   1.452  0.5002 -1.6489  0.5135
 5876TIP3    H239264   1.031   2.867   1.308  0.6455 -2.0749  0.5771
 5877TIP3   OH239265   2.383   4.000   0.283  0.0420  0.5476  0.2943
 5877TIP3    H139266   2.379   3.950   0.364 -0.8609  0.0041 -0.0778
 5877TIP3    H239267   2.439   3.948   0.225 -0.9598 -0.0984 -0.1196
 5878TIP3   OH239268   2.115   6.058   1.314  0.1509 -0.2126 -0.3449
 5878TIP3    H139269   2.040   6.001   1.295  0.7394 -0.7522 -1.1788
 5878TIP3    H239270   2.159   6.016   1.388 -0.5014  0.2510  0.3194
 5879TIP3   OH239271   1.238   0.522   0.948  0.2890 -0.4647  0.0720
 5879TIP3    H139272   1.179   0.453   0.978  1.9340 -1.2147  1.8063
 5879TIP3    H239273   1.324   0.498   0.984  1.5402  0.9287 -1.7697
 5880TIP3   OH239274   6.161   2.280   1.737  0.5535 -0.7255  0.0666
 5880TIP3    H139275   6.234   2.302   1.796  2.3409 -2.7435 -1.2524
 5880TIP3    H239276   6.146   2.187   1.752  0.6438 -1.1495 -2.1669
 5881TIP3   OH239277   0.145   1.075   1.781 -0.1814 -0.3063 -0.4966
 5881TIP3    H139278   0.132   1.116   1.696 -0.6509 -1.7394 -1.1585
 5881TIP3    H239279   0.123   1.143   1.845  3.5305  1.9819 -1.3645
 5882TIP3   OH239280   1.498   3.698   2.654 -0.1164 -0.1274 -0.0837
 5882TIP3    H139281   1.579   3.651   2.635  0.0964  0.8272 -1.7855
 5882TIP3    H239282   1.430   3.649   2.606 -0.4510 -0.5309  0.7793
 5883TIP3   OH239283   3.305   4.840   0.349  0.0298 -0.2404 -0.5199
 5883TIP3    H139284   3.325   4.808   0.437 -1.5884 -1.3546 -0.5093
 5883TIP3    H239285   3.228   4.790   0.323  0.6293 -0.1229 -2.6884
 5884TIP3   OH239286   6.475   0.773   1.694  0.0615 -0.8034 -0.8035
 5884TIP3    H139287   6.442   0.710   1.630  0.4799 -1.1543 -0.6814
 5884TIP3    H239288   6.553   0.732   1.730 -0.1589 -0.6103 -0.0727
 5885TIP3   OH239289   0.909   3.686   2.124  0.0997 -0.0847 -0.1065
 5885TIP3    H139290   0.969   3.733   2.182  0.4834 -2.4538  1.5549
 5885TIP3    H239291   0.952   3.602   2.108 -2.2744 -1.4641  0.2939
 5886TIP3   OH239292   6.805   1.567   0.337 -0.3007  0.3663 -0.2104
 5886TIP3    H139293   6.785   1.610   0.420  0.1685 -1.1242  0.7104
 5886TIP3    H239294   6.899   1.581   0.325 -0.5495  1.4710 -1.0486
 5887TIP3   OH239295   1.709   3.527   0.551  0.4394 -0.0782  0.5037
 5887TIP3    H139296   1.698   3.611   0.595  1.1563 -0.4169  1.3447
 5887TIP3    H239297   1.747   3.549   0.466  0.7106  0.4399  0.7551
 5888TIP3   OH239298   2.466   1.270   3.236  0.4618 -0.4313  0.2262
 5888TIP3    H139299   2.381   1.290   3.274  1.3491  1.5190  1.2816
 5888TIP3    H239300   2.510   1.217   3.303  0.6855 -0.0626  0.3689
 5889TIP3   OH239301   0.797   5.888   3.467 -0.3537 -0.1803  0.3560
 5889TIP3    H139302   0.879   5.840   3.470  0.2274  0.8238  1.3618
 5889TIP3    H239303   0.794   5.936   3.550 -2.4100 -0.8956  0.7566
 5890TIP3   OH239304   2.858   0.398   0.117  0.1037 -0.2928 -0.1199
 5890TIP3    H139305   2.874   0.313   0.077 -2.9590 -1.0145 -0.1021
 5890TIP3    H239306   2.838   0.456   0.044 -1.9880 -0.7254  0.0460
 5891TIP3   OH239307   2.145   4.678   2.560  0.0456  0.1716  0.5349
 5891TIP3    H139308   2.235   4.709   2.571  0.6065  0.7188 -3.8220
 5891TIP3    H239309   2.098   4.754   2.525 -0.6447 -1.4721 -2.4204
 5892TIP3   OH239310   2.984   5.898   2.899 -0.0768  0.7972  0.2631
 5892TIP3    H139311   3.015   5.887   2.809  0.0827 -1.5078  0.5579
 5892TIP3    H239312   3.048   5.956   2.940  0.4523  0.9877 -0.8081
 5893TIP3   OH239313   0.961   1.527   2.745  0.0329 -0.7287  0.1809
 5893TIP3    H139314   0.948   1.437   2.773  1.2534 -1.1879 -0.6220
 5893TIP3    H239315   1.039   1.556   2.793  0.1342 -0.3905 -0.1751
 5894TIP3   OH239316   0.455   0.919   1.545 -0.2645  0.1043  0.4955
 5894TIP3    H139317   0.471   0.827   1.523 -1.0301 -0.1393  0.9024
 5894TIP3    H239318   0.517   0.938   1.615  2.6205  1.0659 -2.0894
 5895TIP3   OH239319   2.041   5.637   7.893  1.2342 -0.4110  0.1555
 5895TIP3    H139320   2.036   5.698   7.819 -1.8314  0.0724  0.6221
 5895TIP3    H239321   1.998   5.557   7.860  0.2131 -0.3343  1.2236
 5896TIP3   OH239322   4.439   2.465   0.037  0.1059 -0.2773 -0.6452
 5896TIP3    H139323   4.531   2.478   0.059  0.6497 -1.8270 -1.8085
 5896TIP3    H239324   4.411   2.393   0.093 -0.3283  0.0278 -0.4689
 5897TIP3   OH239325   6.218   1.261   0.610  0.1402 -0.1290  0.4826
 5897TIP3    H139326   6.267   1.183   0.585  2.2645  1.6373 -1.3559
 5897TIP3    H239327   6.187   1.297   0.527 -1.2564  0.7109  1.3348
 5898TIP3   OH239328   3.601   0.534   1.415  0.3393  0.4045 -0.1045
 5898TIP3    H139329   3.662   0.598   1.451  0.5010 -0.2232  0.7508
 5898TIP3    H239330   3.522   0.544   1.468 -0.5504  1.6306 -1.5849
 5899TIP3   OH239331   0.117   4.640   2.633  0.3094 -0.1636 -0.2076
 5899TIP3    H139332   0.091   4.724   2.669  3.2695  0.9738 -0.4945
 5899TIP3    H239333   0.120   4.581   2.708 -1.0359  0.1282  0.1071
 5900TIP3   OH239334   1.403   2.364   0.780  0.3352  0.6698  0.3644
 5900TIP3    H139335   1.431   2.371   0.689 -0.1328  1.0367  0.2442
 5900TIP3    H239336   1.386   2.271   0.793 -0.6539  0.7401 -0.2582
 5901TIP3   OH239337   1.649   0.010   2.663 -0.5205 -0.9270  0.0331
 5901TIP3    H139338   1.667   0.064   2.586 -2.5012 -0.1905  0.0304
 5901TIP3    H239339   1.619   0.071   2.729 -0.0979 -1.7197  0.9863
 5902TIP3   OH239340   4.118   1.485   1.393  0.1315 -0.0043 -0.1400
 5902TIP3    H139341   4.072   1.517   1.315 -0.1587  1.4631  0.6064
 5902TIP3    H239342   4.210   1.504   1.374  0.0807  0.1870 -0.2011
 5903TIP3   OH239343   5.549   1.362   0.182 -0.2988  0.0329 -0.0409
 5903TIP3    H139344   5.502   1.411   0.250 -2.1941  1.6246 -2.3187
 5903TIP3    H239345   5.635   1.404   0.178 -0.5218  0.5879  0.7079
 5904TIP3   OH239346   1.388   3.528   2.255 -0.3881  0.2078  0.2570
 5904TIP3    H139347   1.478   3.519   2.285  0.5085  2.5265 -1.4394
 5904TIP3    H239348   1.372   3.449   2.203  0.5171 -0.4066  0.8827
 5905TIP3   OH239349   6.239   2.586   1.255  0.1568 -0.0251  0.1082
 5905TIP3    H139350   6.183   2.627   1.189 -0.9450  0.8685  1.5416
 5905TIP3    H239351   6.274   2.508   1.212 -1.3317 -0.0190 -1.1806
 5906TIP3   OH239352   1.895   2.849   0.788 -0.2089 -0.5346  0.1704
 5906TIP3    H139353   1.839   2.834   0.865 -0.4458 -0.8587 -0.0622
 5906TIP3    H239354   1.860   2.789   0.721 -0.6578  0.4761 -0.5234
 5907TIP3   OH239355   4.234   0.986   2.002  0.4768 -0.4114  0.4010
 5907TIP3    H139356   4.184   0.950   1.929  0.0691  0.2993  0.3149
 5907TIP3    H239357   4.197   0.945   2.080  0.6066 -0.8295  0.2420
 5908TIP3   OH239358   0.188   2.264   8.574  0.5347  0.4732 -0.2211
 5908TIP3    H139359   0.282   2.277   8.583  0.7360 -1.0383  0.1205
 5908TIP3    H239360   0.179   2.175   8.540 -0.8092 -0.3042  1.9855
 5909TIP3   OH239361   6.645   0.973   3.537 -0.3799 -0.1613  0.1289
 5909TIP3    H139362   6.701   1.034   3.586 -0.5533  1.4027 -1.5176
 5909TIP3    H239363   6.557   0.990   3.569 -0.0552 -2.4353  2.5286
 5910TIP3   OH239364   1.668   4.449   0.689 -0.4685 -0.4041  0.0710
 5910TIP3    H139365   1.642   4.507   0.761  0.1141  2.9550 -2.1579
 5910TIP3    H239366   1.762   4.465   0.678 -0.1513 -2.2688 -0.3093
 5911TIP3   OH239367   3.072   1.837   3.583  0.1445 -0.0230 -0.2804
 5911TIP3    H139368   3.156   1.883   3.584  0.1966 -0.0744 -1.3830
 5911TIP3    H239369   3.007   1.906   3.596  0.3742 -0.0770  1.3331
 5912TIP3   OH239370   6.136   2.374   3.490 -0.3238  0.7084 -0.5038
 5912TIP3    H139371   6.130   2.341   3.400  2.7694 -0.1397 -0.5073
 5912TIP3    H239372   6.177   2.304   3.539  2.4866  2.8454  0.4718
 5913TIP3   OH239373   4.997   2.637   0.017  0.2683 -0.4390 -0.6334
 5913TIP3    H139374   5.040   2.625  -0.067 -1.7506  0.1125 -1.8226
 5913TIP3    H239375   4.982   2.548   0.050 -1.0362 -0.7858 -2.0466
 5914TIP3   OH239376   4.951   0.005   8.568  0.5830  0.4008  0.2677
 5914TIP3    H139377   4.965   0.099   8.576  3.1576  0.1571 -0.4690
 5914TIP3    H239378   4.932  -0.024   8.657 -1.3240  1.6951  0.3552
 5915TIP3   OH239379   4.804   5.612   0.919  0.6106  0.5542  0.1967
 5915TIP3    H139380   4.774   5.622   1.009  2.0711 -2.2704  1.1062
 5915TIP3    H239381   4.724   5.594   0.869 -0.0291  0.3508  1.2582
 5916TIP3   OH239382   1.336   6.498   0.175  0.1961  0.6460 -0.2317
 5916TIP3    H139383   1.380   6.453   0.103 -0.4603  0.6874 -0.6652
 5916TIP3    H239384   1.376   6.585   0.176  0.6638  0.4364 -0.1215
 5917TIP3   OH239385   3.653   2.543   1.511 -0.7376  0.0389  0.3681
 5917TIP3    H139386   3.595   2.487   1.561 -1.8339 -2.4766 -3.2536
 5917TIP3    H239387   3.601   2.570   1.435  1.5047  1.2936 -0.8361
 5918TIP3   OH239388   5.019   1.100   3.149  0.0696 -0.4869 -0.6805
 5918TIP3    H139389   5.036   1.093   3.055 -2.6711  0.9961 -1.3742
 5918TIP3    H239390   5.106   1.094   3.189  1.6226  1.2295 -3.4609
 5919TIP3   OH239391   5.124   1.374   0.202 -0.5024  0.0896 -0.6112
 5919TIP3    H139392   5.153   1.330   0.122  0.0700  1.2094 -1.0383
 5919TIP3    H239393   5.175   1.455   0.205  1.2628 -0.9469  2.1061
 5920TIP3   OH239394   4.820   5.055   2.995 -0.2745  0.3823  0.1406
 5920TIP3    H139395   4.891   5.117   2.978  0.7870 -0.8904 -0.1793
 5920TIP3    H239396   4.816   5.000   2.918 -1.1391 -0.0276  0.4611
 5921TIP3   OH239397   1.418   1.856   1.247 -0.0840 -0.0480  0.9574
 5921TIP3    H139398   1.506   1.839   1.280  0.5211  0.9787 -0.0210
 5921TIP3    H239399   1.361   1.849   1.324  1.0156  0.4495  1.8422
 5922TIP3   OH239400   1.226   2.939   2.071 -0.1668 -0.5075  0.1587
 5922TIP3    H139401   1.233   2.849   2.105  1.7449 -0.3298  0.3462
 5922TIP3    H239402   1.305   2.950   2.018 -0.3960  1.0682  0.1192
 5923TIP3   OH239403   0.211   6.290   2.244  0.2932 -0.4611 -0.0491
 5923TIP3    H139404   0.276   6.354   2.270 -0.3752  0.1989  0.0348
 5923TIP3    H239405   0.168   6.329   2.167 -1.8389  0.3989  1.4910
 5924TIP3   OH239406   4.328   3.989   8.279  0.0440  0.3214 -0.2100
 5924TIP3    H139407   4.407   3.961   8.233  0.8582 -0.0867  1.3698
 5924TIP3    H239408   4.256   3.949   8.230  0.9769 -1.6627 -0.0526
 5925TIP3   OH239409   5.742   6.164   8.639 -0.1351  0.4539  0.2476
 5925TIP3    H139410   5.744   6.198   8.728  2.1639 -0.1427  0.5014
 5925TIP3    H239411   5.682   6.221   8.592 -1.6065  0.6037  2.2275
 5926TIP3   OH239412   5.797   0.261   2.453  0.0622 -0.4817 -0.3341
 5926TIP3    H139413   5.836   0.185   2.409  1.3364 -0.0731  0.0266
 5926TIP3    H239414   5.873   0.309   2.487 -0.7397  0.8471 -0.3925
 5927TIP3   OH239415   1.530   0.096   0.670 -0.1951 -0.5886  0.4968
 5927TIP3    H139416   1.483   0.022   0.708 -0.4479 -0.6348  0.0939
 5927TIP3    H239417   1.462   0.157   0.642 -0.1118 -1.3731 -1.5857
 5928TIP3   OH239418   1.232   6.525   3.077 -0.0328  0.9860  0.3462
 5928TIP3    H139419   1.322   6.493   3.077  0.7334  2.7449  3.2055
 5928TIP3    H239420   1.228   6.585   3.002  1.1488  0.8220  0.1343
 5929TIP3   OH239421   4.857   4.284   8.595  0.1308  0.1760 -0.5111
 5929TIP3    H139422   4.873   4.345   8.667  0.2348  1.1917 -1.3748
 5929TIP3    H239423   4.840   4.340   8.519  2.2142 -0.8195 -1.8033
 5930TIP3   OH239424   3.179   1.093   2.304 -0.3092 -0.2279 -0.2295
 5930TIP3    H139425   3.195   1.181   2.271 -0.3642  0.2543  1.0000
 5930TIP3    H239426   3.266   1.060   2.328 -0.3902 -0.1457  0.1876
 5931TIP3   OH239427   2.900   3.330   3.838  1.0504  0.0958 -0.0350
 5931TIP3    H139428   2.932   3.296   3.921 -0.8656  0.1543  0.7740
 5931TIP3    H239429   2.898   3.254   3.780 -2.3230 -1.1669  1.4852
 5932TIP3   OH239430   4.012   3.080   1.068 -0.2363 -0.3824  0.8859
 5932TIP3    H139431   4.093   3.056   1.024 -0.9860 -4.0415  1.2284
 5932TIP3    H239432   3.962   3.128   1.002  0.6212 -1.5160 -0.6387
 5933TIP3   OH239433   5.882   0.835   3.746  0.9324  0.2436 -0.2906
 5933TIP3    H139434   5.870   0.796   3.833 -1.8915  0.5077 -0.4873
 5933TIP3    H239435   5.939   0.910   3.762  3.9015 -2.0031  0.5900
 5934TIP3   OH239436   1.953   1.068   3.165  0.2247  0.1761  0.1072
 5934TIP3    H139437   1.994   0.984   3.141 -0.4018  0.2659 -1.3827
 5934TIP3    H239438   1.982   1.084   3.255  1.3005 -1.0614  0.0100
 5935TIP3   OH239439   5.233   6.804   0.326  0.5958  0.3215  0.3065
 5935TIP3    H139440   5.195   6.731   0.375 -0.2131  0.2767 -0.3452
 5935TIP3    H239441   5.221   6.779   0.234  3.1501 -0.1450  0.0491
 5936TIP3   OH239442   0.385   5.644   2.503 -0.4198 -0.2729  0.0372
 5936TIP3    H139443   0.291   5.643   2.489 -0.5396 -0.1621  0.8104
 5936TIP3    H239444   0.399   5.589   2.580 -0.0060  0.9231  0.8351
 5937TIP3   OH239445   2.515   5.345   0.931  0.0820 -0.4511 -0.6036
 5937TIP3    H139446   2.441   5.400   0.954  0.3175 -1.2054  2.3551
 5937TIP3    H239447   2.589   5.407   0.923 -0.5640  0.1600 -2.4441
 5938TIP3   OH239448   0.158   1.077   0.690 -0.1749  0.6078  0.3930
 5938TIP3    H139449   0.178   1.111   0.777 -1.5886 -0.1766  1.0490
 5938TIP3    H239450   0.156   1.155   0.634  1.9282  1.0021  0.7834
 5939TIP3   OH239451   0.788   0.849   7.861 -0.4308 -0.5860 -0.0609
 5939TIP3    H139452   0.883   0.855   7.850 -0.4016 -1.6345 -0.5100
 5939TIP3    H239453   0.763   0.933   7.898  0.6280 -0.1587 -0.2744
 5940TIP3   OH239454   5.012   3.843   1.073  0.3286 -0.1096 -0.1763
 5940TIP3    H139455   5.054   3.921   1.036 -2.5107  2.6797  1.9815
 5940TIP3    H239456   5.039   3.844   1.165 -0.4534 -1.1781  0.0726
 5941TIP3   OH239457   3.966   1.863   1.827  0.6568  0.0877 -0.6627
 5941TIP3    H139458   3.995   1.852   1.736  0.8997 -1.6685 -0.3959
 5941TIP3    H239459   3.881   1.819   1.831  1.9727 -2.5687  0.6183
 5942TIP3   OH239460   5.823   1.516   3.229  0.1755  0.3888 -0.3967
 5942TIP3    H139461   5.780   1.506   3.315 -0.1114 -0.1327 -0.5960
 5942TIP3    H239462   5.858   1.430   3.210  0.9731  0.7130 -0.4298
 5943TIP3   OH239463   3.568   6.480   3.424  0.5767  0.0121 -0.6908
 5943TIP3    H139464   3.585   6.571   3.396  1.6179  0.3112  0.7926
 5943TIP3    H239465   3.489   6.486   3.477 -0.3982 -0.2666 -2.0854
 5944TIP3   OH239466   6.169   2.374   2.775  0.3973  0.3663 -0.0943
 5944TIP3    H139467   6.221   2.415   2.706  0.2660 -1.8519 -1.5978
 5944TIP3    H239468   6.170   2.281   2.754 -3.9859  0.1241 -0.1442
 5945TIP3   OH239469   0.518   1.601   1.704  0.3720 -0.5667  0.2555
 5945TIP3    H139470   0.484   1.687   1.728  0.0627 -0.9672  1.3250
 5945TIP3    H239471   0.502   1.594   1.610  0.4117  0.5405  0.1526
 5946TIP3   OH239472   4.372   0.136   2.323 -0.5417 -0.1676 -0.1828
 5946TIP3    H139473   4.298   0.076   2.318 -0.8785  0.1160  1.0901
 5946TIP3    H239474   4.382   0.154   2.416  2.3278 -1.6900 -0.0772
 5947TIP3   OH239475   6.607   1.369   1.043 -0.5848  0.0410  0.5790
 5947TIP3    H139476   6.639   1.299   0.985  0.7673 -0.3287  1.7109
 5947TIP3    H239477   6.566   1.322   1.116  0.1400  0.4193  1.2390
 5948TIP3   OH239478   5.845   2.091   0.988  0.5418 -0.3805 -0.5344
 5948TIP3    H139479   5.876   2.048   1.067 -0.3413 -0.1019 -0.0293
 5948TIP3    H239480   5.917   2.148   0.962  0.0910  1.0713  1.2188
 5949TIP3   OH239481   2.014   1.262   0.294 -0.0655  0.4779 -0.4924
 5949TIP3    H139482   1.972   1.275   0.379  0.2396  0.1042 -0.2756
 5949TIP3    H239483   1.968   1.321   0.234 -0.0732  0.9800 -0.0003
 5950TIP3   OH239484   2.977   6.218   1.570 -0.0093 -0.3733 -0.5244
 5950TIP3    H139485   3.009   6.308   1.572 -0.3376 -0.2761  0.9299
 5950TIP3    H239486   2.883   6.225   1.581  0.0374 -0.9294  0.2976
 5951TIP3   OH239487   2.434   4.287   3.027  0.1421  0.6707  0.3435
 5951TIP3    H139488   2.445   4.365   2.973  0.7769 -1.1567 -2.4291
 5951TIP3    H239489   2.514   4.282   3.080  1.2633  0.6652 -1.2783
 5952TIP3   OH239490   5.949   3.744   8.777  0.3650  0.0045 -0.0408
 5952TIP3    H139491   5.953   3.684   8.852  3.2671  1.9939  1.5825
 5952TIP3    H239492   5.994   3.697   8.707 -2.0951 -1.7462 -0.5863
 5953TIP3   OH239493   2.643   5.197   0.316 -0.2990 -0.2440 -0.0907
 5953TIP3    H139494   2.671   5.272   0.368 -0.6154 -1.3016  1.6581
 5953TIP3    H239495   2.567   5.162   0.362  0.2931 -2.1036 -0.4403
 5954TIP3   OH239496   6.327   0.993   1.691  0.0166 -0.1409  0.0196
 5954TIP3    H139497   6.380   0.913   1.687 -1.1537 -1.0890  1.8904
 5954TIP3    H239498   6.308   1.014   1.599  0.5087 -1.9193 -0.5243
 5955TIP3   OH239499   3.010   4.977   0.849  0.1410  0.2792 -0.0287
 5955TIP3    H139500   2.944   5.043   0.830  1.6705  1.7512 -0.4884
 5955TIP3    H239501   2.995   4.908   0.784 -0.2392  1.1151 -0.8481
 5956TIP3   OH239502   1.567   3.735   8.575 -0.3741  0.0525 -0.1480
 5956TIP3    H139503   1.481   3.704   8.548  0.1501 -1.0698 -0.6130
 5956TIP3    H239504   1.581   3.816   8.526 -1.8620  1.2087  1.2270
 5957TIP3   OH239505   1.573   3.095   3.291  0.3529 -0.2464  0.1088
 5957TIP3    H139506   1.561   3.015   3.343  3.3945 -0.7666  0.2346
 5957TIP3    H239507   1.516   3.083   3.215 -1.3136 -1.2282  1.4384
 5958TIP3   OH239508   0.433   2.562   1.387 -0.0575 -0.3252  0.0876
 5958TIP3    H139509   0.457   2.630   1.450  0.2153 -1.9244  1.8061
 5958TIP3    H239510   0.429   2.482   1.439 -3.4357 -1.1661 -1.2042
 5959TIP3   OH239511   3.613   1.950   2.008 -0.4852 -0.1233  0.6037
 5959TIP3    H139512   3.674   2.013   1.970 -0.5303 -0.3971  0.0687
 5959TIP3    H239513   3.662   1.911   2.080  0.6219 -1.5410 -0.8394
 5960TIP3   OH239514   2.259   5.624   1.316  0.0477 -0.1518  0.3255
 5960TIP3    H139515   2.261   5.620   1.220 -1.2249 -0.7757  0.3132
 5960TIP3    H239516   2.330   5.565   1.343  0.7898  0.4693 -0.2288
 5961TIP3   OH239517   5.210   6.395   1.054 -0.3591 -0.0838 -0.0490
 5961TIP3    H139518   5.268   6.357   1.120 -0.7331 -2.7970 -1.1217
 5961TIP3    H239519   5.129   6.412   1.101  0.3804  1.1021  0.8547
 5962TIP3   OH239520   1.553   0.665   0.891 -0.1082 -0.1557 -0.4476
 5962TIP3    H139521   1.614   0.700   0.827  0.8044 -1.2454 -0.2139
 5962TIP3    H239522   1.557   0.570   0.878 -1.7882 -0.2558 -0.4415
 5963TIP3   OH239523   3.545   2.141   3.128  0.2692  0.1072  0.7398
 5963TIP3    H139524   3.481   2.212   3.130 -1.6976 -1.5223 -0.1838
 5963TIP3    H239525   3.544   2.106   3.218 -2.1954 -1.5229  0.1737
 5964TIP3   OH239526   1.815   5.058   0.951 -0.2631 -0.1652 -0.3221
 5964TIP3    H139527   1.829   5.058   1.046  1.0517  0.1089 -0.4882
 5964TIP3    H239528   1.899   5.027   0.916 -0.5573  0.2591 -1.4175
 5965TIP3   OH239529   5.403   6.649   8.781  0.2203  0.4839  0.4900
 5965TIP3    H139530   5.315   6.634   8.816  0.7391  0.7042  1.9606
 5965TIP3    H239531   5.393   6.722   8.721 -0.8015 -0.2501 -0.2711
 5966TIP3   OH239532   1.046   5.659   7.995  0.4157  0.1189  0.3450
 5966TIP3    H139533   1.073   5.751   7.999  0.2686  0.2090 -0.5437
 5966TIP3    H239534   1.107   5.614   8.054  2.6546  0.3027 -1.6695
 5967TIP3   OH239535   5.670   4.624   2.726 -0.4290  0.4815  0.4164
 5967TIP3    H139536   5.631   4.656   2.807 -0.4993 -0.2637  0.6840
 5967TIP3    H239537   5.762   4.651   2.731 -0.4361  0.4406  0.7404
 5968TIP3   OH239538   3.887   5.165   1.397  0.3344  0.1278  0.2974
 5968TIP3    H139539   3.942   5.090   1.374  1.2650  0.9217 -0.1548
 5968TIP3    H239540   3.835   5.134   1.471  1.6703 -0.5461  0.9980
 5969TIP3   OH239541   1.067   6.080   3.242  0.4996 -0.1379 -0.4790
 5969TIP3    H139542   0.974   6.084   3.221  0.1417 -1.5912  0.6619
 5969TIP3    H239543   1.075   6.125   3.326  0.8778  0.1581 -0.6656
 5970TIP3   OH239544   2.141   4.152   0.252  0.0238 -0.0586  0.1155
 5970TIP3    H139545   2.190   4.074   0.228 -1.1640 -0.0572 -2.6612
 5970TIP3    H239546   2.057   4.143   0.206  0.0257  3.0281 -0.7076
 5971TIP3   OH239547   1.271   6.488   1.316  0.2553 -0.1171 -0.0424
 5971TIP3    H139548   1.197   6.434   1.289  0.9008 -0.0597 -2.0435
 5971TIP3    H239549   1.346   6.428   1.317  0.7483  0.4584 -1.0962
 5972TIP3   OH239550   0.727   6.756   4.383  0.4934  0.1578  0.2241
 5972TIP3    H139551   0.771   6.671   4.391  0.8738  0.3418  0.1011
 5972TIP3    H239552   0.792   6.813   4.342  0.4529  0.6663  0.8498
 5973TIP3   OH239553   6.819   1.990   4.427  0.0258 -0.6526 -0.3292
 5973TIP3    H139554   6.787   2.065   4.478  1.4760  0.1975 -0.6087
 5973TIP3    H239555   6.742   1.935   4.414 -1.8140  2.1308 -2.5056
 5974TIP3   OH239556   2.170   4.813   0.702  0.0157  0.1095  0.0346
 5974TIP3    H139557   2.106   4.826   0.632 -0.0990  0.4929  0.2064
 5974TIP3    H239558   2.209   4.728   0.684  0.6306  0.5934 -1.0111
 5975TIP3   OH239559   2.314   2.892   3.761  0.0596  0.3583 -0.1001
 5975TIP3    H139560   2.320   2.800   3.786 -0.0367 -0.1990 -1.9666
 5975TIP3    H239561   2.221   2.908   3.753  0.1021  0.1413 -1.2797
 5976TIP3   OH239562   0.479   0.450   2.237 -0.0367  0.2934 -0.1790
 5976TIP3    H139563   0.550   0.475   2.296  0.1485  0.5388 -0.5042
 5976TIP3    H239564   0.524   0.423   2.156 -0.3237  0.6807 -0.4712
 5977TIP3   OH239565   0.790   6.418   2.781  0.1076 -0.2453  0.4227
 5977TIP3    H139566   0.783   6.323   2.790 -0.3796 -0.2375  0.1323
 5977TIP3    H239567   0.884   6.435   2.789  0.4913 -0.9929 -1.8541
 5978TIP3   OH239568   5.442   2.394   2.341  0.3097  0.5301 -0.0889
 5978TIP3    H139569   5.524   2.346   2.343  1.7278  2.7616 -1.1379
 5978TIP3    H239570   5.375   2.328   2.358  2.1887 -1.6020 -0.5324
 5979TIP3   OH239571   0.934   0.793   1.085  0.1975 -0.2662 -0.8268
 5979TIP3    H139572   0.962   0.884   1.074 -0.0368 -0.1485 -0.4407
 5979TIP3    H239573   0.959   0.751   1.003  2.0782 -0.3105 -0.2859
 5980TIP3   OH239574   1.591   2.341   2.383  0.3986  0.9943  0.0415
 5980TIP3    H139575   1.673   2.370   2.422  1.9843 -4.2736  1.4100
 5980TIP3    H239576   1.615   2.312   2.295  0.0445 -0.4612  0.3987
 5981TIP3   OH239577   0.708   3.233   4.384  0.8910 -0.4273 -0.7264
 5981TIP3    H139578   0.720   3.305   4.323  0.8650 -1.0285 -1.4531
 5981TIP3    H239579   0.748   3.157   4.341 -3.6591 -2.1706 -2.4658
 5982TIP3   OH239580   4.282   4.417   1.251 -0.4503  0.2448 -0.1545
 5982TIP3    H139581   4.283   4.507   1.219  0.2089  1.5128  3.0446
 5982TIP3    H239582   4.355   4.413   1.313 -0.4712 -2.5230 -0.1778
 5983TIP3   OH239583   3.749   0.172   8.731  0.1125 -0.0787  0.6159
 5983TIP3    H139584   3.804   0.107   8.687  1.0359  2.1700 -1.8440
 5983TIP3    H239585   3.676   0.186   8.670  1.4833  3.2157 -0.5621
 5984TIP3   OH239586   1.345   2.084   3.856  0.4675 -0.0425 -0.2062
 5984TIP3    H139587   1.403   2.069   3.781  1.0794 -1.2400  0.4743
 5984TIP3    H239588   1.404   2.113   3.925 -0.3329  2.9611 -0.6681
 5985TIP3   OH239589   4.673   3.111   3.048  0.4760  0.7235  0.2701
 5985TIP3    H139590   4.623   3.096   2.968  0.4973 -0.8800  0.5264
 5985TIP3    H239591   4.763   3.121   3.018  0.4552  0.3257  0.0573
 5986TIP3   OH239592   2.264   0.588   3.024 -0.2666 -0.4981  0.3076
 5986TIP3    H139593   2.197   0.563   3.087  0.1766 -1.7959  0.2958
 5986TIP3    H239594   2.275   0.511   2.968  0.9524 -0.1850  0.0814
 5987TIP3   OH239595   3.189   2.736   2.844  0.1618  0.2531  0.1068
 5987TIP3    H139596   3.265   2.792   2.829 -0.0623  0.7853  0.8659
 5987TIP3    H239597   3.179   2.686   2.763  1.0103  0.5397 -0.1872
 5988TIP3   OH239598   4.160   5.466   3.943 -0.6609  0.0746  0.1694
 5988TIP3    H139599   4.203   5.513   4.015 -0.5670 -2.5105  1.9081
 5988TIP3    H239600   4.111   5.396   3.985  0.4680 -2.4285 -2.3447
 5989TIP3   OH239601   1.720   5.117   1.841  0.1454  0.1711  0.0727
 5989TIP3    H139602   1.661   5.181   1.800  0.0965 -0.1540 -0.3658
 5989TIP3    H239603   1.807   5.142   1.809  0.5218  1.7233  2.0442
 5990TIP3   OH239604   3.111   1.837   0.069  0.1233 -0.4743 -0.1674
 5990TIP3    H139605   3.143   1.820   0.158 -0.3957  1.6500  0.4970
 5990TIP3    H239606   3.038   1.897   0.081 -0.8854 -1.2729 -1.9796
 5991TIP3   OH239607   4.058   5.514   2.717  0.4703 -0.5890  0.6040
 5991TIP3    H139608   4.105   5.518   2.800  0.3403 -1.2619  0.7212
 5991TIP3    H239609   4.125   5.492   2.652  0.3368 -1.4783  0.7598
 5992TIP3   OH239610   2.895   3.293   0.353 -0.1533 -0.3416 -0.2114
 5992TIP3    H139611   2.962   3.304   0.286 -0.2931  0.9232 -0.1518
 5992TIP3    H239612   2.852   3.210   0.331  1.2726 -1.0670 -0.3720
 5993TIP3   OH239613   2.443   0.163   7.896 -0.2611  0.2816 -0.1806
 5993TIP3    H139614   2.419   0.085   7.946 -0.7439  0.9275  0.6355
 5993TIP3    H239615   2.371   0.175   7.834 -0.8154  0.7603  0.5306
 5994TIP3   OH239616   2.648   2.484   3.235  0.7497 -0.2802 -0.4167
 5994TIP3    H139617   2.724   2.470   3.291  0.9611 -0.3804 -0.7219
 5994TIP3    H239618   2.573   2.457   3.288  0.8338  0.6742  0.2185
 5995TIP3   OH239619   5.233   3.286   2.611 -0.5006 -0.0638 -0.0924
 5995TIP3    H139620   5.236   3.369   2.659 -0.6853 -0.5225  0.7245
 5995TIP3    H239621   5.314   3.285   2.561  0.5662 -0.3627  1.5535
 5996TIP3   OH239622   6.341   2.585   3.481  0.2807  0.3503  0.4012
 5996TIP3    H139623   6.357   2.648   3.410  2.5274  1.1601  1.5229
 5996TIP3    H239624   6.267   2.532   3.450  1.1215  0.6975 -2.5206
 5997TIP3   OH239625   6.097   2.305   2.493  0.3004  0.5353 -0.6317
 5997TIP3    H139626   6.052   2.251   2.427  0.7976  0.1321 -0.6416
 5997TIP3    H239627   6.176   2.256   2.514 -0.6074 -0.1519  1.4524
 5998TIP3   OH239628   1.005   4.686   0.621 -0.2546  0.2390 -0.3537
 5998TIP3    H139629   1.058   4.631   0.563 -0.0805  0.1667 -0.1282
 5998TIP3    H239630   0.964   4.624   0.681  0.7316  0.4220  0.5427
 5999TIP3   OH239631   0.558   2.869   2.250 -0.1628  0.9271  0.0999
 5999TIP3    H139632   0.607   2.788   2.235 -0.9148  0.9088 -2.7909
 5999TIP3    H239633   0.475   2.840   2.288 -0.0378  0.4424  0.0120
 6000TIP3   OH239634   0.850   4.405   2.373 -0.1659 -0.0938 -0.4211
 6000TIP3    H139635   0.878   4.496   2.383 -0.6788  0.1233 -0.9080
 6000TIP3    H239636   0.890   4.359   2.447 -0.1874  0.5889  0.0204
 6001TIP3   OH239637   5.309   0.861   1.192 -0.7257 -0.2332 -0.0547
 6001TIP3    H139638   5.296   0.768   1.208  0.1480 -0.2533  0.6437
 6001TIP3    H239639   5.233   0.888   1.141 -0.1153 -1.6907 -1.8031
 6002TIP3   OH239640   3.502   4.101   3.301  0.5078  0.1606  0.2580
 6002TIP3    H139641   3.573   4.107   3.364  2.4758 -2.8308 -1.4418
 6002TIP3    H239642   3.452   4.024   3.327  0.2112 -0.0104 -0.7506
 6003TIP3   OH239643   5.092   3.986   0.694  0.6640  0.0474  0.2278
 6003TIP3    H139644   5.161   3.921   0.693  0.0581 -0.7272  2.4564
 6003TIP3    H239645   5.061   3.987   0.785 -0.3214  2.4146 -0.0557
 6004TIP3   OH239646   4.195   1.712   0.612 -0.1280  0.2990  0.2384
 6004TIP3    H139647   4.248   1.692   0.689  1.0271  0.0873 -0.5995
 6004TIP3    H239648   4.134   1.639   0.606  1.8469 -1.3525 -0.8362
 6005TIP3   OH239649   2.844   1.725   2.413  0.6546  0.2259  0.4063
 6005TIP3    H139650   2.837   1.790   2.482 -1.1329  0.6586 -0.1414
 6005TIP3    H239651   2.813   1.769   2.334  0.3105 -0.9962 -0.1748
 6006TIP3   OH239652   6.244   5.174   3.959 -0.5233  0.0347  0.2620
 6006TIP3    H139653   6.331   5.169   3.999 -0.1865  0.4448 -0.4087
 6006TIP3    H239654   6.248   5.250   3.901 -0.7636 -1.0174 -1.1623
 6007TIP3   OH239655   4.722   4.080   2.878 -0.7349  0.2633 -0.4520
 6007TIP3    H139656   4.694   4.093   2.968 -0.5850  0.0313 -0.3702
 6007TIP3    H239657   4.671   4.005   2.848  0.6615 -0.9564  0.0926
 6008TIP3   OH239658   0.195   0.448   0.012 -0.3584  0.3306 -0.8175
 6008TIP3    H139659   0.283   0.482   0.029 -0.6684  0.8567 -0.2426
 6008TIP3    H239660   0.175   0.394   0.088 -0.6894  0.5317 -0.7604
 6009TIP3   OH239661   0.321   2.349   1.996 -0.1857 -0.2069  0.1562
 6009TIP3    H139662   0.275   2.420   2.041 -2.7667 -1.8287  0.2826
 6009TIP3    H239663   0.411   2.380   1.987 -0.8908  2.4605  1.4511
 6010TIP3   OH239664   2.986   2.742   8.617 -0.2966  0.0697  0.5193
 6010TIP3    H139665   2.936   2.689   8.679 -0.5763 -0.4704 -0.1578
 6010TIP3    H239666   3.071   2.698   8.611 -0.4783 -0.2205  0.0662
 6011TIP3   OH239667   3.222   4.147   3.471  0.3102 -0.5868 -0.1988
 6011TIP3    H139668   3.306   4.141   3.424  0.8998 -0.5418  0.8331
 6011TIP3    H239669   3.239   4.106   3.555 -0.3824  0.4545  0.4679
 6012TIP3   OH239670   4.030   6.221   0.345 -0.3564  0.0376 -0.0879
 6012TIP3    H139671   3.968   6.289   0.318 -2.7815 -0.0156  4.3723
 6012TIP3    H239672   3.979   6.140   0.345 -0.0992 -0.2173  2.5554
 6013TIP3   OH239673   6.624   0.600   0.433 -0.2233  0.0134 -0.1665
 6013TIP3    H139674   6.537   0.580   0.469  0.6097 -0.8141  1.5192
 6013TIP3    H239675   6.607   0.665   0.365 -2.1266  0.1205  0.3371
 6014TIP3   OH239676   3.538   6.178   0.584  0.6988 -0.8971  0.4330
 6014TIP3    H139677   3.606   6.135   0.636  2.9549  0.7209 -0.9920
 6014TIP3    H239678   3.581   6.199   0.501 -1.3413  0.8510 -0.2603
 6015TIP3   OH239679   4.578   0.188   3.593  0.5744 -0.0776  0.5381
 6015TIP3    H139680   4.498   0.157   3.550 -0.3604  1.3906  1.1590
 6015TIP3    H239681   4.566   0.164   3.685  1.7330 -1.5435  0.3403
 6016TIP3   OH239682   0.409   6.565   0.233  0.1323  0.0810 -0.5416
 6016TIP3    H139683   0.408   6.474   0.262 -1.4351  0.0692 -0.5185
 6016TIP3    H239684   0.501   6.590   0.234  0.6602 -1.6934 -1.1645
 6017TIP3   OH239685   1.294   5.763   8.396 -0.1282 -0.2666  0.7036
 6017TIP3    H139686   1.298   5.833   8.461  1.7982 -1.5040  2.0032
 6017TIP3    H239687   1.341   5.798   8.320  0.2036  0.1131  1.0771
 6018TIP3   OH239688   1.614   0.472   2.664 -0.0687 -0.9942 -0.3307
 6018TIP3    H139689   1.519   0.476   2.651  0.1380 -1.2466 -2.1574
 6018TIP3    H239690   1.642   0.563   2.661 -0.1028 -1.0043 -1.2196
 6019TIP3   OH239691   5.499   0.163   3.656  0.0085 -0.0927 -0.1772
 6019TIP3    H139692   5.467   0.248   3.687  1.4915 -0.1900  1.8177
 6019TIP3    H239693   5.426   0.104   3.671 -0.2473  0.4047  0.6227
 6020TIP3   OH239694   1.546   6.684   1.055 -0.3512  0.4867 -0.0914
 6020TIP3    H139695   1.530   6.739   1.132 -2.4078 -0.7015  0.4121
 6020TIP3    H239696   1.625   6.635   1.077 -0.4282  0.7886  0.9072
 6021TIP3   OH239697   4.770   1.644   0.763  0.6005  0.4916  0.3663
 6021TIP3    H139698   4.806   1.591   0.692  1.2893  1.1005  0.2381
 6021TIP3    H239699   4.784   1.592   0.842 -1.9830 -1.0883 -0.1074
 6022TIP3   OH239700   3.359   5.771   2.154 -0.2648 -0.2147 -0.0846
 6022TIP3    H139701   3.316   5.834   2.096  1.1271 -1.4973 -2.6948
 6022TIP3    H239702   3.419   5.824   2.207  1.8509  0.6950 -3.1228
 6023TIP3   OH239703   4.458   5.900   2.231 -0.2946  0.3584 -0.5831
 6023TIP3    H139704   4.468   5.832   2.298  0.7004 -0.3668 -1.4304
 6023TIP3    H239705   4.476   5.982   2.278 -0.4579 -0.0476  0.2172
 6024TIP3   OH239706   2.342   4.250   2.647  0.2649 -0.1266  0.4814
 6024TIP3    H139707   2.248   4.267   2.650  0.6084  2.1951  0.5917
 6024TIP3    H239708   2.380   4.334   2.621  2.2833 -1.1510 -0.1028
 6025TIP3   OH239709   6.293   3.204   4.045  0.0928 -0.4516  0.6030
 6025TIP3    H139710   6.316   3.194   3.953  1.3388  1.2175  0.6856
 6025TIP3    H239711   6.198   3.192   4.048 -0.3292  1.7828 -1.3036
 6026TIP3   OH239712   4.702   4.381   0.709  0.3286 -0.6899  0.1621
 6026TIP3    H139713   4.632   4.446   0.704 -0.7356 -1.5558  2.3753
 6026TIP3    H239714   4.744   4.398   0.794  0.6456 -2.2489  0.3388
 6027TIP3   OH239715   6.738   2.232   4.543  0.5856  0.0564  0.1145
 6027TIP3    H139716   6.677   2.243   4.616  0.9896 -0.2456  0.5057
 6027TIP3    H239717   6.798   2.306   4.551 -0.8671  1.5019 -1.4449
 6028TIP3   OH239718   1.301   1.623   3.149  0.3115  0.0532 -0.2271
 6028TIP3    H139719   1.351   1.704   3.163 -0.2609  0.2289  0.8476
 6028TIP3    H239720   1.366   1.561   3.115  0.8721  0.7930 -0.5469
 6029TIP3   OH239721   0.813   4.713   8.243  0.7333 -0.7549 -0.7139
 6029TIP3    H139722   0.757   4.742   8.170 -0.4743  2.0744  1.1909
 6029TIP3    H239723   0.890   4.768   8.238  0.3204 -0.0252  0.5062
 6030TIP3   OH239724   4.010   6.782   2.198  0.6060 -0.1974 -0.1142
 6030TIP3    H139725   3.998   6.732   2.118 -0.4647  0.1471 -0.1922
 6030TIP3    H239726   4.042   6.867   2.170  0.1410 -0.0450 -0.1951
 6031TIP3   OH239727   4.072   4.709   3.030  0.5174  0.2626  0.3856
 6031TIP3    H139728   4.014   4.655   3.083 -1.6508  2.5622  0.5393
 6031TIP3    H239729   4.054   4.798   3.059  2.3340  1.2638 -1.3582
 6032TIP3   OH239730   1.272   6.096   0.412  0.7413 -0.0969 -0.1828
 6032TIP3    H139731   1.325   6.164   0.371 -1.3917  2.3835  0.8706
 6032TIP3    H239732   1.298   6.099   0.505  0.1958 -0.3124 -0.0214
 6033TIP3   OH239733   6.765   4.834   3.519 -0.0143  0.1832  0.1131
 6033TIP3    H139734   6.725   4.921   3.514  1.5667  0.8568 -2.0690
 6033TIP3    H239735   6.858   4.852   3.535  0.1393 -1.1949  0.8889
 6034TIP3   OH239736   4.578   4.396   8.644 -0.5649  0.4068 -0.0537
 6034TIP3    H139737   4.525   4.342   8.585  1.8858 -1.1261 -0.9903
 6034TIP3    H239738   4.666   4.360   8.637  0.7587  3.1581  1.0322
 6035TIP3   OH239739   2.620   1.204   1.346  0.5213  0.2032 -0.7997
 6035TIP3    H139740   2.616   1.236   1.436 -0.7410 -3.8706  0.8293
 6035TIP3    H239741   2.672   1.270   1.299  2.2685  1.9463  3.1389
 6036TIP3   OH239742   3.312   1.996   3.636  0.6246  0.4689 -0.1799
 6036TIP3    H139743   3.398   1.953   3.636  0.3494 -0.1356  0.8727
 6036TIP3    H239744   3.301   2.029   3.547  0.9441 -1.4738 -0.9795
 6037TIP3   OH239745   0.898   3.064   3.808 -0.3524 -0.6680  0.3621
 6037TIP3    H139746   0.923   2.977   3.840 -1.0501 -0.9235  0.2324
 6037TIP3    H239747   0.829   3.046   3.744  1.6356 -0.2731 -2.0544
 6038TIP3   OH239748   4.869   0.112   1.749 -0.3260 -0.0734 -0.2677
 6038TIP3    H139749   4.949   0.095   1.800 -0.4706  0.9708  0.3443
 6038TIP3    H239750   4.811   0.040   1.772 -0.7021  0.7842  1.7636
 6039TIP3   OH239751   0.391   2.925   1.408 -0.0115 -0.2147  0.5967
 6039TIP3    H139752   0.425   2.906   1.321  1.0696  1.2028  0.6729
 6039TIP3    H239753   0.459   2.892   1.468 -0.8972 -1.4822  0.9351
 6040TIP3   OH239754   4.869   1.973   2.821 -0.7495  0.6433 -0.3146
 6040TIP3    H139755   4.880   2.016   2.736 -3.1280 -0.0035 -1.0271
 6040TIP3    H239756   4.780   1.938   2.819 -0.6585  0.0625  2.2283
 6041TIP3   OH239757   2.465   2.461   3.467 -0.1952  0.4519 -0.3130
 6041TIP3    H139758   2.373   2.471   3.492 -0.1589  1.5424 -0.5451
 6041TIP3    H239759   2.494   2.381   3.511 -1.0617  0.4810  0.3321
 6042TIP3   OH239760   1.845   5.916   1.630 -1.0493  0.3812 -0.6400
 6042TIP3    H139761   1.889   5.832   1.637 -1.7086 -0.1412 -2.1823
 6042TIP3    H239762   1.916   5.980   1.618 -0.5635  0.0108  0.2215
 6043TIP3   OH239763   2.328   0.327   2.095  0.2607  0.2263 -0.0142
 6043TIP3    H139764   2.320   0.422   2.091 -0.9932  0.0912 -1.2473
 6043TIP3    H239765   2.354   0.301   2.006  2.1989 -0.4844  0.6876
 6044TIP3   OH239766   5.779   5.965   2.150 -0.1492  0.0526 -0.3633
 6044TIP3    H139767   5.698   5.998   2.110  0.3204 -1.1988 -2.5073
 6044TIP3    H239768   5.749   5.897   2.210 -0.7584  0.4977 -0.1451
 6045TIP3   OH239769   5.736   5.296   1.722  0.5895 -0.0096 -0.7461
 6045TIP3    H139770   5.810   5.254   1.765 -0.2445  0.9114  1.7505
 6045TIP3    H239771   5.774   5.372   1.676  1.0811  1.4685  1.9240
 6046TIP3   OH239772   0.707   4.242   1.400 -0.3857 -0.0563 -0.0201
 6046TIP3    H139773   0.652   4.166   1.380 -1.8509  0.6209  1.2708
 6046TIP3    H239774   0.745   4.267   1.315 -1.4237 -1.0455 -0.8039
 6047TIP3   OH239775   6.279   2.042   0.845  0.5017 -0.1864  0.1685
 6047TIP3    H139776   6.286   2.027   0.750 -0.4266  1.3278 -0.1783
 6047TIP3    H239777   6.335   2.118   0.861 -1.0024  0.9035  0.4322
 6048TIP3   OH239778   1.209   2.683   1.033  0.5197 -0.3552  0.0475
 6048TIP3    H139779   1.246   2.655   0.949 -0.8554 -0.6941 -0.4781
 6048TIP3    H239780   1.249   2.769   1.049  1.6606 -0.7919 -0.3766
 6049TIP3   OH239781   6.451   3.997   2.895  0.8770 -0.1284  1.0805
 6049TIP3    H139782   6.473   4.086   2.868  0.4052 -0.0883  0.8144
 6049TIP3    H239783   6.533   3.948   2.887  0.3205 -0.7442 -2.9238
 6050TIP3   OH239784   5.867   1.157   2.467 -0.2825 -0.5135  0.2996
 6050TIP3    H139785   5.851   1.063   2.469 -0.7394 -0.4590 -0.6529
 6050TIP3    H239786   5.878   1.178   2.375 -1.6265  0.5988  0.3738
 6051TIP3   OH239787   6.627   1.683   1.494 -0.1265  0.3182 -0.0245
 6051TIP3    H139788   6.612   1.645   1.581  0.9409 -1.9781 -0.7609
 6051TIP3    H239789   6.540   1.710   1.465 -0.4971  1.1784  1.7491
 6052TIP3   OH239790   4.840   0.360   2.892 -0.3828 -0.1561 -0.6461
 6052TIP3    H139791   4.920   0.400   2.927 -0.8459 -1.7102  2.5388
 6052TIP3    H239792   4.866   0.270   2.869 -1.3845 -1.1270  1.7096
 6053TIP3   OH239793   1.146   4.635   2.055  0.1294  0.4075  0.0190
 6053TIP3    H139794   1.227   4.683   2.041  0.0372 -0.1811 -3.2550
 6053TIP3    H239795   1.085   4.700   2.089  0.7599  1.9920 -1.7464
 6054TIP3   OH239796   1.543   4.332   0.438 -0.1008  0.0002 -0.1045
 6054TIP3    H139797   1.591   4.369   0.511  0.8832  0.8879 -1.1516
 6054TIP3    H239798   1.606   4.276   0.393  0.0668  1.3087 -1.5887
 6055TIP3   OH239799   3.622   0.140   0.793  0.3635  0.7203 -0.0569
 6055TIP3    H139800   3.697   0.191   0.823 -0.1945  1.2714  0.4372
 6055TIP3    H239801   3.602   0.176   0.707  1.4233 -0.2706 -0.7441
 6056TIP3   OH239802   4.269   2.604   4.078 -0.1284 -0.3750  0.1346
 6056TIP3    H139803   4.238   2.651   4.000 -0.8034  0.7067  1.0335
 6056TIP3    H239804   4.353   2.568   4.052  0.9955  2.3045 -0.2560
 6057TIP3   OH239805   4.437   1.920   2.715  0.4173  0.4738  0.7917
 6057TIP3    H139806   4.438   1.825   2.722 -0.3876  0.2890 -1.1460
 6057TIP3    H239807   4.465   1.938   2.625 -1.6779  1.9488  0.3675
 6058TIP3   OH239808   0.906   1.873   3.181  0.0997  0.1089  0.2001
 6058TIP3    H139809   0.848   1.884   3.256 -0.0592  2.2815 -0.1959
 6058TIP3    H239810   0.848   1.862   3.106  0.2467 -0.4782  0.1647
 6059TIP3   OH239811   2.133   6.782   3.587 -0.7634 -0.1682  0.2208
 6059TIP3    H139812   2.126   6.715   3.519  1.0046 -0.2073  0.0340
 6059TIP3    H239813   2.198   6.843   3.553 -1.5323  1.0414  0.8935
 6060TIP3   OH239814   5.282   5.468   1.459 -0.2612  0.1576 -0.6836
 6060TIP3    H139815   5.197   5.505   1.437  0.1854  2.3856  1.0360
 6060TIP3    H239816   5.344   5.539   1.446  0.7765 -0.2021  1.7966
 6061TIP3   OH239817   5.802   2.876   0.293  0.3027 -0.0312 -0.3861
 6061TIP3    H139818   5.801   2.865   0.198  0.1075 -0.1500 -0.3705
 6061TIP3    H239819   5.856   2.954   0.307  1.0951 -0.5322 -0.5397
 6062TIP3   OH239820   4.378   3.887   1.814 -0.0774 -0.4902  0.0756
 6062TIP3    H139821   4.402   3.836   1.737  2.6916  0.4951  0.1839
 6062TIP3    H239822   4.398   3.829   1.888 -1.8968 -1.1034  0.1399
 6063TIP3   OH239823   0.230   2.045   1.150  0.4626  0.6508 -0.0582
 6063TIP3    H139824   0.150   2.070   1.103 -0.7785  0.5185  1.8903
 6063TIP3    H239825   0.202   1.978   1.212  2.0840  0.6647  0.7382
 6064TIP3   OH239826   6.405   6.208   2.764  0.2973 -0.2631  0.0396
 6064TIP3    H139827   6.385   6.284   2.709  1.1993 -0.6445 -0.8551
 6064TIP3    H239828   6.414   6.243   2.852  0.2740  0.6035 -0.2937
 6065TIP3   OH239829   0.486   0.000   1.181 -0.5123  0.0199 -0.1232
 6065TIP3    H139830   0.491   0.010   1.086  0.2487  1.1850  0.0211
 6065TIP3    H239831   0.572  -0.033   1.206 -0.3360  0.7561  0.2660
 6066TIP3   OH239832   0.788   1.772   3.730 -0.2716  0.1290  0.1078
 6066TIP3    H139833   0.787   1.685   3.690 -2.0127 -0.3416  1.0486
 6066TIP3    H239834   0.699   1.782   3.765  0.5046  1.4611  1.7818
 6067TIP3   OH239835   1.785   0.267   2.212 -0.2280 -0.3493 -0.3154
 6067TIP3    H139836   1.764   0.176   2.193  0.9763 -0.6927 -0.0775
 6067TIP3    H239837   1.788   0.310   2.126  1.2862 -1.0225 -0.6328
 6068TIP3   OH239838   5.484   2.921   1.114 -0.2795 -0.3189 -0.2616
 6068TIP3    H139839   5.532   2.989   1.068  0.3198 -0.7134 -0.2298
 6068TIP3    H239840   5.409   2.966   1.153 -1.8310 -0.2399 -3.0687
 6069TIP3   OH239841   4.992   1.841   3.756  0.1488 -0.5706 -0.1461
 6069TIP3    H139842   4.987   1.936   3.758  2.5668 -0.3838 -0.2283
 6069TIP3    H239843   4.974   1.818   3.665  1.7319  0.0462 -0.6627
 6070TIP3   OH239844   6.704   0.746   0.819 -0.2323  0.6328 -0.0657
 6070TIP3    H139845   6.745   0.758   0.905 -1.5554  1.5663  0.4710
 6070TIP3    H239846   6.769   0.780   0.757  0.2599  1.0593  0.6602
 6071TIP3   OH239847   2.551   1.154   2.883  0.8313 -0.3152  0.2495
 6071TIP3    H139848   2.479   1.207   2.917  1.1912  0.9402 -0.8835
 6071TIP3    H239849   2.507   1.085   2.832  0.4113 -0.0472  0.2475
 6072TIP3   OH239850   0.595   1.629   3.161 -0.6452  0.4629 -0.5190
 6072TIP3    H139851   0.583   1.702   3.099  0.0769  0.9058 -0.1557
 6072TIP3    H239852   0.618   1.554   3.106  2.5622  1.4312 -0.6884
 6073TIP3   OH239853   0.319   0.003   1.432  0.9831 -0.1237  0.7101
 6073TIP3    H139854   0.308   0.076   1.372 -0.0472 -0.5002  0.4263
 6073TIP3    H239855   0.410  -0.024   1.421  0.8145 -0.1771 -0.6716
 6074TIP3   OH239856   3.199   6.706   1.687 -0.1131 -0.1290 -1.0031
 6074TIP3    H139857   3.194   6.773   1.620  2.1086  1.3831  0.2250
 6074TIP3    H239858   3.287   6.714   1.724 -1.1062 -1.0759  1.8817
 6075TIP3   OH239859   1.580   1.745   0.937  0.4842  0.2682 -0.0251
 6075TIP3    H139860   1.618   1.751   1.025  1.6894  4.1053 -0.6066
 6075TIP3    H239861   1.505   1.805   0.940 -1.7118 -2.2231 -0.7657
 6076TIP3   OH239862   6.777   6.702   1.901  0.0450  0.0646  0.4085
 6076TIP3    H139863   6.709   6.768   1.909  0.2544  0.2243  0.8660
 6076TIP3    H239864   6.735   6.631   1.852  0.2184  1.0687 -1.2896
 6077TIP3   OH239865   5.795   6.602   8.090 -0.0920 -0.5000  0.0086
 6077TIP3    H139866   5.781   6.689   8.053  0.7163  0.1541  1.1497
 6077TIP3    H239867   5.836   6.552   8.020 -1.9597 -0.4471 -1.1654
 6078TIP3   OH239868   2.343   2.164   3.466 -0.4684 -0.3092  0.2895
 6078TIP3    H139869   2.309   2.229   3.526  2.0133  1.3312  0.0847
 6078TIP3    H239870   2.426   2.136   3.505  0.3610 -0.4821 -1.4830
 6079TIP3   OH239871   4.468   0.630   1.093 -0.5848 -0.2541  0.1643
 6079TIP3    H139872   4.406   0.623   1.166  1.2134 -0.4891  1.7419
 6079TIP3    H239873   4.525   0.554   1.102  0.0791  0.0612 -1.1184
 6080TIP3   OH239874   1.090   5.361   2.008  0.3567  0.6316 -0.4970
 6080TIP3    H139875   1.122   5.315   1.931 -0.8009 -0.5944 -0.2700
 6080TIP3    H239876   1.011   5.315   2.033  1.0684  0.5587  1.8575
 6081TIP3   OH239877   5.492   2.212   0.803 -0.1986 -0.4644 -0.0111
 6081TIP3    H139878   5.446   2.143   0.850  0.9919 -0.5447  1.0734
 6081TIP3    H239879   5.553   2.249   0.867 -2.0119  2.8455  0.0860
 6082TIP3   OH239880   0.559   5.552   0.337  0.1893  0.1113  0.0635
 6082TIP3    H139881   0.568   5.573   0.429 -0.4668  0.3266  0.0854
 6082TIP3    H239882   0.639   5.586   0.296  0.2115  0.5437  0.4595
 6083TIP3   OH239883   6.223   4.133   1.971 -0.1447 -0.1473 -0.5961
 6083TIP3    H139884   6.224   4.062   2.035 -0.3857 -0.3053 -0.7643
 6083TIP3    H239885   6.183   4.207   2.017  0.0729 -0.1329 -0.4321
 6084TIP3   OH239886   5.105   4.482   1.288  0.1114 -0.2594 -0.8223
 6084TIP3    H139887   5.184   4.508   1.336  0.7869 -1.1003 -1.4498
 6084TIP3    H239888   5.048   4.443   1.354  0.8981 -1.1113 -0.6205
 6085TIP3   OH239889   3.864   4.262   2.116  0.2900  0.3497  0.2314
 6085TIP3    H139890   3.853   4.355   2.137  0.1636  0.2640  0.5572
 6085TIP3    H239891   3.775   4.231   2.099 -0.0772 -0.3541  2.8885
 6086TIP3   OH239892   5.069   4.122   2.311 -0.4274  0.6715 -0.3617
 6086TIP3    H139893   5.154   4.153   2.279  0.0817 -0.3092  0.0001
 6086TIP3    H239894   5.005   4.181   2.271  0.3620  0.8775 -1.3578
 6087TIP3   OH239895   6.076   1.686   2.913 -1.0657 -0.1900 -0.6785
 6087TIP3    H139896   6.061   1.729   2.997  0.1235  0.8771 -0.9754
 6087TIP3    H239897   6.108   1.598   2.937 -0.6317  0.1381  0.0006
 6088TIP3   OH239898   3.252   0.855   3.278  0.1161  0.9545 -0.2861
 6088TIP3    H139899   3.162   0.839   3.251  0.8014 -1.1997 -1.5239
 6088TIP3    H239900   3.284   0.922   3.218 -0.4333  1.2055 -0.3032
 6089TIP3   OH239901   4.580   4.415   2.699 -0.0383 -0.5021 -0.6378
 6089TIP3    H139902   4.493   4.383   2.720 -0.4662 -1.4369 -3.3826
 6089TIP3    H239903   4.577   4.508   2.718 -1.4307 -0.6419 -0.0816
 6090TIP3   OH239904   5.902   4.021   3.147 -0.3774  0.0763  0.6149
 6090TIP3    H139905   5.808   4.010   3.138 -0.8033  2.4351  1.4548
 6090TIP3    H239906   5.940   3.962   3.081 -2.4077 -0.9561  0.3092
 6091TIP3   OH239907   6.199   2.166   3.662  0.0418  0.1561  0.1396
 6091TIP3    H139908   6.145   2.116   3.601  0.9063  0.8972 -1.3057
 6091TIP3    H239909   6.197   2.116   3.743 -4.0889  0.9591  0.7392
 6092TIP3   OH239910   5.228   1.617   0.119 -0.0856 -0.0957  0.0897
 6092TIP3    H139911   5.321   1.628   0.138  0.1434 -1.0896 -0.4126
 6092TIP3    H239912   5.187   1.696   0.155  0.9396  0.3366  0.3452
 6093TIP3   OH239913   3.444   6.536   0.307 -0.5382  0.3505 -0.5193
 6093TIP3    H139914   3.522   6.590   0.297 -0.2170 -0.4289 -3.0107
 6093TIP3    H239915   3.425   6.504   0.219 -2.1078 -1.6608  0.4420
 6094TIP3   OH239916   6.149   2.721   2.889  0.1868  0.1697 -0.0471
 6094TIP3    H139917   6.116   2.648   2.942  0.9869  0.9241  1.5611
 6094TIP3    H239918   6.240   2.697   2.870  0.0934  0.2033 -0.5507
 6095TIP3   OH239919   2.037   4.156   7.811 -0.1854 -0.2439 -0.5114
 6095TIP3    H139920   2.062   4.073   7.769 -1.3215 -0.3799 -0.9568
 6095TIP3    H239921   2.083   4.155   7.895 -0.6415 -1.6381 -0.2398
 6096TIP3   OH239922   3.147   0.249   4.036  0.0941 -0.2893 -0.4359
 6096TIP3    H139923   3.072   0.300   4.066  1.0007  1.2235 -0.6267
 6096TIP3    H239924   3.220   0.281   4.089  1.7635  2.4474 -3.9555
 6097TIP3   OH239925   2.438   4.758   2.267  0.0161  0.2722  0.6300
 6097TIP3    H139926   2.444   4.848   2.298 -0.4548  0.7183 -0.5095
 6097TIP3    H239927   2.504   4.711   2.317  0.5105  1.3239  0.9985
 6098TIP3   OH239928   5.276   0.736   0.724  0.7969  0.2144 -0.1441
 6098TIP3    H139929   5.276   0.640   0.730  0.6557  0.2692  1.1446
 6098TIP3    H239930   5.194   0.757   0.679  0.5095 -0.2602  0.1431
 6099TIP3   OH239931   0.335   1.372   2.693 -0.1840  0.0328  0.2025
 6099TIP3    H139932   0.276   1.403   2.624 -0.6581 -0.6952  0.2680
 6099TIP3    H239933   0.285   1.303   2.737  0.5397 -0.2586  0.5716
 6100TIP3   OH239934   0.867   5.192   0.071 -0.0862  0.7346  0.4237
 6100TIP3    H139935   0.859   5.136   0.148 -0.1440  0.3630  0.1452
 6100TIP3    H239936   0.809   5.266   0.090 -0.4541  0.4209  0.5389
 6101TIP3   OH239937   3.091   3.936   8.666 -0.3775  0.4503 -0.0626
 6101TIP3    H139938   3.104   3.928   8.572  2.1463 -0.9256  0.3100
 6101TIP3    H239939   3.072   3.846   8.695  0.4820  0.5553  0.8938
 6102TIP3   OH239940   5.107   4.310   8.421 -0.1764  0.0481  0.5178
 6102TIP3    H139941   5.027   4.298   8.471 -1.2306  3.0749 -0.2395
 6102TIP3    H239942   5.082   4.295   8.330  0.0756  0.9997  0.2752
 6103TIP3   OH239943   3.720   6.758   2.178 -0.0979 -0.3214 -0.1926
 6103TIP3    H139944   3.800   6.809   2.189 -0.4110  0.5874 -1.8623
 6103TIP3    H239945   3.742   6.671   2.214  0.7351  0.6664  1.8569
 6104TIP3   OH239946   5.690   5.010   1.929  0.5895  0.1186 -0.1538
 6104TIP3    H139947   5.739   5.060   1.994  1.4335 -0.6571 -0.1842
 6104TIP3    H239948   5.698   4.919   1.956  1.1107 -0.2436 -1.4158
 6105TIP3   OH239949   5.346   1.518   2.568 -0.0600  0.0228  0.1696
 6105TIP3    H139950   5.427   1.569   2.577  0.0692 -0.4413  1.9502
 6105TIP3    H239951   5.369   1.448   2.507  0.9597 -0.2293  0.8175
 6106TIP3   OH239952   5.528   5.355   1.346 -0.2317 -0.1152  0.0446
 6106TIP3    H139953   5.435   5.345   1.363 -0.3113 -1.1257 -0.9004
 6106TIP3    H239954   5.538   5.340   1.252  0.8698  0.0888  0.1064
 6107TIP3   OH239955   0.312   4.471   3.344 -0.1939 -0.5585 -0.7702
 6107TIP3    H139956   0.374   4.515   3.286  0.7213 -1.4745 -0.5273
 6107TIP3    H239957   0.330   4.508   3.431  0.4695 -1.2611 -0.5927
 6108TIP3   OH239958   0.654   1.865   3.017  0.1714 -0.7249 -0.3143
 6108TIP3    H139959   0.638   1.912   3.098 -0.4353 -0.5897 -0.5082
 6108TIP3    H239960   0.595   1.906   2.953  0.6276 -0.8387 -0.8185
 6109TIP3   OH239961   2.872   3.595   1.682 -0.5631 -0.3849 -0.1893
 6109TIP3    H139962   2.884   3.503   1.659  2.5896 -0.2261  0.3959
 6109TIP3    H239963   2.815   3.593   1.760 -2.7419 -1.5613 -1.6992
 6110TIP3   OH239964   1.528   5.256   2.370 -0.1626 -0.4674 -0.2823
 6110TIP3    H139965   1.457   5.234   2.430  1.3516 -2.6889  0.8784
 6110TIP3    H239966   1.607   5.244   2.423  1.1187  0.8271 -1.8277
 6111TIP3   OH239967   6.409   6.480   0.486 -0.4877  0.5151 -0.0004
 6111TIP3    H139968   6.342   6.418   0.457 -0.1200 -0.1640  0.5747
 6111TIP3    H239969   6.386   6.499   0.577 -0.8271  1.5391 -0.2896
 6112TIP3   OH239970   5.464   2.010   8.347  0.2360  0.0905 -0.3615
 6112TIP3    H139971   5.517   1.943   8.303  1.3645  0.2495  0.7134
 6112TIP3    H239972   5.514   2.033   8.425 -1.1026  0.7525  0.3329
 6113TIP3   OH239973   3.400   1.040   1.675  0.0605  0.3846  0.4604
 6113TIP3    H139974   3.330   1.093   1.713 -1.4149 -1.0355 -0.1654
 6113TIP3    H239975   3.421   1.083   1.592  0.5008  1.2487  1.0030
 6114TIP3   OH239976   1.054   0.007   2.717  0.8356  0.6485 -0.6709
 6114TIP3    H139977   1.084  -0.041   2.794  0.1237 -0.0330 -0.8037
 6114TIP3    H239978   1.021  -0.061   2.658  1.6451  1.1413 -1.7066
 6115TIP3   OH239979   3.310   1.235   1.078 -0.4604  0.2721 -0.1050
 6115TIP3    H139980   3.246   1.195   1.136  1.3004 -1.0139  1.0368
 6115TIP3    H239981   3.367   1.286   1.135 -0.2421  1.1702 -1.0692
 6116TIP3   OH239982   1.160   4.499   8.779 -0.1851  0.5240  0.5122
 6116TIP3    H139983   1.094   4.442   8.818 -2.3464  2.8773  0.5513
 6116TIP3    H239984   1.122   4.527   8.696  2.1090 -0.3500 -0.9103
 6117TIP3   OH239985   0.817   4.354   1.823 -0.1815 -0.0186  0.3929
 6117TIP3    H139986   0.879   4.376   1.754 -0.6793  2.1479  0.5723
 6117TIP3    H239987   0.869   4.352   1.903  0.2465 -1.7404  0.1206
 6118TIP3   OH239988   1.544   6.232   3.406  0.0500 -1.0049  0.4790
 6118TIP3    H139989   1.472   6.205   3.349  0.6520 -1.3085 -0.1454
 6118TIP3    H239990   1.607   6.160   3.402  1.2583  0.0458 -0.4796
 6119TIP3   OH239991   2.333   1.196   1.546  0.0146  0.0289 -0.0949
 6119TIP3    H139992   2.322   1.278   1.498  0.7486  0.6028  0.6947
 6119TIP3    H239993   2.422   1.200   1.581 -0.6895 -0.1157  1.8121
 6120TIP3   OH239994   1.811   3.500   2.971 -0.0211  0.1981 -0.2284
 6120TIP3    H139995   1.821   3.431   2.905  1.7451 -0.5896  0.7661
 6120TIP3    H239996   1.772   3.455   3.046 -1.5023  0.9614 -0.5121
 6121TIP3   OH239997   0.789   0.896   8.212 -0.2027 -0.5874 -0.1052
 6121TIP3    H139998   0.740   0.876   8.292  0.0325 -1.2063 -0.1190
 6121TIP3    H239999   0.813   0.988   8.222  0.1591 -0.7649  0.7107
 6122TIP3   OH240000   0.017   3.443   2.791 -0.6412  0.5572 -0.1516
 6122TIP3    H140001   0.107   3.472   2.776 -0.7625  0.5986 -0.8041
 6122TIP3    H240002   0.024   3.374   2.857 -0.1228  0.4992 -0.2703
 6123TIP3   OH240003   2.312   3.773   1.579 -0.0647  0.0402  0.5015
 6123TIP3    H140004   2.229   3.779   1.532 -0.8927  3.4445  2.0676
 6123TIP3    H240005   2.337   3.681   1.572 -3.0056 -0.7493 -1.5976
 6124TIP3   OH240006   0.065   0.130   0.538 -0.3491  0.0018 -0.2680
 6124TIP3    H140007   0.130   0.162   0.600 -0.1531 -2.1314  0.7248
 6124TIP3    H240008   0.002   0.202   0.531  1.4975  1.6884 -0.4161
 6125TIP3   OH240009   6.755   4.708   3.168 -0.2126  0.0003 -0.1543
 6125TIP3    H140010   6.836   4.657   3.167  0.0991  0.4860 -0.8222
 6125TIP3    H240011   6.728   4.711   3.076 -0.4206  0.7222 -0.0730
 6126TIP3   OH240012   0.378   0.087   3.250  0.2833  0.0888 -0.1373
 6126TIP3    H140013   0.372   0.149   3.322 -0.5531 -0.3135  0.1559
 6126TIP3    H240014   0.301   0.030   3.261 -0.5808  0.7915 -2.0338
 6127TIP3   OH240015   1.798   1.916   3.461 -0.2172 -0.1759 -0.6114
 6127TIP3    H140016   1.814   1.832   3.505 -0.5959  1.1648  2.2723
 6127TIP3    H240017   1.703   1.924   3.458 -0.2272  1.1248  1.3150
 6128TIP3   OH240018   1.263   1.294   0.023  0.1542  0.2091 -0.4203
 6128TIP3    H140019   1.202   1.353  -0.020 -1.4134 -1.9756 -1.3917
 6128TIP3    H240020   1.301   1.243  -0.049  3.9546  2.1005  0.0377
 6129TIP3   OH240021   0.518   3.166   2.430 -0.0406 -0.0269 -0.0873
 6129TIP3    H140022   0.440   3.181   2.377 -1.4245 -0.4607  1.6901
 6129TIP3    H240023   0.495   3.090   2.484  1.7741 -0.3937  0.2222
 6130TIP3   OH240024   6.525   2.925   3.690  0.3253  0.2380 -0.4809
 6130TIP3    H140025   6.504   2.835   3.713  0.1348  0.4498  0.1997
 6130TIP3    H240026   6.453   2.977   3.726 -0.0419  0.5822 -1.6677
 6131TIP3   OH240027   3.651   2.109   3.386 -0.4480 -0.1477 -0.2218
 6131TIP3    H140028   3.625   2.058   3.463  0.8808 -0.3799  0.0822
 6131TIP3    H240029   3.685   2.191   3.421  0.7444 -0.5027 -0.5170
 6132TIP3   OH240030   0.764   5.010   0.346  0.2377 -0.3177  0.3664
 6132TIP3    H140031   0.839   4.972   0.300 -1.3298 -1.9974 -0.9571
 6132TIP3    H240032   0.788   5.006   0.438  1.0811 -2.5284  0.1151
 6133TIP3   OH240033   4.509   6.585   0.122  0.1221 -0.0760 -0.4462
 6133TIP3    H140034   4.526   6.510   0.178  1.7398  0.9118  0.4570
 6133TIP3    H240035   4.583   6.586   0.060 -0.2469  0.3679 -0.8869
 6134TIP3   OH240036   6.071   5.164   1.559  0.6880  0.3056  0.5189
 6134TIP3    H140037   6.136   5.234   1.556  0.3524  0.7151  2.0330
 6134TIP3    H240038   6.040   5.164   1.650 -0.6731 -0.5694  0.0800
 6135TIP3   OH240039   2.230   1.149   2.464 -0.0825  0.0388 -0.1407
 6135TIP3    H140040   2.243   1.231   2.512 -0.5896  0.0319  0.0031
 6135TIP3    H240041   2.309   1.141   2.410  1.0927 -0.5839  1.5773
 6136TIP3   OH240042   3.635   1.226   0.607 -0.3398  0.5192 -0.1706
 6136TIP3    H140043   3.702   1.290   0.628 -0.1755  0.1657  0.3999
 6136TIP3    H240044   3.573   1.231   0.679  0.8906 -1.6043  1.1407
 6137TIP3   OH240045   6.049   6.816   3.738  0.3313 -0.7299  0.1881
 6137TIP3    H140046   5.959   6.813   3.706  0.7887 -1.1179 -1.1030
 6137TIP3    H240047   6.046   6.770   3.822 -0.4889 -1.5810 -0.2917
 6138TIP3   OH240048   5.449   3.115   3.543  0.1908 -0.1223  0.3761
 6138TIP3    H140049   5.441   3.026   3.576  0.2102  0.0789  0.9303
 6138TIP3    H240050   5.401   3.169   3.606  0.4752  0.3038  0.2374
 6139TIP3   OH240051   2.849   6.573   1.149 -0.2544  0.0590 -0.1098
 6139TIP3    H140052   2.793   6.637   1.105  0.7912 -0.0152 -1.6213
 6139TIP3    H240053   2.840   6.493   1.097  0.4888 -0.2415  0.2072
 6140TIP3   OH240054   5.953   0.095   3.322  0.4311  0.3666 -0.0100
 6140TIP3    H140055   5.862   0.068   3.329  0.5525 -0.3488 -1.0102
 6140TIP3    H240056   5.949   0.190   3.312 -0.1948  0.3411 -0.0376
 6141TIP3   OH240057   4.130   3.870   0.947 -0.3950 -0.3350 -0.4392
 6141TIP3    H140058   4.139   3.958   0.911 -0.5551 -0.4005 -0.6405
 6141TIP3    H240059   4.155   3.812   0.875 -1.0679 -0.4787 -0.5652
 6142TIP3   OH240060   0.984   4.769   2.217  0.3693  0.1268 -0.5932
 6142TIP3    H140061   0.910   4.828   2.202 -0.9430 -1.8690 -2.5548
 6142TIP3    H240062   0.998   4.772   2.312 -1.9634  0.8948 -0.2005
 6143TIP3   OH240063   1.035   1.627   3.215  0.3867 -0.1976 -0.4869
 6143TIP3    H140064   1.002   1.715   3.195 -0.7696 -0.5231 -0.0998
 6143TIP3    H240065   1.129   1.631   3.195  0.2459  0.9641 -0.9809
 6144TIP3   OH240066   2.888   2.476   1.852  0.2395 -0.4921 -0.4390
 6144TIP3    H140067   2.956   2.495   1.916  0.7604 -0.0749 -1.0966
 6144TIP3    H240068   2.911   2.530   1.776  0.2305 -1.7528 -1.3682
 6145TIP3   OH240069   6.025   1.720   0.486  0.0284 -0.0754 -0.4475
 6145TIP3    H140070   5.970   1.724   0.408 -0.4350 -0.8447 -0.1805
 6145TIP3    H240071   5.970   1.755   0.556  0.0506 -0.3773 -0.2742
 6146TIP3   OH240072   3.675   0.329   1.221  0.0681 -0.1022  0.1145
 6146TIP3    H140073   3.631   0.375   1.149  1.9082  0.7646 -0.5315
 6146TIP3    H240074   3.666   0.388   1.296 -0.3658 -0.1923  0.1319
 6147TIP3   OH240075   6.682   1.809   2.765  0.6632  0.2563 -0.1535
 6147TIP3    H140076   6.720   1.734   2.718  2.9049  1.9018 -1.1301
 6147TIP3    H240077   6.590   1.810   2.737  1.0316 -1.0305 -1.5941
 6148TIP3   OH240078   0.604   1.102   4.153 -0.0877  0.0825  0.1148
 6148TIP3    H140079   0.589   1.139   4.240  0.0298 -1.2858  0.7523
 6148TIP3    H240080   0.633   1.176   4.100 -0.4922  1.0107  1.1491
 6149TIP3   OH240081   4.525   2.474   0.369 -0.1929  0.4841 -0.4347
 6149TIP3    H140082   4.503   2.567   0.379 -0.2118  0.3677  0.6839
 6149TIP3    H240083   4.621   2.472   0.370 -0.1897  0.4072  0.5653
 6150TIP3   OH240084   2.782   2.038   0.513 -0.1936  0.1769  0.5333
 6150TIP3    H140085   2.822   2.117   0.548 -0.5973  1.0927 -0.9873
 6150TIP3    H240086   2.705   2.068   0.465  0.4720 -0.9270 -1.3736
 6151TIP3   OH240087   2.371   0.721   3.301 -0.3302 -0.0224 -0.1492
 6151TIP3    H140088   2.453   0.673   3.314 -1.1728 -0.7986  3.0314
 6151TIP3    H240089   2.302   0.656   3.315 -1.6451  0.5042 -3.1519
 6152TIP3   OH240090   6.238   4.436   1.833 -0.4279  0.6336  0.2384
 6152TIP3    H140091   6.285   4.376   1.891 -0.0016  1.4680  0.7664
 6152TIP3    H240092   6.253   4.522   1.870  0.5814  1.2907 -1.5907
 6153TIP3   OH240093   4.263   3.395   1.166  0.1296  0.3454  0.4268
 6153TIP3    H140094   4.256   3.479   1.211  0.4937  0.6774 -0.1198
 6153TIP3    H240095   4.199   3.339   1.209 -1.6097  1.5021 -0.5279
 6154TIP3   OH240096   5.579   5.827   0.899  0.0757  1.4088  0.0476
 6154TIP3    H140097   5.521   5.753   0.916  1.1921 -0.1822 -2.4862
 6154TIP3    H240098   5.526   5.887   0.846 -0.4022  1.8048  0.9522
 6155TIP3   OH240099   3.899   6.229   1.333 -0.6394  0.5336 -0.2032
 6155TIP3    H140100   3.817   6.217   1.284 -0.6489  1.5802 -0.4654
 6155TIP3    H240101   3.967   6.203   1.271 -0.6384  2.0528 -0.8838
 6156TIP3   OH240102   4.015   5.478   2.059 -0.2292 -0.2017 -0.3023
 6156TIP3    H140103   3.971   5.559   2.085  1.0417  0.8180 -1.2071
 6156TIP3    H240104   4.001   5.473   1.965  0.4269 -0.5759 -0.3868
 6157TIP3   OH240105   6.499   5.094   0.221  0.3644 -0.5466  0.8186
 6157TIP3    H140106   6.535   5.180   0.244 -1.8384  1.3428 -2.1192
 6157TIP3    H240107   6.410   5.095   0.256 -0.0832 -1.1380 -0.2745
 6158TIP3   OH240108   4.624   1.600   2.336  0.0115  0.3592 -0.5348
 6158TIP3    H140109   4.668   1.529   2.383 -0.8341 -1.0247 -1.7152
 6158TIP3    H240110   4.690   1.668   2.326  2.0374 -1.7181 -2.4155
 6159TIP3   OH240111   1.192   3.412   0.544 -0.1121  0.3943  0.4749
 6159TIP3    H140112   1.211   3.324   0.512  0.4398 -0.0161  1.8764
 6159TIP3    H240113   1.162   3.399   0.634  0.5209  1.6643  0.8935
 6160TIP3   OH240114   0.948   3.350   3.781  0.1214 -0.1116 -0.2824
 6160TIP3    H140115   0.935   3.287   3.852 -1.7532 -0.1388 -0.6028
 6160TIP3    H240116   0.872   3.338   3.723  0.7389  1.0712 -1.4044
 6161TIP3   OH240117   2.066   0.629   2.283 -0.2016  0.3608  0.9729
 6161TIP3    H140118   2.005   0.555   2.294  1.3001 -1.2144 -0.5642
 6161TIP3    H240119   2.151   0.592   2.305  0.9555  0.8251 -2.1687
 6162TIP3   OH240120   5.086   2.182   1.648 -0.6919 -0.1387  0.1586
 6162TIP3    H140121   5.009   2.165   1.594 -0.8037 -1.2072  0.6367
 6162TIP3    H240122   5.117   2.095   1.674 -0.4180  0.3342  1.4924
 6163TIP3   OH240123   0.872   0.107   0.600  0.5120 -0.5458  0.0446
 6163TIP3    H140124   0.908   0.150   0.677  0.7131  1.4423 -1.0811
 6163TIP3    H240125   0.934   0.037   0.580  0.5543 -0.9636  1.5462
 6164TIP3   OH240126   1.085   3.628   0.363 -0.0562  0.5809 -0.4616
 6164TIP3    H140127   1.162   3.661   0.409  1.2269  0.3399 -2.3495
 6164TIP3    H240128   1.092   3.533   0.368 -1.2658  0.5239  0.9457
 6165TIP3   OH240129   6.830   1.528   3.422  0.0899 -0.6008 -0.3622
 6165TIP3    H140130   6.918   1.549   3.453 -0.3127 -1.7176  1.7196
 6165TIP3    H240131   6.811   1.594   3.356  1.7382  0.8219  0.5152
 6166TIP3   OH240132   0.964   1.065   8.093  0.0046  0.5547  0.0198
 6166TIP3    H140133   1.036   1.113   8.134 -0.3200  0.1100  1.1496
 6166TIP3    H240134   1.004   1.023   8.017  0.6972  1.1569  0.0384
 6167TIP3   OH240135   4.839   1.169   0.613 -0.6626 -1.0212  0.2730
 6167TIP3    H140136   4.762   1.133   0.569 -1.2310 -0.1375  0.5085
 6167TIP3    H240137   4.808   1.193   0.700 -0.4779  0.5246 -0.0538
 6168TIP3   OH240138   2.966   3.393   2.521  1.0805 -0.0069  0.3403
 6168TIP3    H140139   3.053   3.430   2.511  0.9594 -0.2104 -2.1377
 6168TIP3    H240140   2.910   3.445   2.464  0.0074 -1.1691  0.2662
 6169TIP3   OH240141   6.261   3.000   2.367 -0.6699  0.3364 -0.1037
 6169TIP3    H140142   6.329   3.065   2.387 -0.5384  0.2173 -0.1638
 6169TIP3    H240143   6.182   3.035   2.409 -0.2658 -0.2245  1.1641
 6170TIP3   OH240144   2.288   1.705   2.114  1.1088  0.3284 -0.0959
 6170TIP3    H140145   2.207   1.678   2.070  0.3938  0.7744  0.8937
 6170TIP3    H240146   2.330   1.623   2.141  1.2728  0.0748 -1.0986
 6171TIP3   OH240147   1.383   5.895   0.782  0.2983  0.5760 -0.0059
 6171TIP3    H140148   1.424   5.938   0.856  0.6939 -0.8017  0.6068
 6171TIP3    H240149   1.394   5.801   0.799 -0.4220  0.2172 -1.3408
 6172TIP3   OH240150   0.653   4.057   2.748 -0.1090  0.1856 -0.0028
 6172TIP3    H140151   0.636   4.144   2.711  0.4664 -0.2478 -1.3372
 6172TIP3    H240152   0.740   4.034   2.717 -0.9576 -1.6269 -1.1889
 6173TIP3   OH240153   5.086   6.311   0.671  0.9287 -0.3945  0.1892
 6173TIP3    H140154   5.041   6.392   0.694  0.1003 -0.4538 -1.1182
 6173TIP3    H240155   5.147   6.296   0.743 -0.5645  0.1228  1.6277
 6174TIP3   OH240156   0.336   6.050   2.302 -0.1600 -0.1065  0.1874
 6174TIP3    H140157   0.305   6.026   2.389 -0.2932 -0.2208  0.1104
 6174TIP3    H240158   0.277   6.119   2.274  0.2542  0.3477  0.4289
 6175TIP3   OH240159   6.519   4.614   2.366 -0.5062  0.2234 -0.5754
 6175TIP3    H140160   6.472   4.596   2.448  1.1454  2.9611  1.1133
 6175TIP3    H240161   6.611   4.618   2.391 -0.1748  4.7077 -1.6734
 6176TIP3   OH240162   2.622   0.487   2.646  0.1555 -0.3546  0.0114
 6176TIP3    H140163   2.568   0.558   2.680 -1.8711 -2.0808  0.6088
 6176TIP3    H240164   2.699   0.530   2.610 -0.1347  1.9890  1.9683
 6177TIP3   OH240165   4.302   2.878   2.617 -0.3985  0.2554 -0.3639
 6177TIP3    H140166   4.374   2.816   2.617 -1.0894 -0.5730 -1.1129
 6177TIP3    H240167   4.248   2.853   2.692 -2.0129 -1.7120 -2.0617
 6178TIP3   OH240168   3.245   4.453   0.517 -0.4183  0.4151  0.2732
 6178TIP3    H140169   3.221   4.543   0.535  0.6350  0.5735  0.9698
 6178TIP3    H240170   3.164   4.411   0.489 -1.0501  1.4173  0.5772
 6179TIP3   OH240171   5.673   4.616   1.527 -0.4230 -0.0684  0.5178
 6179TIP3    H140172   5.608   4.612   1.597  0.0336  0.1832  0.9629
 6179TIP3    H240173   5.653   4.698   1.481 -1.0149 -0.4620  0.0555
 6180TIP3   OH240174   0.262   6.164   3.372 -0.1639  0.9377 -0.3508
 6180TIP3    H140175   0.184   6.178   3.319 -0.1097  0.5143 -0.5488
 6180TIP3    H240176   0.231   6.114   3.447 -0.2312  1.4941 -0.0011
 6181TIP3   OH240177   0.912   2.846   0.018  0.6957 -0.0149  0.2707
 6181TIP3    H140178   0.858   2.889   0.084 -0.2390 -0.1775 -0.3639
 6181TIP3    H240179   0.988   2.903   0.007  0.2375  0.6616  0.5660
 6182TIP3   OH240180   6.449   0.206   3.826 -0.0157 -0.0787  0.2266
 6182TIP3    H140181   6.478   0.171   3.910 -1.1505  2.2599  1.6799
 6182TIP3    H240182   6.379   0.267   3.847  0.4300  1.4823 -2.2988
 6183TIP3   OH240183   5.457   3.526   3.396 -0.2857 -0.3382  0.4865
 6183TIP3    H140184   5.443   3.521   3.490 -1.5645  0.0100  0.3443
 6183TIP3    H240185   5.543   3.488   3.381  0.0186 -0.1929  1.8168
 6184TIP3   OH240186   3.759   3.617   1.497 -0.0734 -0.3496  0.2040
 6184TIP3    H140187   3.717   3.664   1.425  0.0961 -0.8227 -0.2034
 6184TIP3    H240188   3.687   3.583   1.549 -0.1958 -0.1074  0.1946
 6185TIP3   OH240189   2.353   1.994   2.965  0.5094  0.2197  0.1146
 6185TIP3    H140190   2.293   2.001   3.039 -1.7718 -0.2467 -1.5733
 6185TIP3    H240191   2.405   2.075   2.968 -0.1970  0.6551  1.6198
 6186TIP3   OH240192   3.581   5.008   0.584 -0.2272 -0.1718 -0.2273
 6186TIP3    H140193   3.648   5.052   0.636 -0.9150  2.1108 -1.1423
 6186TIP3    H240194   3.524   4.966   0.648  0.4859  0.2470  0.6983
 6187TIP3   OH240195   5.612   5.676   8.417  0.2329 -0.1987  0.2127
 6187TIP3    H140196   5.600   5.646   8.508 -1.9340  0.6942  0.2911
 6187TIP3    H240197   5.551   5.750   8.408 -1.6326 -1.8967 -2.7084
 6188TIP3   OH240198   5.296   0.969   2.897  0.4541  0.1267  0.4043
 6188TIP3    H140199   5.370   0.994   2.843  0.9721 -0.3318  0.8918
 6188TIP3    H240200   5.331   0.902   2.956  0.5901  2.4923  3.1656
 6189TIP3   OH240201   4.803   0.735   8.390 -0.5807 -0.1017 -0.5763
 6189TIP3    H140202   4.857   0.756   8.466 -0.1928  0.9550 -1.1104
 6189TIP3    H240203   4.713   0.743   8.421 -0.4542 -1.3648  0.1888
 6190TIP3   OH240204   3.782   3.649   0.810 -0.8633 -0.1530  0.5242
 6190TIP3    H140205   3.720   3.583   0.778 -0.5538  0.3848 -1.2754
 6190TIP3    H240206   3.867   3.607   0.804 -0.3410  1.1136 -3.0233
 6191TIP3   OH240207   1.530   4.234   4.078  0.0137  0.2600  0.3200
 6191TIP3    H140208   1.609   4.180   4.080  0.1777  0.4929  0.1210
 6191TIP3    H240209   1.460   4.171   4.060  0.2530  0.1671 -0.3169
 6192TIP3   OH240210   2.487   5.719   1.520  0.2519 -0.7686  0.2415
 6192TIP3    H140211   2.445   5.673   1.593 -1.3377 -0.9521 -0.7202
 6192TIP3    H240212   2.579   5.696   1.526  0.5769  0.9443  3.4279
 6193TIP3   OH240213   3.620   5.264   2.084  0.2312 -0.2186 -0.2628
 6193TIP3    H140214   3.638   5.271   1.990  0.1496  1.2879 -0.2012
 6193TIP3    H240215   3.538   5.313   2.096  1.0642  0.9774  0.8091
 6194TIP3   OH240216   4.460   5.351   1.321  0.0991  0.4125 -0.4881
 6194TIP3    H140217   4.529   5.337   1.256 -0.3359 -0.2142 -0.8298
 6194TIP3    H240218   4.417   5.265   1.328 -0.1060  0.5803  0.3367
 6195TIP3   OH240219   2.799   1.560   3.161  0.1229  0.2084  0.4271
 6195TIP3    H140220   2.834   1.638   3.204 -2.8507  1.0469  1.5464
 6195TIP3    H240221   2.776   1.501   3.232  2.7580 -2.0142 -0.4187
 6196TIP3   OH240222   5.844   3.230   3.206  0.3935 -0.7906 -1.4421
 6196TIP3    H140223   5.864   3.266   3.293 -0.9873 -0.3486 -1.2856
 6196TIP3    H240224   5.752   3.207   3.210  0.2493 -0.5600 -2.8665
 6197TIP3   OH240225   1.525   4.534   1.499  0.1275  0.4988 -0.1050
 6197TIP3    H140226   1.476   4.540   1.417  0.9504  1.6284 -0.5470
 6197TIP3    H240227   1.486   4.460   1.545  0.0631 -0.5559 -1.7815
 6198TIP3   OH240228   5.747   5.255   0.494 -0.1673  0.0576 -0.1353
 6198TIP3    H140229   5.765   5.246   0.401  0.3079 -0.8620  0.0230
 6198TIP3    H240230   5.826   5.222   0.537 -0.7802 -0.5355  0.5867
 6199TIP3   OH240231   5.207   2.384   1.801  0.1424 -0.4887  0.6763
 6199TIP3    H140232   5.152   2.316   1.763 -2.2751  1.2247  0.8850
 6199TIP3    H240233   5.238   2.347   1.884 -1.3739 -1.2599  0.9207
 6200TIP3   OH240234   5.098   5.181   3.037  0.5363  0.5063  0.2589
 6200TIP3    H140235   5.175   5.142   3.077  0.4548 -0.9196 -0.8828
 6200TIP3    H240236   5.062   5.238   3.104  1.7480  0.0425  1.3323
 6201TIP3   OH240237   3.066   5.254   0.899  0.0581 -0.0732  0.2372
 6201TIP3    H140238   3.072   5.160   0.916  1.6301  0.1165  0.9092
 6201TIP3    H240239   3.080   5.262   0.805 -3.9842 -0.7625 -0.5983
 6202TIP3   OH240240   5.650   6.584   2.597  0.2326  0.1078  0.1399
 6202TIP3    H140241   5.613   6.508   2.640  0.3876  0.0534  0.1764
 6202TIP3    H240242   5.739   6.591   2.632  0.3161  0.1362 -0.0768
 6203TIP3   OH240243   5.216   4.091   1.372 -0.4731 -0.0612 -0.2492
 6203TIP3    H140244   5.277   4.037   1.322  1.1506  0.6873  0.8288
 6203TIP3    H240245   5.222   4.178   1.333 -0.9989 -0.0199 -0.2503
 6204TIP3   OH240246   5.435   5.575   0.125 -0.1782 -0.4035 -0.1018
 6204TIP3    H140247   5.349   5.584   0.166 -0.4821 -1.1560 -0.5622
 6204TIP3    H240248   5.492   5.543   0.196 -0.9713 -2.8894 -0.5101
 6205TIP3   OH240249   1.479   1.035   2.543  0.1347  0.3877 -0.0243
 6205TIP3    H140250   1.414   1.085   2.494 -1.6760 -1.0573  0.7533
 6205TIP3    H240251   1.433   0.955   2.569  2.2288 -0.6882  0.6347
 6206TIP3   OH240252   1.640   6.191   0.173 -0.1442  0.0066 -0.0868
 6206TIP3    H140253   1.602   6.220   0.256 -0.8416  0.8832 -0.6999
 6206TIP3    H240254   1.693   6.264   0.144  0.8229 -0.6402  0.0093
 6207TIP3   OH240255   4.013   5.026   0.209 -0.2538  0.0322  0.1637
 6207TIP3    H140256   4.088   4.994   0.258  0.1649  0.4687 -0.1882
 6207TIP3    H240257   3.983   5.102   0.259 -1.0198 -0.6556  0.7933
 6208TIP3   OH240258   6.316   5.639   2.207  0.6114  0.1250  0.0101
 6208TIP3    H140259   6.287   5.709   2.265 -1.5558  0.7558 -1.7277
 6208TIP3    H240260   6.318   5.678   2.120 -2.2213 -2.2284 -1.2855
 6209TIP3   OH240261   2.002   6.574   8.291 -0.1806 -0.1244  0.2351
 6209TIP3    H140262   2.064   6.647   8.294  0.3128 -0.5399  0.1880
 6209TIP3    H240263   1.974   6.563   8.382  1.0412 -0.9786  0.5209
 6210TIP3   OH240264   6.688   5.730   2.735  0.0487  0.3161 -0.0628
 6210TIP3    H140265   6.648   5.707   2.820  0.2177 -1.8503 -0.4998
 6210TIP3    H240266   6.765   5.783   2.758  0.4641 -0.7805  1.2195
 6211TIP3   OH240267   6.509   1.285   3.642  0.0869 -0.7905 -0.1658
 6211TIP3    H140268   6.492   1.358   3.701 -1.8398 -0.7719 -0.6704
 6211TIP3    H240269   6.545   1.326   3.564  0.7635 -0.5940  0.2432
 6212TIP3   OH240270   0.941   2.817   2.177 -0.0078 -0.0160  0.0056
 6212TIP3    H140271   0.997   2.867   2.236 -0.4840 -0.3622  0.7725
 6212TIP3    H240272   0.876   2.881   2.146 -1.6723 -0.4701  2.3260
 6213TIP3   OH240273   4.994   5.182   8.089  0.3574 -0.0968 -0.4486
 6213TIP3    H140274   5.034   5.166   8.174  0.7776  0.0521 -0.6113
 6213TIP3    H240275   5.042   5.124   8.029  0.1314 -0.1294 -0.5963
 6214TIP3   OH240276   5.602   4.709   3.457  0.0819 -0.3789  0.4766
 6214TIP3    H140277   5.629   4.749   3.539 -0.7879  0.1818  0.5002
 6214TIP3    H240278   5.679   4.661   3.427  0.2653 -1.0033  1.8616
 6215TIP3   OH240279   4.426   3.865   3.221  0.0668 -0.5996  0.2095
 6215TIP3    H140280   4.445   3.954   3.252  0.4239 -0.1571 -1.1925
 6215TIP3    H240281   4.511   3.830   3.196 -0.0632 -1.3838  0.8156
 6216TIP3   OH240282   4.207   3.248   2.269 -0.0581 -0.7152 -0.0816
 6216TIP3    H140283   4.141   3.274   2.334  0.0069  0.3418 -0.4142
 6216TIP3    H240284   4.247   3.331   2.241  0.8207 -1.2714 -0.5139
 6217TIP3   OH240285   2.197   5.424   1.862  0.3993 -0.1809  0.6529
 6217TIP3    H140286   2.190   5.466   1.948 -1.0232 -1.0461  0.9933
 6217TIP3    H240287   2.266   5.358   1.873  1.6735  1.0717  0.5057
 6218TIP3   OH240288   1.751   0.509   0.252 -0.4273  0.1140  0.2125
 6218TIP3    H140289   1.698   0.508   0.172 -2.3769 -1.4621  1.4234
 6218TIP3    H240290   1.716   0.583   0.303  0.0978  0.4664  0.0701
 6219TIP3   OH240291   0.112   0.699   2.074 -0.3534 -0.2636 -0.6030
 6219TIP3    H140292   0.150   0.753   2.004 -1.6759  2.0912  0.4029
 6219TIP3    H240293   0.119   0.753   2.153  0.0202 -2.3758  0.9021
 6220TIP3   OH240294   2.241   0.803   0.589 -0.0491  0.1868  0.0267
 6220TIP3    H140295   2.309   0.736   0.581 -1.3999 -1.2928  0.6779
 6220TIP3    H240296   2.180   0.784   0.518 -1.4683 -0.5203  1.3856
 6221TIP3   OH240297   0.450   1.808   2.319  0.4818  0.2911  0.5460
 6221TIP3    H140298   0.418   1.750   2.388  0.0772  0.5201  0.5542
 6221TIP3    H240299   0.534   1.840   2.350  0.9084 -0.6189  0.3609
 6222TIP3   OH240300   2.934   2.038   0.161 -0.0549 -0.1209 -0.2938
 6222TIP3    H140301   2.988   2.106   0.121 -1.9424  0.8185 -1.4137
 6222TIP3    H240302   2.845   2.075   0.161 -1.1407 -2.5157 -0.8258
 6223TIP3   OH240303   1.686   4.191   3.241 -0.1736  0.5452  0.1610
 6223TIP3    H140304   1.759   4.135   3.214 -0.6231 -0.1230  0.3068
 6223TIP3    H240305   1.728   4.264   3.287  0.3568 -0.3285  1.1203
 6224TIP3   OH240306   0.259   1.813   0.698  0.3443 -0.1613  0.6245
 6224TIP3    H140307   0.255   1.904   0.725 -1.1753 -0.0518  0.1401
 6224TIP3    H240308   0.284   1.815   0.606  0.4884 -0.2502  0.6604
 6225TIP3   OH240309   5.905   4.109   3.399  0.0506  0.5786  0.6747
 6225TIP3    H140310   5.921   4.202   3.384  0.5205  0.5758  1.1176
 6225TIP3    H240311   5.918   4.068   3.314 -1.1802  1.0426  0.2449
 6226TIP3   OH240312   1.948   2.682   3.613  0.0936  0.0828  0.0900
 6226TIP3    H140313   1.911   2.610   3.663  0.4818  0.2843  0.6772
 6226TIP3    H240314   1.873   2.735   3.587 -0.7903 -2.6957 -4.0000
 6227TIP3   OH240315   1.990   5.825   8.581 -0.2674  0.1050 -0.4958
 6227TIP3    H140316   2.007   5.881   8.656  1.4760 -0.9682 -0.0413
 6227TIP3    H240317   2.023   5.874   8.506 -1.2170  0.8052 -0.4713
 6228TIP3   OH240318   6.683   5.102   2.248 -0.2601  0.8643  0.0857
 6228TIP3    H140319   6.768   5.093   2.291 -0.2150  1.2267  0.0716
 6228TIP3    H240320   6.629   5.032   2.287 -0.6927  2.1048  1.8580
 6229TIP3   OH240321   6.165   6.214   1.093 -0.5528  0.4670 -0.6849
 6229TIP3    H140322   6.139   6.249   1.178  1.1578 -1.0866  0.5754
 6229TIP3    H240323   6.090   6.161   1.065 -0.7364  0.1185  0.4002
 6230TIP3   OH240324   3.212   1.137   2.849  0.1974  0.1423  0.4579
 6230TIP3    H140325   3.307   1.146   2.841  0.4413 -0.9045  1.9382
 6230TIP3    H240326   3.192   1.166   2.938 -0.9791  1.0247 -0.0698
 6231TIP3   OH240327   6.711   0.054   2.778 -0.4310  0.5280 -0.8926
 6231TIP3    H140328   6.704   0.117   2.849  0.3333  1.4846 -1.6420
 6231TIP3    H240329   6.801   0.063   2.747  0.6806 -2.8538  0.7316
 6232TIP3   OH240330   6.064   5.653   3.348  0.3358  0.3350 -0.5461
 6232TIP3    H140331   6.100   5.708   3.279 -1.9692 -0.9244 -2.9714
 6232TIP3    H240332   5.992   5.705   3.384 -0.5401 -0.2215 -1.4294
 6233TIP3   OH240333   3.800   6.318   1.733  0.4687  0.4746  0.3790
 6233TIP3    H140334   3.723   6.374   1.725  1.3250  1.7788  0.8379
 6233TIP3    H240335   3.873   6.376   1.711  1.2445 -1.0375 -1.2636
 6234TIP3   OH240336   3.649   5.598   1.186  0.0824  0.1609  0.1670
 6234TIP3    H140337   3.614   5.538   1.121 -0.4060 -1.9641  2.2549
 6234TIP3    H240338   3.586   5.596   1.258  1.7435  0.5122  1.7191
 6235TIP3   OH240339   3.291   0.472   3.896  0.5280  0.5569 -0.2049
 6235TIP3    H140340   3.280   0.424   3.978 -1.6390 -0.6019 -1.0951
 6235TIP3    H240341   3.352   0.419   3.845 -0.1973 -0.1637 -0.3482
 6236TIP3   OH240342   6.380   3.956   8.402  0.0932 -0.3403 -0.4596
 6236TIP3    H140343   6.430   3.933   8.325  1.9446  1.6079  0.0559
 6236TIP3    H240344   6.347   4.044   8.383 -1.2555 -0.6799  0.1519
 6237TIP3   OH240345   1.640   1.773   8.652 -0.4604  0.6262 -0.4440
 6237TIP3    H140346   1.686   1.831   8.591 -0.3630 -0.6453 -1.6280
 6237TIP3    H240347   1.686   1.690   8.644 -0.1470  0.5514  1.7609
 6238TIP3   OH240348   4.349   3.749   2.535 -0.2947 -0.2541  0.1585
 6238TIP3    H140349   4.435   3.792   2.529 -0.7230  0.6543  0.3641
 6238TIP3    H240350   4.362   3.680   2.599  0.5770 -0.8721 -0.6437
 6239TIP3   OH240351   5.108   4.990   2.010  0.1317 -0.1347 -0.6379
 6239TIP3    H140352   5.100   5.004   2.104 -1.4579 -0.0301 -0.7577
 6239TIP3    H240353   5.151   5.069   1.977 -0.4704  0.4057 -0.1506
 6240TIP3   OH240354   0.840   2.495   8.140  0.0011 -0.0563  0.0532
 6240TIP3    H140355   0.933   2.479   8.123  0.0878 -0.1506  0.5972
 6240TIP3    H240356   0.797   2.411   8.123 -0.3174  0.5255 -2.3743
 6241TIP3   OH240357   6.295   4.644   8.668 -0.6850  0.1043  0.2667
 6241TIP3    H140358   6.259   4.711   8.726 -1.3777  0.5704 -0.6751
 6241TIP3    H240359   6.390   4.656   8.673 -0.8012  1.0506  0.2134
 6242TIP3   OH240360   1.125   1.864   2.701  0.4862  0.1730  0.0726
 6242TIP3    H140361   1.050   1.857   2.760  0.3931 -0.5986 -0.1203
 6242TIP3    H240362   1.114   1.791   2.640  0.6011  0.9308 -0.8773
 6243TIP3   OH240363   2.388   0.383   3.610  0.2903 -0.6536 -0.3539
 6243TIP3    H140364   2.470   0.385   3.560  1.4231 -0.6164  1.3695
 6243TIP3    H240365   2.329   0.441   3.562  1.3513 -0.5014 -1.5359
 6244TIP3   OH240366   2.365   0.268   3.117  0.3452  0.0212  0.0347
 6244TIP3    H140367   2.369   0.280   3.212 -0.7034  2.4426 -0.1704
 6244TIP3    H240368   2.421   0.337   3.081 -0.9906  0.5197 -1.1614
 6245TIP3   OH240369   4.215   2.364   2.826  0.1208 -0.1853  0.7109
 6245TIP3    H140370   4.136   2.395   2.870 -0.2205  1.1076 -0.7600
 6245TIP3    H240371   4.286   2.384   2.887 -0.5204 -0.1267  1.4571
 6246TIP3   OH240372   3.292   6.119   0.682 -0.0550  0.6332 -0.5651
 6246TIP3    H140373   3.380   6.112   0.645 -0.0747 -2.2784 -0.3369
 6246TIP3    H240374   3.306   6.131   0.776  0.2033 -1.0128 -0.3503
 6247TIP3   OH240375   4.855   1.359   2.788 -0.0275 -0.0469  0.3438
 6247TIP3    H140376   4.794   1.286   2.787  0.4427 -0.4456 -0.7165
 6247TIP3    H240377   4.840   1.402   2.872 -2.2529  0.2878 -0.1693
 6248TIP3   OH240378   3.994   6.395   1.552 -0.3386  0.2273  0.3766
 6248TIP3    H140379   3.984   6.344   1.472 -0.8544 -1.5426  1.5131
 6248TIP3    H240380   4.030   6.479   1.522 -1.3041 -0.0539 -1.7816
 6249TIP3   OH240381   4.832   6.071   3.018 -0.3831  0.7659 -0.3572
 6249TIP3    H140382   4.862   6.162   3.017  0.9798  0.3398  0.1229
 6249TIP3    H240383   4.883   6.028   2.950  2.3768 -0.6364  2.3775
 6250TIP3   OH240384   1.686   6.504   2.117  0.2885  0.2387 -0.2250
 6250TIP3    H140385   1.683   6.550   2.033 -2.1782 -0.5038 -0.6022
 6250TIP3    H240386   1.713   6.415   2.095 -1.4264 -0.2622 -0.4362
 6251TIP3   OH240387   6.474   0.222   1.544 -0.3627 -0.4934  0.4585
 6251TIP3    H140388   6.557   0.194   1.505 -0.9823 -1.7692  0.0036
 6251TIP3    H240389   6.495   0.236   1.637  0.7721  1.0494  0.0020
 6252TIP3   OH240390   5.476   4.143   1.528 -0.5843 -0.1417 -0.4614
 6252TIP3    H140391   5.530   4.217   1.501 -0.6753 -0.0589 -0.4197
 6252TIP3    H240392   5.437   4.110   1.446  1.1391 -1.5081 -0.8004
 6253TIP3   OH240393   0.160   6.830   2.353  0.2123  0.0007  0.8845
 6253TIP3    H140394   0.148   6.735   2.356 -0.3086 -0.0357 -1.1082
 6253TIP3    H240395   0.226   6.844   2.285  1.1278  1.0370  1.9312
 6254TIP3   OH240396   4.603   2.894   1.366  0.0212 -0.1372 -0.3076
 6254TIP3    H140397   4.642   2.913   1.451  1.3612 -0.3151 -0.8646
 6254TIP3    H240398   4.582   2.801   1.369 -2.3902  0.3700  0.7668
 6255TIP3   OH240399   1.939   5.168   2.805 -0.2587 -0.5439 -0.2845
 6255TIP3    H140400   1.922   5.255   2.841  1.3972 -0.8413  1.4136
 6255TIP3    H240401   1.891   5.166   2.722 -1.4525  1.4667  0.2855
 6256TIP3   OH240402   4.412   2.283   0.211 -0.4521  0.3507  0.1762
 6256TIP3    H140403   4.450   2.341   0.278 -1.9991  2.1239 -0.3890
 6256TIP3    H240404   4.334   2.246   0.253  0.0122 -0.6240  0.2080
 6257TIP3   OH240405   0.093   0.901   2.704  0.1990  0.2364  0.0284
 6257TIP3    H140406   0.039   0.835   2.660 -0.0911  0.6616 -0.2576
 6257TIP3    H240407   0.137   0.852   2.774  0.4717 -0.3872 -0.5674
 6258TIP3   OH240408   0.039   6.462   3.156 -0.3699 -0.1910 -0.2073
 6258TIP3    H140409   0.091   6.442   3.078  0.7192  1.1057  0.1444
 6258TIP3    H240410   0.008   6.377   3.186 -0.4402 -0.7617 -1.7882
 6259TIP3   OH240411   1.083   2.143   1.429 -0.6817 -0.1267 -0.2587
 6259TIP3    H140412   1.036   2.060   1.417 -0.9144  0.1498 -1.3494
 6259TIP3    H240413   1.144   2.147   1.355  0.3490  0.0147  0.5697
 6260TIP3   OH240414   1.651   6.445   1.845  0.4936  0.1995  0.0180
 6260TIP3    H140415   1.567   6.444   1.799  0.3483  1.9851  0.1738
 6260TIP3    H240416   1.689   6.359   1.827  0.4876  0.7831 -3.5157
 6261TIP3   OH240417   5.249   6.832   2.970  0.4079  0.0418  0.5589
 6261TIP3    H140418   5.299   6.762   2.928 -0.9701 -0.4597 -0.3453
 6261TIP3    H240419   5.234   6.896   2.901 -1.7125 -0.7000  0.2285
 6262TIP3   OH240420   6.440   0.341   1.079 -0.6119 -0.3452  0.1413
 6262TIP3    H140421   6.516   0.285   1.097 -1.0950 -0.9900  0.2234
 6262TIP3    H240422   6.386   0.333   1.158  0.1088  1.5921  0.8820
 6263TIP3   OH240423   3.085   6.396   2.341 -0.9680 -0.0340  0.0965
 6263TIP3    H140424   3.051   6.446   2.416 -0.3022 -0.1434  0.4799
 6263TIP3    H240425   3.116   6.463   2.280  1.0406  0.0504  1.1309
 6264TIP3   OH240426   1.755   3.327   3.685  0.0348  0.1170 -0.1096
 6264TIP3    H140427   1.705   3.248   3.703 -0.9869  0.6563 -0.5426
 6264TIP3    H240428   1.846   3.296   3.679 -0.0543 -0.7064  1.8096
 6265TIP3   OH240429   6.349   0.128   8.084  0.2363  0.7449  1.3492
 6265TIP3    H140430   6.376   0.049   8.037  1.1045  2.4934 -1.3717
 6265TIP3    H240431   6.287   0.097   8.150 -2.8115 -1.8413 -2.2631
 6266TIP3   OH240432   2.367   6.166   2.779 -0.3874 -0.3877 -0.1770
 6266TIP3    H140433   2.272   6.173   2.765 -0.1418 -0.3634 -2.1109
 6266TIP3    H240434   2.387   6.074   2.765 -0.2869 -0.6523  1.5659
 6267TIP3   OH240435   3.438   6.099   3.420 -0.3696 -0.0538  0.1105
 6267TIP3    H140436   3.387   6.180   3.428 -0.4412 -0.2408  1.9836
 6267TIP3    H240437   3.438   6.062   3.508  2.1336 -0.6078 -0.0497
 6268TIP3   OH240438   6.188   5.387   3.760  0.2812 -0.1402 -0.0536
 6268TIP3    H140439   6.207   5.471   3.802 -0.2940 -0.0100 -0.0530
 6268TIP3    H240440   6.273   5.356   3.729  0.6624 -0.0775  0.8990
 6269TIP3   OH240441   5.917   4.447   8.091 -0.2943  0.0712 -0.0773
 6269TIP3    H140442   5.957   4.372   8.137  0.6197  0.3600 -0.3813
 6269TIP3    H240443   5.825   4.446   8.120  0.2063  0.1686  1.6722
 6270TIP3   OH240444   5.292   6.818   3.480 -0.2436  0.2259 -0.0471
 6270TIP3    H140445   5.304   6.735   3.434  1.9666  1.0862 -1.1563
 6270TIP3    H240446   5.326   6.801   3.568  0.0429 -0.0842 -0.2137
 6271TIP3   OH240447   6.811   6.353   0.642  0.1278 -0.1190 -0.4434
 6271TIP3    H140448   6.834   6.261   0.647  0.7372 -0.0138 -1.1610
 6271TIP3    H240449   6.891   6.400   0.663  0.7610  0.2503 -3.3272
 6272TIP3   OH240450   1.522   4.252   0.843  0.4567  0.0374 -0.0893
 6272TIP3    H140451   1.570   4.306   0.780  1.4851 -0.3725  0.3305
 6272TIP3    H240452   1.585   4.187   0.872 -0.4123 -0.6240  0.3498
 6273TIP3   OH240453   5.475   4.113   0.301  0.3360  0.2650  0.3384
 6273TIP3    H140454   5.468   4.153   0.215  3.8891  1.0976  0.2971
 6273TIP3    H240455   5.540   4.043   0.290 -1.6449 -1.9732  1.6765
 6274TIP3   OH240456   6.411   1.261   3.279 -0.0869  0.8326  0.0382
 6274TIP3    H140457   6.476   1.261   3.209  2.0700 -0.3669  1.8909
 6274TIP3    H240458   6.403   1.353   3.305 -0.2013  1.1624 -1.1317
 6275TIP3   OH240459   2.546   6.616   3.171  0.4347 -0.4622 -0.1142
 6275TIP3    H140460   2.580   6.604   3.260 -0.0404 -0.1157  0.1192
 6275TIP3    H240461   2.599   6.558   3.117  1.4347  0.1077  0.2318
 6276TIP3   OH240462   3.814   2.357   0.430 -0.4780  0.0417 -0.1544
 6276TIP3    H140463   3.827   2.264   0.414 -1.0172  0.0552 -0.7310
 6276TIP3    H240464   3.755   2.385   0.360  0.3764  1.0028 -0.5158
 6277TIP3   OH240465   2.963   2.855   1.714  0.4523 -0.2328  0.3282
 6277TIP3    H140466   2.880   2.823   1.749  0.0588 -0.1457 -0.4920
 6277TIP3    H240467   2.980   2.936   1.761  0.9265 -1.0968  1.6822
 6278TIP3   OH240468   0.742   2.239   4.016 -0.0125  0.5555  0.1801
 6278TIP3    H140469   0.767   2.156   3.974 -2.7208 -0.0670 -0.4297
 6278TIP3    H240470   0.778   2.306   3.958 -0.2999 -0.2577 -0.9835
 6279TIP3   OH240471   0.767   3.469   0.382 -0.1156  0.2640 -0.0066
 6279TIP3    H140472   0.760   3.466   0.477  0.6585  2.0672  0.1383
 6279TIP3    H240473   0.859   3.455   0.364 -0.0212  1.2708 -0.3859
 6280TIP3   OH240474   0.612   4.929   3.537  0.1085 -0.2010  0.9084
 6280TIP3    H140475   0.594   4.885   3.620  1.0343 -0.7397  0.8374
 6280TIP3    H240476   0.540   4.992   3.527 -0.7156 -1.0199  1.4857
 6281TIP3   OH240477   3.485   5.004   2.519 -0.3459  0.7584 -0.3927
 6281TIP3    H140478   3.575   5.029   2.536 -0.7790  2.3669 -0.3729
 6281TIP3    H240479   3.459   5.056   2.443 -0.6132 -1.2536 -1.7586
 6282TIP3   OH240480   2.737   1.470   2.474 -0.3015 -0.4399  0.6269
 6282TIP3    H140481   2.764   1.559   2.452  0.4509 -0.6861  0.5424
 6282TIP3    H240482   2.706   1.476   2.565  0.2959 -0.2038  0.8178
 6283TIP3   OH240483   6.543   6.706   0.558 -0.0619 -0.1739 -0.4331
 6283TIP3    H140484   6.509   6.617   0.544 -0.0152 -0.4965  1.3428
 6283TIP3    H240485   6.638   6.695   0.562 -0.0632 -0.0594 -0.1029
 6284TIP3   OH240486   0.719   4.893   2.239  0.3189 -0.4637  0.0698
 6284TIP3    H140487   0.696   4.802   2.257  1.0328 -0.8068 -0.7043
 6284TIP3    H240488   0.660   4.944   2.295  0.2226 -1.4053  0.8536
 6285TIP3   OH240489   0.506   4.534   1.785  0.5445  0.5520  0.4356
 6285TIP3    H140490   0.598   4.557   1.768  0.8054  0.4389  1.6467
 6285TIP3    H240491   0.503   4.439   1.776  0.7668  0.4515  1.3761
 6286TIP3   OH240492   6.429   6.044   2.040 -0.1703 -0.4210  0.1198
 6286TIP3    H140493   6.477   5.967   2.069  1.0914 -0.4606 -1.8653
 6286TIP3    H240494   6.406   6.025   1.949  1.1303  1.9154 -0.8012
 6287TIP3   OH240495   4.893   3.702   2.165  0.1599  0.1998  0.0093
 6287TIP3    H140496   4.863   3.732   2.251  1.2180 -3.0286  1.6323
 6287TIP3    H240497   4.825   3.640   2.136 -0.0613  1.0553 -1.4457
 6288TIP3   OH240498   0.204   1.301   8.749  0.6226  0.2957  0.3347
 6288TIP3    H140499   0.253   1.260   8.678  1.4396 -2.0015  2.0713
 6288TIP3    H240500   0.254   1.280   8.828 -2.5132 -1.3072  2.1165
 6289TIP3   OH240501   5.363   5.873   0.714  0.4103 -0.0150 -0.0411
 6289TIP3    H140502   5.339   5.865   0.622  2.3356 -3.4775 -0.4253
 6289TIP3    H240503   5.351   5.785   0.749  0.2187  1.1023  2.9274
 6290TIP3   OH240504   4.821   5.210   3.452  0.1902 -0.4660  0.1289
 6290TIP3    H140505   4.898   5.201   3.508 -0.1321  2.7701  1.3048
 6290TIP3    H240506   4.752   5.165   3.499  0.8403 -1.3916  0.2161
 6291TIP3   OH240507   3.154   6.016   1.010 -0.5693  0.0534 -0.0042
 6291TIP3    H140508   3.221   6.078   1.039 -0.0423 -0.0332 -0.9836
 6291TIP3    H240509   3.151   5.949   1.078  0.1415  0.2127  0.1884
 6292TIP3   OH240510   3.355   4.028   0.336 -0.2582  0.0218  0.0298
 6292TIP3    H140511   3.282   4.010   0.276 -0.3768 -0.6724  0.3712
 6292TIP3    H240512   3.398   3.943   0.348 -0.6361 -0.0004  1.4383
 6293TIP3   OH240513   5.205   6.852   1.022  0.1281  0.2870 -0.5281
 6293TIP3    H140514   5.210   6.783   0.955  1.6897  0.3371 -0.4929
 6293TIP3    H240515   5.146   6.816   1.089  0.0405 -0.5450 -1.0309
 6294TIP3   OH240516   6.591   1.438   3.444 -0.2408  0.0708 -0.0176
 6294TIP3    H140517   6.524   1.504   3.426  0.3472  0.4502 -0.9106
 6294TIP3    H240518   6.674   1.484   3.431  0.1853 -0.7581 -0.3287
 6295TIP3   OH240519   0.863   0.452   3.717 -0.3882 -0.9321 -0.5164
 6295TIP3    H140520   0.832   0.365   3.693  0.6539 -0.8828 -2.1635
 6295TIP3    H240521   0.931   0.436   3.783  2.0103 -1.6577 -3.0061
 6296TIP3   OH240522   0.250   1.945   4.339  0.2679 -0.5994 -0.7399
 6296TIP3    H140523   0.156   1.930   4.333  0.2638 -0.1080 -2.5103
 6296TIP3    H240524   0.261   2.008   4.410 -1.0118  1.1655 -2.0177
 6297TIP3   OH240525   0.401   3.014   3.299  0.2614  0.1712  0.4972
 6297TIP3    H140526   0.441   3.085   3.248  0.4036  0.3563  0.8660
 6297TIP3    H240527   0.378   2.948   3.233 -1.8175  1.4347 -0.1535
 6298TIP3   OH240528   3.168   3.662   0.158  0.5499 -0.0555 -0.4007
 6298TIP3    H140529   3.256   3.672   0.123  0.0901  0.0862 -1.5604
 6298TIP3    H240530   3.166   3.720   0.234  1.3296  0.2438 -0.5955
 6299TIP3   OH240531   0.850   6.488   2.364 -0.0341 -0.4306  0.3462
 6299TIP3    H140532   0.821   6.398   2.351 -0.7221 -0.1667  0.0079
 6299TIP3    H240533   0.891   6.512   2.282  1.4423 -0.8885  0.9082
 6300TIP3   OH240534   2.620   3.124   1.909  0.0633 -0.0003  0.1360
 6300TIP3    H140535   2.638   3.046   1.961  1.6171  1.5059  2.0037
 6300TIP3    H240536   2.573   3.183   1.968 -0.0189  0.9586 -0.8361
 6301TIP3   OH240537   5.457   0.950   1.392 -0.6937 -0.1605  0.2626
 6301TIP3    H140538   5.483   1.038   1.368 -0.1885 -0.8845 -2.1221
 6301TIP3    H240539   5.393   0.924   1.325 -1.2933 -1.3975  1.2556
 6302TIP3   OH240540   3.368   2.366   1.968  0.0723  0.3947  0.0519
 6302TIP3    H140541   3.383   2.282   2.012 -1.8901 -0.3430 -0.6099
 6302TIP3    H240542   3.312   2.345   1.894  2.9269  1.6544 -2.7138
 6303TIP3   OH240543   4.829   6.462   4.118 -0.1366  0.1335  0.1216
 6303TIP3    H140544   4.832   6.556   4.100  0.2166  0.2388  0.6932
 6303TIP3    H240545   4.921   6.435   4.121 -0.2289 -0.1709  0.2480
 6304TIP3   OH240546   2.426   1.037   1.194 -0.4662 -0.2122  0.5202
 6304TIP3    H140547   2.381   1.008   1.273  1.0141 -0.0558  1.4676
 6304TIP3    H240548   2.487   1.104   1.225 -1.3450  1.3933 -1.0946
 6305TIP3   OH240549   2.108   4.412   2.617 -0.0832  0.4148  0.1358
 6305TIP3    H140550   2.115   4.501   2.583 -2.7829  0.5334 -0.3025
 6305TIP3    H240551   2.026   4.378   2.581 -0.4114 -1.3560  2.2915
 6306TIP3   OH240552   3.339   0.770   8.504 -0.7805 -0.3095 -0.6450
 6306TIP3    H140553   3.251   0.736   8.522 -1.0739  0.6506 -0.1419
 6306TIP3    H240554   3.390   0.749   8.582 -0.0472 -2.4036 -1.6322
 6307TIP3   OH240555   3.130   5.538   0.709 -0.3061 -0.4286 -0.3688
 6307TIP3    H140556   3.124   5.568   0.618  0.0826  1.6672  0.2405
 6307TIP3    H240557   3.079   5.601   0.759  0.0881 -1.1158  0.9611
 6308TIP3   OH240558   1.537   3.415   1.497  0.5560  0.1640  0.7593
 6308TIP3    H140559   1.571   3.500   1.471  2.6752 -1.2532 -1.5990
 6308TIP3    H240560   1.447   3.413   1.463  0.1266  1.7467  1.7140
 6309TIP3   OH240561   5.474   0.838   3.050  0.2437 -0.9807  0.2000
 6309TIP3    H140562   5.521   0.759   3.077  0.3364 -0.9211  0.2152
 6309TIP3    H240563   5.511   0.908   3.104 -0.7402 -1.1401  1.1083
 6310TIP3   OH240564   6.569   6.317   2.428  0.4734  0.0587 -0.1346
 6310TIP3    H140565   6.615   6.274   2.500  0.0558  0.7504  0.5656
 6310TIP3    H240566   6.635   6.326   2.359  0.2798 -2.7111 -0.7740
 6311TIP3   OH240567   2.543   6.446   3.401 -0.1566  0.2935  0.5574
 6311TIP3    H140568   2.522   6.512   3.467 -0.9148  0.9031 -0.2610
 6311TIP3    H240569   2.632   6.418   3.421 -0.0149  1.2040  1.2245
 6312TIP3   OH240570   1.823   3.601   3.765  0.0522  0.0078 -0.9418
 6312TIP3    H140571   1.756   3.624   3.829 -1.0454 -1.0805 -1.6337
 6312TIP3    H240572   1.787   3.524   3.720  2.9464 -2.4047  0.5018
 6313TIP3   OH240573   3.079   4.737   0.654  0.1550 -0.2123 -0.1173
 6313TIP3    H140574   3.128   4.797   0.598 -0.2522  0.8194  0.5965
 6313TIP3    H240575   3.005   4.710   0.600  1.0797 -1.1861 -0.9325
 6314TIP3   OH240576   1.444   6.283   2.729  0.2018  0.0897  0.3858
 6314TIP3    H140577   1.353   6.259   2.712 -0.9441  2.0689  3.0736
 6314TIP3    H240578   1.477   6.311   2.643 -1.2753 -1.7907 -0.8850
 6315TIP3   OH240579   6.694   2.501   1.718 -0.7445  0.1645 -0.4656
 6315TIP3    H140580   6.753   2.447   1.771  1.2852  3.7305  1.2146
 6315TIP3    H240581   6.608   2.490   1.758  0.2100  0.5646  1.7890
 6316TIP3   OH240582   4.903   0.473   8.288 -0.2623  0.2776  0.1570
 6316TIP3    H140583   4.868   0.557   8.317 -0.2709  0.4724 -0.4144
 6316TIP3    H240584   4.878   0.466   8.196 -0.9903 -0.7328  0.4133
 6317TIP3   OH240585   6.008   5.054   4.000  0.0203 -0.1368  0.5595
 6317TIP3    H140586   6.088   5.106   3.999 -1.0404  1.5586  0.5195
 6317TIP3    H240587   5.952   5.095   3.933 -0.5440 -1.8596 -0.0759
 6318TIP3   OH240588   6.175   1.678   1.696  0.6316  0.1000  0.5859
 6318TIP3    H140589   6.225   1.758   1.683 -1.1426  1.0322 -1.2221
 6318TIP3    H240590   6.222   1.612   1.645  0.8199  0.5926  0.1080
 6319TIP3   OH240591   6.193   3.589   2.442  0.2245 -0.1435 -0.2826
 6319TIP3    H140592   6.199   3.615   2.534  1.3914  0.1982 -0.4381
 6319TIP3    H240593   6.101   3.567   2.430  0.0180 -0.0469  0.9251
 6320TIP3   OH240594   1.052   4.512   1.294 -0.1686  0.1012  0.2394
 6320TIP3    H140595   1.018   4.577   1.232  0.0662  1.1011  1.1320
 6320TIP3    H240596   1.037   4.551   1.380  1.2333 -0.4135  0.7427
 6321TIP3   OH240597   3.575   0.241   1.500  0.3151 -0.5012  0.7738
 6321TIP3    H140598   3.520   0.209   1.428  0.5053  0.9691 -0.0777
 6321TIP3    H240599   3.628   0.311   1.460  1.6472 -0.7893  1.9542
 6322TIP3   OH240600   6.749   0.703   1.609  0.0612 -0.2156 -0.1462
 6322TIP3    H140601   6.832   0.697   1.656 -1.2916 -0.1635  2.4110
 6322TIP3    H240602   6.709   0.617   1.620 -0.9640  0.2894  0.1154
 6323TIP3   OH240603   3.181   2.450   0.107  0.5885  0.2611  0.5651
 6323TIP3    H140604   3.127   2.388   0.059  1.3463 -0.6405  0.8442
 6323TIP3    H240605   3.118   2.506   0.154 -0.1465  0.8657 -1.0704
 6324TIP3   OH240606   2.470   1.698   2.381 -0.5812  0.3415 -0.3888
 6324TIP3    H140607   2.466   1.792   2.366 -0.4639  0.7068  1.6021
 6324TIP3    H240608   2.435   1.686   2.469  2.0681 -1.1060  0.5991
 6325TIP3   OH240609   1.028   2.770   2.585  0.6549 -0.2978  0.0139
 6325TIP3    H140610   1.069   2.845   2.542  0.9980  0.5712  1.7609
 6325TIP3    H240611   1.047   2.782   2.678 -1.1307 -1.3968  0.5822
 6326TIP3   OH240612   4.990   2.487   0.842  0.6706  0.6279  0.0247
 6326TIP3    H140613   5.019   2.397   0.858  0.0359  0.2408 -0.9856
 6326TIP3    H240614   5.007   2.532   0.925  1.6419 -0.2413  0.3240
 6327TIP3   OH240615   4.287   2.688   1.032 -0.5135 -0.1070  0.4614
 6327TIP3    H140616   4.296   2.737   0.951 -0.4452 -1.0598 -0.1257
 6327TIP3    H240617   4.377   2.672   1.061 -0.4844 -1.1619 -0.1574
 6328TIP3   OH240618   5.849   6.195   0.784  0.0326 -0.4378  0.3112
 6328TIP3    H140619   5.912   6.266   0.769  1.3999 -1.3301  1.5202
 6328TIP3    H240620   5.808   6.182   0.698  3.3764 -1.5305 -1.3139
 6329TIP3   OH240621   6.110   6.648   2.108  0.9623  0.5446 -0.2337
 6329TIP3    H140622   6.137   6.718   2.049  0.1032  0.6902 -0.4722
 6329TIP3    H240623   6.150   6.569   2.070  1.6437  0.8513 -0.1611
 6330TIP3   OH240624   6.653   0.187   2.090  0.2028  0.4577  0.3807
 6330TIP3    H140625   6.602   0.116   2.052 -0.6953  1.8623 -1.1957
 6330TIP3    H240626   6.607   0.210   2.171  0.1325 -0.3207  0.5657
 6331TIP3   OH240627   6.106   5.106   0.959  0.0197  0.3716 -0.3330
 6331TIP3    H140628   6.194   5.067   0.955 -1.1606 -2.3598 -1.9891
 6331TIP3    H240629   6.112   5.171   1.030  3.0573 -0.4743  0.3178
 6332TIP3   OH240630   1.688   3.353   1.736 -0.4974  0.5618 -0.2909
 6332TIP3    H140631   1.698   3.408   1.658  0.4216  1.6227  0.5337
 6332TIP3    H240632   1.725   3.269   1.711  1.1247  1.3197 -0.5879
 6333TIP3   OH240633   4.746   3.374   8.668  0.0628 -0.3637  0.1017
 6333TIP3    H140634   4.690   3.314   8.618  0.6174  0.8253 -2.1038
 6333TIP3    H240635   4.827   3.378   8.618  0.3771  1.4964  0.6912
 6334TIP3   OH240636   3.301   4.103   7.604  0.0308  0.0639 -0.3050
 6334TIP3    H140637   3.232   4.036   7.598  0.4233 -0.1965 -3.3739
 6334TIP3    H240638   3.257   4.185   7.580  0.6696 -0.0578 -2.0093
 6335TIP3   OH240639   4.367   2.047   1.474 -0.0406 -0.2743  0.6205
 6335TIP3    H140640   4.461   2.040   1.491  0.7854 -1.3962 -3.4206
 6335TIP3    H240641   4.356   2.134   1.434  0.2643 -1.7349 -3.0272
 6336TIP3   OH240642   1.702   1.243   2.552 -0.4690 -0.4570 -0.1759
 6336TIP3    H140643   1.749   1.267   2.472  1.9762 -2.0898  0.6592
 6336TIP3    H240644   1.630   1.187   2.521  0.6765 -1.4016 -1.2269
 6337TIP3   OH240645   2.575   5.773   0.011  0.1054 -0.2792 -0.2073
 6337TIP3    H140646   2.493   5.771  -0.039  1.3444 -1.6324 -2.3111
 6337TIP3    H240647   2.572   5.695   0.066 -0.4638  0.2717  0.5813
 6338TIP3   OH240648   3.405   1.094   8.743 -0.0722  0.2132 -0.0653
 6338TIP3    H140649   3.396   1.147   8.663 -0.1910  1.1433  0.5523
 6338TIP3    H240650   3.483   1.040   8.727  0.4154  1.0080 -0.4780
 6339TIP3   OH240651   4.795   6.185   0.755 -0.5979 -0.0812  0.1430
 6339TIP3    H140652   4.882   6.193   0.794 -1.2121  2.5769  1.1485
 6339TIP3    H240653   4.811   6.147   0.669  1.7362  1.5215 -0.2166
 6340TIP3   OH240654   2.762   5.774   1.616  0.1048 -0.2345 -0.5420
 6340TIP3    H140655   2.747   5.679   1.618 -0.7264 -0.1071  1.2861
 6340TIP3    H240656   2.738   5.804   1.704  2.3849  1.3821 -0.3887
 6341TIP3   OH240657   1.235   3.824   0.634 -0.1096  0.4421 -0.5369
 6341TIP3    H140658   1.309   3.877   0.664  0.9681 -2.1289  1.7928
 6341TIP3    H240659   1.158   3.868   0.670  0.7864  0.3034  1.7178
 6342TIP3   OH240660   0.628   4.836   2.580 -0.3386 -0.3311 -0.6050
 6342TIP3    H140661   0.541   4.874   2.596  0.3861  0.7713  1.0403
 6342TIP3    H240662   0.638   4.770   2.649  0.4356  0.1145 -0.2784
 6343TIP3   OH240663   6.202   3.596   3.642  0.0172 -0.5763  0.0059
 6343TIP3    H140664   6.187   3.664   3.577 -0.5397 -1.2239 -0.5568
 6343TIP3    H240665   6.167   3.516   3.602  0.0232 -1.0589  0.9336
 6344TIP3   OH240666   1.043   3.690   1.189 -0.2745 -0.1940 -0.0052
 6344TIP3    H140667   0.958   3.690   1.145 -0.3187  1.2090  0.0481
 6344TIP3    H240668   1.098   3.633   1.134 -1.1056 -0.7447 -0.2906
 6345TIP3   OH240669   3.698   6.479   8.585 -0.2175  0.1557  0.0742
 6345TIP3    H140670   3.717   6.536   8.659  0.6909  0.0289 -0.0555
 6345TIP3    H240671   3.716   6.534   8.508 -0.9027  0.2021 -0.0598
 6346TIP3   OH240672   3.140   0.247   0.254  0.2432  0.2089  0.1754
 6346TIP3    H140673   3.077   0.319   0.252  0.2114  0.1821 -2.5332
 6346TIP3    H240674   3.210   0.279   0.311 -0.2989  1.9317 -0.0721
 6347TIP3   OH240675   0.808   0.879   1.729  0.2235  0.2725 -0.0266
 6347TIP3    H140676   0.800   0.828   1.649  1.1483 -1.1219  0.7208
 6347TIP3    H240677   0.807   0.813   1.799 -1.6635  1.5231  1.2075
 6348TIP3   OH240678   6.009   4.113   2.757 -0.3658  0.2301 -0.3317
 6348TIP3    H140679   6.086   4.147   2.801 -0.8206 -0.3107  0.9127
 6348TIP3    H240680   5.939   4.175   2.778 -0.8761 -0.6808  0.8069
 6349TIP3   OH240681   3.656   6.676   1.935 -0.5615  0.2592 -0.2590
 6349TIP3    H140682   3.716   6.602   1.949 -0.1128  0.2998 -1.7846
 6349TIP3    H240683   3.649   6.718   2.021  2.1916  0.6873 -0.1482
 6350TIP3   OH240684   5.132   2.210   2.679  0.3643  0.3453 -0.0006
 6350TIP3    H140685   5.157   2.123   2.649 -1.0291 -0.1611  0.2459
 6350TIP3    H240686   5.047   2.226   2.638 -0.0821  0.9695  1.1402
 6351TIP3   OH240687   6.736   2.550   1.397  0.0830 -0.0127  0.3087
 6351TIP3    H140688   6.678   2.535   1.472  1.3327 -1.0356  1.1253
 6351TIP3    H240689   6.811   2.596   1.434  1.1555 -1.3604 -0.0823
 6352TIP3   OH240690   5.863   6.724   1.883 -0.2705  0.2045  0.9693
 6352TIP3    H140691   5.906   6.760   1.806 -1.5667  0.7698  0.4879
 6352TIP3    H240692   5.917   6.649   1.907  0.1643  0.0207 -0.4773
 6353TIP3   OH240693   3.582   2.696   1.285  0.3385 -0.4469  0.0131
 6353TIP3    H140694   3.637   2.651   1.221  1.7543 -0.2188  1.0031
 6353TIP3    H240695   3.545   2.770   1.238 -0.7551 -1.7364 -1.2125
 6354TIP3   OH240696   5.143   1.681   3.303  0.2419 -0.5461  0.1459
 6354TIP3    H140697   5.235   1.687   3.330  0.2772  1.5462 -0.2121
 6354TIP3    H240698   5.145   1.631   3.222  1.1370 -0.1523 -0.0872
 6355TIP3   OH240699   4.913   3.840   8.304 -0.4238 -0.0681 -0.5627
 6355TIP3    H140700   4.991   3.839   8.359 -0.2392 -0.6409 -0.8303
 6355TIP3    H240701   4.939   3.791   8.226 -0.5614  1.0308 -1.3240
 6356TIP3   OH240702   1.907   4.302   8.592  0.1001 -0.0884  0.2389
 6356TIP3    H140703   1.844   4.242   8.552 -0.6698  0.7115  0.2059
 6356TIP3    H240704   1.871   4.389   8.574  1.5553  0.4245 -0.3326
 6357TIP3   OH240705   2.350   6.173   0.643  0.0201 -0.0230 -0.0971
 6357TIP3    H140706   2.256   6.157   0.636  0.0172  0.3991 -1.2902
 6357TIP3    H240707   2.363   6.202   0.733 -0.6303 -2.2809  0.7970
 6358TIP3   OH240708   3.011   0.615   2.288  0.1860  0.3846 -0.1662
 6358TIP3    H140709   3.069   0.657   2.224 -1.0066  1.0116 -0.8748
 6358TIP3    H240710   3.005   0.677   2.360 -0.0141  0.5470 -0.3235
 6359TIP3   OH240711   6.406   2.489   3.170  0.0914 -0.6598 -0.0164
 6359TIP3    H140712   6.341   2.433   3.126 -0.7230  0.1874  0.0612
 6359TIP3    H240713   6.417   2.564   3.110 -1.7374  0.9865  1.5529
 6360TIP3   OH240714   4.420   2.452   0.631 -0.4277  0.2380 -0.8108
 6360TIP3    H140715   4.474   2.459   0.552  1.5280 -0.5021  0.3974
 6360TIP3    H240716   4.404   2.543   0.657 -3.3627  0.6366 -3.4136
 6361TIP3   OH240717   2.592   1.749   3.605  0.1438 -0.0038  0.2262
 6361TIP3    H140718   2.559   1.833   3.637 -0.8848 -0.1916 -0.3030
 6361TIP3    H240719   2.655   1.772   3.537  0.6530  0.3448  0.7990
 6362TIP3   OH240720   1.701   0.520   2.060  0.0918  0.2359 -0.6896
 6362TIP3    H140721   1.763   0.469   2.008  0.5634 -0.8838  0.9086
 6362TIP3    H240722   1.733   0.610   2.055 -0.8420  0.5306 -3.6981
 6363TIP3   OH240723   0.348   4.368   1.169  0.7850  0.2810  0.1290
 6363TIP3    H140724   0.310   4.324   1.245  0.8236  2.2137  1.3606
 6363TIP3    H240725   0.273   4.410   1.126  0.9604  0.4526 -0.0132
 6364TIP3   OH240726   4.344   2.720   0.579 -0.5647 -0.4121  0.3347
 6364TIP3    H140727   4.284   2.693   0.510 -1.4869  0.4459  0.7731
 6364TIP3    H240728   4.425   2.742   0.532 -1.7379  1.9525 -0.7647
 6365TIP3   OH240729   2.914   0.199   1.003  0.0440 -0.4800 -0.8641
 6365TIP3    H140730   2.923   0.124   0.944  0.7468 -0.7214 -0.4574
 6365TIP3    H240731   3.003   0.221   1.028 -0.1696  0.3506 -0.7886
 6366TIP3   OH240732   2.228   0.144   2.509 -0.2037 -0.7283  0.1673
 6366TIP3    H140733   2.137   0.142   2.538 -1.0200  1.6120 -1.8105
 6366TIP3    H240734   2.269   0.213   2.562 -0.1455 -0.4404 -0.2420
 6367TIP3   OH240735   0.555   0.211   1.801 -0.3866 -0.2089 -0.1316
 6367TIP3    H140736   0.521   0.146   1.739 -2.0402  0.6094 -0.1359
 6367TIP3    H240737   0.529   0.295   1.764 -0.8554  0.3226  1.3378
 6368TIP3   OH240738   3.495   4.611   3.317 -0.9156 -0.2453 -0.2269
 6368TIP3    H140739   3.545   4.675   3.266  1.2401 -0.7803  1.0721
 6368TIP3    H240740   3.540   4.528   3.302 -0.3876 -0.4740  2.2077
 6369TIP3   OH240741   5.212   4.296   7.819 -0.0166 -0.5155  0.1460
 6369TIP3    H140742   5.120   4.320   7.806  0.3947  1.3044  0.2344
 6369TIP3    H240743   5.209   4.213   7.866 -1.6490  0.0776  1.2003
 6370TIP3   OH240744   4.250   6.009   0.358  0.4393 -0.1575  0.1848
 6370TIP3    H140745   4.201   6.090   0.374  1.7524  0.3803  1.7457
 6370TIP3    H240746   4.201   5.965   0.289 -0.8050  1.5470 -0.0912
 6371TIP3   OH240747   1.647   4.163   2.182 -0.3740  0.4377  1.2617
 6371TIP3    H140748   1.653   4.116   2.265 -2.2728 -0.8926  0.7160
 6371TIP3    H240749   1.569   4.218   2.190 -0.7748  0.0539  0.2933
 6372TIP3   OH240750   6.510   3.015   1.355  0.4280 -0.0166 -0.7128
 6372TIP3    H140751   6.473   2.974   1.432 -0.7352  0.4547 -1.0018
 6372TIP3    H240752   6.440   3.012   1.289  1.3495 -0.3071 -1.7176
 6373TIP3   OH240753   3.994   2.868   7.922 -0.0095  0.0460  0.5535
 6373TIP3    H140754   4.013   2.801   7.857  0.4882 -0.7236  1.4636
 6373TIP3    H240755   3.909   2.904   7.897  0.6213  0.4791 -1.0893
 6374TIP3   OH240756   0.021   6.420   2.015  0.0877 -0.7291  0.0060
 6374TIP3    H140757  -0.066   6.394   1.985 -0.5255  1.0318  0.1202
 6374TIP3    H240758   0.031   6.510   1.984  1.5028 -0.5834  0.7927
 6375TIP3   OH240759   3.492   1.781   0.255  0.0351 -0.3451 -0.1871
 6375TIP3    H140760   3.541   1.751   0.332 -1.7900  0.9766  1.6180
 6375TIP3    H240761   3.556   1.827   0.201  1.5287 -1.9558  0.1150
 6376TIP3   OH240762   1.671   2.129   0.757  0.3468 -0.6136  0.4412
 6376TIP3    H140763   1.582   2.094   0.756 -1.4690  3.3876  0.6225
 6376TIP3    H240764   1.681   2.165   0.845  1.9850 -0.5545  0.2571
 6377TIP3   OH240765   1.342   5.761   3.375  0.7751  0.9136 -0.1578
 6377TIP3    H140766   1.270   5.708   3.342  0.3440  1.7480 -0.5563
 6377TIP3    H240767   1.375   5.711   3.450  0.7438 -0.2008 -0.8618
 6378TIP3   OH240768   4.991   1.452   3.112 -0.1676  0.1318 -0.1576
 6378TIP3    H140769   5.041   1.371   3.112 -0.1157  0.1118  1.7346
 6378TIP3    H240770   5.014   1.495   3.029  0.4432 -1.3788 -0.7979
 6379TIP3   OH240771   1.487   6.262   1.250 -0.0432 -0.4810  0.0324
 6379TIP3    H140772   1.579   6.263   1.273  0.4485 -1.9995 -1.6119
 6379TIP3    H240773   1.445   6.211   1.319  0.4968 -0.5394  0.3173
 6380TIP3   OH240774   6.768   5.083   1.275  0.1229  0.0349  0.2089
 6380TIP3    H140775   6.863   5.083   1.285 -0.0746  0.1082  2.6506
 6380TIP3    H240776   6.741   5.171   1.300 -0.5787  0.2410 -1.1559
 6381TIP3   OH240777   4.326   3.137   0.182 -0.0998 -0.2875 -0.4257
 6381TIP3    H140778   4.399   3.126   0.122 -0.0238 -1.6610 -0.1276
 6381TIP3    H240779   4.321   3.053   0.229  0.1059  0.8549  1.7910
 6382TIP3   OH240780   2.114   2.567   0.873  0.0760  0.3861 -0.0078
 6382TIP3    H140781   2.150   2.479   0.872  0.7808  0.6643  0.5473
 6382TIP3    H240782   2.033   2.560   0.923 -0.2947 -0.1006 -0.6610
 6383TIP3   OH240783   4.071   1.640   4.212 -0.3767  0.5216  0.0118
 6383TIP3    H140784   4.083   1.619   4.119 -1.1388 -0.9737  0.2265
 6383TIP3    H240785   3.980   1.617   4.231 -0.1491  0.5177  1.2036
 6384TIP3   OH240786   1.583   4.891   1.841 -0.0653 -0.9019 -0.6673
 6384TIP3    H140787   1.632   4.971   1.863 -2.2569  0.4158 -0.2867
 6384TIP3    H240788   1.596   4.880   1.747  0.6813 -0.4073 -0.6308
 6385TIP3   OH240789   5.562   3.517   2.076  0.3962  0.2909 -0.2952
 6385TIP3    H140790   5.579   3.580   2.007 -1.4196  0.2476 -0.8174
 6385TIP3    H240791   5.511   3.448   2.034 -1.6822  0.7808  1.2623
 6386TIP3   OH240792   6.764   0.674   8.513  0.7545  0.0247 -0.0694
 6386TIP3    H140793   6.855   0.656   8.537  0.1927 -1.4964  1.1214
 6386TIP3    H240794   6.730   0.590   8.483 -0.0683  0.7487 -1.2708
 6387TIP3   OH240795   3.037   3.134   8.193  0.3390  0.3039 -0.0586
 6387TIP3    H140796   3.037   3.142   8.098  1.3205 -0.5549 -0.1478
 6387TIP3    H240797   3.126   3.156   8.219  0.3885 -0.5640  0.5535
 6388TIP3   OH240798   2.016   4.910   2.892 -0.0396  0.4326 -0.1472
 6388TIP3    H140799   2.103   4.935   2.923  0.1424 -1.4475  1.0598
 6388TIP3    H240800   1.972   4.993   2.873  0.9084  1.5937  2.3168
 6389TIP3   OH240801   2.268   0.146   1.226  0.2314  0.0342  0.3846
 6389TIP3    H140802   2.351   0.156   1.272  1.3321  1.8240 -1.8118
 6389TIP3    H240803   2.287   0.085   1.155 -0.3058  0.4967 -0.1685
 6390TIP3   OH240804   2.653   3.869   1.620  0.4652 -0.0880 -0.3650
 6390TIP3    H140805   2.594   3.934   1.659 -1.2132 -1.9537  0.3682
 6390TIP3    H240806   2.631   3.869   1.527  0.8884  0.7969 -0.4697
 6391TIP3   OH240807   5.810   4.780   3.206 -0.3419 -0.1422  0.0820
 6391TIP3    H140808   5.736   4.743   3.159 -0.0543  0.3637 -0.8011
 6391TIP3    H240809   5.847   4.707   3.255 -0.0168 -0.9502 -1.3167
 6392TIP3   OH240810   2.962   0.286   0.532 -0.6480 -0.2509 -0.1115
 6392TIP3    H140811   3.022   0.336   0.477  1.0551 -1.9689  0.0900
 6392TIP3    H240812   2.940   0.346   0.603 -1.4959  1.3894 -1.6490
 6393TIP3   OH240813   5.169   5.215   1.580  0.1422  0.5905  0.1019
 6393TIP3    H140814   5.220   5.243   1.504  0.9568 -0.3069  0.3028
 6393TIP3    H240815   5.222   5.148   1.622 -0.7098  0.4209  0.9583
 6394TIP3   OH240816   0.443   5.881   2.121  0.0045  0.5051 -0.3585
 6394TIP3    H140817   0.433   5.923   2.035 -1.0300  1.0926  0.0289
 6394TIP3    H240818   0.409   5.946   2.183  0.5660  0.0090  0.4843
 6395TIP3   OH240819   2.766   4.684   2.992  0.0804  0.0068 -0.3726
 6395TIP3    H140820   2.675   4.653   2.986 -0.3823  1.2424  0.0912
 6395TIP3    H240821   2.794   4.659   3.080 -0.7177  1.9391  0.4832
 6396TIP3   OH240822   2.443   6.351   2.192 -0.2266  0.1649  0.1109
 6396TIP3    H140823   2.510   6.294   2.154 -1.2001  0.1457 -1.6920
 6396TIP3    H240824   2.470   6.439   2.168 -2.3958  0.0222 -3.5439
 6397TIP3   OH240825   4.811   0.111   8.086  0.6094 -0.3806  0.1942
 6397TIP3    H140826   4.839   0.096   8.176  0.0237 -1.2375  0.2445
 6397TIP3    H240827   4.751   0.039   8.067 -0.7681  0.8303 -0.2557
 6398TIP3   OH240828   1.614   5.728   1.794  0.3002  0.3440 -0.3075
 6398TIP3    H140829   1.705   5.734   1.764 -0.1725  3.3719 -1.4654
 6398TIP3    H240830   1.564   5.778   1.730 -1.5576  2.4404  2.5095
 6399TIP3   OH240831   1.790   4.632   2.331  0.0212  0.1453  0.5316
 6399TIP3    H140832   1.808   4.620   2.237  0.1566  0.5456  0.5036
 6399TIP3    H240833   1.801   4.726   2.345  0.2581  0.0477  1.0059
 6400TIP3   OH240834   6.458   3.446   0.329 -0.0620 -0.4440 -0.1961
 6400TIP3    H140835   6.366   3.439   0.354  0.3781 -1.1010  1.3884
 6400TIP3    H240836   6.466   3.395   0.249 -1.1932  0.1765 -0.7322
 6401TIP3   OH240837   5.621   3.989   0.790  0.1972 -0.4260  0.1673
 6401TIP3    H140838   5.557   4.042   0.741  0.1837 -0.8691 -0.3069
 6401TIP3    H240839   5.621   3.905   0.745  0.0054 -0.9319  1.0998
 6402TIP3   OH240840   5.710   0.821   4.101 -0.2551 -0.0825 -0.0448
 6402TIP3    H140841   5.767   0.773   4.041 -1.1292 -1.2665  0.0365
 6402TIP3    H240842   5.770   0.863   4.163  0.5784 -0.2228 -0.7406
 6403TIP3   OH240843   4.093   2.537   7.999 -0.1277 -0.0372  0.4038
 6403TIP3    H140844   4.000   2.556   7.989 -0.0680  0.8634  1.3893
 6403TIP3    H240845   4.098   2.483   8.078  0.2130  0.2232  0.5633
 6404TIP3   OH240846   1.025   5.588   1.851  0.0130  0.0995  0.0348
 6404TIP3    H140847   1.001   5.554   1.937 -0.2364  1.2286  0.4224
 6404TIP3    H240848   0.958   5.554   1.792 -0.3638  0.1041  0.4547
 6405TIP3   OH240849   4.500   3.962   0.231 -0.0443 -0.0753  0.3754
 6405TIP3    H140850   4.477   3.985   0.141  0.8882 -0.3909  0.0457
 6405TIP3    H240851   4.595   3.946   0.228 -0.3577 -2.3750  0.9064
 6406TIP3   OH240852   1.746   4.295   1.419  0.0774 -0.6158 -0.1679
 6406TIP3    H140853   1.695   4.311   1.340  0.5786 -2.2630 -0.8537
 6406TIP3    H240854   1.689   4.239   1.473  0.0929 -0.2198  0.2743
 6407TIP3   OH240855   6.504   5.603   0.603 -0.9006 -0.1444 -0.7586
 6407TIP3    H140856   6.539   5.581   0.517 -0.2387  0.3585 -0.6287
 6407TIP3    H240857   6.513   5.522   0.653 -2.4504 -0.8128 -1.5035
 6408TIP3   OH240858   2.047   2.630   3.317  0.0807 -0.0595 -0.5746
 6408TIP3    H140859   2.008   2.654   3.401  0.2217 -1.0865 -0.1983
 6408TIP3    H240860   2.062   2.714   3.272 -0.9682  0.4413 -0.0228
 6409TIP3   OH240861   4.220   3.847   0.068  0.2304 -0.2347  0.3911
 6409TIP3    H140862   4.280   3.806   0.131  1.4866  0.2352 -0.4468
 6409TIP3    H240863   4.271   3.918   0.030 -0.6054 -0.3044 -0.9238
 6410TIP3   OH240864   4.336   5.320   2.875 -0.2867  0.3527 -0.1257
 6410TIP3    H140865   4.275   5.389   2.901  0.2525  1.4030 -1.5579
 6410TIP3    H240866   4.279   5.249   2.844 -0.8675  1.9466 -3.0346
 6411TIP3   OH240867   2.542   2.638   0.375  0.4020 -0.5483  0.6223
 6411TIP3    H140868   2.555   2.725   0.336 -1.7747 -1.9944 -4.1069
 6411TIP3    H240869   2.461   2.647   0.426  1.5042  0.6262  2.2892
 6412TIP3   OH240870   0.920   5.508   0.097  0.0460  0.0051  0.1344
 6412TIP3    H140871   0.952   5.450   0.166 -0.0918 -1.0236 -0.6361
 6412TIP3    H240872   0.889   5.586   0.143 -1.1423 -1.1359  1.3585
 6413TIP3   OH240873   3.044   3.553   1.398  0.0400  0.5515  0.4965
 6413TIP3    H140874   3.026   3.644   1.371  2.1781  0.2446 -2.5548
 6413TIP3    H240875   2.993   3.500   1.337  0.0087 -0.3264  1.2662
 6414TIP3   OH240876   5.432   5.708   1.174  0.2301 -0.5766  0.4891
 6414TIP3    H140877   5.448   5.635   1.114 -0.0919  0.2624 -0.6507
 6414TIP3    H240878   5.338   5.701   1.193 -0.0519  0.1802 -0.5265
 6415TIP3   OH240879   4.672   5.199   2.445 -0.1542  0.5704  0.2883
 6415TIP3    H140880   4.586   5.161   2.430  0.0286  0.2731 -0.0122
 6415TIP3    H240881   4.659   5.293   2.438 -0.0719  0.4703 -1.8263
 6416TIP3   OH240882   3.398   3.281   0.403 -0.2117 -0.2142  0.0547
 6416TIP3    H140883   3.489   3.305   0.420  0.1643 -0.2312 -1.7883
 6416TIP3    H240884   3.347   3.359   0.426 -0.1328 -1.0567  3.8041
 6417TIP3   OH240885   4.086   3.132   0.041  0.0906  0.1268  0.0837
 6417TIP3    H140886   4.160   3.145   0.100  0.0238 -0.7927  0.3732
 6417TIP3    H240887   4.034   3.063   0.082 -1.1776  1.0538  0.1222
 6418TIP3   OH240888   1.653   4.749   2.047 -0.3109  0.0749  0.2190
 6418TIP3    H140889   1.601   4.812   1.996 -1.1196 -0.0801  0.8440
 6418TIP3    H240890   1.713   4.804   2.098 -0.1404  0.2729 -0.1889
 6419TIP3   OH240891   6.379   1.490   0.739  0.2539  0.8137 -0.2362
 6419TIP3    H140892   6.419   1.423   0.683  2.1065  1.8259 -0.1992
 6419TIP3    H240893   6.453   1.527   0.788 -1.0397  1.3840  1.3579
 6420TIP3   OH240894   1.540   4.001   0.509  0.0911  0.4785  0.0817
 6420TIP3    H140895   1.506   3.994   0.598  0.0159 -1.5628 -0.0580
 6420TIP3    H240896   1.477   4.055   0.463 -1.5120 -0.9330  0.5324
 6421TIP3   OH240897   5.495   0.996   8.217 -0.2832 -1.2217  0.0140
 6421TIP3    H140898   5.446   0.917   8.239 -1.2494 -0.6175  0.1060
 6421TIP3    H240899   5.575   0.965   8.175 -0.6045 -2.2443  0.1468
 6422TIP3   OH240900   0.418   0.279   3.765  0.0979  0.1329 -0.5980
 6422TIP3    H140901   0.384   0.193   3.787 -0.5489  0.5029 -0.1080
 6422TIP3    H240902   0.494   0.291   3.823 -0.9230  0.6385  0.7033
 6423TIP3   OH240903   1.879   0.276   2.866  0.1554 -0.0550 -0.3741
 6423TIP3    H140904   1.970   0.304   2.860  0.2577 -0.4494 -0.6952
 6423TIP3    H240905   1.857   0.246   2.778  0.0832 -1.0488 -0.0376
 6424TIP3   OH240906   3.230   4.650   1.758 -0.1766 -0.5883 -0.9722
 6424TIP3    H140907   3.250   4.582   1.823 -1.6221 -1.0606 -0.9925
 6424TIP3    H240908   3.306   4.709   1.761 -1.2749  1.0012  3.1608
 6425TIP3   OH240909   4.550   2.403   0.937  0.4431 -0.0622  0.8068
 6425TIP3    H140910   4.506   2.431   1.017 -0.5635  0.1377  0.2080
 6425TIP3    H240911   4.525   2.310   0.927 -0.5654  0.2680  0.0331
 6426TIP3   OH240912   1.989   6.793   1.056  0.5001  0.7241 -0.0302
 6426TIP3    H140913   1.953   6.808   1.144 -0.0406  0.3324 -0.1792
 6426TIP3    H240914   1.971   6.701   1.039  2.1576  0.3439  0.1473
 6427TIP3   OH240915   3.498   1.925   0.507  0.6428 -0.0196  0.5824
 6427TIP3    H140916   3.453   1.903   0.426  1.4599  0.7519 -0.1084
 6427TIP3    H240917   3.433   1.913   0.576 -0.1819 -0.2758 -0.2322
 6428TIP3   OH240918   5.702   6.730   0.168  0.4371 -0.3764 -0.1659
 6428TIP3    H140919   5.786   6.685   0.158 -0.0855 -1.6948  0.9743
 6428TIP3    H240920   5.697   6.790   0.094  2.9071  0.6170  0.3815
 6429TIP3   OH240921   5.766   3.863   1.719  0.4650  0.3327  0.6005
 6429TIP3    H140922   5.766   3.779   1.673 -0.1422  0.7790 -0.2374
 6429TIP3    H240923   5.682   3.902   1.699 -0.0742  0.3148  2.5841
 6430TIP3   OH240924   6.193   5.852   2.306  0.2088  0.3659  0.0034
 6430TIP3    H140925   6.156   5.920   2.250  1.3640 -0.3804 -1.7750
 6430TIP3    H240926   6.158   5.870   2.393 -1.2443  1.9021 -0.8489
 6431TIP3   OH240927   3.310   5.089   3.193 -0.4471 -0.3431  0.3817
 6431TIP3    H140928   3.352   5.015   3.149  2.1857  1.4743 -0.4594
 6431TIP3    H240929   3.297   5.153   3.123  0.6934  1.3210  1.6131
 6432TIP3   OH240930   1.844   4.697   2.769  0.2363 -0.2308  0.0040
 6432TIP3    H140931   1.930   4.732   2.793 -0.7198  0.2402  3.1088
 6432TIP3    H240932   1.792   4.774   2.747  0.1409 -0.3849 -0.3262
 6433TIP3   OH240933   3.724   1.512   1.453 -0.2407  0.9213 -0.1184
 6433TIP3    H140934   3.732   1.470   1.367  1.1151 -0.3306  0.5975
 6433TIP3    H240935   3.798   1.572   1.457 -0.1348  0.7631  0.2875
 6434TIP3   OH240936   2.123   3.513   1.730 -0.0170 -0.0663 -0.3136
 6434TIP3    H140937   2.195   3.557   1.775  1.0863 -2.1417  0.0790
 6434TIP3    H240938   2.045   3.534   1.782  0.7115  0.1917  0.7024
 6435TIP3   OH240939   5.504   4.212   1.792  0.1479  0.8491 -0.1342
 6435TIP3    H140940   5.545   4.142   1.842 -1.1199  0.4921  0.4456
 6435TIP3    H240941   5.499   4.177   1.703  0.3821  0.5901 -0.0483
 6436TIP3   OH240942   1.439   4.359   2.286  0.1860  0.0949  0.3772
 6436TIP3    H140943   1.472   4.408   2.211  0.7089 -1.7075 -0.6148
 6436TIP3    H240944   1.476   4.403   2.362  1.8165  0.3749 -0.5480
 6437TIP3   OH240945   0.961   2.082   1.822 -0.0758 -0.1029  0.2573
 6437TIP3    H140946   0.973   2.002   1.873 -0.1107  0.1804  0.7233
 6437TIP3    H240947   0.916   2.054   1.743 -0.2624 -0.5160  0.5045
 6438TIP3   OH240948   4.198   3.306   1.512 -0.0240  0.2076 -0.4331
 6438TIP3    H140949   4.175   3.358   1.436  0.1757  0.3669 -0.3860
 6438TIP3    H240950   4.287   3.276   1.494  0.7031  1.6866  0.5041
 6439TIP3   OH240951   0.041   1.985   3.127 -0.1009 -0.5963  0.0840
 6439TIP3    H140952   0.000   2.044   3.191 -2.4604 -0.7844 -1.1493
 6439TIP3    H240953   0.120   1.953   3.171 -0.5336  0.8799  2.0706
 6440TIP3   OH240954   4.639   4.732   1.629  0.3066  0.5526  0.0013
 6440TIP3    H140955   4.562   4.741   1.684  0.1051 -1.0836  0.0476
 6440TIP3    H240956   4.683   4.817   1.633 -0.9849  1.2029  0.7256
 6441TIP3   OH240957   5.823   6.273   1.206 -0.5926 -0.3349  0.5078
 6441TIP3    H140958   5.894   6.279   1.269 -2.5088  0.9087  2.7157
 6441TIP3    H240959   5.846   6.199   1.150  3.1847  0.9866  0.0059
 6442TIP3   OH240960   5.575   3.230   3.228  0.2671  0.7624 -0.4289
 6442TIP3    H140961   5.550   3.159   3.288  2.1995  1.5763  1.4475
 6442TIP3    H240962   5.491   3.267   3.200 -0.7740  1.0174  2.6488
 6443TIP3   OH240963   0.416   6.300   2.001 -0.5419  0.2721 -0.4025
 6443TIP3    H140964   0.397   6.393   2.016  0.7138  0.5370 -0.3383
 6443TIP3    H240965   0.469   6.299   1.921  1.2655 -0.1422  0.7357
 6444TIP3   OH240966   5.310   6.375   2.196  0.3150 -0.1311  0.4328
 6444TIP3    H140967   5.311   6.295   2.248 -0.0944  0.4944  1.4390
 6444TIP3    H240968   5.232   6.367   2.141  1.2986 -1.2532 -0.8665
 6445TIP3   OH240969   3.518   1.256   1.235 -0.2735 -0.2418 -0.4995
 6445TIP3    H140970   3.604   1.218   1.254  0.5552  2.0736  0.7993
 6445TIP3    H240971   3.471   1.251   1.318 -0.2300  1.2397 -0.3636
 6446TIP3   OH240972   3.051   1.131   0.873 -0.0566  0.4600  0.4621
 6446TIP3    H140973   3.132   1.166   0.908  0.0999  2.0470 -1.3055
 6446TIP3    H240974   2.998   1.208   0.851 -1.2812 -0.4935 -0.1119
 6447TIP3   OH240975   1.053   6.779   0.558  0.0240 -0.3373  0.4652
 6447TIP3    H140976   1.127   6.825   0.597  0.3641  0.7883 -1.4164
 6447TIP3    H240977   1.090   6.729   0.486 -1.0598  0.5131 -0.7287
 6448TIP3   OH240978   3.212   2.768   1.096 -0.0375  0.2548  0.2923
 6448TIP3    H140979   3.134   2.786   1.043  0.2301 -0.4652 -0.3783
 6448TIP3    H240980   3.181   2.707   1.163 -0.0085 -0.2310 -0.1278
 6449TIP3   OH240981   2.573   3.799   0.537  0.3299 -0.2150 -0.4462
 6449TIP3    H140982   2.556   3.726   0.597  1.7569 -0.4543 -0.2982
 6449TIP3    H240983   2.644   3.768   0.481  0.6641  0.9114 -0.6745
 6450TIP3   OH240984   0.720   5.931   2.591  0.5099  0.1185  0.1101
 6450TIP3    H140985   0.651   5.993   2.567  1.1615  1.3418  1.2488
 6450TIP3    H240986   0.703   5.854   2.537 -1.2419  0.6999 -0.2403
 6451TIP3   OH240987   4.148   4.498   2.626 -0.5457  0.0816 -0.2047
 6451TIP3    H140988   4.072   4.449   2.596 -1.5442  2.4706 -2.0069
 6451TIP3    H240989   4.116   4.588   2.636  2.0777  1.3007 -1.5451
 6452TIP3   OH240990   5.916   2.649   3.877 -0.1314 -0.0945  0.4688
 6452TIP3    H140991   5.959   2.627   3.960  1.5168  0.4774 -0.1845
 6452TIP3    H240992   5.940   2.578   3.818  0.2114  0.4138 -0.0079
 6453TIP3   OH240993   2.502   4.626   3.823  0.1885  0.4988  0.1956
 6453TIP3    H140994   2.430   4.681   3.853 -0.9170 -0.8858  0.1738
 6453TIP3    H240995   2.459   4.552   3.779  1.6246 -0.3638  0.1794
 6454TIP3   OH240996   2.866   4.558   2.763  0.2841 -1.3729  0.5408
 6454TIP3    H140997   2.846   4.628   2.701  1.1860 -2.2047 -0.7328
 6454TIP3    H240998   2.845   4.596   2.849  2.7961  1.2546  0.1525
 6455TIP3   OH240999   0.523   1.127   3.119 -0.0046 -0.5165  0.2515
 6455TIP3    H141000   0.462   1.071   3.072 -1.4546  1.3805 -0.2763
 6455TIP3    H241001   0.470   1.165   3.190  1.0736 -0.2524  0.9305
 6456TIP3   OH241002   0.209   0.106   2.880 -0.0714 -0.4247  0.4338
 6456TIP3    H141003   0.290   0.100   2.929 -0.7574  0.8290  1.8133
 6456TIP3    H241004   0.159   0.175   2.924 -0.6660  0.9535 -2.1305
 6457TIP3   OH241005   4.065   5.358   1.109 -0.4449 -0.3569 -0.2268
 6457TIP3    H141006   3.999   5.379   1.042  0.0161  0.9986 -0.2964
 6457TIP3    H241007   4.014   5.351   1.190 -0.6621  1.3022 -0.1653
 6458TIP3   OH241008   1.867   3.058   2.098  0.3186  0.2034  0.2068
 6458TIP3    H141009   1.931   2.994   2.127 -1.5820 -1.3551  1.2266
 6458TIP3    H241010   1.810   3.009   2.039  0.3507  1.6792 -1.1078
 6459TIP3   OH241011   5.073   1.016   0.545  0.2446 -0.3383  0.0565
 6459TIP3    H141012   5.000   1.070   0.577 -0.6423 -0.8833 -0.9380
 6459TIP3    H241013   5.066   0.935   0.594  2.3181  0.7905  2.4321
 6460TIP3   OH241014   0.143   0.221   2.551 -0.1062 -0.4534  0.1404
 6460TIP3    H141015   0.125   0.223   2.457  2.1827 -2.0201 -0.4160
 6460TIP3    H241016   0.141   0.128   2.574 -0.5927 -0.0922  1.6532
 6461TIP3   OH241017   1.227   5.773   1.564  0.3644 -0.1904  0.1479
 6461TIP3    H141018   1.194   5.708   1.502 -0.6573  1.2618 -0.9023
 6461TIP3    H241019   1.151   5.796   1.618  1.0158 -0.7381  1.3593
 6462TIP3   OH241020   2.733   0.633   3.109 -0.1139  0.3156  0.0142
 6462TIP3    H141021   2.681   0.594   3.179 -0.6254 -1.5727 -1.3455
 6462TIP3    H241022   2.685   0.712   3.084 -1.3125 -0.3670  0.0831
 6463TIP3   OH241023   0.172   2.054   0.295 -0.5697  0.0992  0.2589
 6463TIP3    H141024   0.084   2.017   0.306 -1.2917  0.5787 -2.9389
 6463TIP3    H241025   0.183   2.061   0.201  2.7069  0.6556  0.5719
 6464TIP3   OH241026   5.994   5.783   1.543  0.2582  0.2181 -0.3907
 6464TIP3    H141027   6.005   5.722   1.470 -2.8166 -0.8391 -0.1030
 6464TIP3    H241028   5.940   5.854   1.507 -1.6309 -0.5071  0.8606
 6465TIP3   OH241029   0.086   0.069   1.580  0.6662  0.0625  0.3038
 6465TIP3    H141030   0.163   0.025   1.543 -0.4170 -2.2862  0.6018
 6465TIP3    H241031   0.115   0.103   1.664  0.6531 -4.0875  2.2281
 6466TIP3   OH241032   4.688   0.616   1.764  0.4388 -0.0394  0.8135
 6466TIP3    H141033   4.647   0.542   1.809  1.2822 -1.5338 -0.7216
 6466TIP3    H241034   4.779   0.589   1.752  0.8515  1.4042  0.4665
 6467TIP3   OH241035   2.517   0.842   1.002  0.2169 -0.0842 -0.1345
 6467TIP3    H141036   2.464   0.882   0.933  0.3046 -0.2750 -0.3135
 6467TIP3    H241037   2.538   0.914   1.062  1.3365  0.3755 -1.0464
 6468TIP3   OH241038   0.647   2.750   3.575  0.2775  0.3950  0.3653
 6468TIP3    H141039   0.670   2.801   3.497  0.7424  0.5001  0.5703
 6468TIP3    H241040   0.705   2.782   3.643 -1.3270  1.5526  1.2483
 6469TIP3   OH241041   6.497   3.665   0.478 -0.1512 -0.7411  0.3882
 6469TIP3    H141042   6.494   3.593   0.415 -0.9325 -1.2617  0.9948
 6469TIP3    H241043   6.405   3.681   0.499  0.0956 -0.4888  1.2951
 6470TIP3   OH241044   4.228   1.207   0.650 -0.4971  0.4325  0.0120
 6470TIP3    H141045   4.268   1.206   0.738 -0.8345 -1.1294  0.1859
 6470TIP3    H241046   4.266   1.131   0.606 -0.4454  1.1165 -1.1648
 6471TIP3   OH241047   6.669   6.591   3.013  0.0165 -0.0927 -0.8136
 6471TIP3    H141048   6.649   6.503   2.982 -1.7564 -0.5022  1.2648
 6471TIP3    H241049   6.724   6.577   3.090 -2.0906  0.4161  0.8770
 6472TIP3   OH241050   5.805   2.354   4.009  0.2547  0.0864  0.2746
 6472TIP3    H141051   5.897   2.340   4.029 -0.3887 -2.8121  1.7401
 6472TIP3    H241052   5.762   2.358   4.095 -1.2433 -0.9995 -0.3716
 6473TIP3   OH241053   5.908   1.691   1.672  0.4671  0.0729  0.0480
 6473TIP3    H141054   6.004   1.681   1.669  0.5729  0.6773  1.0417
 6473TIP3    H241055   5.889   1.711   1.763 -0.8784 -2.3954  0.4059
 6474TIP3   OH241056   6.417   3.770   2.678 -0.1319 -0.2970  0.1401
 6474TIP3    H141057   6.504   3.735   2.700  0.5310  1.0038 -0.3469
 6474TIP3    H241058   6.429   3.810   2.592 -1.3210 -0.4171 -0.0903
 6475TIP3   OH241059   2.702   6.136   1.594  0.4827  0.1085  0.7328
 6475TIP3    H141060   2.772   6.077   1.622  1.3836  0.7168 -0.1684
 6475TIP3    H241061   2.635   6.127   1.661  0.5143 -2.0708  0.5464
 6476TIP3   OH241062   3.336   0.672   0.510 -0.4008 -0.0838  0.4336
 6476TIP3    H141063   3.426   0.675   0.477 -0.7165  3.0238 -0.4238
 6476TIP3    H241064   3.344   0.689   0.604 -0.0298 -1.3033  0.6393
 6477TIP3   OH241065   6.210   1.393   0.350 -0.8982 -0.6395  0.1057
 6477TIP3    H141066   6.268   1.366   0.279 -3.8332 -0.5503 -2.5430
 6477TIP3    H241067   6.251   1.471   0.386  0.7634 -0.7433 -1.4090
 6478TIP3   OH241068   0.535   4.649   0.244 -0.0602  0.3941 -0.3034
 6478TIP3    H141069   0.546   4.716   0.311  2.2525 -2.3622  2.3989
 6478TIP3    H241070   0.450   4.609   0.265  0.2946  0.0540  0.5378
 6479TIP3   OH241071   0.145   2.791   3.055 -0.0494  0.4856 -0.4911
 6479TIP3    H141072   0.069   2.769   3.108 -0.6027 -1.1466 -1.8469
 6479TIP3    H241073   0.220   2.779   3.114 -0.7042 -0.1880  0.2322
 6480TIP3   OH241074   1.314   5.231   2.549  0.3537 -0.4939  0.1359
 6480TIP3    H141075   1.321   5.143   2.586 -0.1563 -0.1387  1.1290
 6480TIP3    H241076   1.282   5.284   2.622  2.2074  0.8459  0.0464
 6481TIP3   OH241077   1.885   3.579   8.527  0.2300  0.2407 -0.2543
 6481TIP3    H141078   1.804   3.628   8.511 -1.6286 -2.3232  0.4951
 6481TIP3    H241079   1.926   3.571   8.441 -1.3005  0.0852 -1.0114
 6482TIP3   OH241080   6.454   0.730   3.712 -0.2641  0.1014 -0.1154
 6482TIP3    H141081   6.442   0.703   3.803 -0.3912  1.1579  0.1940
 6482TIP3    H241082   6.380   0.789   3.694 -0.5881 -0.5635 -1.1035
 6483TIP3   OH241083   4.848   1.332   0.196  0.2273 -0.1478  0.3966
 6483TIP3    H141084   4.942   1.332   0.178  0.0474 -1.4771 -0.7316
 6483TIP3    H241085   4.837   1.391   0.271  1.8582  0.5865  0.0810
 6484TIP3   OH241086   1.370   0.128   1.779 -0.0182 -0.9515  0.1474
 6484TIP3    H141087   1.458   0.136   1.817 -0.1873 -0.2358  0.4074
 6484TIP3    H241088   1.367   0.039   1.744  1.1017 -0.7153 -0.6077
 6485TIP3   OH241089   3.618   5.500   1.597  0.2279  0.0534  0.4382
 6485TIP3    H141090   3.701   5.541   1.574  0.3203 -1.0932 -1.4686
 6485TIP3    H241091   3.552   5.564   1.571  0.4566  0.3603  0.6017
 6486TIP3   OH241092   5.943   3.254   1.112  0.0525 -0.3296 -0.1519
 6486TIP3    H141093   6.024   3.207   1.090  0.0581 -0.4862  0.2076
 6486TIP3    H241094   5.962   3.345   1.089  1.5659  0.3092  3.0659
 6487TIP3   OH241095   5.686   2.550   1.251 -0.3734 -0.1529  0.3783
 6487TIP3    H141096   5.695   2.627   1.195 -0.6669  0.2092  0.8202
 6487TIP3    H241097   5.670   2.586   1.339  1.8336 -0.6667  1.0602
 6488TIP3   OH241098   0.239   2.880   2.054 -0.7246 -0.0858  0.4804
 6488TIP3    H141099   0.276   2.939   2.120 -2.7850  0.2658  1.4151
 6488TIP3    H241100   0.256   2.924   1.970 -0.0885  0.6277  0.9726
 6489TIP3   OH241101   0.408   0.930   4.412 -0.1193 -0.3248 -0.0653
 6489TIP3    H141102   0.495   0.901   4.439 -1.1162 -1.7578  1.8673
 6489TIP3    H241103   0.390   0.880   4.332  0.5709 -0.5010 -0.1209
 6490TIP3   OH241104   3.389   2.432   0.309 -0.2361 -0.7133 -0.3637
 6490TIP3    H141105   3.318   2.410   0.248 -0.5393 -0.8834  0.0445
 6490TIP3    H241106   3.405   2.351   0.357 -3.1531  0.4176  2.9973
 6491TIP3   OH241107   4.735   0.477   0.034  0.0190  0.3860  0.0873
 6491TIP3    H141108   4.692   0.532  -0.031 -0.9018  0.0261  0.3658
 6491TIP3    H241109   4.673   0.405   0.049  0.6245 -0.0286  0.6746
 6492TIP3   OH241110   6.422   4.879   3.034  0.3186  0.5274 -0.4924
 6492TIP3    H141111   6.341   4.886   2.984  0.5110  3.9170 -0.5779
 6492TIP3    H241112   6.435   4.967   3.072  2.6269 -0.5880  1.6425
 6493TIP3   OH241113   3.494   6.804   2.890 -0.1187 -0.3275 -0.2520
 6493TIP3    H141114   3.415   6.853   2.914 -0.2208  0.5026 -2.0952
 6493TIP3    H241115   3.560   6.872   2.873  0.8434 -0.9898  0.6428
 6494TIP3   OH241116   3.992   3.488   0.484  0.4252 -0.0460  0.0061
 6494TIP3    H141117   4.045   3.418   0.448  0.1851 -0.3973  0.3286
 6494TIP3    H241118   4.054   3.560   0.499  0.7029 -0.2534 -0.1519
 6495TIP3   OH241119   4.712   6.165   3.658  0.0412  0.0128 -0.0671
 6495TIP3    H141120   4.657   6.239   3.633 -0.3710 -0.5102 -0.7531
 6495TIP3    H241121   4.755   6.192   3.739  0.8328  1.4782 -0.9338
 6496TIP3   OH241122   6.010   0.915   1.575 -0.1426 -0.4364 -0.8846
 6496TIP3    H141123   6.052   0.989   1.620 -0.1115 -1.6472  1.2019
 6496TIP3    H241124   6.026   0.932   1.482  1.1793  1.3841 -0.3974
 6497TIP3   OH241125   6.347   6.494   0.120  0.7368  0.4117  0.1272
 6497TIP3    H141126   6.433   6.452   0.125  1.9521  2.9478  2.6013
 6497TIP3    H241127   6.365   6.583   0.090 -1.0483  0.9794  0.6316
 6498TIP3   OH241128   2.034   1.460   2.465 -0.1216 -0.4212  0.0005
 6498TIP3    H141129   2.097   1.500   2.405 -0.5834  0.4314  0.0691
 6498TIP3    H241130   2.064   1.369   2.475  0.4396 -0.3364 -0.8511
 6499TIP3   OH241131   4.886   5.767   0.338  0.1615 -0.8466 -0.1081
 6499TIP3    H141132   4.963   5.781   0.393 -0.1398  3.1202 -0.4230
 6499TIP3    H241133   4.822   5.726   0.396  1.4384 -1.2413  1.0832
 6500TIP3   OH241134   0.110   0.880   0.386 -0.0984  0.9039 -0.2741
 6500TIP3    H141135   0.135   0.967   0.353  0.5490  0.0987 -2.0214
 6500TIP3    H241136   0.056   0.843   0.316 -1.4048  0.3518  0.9872
 6501TIP3   OH241137   0.617   5.304   1.317  0.2125 -0.6702  0.4693
 6501TIP3    H141138   0.555   5.360   1.363  1.6958  1.7325 -0.3229
 6501TIP3    H241139   0.681   5.279   1.383  0.0690 -0.6917  0.6022
 6502TIP3   OH241140   1.191   4.513   8.259  0.0190 -0.7149  0.7208
 6502TIP3    H141141   1.191   4.583   8.194 -1.1702  0.0982  1.5661
 6502TIP3    H241142   1.283   4.486   8.265  0.4174  0.4338  0.0308
 6503TIP3   OH241143   6.125   4.421   0.301 -0.6266  0.4097  0.1941
 6503TIP3    H141144   6.084   4.344   0.340 -0.9288 -0.2169 -1.2893
 6503TIP3    H241145   6.072   4.439   0.223  1.0624  0.4326 -0.9959
 6504TIP3   OH241146   4.731   1.780   8.748 -0.3543 -0.6805 -0.2542
 6504TIP3    H141147   4.821   1.810   8.735 -0.5204 -0.5984 -1.2556
 6504TIP3    H241148   4.698   1.833   8.820 -0.1924  0.5816 -1.0815
 6505TIP3   OH241149   2.420   3.528   2.270  0.3030 -0.2046 -0.3203
 6505TIP3    H141150   2.408   3.509   2.362  1.0615 -0.2713 -0.2227
 6505TIP3    H241151   2.350   3.588   2.247 -0.0256 -0.3759  0.2391
 6506TIP3   OH241152   2.818   1.219   2.964 -0.5462 -0.5073  0.2491
 6506TIP3    H141153   2.832   1.131   2.999 -1.6550 -0.7302  0.1494
 6506TIP3    H241154   2.723   1.231   2.965 -0.3637  1.2102  1.5366
 6507TIP3   OH241155   3.551   0.092   4.173  0.2681  0.3713  0.1003
 6507TIP3    H141156   3.587   0.180   4.173  0.6615  0.2133  0.2451
 6507TIP3    H241157   3.476   0.097   4.233 -0.3189  0.8416 -0.6562
 6508TIP3   OH241158   5.557   6.593   3.053 -0.8410  0.3925 -0.4403
 6508TIP3    H141159   5.575   6.502   3.032  2.2710  1.0152 -0.9343
 6508TIP3    H241160   5.482   6.616   2.997 -1.5198 -1.7451 -0.4760
 6509TIP3   OH241161   1.471   0.511   2.230  0.4882  0.6046  0.0060
 6509TIP3    H141162   1.549   0.483   2.182  0.6498 -1.5267  1.3597
 6509TIP3    H241163   1.412   0.436   2.224 -1.2856  1.9811 -0.5574
 6510TIP3   OH241164   4.109   2.253   0.083 -0.3754  0.5205  0.1488
 6510TIP3    H141165   4.174   2.202   0.033  0.7797  1.0265  1.0824
 6510TIP3    H241166   4.117   2.220   0.172 -2.2946 -0.2456  0.0862
 6511TIP3   OH241167   0.097   2.970   8.657 -0.5409 -0.1949  0.0640
 6511TIP3    H141168   0.178   2.923   8.676 -0.9382 -0.9390 -0.0276
 6511TIP3    H241169   0.125   3.053   8.619  0.1652 -0.8697 -0.9395
 6512TIP3   OH241170   0.785   6.410   3.353  0.0233 -0.0772  0.6156
 6512TIP3    H141171   0.871   6.444   3.328 -0.3575  2.1342  2.0518
 6512TIP3    H241172   0.802   6.321   3.383  1.5158 -0.2790 -0.6988
 6513TIP3   OH241173   0.820   6.813   0.962 -0.6721  0.7656 -0.8371
 6513TIP3    H141174   0.834   6.726   0.999 -1.3126  1.3399  0.8494
 6513TIP3    H241175   0.906   6.854   0.964 -0.3561  0.1849 -1.6870
 6514TIP3   OH241176   5.899   2.519   0.572  0.1558 -0.5723  0.0002
 6514TIP3    H141177   5.830   2.477   0.623  1.4933 -1.9939  0.7096
 6514TIP3    H241178   5.853   2.557   0.497 -1.6231  0.1274  1.3730
 6515TIP3   OH241179   2.056   5.110   1.236  0.5133  0.3682  0.0268
 6515TIP3    H141180   2.099   5.177   1.183 -0.1913  0.8467  0.0470
 6515TIP3    H241181   2.096   5.028   1.208  0.2843  0.6313 -1.1204
 6516TIP3   OH241182   2.590   5.545   2.313 -0.1499 -0.0256 -0.7360
 6516TIP3    H141183   2.660   5.602   2.345 -0.4428 -0.3086  0.4579
 6516TIP3    H241184   2.512   5.574   2.360 -1.2681  1.4298 -3.3077
 6517TIP3   OH241185   0.232   4.885   1.239 -0.5177  0.6332  0.5248
 6517TIP3    H141186   0.211   4.867   1.331  1.2837  0.1025  0.8858
 6517TIP3    H241187   0.289   4.962   1.242 -0.4693  0.6278 -0.1373
 6518TIP3   OH241188   6.451   3.925   3.191 -0.9451 -0.1989 -0.6080
 6518TIP3    H141189   6.397   3.967   3.124 -0.9387 -0.4162 -0.7514
 6518TIP3    H241190   6.408   3.841   3.208 -0.8150 -0.2477 -0.5146
 6519TIP3   OH241191   1.337   2.634   2.656 -0.0453  0.4054  0.3300
 6519TIP3    H141192   1.292   2.673   2.732 -1.9293 -0.9539 -0.0283
 6519TIP3    H241193   1.392   2.565   2.693 -1.2351 -0.4940  0.4526
 6520TIP3   OH241194   0.699   2.765   2.964 -0.4263  0.0259  0.0062
 6520TIP3    H141195   0.776   2.713   2.987 -0.9274 -0.1094  1.5078
 6520TIP3    H241196   0.698   2.765   2.868  1.2869 -0.1799 -0.0499
 6521TIP3   OH241197   1.920   0.205   2.598 -0.0077  0.6133 -0.3203
 6521TIP3    H141198   1.924   0.112   2.574 -1.8381  0.4801 -0.2301
 6521TIP3    H241199   1.839   0.236   2.558 -0.6777  1.5743  1.6834
 6522TIP3   OH241200   3.053   6.609   8.456 -0.2419 -0.0877  0.0861
 6522TIP3    H141201   3.059   6.530   8.510 -2.4230  0.5378  1.3438
 6522TIP3    H241202   3.130   6.604   8.399  0.4637 -2.3683  1.1032
 6523TIP3   OH241203   4.356   6.658   8.550 -0.2302 -0.1695 -0.3981
 6523TIP3    H141204   4.447   6.636   8.532 -0.7837 -1.7571 -1.4584
 6523TIP3    H241205   4.339   6.734   8.494  0.8951  1.2528  1.1158
 6524TIP3   OH241206   4.902   2.905   0.771  0.3087  0.4059  0.4898
 6524TIP3    H141207   4.850   2.985   0.778 -0.1561  0.2140 -0.6612
 6524TIP3    H241208   4.877   2.866   0.687  1.2928 -0.4125  0.5504
 6525TIP3   OH241209   5.999   6.482   2.585 -0.3338 -0.0640 -0.4141
 6525TIP3    H141210   5.976   6.509   2.496 -2.0333 -0.0455 -0.0119
 6525TIP3    H241211   5.977   6.558   2.640 -0.9304 -0.6734  0.2100
 6526TIP3   OH241212   0.452   5.989   1.876 -0.5293  0.2723 -0.4346
 6526TIP3    H141213   0.395   6.047   1.825 -0.0994 -0.6315 -2.0547
 6526TIP3    H241214   0.528   5.974   1.819  2.0862  2.5168  2.1847
 6527TIP3   OH241215   6.513   4.959   1.701  0.4895  0.0643  0.0937
 6527TIP3    H141216   6.511   4.969   1.797  0.5651 -0.3454  0.1425
 6527TIP3    H241217   6.598   4.918   1.684  0.1539 -0.5760 -0.0723
 6528TIP3   OH241218   3.765   2.753   0.955 -0.0201  0.4354 -0.4472
 6528TIP3    H141219   3.742   2.722   0.867  0.4250 -1.8934  0.1757
 6528TIP3    H241220   3.721   2.692   1.014  0.4645  1.3717  0.9381
 6529TIP3   OH241221   5.271   6.091   1.081  0.6928 -0.0294  0.7835
 6529TIP3    H141222   5.344   6.138   1.120  1.2581 -1.3204  1.3452
 6529TIP3    H241223   5.251   6.022   1.144 -1.7171  0.9146  1.1379
 6530TIP3   OH241224   6.125   5.489   1.732  0.4294  0.5795 -0.4717
 6530TIP3    H141225   6.166   5.475   1.817  1.3553  2.8113 -0.4640
 6530TIP3    H241226   6.173   5.431   1.673  0.0705 -0.6711  0.4225
 6531TIP3   OH241227   6.410   1.342   3.944 -0.2121 -0.1911  0.0861
 6531TIP3    H141228   6.340   1.408   3.946  0.8027  1.1004 -2.6468
 6531TIP3    H241229   6.371   1.269   3.896 -0.2396 -0.2040  0.1275
 6532TIP3   OH241230   4.520   4.708   2.209  0.1073  0.3887  0.1624
 6532TIP3    H141231   4.487   4.693   2.297  0.5875 -1.1808  0.1130
 6532TIP3    H241232   4.611   4.735   2.221 -0.0081  0.7777  0.1657
 6533TIP3   OH241233   2.804   0.279   2.599  0.1439 -0.5235 -0.3329
 6533TIP3    H141234   2.782   0.198   2.643 -0.6733 -0.5814 -0.8313
 6533TIP3    H241235   2.749   0.346   2.640 -0.4164 -0.5290 -1.0622
 6534TIP3   OH241236   3.228   3.327   0.794 -0.6969  0.2131  0.3433
 6534TIP3    H141237   3.194   3.306   0.707  0.5399 -1.4881  0.2202
 6534TIP3    H241238   3.265   3.244   0.826  1.4589  1.4539  1.2916
 6535TIP3   OH241239   5.545   6.111   1.512  0.6663 -0.6582  0.4774
 6535TIP3    H141240   5.636   6.104   1.542  0.4838  0.2917  1.2971
 6535TIP3    H241241   5.516   6.197   1.542  0.6110  0.6593 -2.8907
 6536TIP3   OH241242   1.227   1.072   2.438 -0.1693  0.5758 -0.0374
 6536TIP3    H141243   1.208   1.141   2.502 -1.9082 -0.7507  0.9402
 6536TIP3    H241244   1.223   1.117   2.354  0.6479  2.0472  0.6637
 6537TIP3   OH241245   1.898   4.377   3.295 -0.3387 -0.3236 -0.1239
 6537TIP3    H141246   1.984   4.413   3.317 -0.1602 -0.9446  0.2063
 6537TIP3    H241247   1.845   4.454   3.273 -0.3998  0.3094  2.0280
 6538TIP3   OH241248   3.076   4.707   4.224 -0.3383 -0.1710  0.2655
 6538TIP3    H141249   3.145   4.758   4.266 -2.1488  1.2810  1.6271
 6538TIP3    H241250   3.038   4.767   4.160 -0.7823 -0.7471 -0.0218
 6539TIP3   OH241251   5.938   6.068   1.009  0.1941  0.2942  0.1366
 6539TIP3    H141252   5.911   6.106   0.925  0.8160 -3.2162 -1.8363
 6539TIP3    H241253   5.868   6.006   1.031  0.5951  0.3355  1.6750
 6540TIP3   OH241254   1.741   4.154   0.378  0.1988  0.2547 -0.5430
 6540TIP3    H141255   1.765   4.079   0.325  0.5693  0.5824 -0.8427
 6540TIP3    H241256   1.696   4.117   0.454  1.3692 -0.3419 -0.1229
 6541TIP3   OH241257   3.433   2.165   2.275  0.0793  0.1842  0.7166
 6541TIP3    H141258   3.403   2.088   2.227  0.6250  1.9259 -2.7846
 6541TIP3    H241259   3.353   2.204   2.310 -0.6056 -0.3447 -0.1979
 6542TIP3   OH241260   0.490   3.486   1.151 -1.0102  0.3116 -1.1597
 6542TIP3    H141261   0.513   3.465   1.060 -0.1276 -1.4753 -0.5878
 6542TIP3    H241262   0.505   3.404   1.198 -1.6067  1.1594  0.5779
 6543TIP3   OH241263   2.504   2.748   0.792 -0.2761 -0.2872  0.2496
 6543TIP3    H141264   2.409   2.758   0.799 -0.4047 -1.1065 -0.2322
 6543TIP3    H241265   2.517   2.697   0.712  0.6177  0.5906 -0.1903
 6544TIP3   OH241266   4.248   4.699   2.134 -0.1457  0.0190  0.3938
 6544TIP3    H141267   4.194   4.620   2.135 -0.0303 -0.0626  1.6437
 6544TIP3    H241268   4.334   4.669   2.105 -0.6634  0.1001 -1.3295
 6545TIP3   OH241269   6.810   4.232   2.883  0.0461 -0.1348  0.1001
 6545TIP3    H141270   6.838   4.177   2.810 -0.4980 -0.8590  0.4352
 6545TIP3    H241271   6.717   4.248   2.867  0.0168  0.0313  0.4294
 6546TIP3   OH241272   0.825   4.191   2.210 -0.5556  0.3583  0.3010
 6546TIP3    H141273   0.833   4.276   2.253 -3.1022  3.1321 -3.8976
 6546TIP3    H241274   0.733   4.168   2.219 -0.5964 -0.2522 -1.3253
 6547TIP3   OH241275   0.281   2.996   3.555 -0.2938  0.1373  0.3959
 6547TIP3    H141276   0.289   2.905   3.582 -1.6462 -0.2466 -0.3972
 6547TIP3    H241277   0.314   2.998   3.465  1.7836  0.9012  1.1139
 6548TIP3   OH241278   2.738   4.061   0.640  0.6195 -0.1571  0.2944
 6548TIP3    H141279   2.703   4.085   0.554 -4.0041 -1.8103  1.4201
 6548TIP3    H241280   2.782   3.977   0.626 -1.1986 -1.0591 -0.4122
 6549TIP3   OH241281   4.121   4.112   2.649 -0.5080  0.2706 -0.0053
 6549TIP3    H141282   4.215   4.101   2.666 -0.4801  0.2147 -0.1964
 6549TIP3    H241283   4.085   4.024   2.660 -0.4390  0.1712 -0.5551
 6550TIP3   OH241284   3.157   1.525   0.748 -0.1246  0.7890  0.6541
 6550TIP3    H141285   3.068   1.556   0.732  0.1985  1.7065  0.5325
 6550TIP3    H241286   3.180   1.563   0.833  1.2012  3.1017 -0.6524
 6551TIP3   OH241287   1.265   3.587   2.508 -0.9857 -0.4334  0.2118
 6551TIP3    H141288   1.277   3.583   2.413 -0.7318 -0.6743  0.2509
 6551TIP3    H241289   1.209   3.512   2.528 -1.9400  0.2389  0.1257
 6552TIP3   OH241290   3.667   2.467   2.790 -0.1864  0.2713  0.1093
 6552TIP3    H141291   3.584   2.429   2.818 -0.8665  1.0268 -0.8579
 6552TIP3    H241292   3.651   2.561   2.786  0.6496  0.4036 -0.3254
 6553TIP3   OH241293   1.086   0.343   1.096 -0.0798 -0.3790  0.0411
 6553TIP3    H141294   1.007   0.344   1.042  0.1937  1.7872 -0.4198
 6553TIP3    H241295   1.061   0.392   1.175  0.8624  0.5762 -0.2411
 6554TIP3   OH241296   2.581   2.311   3.888 -0.1859 -0.2897  0.5455
 6554TIP3    H141297   2.584   2.289   3.795  0.8317 -2.0677  0.9361
 6554TIP3    H241298   2.495   2.349   3.902 -0.0589  0.7442 -1.2548
 6555TIP3   OH241299   1.051   1.025   0.808 -0.8699 -0.2533 -0.2739
 6555TIP3    H141300   1.143   1.012   0.785 -0.4929  2.1952 -0.4463
 6555TIP3    H241301   1.053   1.057   0.898 -1.3888  1.2187 -0.7567
 6556TIP3   OH241302   2.838   1.137   8.129 -1.0179  0.6287 -0.6191
 6556TIP3    H141303   2.771   1.175   8.186  1.5322  2.3203  1.4863
 6556TIP3    H241304   2.828   1.043   8.141 -1.3064  0.9012  1.8511
 6557TIP3   OH241305   1.549   3.014   1.555 -0.4085  0.0181 -0.2319
 6557TIP3    H141306   1.472   3.007   1.498 -0.2074 -0.6750 -0.4318
 6557TIP3    H241307   1.580   2.924   1.564 -0.5663  0.0914  1.1779
 6558TIP3   OH241308   0.026   1.495   8.523  0.1516  0.1098 -0.6805
 6558TIP3    H141309   0.013   1.498   8.618 -1.2092 -1.1502 -0.7949
 6558TIP3    H241310   0.033   1.587   8.497  0.7096  0.4679  0.6463
 6559TIP3   OH241311   3.976   1.263   2.287  0.0800  0.0313 -0.7149
 6559TIP3    H141312   4.059   1.308   2.273  0.2402 -0.2873 -0.7995
 6559TIP3    H241313   3.913   1.333   2.302  0.0970  0.3500 -2.0208
 6560TIP3   OH241314   5.288   3.537   2.768  0.1276  0.4503 -0.1392
 6560TIP3    H141315   5.382   3.542   2.752 -0.1032  0.2136 -1.6585
 6560TIP3    H241316   5.263   3.627   2.791  0.7674  0.4471  0.5882
 6561TIP3   OH241317   5.079   1.299   4.440  0.1398  0.6039  0.2829
 6561TIP3    H141318   5.004   1.354   4.462  1.2284  1.8758  0.9916
 6561TIP3    H241319   5.117   1.340   4.362  0.1607  0.0063 -0.0337
 6562TIP3   OH241320   5.346   3.082   2.732  0.0184 -0.0193  0.2005
 6562TIP3    H141321   5.372   3.152   2.792  0.2805 -0.4728  0.6263
 6562TIP3    H241322   5.275   3.120   2.680 -0.7135  0.1607  1.2869
 6563TIP3   OH241323   3.252   5.746   3.259 -0.4251  0.3217  0.3712
 6563TIP3    H141324   3.255   5.667   3.312  0.0407  2.1050  3.2068
 6563TIP3    H241325   3.341   5.781   3.262 -0.9767  1.8073  0.6457
 6564TIP3   OH241326   5.495   2.987   0.312 -0.0038 -0.1206 -0.1457
 6564TIP3    H141327   5.583   2.964   0.343  0.8861  2.4086 -0.5805
 6564TIP3    H241328   5.441   2.912   0.337  1.6267 -0.4350  3.0110
 6565TIP3   OH241329   3.243   3.153   2.411 -0.0787  0.2340 -0.0652
 6565TIP3    H141330   3.205   3.190   2.491 -2.3043  0.8969 -1.3536
 6565TIP3    H241331   3.275   3.067   2.438 -0.4597  0.5814  1.6219
 6566TIP3   OH241332   4.581   4.125   2.344 -0.1026 -0.3013 -0.4739
 6566TIP3    H141333   4.485   4.130   2.337 -0.3266  0.3821  2.2422
 6566TIP3    H241334   4.597   4.059   2.410  1.3728 -0.8811 -1.3627
 6567TIP3   OH241335   1.830   0.373   8.161 -0.1392 -0.2249  0.6897
 6567TIP3    H141336   1.895   0.353   8.094  0.8924 -0.0263  1.5981
 6567TIP3    H241337   1.806   0.465   8.145  0.8454  0.1281  1.1880
 6568TIP3   OH241338   1.353   0.926   1.319  0.0348  0.3345 -0.2232
 6568TIP3    H141339   1.344   0.862   1.248  1.3063 -0.0889 -0.0264
 6568TIP3    H241340   1.350   0.874   1.399 -1.0464  0.7762  0.0369
 6569TIP3   OH241341   0.635   2.229   1.734  0.1612 -0.0183  0.0888
 6569TIP3    H141342   0.662   2.213   1.644  0.7708  0.7471  0.1277
 6569TIP3    H241343   0.641   2.143   1.776  1.0192 -0.1576 -0.3049
 6570TIP3   OH241344   2.464   5.971   2.521  0.1722  0.2320 -0.2742
 6570TIP3    H141345   2.420   6.054   2.537  0.9099  0.5465  0.1788
 6570TIP3    H241346   2.423   5.937   2.441 -2.2681 -0.4508  1.1532
 6571TIP3   OH241347   4.459   0.095   2.576  0.4095 -0.3454 -0.7867
 6571TIP3    H141348   4.378   0.108   2.626  0.4780  2.6688 -1.2669
 6571TIP3    H241349   4.523   0.067   2.641 -0.6052 -1.1751 -0.1025
 6572TIP3   OH241350   1.324   3.507   0.206  0.5638 -0.5122 -0.4730
 6572TIP3    H141351   1.397   3.549   0.159 -1.2919  0.9285 -2.2405
 6572TIP3    H241352   1.258   3.575   0.214 -0.7588 -1.8765  0.7694
 6573TIP3   OH241353   2.455   3.817   2.699 -0.6976  0.1870 -0.7833
 6573TIP3    H141354   2.511   3.747   2.667 -0.1522  0.7626 -1.1117
 6573TIP3    H241355   2.431   3.866   2.620  0.6275  1.6059 -0.3562
 6574TIP3   OH241356   4.701   4.858   1.974  0.1599  0.5392  0.2348
 6574TIP3    H141357   4.748   4.916   1.915 -1.1764  0.5311 -0.9031
 6574TIP3    H241358   4.741   4.772   1.960  0.4963  0.7195  0.0719
 6575TIP3   OH241359   1.018   3.823   3.767  0.0946 -0.2567  0.2536
 6575TIP3    H141360   0.962   3.812   3.690  0.4555  0.2136 -0.0826
 6575TIP3    H241361   1.029   3.734   3.801  1.1028 -0.6919 -1.0876
 6576TIP3   OH241362   1.877   1.013   0.184 -0.0826 -0.0613  0.3502
 6576TIP3    H141363   1.812   1.038   0.119 -0.1899 -2.0060 -0.3244
 6576TIP3    H241364   1.887   1.092   0.238  0.1606  1.6970 -2.0817
 6577TIP3   OH241365   5.726   1.001   1.195 -0.2534 -0.1246  0.1056
 6577TIP3    H141366   5.784   1.063   1.239  0.5504 -0.6813 -0.1511
 6577TIP3    H241367   5.737   0.919   1.244  3.3420 -1.8122 -3.0480
 6578TIP3   OH241368   0.386   0.890   2.573 -0.4246  0.3171 -0.5286
 6578TIP3    H141369   0.367   0.932   2.657 -2.0357 -0.0463 -0.6873
 6578TIP3    H241370   0.418   0.962   2.518 -0.7366  0.8417 -0.0402
 6579TIP3   OH241371   5.567   3.501   0.002  0.1980  0.1318 -0.1614
 6579TIP3    H141372   5.583   3.489  -0.091  1.7268 -1.3296  0.2429
 6579TIP3    H241373   5.630   3.444   0.045 -0.2136  1.0557  1.7898
 6580TIP3   OH241374   5.229   0.544   0.448 -0.1810 -0.3941 -1.0025
 6580TIP3    H141375   5.197   0.540   0.358 -0.2360  0.5892 -1.0404
 6580TIP3    H241376   5.172   0.485   0.497  0.4281 -1.6443 -1.7694
 6581TIP3   OH241377   3.644   1.906   1.492 -0.0213  0.7069  0.4433
 6581TIP3    H141378   3.713   1.840   1.498  0.2819  0.9061 -0.6161
 6581TIP3    H241379   3.676   1.968   1.427 -0.1723  2.0797  1.6359
 6582TIP3   OH241380   3.251   3.016   2.109  0.0013  0.2055 -0.0046
 6582TIP3    H141381   3.334   3.043   2.147 -0.0721 -0.5145  0.6941
 6582TIP3    H241382   3.189   3.086   2.131 -0.5750 -1.1097  3.1342
 6583TIP3   OH241383   6.276   0.313   0.147  0.7678 -0.0534  0.0194
 6583TIP3    H141384   6.284   0.263   0.065  1.9452  0.3361 -0.1333
 6583TIP3    H241385   6.272   0.404   0.119 -1.0629 -0.0108  0.3138
 6584TIP3   OH241386   0.495   4.067   3.753 -0.5266 -0.1098 -0.2042
 6584TIP3    H141387   0.554   4.120   3.806  0.4682 -0.5600 -0.8461
 6584TIP3    H241388   0.450   4.011   3.817  0.5996 -0.5971  0.1875
 6585TIP3   OH241389   2.125   2.983   0.249 -0.3831 -0.3684 -0.4900
 6585TIP3    H141390   2.129   2.910   0.187  0.6330 -0.8954  0.1599
 6585TIP3    H241391   2.123   3.061   0.195  0.1680 -0.8299 -1.1955
 6586TIP3   OH241392   1.852   0.368   1.880  0.2717  0.2878  0.5451
 6586TIP3    H141393   1.805   0.408   1.806 -0.8015 -2.7829 -0.6006
 6586TIP3    H241394   1.869   0.278   1.851  0.2836 -0.8767  3.8305
 6587TIP3   OH241395   3.611   3.980   3.062  0.4767 -0.3108  0.2839
 6587TIP3    H141396   3.580   4.024   3.141  0.4267 -2.0196  1.2498
 6587TIP3    H241397   3.551   3.907   3.050 -0.1400  0.4711 -1.9430
 6588TIP3   OH241398   1.676   5.055   0.332  0.2801  0.3757  0.7432
 6588TIP3    H141399   1.634   5.073   0.417 -0.3763 -1.8909  0.9784
 6588TIP3    H241400   1.713   4.967   0.343  1.3574  0.5964 -0.9057
 6589TIP3   OH241401   6.123   2.001   2.974 -0.3321  0.2863 -0.6396
 6589TIP3    H141402   6.128   1.937   3.045  0.2556  1.9288  0.8660
 6589TIP3    H241403   6.030   2.021   2.967 -0.3388  0.5547  0.1048
 6590TIP3   OH241404   2.990   2.158   2.542  0.1851  0.3402  0.2856
 6590TIP3    H141405   2.953   2.201   2.619 -1.8402  0.4795 -0.7347
 6590TIP3    H241406   2.956   2.069   2.546 -0.3451  0.4918 -0.7219
 6591TIP3   OH241407   4.901   6.619   0.381  0.0608  0.1299 -0.3633
 6591TIP3    H141408   4.987   6.592   0.348  0.5088 -0.1235  0.9488
 6591TIP3    H241409   4.851   6.538   0.387 -0.4758  0.3478 -1.6491
 6592TIP3   OH241410   3.345   2.560   0.976  0.0522  0.3334 -0.2980
 6592TIP3    H141411   3.286   2.488   0.952  0.6939  0.0005 -0.9291
 6592TIP3    H241412   3.287   2.629   1.007 -0.6049 -0.3306 -0.0043
 6593TIP3   OH241413   2.950   2.856   0.247 -0.1032 -0.0122  0.3231
 6593TIP3    H141414   2.969   2.878   0.338  0.3146 -0.4607  0.3445
 6593TIP3    H241415   3.015   2.905   0.197  0.1874 -0.4134  0.3115
 6594TIP3   OH241416   2.998   4.352   0.515  0.1142  0.3131  0.5817
 6594TIP3    H141417   3.019   4.260   0.500 -0.0150  0.2927  0.5185
 6594TIP3    H241418   2.919   4.350   0.569 -0.7000  0.3715 -0.5436
 6595TIP3   OH241419   1.552   4.711   8.714  0.0588 -0.2076  0.0062
 6595TIP3    H141420   1.498   4.714   8.635  0.1828  1.6934 -0.0682
 6595TIP3    H241421   1.489   4.697   8.785 -0.0408 -2.0412 -0.3957
 6596TIP3   OH241422   0.899   6.565   8.258  0.1123  0.0133  0.7263
 6596TIP3    H141423   0.903   6.506   8.183  0.9492 -0.7781  1.3693
 6596TIP3    H241424   0.828   6.626   8.237 -0.6843 -1.1298 -0.0149
 6597TIP3   OH241425   1.107   0.338   2.130  0.3097  0.0929  0.5630
 6597TIP3    H141426   1.060   0.398   2.189  0.3189 -1.0207  1.7428
 6597TIP3    H241427   1.178   0.302   2.183 -1.0539 -2.7058  0.6795
 6598TIP3   OH241428   1.063   0.124   1.829 -0.0823  0.9312 -0.3440
 6598TIP3    H141429   0.977   0.164   1.818  0.0074  1.4816  0.8210
 6598TIP3    H241430   1.124   0.195   1.811  0.0918  1.0691  0.7366
 6599TIP3   OH241431   1.147   4.918   1.829 -0.1455 -0.0655 -0.1928
 6599TIP3    H141432   1.148   4.946   1.921  0.1316  1.3714 -0.6107
 6599TIP3    H241433   1.190   4.989   1.782  0.4377 -1.1491 -1.3499
 6600TIP3   OH241434   6.662   6.148   2.625 -0.5057  0.0686 -0.2713
 6600TIP3    H141435   6.576   6.120   2.656  0.5977 -1.8276  1.2943
 6600TIP3    H241436   6.714   6.160   2.705  0.3960  2.3646 -1.1118
 6601TIP3   OH241437   2.835   2.509   0.796  0.0446  0.2373 -0.1281
 6601TIP3    H141438   2.783   2.539   0.871 -0.7334  2.5048 -1.4510
 6601TIP3    H241439   2.817   2.574   0.728 -0.0834 -2.2402 -2.6506
 6602TIP3   OH241440   5.639   6.332   2.707  0.4253 -0.2756  0.4395
 6602TIP3    H141441   5.584   6.348   2.784  0.5787  1.1929  0.2669
 6602TIP3    H241442   5.661   6.239   2.712 -0.0170 -0.3231  1.8707
 6603TIP3   OH241443   6.091   4.345   7.873  0.4423 -0.1254  0.0928
 6603TIP3    H141444   6.038   4.385   7.804  1.9201  1.9141  0.0670
 6603TIP3    H241445   6.054   4.379   7.954  0.5302 -0.2249  0.1748
 6604TIP3   OH241446   1.370   6.401   1.803  0.2585  0.2420  0.1131
 6604TIP3    H141447   1.412   6.321   1.833  0.1436  0.6902  1.5107
 6604TIP3    H241448   1.307   6.423   1.872 -0.3880  1.0265 -0.6978
 6605TIP3   OH241449   3.742   4.198   2.882 -0.1303 -0.3204  0.3972
 6605TIP3    H141450   3.667   4.247   2.848 -1.8216 -2.2341  1.1660
 6605TIP3    H241451   3.762   4.134   2.813 -0.3282 -0.9418  0.9099
 6606TIP3   OH241452   5.249   1.169   0.369 -0.5771 -0.2435  0.1535
 6606TIP3    H141453   5.205   1.233   0.313 -1.2056 -1.5369 -0.9150
 6606TIP3    H241454   5.182   1.142   0.432 -0.8662 -1.0278 -0.4565
 6607TIP3   OH241455   5.483   0.120   2.309  0.6114  0.0394  0.1603
 6607TIP3    H141456   5.501   0.047   2.369  1.3473 -0.3355 -0.5117
 6607TIP3    H241457   5.433   0.081   2.238 -1.7703  0.7911  1.2870
 6608TIP3   OH241458   4.816   6.063   0.450 -0.0401  0.1166 -0.3176
 6608TIP3    H141459   4.837   5.978   0.411  0.5731 -0.4413  1.1224
 6608TIP3    H241460   4.722   6.073   0.436 -0.3235 -1.2954  0.3450
 6609TIP3   OH241461   2.345   4.967   1.083  0.0478  0.4469 -0.1614
 6609TIP3    H141462   2.342   5.011   0.998  2.3217 -2.0473 -1.6800
 6609TIP3    H241463   2.413   5.013   1.132  0.1244  0.6572 -0.4644
 6610TIP3   OH241464   5.812   5.040   3.318  0.3749  0.3296  0.6298
 6610TIP3    H141465   5.722   5.050   3.350  0.2390 -1.0315  0.7381
 6610TIP3    H241466   5.818   4.948   3.292  1.0583  0.9323 -1.5076
 6611TIP3   OH241467   6.363   0.457   2.575  0.5650  0.3949  0.4272
 6611TIP3    H141468   6.367   0.468   2.670  1.3925  0.7448  0.3579
 6611TIP3    H241469   6.443   0.498   2.543  0.7610 -0.5572 -0.3429
 6612TIP3   OH241470   3.675   2.573   3.682 -0.4582  0.0973  0.2651
 6612TIP3    H141471   3.723   2.527   3.613  2.0849 -0.6603  2.3849
 6612TIP3    H241472   3.629   2.504   3.729 -3.4901  0.7716 -1.4650
 6613TIP3   OH241473   3.966   1.219   0.735 -0.5350  0.1698  0.6581
 6613TIP3    H141474   4.059   1.220   0.756 -0.5558 -2.2806  1.1355
 6613TIP3    H241475   3.959   1.163   0.658 -1.5688  0.6744  0.3671
 6614TIP3   OH241476   5.290   2.835   2.946  0.0719 -0.0959  0.2417
 6614TIP3    H141477   5.226   2.836   3.017  1.7273 -0.2844  1.8281
 6614TIP3    H241478   5.295   2.926   2.916 -0.9288 -0.0901  0.0694
 6615TIP3   OH241479   4.034   1.528   1.647  0.0440  0.5705  0.1353
 6615TIP3    H141480   4.103   1.582   1.686 -0.7848  1.8630 -0.1205
 6615TIP3    H241481   4.072   1.496   1.565  0.2655  1.4682 -0.1193
 6616TIP3   OH241482   5.963   4.413   0.804 -0.0914  0.1322 -0.1100
 6616TIP3    H141483   5.974   4.508   0.797  2.3371 -0.1841 -2.0448
 6616TIP3    H241484   5.913   4.389   0.726 -2.6425 -0.0396  1.4672
 6617TIP3   OH241485   4.015   0.451   2.873  0.5488 -0.0567 -0.8190
 6617TIP3    H141486   4.020   0.546   2.878  0.9590  0.0871 -2.9777
 6617TIP3    H241487   4.105   0.423   2.854  0.9798 -1.1535  2.2770
 6618TIP3   OH241488   2.880   5.117   0.241  0.0965 -0.7848  0.5508
 6618TIP3    H141489   2.864   5.161   0.157  0.4042 -0.2469  0.7639
 6618TIP3    H241490   2.797   5.122   0.287  0.1046 -0.4827  0.5404
 6619TIP3   OH241491   6.288   6.405   2.617  0.3976  0.0685  0.4744
 6619TIP3    H141492   6.197   6.428   2.638  0.4559 -0.1803  1.0085
 6619TIP3    H241493   6.341   6.467   2.668  0.5303  0.5175 -0.1907
 6620TIP3   OH241494   6.134   2.235   3.242  0.4253 -0.4601 -0.1431
 6620TIP3    H141495   6.198   2.254   3.174  0.9696  0.5923  0.6392
 6620TIP3    H241496   6.052   2.271   3.209  0.5919 -0.3406 -0.4270
 6621TIP3   OH241497   3.652   6.229   0.932  0.8185 -0.2048 -0.1307
 6621TIP3    H141498   3.685   6.164   0.870 -0.7839  1.9793 -3.5678
 6621TIP3    H241499   3.700   6.309   0.912 -0.2688  0.7767  0.9828
 6622TIP3   OH241500   1.864   0.470   1.487  0.2159  0.4423  0.0093
 6622TIP3    H141501   1.847   0.492   1.395  1.5464 -1.0633 -0.6568
 6622TIP3    H241502   1.919   0.541   1.519  0.6897  0.4209 -0.7220
 6623TIP3   OH241503   2.049   0.274   7.953  0.2944  0.2674 -0.0052
 6623TIP3    H141504   2.043   0.367   7.928  0.0799  0.0211 -0.9213
 6623TIP3    H241505   2.103   0.235   7.884  0.3781 -0.2902  0.3757
 6624TIP3   OH241506   5.964   0.203   0.358  0.2781 -0.5391 -0.3997
 6624TIP3    H141507   6.026   0.152   0.307  0.5364 -2.3229  1.5628
 6624TIP3    H241508   5.940   0.275   0.300  3.7453 -0.0254 -1.4452
 6625TIP3   OH241509   2.969   6.804   8.204  0.5466  0.1675 -0.0020
 6625TIP3    H141510   2.989   6.755   8.284  1.0544 -0.7625 -0.6815
 6625TIP3    H241511   2.883   6.843   8.221  1.1936  1.0361  1.4736
 6626TIP3   OH241512   0.527   0.750   2.278 -0.0933 -0.6187  0.7753
 6626TIP3    H141513   0.579   0.817   2.322 -0.7634  0.2656  0.2694
 6626TIP3    H241514   0.571   0.668   2.297  2.6083  0.2453 -1.1826
 6627TIP3   OH241515   3.302   6.027   2.061 -0.2021 -0.2426  0.0540
 6627TIP3    H141516   3.240   6.066   2.123  0.0538 -1.6244  1.2308
 6627TIP3    H241517   3.383   6.076   2.075 -0.5251  0.3971 -0.2379
 6628TIP3   OH241518   1.535   1.849   3.476  0.4071  0.0028 -0.4762
 6628TIP3    H141519   1.463   1.903   3.507  0.1805 -0.1281 -0.7653
 6628TIP3    H241520   1.537   1.774   3.536  0.1861 -0.0808 -0.5691
 6629TIP3   OH241521   0.188   3.210   0.036 -0.5500  0.4205 -0.7816
 6629TIP3    H141522   0.187   3.296  -0.005 -0.5702  0.1828 -1.2921
 6629TIP3    H241523   0.117   3.213   0.100  1.4909  1.9149  1.6387
 6630TIP3   OH241524   3.206   3.431   1.858 -0.2510  0.8014 -0.3368
 6630TIP3    H141525   3.254   3.512   1.838 -0.5566  1.1158  0.1665
 6630TIP3    H241526   3.155   3.414   1.779 -1.9274  2.3753  0.3240
 6631TIP3   OH241527   3.617   5.829   8.636 -0.2996  0.0447  0.4085
 6631TIP3    H141528   3.654   5.794   8.555 -0.9675  1.4558 -0.5469
 6631TIP3    H241529   3.524   5.837   8.618 -0.5496 -0.1417  1.5358
 6632TIP3   OH241530   3.414   5.915   2.832  0.3020 -0.6566 -0.3284
 6632TIP3    H141531   3.393   5.892   2.922  0.3005 -1.3120 -0.4880
 6632TIP3    H241532   3.335   5.958   2.799  0.3712 -0.2466  0.0381
 6633TIP3   OH241533   5.278   1.453   1.923 -0.3059 -0.3635  0.4141
 6633TIP3    H141534   5.372   1.468   1.930 -0.5171  1.0961  0.3249
 6633TIP3    H241535   5.266   1.363   1.956  0.9540 -0.1087  1.6713
 6634TIP3   OH241536   2.958   5.093   8.587 -0.3088  0.5138 -0.3850
 6634TIP3    H141537   2.987   5.184   8.590 -0.6698  0.6169  0.2582
 6634TIP3    H241538   3.017   5.051   8.524 -0.3110  1.2435 -0.8825
 6635TIP3   OH241539   0.532   2.741   1.560  0.0069  0.1500  0.2869
 6635TIP3    H141540   0.513   2.756   1.653 -1.5489  1.1426 -0.1618
 6635TIP3    H241541   0.622   2.708   1.560 -0.3927 -1.1766  2.2504
 6636TIP3   OH241542   3.016   5.394   3.451  0.6136 -0.4164 -0.6740
 6636TIP3    H141543   2.975   5.363   3.532  1.0009 -1.2951 -0.7960
 6636TIP3    H241544   3.096   5.342   3.443  1.6337  1.0787 -0.5837
 6637TIP3   OH241545   0.009   2.225   3.311 -0.1053  0.2330 -0.4971
 6637TIP3    H141546  -0.082   2.252   3.310 -0.2088 -0.0139  0.8358
 6637TIP3    H241547   0.059   2.306   3.299 -0.4641  0.6666  0.8172
 6638TIP3   OH241548   0.816   2.441   2.952 -0.1302 -0.0672  0.3680
 6638TIP3    H141549   0.722   2.455   2.941 -0.4514 -2.8403 -1.2352
 6638TIP3    H241550   0.848   2.416   2.866  1.2894 -2.8721  1.5529
 6639TIP3   OH241551   0.573   5.908   0.179 -0.0020  0.0169 -0.4684
 6639TIP3    H141552   0.596   5.997   0.154  0.1560 -0.0659 -0.6246
 6639TIP3    H241553   0.521   5.917   0.258  0.7645  0.1987  0.0242
 6640TIP3   OH241554   3.886   2.029   8.411  0.1591  0.6222  0.0807
 6640TIP3    H141555   3.917   2.117   8.394 -0.3180  0.5896 -0.9772
 6640TIP3    H241556   3.922   2.007   8.497  0.8556  1.5753  0.0364
 6641TIP3   OH241557   2.181   2.089   8.102 -0.3528  0.1488  0.0088
 6641TIP3    H141558   2.145   2.093   8.191 -2.6260  1.1937 -0.8816
 6641TIP3    H241559   2.154   2.003   8.069  0.6588 -0.3204  0.3507
 6642TIP3   OH241560   6.190   3.485   3.078 -0.8475 -0.3199 -0.8456
 6642TIP3    H141561   6.270   3.437   3.100 -0.7361 -0.0758 -0.7039
 6642TIP3    H241562   6.154   3.439   3.002 -1.5036 -1.4726  0.1431
 6643TIP3   OH241563   1.612   0.362   3.560 -0.0628  0.1706  0.2187
 6643TIP3    H141564   1.581   0.452   3.553  0.7719  0.5140  0.8059
 6643TIP3    H241565   1.535   0.312   3.589 -0.6370  0.6133 -0.5129
 6644TIP3   OH241566   5.890   1.004   1.923 -0.0100 -0.2117 -0.4084
 6644TIP3    H141567   5.796   1.003   1.904 -0.4921  1.0541  1.6322
 6644TIP3    H241568   5.904   0.925   1.975  0.0343 -0.3294 -0.5981
 6645TIP3   OH241569   5.162   0.280   3.657 -0.3405  0.1555  0.1242
 6645TIP3    H141570   5.175   0.342   3.729  1.1103 -1.1954  1.1020
 6645TIP3    H241571   5.128   0.201   3.700  0.2487 -0.5661 -0.7066
 6646TIP3   OH241572   5.214   5.778   1.709 -0.2719  0.4001 -0.3486
 6646TIP3    H141573   5.169   5.750   1.630 -1.3937  1.9296 -0.2929
 6646TIP3    H241574   5.265   5.854   1.682 -1.2621  1.4052  0.5282
 6647TIP3   OH241575   4.744   1.859   2.311 -0.2945 -0.1527 -0.3741
 6647TIP3    H141576   4.836   1.878   2.293  0.2145  0.4646  2.3698
 6647TIP3    H241577   4.740   1.854   2.407 -2.6221 -2.8397 -0.5028
 6648TIP3   OH241578   4.519   5.479   4.001  0.1544 -0.5253  0.3576
 6648TIP3    H141579   4.449   5.529   4.043  0.5194  1.1785 -0.9632
 6648TIP3    H241580   4.543   5.412   4.066  0.0881  1.4106  2.5215
 6649TIP3   OH241581   2.050   3.833   3.353 -0.3300 -0.0322  0.3068
 6649TIP3    H141582   2.116   3.782   3.307  0.5189  1.1054  0.2240
 6649TIP3    H241583   2.071   3.821   3.446  0.8103  1.3381  0.2534
 6650TIP3   OH241584   0.461   3.917   2.316  0.3615  0.1814  0.4069
 6650TIP3    H141585   0.494   4.000   2.281  0.1095 -0.2132 -0.7770
 6650TIP3    H241586   0.523   3.896   2.387  1.0060  0.8738  0.0708
 6651TIP3   OH241587   2.308   5.763   3.602  0.5811  0.0475 -0.0110
 6651TIP3    H141588   2.239   5.718   3.650  0.6580 -1.8209 -1.5338
 6651TIP3    H241589   2.355   5.813   3.669  0.0910 -1.6566  1.7058
 6652TIP3   OH241590   3.190   5.107   2.030  0.8045 -0.1251  0.1579
 6652TIP3    H141591   3.126   5.127   2.098  1.9711  0.2307  1.1824
 6652TIP3    H241592   3.172   5.016   2.006  0.4877 -0.3151  1.0729
 6653TIP3   OH241593   0.572   4.592   8.396 -0.9277  0.1080 -0.1528
 6653TIP3    H141594   0.552   4.612   8.488 -4.0965 -1.4595 -0.3671
 6653TIP3    H241595   0.550   4.672   8.349  0.2940  0.7701  0.3446
 6654TIP3   OH241596   6.120   3.002   2.929  0.0210  0.3375  0.9154
 6654TIP3    H141597   6.183   3.052   2.980  0.3212  1.0099 -0.0819
 6654TIP3    H241598   6.152   2.912   2.932  0.9180  0.6387  0.5939
 6655TIP3   OH241599   4.564   0.539   2.143 -0.2392  0.2170 -0.2038
 6655TIP3    H141600   4.546   0.484   2.219  0.5166  0.5738  0.2373
 6655TIP3    H241601   4.483   0.589   2.130  0.1398  1.2745  1.2987
 6656TIP3   OH241602   4.156   2.596   2.155 -0.0528 -0.4450  1.0199
 6656TIP3    H141603   4.174   2.638   2.239 -0.1787  1.9672 -0.0718
 6656TIP3    H241604   4.065   2.619   2.135  0.6751  1.1101 -0.8391
 6657TIP3   OH241605   1.178   1.098   0.213 -0.6818  0.6983  0.4216
 6657TIP3    H141606   1.260   1.076   0.256  1.3988  0.6783 -3.1666
 6657TIP3    H241607   1.200   1.171   0.155 -2.9487  0.1165 -1.3165
 6658TIP3   OH241608   2.752   4.532   0.245  0.5443 -0.1105  0.5605
 6658TIP3    H141609   2.770   4.625   0.230  0.4821 -0.0328  0.9459
 6658TIP3    H241610   2.826   4.486   0.204 -0.2393  0.0115 -1.0663
 6659TIP3   OH241611   3.585   5.605   2.145  0.4442 -0.1219 -0.1126
 6659TIP3    H141612   3.493   5.613   2.120  0.2834  4.0566  1.0214
 6659TIP3    H241613   3.633   5.634   2.067  0.6250  0.1354  0.0917
 6660TIP3   OH241614   0.941   3.317   0.977  0.4756  0.2729 -0.0426
 6660TIP3    H141615   0.860   3.340   0.932  0.6178  1.9343  0.4769
 6660TIP3    H241616   0.913   3.297   1.066  0.5907  0.5094  0.0470
 6661TIP3   OH241617   6.003   3.512   0.567 -0.3526 -0.1510 -0.4116
 6661TIP3    H141618   5.923   3.491   0.614  0.6635 -1.5392  0.7605
 6661TIP3    H241619   6.057   3.559   0.631  1.6206 -3.2820  0.4263
 6662TIP3   OH241620   2.526   3.069   3.179 -0.5606  0.2763 -0.3315
 6662TIP3    H141621   2.526   2.976   3.198  0.7204  0.3771  0.2784
 6662TIP3    H241622   2.581   3.078   3.101 -1.4572  0.4291 -0.9573
 6663TIP3   OH241623   3.851   3.898   1.734  0.0623 -0.0012  0.3992
 6663TIP3    H141624   3.933   3.945   1.749  0.4379 -0.6298  0.3668
 6663TIP3    H241625   3.874   3.806   1.744 -0.7474 -0.1636  0.8526
 6664TIP3   OH241626   1.549   2.501   2.786 -0.1415  0.1285 -0.0678
 6664TIP3    H141627   1.570   2.456   2.868  3.2206  0.4902 -0.5789
 6664TIP3    H241628   1.600   2.455   2.719  1.5625  3.1083 -1.0013
 6665TIP3   OH241629   2.333   3.066   3.368  0.6511  0.0010  0.0831
 6665TIP3    H141630   2.373   3.084   3.282 -1.6452  0.0784 -1.0504
 6665TIP3    H241631   2.303   3.151   3.398 -0.5155 -0.3341 -0.1041
 6666TIP3   OH241632   6.373   0.030   4.346 -0.0969 -0.0534 -0.3566
 6666TIP3    H141633   6.420  -0.038   4.298 -0.9994  0.4179 -1.9839
 6666TIP3    H241634   6.301   0.056   4.288 -0.7248  1.1794  0.8896
 6667TIP3   OH241635   5.317   0.272   1.646 -0.4177  0.3129  0.1687
 6667TIP3    H141636   5.245   0.242   1.591 -0.7025  1.5951 -0.1716
 6667TIP3    H241637   5.385   0.298   1.584 -1.0018  2.4365  0.3397
 6668TIP3   OH241638   2.356   1.646   0.579 -0.2980 -0.3929  0.1838
 6668TIP3    H141639   2.425   1.609   0.635 -0.2875 -1.0109 -0.2294
 6668TIP3    H241640   2.313   1.711   0.635  1.0390  0.4923  0.2437
 6669TIP3   OH241641   3.364   0.985   8.298 -0.2860 -0.7426 -0.8143
 6669TIP3    H141642   3.354   0.905   8.350 -0.6655 -1.1211 -1.4601
 6669TIP3    H241643   3.288   0.985   8.240 -0.1693 -0.0218 -0.9655
 6670TIP3   OH241644   3.930   5.616   2.483 -0.3065  0.0292 -0.3453
 6670TIP3    H141645   3.851   5.650   2.526 -1.6323 -2.0266 -0.9919
 6670TIP3    H241646   3.980   5.574   2.552 -1.1093 -0.9340 -0.3248
 6671TIP3   OH241647   3.270   4.014   0.076 -0.0346 -0.0232 -0.0469
 6671TIP3    H141648   3.233   3.985  -0.007 -1.2884  2.2186 -0.3415
 6671TIP3    H241649   3.361   4.036   0.056 -0.4240  0.8431 -0.9452
 6672TIP3   OH241650   1.299   4.117   0.935 -0.6974 -0.3885  0.4344
 6672TIP3    H141651   1.386   4.148   0.909  0.2886 -1.2994  2.4666
 6672TIP3    H241652   1.245   4.129   0.856  1.2908  0.0172 -0.9376
 6673TIP3   OH241653   0.992   4.037   1.666 -0.4283  0.0696  0.0223
 6673TIP3    H141654   0.967   3.980   1.739  0.5990 -0.5582 -0.0882
 6673TIP3    H241655   0.924   4.023   1.600  0.2752 -1.7841 -0.3833
 6674TIP3   OH241656   6.660   6.644   2.694 -0.2506  0.1335  0.5393
 6674TIP3    H141657   6.684   6.719   2.749 -1.1100  0.6088  0.2729
 6674TIP3    H241658   6.653   6.679   2.606 -3.2252  0.3742  0.7544
 6675TIP3   OH241659   4.084   6.324   1.838  0.7829 -0.4892  0.6940
 6675TIP3    H141660   4.126   6.394   1.789  0.1748 -0.3158  0.4085
 6675TIP3    H241661   4.024   6.283   1.775  2.2800 -2.3123  0.3638
 6676TIP3   OH241662   3.210   5.973   0.071 -0.1729  0.2258  0.4720
 6676TIP3    H141663   3.208   6.067   0.053  0.0670  0.1076 -0.2012
 6676TIP3    H241664   3.287   5.941   0.023 -0.2814 -0.3190  0.6554
 6677TIP3   OH241665   3.177   0.027   3.887 -0.0087 -0.2210  0.7892
 6677TIP3    H141666   3.092   0.011   3.846  0.4897  0.6173 -0.6288
 6677TIP3    H241667   3.166   0.109   3.934 -0.4498 -0.9644  2.0514
 6678TIP3   OH241668   5.571   1.248   1.353  0.2212 -0.1856  0.1888
 6678TIP3    H141669   5.569   1.242   1.257  0.0743  1.4801  0.0485
 6678TIP3    H241670   5.561   1.342   1.371  2.4548 -0.1711  1.7647
 6679TIP3   OH241671   3.920   1.154   2.883 -0.0011  0.0591 -0.2754
 6679TIP3    H141672   3.846   1.139   2.824  1.9335  1.7900 -3.4451
 6679TIP3    H241673   3.919   1.248   2.900  0.1468 -0.2552  1.6189
 6680TIP3   OH241674   6.122   2.793   2.165  0.2049 -0.1049  0.2022
 6680TIP3    H141675   6.028   2.788   2.179  0.1778  0.6942  0.3249
 6680TIP3    H241676   6.136   2.876   2.121  0.9297  0.1331  0.8499
 6681TIP3   OH241677   3.938   0.305   2.318 -0.2031  0.0300 -0.1796
 6681TIP3    H141678   3.919   0.371   2.385 -0.5377  0.4330 -0.6646
 6681TIP3    H241679   3.864   0.245   2.323 -0.2204  0.0513 -0.1774
 6682TIP3   OH241680   3.371   6.371   1.878  0.1758  0.2223 -0.5836
 6682TIP3    H141681   3.395   6.425   1.953  0.3177 -0.9941  0.2856
 6682TIP3    H241682   3.294   6.322   1.908  0.2849 -0.3412 -1.1943
 6683TIP3   OH241683   6.814   6.484   2.288 -0.3781  0.2209 -0.3566
 6683TIP3    H141684   6.834   6.444   2.204 -0.8793  1.4393 -1.0671
 6683TIP3    H241685   6.878   6.445   2.348 -0.3709 -1.0792 -1.1578
 6684TIP3   OH241686   3.519   4.376   2.901  0.1983  0.1891  0.2481
 6684TIP3    H141687   3.523   4.472   2.897 -3.2860  0.7088  3.6154
 6684TIP3    H241688   3.530   4.355   2.993 -0.9361 -2.4794 -0.1318
 6685TIP3   OH241689   5.037   4.324   3.239  0.2561  0.4820 -0.0374
 6685TIP3    H141690   4.993   4.329   3.154 -1.6835 -0.6637  0.8444
 6685TIP3    H241691   5.084   4.241   3.236  0.6388  0.7016 -0.1821
 6686TIP3   OH241692   2.207   6.766   4.235 -1.0473  0.7177 -0.0831
 6686TIP3    H141693   2.222   6.835   4.300 -0.4762  1.2040 -0.7149
 6686TIP3    H241694   2.169   6.812   4.160  0.5788  0.5942 -1.0279
 6687TIP3   OH241695   3.676   3.013   3.015  0.7947  0.4218  0.2328
 6687TIP3    H141696   3.680   3.043   3.105  2.1932 -0.4045  0.4889
 6687TIP3    H241697   3.766   3.023   2.983  0.6598 -0.7068 -0.5671
 6688TIP3   OH241698   1.055   4.999   2.633  0.4573 -0.1429 -0.2363
 6688TIP3    H141699   1.048   5.022   2.726 -0.6949  1.1736 -0.6200
 6688TIP3    H241700   1.150   4.994   2.618  0.6598 -1.4156  1.2288
 6689TIP3   OH241701   0.671   3.462   3.072  0.1223  0.6032 -0.5730
 6689TIP3    H141702   0.720   3.489   2.994  0.7711  0.7022 -0.1411
 6689TIP3    H241703   0.619   3.539   3.094 -0.7309  0.2810 -1.4081
 6690TIP3   OH241704   4.317   1.476   0.207 -0.3774  0.2212 -0.0448
 6690TIP3    H141705   4.268   1.395   0.195  1.5004 -1.2027  1.3239
 6690TIP3    H241706   4.358   1.492   0.122 -0.4125 -0.5126 -0.2043
 6691TIP3   OH241707   6.761   5.371   0.943  0.1571  0.3710 -0.3651
 6691TIP3    H141708   6.762   5.385   1.038 -0.7597  0.3772 -0.3523
 6691TIP3    H241709   6.745   5.277   0.934 -0.3466  0.4691 -0.5144
 6692TIP3   OH241710   1.884   4.553   3.577  0.0821 -0.6319  0.1727
 6692TIP3    H141711   1.870   4.468   3.535 -1.1811 -0.0043 -0.7906
 6692TIP3    H241712   1.808   4.564   3.634  1.5584 -1.2700  2.3816
 6693TIP3   OH241713   3.198   4.028   2.034 -0.4658  0.0793  0.5392
 6693TIP3    H141714   3.191   4.062   1.945 -0.1458  0.0571  0.5055
 6693TIP3    H241715   3.283   4.058   2.065  0.0562 -1.1157  0.3244
 6694TIP3   OH241716   1.258   3.156   2.372 -0.4030 -0.1742 -0.0644
 6694TIP3    H141717   1.313   3.182   2.297  0.4949 -0.2568  0.5504
 6694TIP3    H241718   1.314   3.170   2.448 -0.8548 -1.3338  0.4955
 6695TIP3   OH241719   0.336   6.698   3.578 -0.2217  0.9674 -0.3608
 6695TIP3    H141720   0.266   6.687   3.514 -0.0347  0.3974 -0.4783
 6695TIP3    H241721   0.416   6.677   3.530 -0.2814 -1.9841  0.6292
 6696TIP3   OH241722   5.441   3.253   2.905 -0.8117  0.3751  0.1865
 6696TIP3    H141723   5.370   3.303   2.946 -0.0895  2.1292 -0.6212
 6696TIP3    H241724   5.521   3.296   2.934 -0.0487 -1.5070  0.9800
 6697TIP3   OH241725   2.821   6.489   2.727  0.7721  0.3222  0.2403
 6697TIP3    H141726   2.742   6.435   2.719 -0.5652  2.3801 -2.5395
 6697TIP3    H241727   2.792   6.566   2.776  1.6696  0.1348  1.0827
 6698TIP3   OH241728   5.702   3.724   1.057 -0.2743 -0.2088  0.0751
 6698TIP3    H141729   5.672   3.809   1.024 -0.2356  0.4964  1.7869
 6698TIP3    H241730   5.793   3.719   1.029 -1.0421 -1.0924 -2.6548
 6699TIP3   OH241731   5.928   2.136   0.541  0.1704  0.3958  0.2533
 6699TIP3    H141732   5.952   2.163   0.453  0.4981  1.8066  0.7410
 6699TIP3    H241733   5.844   2.179   0.558 -1.4023 -2.2100 -0.3905
 6700TIP3   OH241734   4.658   2.912   3.362 -0.1340  0.3663  0.0920
 6700TIP3    H141735   4.574   2.923   3.408 -1.0134  1.2701 -1.6104
 6700TIP3    H241736   4.633   2.883   3.274  1.3303  0.8593 -0.5154
 6701TIP3   OH241737   2.620   1.784   2.689  0.3181 -0.5135  0.0848
 6701TIP3    H141738   2.661   1.712   2.735 -0.1507  0.2946  1.8370
 6701TIP3    H241739   2.539   1.747   2.654  0.5564 -1.0712  0.1073
 6702TIP3   OH241740   2.977   1.893   0.660  0.0040  0.6040 -0.4275
 6702TIP3    H141741   2.921   1.925   0.589 -0.2047  1.4461  0.0967
 6702TIP3    H241742   2.942   1.807   0.682  0.1125  0.3002 -1.3841
 6703TIP3   OH241743   1.727   4.918   1.586  0.0618 -0.2645 -0.3772
 6703TIP3    H141744   1.806   4.961   1.618 -0.4357  0.6748 -0.3598
 6703TIP3    H241745   1.712   4.958   1.500 -1.2260  0.6945  0.2621
 6704TIP3   OH241746   2.175   2.144   1.983 -0.7209 -0.5168  0.3681
 6704TIP3    H141747   2.254   2.189   2.015 -0.1280 -1.2527 -0.0345
 6704TIP3    H241748   2.142   2.097   2.060  0.6134 -2.1553 -0.0013
 6705TIP3   OH241749   4.848   0.292   3.246  0.5868 -0.0869  0.1836
 6705TIP3    H141750   4.883   0.351   3.312  0.3905  0.2726 -0.0310
 6705TIP3    H241751   4.915   0.224   3.237  0.2744 -0.5469  1.2797
 6706TIP3   OH241752   0.479   0.472   1.688 -0.3090 -0.1772  0.0527
 6706TIP3    H141753   0.552   0.463   1.627 -0.7819 -1.0560 -0.3970
 6706TIP3    H241754   0.498   0.553   1.736  0.5901 -0.0186 -0.5457
 6707TIP3   OH241755   2.351   5.260   2.224 -0.1692 -0.0616 -0.5380
 6707TIP3    H141756   2.321   5.340   2.268  0.4301 -0.6517  1.0332
 6707TIP3    H241757   2.423   5.289   2.168 -0.4273  0.6067 -0.5344
 6708TIP3   OH241758   5.730   6.818   8.671 -0.2332  0.4738  0.6556
 6708TIP3    H141759   5.824   6.831   8.686 -0.3694  0.4813  1.5225
 6708TIP3    H241760   5.726   6.751   8.603  0.4228  1.6212 -0.5782
 6709TIP3   OH241761   0.381   6.447   7.850 -0.0700  0.4359  0.6434
 6709TIP3    H141762   0.327   6.413   7.921 -1.9215  0.6393 -0.6124
 6709TIP3    H241763   0.368   6.542   7.852  0.4773  0.5176  0.5174
 6710TIP3   OH241764   5.481   1.850   2.746  0.1649 -0.0241 -0.5183
 6710TIP3    H141765   5.512   1.881   2.661  0.1364 -2.1354 -1.3557
 6710TIP3    H241766   5.521   1.763   2.756 -0.0253  0.0716  1.5246
 6711TIP3   OH241767   4.282   2.186   8.608  0.3851  0.2132 -0.0388
 6711TIP3    H141768   4.352   2.184   8.673  0.5245  0.7889 -0.1679
 6711TIP3    H241769   4.274   2.095   8.579  1.1582  0.1593 -0.1071
 6712TIP3   OH241770   5.333   1.211   3.688 -0.4120  0.3612  0.0527
 6712TIP3    H141771   5.422   1.233   3.659 -0.5038  1.0639  0.2762
 6712TIP3    H241772   5.308   1.137   3.633  0.5673 -0.2960  0.4709
 6713TIP3   OH241773   5.670   3.239   0.078  0.1365 -0.6956 -0.0733
 6713TIP3    H141774   5.749   3.189   0.098 -0.2192 -1.4091 -0.4314
 6713TIP3    H241775   5.623   3.186   0.014 -1.9279 -1.5524  2.0343
 6714TIP3   OH241776   6.680   0.410   1.286 -0.3614  0.0214  0.0478
 6714TIP3    H141777   6.751   0.367   1.238  1.1459  1.9557  0.4317
 6714TIP3    H241778   6.601   0.363   1.258  0.8508 -1.1401 -1.6564
 6715TIP3   OH241779   4.418   1.100   1.582  0.1610  0.1356  0.2090
 6715TIP3    H141780   4.339   1.106   1.528  0.3089  1.3769  0.0947
 6715TIP3    H241781   4.398   1.032   1.646 -1.3916  1.1062  0.8144
 6716TIP3   OH241782   1.808   6.171   0.497  0.1727  0.1297  0.3626
 6716TIP3    H141783   1.801   6.193   0.590  1.5687  1.6024  0.1607
 6716TIP3    H241784   1.822   6.255   0.453 -1.6225 -0.3817 -1.3549
 6717TIP3   OH241785   3.074   6.184   2.590 -0.6544  0.1225 -0.3342
 6717TIP3    H141786   3.005   6.144   2.538 -0.5603 -1.4085  0.6734
 6717TIP3    H241787   3.029   6.249   2.644 -1.6006 -1.8133  1.3234
 6718TIP3   OH241788   0.074   2.886   4.204 -0.1328 -0.1396 -0.0123
 6718TIP3    H141789   0.026   2.805   4.188  0.2660 -0.5110  0.6383
 6718TIP3    H241790   0.057   2.939   4.126  1.1056 -1.5705 -1.3376
 6719TIP3   OH241791   3.560   6.580   3.134  0.2602 -0.3154 -0.6683
 6719TIP3    H141792   3.478   6.579   3.086  0.4227  1.3929 -1.0532
 6719TIP3    H241793   3.594   6.491   3.127 -1.8309 -1.2158  0.0088
 6720TIP3   OH241794   6.718   3.013   3.037  0.0639  0.3919 -0.0200
 6720TIP3    H141795   6.754   3.018   3.125  2.0044 -0.3385 -0.7131
 6720TIP3    H241796   6.749   3.092   2.993  1.9708 -0.8310 -0.9879
 6721TIP3   OH241797   1.705   0.546   1.712  0.2611  0.8291 -0.1657
 6721TIP3    H141798   1.625   0.542   1.764 -0.7727 -0.9847 -1.7381
 6721TIP3    H241799   1.681   0.506   1.628  2.8655  0.0198 -0.6201
 6722TIP3   OH241800   5.573   3.630   2.771  0.0822  0.3663  0.5447
 6722TIP3    H141801   5.557   3.711   2.723 -0.2095  1.0730  1.7775
 6722TIP3    H241802   5.599   3.659   2.859  1.3898 -0.8571  0.6002
 6723TIP3   OH241803   4.383   0.720   2.036 -0.1418 -0.3394  0.2969
 6723TIP3    H141804   4.411   0.755   1.952  1.7133 -2.1361  0.0926
 6723TIP3    H241805   4.298   0.680   2.019  0.4140 -1.0822 -0.8739
 6724TIP3   OH241806   5.711   3.245   2.165  0.6692  0.0803  0.3838
 6724TIP3    H141807   5.622   3.231   2.134  1.4841 -2.2017 -1.2452
 6724TIP3    H241808   5.716   3.197   2.248 -0.1764  2.1780  1.7441
 6725TIP3   OH241809   4.653   3.120   8.562 -0.3300  0.0447  0.0330
 6725TIP3    H141810   4.741   3.089   8.541 -0.5198 -1.7276  1.5668
 6725TIP3    H241811   4.606   3.116   8.480  0.2741 -1.7622 -0.2766
 6726TIP3   OH241812   1.246   0.289   0.411  0.6108 -0.2623 -0.0313
 6726TIP3    H141813   1.197   0.328   0.339  0.9466  1.3274  0.5653
 6726TIP3    H241814   1.286   0.363   0.456  1.6273 -1.3376  0.9100
 6727TIP3   OH241815   6.180   4.177   3.761 -0.1211 -0.1671 -0.2032
 6727TIP3    H141816   6.259   4.167   3.814  0.9328 -0.7933 -1.8203
 6727TIP3    H241817   6.140   4.090   3.760 -0.1757 -0.1410 -0.3598
 6728TIP3   OH241818   5.701   3.779   3.189 -0.3127 -0.0692 -0.0731
 6728TIP3    H141819   5.776   3.720   3.183 -0.1636 -0.2565  2.6451
 6728TIP3    H241820   5.629   3.728   3.151  0.6751 -0.2926 -1.7329
 6729TIP3   OH241821   2.979   6.488   1.784  0.1433 -0.3451 -0.6621
 6729TIP3    H141822   2.941   6.572   1.810  0.6424 -0.5126  0.6994
 6729TIP3    H241823   2.925   6.459   1.710 -0.1842  1.0499 -0.9940
 6730TIP3   OH241824   0.710   5.293   2.292  0.7070  0.1827 -0.4307
 6730TIP3    H141825   0.662   5.374   2.312  0.4428 -0.2031  0.6110
 6730TIP3    H241826   0.653   5.223   2.325  2.0912 -0.2762  1.1494
 6731TIP3   OH241827   3.088   1.175   2.597  0.1014 -0.3207  0.2170
 6731TIP3    H141828   3.135   1.165   2.680 -0.5620  0.2160  0.6664
 6731TIP3    H241829   3.119   1.102   2.543  0.6012 -0.6274  0.9046
 6732TIP3   OH241830   6.230   1.337   1.372  0.0645  0.2450 -0.4127
 6732TIP3    H141831   6.307   1.375   1.330  0.3446 -0.6099 -0.6855
 6732TIP3    H241832   6.211   1.258   1.321  1.3024 -1.6562  1.9201
 6733TIP3   OH241833   3.475   3.290   2.435  0.2226  0.3548  0.5757
 6733TIP3    H141834   3.399   3.244   2.398  0.0593  1.7813 -0.9897
 6733TIP3    H241835   3.437   3.355   2.494  0.2829  0.4082  0.5561
 6734TIP3   OH241836   0.300   3.220   2.727 -0.1050 -0.5459 -0.2110
 6734TIP3    H141837   0.298   3.247   2.635  0.1944 -0.7629 -0.2815
 6734TIP3    H241838   0.232   3.152   2.733  0.1729 -0.8377 -0.3678
 6735TIP3   OH241839   4.179   3.584   1.341 -0.1621  0.2160  0.2569
 6735TIP3    H141840   4.177   3.666   1.292 -0.6022  0.3168  0.4358
 6735TIP3    H241841   4.190   3.611   1.432 -0.5197  0.0927  0.3406
 6736TIP3   OH241842   1.068   4.725   3.097  0.0978  0.5513  0.4165
 6736TIP3    H141843   1.097   4.762   3.180 -0.6720 -0.9045  1.3840
 6736TIP3    H241844   1.082   4.795   3.033 -0.4008  2.1407  1.9670
 6737TIP3   OH241845   4.688   4.155   1.019 -0.0390 -0.2945 -0.4932
 6737TIP3    H141846   4.646   4.168   1.104 -0.5475 -0.2062 -0.7528
 6737TIP3    H241847   4.779   4.137   1.040  0.4203  2.2261 -0.0130
 6738TIP3   OH241848   3.654   3.435   2.580 -0.2863  0.0464  0.0575
 6738TIP3    H141849   3.667   3.416   2.673 -0.1716  0.6724  0.1727
 6738TIP3    H241850   3.590   3.370   2.551 -1.3478  0.6955  0.8889
 6739TIP3   OH241851   4.966   5.696   2.889 -0.1138  0.6341 -0.8876
 6739TIP3    H141852   5.011   5.612   2.888  1.9002  1.5775  0.9723
 6739TIP3    H241853   4.876   5.676   2.914  0.7795 -0.8328  1.3806
 6740TIP3   OH241854   1.028   0.177   3.393  0.4186  0.1782  0.3496
 6740TIP3    H141855   1.105   0.232   3.407  1.1207 -0.5586 -0.5166
 6740TIP3    H241856   1.055   0.089   3.420 -0.5033  0.1205  1.1581
 6741TIP3   OH241857   0.094   4.304   2.405 -0.9017  0.2583 -0.1890
 6741TIP3    H141858   0.149   4.228   2.424  1.0826  0.7627 -3.1616
 6741TIP3    H241859   0.005   4.272   2.418 -0.1052 -2.2817 -0.2947
 6742TIP3   OH241860   3.974   1.254   3.899  0.2877 -0.2380 -0.5827
 6742TIP3    H141861   4.043   1.196   3.867 -1.2206 -2.8062  0.5112
 6742TIP3    H241862   3.959   1.226   3.989 -2.0222  0.3627 -0.7219
 6743TIP3   OH241863   2.156   1.220   2.772  0.1094  0.4052 -0.0406
 6743TIP3    H141864   2.129   1.129   2.779 -2.2123  0.9764 -0.7081
 6743TIP3    H241865   2.205   1.237   2.853  1.3913 -1.6311 -0.3172
 6744TIP3   OH241866   3.240   0.495   2.856 -0.1191 -0.2564 -0.4755
 6744TIP3    H141867   3.229   0.589   2.871 -1.9583 -0.1769 -1.9389
 6744TIP3    H241868   3.194   0.453   2.929 -0.9116  0.0188 -0.8058
 6745TIP3   OH241869   1.192   1.145   1.339 -0.1063  0.2196  0.7926
 6745TIP3    H141870   1.105   1.118   1.367 -0.3895 -0.3950 -0.6356
 6745TIP3    H241871   1.238   1.064   1.319 -0.1440  0.6219 -1.1227
 6746TIP3   OH241872   5.819   1.706   1.087 -0.1859  0.5770  0.7490
 6746TIP3    H141873   5.876   1.680   1.014 -0.4347 -0.6200  0.9646
 6746TIP3    H241874   5.795   1.624   1.129 -1.0098  1.1724  1.4697
 6747TIP3   OH241875   2.564   3.110   1.329 -0.5771  0.1166 -0.0663
 6747TIP3    H141876   2.524   3.087   1.412  0.2619 -2.1595 -0.2036
 6747TIP3    H241877   2.492   3.112   1.266 -0.8219 -1.4564  0.1372
 6748TIP3   OH241878   2.635   6.267   0.698  0.4189 -0.1041  0.0840
 6748TIP3    H141879   2.656   6.360   0.689  1.9414 -0.3148  1.0584
 6748TIP3    H241880   2.552   6.256   0.651  1.4850  1.2192 -2.2607
 6749TIP3   OH241881   5.218   1.730   8.435 -0.6227 -0.1020 -0.7087
 6749TIP3    H141882   5.188   1.785   8.363 -2.7263 -0.1386  0.0754
 6749TIP3    H241883   5.237   1.791   8.506  0.6382 -0.1307 -1.0064
 6750TIP3   OH241884   5.818   1.314   8.381 -0.3674 -0.1797 -0.4694
 6750TIP3    H141885   5.894   1.259   8.398  0.3361  1.2223  1.1132
 6750TIP3    H241886   5.834   1.351   8.294  0.5145 -0.3052 -0.3665
 6751TIP3   OH241887   4.965   2.085   2.454  0.3296  0.3057 -0.5311
 6751TIP3    H141888   4.998   2.089   2.364  1.0716  0.0789 -0.2699
 6751TIP3    H241889   4.915   2.003   2.457  0.1587  0.3990 -0.7853
 6752TIP3   OH241890   5.082   4.382   1.674  0.0953  0.4183  0.0741
 6752TIP3    H141891   5.175   4.396   1.695  0.1328 -0.2122  0.3479
 6752TIP3    H241892   5.079   4.292   1.642 -0.8279 -0.5308  2.5830
 6753TIP3   OH241893   0.785   1.102   0.779 -0.2036  0.0879  0.4986
 6753TIP3    H141894   0.877   1.110   0.754 -0.6642 -0.7027 -1.6641
 6753TIP3    H241895   0.737   1.143   0.708 -1.5551  0.6259  1.6637
 6754TIP3   OH241896   2.714   1.374   0.321 -0.3980  0.6165 -0.1014
 6754TIP3    H141897   2.783   1.424   0.365  0.6876 -1.2708  0.5043
 6754TIP3    H241898   2.719   1.400   0.229  1.2284  0.4613 -0.0835
 6755TIP3   OH241899   3.171   3.524   3.047 -0.4372 -0.1286  0.4075
 6755TIP3    H141900   3.080   3.532   3.017 -0.2866 -2.1397 -0.7678
 6755TIP3    H241901   3.164   3.521   3.142 -1.2892  2.6403  0.5162
 6756TIP3   OH241902   6.138   1.503   3.328  0.0760  0.0008  0.4563
 6756TIP3    H141903   6.096   1.418   3.313  0.7047 -0.9035  3.2087
 6756TIP3    H241904   6.065   1.564   3.339 -0.5518 -1.0239  2.4666
 6757TIP3   OH241905   3.119   2.468   0.843  0.2383 -0.8153 -0.4955
 6757TIP3    H141906   3.174   2.437   0.771 -0.4957  0.2907 -1.5973
 6757TIP3    H241907   3.045   2.510   0.799 -0.5502 -0.6582  0.9312
 6758TIP3   OH241908   3.079   2.478   2.348 -0.0555  1.1180 -0.4218
 6758TIP3    H141909   3.014   2.450   2.284 -0.7864 -0.2129  0.8399
 6758TIP3    H241910   3.072   2.573   2.349  0.0236  1.1762 -2.3225
 6759TIP3   OH241911   3.427   6.295   7.981  0.1136 -0.5592 -0.3846
 6759TIP3    H141912   3.458   6.372   8.029 -3.2111 -0.2007  1.4496
 6759TIP3    H241913   3.353   6.327   7.929  0.5683 -1.9633 -1.9848
 6760TIP3   OH241914   6.023   0.374   2.866 -0.5064 -0.1269  0.7128
 6760TIP3    H141915   6.114   0.400   2.852 -0.7063  0.1654 -0.1315
 6760TIP3    H241916   5.999   0.415   2.949 -0.1984  0.7403  0.3907
 6761TIP3   OH241917   2.478   3.480   2.960 -0.3602  0.0505  0.1747
 6761TIP3    H141918   2.416   3.552   2.972  1.0342  1.3594 -0.1749
 6761TIP3    H241919   2.550   3.501   3.020  1.0391  0.1011 -1.4714
 6762TIP3   OH241920   5.763   0.669   2.289 -0.0713  0.1831 -0.2121
 6762TIP3    H141921   5.671   0.668   2.315  0.0374  1.0085  0.2546
 6762TIP3    H241922   5.811   0.653   2.371  0.2254  0.9108 -0.2360
 6763TIP3   OH241923   5.818   3.293   4.106  0.2901 -0.2116  0.1687
 6763TIP3    H141924   5.810   3.348   4.028  2.7586 -0.3458 -0.2718
 6763TIP3    H241925   5.733   3.250   4.114 -0.2369  0.2737 -2.0838
 6764TIP3   OH241926   6.802   2.541   2.156 -0.4245 -0.5867  0.2313
 6764TIP3    H141927   6.778   2.631   2.138  0.4749 -0.2646  0.5506
 6764TIP3    H241928   6.882   2.527   2.105  1.6217  0.0426  3.0440
 6765TIP3   OH241929   5.034   3.537   3.269  0.2770 -0.0111  0.2643
 6765TIP3    H141930   5.021   3.443   3.277 -0.2295 -0.1263 -1.5552
 6765TIP3    H241931   5.128   3.546   3.251  0.3051 -0.1670  0.3281
 6766TIP3   OH241932   2.160   3.324   3.438  0.3354 -0.2474  0.1780
 6766TIP3    H141933   2.251   3.320   3.466  0.5541  1.7749 -0.0499
 6766TIP3    H241934   2.116   3.375   3.506 -0.9247 -2.1619  0.8760
 6767TIP3   OH241935   4.589   3.499   8.440  0.5438  0.3073  0.5998
 6767TIP3    H141936   4.675   3.462   8.416  0.5748 -0.2330  1.4910
 6767TIP3    H241937   4.533   3.422   8.452  0.4611  0.5425  1.9358
 6768TIP3   OH241938   6.181   6.458   3.085  0.1148 -0.1131  0.0241
 6768TIP3    H141939   6.124   6.508   3.027 -0.6407 -1.1575 -0.1544
 6768TIP3    H241940   6.130   6.381   3.108  1.0994 -0.5965  0.6401
 6769TIP3   OH241941   0.867   0.187   2.108 -0.0127  0.0979 -0.1843
 6769TIP3    H141942   0.952   0.225   2.087  1.3568 -0.3316  3.6693
 6769TIP3    H241943   0.815   0.262   2.139 -0.7337  0.2017 -1.5861
 6770TIP3   OH241944   5.592   1.038   0.612 -0.2324 -0.0940 -0.5648
 6770TIP3    H141945   5.626   0.978   0.546  0.1006  0.4886 -0.9289
 6770TIP3    H241946   5.568   0.981   0.686 -1.9077 -0.9432 -1.6727
 6771TIP3   OH241947   0.819   6.230   0.580 -0.0930 -0.6208 -0.0509
 6771TIP3    H141948   0.879   6.274   0.519 -1.8270 -0.1544 -1.4774
 6771TIP3    H241949   0.860   6.144   0.595  1.8257  0.3218  0.4409
 6772TIP3   OH241950   1.131   1.826   1.070 -0.1619 -0.1065  0.7524
 6772TIP3    H141951   1.224   1.823   1.047 -0.5279 -1.2791 -0.7445
 6772TIP3    H241952   1.086   1.840   0.986 -1.2896  2.1692  1.6557
 6773TIP3   OH241953   0.832   3.437   0.626  0.5632  0.3288  0.2452
 6773TIP3    H141954   0.915   3.463   0.666  0.2333  2.4514 -0.3506
 6773TIP3    H241955   0.766   3.455   0.693  0.4147  0.1281  0.1539
 6774TIP3   OH241956   0.574   6.293   0.925  0.1694 -0.5509 -0.4473
 6774TIP3    H141957   0.484   6.265   0.906 -0.6637  2.1045 -0.8625
 6774TIP3    H241958   0.568   6.335   1.011  0.6034  1.1258 -1.1969
 6775TIP3   OH241959   0.933   0.708   8.397  0.1678  0.3412  0.4174
 6775TIP3    H141960   0.923   0.682   8.306  1.6312  1.8934 -0.2449
 6775TIP3    H241961   0.848   0.745   8.420 -0.5050 -0.8910 -0.0022
 6776TIP3   OH241962   3.842   5.494   8.653  0.0533 -0.6620 -0.1858
 6776TIP3    H141963   3.911   5.489   8.587  0.2626 -0.0721 -0.0226
 6776TIP3    H241964   3.768   5.535   8.608  0.9641  1.9223  0.5210
 6777TIP3   OH241965   2.729   6.834   2.992 -0.0087  0.3539 -0.2212
 6777TIP3    H141966   2.781   6.800   2.919 -1.0889 -0.3308 -0.6936
 6777TIP3    H241967   2.648   6.782   2.990  0.8687 -1.4149  2.9169
 6778TIP3   OH241968   4.567   2.803   1.949  1.2600 -0.2178  0.2657
 6778TIP3    H141969   4.542   2.762   2.032 -1.2640  0.6387  0.0247
 6778TIP3    H241970   4.647   2.851   1.969  1.6167 -1.3747  1.7633
 6779TIP3   OH241971   4.288   4.370   3.431  0.2372  0.5198  0.4873
 6779TIP3    H141972   4.209   4.317   3.446  0.0522  0.2410 -1.2905
 6779TIP3    H241973   4.258   4.461   3.441 -0.5479  0.4551 -1.0137
 6780TIP3   OH241974   3.868   1.932   1.155  0.1000  0.1084  0.0400
 6780TIP3    H141975   3.922   1.947   1.077 -0.8424  1.8891 -0.2998
 6780TIP3    H241976   3.831   1.845   1.141  2.2799 -0.8732 -0.0518
 6781TIP3   OH241977   2.534   2.470   2.952 -0.0341 -0.3778  0.3526
 6781TIP3    H141978   2.596   2.536   2.922 -1.6408  1.0337 -0.0044
 6781TIP3    H241979   2.548   2.465   3.046 -1.7960  2.7023  0.9239
 6782TIP3   OH241980   0.998   3.769   2.500 -0.2549 -0.1807  0.1499
 6782TIP3    H141981   1.081   3.722   2.494 -0.4537 -0.3543 -1.7218
 6782TIP3    H241982   0.990   3.814   2.416 -1.4905  0.8022  0.7697
 6783TIP3   OH241983   4.739   6.403   0.346  0.2964 -0.1648 -0.0490
 6783TIP3    H141984   4.762   6.320   0.304 -2.1534 -1.5037  1.0788
 6783TIP3    H241985   4.644   6.409   0.339  0.2849  1.9661  0.9837
 6784TIP3   OH241986   0.163   5.047   0.607 -0.2557 -0.1833  0.0344
 6784TIP3    H141987   0.215   4.966   0.598 -0.4348 -0.1863 -1.1208
 6784TIP3    H241988   0.187   5.081   0.693 -0.9695 -2.0201  1.0263
 6785TIP3   OH241989   6.645   0.844   3.975  0.1849  0.2637  0.5798
 6785TIP3    H141990   6.707   0.803   4.036  2.3836  2.5040 -0.0030
 6785TIP3    H241991   6.564   0.795   3.988  1.3208 -1.1378  3.2865
 6786TIP3   OH241992   1.782   2.000   3.987  0.0632  0.5245 -0.1465
 6786TIP3    H141993   1.741   1.945   3.920  1.3055 -1.5607  0.6949
 6786TIP3    H241994   1.713   2.060   4.014 -0.8451  0.5778 -2.3568
 6787TIP3   OH241995   4.088   6.356   2.771 -0.1765 -0.4210  0.4724
 6787TIP3    H141996   4.152   6.427   2.763  0.0657 -0.7834 -1.2550
 6787TIP3    H241997   4.007   6.400   2.796 -0.0916  0.5442 -0.7958
 6788TIP3   OH241998   1.028   6.095   0.100 -0.2483 -0.2540 -0.0548
 6788TIP3    H141999   0.999   6.144   0.176  2.3560  0.6478  0.4803
 6788TIP3    H242000   1.017   6.155   0.027  1.4792  0.6425  0.3658
 6789TIP3   OH242001   5.759   4.251   2.713 -0.3044  0.5081  0.2650
 6789TIP3    H142002   5.665   4.262   2.699 -0.2539 -0.2088 -0.7432
 6789TIP3    H242003   5.781   4.170   2.667  0.8304  0.7250  0.3875
 6790TIP3   OH242004   1.241   2.457   0.538  0.6479 -0.3826  0.2942
 6790TIP3    H142005   1.232   2.480   0.445  0.0776  2.0632  0.9043
 6790TIP3    H242006   1.304   2.520   0.573 -0.0487 -0.5032  1.8279
 6791TIP3   OH242007   3.324   6.500   2.672 -0.1934 -0.0555 -0.5097
 6791TIP3    H142008   3.236   6.486   2.639 -0.1148 -0.2659 -0.6352
 6791TIP3    H242009   3.333   6.595   2.678 -1.1123 -0.0481  1.3718
 6792TIP3   OH242010   0.251   6.308   8.049  0.3885  0.1199  0.8151
 6792TIP3    H142011   0.242   6.363   8.126  0.5588  0.6541  0.4580
 6792TIP3    H242012   0.187   6.238   8.062 -2.9160  2.5790 -0.6138
 6793TIP3   OH242013   0.129   6.709   2.937  0.1687  0.4980 -0.0218
 6793TIP3    H142014   0.141   6.778   2.872 -2.0685 -0.6975 -1.8282
 6793TIP3    H242015   0.038   6.717   2.964  0.2189 -0.9821  0.6595
 6794TIP3   OH242016   5.978   1.906   4.280  0.5653 -0.0261  0.2092
 6794TIP3    H142017   5.902   1.876   4.330  0.5526 -1.2925 -0.5308
 6794TIP3    H242018   6.042   1.931   4.347 -0.7389  1.7830  0.8514
 6795TIP3   OH242019   2.337   3.997   2.523  0.1049  0.4317  0.2022
 6795TIP3    H142020   2.250   4.002   2.483  0.4089 -1.4303 -0.8093
 6795TIP3    H242021   2.344   4.077   2.575 -1.4903  1.5202 -1.1416
 6796TIP3   OH242022   5.855   2.267   2.689 -0.2033  0.5032  0.2049
 6796TIP3    H142023   5.796   2.251   2.616 -0.1538  0.4677  0.1724
 6796TIP3    H242024   5.927   2.317   2.652 -0.2468  0.6051  0.2589
 6797TIP3   OH242025   5.899   0.687   0.181 -0.2879 -1.0395 -0.6203
 6797TIP3    H142026   5.887   0.776   0.150 -3.6770 -0.5408  1.6159
 6797TIP3    H242027   5.991   0.685   0.210 -0.2524  1.9515 -0.1588
 6798TIP3   OH242028   1.126   1.913   0.186  0.4526  0.1265  0.0407
 6798TIP3    H142029   1.064   1.881   0.252  1.1222 -0.9467  0.1629
 6798TIP3    H242030   1.166   1.990   0.226 -1.7350  1.6742 -0.5613
 6799TIP3   OH242031   0.811   2.516   1.656  0.1311  0.0717  0.4423
 6799TIP3    H142032   0.748   2.444   1.644  1.0280 -0.5431 -0.8179
 6799TIP3    H242033   0.894   2.472   1.675  0.2333  0.8721  1.9617
 6800TIP3   OH242034   5.182   2.561   0.327  0.1322 -0.2025  0.0684
 6800TIP3    H142035   5.119   2.550   0.398  1.8856 -0.8582  1.6014
 6800TIP3    H242036   5.205   2.472   0.301  1.6996 -0.0241  0.7466
 6801TIP3   OH242037   3.721   0.022   8.447 -0.6971  0.4375 -0.1326
 6801TIP3    H142038   3.716  -0.034   8.370  0.1498  0.0510  0.0759
 6801TIP3    H242039   3.637   0.011   8.491 -0.5642 -0.6484 -0.1207
 6802TIP3   OH242040   6.715   6.634   1.498 -0.1089 -0.1701  0.6003
 6802TIP3    H142041   6.803   6.657   1.470  0.8635 -0.0899  3.4528
 6802TIP3    H242042   6.727   6.588   1.581 -2.6939 -1.3458  0.4262
 6803TIP3   OH242043   2.658   1.252   0.589  0.0925  0.0943 -0.2196
 6803TIP3    H142044   2.704   1.290   0.515  1.4287 -0.2117  0.4268
 6803TIP3    H242045   2.705   1.171   0.607 -1.2817 -0.7177 -0.1101
 6804TIP3   OH242046   1.129   3.451   2.072  0.3573 -0.2373  0.2189
 6804TIP3    H142047   1.080   3.420   1.996 -1.1210  1.2848  0.4872
 6804TIP3    H242048   1.101   3.395   2.144  0.0596 -0.2479  0.0955
 6805TIP3   OH242049   5.845   0.681   1.807  0.1049 -0.2742 -0.4993
 6805TIP3    H142050   5.922   0.681   1.751  0.0380 -1.8706 -0.6249
 6805TIP3    H242051   5.777   0.725   1.755  0.3364 -0.7888 -1.2408
 6806TIP3   OH242052   1.953   5.947   3.494  0.4697 -0.1190 -0.2239
 6806TIP3    H142053   1.894   5.904   3.556  1.8157 -1.5420  0.1255
 6806TIP3    H242054   1.981   5.877   3.435  1.2729  0.6701 -0.8044
 6807TIP3   OH242055   6.527   3.257   0.835 -0.2534 -0.4197 -0.6343
 6807TIP3    H142056   6.577   3.183   0.869  0.7962 -0.2730 -1.8156
 6807TIP3    H242057   6.540   3.255   0.741  0.3685  1.6542 -0.6431
 6808TIP3   OH242058   6.274   1.640   3.746 -0.1854 -0.1149 -0.0419
 6808TIP3    H142059   6.283   1.611   3.836 -2.0215 -0.4354  0.0671
 6808TIP3    H242060   6.258   1.560   3.696  1.7318 -0.0610 -0.8301
 6809TIP3   OH242061   3.460   2.929   1.148 -0.3253  0.3140 -0.6815
 6809TIP3    H142062   3.372   2.896   1.127 -0.3604 -0.4795  0.5743
 6809TIP3    H242063   3.445   2.995   1.215  0.1499 -1.7274  1.5766
 6810TIP3   OH242064   4.562   5.280   0.759  0.1599 -0.5517 -0.0639
 6810TIP3    H142065   4.543   5.365   0.799  0.5976 -0.9576  1.0427
 6810TIP3    H242066   4.652   5.261   0.784  0.1094 -1.2901 -0.4053
 6811TIP3   OH242067   3.270   0.731   0.776 -0.3603  0.0399  0.8211
 6811TIP3    H142068   3.315   0.776   0.847  1.2196  0.7416 -0.5383
 6811TIP3    H242069   3.244   0.647   0.812  0.5301  0.3206  2.1630
 6812TIP3   OH242070   4.050   3.897   1.485 -0.1423  0.3510 -0.3219
 6812TIP3    H142071   4.072   3.990   1.497  0.4776  0.3168 -1.1082
 6812TIP3    H242072   3.975   3.898   1.426  1.0786  0.3069 -1.9215
 6813TIP3   OH242073   2.840   2.432   8.623 -0.4478  0.3575 -0.1306
 6813TIP3    H142074   2.896   2.454   8.549 -1.4239  0.7731 -0.7559
 6813TIP3    H242075   2.771   2.377   8.586 -0.7426  0.2632  0.5382
 6814TIP3   OH242076   2.635   3.617   2.102 -0.2771  0.1993 -0.0290
 6814TIP3    H142077   2.688   3.668   2.163  2.6491 -1.7149 -0.7848
 6814TIP3    H242078   2.574   3.568   2.158  1.4090 -0.4783  1.3075
 6815TIP3   OH242079   6.148   4.196   8.777 -0.0182  0.4196  0.2675
 6815TIP3    H142080   6.101   4.151   8.847 -1.0810  0.6281 -0.2842
 6815TIP3    H242081   6.191   4.126   8.728 -1.1500  0.0303 -0.2125
 6816TIP3   OH242082   5.714   4.672   8.156 -0.3532  0.3963  0.6093
 6816TIP3    H142083   5.689   4.580   8.142  0.8357  0.1388  0.0044
 6816TIP3    H242084   5.780   4.668   8.225  0.7674  0.6052 -0.4138
 6817TIP3   OH242085   1.396   1.471   0.602  0.4636  0.2456  0.3387
 6817TIP3    H142086   1.458   1.409   0.563  1.3586 -0.3890  2.6070
 6817TIP3    H242087   1.334   1.491   0.531  1.9599 -0.8121 -1.3548
 6818TIP3   OH242088   6.772   3.233   2.362  0.1432  0.5783 -0.0057
 6818TIP3    H142089   6.685   3.250   2.326  0.3488  0.5240 -0.5367
 6818TIP3    H242090   6.767   3.142   2.392 -0.1870  0.7814  0.5883
 6819TIP3   OH242091   0.596   4.678   2.349 -0.0594 -0.6550 -0.1718
 6819TIP3    H142092   0.575   4.585   2.356  1.2956 -0.9339  0.6286
 6819TIP3    H242093   0.630   4.702   2.436  2.4932 -0.2063 -1.1871
 6820TIP3   OH242094   1.909   5.632   2.179  0.1785 -0.3744 -0.3488
 6820TIP3    H142095   2.000   5.623   2.151  0.6751 -0.3739  1.1933
 6820TIP3    H242096   1.906   5.592   2.266 -0.8315  1.3683  0.4786
 6821TIP3   OH242097   5.154   2.859   2.662  0.3639 -0.0564 -0.1686
 6821TIP3    H142098   5.177   2.766   2.665 -0.5343 -0.2770  1.1638
 6821TIP3    H242099   5.236   2.905   2.679  0.3732 -0.7176  1.8273
 6822TIP3   OH242100   6.530   2.681   1.181 -0.3649  0.3074  0.1324
 6822TIP3    H142101   6.560   2.691   1.272  0.0236 -0.0484  0.0473
 6822TIP3    H242102   6.566   2.756   1.135  2.6459 -1.3818 -0.5399
 6823TIP3   OH242103   2.498   2.888   0.234 -0.1395  0.2944 -0.3609
 6823TIP3    H142104   2.405   2.896   0.252  0.1354 -1.4902  2.2793
 6823TIP3    H242105   2.538   2.962   0.280  0.0000 -0.7813  1.3018
 6824TIP3   OH242106   6.570   5.135   0.554  0.1608  0.1523 -0.0558
 6824TIP3    H142107   6.511   5.063   0.532 -0.4687  0.0441  1.8495
 6824TIP3    H242108   6.655   5.107   0.521 -0.1328 -1.3440  0.3731
 6825TIP3   OH242109   5.778   0.121   1.153  0.3256 -0.0856  1.0135
 6825TIP3    H142110   5.711   0.109   1.220 -0.7836 -0.0471 -0.0632
 6825TIP3    H242111   5.797   0.032   1.122  0.8584 -0.1062  1.3898
 6826TIP3   OH242112   5.886   1.182   1.384  0.2303  0.6978 -0.3167
 6826TIP3    H142113   5.793   1.170   1.402 -0.4441  3.1711 -1.6804
 6826TIP3    H242114   5.926   1.195   1.470 -0.5650 -0.7708  0.3147
 6827TIP3   OH242115   1.955   6.415   1.812 -0.0145  0.1163  0.4273
 6827TIP3    H142116   1.997   6.460   1.739  0.0208 -0.7586 -0.1100
 6827TIP3    H242117   1.968   6.472   1.887  2.4388 -0.2809  0.3702
 6828TIP3   OH242118   3.772   4.944   0.075 -0.4330 -0.4094  0.4833
 6828TIP3    H142119   3.858   4.947   0.116 -0.4901 -0.5539  0.6149
 6828TIP3    H242120   3.711   4.951   0.148 -0.5378  1.2486  0.2778
 6829TIP3   OH242121   4.078   3.832   2.736  0.3570  0.3747  0.0942
 6829TIP3    H142122   4.137   3.781   2.792 -0.4035  0.2517  0.8017
 6829TIP3    H242123   4.010   3.770   2.710  0.3025  0.6231 -0.3575
 6830TIP3   OH242124   2.620   3.368   8.569 -0.0920  0.1044 -0.0707
 6830TIP3    H142125   2.688   3.307   8.599 -0.7059 -0.9623 -0.8046
 6830TIP3    H242126   2.546   3.351   8.627 -0.4663 -0.2670 -0.6577
 6831TIP3   OH242127   1.750   6.252   1.342  0.6314  0.4334 -0.0327
 6831TIP3    H142128   1.787   6.300   1.416  0.7334 -0.8681  0.7967
 6831TIP3    H242129   1.755   6.160   1.369  0.5574 -0.0543 -1.6172
 6832TIP3   OH242130   1.575   2.498   3.408  0.1829 -0.1728  0.1609
 6832TIP3    H142131   1.576   2.559   3.333  0.1616 -2.2308 -1.6166
 6832TIP3    H242132   1.483   2.473   3.416  0.1178  0.3728  1.2007
 6833TIP3   OH242133   2.121   6.146   2.685  0.3382 -0.5929  0.1559
 6833TIP3    H142134   2.068   6.071   2.711  0.7947  0.0947  3.5714
 6833TIP3    H242135   2.090   6.169   2.598 -1.5408 -3.1788  0.0383
 6834TIP3   OH242136   3.401   3.850   3.426 -0.7737 -0.3320  0.4769
 6834TIP3    H142137   3.484   3.844   3.473 -0.2934 -0.0364 -0.3220
 6834TIP3    H242138   3.337   3.812   3.486 -0.1446 -0.1341  1.2937
 6835TIP3   OH242139   6.284   2.357   1.120  0.5916 -0.0902  0.7493
 6835TIP3    H142140   6.337   2.371   1.042  0.5923 -1.0237  0.5783
 6835TIP3    H242141   6.203   2.319   1.087 -0.2222  1.3241  1.0013
 6836TIP3   OH242142   0.966   3.291   0.301 -0.2170  0.1027 -0.2058
 6836TIP3    H142143   1.019   3.301   0.222  0.1155  0.1187  0.0178
 6836TIP3    H242144   1.023   3.244   0.362 -1.0268 -1.3984 -0.5401
 6837TIP3   OH242145   2.674   3.733   8.188 -0.1966 -0.6815 -0.4672
 6837TIP3    H142146   2.714   3.650   8.161 -1.2709 -1.3719 -0.0085
 6837TIP3    H242147   2.648   3.718   8.279 -2.8611 -0.8229 -1.1680
 6838TIP3   OH242148   1.673   0.807   4.121 -0.8268 -0.1372  0.2190
 6838TIP3    H142149   1.653   0.899   4.140 -0.3540 -0.0468  0.2824
 6838TIP3    H242150   1.692   0.768   4.207 -3.1392 -0.8323  0.4924
 6839TIP3   OH242151   2.141   4.117   2.336  0.1394  0.5527 -0.0486
 6839TIP3    H142152   2.208   4.105   2.269  0.0383  2.2532 -0.5084
 6839TIP3    H242153   2.113   4.208   2.326 -2.6835 -0.2338 -0.2975
 6840TIP3   OH242154   3.054   0.618   1.023 -0.2786 -0.1159  0.2331
 6840TIP3    H142155   3.114   0.689   1.045  0.0128 -0.3507  0.1934
 6840TIP3    H242156   3.016   0.591   1.106  1.2164 -1.3638  0.5526
 6841TIP3   OH242157   4.438   6.311   8.455 -0.3646  0.5958  0.4438
 6841TIP3    H142158   4.484   6.228   8.466 -1.5677 -0.2184 -0.4614
 6841TIP3    H242159   4.437   6.349   8.543  1.3228  0.2833  0.6363
 6842TIP3   OH242160   2.494   2.877   8.155  0.4617  0.5618  0.1388
 6842TIP3    H142161   2.424   2.925   8.111  0.8090  0.8106 -0.1486
 6842TIP3    H242162   2.527   2.938   8.221  1.0108  0.7855 -0.3349
 6843TIP3   OH242163   0.845   0.112   2.908 -0.1311 -0.1300 -0.3131
 6843TIP3    H142164   0.796   0.189   2.879 -1.3540 -0.7549  0.0437
 6843TIP3    H242165   0.870   0.067   2.828 -0.0467  0.2529 -0.5023
 6844TIP3   OH242166   2.270   5.556   8.507  0.2497 -0.0865  0.2042
 6844TIP3    H142167   2.174   5.554   8.503  0.3086 -0.6612 -1.2548
 6844TIP3    H242168   2.298   5.580   8.419  1.4820 -1.4399  0.1928
 6845TIP3   OH242169   3.112   3.832   3.091 -0.4150  0.1249  0.5799
 6845TIP3    H142170   3.094   3.744   3.057 -0.1013  0.7434 -1.2965
 6845TIP3    H242171   3.026   3.868   3.111 -0.7638  0.2977 -1.0973
 6846TIP3   OH242172   6.853   1.498   8.785 -0.1109 -0.3308  0.0778
 6846TIP3    H142173   6.910   1.421   8.789 -0.1297 -0.6998 -3.2898
 6846TIP3    H242174   6.765   1.463   8.795 -0.0098 -0.4484  0.5641
 6847TIP3   OH242175   2.289   6.319   1.903 -0.0495 -0.1519 -0.5430
 6847TIP3    H142176   2.235   6.381   1.855 -1.3671 -0.0944  0.9411
 6847TIP3    H242177   2.365   6.371   1.931  0.4751 -0.0580 -2.0308
 6848TIP3   OH242178   5.243   6.093   1.387 -0.1598 -0.3341 -0.5155
 6848TIP3    H142179   5.260   6.079   1.481  0.2086 -0.6822 -0.6271
 6848TIP3    H242180   5.151   6.116   1.382  0.2794  1.7518  0.1458
 6849TIP3   OH242181   4.987   0.367   3.455  0.0696  0.0105  0.3420
 6849TIP3    H142182   4.942   0.386   3.538  0.2947 -1.0323  0.7160
 6849TIP3    H242183   5.076   0.341   3.482 -0.5967 -2.8825  0.0032
 6850TIP3   OH242184   4.625   1.193   2.169 -0.3219  0.3790  0.2474
 6850TIP3    H142185   4.707   1.241   2.176 -0.1356  0.0322  0.4184
 6850TIP3    H242186   4.650   1.101   2.163 -0.5127  0.3983 -2.6770
 6851TIP3   OH242187   0.851   2.760   1.872 -0.4222  0.0952 -0.0803
 6851TIP3    H142188   0.888   2.847   1.858  0.9074 -0.3625  0.4592
 6851TIP3    H242189   0.927   2.703   1.887 -1.2615 -1.1653 -0.4205
 6852TIP3   OH242190   2.974   5.626   1.189  0.0157  0.3855  0.2936
 6852TIP3    H142191   2.931   5.707   1.216  0.6038  0.7508  0.1294
 6852TIP3    H242192   2.902   5.569   1.161 -0.2038  2.0770 -2.9806
 6853TIP3   OH242193   0.267   6.315   3.948 -0.2957 -0.1331 -0.0304
 6853TIP3    H142194   0.274   6.254   3.875  0.2490 -1.2246  0.9064
 6853TIP3    H242195   0.322   6.277   4.016 -1.7930  0.1521  1.4068
 6854TIP3   OH242196   6.096   0.670   1.666  0.6858 -0.1407  0.1081
 6854TIP3    H142197   6.073   0.754   1.627  0.5068 -0.6240 -0.8564
 6854TIP3    H242198   6.136   0.620   1.595 -0.5851 -1.4191  0.2527
 6855TIP3   OH242199   5.949   5.060   2.913  0.6074  0.1871  0.1750
 6855TIP3    H142200   5.878   5.046   2.976  0.4707 -0.0172 -0.0222
 6855TIP3    H242201   5.930   5.144   2.873  0.0845 -0.1882 -0.3834
 6856TIP3   OH242202   2.437   6.324   3.006  0.0286  0.1887 -0.2432
 6856TIP3    H142203   2.488   6.282   3.075  0.5060  0.9206 -0.1413
 6856TIP3    H242204   2.427   6.257   2.939 -0.5089 -0.5618  0.5658
 6857TIP3   OH242205   2.889   1.398   8.723 -0.8456 -0.2874  0.2013
 6857TIP3    H142206   2.802   1.366   8.744 -0.8378 -0.6628 -0.2975
 6857TIP3    H242207   2.930   1.415   8.807 -0.3837 -2.8680  0.5799
 6858TIP3   OH242208   3.980   6.165   3.047  0.1142 -0.0794 -0.5102
 6858TIP3    H142209   4.048   6.111   3.007 -0.3851 -1.0006 -0.1507
 6858TIP3    H242210   3.941   6.109   3.113 -0.8153  0.5353 -0.5202
 6859TIP3   OH242211   6.361   0.367   7.961  0.5662  0.5292 -0.1787
 6859TIP3    H142212   6.272   0.385   7.931  1.5575  0.3317 -3.7171
 6859TIP3    H242213   6.356   0.281   8.003 -0.9671  0.7759  0.2124
 6860TIP3   OH242214   6.847   5.308   8.771 -0.0309  0.5184 -0.3466
 6860TIP3    H142215   6.854   5.396   8.735  0.0836  0.0290 -1.5831
 6860TIP3    H242216   6.752   5.290   8.771 -0.0828  0.7828  0.2732
 6861TIP3   OH242217   5.888   3.696   3.780 -0.1938 -0.0356  0.0289
 6861TIP3    H142218   5.892   3.744   3.697 -0.7775  2.7176  1.4603
 6861TIP3    H242219   5.967   3.723   3.827 -0.6219 -0.3278  0.9482
 6862TIP3   OH242220   0.339   4.924   0.835  0.5372 -0.4248  0.3705
 6862TIP3    H142221   0.399   4.894   0.903  1.0154 -1.1631 -0.3660
 6862TIP3    H242222   0.284   4.848   0.816  1.5448 -0.8009 -1.2747
 6863TIP3   OH242223   1.949   6.194   8.756 -0.1479 -0.3528 -0.4090
 6863TIP3    H142224   1.928   6.108   8.793  0.7485 -0.5056 -0.2282
 6863TIP3    H242225   1.975   6.175   8.666 -0.9240 -0.1439 -0.6891
 6864TIP3   OH242226   5.487   3.167   0.856  0.3143  0.3516 -0.0562
 6864TIP3    H142227   5.557   3.154   0.793  0.4843  2.5769 -0.3848
 6864TIP3    H242228   5.519   3.235   0.914 -1.2393  0.8200  0.2984
 6865TIP3   OH242229   3.236   4.812   2.361  0.5611  0.5495 -0.1407
 6865TIP3    H142230   3.258   4.905   2.353  0.7380  0.6939  1.6832
 6865TIP3    H242231   3.297   4.768   2.302  2.5131  1.3688  1.1388
 6866TIP3   OH242232   0.646   0.352   2.030 -0.1623 -0.0322 -0.0021
 6866TIP3    H142233   0.606   0.306   1.956 -0.5718  1.5993 -0.8532
 6866TIP3    H242234   0.703   0.418   1.988  0.3898  0.2418  1.1533
 6867TIP3   OH242235   2.531   0.352   3.364 -0.0529  0.1404 -0.5845
 6867TIP3    H142236   2.611   0.308   3.394 -0.1746 -1.1702 -2.0249
 6867TIP3    H242237   2.560   0.440   3.341  0.3343  0.6945  1.7771
 6868TIP3   OH242238   0.968   4.534   3.303 -0.4185 -0.3139 -0.4615
 6868TIP3    H142239   0.985   4.588   3.226 -1.4283  0.8652  0.0894
 6868TIP3    H242240   0.921   4.593   3.363 -0.4124 -1.4454  0.7004
 6869TIP3   OH242241   0.913   6.284   0.246 -0.1876  0.3059  0.0937
 6869TIP3    H142242   0.963   6.326   0.316 -0.7023  1.2929 -0.1069
 6869TIP3    H242243   0.830   6.332   0.244 -0.4679 -0.1896 -0.7037
 6870TIP3   OH242244   6.207   2.084   8.537  0.1499  0.2532  0.1414
 6870TIP3    H142245   6.189   2.035   8.457 -0.2383  0.3562  0.1663
 6870TIP3    H242246   6.134   2.145   8.546 -0.7254 -0.9455  1.5250
 6871TIP3   OH242247   1.754   4.919   2.335  0.1185  0.5090 -0.1484
 6871TIP3    H142248   1.770   4.996   2.390 -0.2246  1.1148 -0.8714
 6871TIP3    H242249   1.782   4.946   2.247 -1.9539  0.5701 -0.8560
 6872TIP3   OH242250   5.090   4.108   1.633 -0.3780 -0.1657  0.3171
 6872TIP3    H142251   5.131   4.051   1.699  1.0677  1.6126  1.0392
 6872TIP3    H242252   5.128   4.080   1.550 -0.7437 -1.1584  0.4746
 6873TIP3   OH242253   6.445   1.151   0.426 -0.6118  0.1514 -1.0768
 6873TIP3    H142254   6.386   1.130   0.354 -0.7515  1.7963 -1.4762
 6873TIP3    H242255   6.467   1.066   0.464  1.2514 -1.0535 -4.4271
 6874TIP3   OH242256   1.307   3.131   3.173  0.4309 -0.0262 -0.1889
 6874TIP3    H142257   1.327   3.068   3.104 -0.1912 -0.8340  0.3546
 6874TIP3    H242258   1.261   3.202   3.128  1.7109  0.3834 -0.9161
 6875TIP3   OH242259   4.075   0.507   0.557  0.4279 -0.0237  0.6484
 6875TIP3    H142260   4.064   0.529   0.649  0.4583 -0.0667  0.6622
 6875TIP3    H242261   4.017   0.433   0.543 -0.0024  0.3362  0.4979
 6876TIP3   OH242262   1.013   0.390   1.368  0.0862  0.2946  0.6965
 6876TIP3    H142263   1.095   0.342   1.380  0.2346  0.2581 -0.3719
 6876TIP3    H242264   0.946   0.322   1.362  0.4113  0.0952 -1.7822
 6877TIP3   OH242265   6.002   5.647   2.275  0.2500  0.1607 -0.3524
 6877TIP3    H142266   6.056   5.725   2.259 -0.1974  0.6229  0.3552
 6877TIP3    H242267   6.030   5.616   2.361 -0.9485  0.6997  0.2573
 6878TIP3   OH242268   2.436   0.132   2.855 -0.3366  0.4804 -0.6264
 6878TIP3    H142269   2.436   0.156   2.948 -1.0568 -0.6527 -0.3080
 6878TIP3    H242270   2.346   0.103   2.838  0.0367 -0.2344 -1.4417
 6879TIP3   OH242271   0.626   3.128   3.143 -0.5730 -0.0199 -0.1428
 6879TIP3    H142272   0.592   3.127   3.053 -1.9178  1.1607  0.3166
 6879TIP3    H242273   0.695   3.195   3.141  0.6773 -1.2742 -0.6913
 6880TIP3   OH242274   4.205   6.317   0.163  0.7410 -0.1112 -0.1636
 6880TIP3    H142275   4.138   6.256   0.193  1.8595 -0.9320  0.7029
 6880TIP3    H242276   4.160   6.371   0.097 -0.7430 -0.6765  0.3552
 6881TIP3   OH242277   2.600   4.912   2.948  0.0022 -0.4839  0.6668
 6881TIP3    H142278   2.684   4.903   2.994 -0.4794 -1.4596  1.4063
 6881TIP3    H242279   2.539   4.861   3.002 -0.6795 -1.3060 -0.8405
 6882TIP3   OH242280   3.292   6.598   2.115 -0.1348  0.1900 -0.0740
 6882TIP3    H142281   3.281   6.676   2.060  2.3270 -0.8108 -2.2150
 6882TIP3    H242282   3.360   6.623   2.178 -0.7430  0.3418  0.5404
 6883TIP3   OH242283   3.179   2.995   0.179 -0.4471 -0.0529  0.7296
 6883TIP3    H142284   3.207   2.918   0.131  2.5528  1.6869 -0.5877
 6883TIP3    H242285   3.236   2.998   0.256 -0.8516  0.5830  1.0185
 6884TIP3   OH242286   3.728   3.605   3.318  0.1296 -0.3350  0.4740
 6884TIP3    H142287   3.777   3.680   3.284 -1.6509  0.4877 -0.4243
 6884TIP3    H242288   3.672   3.642   3.386 -0.9919 -0.7711 -0.1859
 6885TIP3   OH242289   2.587   3.483   7.936  0.2429 -0.0986 -0.6039
 6885TIP3    H142290   2.557   3.567   7.901 -0.6692 -0.6204 -1.1193
 6885TIP3    H242291   2.674   3.501   7.970 -0.0729  1.1338 -0.4008
 6886TIP3   OH242292   5.308   2.773   0.452  0.2761 -0.2854  0.3099
 6886TIP3    H142293   5.262   2.697   0.417  2.2825 -0.1857 -2.8555
 6886TIP3    H242294   5.238   2.829   0.485 -1.4561 -2.1983  0.1204
 6887TIP3   OH242295   0.466   5.354   3.199  0.3687  0.1692 -0.4609
 6887TIP3    H142296   0.464   5.388   3.289  0.7744 -1.2472  0.1001
 6887TIP3    H242297   0.511   5.270   3.206 -1.5572 -1.0137 -1.6391
 6888TIP3   OH242298   1.754   2.707   0.997  0.5697  0.3225 -0.0235
 6888TIP3    H142299   1.778   2.755   1.076  2.6854  0.7856 -0.8906
 6888TIP3    H242300   1.809   2.628   0.999  1.5256  0.9150 -1.5870
 6889TIP3   OH242301   2.297   5.094   1.534  0.4708 -0.1033 -0.4565
 6889TIP3    H142302   2.332   5.044   1.608 -1.2237  0.0903  0.5233
 6889TIP3    H242303   2.374   5.116   1.482  1.4619 -2.3610 -0.0916
 6890TIP3   OH242304   3.848   0.897   2.737 -0.5693 -0.5054 -0.5300
 6890TIP3    H142305   3.925   0.949   2.713 -1.4499 -0.1127 -2.6783
 6890TIP3    H242306   3.873   0.855   2.820  0.7334  2.1138  0.5162
 6891TIP3   OH242307   4.989   2.070   1.970 -0.5534  0.3630  0.4600
 6891TIP3    H142308   5.037   2.014   1.909  2.1786  2.6872  0.2543
 6891TIP3    H242309   4.926   2.117   1.915 -0.1532  0.2837 -0.0783
 6892TIP3   OH242310   2.575   0.845   3.495 -0.4556  0.0397 -0.7069
 6892TIP3    H142311   2.493   0.805   3.524  0.4301  0.1132  2.3237
 6892TIP3    H242312   2.564   0.938   3.513  0.2309  0.0547 -0.3176
 6893TIP3   OH242313   4.095   2.393   2.585  0.0677  0.5135  0.1312
 6893TIP3    H142314   4.150   2.368   2.659  1.0102 -1.0645 -1.0207
 6893TIP3    H242315   4.157   2.403   2.512 -1.0427 -0.5514 -1.0201
 6894TIP3   OH242316   1.042   0.306   3.045 -0.3480  0.2600 -1.2231
 6894TIP3    H142317   0.950   0.320   3.022 -0.9863 -2.0517 -0.3090
 6894TIP3    H242318   1.058   0.214   3.024  1.1466  0.0667  0.5257
 6895TIP3   OH242319   3.772   5.824   8.365 -0.4013 -0.1479 -0.5287
 6895TIP3    H142320   3.849   5.794   8.317  0.3812 -1.1730  1.2733
 6895TIP3    H242321   3.796   5.910   8.398 -0.1694 -0.2978 -0.3010
 6896TIP3   OH242322   3.004   1.747   2.817  0.4196  0.1938 -0.3246
 6896TIP3    H142323   2.959   1.668   2.789 -1.0286  1.5878 -2.2416
 6896TIP3    H242324   3.086   1.747   2.768  0.7313 -0.4334  0.1883
 6897TIP3   OH242325   6.076   2.515   2.252 -0.3207 -0.1533  0.1185
 6897TIP3    H142326   6.028   2.458   2.193  1.5127  0.8854 -2.5820
 6897TIP3    H242327   6.026   2.596   2.255 -1.1733 -0.6895  1.2598
 6898TIP3   OH242328   5.757   1.779   2.570 -0.0539 -0.1646  0.3591
 6898TIP3    H142329   5.757   1.690   2.534 -2.2759 -0.0582 -0.0312
 6898TIP3    H242330   5.682   1.821   2.528 -0.8941  0.9248  2.8206
 6899TIP3   OH242331   1.442   0.997   3.097 -0.5568 -0.2230  0.6517
 6899TIP3    H142332   1.530   1.030   3.077 -0.2284  0.0238  2.2828
 6899TIP3    H242333   1.426   0.927   3.034  0.9708 -0.5247  0.5749
 6900TIP3   OH242334   2.075   4.017   0.510  0.1732  0.3938 -0.6766
 6900TIP3    H142335   2.107   3.971   0.588 -0.0479 -1.4824 -1.6379
 6900TIP3    H242336   2.154   4.043   0.464  0.2991  0.6811 -0.3098
 6901TIP3   OH242337   2.027   4.380   2.277  0.5239 -1.0079 -0.4171
 6901TIP3    H142338   2.011   4.368   2.183  1.8320 -0.4169 -0.7327
 6901TIP3    H242339   1.989   4.465   2.297  1.7748 -0.3373 -0.8122
 6902TIP3   OH242340   4.417   3.785   3.962  0.0682 -0.2130  0.1635
 6902TIP3    H142341   4.438   3.738   3.881  1.5961  1.8677 -0.7436
 6902TIP3    H242342   4.488   3.764   4.022  1.4430  1.7703 -0.6702
 6903TIP3   OH242343   3.130   4.170   3.031  0.1233  0.3346 -0.6523
 6903TIP3    H142344   3.189   4.140   2.961  0.6824  2.0152 -0.9562
 6903TIP3    H242345   3.147   4.265   3.037 -3.6324  1.2404 -1.7925
 6904TIP3   OH242346   6.441   3.952   1.144 -0.1753 -0.3614 -0.3741
 6904TIP3    H142347   6.487   3.967   1.062  0.8807  0.1136  0.2859
 6904TIP3    H242348   6.363   4.007   1.138 -0.6671 -1.1460 -1.4862
 6905TIP3   OH242349   3.095   3.188   8.513  0.1671  0.8798 -0.2487
 6905TIP3    H142350   3.100   3.113   8.572 -2.0597  0.9006  0.0580
 6905TIP3    H242351   3.146   3.162   8.437 -0.8009 -1.0955 -0.2769
 6906TIP3   OH242352   4.618   0.940   3.335 -0.1920  0.2201 -0.3080
 6906TIP3    H142353   4.704   0.974   3.309 -0.9530  2.6020 -0.0240
 6906TIP3    H242354   4.561   0.963   3.262 -0.1326 -4.1896 -1.9901
 6907TIP3   OH242355   0.879   0.294   2.606  0.4727 -0.2496 -0.5400
 6907TIP3    H142356   0.786   0.317   2.618  0.6242  0.9097 -1.4317
 6907TIP3    H242357   0.878   0.224   2.542  0.2463  0.4066 -1.2751
 6908TIP3   OH242358   1.314   1.952   1.965  0.0335  0.4711 -0.3244
 6908TIP3    H142359   1.373   1.983   2.034 -0.0691  0.8138 -0.3898
 6908TIP3    H242360   1.361   1.878   1.926  0.2245  0.4624 -0.0851
 6909TIP3   OH242361   2.094   0.431   0.375 -0.4228 -0.4035 -0.6741
 6909TIP3    H142362   2.081   0.477   0.458  0.3350 -2.4406  0.6424
 6909TIP3    H242363   2.176   0.466   0.341 -0.2368 -0.2580 -0.0776
 6910TIP3   OH242364   4.770   0.712   2.243 -0.0331  0.4512  0.2945
 6910TIP3    H142365   4.725   0.653   2.183  0.6395  0.8188 -0.5913
 6910TIP3    H242366   4.861   0.714   2.211  0.9113 -1.0809  2.6282
 6911TIP3   OH242367   6.610   3.324   2.718  0.8126 -0.1245  0.0771
 6911TIP3    H142368   6.705   3.338   2.721  1.0340 -1.4950  0.0421
 6911TIP3    H242369   6.576   3.402   2.675  1.9315  0.3362 -0.0108
 6912TIP3   OH242370   0.168   5.306   0.788 -0.3191 -0.4134 -0.4078
 6912TIP3    H142371   0.095   5.308   0.850 -0.2074  0.4305 -0.2914
 6912TIP3    H242372   0.138   5.358   0.714  0.7574  1.3926  0.3424
 6913TIP3   OH242373   0.716   3.323   1.723 -0.2934 -0.6606 -0.1092
 6913TIP3    H142374   0.772   3.252   1.691  1.0606  0.0917  0.5375
 6913TIP3    H242375   0.723   3.391   1.656  2.0625  0.6708  1.3730
 6914TIP3   OH242376   6.559   6.632   2.266  0.1965 -0.1137 -1.3172
 6914TIP3    H142377   6.641   6.597   2.300  0.1759  1.3944  0.4848
 6914TIP3    H242378   6.584   6.684   2.190  0.6900 -0.9096 -1.7086
 6915TIP3   OH242379   2.767   0.021   2.664  1.0622 -0.3645  0.1910
 6915TIP3    H142380   2.681  -0.005   2.696  0.7358 -0.5846 -0.8177
 6915TIP3    H242381   2.771  -0.014   2.574  1.0683  2.0133 -0.8088
 6916TIP3   OH242382   0.950   2.138   3.095 -0.1427 -0.2691  0.2076
 6916TIP3    H142383   0.932   2.045   3.109  1.6299 -0.7290 -0.3426
 6916TIP3    H242384   0.892   2.183   3.156  0.3699 -1.8143  1.9056
 6917TIP3   OH242385   3.529   3.555   2.106 -0.3886  0.3067 -0.1362
 6917TIP3    H142386   3.455   3.503   2.138 -0.2134 -0.8986 -1.5628
 6917TIP3    H242387   3.599   3.491   2.093  0.0988  1.0222 -1.1657
 6918TIP3   OH242388   4.059   5.892   1.224 -0.2411 -0.0309  0.3427
 6918TIP3    H142389   4.022   5.811   1.187  1.0628  0.1964 -1.6296
 6918TIP3    H242390   4.006   5.962   1.186  1.2886  0.2221 -1.4455
 6919TIP3   OH242391   3.886   3.756   3.941  0.2824  0.4655 -0.1293
 6919TIP3    H142392   3.907   3.753   4.034  2.7931  0.4655 -0.6335
 6919TIP3    H242393   3.922   3.840   3.911  1.1901 -0.3491 -1.4252
 6920TIP3   OH242394   2.658   1.514   3.754  0.2600  0.3355  0.0353
 6920TIP3    H142395   2.640   1.597   3.711 -0.4452  0.4720  0.5754
 6920TIP3    H242396   2.630   1.448   3.690 -0.1358  0.5270  0.0093
 6921TIP3   OH242397   5.726   4.401   0.345  0.3371  0.6497  0.1092
 6921TIP3    H142398   5.672   4.456   0.289  2.8600  1.6006 -1.5766
 6921TIP3    H242399   5.751   4.327   0.288  0.4923  0.0106  0.9833
 6922TIP3   OH242400   3.105   2.359   0.441  0.3161  0.2689 -0.1004
 6922TIP3    H142401   3.072   2.426   0.381  0.3911 -1.0197 -1.6500
 6922TIP3    H242402   3.128   2.285   0.385 -1.2254 -1.6820  1.6607
 6923TIP3   OH242403   6.364   1.067   2.912 -0.1648  0.6623 -0.2198
 6923TIP3    H142404   6.334   0.997   2.854 -0.3283  2.9483 -3.1310
 6923TIP3    H242405   6.333   1.041   2.999 -3.7166 -1.0118 -1.7635
 6924TIP3   OH242406   1.563   3.670   2.927  0.3166  0.3992 -0.3103
 6924TIP3    H142407   1.618   3.593   2.918 -0.3917 -0.4249  1.7613
 6924TIP3    H242408   1.531   3.688   2.838  0.7340 -1.5146 -0.8908
 6925TIP3   OH242409   0.574   2.314   4.214 -0.3244  0.1653 -0.0539
 6925TIP3    H142410   0.512   2.241   4.215  0.5100 -0.5958  2.2045
 6925TIP3    H242411   0.644   2.286   4.156 -0.3147 -0.5907  0.3122
 6926TIP3   OH242412   2.189   3.131   7.820 -0.2203 -0.6743 -0.1117
 6926TIP3    H142413   2.178   3.120   7.726 -0.8501  0.0003 -0.1251
 6926TIP3    H242414   2.120   3.192   7.845  0.4598 -0.2039  0.6540
 6927TIP3   OH242415   6.000   1.197   1.652  0.0018  0.4417  0.0117
 6927TIP3    H142416   5.925   1.207   1.710  0.2481  3.2971  0.0101
 6927TIP3    H242417   6.070   1.246   1.696  0.9605  0.3856 -1.4062
 6928TIP3   OH242418   1.896   5.957   3.187 -0.3018  0.1453  0.0105
 6928TIP3    H142419   1.977   5.979   3.140  0.0865 -0.9760  0.1472
 6928TIP3    H242420   1.876   5.868   3.160 -0.4462 -0.2819  1.4639
 6929TIP3   OH242421   1.645   1.322   2.853  0.4861  0.0259  0.3599
 6929TIP3    H142422   1.724   1.276   2.880 -0.0755 -1.7838 -0.8517
 6929TIP3    H242423   1.676   1.392   2.796  1.2573 -0.1715  0.5249
 6930TIP3   OH242424   3.561   6.140   3.177 -0.3981  0.3833  0.3765
 6930TIP3    H142425   3.481   6.156   3.127 -0.2138  2.3586  0.6320
 6930TIP3    H242426   3.530   6.116   3.264 -0.7282  1.4764  0.5702
 6931TIP3   OH242427   3.114   6.759   2.374 -0.0328 -0.4312 -0.1979
 6931TIP3    H142428   3.104   6.833   2.434  0.1018 -1.2193  0.8178
 6931TIP3    H242429   3.208   6.759   2.352 -0.0809 -0.1457 -0.4098
 6932TIP3   OH242430   3.085   2.015   1.280  0.0214  0.0513 -0.1082
 6932TIP3    H142431   3.085   1.949   1.348 -2.1956  0.7226  0.6273
 6932TIP3    H242432   3.177   2.042   1.272  0.5257 -1.0215  1.6274
 6933TIP3   OH242433   0.572   4.018   1.949 -0.3198 -0.7268 -0.7023
 6933TIP3    H142434   0.655   3.972   1.940  0.3767  0.3616 -0.0663
 6933TIP3    H242435   0.512   3.971   1.890  1.2479 -0.3289 -2.7144
 6934TIP3   OH242436   0.784   2.565   3.206 -0.2261 -0.0330 -0.3326
 6934TIP3    H142437   0.708   2.620   3.225  0.1886  0.8761 -1.1849
 6934TIP3    H242438   0.786   2.560   3.110 -0.3673 -1.7248 -0.2699
 6935TIP3   OH242439   6.012   3.991   0.106 -0.1557  0.6153  0.0753
 6935TIP3    H142440   6.078   3.935   0.148  0.3193  1.4103  0.4149
 6935TIP3    H242441   5.965   3.932   0.047  0.2190 -0.1776  0.5475
 6936TIP3   OH242442   0.104   1.365   1.923  0.1927 -0.3985  0.0298
 6936TIP3    H142443   0.054   1.415   1.987  0.0698  1.0389 -1.1322
 6936TIP3    H242444   0.175   1.324   1.973 -0.1618  0.3177  1.1388
 6937TIP3   OH242445   1.275   1.167   8.557 -0.4530  0.1395  0.0982
 6937TIP3    H142446   1.191   1.192   8.595 -1.1259 -0.6896 -0.8066
 6937TIP3    H242447   1.252   1.118   8.478  0.8907  1.3627 -1.1107
 6938TIP3   OH242448   6.393   2.559   0.523  0.3721  0.2747  0.2034
 6938TIP3    H142449   6.406   2.644   0.566  3.9705 -0.1560  0.2742
 6938TIP3    H242450   6.379   2.580   0.431 -1.4907  0.9549  0.5817
 6939TIP3   OH242451   2.936   2.098   3.546 -0.0367 -0.5520  0.8508
 6939TIP3    H142452   2.998   2.169   3.534 -0.3255 -0.5297 -0.7037
 6939TIP3    H242453   2.936   2.051   3.463 -1.1634 -1.3070  1.2459
 6940TIP3   OH242454   6.333   2.158   2.422 -0.6125  0.2080 -0.6282
 6940TIP3    H142455   6.353   2.079   2.371  3.6159 -0.0169  0.9573
 6940TIP3    H242456   6.394   2.224   2.390 -0.7037  1.3215  1.2928
 6941TIP3   OH242457   5.869   5.823   8.631  0.1612 -0.1126 -0.5015
 6941TIP3    H142458   5.925   5.754   8.594 -1.5494 -1.4533 -0.7046
 6941TIP3    H242459   5.806   5.842   8.561 -0.7160  0.1092  0.3323
 6942TIP3   OH242460   4.394   1.360   1.243 -0.4103 -0.0996  0.1022
 6942TIP3    H142461   4.464   1.308   1.203 -0.7763 -0.6146  0.1130
 6942TIP3    H242462   4.439   1.417   1.305 -0.1477 -1.9547  1.7364
 6943TIP3   OH242463   1.940   3.855   3.808  0.3016  0.1754 -0.7266
 6943TIP3    H142464   2.035   3.843   3.814  0.0377 -1.8450  0.3049
 6943TIP3    H242465   1.906   3.767   3.796 -1.3703  1.0471 -3.1035
 6944TIP3   OH242466   4.011   0.892   0.187  0.0805 -0.1566 -0.6325
 6944TIP3    H142467   4.094   0.888   0.140  1.6449  0.8177  1.8581
 6944TIP3    H242468   4.003   0.807   0.230 -0.2094 -0.2133 -0.7874
 6945TIP3   OH242469   2.841   4.287   8.287  0.0916  0.1708  0.4857
 6945TIP3    H142470   2.808   4.316   8.372  0.8442  1.1234  0.4712
 6945TIP3    H242471   2.873   4.198   8.303 -1.4365 -0.3705  0.7463
 6946TIP3   OH242472   2.698   4.697   1.894  0.3116  0.4456 -0.5463
 6946TIP3    H142473   2.711   4.619   1.840  1.0673  0.6445 -0.6554
 6946TIP3    H242474   2.751   4.764   1.853  0.0499  0.8898 -0.1656
 6947TIP3   OH242475   6.044   2.212   0.309 -0.2876 -0.4198 -0.5048
 6947TIP3    H142476   6.118   2.272   0.313  0.3984 -1.2713  0.4029
 6947TIP3    H242477   6.038   2.186   0.217 -1.9715  2.6159 -1.3654
 6948TIP3   OH242478   5.350   3.335   0.547  0.1582  0.1195 -0.1251
 6948TIP3    H142479   5.392   3.305   0.466 -0.9456  1.0286 -1.0682
 6948TIP3    H242480   5.298   3.261   0.576 -1.1012  0.4255 -1.4369
 6949TIP3   OH242481   2.380   5.663   2.460 -0.1827  0.0301 -0.3347
 6949TIP3    H142482   2.361   5.757   2.470 -2.0437 -0.5110  2.0855
 6949TIP3    H242483   2.297   5.624   2.435  0.3487 -1.1080 -0.3660
 6950TIP3   OH242484   5.108   2.824   3.147 -0.0438  0.3668 -0.4519
 6950TIP3    H142485   5.180   2.815   3.210  0.6051 -0.1284 -1.2440
 6950TIP3    H242486   5.030   2.804   3.197  0.5219 -0.6197  0.0623
 6951TIP3   OH242487   0.620   5.127   8.673  0.0072 -0.1722 -0.3704
 6951TIP3    H142488   0.628   5.133   8.769  2.1814  0.0871 -0.5166
 6951TIP3    H242489   0.621   5.033   8.655  1.2917 -0.2141 -0.2027
 6952TIP3   OH242490   3.791   5.294   3.613  0.0580 -0.2377 -0.0621
 6952TIP3    H142491   3.810   5.286   3.519  1.7752 -0.5907  0.2893
 6952TIP3    H242492   3.830   5.216   3.652  1.2859  0.9615  1.2084
 6953TIP3   OH242493   0.146   6.342   1.601  0.1481 -0.0158 -0.1111
 6953TIP3    H142494   0.175   6.376   1.686 -1.0528 -1.0130  0.7443
 6953TIP3    H242495   0.165   6.412   1.539 -0.3769  1.3816  1.2436
 6954TIP3   OH242496   6.108   2.215   0.968  0.2039  0.0743 -0.1290
 6954TIP3    H142497   6.108   2.256   0.882  0.5825 -1.0963 -0.7123
 6954TIP3    H242498   6.164   2.137   0.957 -0.6329 -0.6937  0.8749
 6955TIP3   OH242499   6.387   0.531   1.503 -0.3379  0.5415  0.0617
 6955TIP3    H142500   6.342   0.478   1.437  0.4310  0.9606 -0.8128
 6955TIP3    H242501   6.458   0.475   1.533  1.5265  1.6285 -2.0853
 6956TIP3   OH242502   1.752   6.234   2.660 -0.3897 -0.4639 -0.4877
 6956TIP3    H142503   1.761   6.240   2.755 -0.6467  0.5561 -0.5145
 6956TIP3    H242504   1.745   6.141   2.642  2.2347 -0.8969  0.2560
 6957TIP3   OH242505   5.941   3.245   1.774  0.1325  0.7076 -0.5223
 6957TIP3    H142506   5.881   3.170   1.764 -0.3134  1.2738 -2.3328
 6957TIP3    H242507   5.939   3.264   1.868 -0.8098 -0.6851 -0.2266
 6958TIP3   OH242508   3.923   0.116   1.593  0.0124  0.5860  0.2398
 6958TIP3    H142509   3.858   0.079   1.534  0.0945  1.1478 -0.2155
 6958TIP3    H242510   3.897   0.086   1.680 -0.2035 -0.1114 -0.0640
 6959TIP3   OH242511   4.413   4.360   3.193  0.1777 -0.2912  0.0479
 6959TIP3    H142512   4.374   4.401   3.270  0.0023  1.1035 -0.7573
 6959TIP3    H242513   4.402   4.424   3.123  0.8597 -1.2860 -1.0114
 6960TIP3   OH242514   3.877   5.700   2.203 -0.2513 -0.1436 -0.1638
 6960TIP3    H142515   3.785   5.704   2.181 -0.3794 -2.3775 -0.3075
 6960TIP3    H242516   3.879   5.667   2.293  0.3800 -1.0832 -0.4956
 6961TIP3   OH242517   1.806   0.990   2.672  0.6069  0.3804 -0.9235
 6961TIP3    H142518   1.782   1.080   2.650  3.1967  1.2131 -0.7163
 6961TIP3    H242519   1.890   0.998   2.716  0.3863 -2.0875  0.1039
 6962TIP3   OH242520   4.144   1.891   2.403 -0.0986 -0.1357 -0.3785
 6962TIP3    H142521   4.095   1.867   2.324 -2.2071  1.2295  0.4024
 6962TIP3    H242522   4.233   1.907   2.373 -0.6936 -0.3210 -2.3581
 6963TIP3   OH242523   5.938   0.804   2.108 -0.2544 -0.2003  0.2735
 6963TIP3    H142524   5.860   0.781   2.159  0.8887 -2.3239  1.2179
 6963TIP3    H242525   5.979   0.875   2.158  0.0173 -1.1898  1.5225
 6964TIP3   OH242526   4.725   4.723   0.183  0.1877 -0.4727 -0.5683
 6964TIP3    H142527   4.738   4.662   0.255  0.5750 -0.0083 -0.2371
 6964TIP3    H242528   4.812   4.754   0.161 -0.0210  0.1121 -0.5955
 6965TIP3   OH242529   3.748   4.028   1.987 -0.1592  0.2289  0.3571
 6965TIP3    H142530   3.751   3.934   2.004 -1.4408  0.1477  0.2191
 6965TIP3    H242531   3.776   4.037   1.896 -1.6687 -0.2022 -0.1715
 6966TIP3   OH242532   2.873   0.847   2.397 -0.5252  0.5399 -0.1504
 6966TIP3    H142533   2.880   0.936   2.362 -2.8887  0.7582 -0.2057
 6966TIP3    H242534   2.808   0.853   2.467  0.6830 -0.8137  1.1718
 6967TIP3   OH242535   4.876   5.021   0.115 -0.0512  0.5046 -0.2059
 6967TIP3    H142536   4.936   5.031   0.040  1.7304 -1.3734  0.8434
 6967TIP3    H242537   4.796   5.064   0.087  0.6466  0.1961 -3.0728
 6968TIP3   OH242538   5.460   5.347   1.696  0.4870 -0.5080 -0.1875
 6968TIP3    H142539   5.544   5.383   1.723 -1.5297  2.3853  3.2611
 6968TIP3    H242540   5.435   5.398   1.619  0.8941  0.2967  0.2015
 6969TIP3   OH242541   5.099   3.585   1.650 -0.6336 -0.3611 -0.1987
 6969TIP3    H142542   5.048   3.622   1.722 -1.3523 -0.5900 -0.5796
 6969TIP3    H242543   5.159   3.655   1.624  1.6169 -1.1360  2.4190
 6970TIP3   OH242544   4.773   0.898   1.906 -0.3804  0.0825 -0.0645
 6970TIP3    H142545   4.778   0.981   1.859  0.6078  0.0498 -0.0389
 6970TIP3    H242546   4.720   0.841   1.849  2.5868 -0.6640 -2.3210
 6971TIP3   OH242547   5.357   2.550   1.626  0.5351 -0.0024 -0.3584
 6971TIP3    H142548   5.316   2.637   1.623  0.8026  0.1514  0.2673
 6971TIP3    H242549   5.302   2.499   1.686  0.0256 -0.4608 -1.2000
 6972TIP3   OH242550   3.294   5.792   1.824  0.7520  0.0865  0.6265
 6972TIP3    H142551   3.232   5.847   1.873  1.7280  1.8237  0.0047
 6972TIP3    H242552   3.379   5.812   1.863  1.0135 -2.0991  1.3195
 6973TIP3   OH242553   4.513   2.761   0.364 -0.2397 -0.1730  0.0936
 6973TIP3    H142554   4.603   2.783   0.340 -0.8903  0.5499 -1.8250
 6973TIP3    H242555   4.464   2.764   0.282 -1.8783 -1.3570  0.9659
 6974TIP3   OH242556   4.491   5.284   1.608  0.1329 -0.3825 -0.0035
 6974TIP3    H142557   4.452   5.208   1.650 -0.0790  0.5364  1.5318
 6974TIP3    H242558   4.416   5.335   1.575  0.2019 -0.2048  0.1108
 6975TIP3   OH242559   5.685   4.640   2.444 -0.8829  0.0181 -0.6154
 6975TIP3    H142560   5.622   4.700   2.404 -1.4200  0.3058  0.6366
 6975TIP3    H242561   5.688   4.665   2.536  1.6826  0.5563 -0.7561
 6976TIP3   OH242562   5.584   1.933   3.042 -0.1238 -0.1668  0.1413
 6976TIP3    H142563   5.596   1.890   2.958 -0.2767 -1.8323  0.9421
 6976TIP3    H242564   5.673   1.944   3.076 -0.0233  0.9748 -0.4251
 6977TIP3   OH242565   3.798   4.977   1.098 -0.4986 -0.2575  0.1360
 6977TIP3    H142566   3.834   5.065   1.088  2.1158 -1.2742 -0.3818
 6977TIP3    H242567   3.709   4.982   1.063  0.6804  1.4612 -3.0245
 6978TIP3   OH242568   4.585   3.053   0.752 -0.4845 -0.6257 -0.3848
 6978TIP3    H142569   4.537   3.056   0.669  0.3070  1.3692 -0.8341
 6978TIP3    H242570   4.608   3.145   0.769  0.4930 -1.1613  1.3868
 6979TIP3   OH242571   0.609   0.265   3.975  0.5487  0.6572 -0.1304
 6979TIP3    H142572   0.587   0.200   4.041  0.1622  0.0314 -0.8597
 6979TIP3    H242573   0.691   0.304   4.006  0.8190 -0.2168  0.2856
 6980TIP3   OH242574   6.679   1.718   2.337 -0.0998 -0.3118  0.2061
 6980TIP3    H142575   6.666   1.772   2.259 -0.9357  1.1666  1.2905
 6980TIP3    H242576   6.719   1.778   2.400  1.9105 -1.8553  0.4992
 6981TIP3   OH242577   6.666   4.997   2.620  0.0389  0.0909  0.2550
 6981TIP3    H142578   6.608   4.992   2.544  0.7357  0.8148 -0.3373
 6981TIP3    H242579   6.617   5.047   2.684 -0.1604  0.3409 -0.0903
 6982TIP3   OH242580   0.341   0.235   3.488 -0.0181 -0.3942 -0.1265
 6982TIP3    H142581   0.394   0.255   3.565  1.3590  0.9398 -1.3379
 6982TIP3    H242582   0.251   0.227   3.521  0.3552  1.3254  1.4614
 6983TIP3   OH242583   5.103   1.352   0.603 -0.0807  0.6806  0.1614
 6983TIP3    H142584   5.009   1.364   0.598 -0.0227  0.7800 -0.7566
 6983TIP3    H242585   5.139   1.409   0.535  0.4671 -1.2427 -1.2594
 6984TIP3   OH242586   6.554   6.239   0.724  0.3270 -0.2732  0.0315
 6984TIP3    H142587   6.616   6.310   0.707 -0.0731  0.1753  0.4098
 6984TIP3    H242588   6.556   6.227   0.819 -0.1396 -0.2796  0.0442
 6985TIP3   OH242589   2.263   2.021   3.231 -0.2502  0.0063  0.1043
 6985TIP3    H142590   2.182   1.988   3.271  0.1746 -1.4371 -0.1718
 6985TIP3    H242591   2.291   2.093   3.289 -2.2324  1.2127 -0.3457
 6986TIP3   OH242592   6.046   1.638   0.924  0.1704 -0.5220  0.1349
 6986TIP3    H142593   6.075   1.615   0.835  0.4725  1.1496 -0.2272
 6986TIP3    H242594   6.090   1.574   0.980 -1.9496 -3.2267 -1.0396
 6987TIP3   OH242595   5.572   6.443   8.770 -0.5488  0.6052  0.3059
 6987TIP3    H142596   5.526   6.526   8.780 -0.7389  0.3997  1.2779
 6987TIP3    H242597   5.561   6.420   8.678 -1.1554  1.2732  0.2055
 6988TIP3   OH242598   0.122   3.454   3.411 -0.4879 -0.3164  0.1879
 6988TIP3    H142599   0.048   3.434   3.467  0.7034 -1.2326  1.5090
 6988TIP3    H242600   0.091   3.524   3.354 -1.7205  0.7817  2.0942
 6989TIP3   OH242601   5.644   5.490   1.999  0.2798 -0.0617 -0.2820
 6989TIP3    H142602   5.556   5.513   1.969 -0.0916  0.9708  1.4757
 6989TIP3    H242603   5.702   5.549   1.951 -0.1146  0.1908 -0.4566
 6990TIP3   OH242604   4.387   1.257   4.555 -0.0975  0.8501  0.0299
 6990TIP3    H142605   4.342   1.341   4.547  0.5876  1.4710  2.0701
 6990TIP3    H242606   4.341   1.199   4.494 -0.7432  2.6166 -1.2325
 6991TIP3   OH242607   0.372   2.736   3.600  0.1370  0.1724  0.3003
 6991TIP3    H142608   0.365   2.649   3.639  2.5653  0.6649  2.0438
 6991TIP3    H242609   0.466   2.752   3.593 -0.1803  3.2639  1.5531
 6992TIP3   OH242610   2.107   2.124   1.724  0.2544 -0.3131  0.2242
 6992TIP3    H142611   2.147   2.040   1.699  0.8181 -0.0140  0.0974
 6992TIP3    H242612   2.130   2.135   1.816  1.0096  0.1486 -0.0058
 6993TIP3   OH242613   2.591   4.902   0.278 -0.1865 -0.3026 -0.2372
 6993TIP3    H142614   2.656   4.846   0.236 -0.2680 -0.9526  0.4782
 6993TIP3    H242615   2.575   4.972   0.214  2.5486  0.9357  0.3084
 6994TIP3   OH242616   6.671   6.360   4.027 -0.6719 -0.2356  0.3765
 6994TIP3    H142617   6.608   6.432   4.023  0.9850  1.2651 -0.0531
 6994TIP3    H242618   6.617   6.281   4.025 -2.4790  0.9253 -1.9535
 6995TIP3   OH242619   5.222   3.123   0.641  0.0851 -0.1740  0.2436
 6995TIP3    H142620   5.234   3.146   0.733  2.2729 -0.8602  0.1842
 6995TIP3    H242621   5.192   3.032   0.643  0.9560 -0.4736  0.2954
 6996TIP3   OH242622   1.864   1.010   0.466  0.7843 -0.0375 -0.1778
 6996TIP3    H142623   1.935   1.039   0.524  1.0283  2.2955 -1.5182
 6996TIP3    H242624   1.786   1.055   0.498  0.4493 -0.5299 -0.2886
 6997TIP3   OH242625   6.027   6.309   3.283 -0.2536 -0.2854  0.0208
 6997TIP3    H142626   6.106   6.341   3.326 -1.0358 -0.7247  1.8745
 6997TIP3    H242627   6.047   6.219   3.259 -0.4253 -0.6481  1.1877
 6998TIP3   OH242628   2.997   5.755   3.178  0.2516  0.2122  0.1680
 6998TIP3    H142629   2.980   5.700   3.254 -0.1058 -0.3292 -0.2965
 6998TIP3    H242630   3.092   5.766   3.177  0.5005 -1.6121 -0.5444
 6999TIP3   OH242631   0.858   6.577   1.115 -0.4529 -0.6332 -0.1041
 6999TIP3    H142632   0.852   6.484   1.138 -1.7783 -0.1886  1.4971
 6999TIP3    H242633   0.952   6.591   1.099 -0.2254 -2.2210 -0.3442
 7000TIP3   OH242634   2.370   3.519   1.522  0.6221  0.1674  0.0091
 7000TIP3    H142635   2.425   3.506   1.599  0.7175  1.1913  0.1279
 7000TIP3    H242636   2.339   3.431   1.499  3.5242 -0.7065 -0.9633
 7001TIP3   OH242637   2.456   1.348   1.946  0.8098  0.3001  0.2325
 7001TIP3    H142638   2.460   1.364   1.851  2.8996 -0.0200  0.2146
 7001TIP3    H242639   2.542   1.376   1.978  0.0550  0.6295  2.0945
 7002TIP3   OH242640   4.277   6.554   2.749 -0.1203 -0.5233  0.0760
 7002TIP3    H142641   4.223   6.603   2.811 -1.2750  0.2004 -1.4441
 7002TIP3    H242642   4.361   6.600   2.749 -0.7240  0.6176 -0.2697
 7003TIP3   OH242643   2.187   6.806   3.190 -0.0976 -0.2180  0.2545
 7003TIP3    H142644   2.113   6.824   3.248  0.1940 -1.8992  1.2181
 7003TIP3    H242645   2.263   6.803   3.249  0.4279 -0.5160 -0.4259
 7004TIP3   OH242646   4.804   6.396   3.844 -0.1641 -0.6562  0.3917
 7004TIP3    H142647   4.897   6.419   3.834 -0.9498  2.8316 -0.1598
 7004TIP3    H242648   4.798   6.360   3.932  1.7620 -1.4418  0.2534
 7005TIP3   OH242649   5.046   2.572   2.663  0.3911 -0.3705 -0.5554
 7005TIP3    H142650   5.021   2.505   2.726  0.7084 -1.5814 -1.6817
 7005TIP3    H242651   5.132   2.544   2.630  0.9948  1.1131 -0.3498
 7006TIP3   OH242652   3.498   2.711   3.522 -0.3061 -0.2454  0.0963
 7006TIP3    H142653   3.424   2.713   3.583  0.5169  0.4960  1.1163
 7006TIP3    H242654   3.568   2.668   3.571 -0.5532 -2.6308 -1.4891
 7007TIP3   OH242655   4.163   2.630   8.413  0.3301 -0.5562 -0.1990
 7007TIP3    H142656   4.253   2.627   8.380  0.8830  0.0451  1.1958
 7007TIP3    H242657   4.159   2.561   8.478  0.0772  0.0445  0.4343
 7008TIP3   OH242658   1.450   3.922   0.766  0.9451  0.6030  0.4297
 7008TIP3    H142659   1.486   3.987   0.826  1.3817  1.0343 -0.2798
 7008TIP3    H242660   1.449   3.841   0.816  2.7638  0.5991  0.5393
 7009TIP3   OH242661   3.774   5.950   2.229 -0.0100 -0.4232  0.4509
 7009TIP3    H142662   3.807   6.037   2.252  1.7323 -0.7979 -0.4291
 7009TIP3    H242663   3.830   5.922   2.157 -1.2303 -1.8541  0.0066
 7010TIP3   OH242664   6.272   1.655   0.386  0.1683  0.2529  0.0359
 7010TIP3    H142665   6.307   1.744   0.381  1.2722 -0.2188 -2.1599
 7010TIP3    H242666   6.182   1.666   0.416  0.5742  2.0175  0.7073
 7011TIP3   OH242667   0.503   4.115   0.098 -0.2395 -0.1004  0.7048
 7011TIP3    H142668   0.466   4.156   0.020  0.4761  1.1801  1.0199
 7011TIP3    H242669   0.578   4.170   0.122  0.5872 -1.4280  1.3168
 7012TIP3   OH242670   6.636   5.490   1.947 -0.2429  0.6196  0.2631
 7012TIP3    H142671   6.711   5.549   1.948  1.7155 -1.6806 -0.4705
 7012TIP3    H242672   6.628   5.460   2.037 -0.7932  1.4233  0.4925
 7013TIP3   OH242673   5.036   0.212   0.984  1.0544  0.6193  0.1762
 7013TIP3    H142674   5.010   0.203   0.892  0.2867  0.7332  0.3800
 7013TIP3    H242675   5.097   0.139   0.999  0.6753  0.2144 -0.2429
 7014TIP3   OH242676   0.443   1.110   1.816 -0.2630  0.2213 -0.3531
 7014TIP3    H142677   0.361   1.062   1.804  0.1884 -0.7303  0.1795
 7014TIP3    H242678   0.480   1.073   1.896 -0.0981  1.7884  0.3400
 7015TIP3   OH242679   3.880   4.590   2.074  0.5898  0.3382 -0.3293
 7015TIP3    H142680   3.863   4.680   2.100 -1.7147 -0.2838  0.5705
 7015TIP3    H242681   3.899   4.545   2.156 -1.9201 -0.6701 -0.2108
 7016TIP3   OH242682   0.828   1.046   0.016  0.0000 -0.5098 -0.0624
 7016TIP3    H142683   0.902   1.076  -0.036 -0.1255 -2.4476 -1.4687
 7016TIP3    H242684   0.754   1.048  -0.045 -1.0533  1.0508  1.2198
 7017TIP3   OH242685   1.246   4.763   2.860  0.2249  0.0426  0.2667
 7017TIP3    H142686   1.190   4.712   2.803  0.6783  0.1654 -0.2985
 7017TIP3    H242687   1.335   4.730   2.844  0.4292  0.4748  0.4654
 7018TIP3   OH242688   4.867   4.115   8.245 -0.0864  0.1086  0.4588
 7018TIP3    H142689   4.778   4.148   8.229  0.4791  0.8649 -1.4492
 7018TIP3    H242690   4.857   4.020   8.247 -0.9744  0.1871  0.4567
 7019TIP3   OH242691   5.511   4.695   0.905  0.5155 -0.5565 -0.5854
 7019TIP3    H142692   5.515   4.600   0.909  1.4184 -0.5795 -1.5090
 7019TIP3    H242693   5.429   4.718   0.948  0.4758 -1.7230 -0.0001
 7020TIP3   OH242694   0.917   2.616   8.613 -0.5125 -0.1994  0.8429
 7020TIP3    H142695   0.879   2.627   8.526  0.9486  0.7771  0.3021
 7020TIP3    H242696   0.937   2.705   8.642  1.5628 -0.6703  0.9876
 7021TIP3   OH242697   1.510   0.362   0.100  0.6643  0.4006 -0.3905
 7021TIP3    H142698   1.584   0.395   0.049 -0.1325  1.3792 -0.9341
 7021TIP3    H242699   1.474   0.291   0.046  1.2688 -0.1777 -0.0578
 7022TIP3   OH242700   5.143   4.212   1.972  0.0418 -0.1456  0.0605
 7022TIP3    H142701   5.199   4.171   2.038 -1.1624 -1.5227  0.2813
 7022TIP3    H242702   5.134   4.146   1.903 -0.8670  0.2460 -0.2137
 7023TIP3   OH242703   3.210   2.742   0.089 -0.6168 -0.9982  0.3340
 7023TIP3    H142704   3.233   2.677   0.023  1.3614 -1.4407  1.3683
 7023TIP3    H242705   3.238   2.703   0.172  1.4211  1.4251  0.9285
 7024TIP3   OH242706   1.370   3.917   1.111  0.0225  0.4765 -0.6083
 7024TIP3    H142707   1.382   3.827   1.082 -0.2043 -0.1282  1.0818
 7024TIP3    H242708   1.363   3.967   1.030 -2.2477 -1.3232 -1.6315
 7025TIP3   OH242709   2.198   3.272   8.437 -0.4980  0.1851 -0.0667
 7025TIP3    H142710   2.115   3.289   8.393 -0.0172  0.3928 -0.9095
 7025TIP3    H242711   2.263   3.318   8.384  0.2519 -0.5849  0.1657
 7026TIP3   OH242712   2.950   1.337   3.788 -0.6263 -0.0779 -0.5501
 7026TIP3    H142713   2.857   1.353   3.770 -0.8655  0.5311  1.0721
 7026TIP3    H242714   2.993   1.419   3.764 -0.1924 -0.9203 -2.9792
 7027TIP3   OH242715   5.573   2.390   3.607 -0.1416 -0.6115  0.3870
 7027TIP3    H142716   5.498   2.335   3.585  0.1958 -2.2706  2.9060
 7027TIP3    H242717   5.627   2.335   3.664  0.8040  1.9584  2.1790
 7028TIP3   OH242718   0.465   1.279   1.610  0.1172 -0.5271  0.6115
 7028TIP3    H142719   0.387   1.321   1.646  0.4322 -1.6664  2.8016
 7028TIP3    H242720   0.459   1.188   1.640  2.1043 -0.7184  0.5678
 7029TIP3   OH242721   1.290   6.004   1.772 -0.1112  0.4642  0.1893
 7029TIP3    H142722   1.274   5.914   1.743  0.1945  0.4495  0.0659
 7029TIP3    H242723   1.382   6.005   1.796 -0.1976  0.6572  0.5178
 7030TIP3   OH242724   2.535   4.807   3.212 -0.3664 -0.0068  0.1681
 7030TIP3    H142725   2.485   4.732   3.242  0.3595 -0.0825  1.2730
 7030TIP3    H242726   2.620   4.799   3.257 -0.2246  1.3808  0.2152
 7031TIP3   OH242727   1.067   3.560   3.594  0.1850  0.0695 -0.2196
 7031TIP3    H142728   1.034   3.485   3.642 -0.5304 -0.6598 -1.8207
 7031TIP3    H242729   0.990   3.612   3.573  0.5961  0.8913  0.2364
 7032TIP3   OH242730   5.281   6.554   3.377  0.1644  0.0072  0.1920
 7032TIP3    H142731   5.356   6.497   3.360  1.0146  0.8912  0.8427
 7032TIP3    H242732   5.210   6.494   3.402  0.6187 -0.8435 -0.5220
 7033TIP3   OH242733   0.807   3.421   4.192 -0.2186 -0.0081 -0.0097
 7033TIP3    H142734   0.899   3.398   4.205 -0.2419 -0.1580 -0.1057
 7033TIP3    H242735   0.809   3.511   4.158 -0.0655 -0.3272 -0.8502
 7034TIP3   OH242736   4.285   1.909   8.573 -0.1298 -0.0087  0.4895
 7034TIP3    H142737   4.354   1.863   8.621 -1.3883  0.1594  2.5754
 7034TIP3    H242738   4.221   1.841   8.554 -1.8650  0.6443  3.3417
 7035TIP3   OH242739   5.399   2.203   3.507 -0.0399 -0.0785  0.0104
 7035TIP3    H142740   5.307   2.181   3.493 -0.5011  1.4910  0.4022
 7035TIP3    H242741   5.440   2.189   3.421 -0.9367  0.5784 -0.5403
 7036TIP3   OH242742   1.363   2.671   1.912 -0.3724 -0.5903  0.3580
 7036TIP3    H142743   1.352   2.714   1.827  1.0837 -0.1986  0.3528
 7036TIP3    H242744   1.407   2.736   1.966  1.0454 -1.7226  0.6326
 7037TIP3   OH242745   4.088   4.025   2.936 -0.0468 -0.5994 -0.3538
 7037TIP3    H142746   4.125   3.960   2.877  0.9215 -0.6586  0.2974
 7037TIP3    H242747   4.128   4.108   2.908  0.0525 -0.5564 -0.0862
 7038TIP3   OH242748   6.776   4.579   2.423  0.0456  0.3121 -0.2291
 7038TIP3    H142749   6.790   4.549   2.333  1.4988 -0.7433  0.2988
 7038TIP3    H242750   6.863   4.574   2.463 -0.4019  1.6675  0.9748
 7039TIP3   OH242751   2.782   1.392   1.986 -0.1815  0.2650  0.1509
 7039TIP3    H142752   2.867   1.437   1.991  0.1741 -0.3471 -0.2183
 7039TIP3    H242753   2.761   1.370   2.077  0.2436  0.0816  0.2069
 7040TIP3   OH242754   5.900   6.470   2.916 -0.1116  0.2928 -0.1487
 7040TIP3    H142755   5.942   6.552   2.942  0.5734 -0.0047 -0.3022
 7040TIP3    H242756   5.883   6.480   2.823 -1.1110  0.7200  0.0583
 7041TIP3   OH242757   4.527   4.837   8.776  0.1126 -0.2975 -0.6889
 7041TIP3    H142758   4.593   4.822   8.844 -0.6956  1.6305  0.5953
 7041TIP3    H242759   4.523   4.932   8.767 -1.9828 -0.3951 -1.2337
 7042TIP3   OH242760   0.910   5.053   8.559 -0.2192  0.0563 -0.2436
 7042TIP3    H142761   0.858   5.110   8.616  0.4018  0.7060 -0.3318
 7042TIP3    H242762   0.867   5.060   8.473  0.2871  0.9655 -0.4319
 7043TIP3   OH242763   4.159   5.200   0.792 -0.4722 -0.1853  0.1828
 7043TIP3    H142764   4.193   5.112   0.807 -0.4303 -0.3531 -0.8447
 7043TIP3    H242765   4.067   5.195   0.819 -0.4421 -0.5130  0.2326
 7044TIP3   OH242766   5.727   0.834   0.435  0.4542  0.2937  0.6490
 7044TIP3    H142767   5.657   0.781   0.473  0.6189  1.0682  2.0938
 7044TIP3    H242768   5.804   0.777   0.440  0.3823  0.2298  1.0894
 7045TIP3   OH242769   4.857   3.643   0.965  0.8713 -0.0762 -0.2285
 7045TIP3    H142770   4.894   3.712   1.021 -1.3748  1.0090  0.0414
 7045TIP3    H242771   4.872   3.674   0.876  1.2154  0.0070 -0.1436
 7046TIP3   OH242772   2.681   3.242   1.089 -0.5428 -0.3870  0.1933
 7046TIP3    H142773   2.588   3.253   1.068 -0.1933  1.4110 -0.6411
 7046TIP3    H242774   2.695   3.148   1.088 -1.4318 -0.6877 -4.1316
 7047TIP3   OH242775   2.999   3.622   3.516 -0.5469 -0.2769 -0.5347
 7047TIP3    H142776   3.088   3.629   3.550 -0.7666 -0.6447  0.1279
 7047TIP3    H242777   2.987   3.703   3.465  0.3355 -0.4663 -1.0707
 7048TIP3   OH242778   0.334   0.123   0.799 -0.6858  0.1261 -0.1477
 7048TIP3    H142779   0.429   0.116   0.798 -0.6067  0.9962 -0.8741
 7048TIP3    H242780   0.304   0.052   0.855  0.2818 -1.4464 -1.5455
 7049TIP3   OH242781   4.252   4.784   0.117 -0.1294  0.2130 -0.6690
 7049TIP3    H142782   4.281   4.692   0.116  0.7255  0.4408 -2.9750
 7049TIP3    H242783   4.312   4.827   0.178 -0.9895 -0.8505  0.9971
 7050TIP3   OH242784   4.667   5.912   3.155 -0.3892 -0.0462  0.3334
 7050TIP3    H142785   4.710   5.981   3.106 -0.6461  0.4752  0.8285
 7050TIP3    H242786   4.736   5.849   3.175  0.0009  0.4438  0.5377
 7051TIP3   OH242787   0.410   2.399   0.780 -0.1943 -0.5142  0.5888
 7051TIP3    H142788   0.435   2.486   0.811  2.1265 -1.4507  1.6389
 7051TIP3    H242789   0.439   2.397   0.689  1.4616 -0.7361  1.0848
 7052TIP3   OH242790   0.056   3.874   1.493 -0.3681  0.2132  0.3897
 7052TIP3    H142791   0.113   3.799   1.478  1.5687  1.7179 -0.1577
 7052TIP3    H242792  -0.008   3.870   1.422 -0.8255 -1.3470  0.8428
 7053TIP3   OH242793   3.584   1.706   2.985  0.5281 -0.4384 -0.3156
 7053TIP3    H142794   3.615   1.676   2.900 -0.6990 -2.4403 -0.1287
 7053TIP3    H242795   3.641   1.663   3.049  0.9084  0.3903 -0.0722
 7054TIP3   OH242796   2.971   6.683   1.366 -0.4826 -0.3692 -0.2733
 7054TIP3    H142797   2.975   6.778   1.379 -0.3169 -0.1064 -1.9893
 7054TIP3    H242798   2.915   6.672   1.289  0.3220 -1.5980 -0.7100
 7055TIP3   OH242799   0.991   0.231   0.179  0.6341  0.2929 -0.2475
 7055TIP3    H142800   1.047   0.297   0.138 -0.2544  0.4573 -1.2502
 7055TIP3    H242801   1.043   0.151   0.178  0.4978  0.1662 -2.1869
 7056TIP3   OH242802   0.171   1.146   0.942  0.0099  0.2661 -0.3192
 7056TIP3    H142803   0.143   1.146   1.034  0.7429 -1.1564 -0.0611
 7056TIP3    H242804   0.216   1.230   0.931  0.1662  0.3366  0.7158
 7057TIP3   OH242805   3.415   0.975   2.380  0.4424 -0.0682  0.0409
 7057TIP3    H142806   3.380   0.892   2.412 -0.9049  0.3787 -0.2225
 7057TIP3    H242807   3.498   0.985   2.426 -0.4397 -0.4651  1.7924
 7058TIP3   OH242808   1.869   6.257   2.053 -0.2126 -0.4309 -0.1940
 7058TIP3    H142809   1.946   6.282   2.104 -0.1669  2.5312 -1.4902
 7058TIP3    H242810   1.904   6.213   1.976 -0.0455 -1.6129  0.5377
 7059TIP3   OH242811   6.829   3.305   1.817 -0.3678  0.3773 -0.6892
 7059TIP3    H142812   6.769   3.230   1.820 -0.2302  0.0394 -3.5606
 7059TIP3    H242813   6.813   3.351   1.900 -0.5216 -2.7091  1.1905
 7060TIP3   OH242814   5.945   2.809   0.828 -0.3585  0.4266 -0.5057
 7060TIP3    H142815   5.948   2.751   0.752 -0.6983 -1.1672  0.6372
 7060TIP3    H242816   5.880   2.770   0.886  2.6467 -0.8175  2.3880
 7061TIP3   OH242817   0.654   0.553   2.427 -0.0455 -0.3050 -0.1582
 7061TIP3    H142818   0.638   0.466   2.462 -0.7064 -0.5776 -1.1056
 7061TIP3    H242819   0.723   0.589   2.483 -0.4437 -1.0547  0.8472
 7062TIP3   OH242820   6.799   6.431   1.073 -0.3572  0.1020 -0.1433
 7062TIP3    H142821   6.731   6.448   1.008 -0.5175  0.2581  0.0635
 7062TIP3    H242822   6.762   6.463   1.155 -0.5170 -0.8752  0.1877
 7063TIP3   OH242823   2.651   1.633   1.292  0.3139  0.6131  0.7681
 7063TIP3    H142824   2.693   1.644   1.207  0.0214  0.0774  0.5496
 7063TIP3    H242825   2.700   1.563   1.334 -0.7558 -0.4915  0.2362
 7064TIP3   OH242826   3.067   4.487   0.106  0.4118  0.2858  1.0070
 7064TIP3    H142827   3.051   4.466   0.014 -1.3851  0.5597  1.2145
 7064TIP3    H242828   3.135   4.426   0.134  2.2855  1.3470 -0.9392
 7065TIP3   OH242829   1.951   1.821   1.002 -0.7412  0.0666 -0.1493
 7065TIP3    H142830   1.862   1.817   1.036  0.1474  0.5166  2.4397
 7065TIP3    H242831   1.969   1.915   0.993 -0.0305  0.0312  0.8114
 7066TIP3   OH242832   3.098   0.412   3.068 -0.0355  0.3656 -0.2971
 7066TIP3    H142833   3.115   0.375   3.154  4.6878  0.5964 -0.8563
 7066TIP3    H242834   3.076   0.504   3.085 -0.9414 -0.0137  0.6688
 7067TIP3   OH242835   0.830   5.396   1.735  0.1718 -0.0098 -0.2112
 7067TIP3    H142836   0.740   5.417   1.758 -0.0571 -0.6274 -0.5323
 7067TIP3    H242837   0.836   5.301   1.744  0.9761  0.0911  0.4646
 7068TIP3   OH242838   3.414   5.710   1.047  0.1909  0.1699  0.2160
 7068TIP3    H142839   3.449   5.621   1.046 -0.5648 -0.1309  0.2840
 7068TIP3    H242840   3.492   5.766   1.043  0.6029 -0.4538 -3.5317
 7069TIP3   OH242841   6.434   5.547   3.284 -0.6022  0.4518 -0.2016
 7069TIP3    H142842   6.413   5.573   3.373  1.9597  0.7938  0.3703
 7069TIP3    H242843   6.528   5.562   3.275 -0.5112 -0.8981 -2.5084
 7070TIP3   OH242844   0.090   2.765   3.615 -0.1455 -0.5625  0.0141
 7070TIP3    H142845   0.182   2.740   3.627 -0.3337 -0.6507  1.5260
 7070TIP3    H242846   0.051   2.691   3.569  0.8663  0.1914 -2.2123
 7071TIP3   OH242847   0.733   3.957   1.554  0.1506 -0.8631  0.1747
 7071TIP3    H142848   0.652   3.958   1.503 -0.3648 -0.8022  0.9870
 7071TIP3    H242849   0.772   3.872   1.535 -0.0515 -0.8576 -0.2927
 7072TIP3   OH242850   2.471   1.242   0.276 -0.4376  0.2332 -0.3273
 7072TIP3    H142851   2.401   1.298   0.310 -0.3764  0.7732 -1.0779
 7072TIP3    H242852   2.552   1.290   0.296 -0.4247  0.7930 -1.6395
 7073TIP3   OH242853   5.279   3.043   2.373  0.4223  0.5572 -0.3646
 7073TIP3    H142854   5.305   3.124   2.418  0.2842 -0.2051  1.1491
 7073TIP3    H242855   5.361   2.996   2.359  0.4989  0.9236 -1.2152
 7074TIP3   OH242856   6.693   3.630   3.423 -0.0467 -0.4633 -0.0470
 7074TIP3    H142857   6.600   3.608   3.417 -0.1304 -0.2127  0.2733
 7074TIP3    H242858   6.707   3.695   3.354 -0.1850 -0.2626  0.1097
 7075TIP3   OH242859   1.811   0.792   1.654 -0.2169 -0.1024  0.1143
 7075TIP3    H142860   1.773   0.707   1.676 -1.5251  0.3385 -0.3432
 7075TIP3    H242861   1.875   0.808   1.723 -0.6875 -0.9982  0.7890
 7076TIP3   OH242862   6.817   6.450   3.700  0.0209  0.4580 -0.0122
 7076TIP3    H142863   6.844   6.502   3.777 -0.6977  1.6108 -0.5097
 7076TIP3    H242864   6.894   6.397   3.680  0.3486  0.3835  1.2921
 7077TIP3   OH242865   4.554   0.136   0.334 -0.0854 -0.1002  0.3011
 7077TIP3    H142866   4.489   0.068   0.316 -0.3452  0.6013 -1.6608
 7077TIP3    H242867   4.503   0.213   0.356  0.1227  0.0841  0.1447
 7078TIP3   OH242868   1.460   3.414   8.523 -0.0264 -0.3845  0.3194
 7078TIP3    H142869   1.437   3.398   8.615  1.9218  0.4665  1.0294
 7078TIP3    H242870   1.468   3.509   8.517  0.7276 -0.4818 -0.4801
 7079TIP3   OH242871   4.960   1.382   1.262  0.6722 -0.0789  0.0947
 7079TIP3    H142872   4.904   1.459   1.271  0.7075  0.4007 -2.8333
 7079TIP3    H242873   5.044   1.408   1.300  1.2191  2.0574 -2.2884
 7080TIP3   OH242874   3.056   0.340   1.560 -0.6634  0.0414 -0.1793
 7080TIP3    H142875   3.150   0.351   1.577 -0.9695  0.3087  1.4863
 7080TIP3    H242876   3.016   0.420   1.594 -1.4878 -0.0184 -0.9967
 7081TIP3   OH242877   3.080   3.236   0.151  0.0594  0.1315 -0.3252
 7081TIP3    H142878   3.106   3.147   0.174  0.0822  0.0434 -0.6824
 7081TIP3    H242879   3.149   3.268   0.093 -0.2112  0.1910 -0.6184
 7082TIP3   OH242880   4.487   3.328   0.482 -0.1111  0.1634  0.2980
 7082TIP3    H142881   4.427   3.253   0.472 -3.2188  2.0631  2.6947
 7082TIP3    H242882   4.536   3.308   0.562  0.8647 -0.3383 -0.4020
 7083TIP3   OH242883   0.292   1.748   2.939  0.1860 -0.2747 -0.0786
 7083TIP3    H142884   0.355   1.685   2.906  1.4685  0.5010  0.8096
 7083TIP3    H242885   0.283   1.726   3.032 -1.4888 -0.8797 -0.3482
 7084TIP3   OH242886   6.197   0.264   4.573  0.2617 -0.2586 -0.1614
 7084TIP3    H142887   6.214   0.198   4.640 -1.2910 -0.2665  0.2804
 7084TIP3    H242888   6.281   0.278   4.530  1.1888 -0.6238  1.4528
 7085TIP3   OH242889   3.495   2.154   0.783  0.1712 -0.6836  0.1406
 7085TIP3    H142890   3.406   2.167   0.814  0.4428  0.6096  0.4421
 7085TIP3    H242891   3.499   2.199   0.699 -0.3712 -3.6063 -1.5877
 7086TIP3   OH242892   3.989   4.068   0.073 -0.4635 -0.2431  0.2991
 7086TIP3    H142893   4.061   4.090   0.131 -0.6596 -0.8174  0.7755
 7086TIP3    H242894   4.007   3.978   0.045 -0.5578 -0.0949 -0.2483
 7087TIP3   OH242895   3.397   0.762   1.292  0.2970 -0.2144 -0.1978
 7087TIP3    H142896   3.429   0.693   1.233  0.5493  1.3638 -2.0017
 7087TIP3    H242897   3.471   0.821   1.302 -0.4695  0.7698 -0.2018
 7088TIP3   OH242898   5.679   5.080   2.702  0.5691  0.0091 -0.2517
 7088TIP3    H142899   5.746   5.095   2.635  0.8746 -0.9116 -0.1597
 7088TIP3    H242900   5.637   4.997   2.677 -0.9416  0.8366 -0.6324
 7089TIP3   OH242901   3.584   0.557   3.712 -0.2181  0.0373 -0.0383
 7089TIP3    H142902   3.528   0.610   3.769 -2.1631 -0.6464 -1.2113
 7089TIP3    H242903   3.549   0.570   3.624 -1.3811 -3.7711 -0.2990
 7090TIP3   OH242904   4.796   4.519   2.070 -0.2761  0.2896 -0.7651
 7090TIP3    H142905   4.732   4.535   2.000  1.6123 -0.1749 -2.7029
 7090TIP3    H242906   4.863   4.586   2.057  0.0180  0.3245  0.7633
 7091TIP3   OH242907   6.379   6.687   8.053  0.9720 -0.5918 -0.0239
 7091TIP3    H142908   6.301   6.695   8.106  0.5909  0.1022 -0.6667
 7091TIP3    H242909   6.372   6.601   8.012  0.5200 -0.5106 -0.1178
 7092TIP3   OH242910   6.496   3.026   4.119  0.1857  1.0349 -0.2540
 7092TIP3    H142911   6.555   3.087   4.075 -0.2736  1.3003 -0.4995
 7092TIP3    H242912   6.408   3.054   4.093 -0.0284  0.2946 -0.3308
 7093TIP3   OH242913   4.767   4.409   1.289  0.7031  0.6534  0.2158
 7093TIP3    H142914   4.782   4.468   1.362  2.4412  2.6639 -1.6376
 7093TIP3    H242915   4.826   4.335   1.304  0.1233  0.4178  1.4330
 7094TIP3   OH242916   3.516   5.411   3.088  0.3731  0.3377  0.1666
 7094TIP3    H142917   3.532   5.382   3.177 -1.1933  3.6766  1.6963
 7094TIP3    H242918   3.435   5.366   3.062  1.0297 -0.9201  0.2129
 7095TIP3   OH242919   3.617   1.022   1.891  0.1554  0.9997  0.1264
 7095TIP3    H142920   3.709   1.011   1.866 -0.9457 -1.4921 -3.7525
 7095TIP3    H242921   3.582   1.085   1.828 -1.4551 -0.6957 -0.7697
 7096TIP3   OH242922   3.857   5.300   2.580  0.1305  0.0302 -0.1248
 7096TIP3    H142923   3.925   5.297   2.648 -1.3317 -0.7452  1.3732
 7096TIP3    H242924   3.890   5.363   2.516  1.6730  0.6365  1.1994
 7097TIP3   OH242925   1.144   1.622   1.917  0.0888 -0.1883  0.3012
 7097TIP3    H142926   1.167   1.692   1.856 -1.4504 -0.0167 -0.1073
 7097TIP3    H242927   1.221   1.614   1.973  0.4674  1.5525  0.0943
 7098TIP3   OH242928   4.568   5.058   2.126 -0.2281 -0.5908 -0.0938
 7098TIP3    H142929   4.606   4.977   2.091 -2.0115 -2.2216  1.4513
 7098TIP3    H242930   4.564   5.043   2.221 -1.2211  1.0391  0.1594
 7099TIP3   OH242931   2.265   5.653   4.045  0.4473 -0.7087  0.0927
 7099TIP3    H142932   2.352   5.656   4.006 -0.1752  1.9555 -1.3624
 7099TIP3    H242933   2.274   5.701   4.127  0.3542 -0.4700 -0.0373
 7100TIP3   OH242934   3.319   3.780   1.269  0.2639 -0.1915 -0.0601
 7100TIP3    H142935   3.325   3.747   1.358  0.9479 -0.3585 -0.1676
 7100TIP3    H242936   3.355   3.868   1.273 -0.4792  0.1197 -0.0103
 7101TIP3   OH242937   1.430   4.627   0.650  0.0114  0.5654 -0.2351
 7101TIP3    H142938   1.469   4.689   0.589  3.0833 -0.5509  0.4015
 7101TIP3    H242939   1.488   4.629   0.726 -0.5707 -2.0589  0.3713
 7102TIP3   OH242940   2.089   6.393   1.445  0.7017 -0.3263  0.5090
 7102TIP3    H142941   2.003   6.435   1.447  0.7413 -0.2424  2.0241
 7102TIP3    H242942   2.139   6.444   1.382 -0.8320 -1.4373 -1.7217
 7103TIP3   OH242943   0.137   5.241   1.281 -0.9695 -0.4192 -0.1875
 7103TIP3    H142944   0.220   5.214   1.243 -1.1977  0.0854 -1.0770
 7103TIP3    H242945   0.146   5.222   1.375  0.9330  1.5169  0.1003
 7104TIP3   OH242946   2.342   3.352   2.750  0.2944 -0.4627 -0.4501
 7104TIP3    H142947   2.342   3.256   2.749  1.3695 -0.5484  1.7220
 7104TIP3    H242948   2.390   3.375   2.829  1.1087  1.9009 -1.5278
 7105TIP3   OH242949   1.886   2.305   1.971  0.1116  0.0070 -0.1909
 7105TIP3    H142950   1.898   2.374   2.036  0.1283 -0.6384  0.5036
 7105TIP3    H242951   1.955   2.241   1.989  0.8677  0.3890 -1.6167
 7106TIP3   OH242952   4.390   3.043   2.266 -0.3555 -0.6041  1.2888
 7106TIP3    H142953   4.467   3.099   2.261  0.4833 -1.8180  0.1229
 7106TIP3    H242954   4.316   3.104   2.262  0.5267  0.4403  0.1713
 7107TIP3   OH242955   4.657   2.858   0.947 -0.0770 -0.2310 -0.2184
 7107TIP3    H142956   4.745   2.856   0.909 -0.4765  1.7728 -1.3659
 7107TIP3    H242957   4.615   2.934   0.907 -1.7118 -0.0415  1.7190
 7108TIP3   OH242958   4.230   2.093   4.153  0.1041  0.3045 -0.0593
 7108TIP3    H142959   4.158   2.047   4.197 -0.6385  1.2587 -0.2522
 7108TIP3    H242960   4.279   2.134   4.223  1.3705 -1.5378  0.2186
 7109TIP3   OH242961   1.630   3.118   0.932 -0.2863  0.7370  0.1375
 7109TIP3    H142962   1.656   3.095   1.021 -0.4469  0.9213  0.2334
 7109TIP3    H242963   1.538   3.093   0.925 -0.0298 -0.1194 -0.2760
 7110TIP3   OH242964   2.660   3.587   1.412 -0.3534 -0.5109  0.2917
 7110TIP3    H142965   2.623   3.559   1.328 -1.4742  0.4114  0.4452
 7110TIP3    H242966   2.697   3.507   1.450 -0.4851 -1.0796 -0.7518
 7111TIP3   OH242967   2.297   5.738   1.020  0.3880 -0.5035  0.4155
 7111TIP3    H142968   2.288   5.800   0.948 -0.2466 -0.5660  0.4336
 7111TIP3    H242969   2.370   5.771   1.072  0.1438  0.1590  0.3505
 7112TIP3   OH242970   3.690   4.178   0.015  0.5390  0.1156  0.4126
 7112TIP3    H142971   3.649   4.092   0.010  0.5523  0.1438 -0.3558
 7112TIP3    H242972   3.783   4.161   0.026  0.4271  0.0460  1.3173
 7113TIP3   OH242973   0.380   0.137   0.480 -0.3761  0.1315  0.0029
 7113TIP3    H142974   0.460   0.185   0.500 -0.2074  1.5581 -3.4084
 7113TIP3    H242975   0.312   0.204   0.475 -0.9554 -0.5049 -0.9269
 7114TIP3   OH242976   4.630   3.733   3.449 -0.0540  0.2117 -0.3366
 7114TIP3    H142977   4.631   3.819   3.493 -0.3672 -0.3782  0.8764
 7114TIP3    H242978   4.640   3.753   3.356 -2.2117  1.7327 -0.3261
 7115TIP3   OH242979   4.051   4.164   1.467  0.0444  0.1453  0.4868
 7115TIP3    H142980   4.103   4.223   1.522 -0.1252  2.0871 -1.2899
 7115TIP3    H242981   3.963   4.167   1.506 -0.1596  1.7668  0.0001
 7116TIP3   OH242982   2.647   0.632   0.032  0.0040 -0.0995 -0.1967
 7116TIP3    H142983   2.727   0.603  -0.013  0.8656  0.2546  1.0405
 7116TIP3    H242984   2.658   0.600   0.122 -1.0128  0.4152  0.1172
 7117TIP3   OH242985   0.683   3.042   3.619 -0.0967 -0.3788  0.4180
 7117TIP3    H142986   0.611   3.105   3.626  1.0386  0.9528  0.3436
 7117TIP3    H242987   0.669   2.999   3.534 -0.4606  0.3089  0.1228
 7118TIP3   OH242988   4.433   5.211   8.342  0.0896 -0.1335 -0.1238
 7118TIP3    H142989   4.377   5.277   8.384  0.0137 -0.5116  0.3817
 7118TIP3    H242990   4.390   5.192   8.260 -1.0616 -1.1254  0.6857
 7119TIP3   OH242991   1.123   5.257   1.766 -0.2639  0.1544  0.4828
 7119TIP3    H142992   1.156   5.229   1.680 -0.8484  1.5673 -0.2342
 7119TIP3    H242993   1.030   5.232   1.764 -0.1239 -0.4369  1.0008
 7120TIP3   OH242994   3.046   6.549   2.590  0.0916 -0.1449  0.2027
 7120TIP3    H142995   3.018   6.615   2.527  0.0013 -1.0066 -0.6824
 7120TIP3    H242996   2.968   6.531   2.642  0.3491  1.0829  1.0569
 7121TIP3   OH242997   3.105   5.664   0.477 -0.3754 -0.2991 -0.1408
 7121TIP3    H142998   3.094   5.747   0.524 -3.0689 -0.3194 -0.5439
 7121TIP3    H242999   3.019   5.648   0.437  1.2816 -1.0744 -3.7873
 7122TIP3   OH243000   5.000   5.678   3.824  0.1443  0.5410 -0.9169
 7122TIP3    H143001   4.922   5.686   3.879 -1.6684  1.2814 -3.4049
 7122TIP3    H243002   5.030   5.769   3.813 -0.2137  0.5365 -2.0377
 7123TIP3   OH243003   6.845   3.631   1.990  0.3178  0.6282 -0.0889
 7123TIP3    H143004   6.853   3.714   2.038  0.9188  0.0298  0.8670
 7123TIP3    H243005   6.865   3.654   1.900 -1.4295  1.9077 -0.2145
 7124TIP3   OH243006   6.269   5.190   2.904 -0.1932 -0.7559  0.1663
 7124TIP3    H143007   6.187   5.235   2.924  0.2464  0.8102 -1.2735
 7124TIP3    H243008   6.334   5.231   2.961 -0.2695 -1.5060  0.8058
 7125TIP3   OH243009   1.843   1.297   1.020 -0.0112  0.2505  0.5814
 7125TIP3    H143010   1.893   1.373   0.990 -1.6746  1.3802  0.5260
 7125TIP3    H243011   1.810   1.257   0.939 -2.1246  1.6356  0.6673
 7126TIP3   OH243012   3.427   5.528   8.253 -0.3235 -0.1501  0.6854
 7126TIP3    H143013   3.424   5.443   8.209  1.0596 -0.1734  0.5904
 7126TIP3    H243014   3.338   5.563   8.243 -0.5345 -0.9489 -0.5364
 7127TIP3   OH243015   6.627   6.009   0.601 -0.5600 -0.0511  0.1244
 7127TIP3    H143016   6.559   5.963   0.551 -1.3075  0.9915  0.1514
 7127TIP3    H243017   6.601   6.101   0.598  0.2916  0.2349  1.0335
 7128TIP3   OH243018   3.265   6.440   1.621 -0.0499  0.2853 -0.2041
 7128TIP3    H143019   3.211   6.519   1.620 -0.9338 -0.2968  0.4214
 7128TIP3    H243020   3.285   6.426   1.713  0.6057  0.1073 -0.3712
 7129TIP3   OH243021   2.870   3.085   2.223  0.2296  0.3021  0.4983
 7129TIP3    H143022   2.874   3.054   2.313  2.7251  0.4060  0.4977
 7129TIP3    H243023   2.876   3.006   2.169 -0.4617  0.2991  0.4177
 7130TIP3   OH243024   2.507   4.087   8.392  0.4578  0.5728 -0.9567
 7130TIP3    H143025   2.439   4.115   8.331 -1.9677  2.5531  2.3289
 7130TIP3    H243026   2.489   4.135   8.472  2.8149 -2.5304  1.7180
 7131TIP3   OH243027   4.375   0.701   2.322  0.0284 -0.5363  0.6692
 7131TIP3    H143028   4.393   0.608   2.308  0.7902 -0.3457  0.3292
 7131TIP3    H243029   4.347   0.733   2.237  0.1700 -0.3656  0.6862
 7132TIP3   OH243030   5.700   3.779   0.051 -0.2327 -0.1206 -0.1453
 7132TIP3    H143031   5.652   3.750  -0.026 -0.5564 -2.3525  0.7985
 7132TIP3    H243032   5.792   3.756   0.032 -0.2825 -0.4748  0.0310
 7133TIP3   OH243033   0.768   5.843   3.831  0.4979 -0.0704 -0.4977
 7133TIP3    H143034   0.697   5.907   3.820  0.7031  0.0863 -0.9296
 7133TIP3    H243035   0.792   5.851   3.923  0.7227  0.6927 -0.6164
 7134TIP3   OH243036   3.611   5.974   0.240 -0.2871 -0.2893 -0.5922
 7134TIP3    H143037   3.532   5.997   0.288  1.0237 -1.1266  2.1608
 7134TIP3    H243038   3.593   5.887   0.203 -0.6645 -0.4713  0.0140
 7135TIP3   OH243039   6.189   1.430   1.053 -0.0235  0.3840  0.5111
 7135TIP3    H143040   6.132   1.367   1.097 -1.5776  0.7142 -0.9650
 7135TIP3    H243041   6.241   1.377   0.992 -0.7277  0.4335 -0.1289
 7136TIP3   OH243042   1.618   4.747   3.414  0.0477 -0.1260 -0.4067
 7136TIP3    H143043   1.648   4.764   3.503  1.0322 -0.2187 -0.7160
 7136TIP3    H243044   1.523   4.764   3.417 -0.0026 -0.5632  0.7555
 7137TIP3   OH243045   4.811   1.914   0.677 -0.4676 -0.0395  0.0841
 7137TIP3    H143046   4.803   1.822   0.703  1.1955 -0.6286 -1.2673
 7137TIP3    H243047   4.888   1.945   0.725  0.3434 -0.0414 -1.1813
 7138TIP3   OH243048   4.889   0.052   1.214  0.2236  0.3130  0.0551
 7138TIP3    H143049   4.918   0.136   1.177 -2.8252  1.3763 -0.1696
 7138TIP3    H243050   4.795   0.051   1.202  0.0372 -2.8245  0.8543
 7139TIP3   OH243051   4.764   0.402   3.871  0.4639 -0.2073 -0.2577
 7139TIP3    H143052   4.669   0.401   3.884  0.0731 -1.5669 -2.6323
 7139TIP3    H243053   4.797   0.336   3.931  0.1348  1.1874  1.5615
 7140TIP3   OH243054   5.749   2.277   8.717  0.2829  0.2404  0.4440
 7140TIP3    H143055   5.772   2.370   8.720 -0.5017  0.4082  1.6253
 7140TIP3    H243056   5.812   2.235   8.775 -0.8272  0.3714  1.7718
 7141TIP3   OH243057   3.127   6.529   0.988  0.2169 -0.2878  0.3454
 7141TIP3    H143058   3.182   6.494   0.917 -0.8457 -0.0949 -0.6096
 7141TIP3    H243059   3.171   6.500   1.068  1.6924 -0.1567 -0.3659
 7142TIP3   OH243060   5.875   3.151   0.292 -0.3494  0.2152 -0.0910
 7142TIP3    H143061   5.961   3.163   0.332  0.0743  2.3765 -1.4603
 7142TIP3    H243062   5.813   3.159   0.364  0.5375 -2.2044  1.0696
 7143TIP3   OH243063   1.855   4.681   0.918  0.1278 -0.2025 -0.3648
 7143TIP3    H143064   1.919   4.679   0.847  0.3048  0.3429 -0.2235
 7143TIP3    H243065   1.908   4.680   0.998 -0.0018  0.9903 -0.2448
 7144TIP3   OH243066   6.826   6.346   0.194  0.5965 -0.6493  0.3424
 7144TIP3    H143067   6.809   6.256   0.223  1.0640 -1.0866 -0.6941
 7144TIP3    H243068   6.786   6.401   0.262  1.9051 -1.6147  1.9730
 7145TIP3   OH243069   1.764   1.968   0.467  0.2710 -0.2412 -0.3545
 7145TIP3    H143070   1.676   1.931   0.464  0.8908 -1.7310 -1.9030
 7145TIP3    H243071   1.812   1.909   0.527  0.5074 -0.1574 -0.4600
 7146TIP3   OH243072   5.168   0.491   0.780 -1.2806 -0.5429  0.1914
 7146TIP3    H143073   5.212   0.439   0.847 -0.6308 -1.8146 -1.1537
 7146TIP3    H243074   5.124   0.426   0.725  0.4537  0.1674 -2.1947
 7147TIP3   OH243075   3.517   2.232   3.655  0.0941 -0.0571  0.0948
 7147TIP3    H143076   3.545   2.288   3.728 -1.4846 -0.8521  1.3853
 7147TIP3    H243077   3.580   2.251   3.585  2.3653 -0.0490  1.9927
 7148TIP3   OH243078   5.088   1.096   4.111 -0.1016 -0.1318  0.9735
 7148TIP3    H143079   5.150   1.082   4.039  0.8577  0.4044  1.6756
 7148TIP3    H243080   5.115   1.178   4.151 -1.8728  0.6396  0.7201
 7149LIG     O143081   4.836   0.855   6.208  0.1396  0.3621  0.2323
 7149LIG     O243082   4.934   0.995   6.035  0.4158  0.6160  0.1616
 7149LIG     O343083   4.889   0.805   5.905  0.0520  0.7851 -0.0640
 7149LIG     O443084   5.003   1.100   6.373  0.3749 -0.3981 -0.1832
 7149LIG     O543085   5.134   0.856   6.409 -0.0875  0.1427 -0.4445
 7149LIG     O643086   4.727   1.140   5.888 -0.3657  0.2861 -0.2204
 7149LIG     O743087   4.998   1.140   5.795  0.5052 -0.4273  0.0673
 7149LIG     O843088   5.067   0.923   5.605  0.0549  0.0671  0.3335
 7149LIG     O943089   4.732   1.126   6.336  0.1229 -0.4561 -0.3172
 7149LIG    O1043090   4.998   0.631   6.107  0.2518  0.3904 -0.3885
 7149LIG    O1143091   5.169   0.693   5.675  0.4132  0.5940 -0.4294
 7149LIG     C143092   4.888   0.989   6.174 -0.3394 -0.6868 -0.3241
 7149LIG     C243093   5.019   1.018   6.254  0.1169  0.1603 -0.6854
 7149LIG     C343094   5.062   0.870   6.285  0.2544  0.2120 -0.1900
 7149LIG     C443095   4.932   0.786   6.287  0.5911 -0.1470 -0.7273
 7149LIG     C543096   4.838   0.930   5.953  0.2151  0.8458 -0.2720
 7149LIG     C643097   4.794   1.025   5.838  0.3819  0.4991  0.5873
 7149LIG     C743098   4.900   1.053   5.734 -0.0574 -0.0920 -0.0111
 7149LIG     C843099   4.962   0.917   5.703  0.6892  0.2183  0.0147
 7149LIG     C943100   5.005   0.826   5.817  0.1911  0.1744  0.2148
 7149LIG    C1043101   4.771   1.086   6.204  0.1093  0.5877  0.3191
 7149LIG    C1143102   4.955   0.639   6.242  0.0366  0.6688  0.2541
 7149LIG    C1243103   5.062   0.686   5.775 -0.8804 -0.0302 -1.0449
 7149LIG     H143104   5.091   1.077   6.195 -0.3083  0.5367 -0.8356
 7149LIG     H243105   5.126   0.840   6.201  3.3350  4.2449  0.3794
 7149LIG     H343106   4.891   0.779   6.389  2.1065 -0.9069 -0.1369
 7149LIG     H443107   4.747   0.896   6.006  1.6721 -1.2986  1.0061
 7149LIG     H543108   4.719   0.965   5.782  1.5936 -0.2709 -0.2547
 7149LIG     H643109   4.858   1.096   5.640  0.2434 -1.4776 -0.8070
 7149LIG     H743110   4.880   0.858   5.657 -0.4994  1.1617  0.8657
 7149LIG     H843111   5.078   0.887   5.875 -1.1808  1.5111  0.6032
 7149LIG     H943112   4.794   1.173   6.140  0.8452 -1.2147 -1.9752
 7149LIG    H1043113   4.679   1.044   6.157 -0.2341  1.7521 -0.0731
 7149LIG    H1143114   5.027   0.595   6.314 -1.4831 -1.7134  0.4295
 7149LIG    H1243115   4.860   0.581   6.244  2.2098 -3.2729 -1.1195
 7149LIG    H1343116   5.107   0.639   5.865 -0.2911  1.8182 -0.3262
 7149LIG    H1443117   4.988   0.613   5.738  0.0452 -1.4849 -0.1184
 7149LIG    H1543118   4.907   1.099   6.384  0.0534  2.0114 -1.9697
 7149LIG    H1643119   5.124   0.937   6.460  0.0695  1.2287 -2.0512
 7149LIG    H1743120   4.794   1.196   5.927 -1.1642 -0.0897  1.8396
 7149LIG    H1843121   5.076   1.146   5.740  1.2992 -0.3977  1.1559
 7149LIG    H1943122   5.119   0.843   5.614  0.6880  0.3289 -0.8468
 7149LIG    H2043123   4.638   1.138   6.348 -0.0882  0.0794 -2.2619
 7149LIG    H2143124   4.928   0.677   6.061 -1.1558 -0.5156  0.7824
 7149LIG    H2243125   5.178   0.605   5.639  1.7283  1.4835 -2.4542
   6.85567   6.85567   8.78623
