Title
43125
    1CHL1    C3    1   4.151   6.053   6.121  0.3575 -0.2257  0.2400
    1CHL1    H3    2   4.241   6.114   6.098  1.5924 -2.9228 -2.9973
    1CHL1    O3    3   4.163   5.987   6.241 -0.1885  0.7896 -0.2192
    1CHL1   H3'    4   4.226   5.914   6.235 -0.5579  0.4058  0.4847
    1CHL1    C4    5   4.026   6.146   6.122 -0.0936 -0.3504 -0.4445
    1CHL1   H4A    6   3.939   6.087   6.159 -0.4825 -0.7620 -1.9614
    1CHL1   H4B    7   4.042   6.226   6.198 -1.2061 -0.1700 -0.3755
    1CHL1    C5    8   3.981   6.209   5.989 -0.1441 -0.1932  0.0254
    1CHL1    C6    9   3.966   6.346   5.974 -0.3103 -0.3685  0.4015
    1CHL1    H6   10   3.983   6.411   6.061  0.6703  1.2318 -0.9002
    1CHL1    C7   11   3.926   6.417   5.843  0.2919  0.9172  0.1148
    1CHL1   H7A   12   3.837   6.484   5.852 -0.2936  0.0572  0.9895
    1CHL1   H7B   13   4.017   6.466   5.804  0.8666 -0.3290 -0.1507
    1CHL1    C8   14   3.880   6.314   5.736  0.0008 -0.1449  0.3256
    1CHL1    H8   15   3.771   6.298   5.744  0.1059 -0.9867  0.1669
    1CHL1   C14   16   3.902   6.378   5.598 -0.3243  0.4820 -0.1595
    1CHL1   H14   17   4.013   6.382   5.593 -0.1933  0.3999  2.0672
    1CHL1   C15   18   3.859   6.521   5.575  0.2151  0.4776  0.5529
    1CHL1  H15A   19   3.764   6.544   5.626  0.2592  3.5609 -0.5890
    1CHL1  H15B   20   3.920   6.593   5.634  1.4396 -0.8546  0.9780
    1CHL1   C16   21   3.870   6.539   5.420 -0.0005 -0.4078 -0.0354
    1CHL1  H16A   22   3.773   6.586   5.391 -0.0980 -0.0173  0.8965
    1CHL1  H16B   23   3.952   6.609   5.393 -1.3801  1.6987  1.0000
    1CHL1   C17   24   3.898   6.395   5.366 -0.3599  0.3455  0.7757
    1CHL1   H17   25   4.008   6.382   5.365 -0.1273  2.0489 -0.3958
    1CHL1   C13   26   3.857   6.300   5.477 -0.4912  0.5485 -0.6056
    1CHL1   C18   27   3.702   6.283   5.482 -0.4515  0.0035  0.3353
    1CHL1  H18A   28   3.661   6.206   5.413 -0.7317  0.1634  0.3210
    1CHL1  H18B   29   3.671   6.256   5.586  0.5504  0.7558  0.8444
    1CHL1  H18C   30   3.650   6.379   5.463 -0.4365  0.1552  1.0136
    1CHL1   C12   31   3.932   6.173   5.477  0.4476 -0.1818 -0.0574
    1CHL1  H12A   32   3.900   6.115   5.388 -0.1946  0.6356 -0.3807
    1CHL1  H12B   33   4.041   6.197   5.473  0.3180  0.7548  1.2337
    1CHL1   C11   34   3.917   6.101   5.608  0.3142  0.4354 -0.5229
    1CHL1  H11A   35   3.809   6.078   5.607  0.3411  0.2551  0.4150
    1CHL1  H11B   36   3.972   6.005   5.607  1.8056  1.2460 -0.4435
    1CHL1    C9   37   3.969   6.188   5.732 -0.6304 -0.0388 -0.8008
    1CHL1    H9   38   4.074   6.219   5.712  0.0886 -0.4151  2.0500
    1CHL1   C10   39   3.967   6.111   5.873 -0.1897  0.0686 -0.6931
    1CHL1   C19   40   3.841   6.031   5.884 -0.2747 -0.0578  0.3821
    1CHL1  H19A   41   3.833   5.954   5.805  0.1530  1.4837 -1.2354
    1CHL1  H19B   42   3.827   5.966   5.973 -2.1582 -2.1575 -1.3409
    1CHL1  H19C   43   3.751   6.095   5.868  0.2909  0.8690  0.8181
    1CHL1    C1   44   4.088   6.017   5.875 -0.3084 -0.2665  0.0110
    1CHL1   H1A   45   4.090   5.945   5.790 -0.9337 -2.2440  1.6026
    1CHL1   H1B   46   4.180   6.078   5.863  0.3945 -1.0315  1.2762
    1CHL1    C2   47   4.116   5.952   6.009 -0.2683  0.1385  0.5376
    1CHL1   H2A   48   4.215   5.901   6.005 -0.1612  0.4027 -0.4067
    1CHL1   H2B   49   4.043   5.875   6.041  1.2924 -2.2919 -1.3001
    1CHL1   C20   50   3.853   6.356   5.215 -0.2149  0.0022 -0.2972
    1CHL1   H20   51   3.837   6.246   5.210 -0.7900  0.1242 -1.4653
    1CHL1   C21   52   3.983   6.389   5.129  0.5967 -0.1025  0.4250
    1CHL1  H21A   53   4.064   6.330   5.179 -1.0849 -0.1820  3.3055
    1CHL1  H21B   54   4.007   6.497   5.132  3.1855 -0.5660 -0.9936
    1CHL1  H21C   55   3.975   6.357   5.023  0.3921 -1.3191  0.7913
    1CHL1   C22   56   3.720   6.419   5.159 -0.2378  0.2770  0.0593
    1CHL1  H22A   57   3.637   6.407   5.233 -0.2801 -1.8218 -0.2669
    1CHL1  H22B   58   3.748   6.526   5.151  1.9606 -0.1430  1.2725
    1CHL1   C23   59   3.682   6.354   5.021 -0.5023 -0.1843  0.1260
    1CHL1  H23A   60   3.758   6.394   4.951  1.2871 -1.3138  1.3265
    1CHL1  H23B   61   3.711   6.247   5.027  0.0546  0.0416  2.2644
    1CHL1   C24   62   3.541   6.376   4.972  0.1040 -0.4577  0.6265
    1CHL1  H24A   63   3.464   6.342   5.045  1.3919  0.5691  2.5431
    1CHL1  H24B   64   3.522   6.481   4.940  0.4469 -0.8706 -1.0489
    1CHL1   C25   65   3.507   6.280   4.854  0.2825  0.4119 -0.5022
    1CHL1   H25   66   3.530   6.174   4.878  1.0335  0.7547  0.3627
    1CHL1   C26   67   3.359   6.309   4.821  0.0105  0.1763  0.0956
    1CHL1  H26A   68   3.324   6.239   4.741 -0.6712 -0.4284  0.9061
    1CHL1  H26B   69   3.288   6.284   4.903  1.0716 -0.4828  0.8315
    1CHL1  H26C   70   3.349   6.415   4.790 -0.9897  0.9406  2.7909
    1CHL1   C27   71   3.587   6.325   4.728 -0.3014  0.8746  0.0746
    1CHL1  H27A   72   3.548   6.273   4.638  0.3242  0.8543 -0.1946
    1CHL1  H27B   73   3.579   6.434   4.707  1.7384  1.5692  2.4359
    1CHL1  H27C   74   3.690   6.284   4.736 -1.1596 -1.6241 -0.7318
    2CHL1    C3   75   5.369   1.037   6.113  0.5466  0.0858 -0.6762
    2CHL1    H3   76   5.337   1.107   6.033  0.2428  0.4938 -0.2046
    2CHL1    O3   77   5.338   1.087   6.244  0.0925 -0.3118  0.5796
    2CHL1   H3'   78   5.387   1.035   6.308  1.4103  0.0641 -0.0964
    2CHL1    C4   79   5.296   0.907   6.097 -0.5709 -0.0749  0.2147
    2CHL1   H4A   80   5.332   0.827   6.165 -2.1095 -0.3888  0.7042
    2CHL1   H4B   81   5.186   0.919   6.109 -0.5110  0.0198  0.6968
    2CHL1    C5   82   5.328   0.862   5.954  0.7854  0.3642 -0.4463
    2CHL1    C6   83   5.230   0.834   5.873 -0.2310  0.5108 -0.9330
    2CHL1    H6   84   5.130   0.848   5.916  0.9959 -0.7432  2.8351
    2CHL1    C7   85   5.246   0.789   5.731 -0.1337 -0.0305  0.6710
    2CHL1   H7A   86   5.173   0.710   5.702 -1.2360  0.1586  2.7436
    2CHL1   H7B   87   5.229   0.880   5.669  1.4453 -0.1912 -0.0406
    2CHL1    C8   88   5.390   0.741   5.693 -0.3869 -0.2690 -0.2755
    2CHL1    H8   89   5.396   0.636   5.726 -0.5099 -0.4108 -0.7008
    2CHL1   C14   90   5.408   0.756   5.546  0.9401  0.0327 -0.0899
    2CHL1   H14   91   5.417   0.863   5.519  0.4305  0.5689  1.7189
    2CHL1   C15   92   5.295   0.691   5.454 -0.2304 -0.3075  0.0582
    2CHL1  H15A   93   5.257   0.589   5.477 -1.7690  0.4226  0.8819
    2CHL1  H15B   94   5.199   0.744   5.470 -1.2666 -2.2364  0.4154
    2CHL1   C16   95   5.365   0.688   5.315  0.0409  0.2804  0.1477
    2CHL1  H16A   96   5.350   0.588   5.269 -0.7609  1.2743 -1.8259
    2CHL1  H16B   97   5.330   0.762   5.241  1.0202 -0.1046 -0.7283
    2CHL1   C17   98   5.515   0.703   5.343 -0.0466 -0.0369 -0.8057
    2CHL1   H17   99   5.547   0.808   5.322  0.0709 -0.0167 -0.5278
    2CHL1   C13  100   5.535   0.688   5.499  0.1107  0.0525 -0.4605
    2CHL1   C18  101   5.546   0.540   5.529  0.1848  0.6732  0.1968
    2CHL1  H18A  102   5.640   0.488   5.502 -2.3557 -4.8977  0.6153
    2CHL1  H18B  103   5.532   0.507   5.635  0.4640 -1.1116 -0.3059
    2CHL1  H18C  104   5.470   0.487   5.468  0.6794  0.8066 -0.5400
    2CHL1   C12  105   5.648   0.755   5.571 -0.0453 -0.7271  0.5143
    2CHL1  H12A  106   5.742   0.698   5.564  0.7525  0.5242  0.6857
    2CHL1  H12B  107   5.659   0.855   5.523 -1.5703  0.3668  2.3010
    2CHL1   C11  108   5.638   0.800   5.724 -0.1825  0.0046  0.5214
    2CHL1  H11A  109   5.672   0.713   5.784 -1.4170 -0.0734  1.1309
    2CHL1  H11B  110   5.705   0.887   5.738  0.1326  0.2865 -2.1428
    2CHL1    C9  111   5.493   0.827   5.764  0.5686 -0.1269  0.0848
    2CHL1    H9  112   5.465   0.927   5.724 -1.0104 -0.9942 -1.0782
    2CHL1   C10  113   5.473   0.844   5.915 -0.0732 -1.0767 -0.6485
    2CHL1   C19  114   5.518   0.713   5.983  0.7796  0.0027  0.4116
    2CHL1  H19A  115   5.486   0.624   5.924 -1.6358 -0.5116  2.3120
    2CHL1  H19B  116   5.626   0.696   6.000  0.5379 -0.8610  1.1746
    2CHL1  H19C  117   5.484   0.699   6.088 -1.3679  0.4825 -0.1593
    2CHL1    C1  118   5.563   0.961   5.971 -0.2980 -0.1517  0.3777
    2CHL1   H1A  119   5.669   0.928   5.974 -0.0188  0.6430 -0.4771
    2CHL1   H1B  120   5.554   1.037   5.891  0.1568 -2.2940 -1.8456
    2CHL1    C2  121   5.517   1.025   6.103 -0.3685  0.9062  0.1947
    2CHL1   H2A  122   5.571   1.121   6.116  0.3784  0.2460  2.3391
    2CHL1   H2B  123   5.547   0.962   6.189  0.8340  2.0369  0.6457
    2CHL1   C20  124   5.610   0.620   5.248  0.1671  0.0683 -0.6270
    2CHL1   H20  125   5.597   0.516   5.283 -0.2790  0.6237  0.9620
    2CHL1   C21  126   5.749   0.664   5.273  0.1441 -0.2707 -0.1629
    2CHL1  H21A  127   5.781   0.639   5.376 -1.1173 -0.7708  0.1301
    2CHL1  H21B  128   5.749   0.774   5.267 -0.6836 -0.2661 -0.0942
    2CHL1  H21C  129   5.816   0.607   5.204  2.0919  0.7338  0.8029
    2CHL1   C22  130   5.569   0.634   5.100  0.4077 -0.1637 -0.2848
    2CHL1  H22A  131   5.465   0.596   5.084  0.7596 -0.5204 -1.8315
    2CHL1  H22B  132   5.578   0.742   5.075 -0.3723 -0.4959 -2.1605
    2CHL1   C23  133   5.657   0.553   5.004  0.2637 -0.9025  0.0486
    2CHL1  H23A  134   5.763   0.586   5.001 -0.2117  0.7004 -0.6369
    2CHL1  H23B  135   5.645   0.446   5.032  1.5078 -1.7715 -2.4373
    2CHL1   C24  136   5.596   0.566   4.863 -0.3429 -0.7227 -0.7686
    2CHL1  H24A  137   5.507   0.500   4.858 -0.6808 -0.6873  2.5011
    2CHL1  H24B  138   5.561   0.665   4.827 -1.2037 -0.9122 -0.4756
    2CHL1   C25  139   5.694   0.513   4.754 -0.6090  0.0816 -0.0722
    2CHL1   H25  140   5.782   0.579   4.744 -0.8516  0.0573 -4.0219
    2CHL1   C26  141   5.725   0.358   4.773 -0.9973  0.6197  0.2304
    2CHL1  H26A  142   5.770   0.324   4.868  0.1421 -1.3417 -0.9476
    2CHL1  H26B  143   5.627   0.308   4.762 -1.4910  1.6812 -0.3140
    2CHL1  H26C  144   5.793   0.324   4.692  0.8435  0.7951  1.6300
    2CHL1   C27  145   5.635   0.528   4.614 -0.2241 -0.2512  0.2116
    2CHL1  H27A  146   5.628   0.634   4.580 -0.7537  0.4182  2.2370
    2CHL1  H27B  147   5.709   0.492   4.539 -1.3897 -1.3256 -0.4624
    2CHL1  H27C  148   5.535   0.484   4.592 -0.3375  0.5491 -1.0070
    3CHL1    C3  149   4.068   5.174   6.296  0.5187  0.1109 -0.5678
    3CHL1    H3  150   3.990   5.096   6.281  0.7312 -0.0575 -0.8041
    3CHL1    O3  151   4.122   5.141   6.427  0.2575 -0.7038 -0.4803
    3CHL1   H3'  152   4.148   5.228   6.457 -1.4282 -0.4214  0.2856
    3CHL1    C4  153   4.177   5.169   6.192 -0.7985 -0.3772  0.5089
    3CHL1   H4A  154   4.264   5.217   6.243  1.7212 -2.6885 -1.2834
    3CHL1   H4B  155   4.212   5.064   6.179 -1.7831 -0.4182 -2.4089
    3CHL1    C5  156   4.151   5.238   6.061 -0.7681 -0.1099  0.5451
    3CHL1    C6  157   4.164   5.165   5.947  0.2341 -0.1267 -0.5526
    3CHL1    H6  158   4.208   5.064   5.947 -1.2156 -0.7937 -1.7682
    3CHL1    C7  159   4.144   5.221   5.813 -0.9365 -0.7827  0.0841
    3CHL1   H7A  160   4.238   5.197   5.760 -0.2619  1.8748 -0.0706
    3CHL1   H7B  161   4.067   5.159   5.762 -1.1800  0.2353 -0.8204
    3CHL1    C8  162   4.113   5.372   5.815 -0.2301 -0.2212 -0.5159
    3CHL1    H8  163   4.205   5.432   5.830 -1.2204  1.0014  1.0582
    3CHL1   C14  164   4.061   5.404   5.679  0.0588  0.0255 -0.5302
    3CHL1   H14  165   3.961   5.356   5.675 -0.2542  0.6414 -0.2754
    3CHL1   C15  166   4.133   5.350   5.549  0.2146 -0.5568  0.3288
    3CHL1  H15A  167   4.243   5.369   5.542  0.2973 -1.3345 -0.6887
    3CHL1  H15B  168   4.104   5.244   5.542  0.1309 -0.4284 -2.3852
    3CHL1   C16  169   4.071   5.433   5.435 -0.8383  0.0799 -0.5808
    3CHL1  H16A  170   4.156   5.481   5.382  0.3316 -2.3820 -1.0447
    3CHL1  H16B  171   4.003   5.377   5.367 -2.5205 -0.2285  1.2424
    3CHL1   C17  172   3.978   5.542   5.517 -0.2831 -0.2555  0.1297
    3CHL1   H17  173   3.877   5.501   5.538 -1.5529  2.1451 -0.9097
    3CHL1   C13  174   4.032   5.544   5.661 -0.0235  0.4915 -0.8072
    3CHL1   C18  175   4.168   5.626   5.663 -0.7677  0.8055 -0.0826
    3CHL1  H18A  176   4.142   5.732   5.642  0.0212  0.5679 -2.5756
    3CHL1  H18B  177   4.221   5.620   5.760 -0.8682 -0.2698 -0.0765
    3CHL1  H18C  178   4.234   5.600   5.578 -0.2635  0.9924  0.2482
    3CHL1   C12  179   3.933   5.591   5.761  1.1089 -0.0597  0.0884
    3CHL1  H12A  180   3.920   5.701   5.752  2.2761  0.0266 -0.9122
    3CHL1  H12B  181   3.837   5.536   5.751 -0.0270  2.0471 -1.6037
    3CHL1   C11  182   3.976   5.563   5.906  0.2897  0.2749 -0.2217
    3CHL1  H11A  183   4.071   5.620   5.913  0.7709 -0.4287 -0.9288
    3CHL1  H11B  184   3.907   5.589   5.990 -0.5227 -1.4631 -0.3081
    3CHL1    C9  185   4.019   5.413   5.931 -0.1070 -0.0771  0.0783
    3CHL1    H9  186   3.932   5.346   5.912  0.1632  0.0384 -1.7556
    3CHL1   C10  187   4.079   5.370   6.065  0.3624  0.5552 -0.6398
    3CHL1   C19  188   4.161   5.495   6.108  0.1050 -0.6372 -0.2247
    3CHL1  H19A  189   4.224   5.456   6.191  0.2591  2.4632  1.2957
    3CHL1  H19B  190   4.227   5.538   6.030 -0.4337 -1.1012 -0.9442
    3CHL1  H19C  191   4.085   5.568   6.143  0.7668  0.0994 -0.2877
    3CHL1    C1  192   3.958   5.342   6.162 -0.5457  0.4050  0.1629
    3CHL1   H1A  193   3.893   5.432   6.161 -0.2177  0.8498  3.6842
    3CHL1   H1B  194   3.890   5.260   6.129  2.0506 -2.0244  0.4647
    3CHL1    C2  195   4.007   5.310   6.305  0.3862  0.5026  0.3545
    3CHL1   H2A  196   3.918   5.307   6.373  0.0356 -2.0527 -0.1252
    3CHL1   H2B  197   4.079   5.385   6.343 -0.5056  0.9611  1.1938
    3CHL1   C20  198   3.943   5.675   5.449  0.5232  0.1634  0.4097
    3CHL1   H20  199   4.001   5.748   5.509  0.4796 -0.4550  1.2211
    3CHL1   C21  200   3.794   5.712   5.488 -0.5609 -0.2483  0.5001
    3CHL1  H21A  201   3.720   5.638   5.449 -2.2194  0.8585  1.3963
    3CHL1  H21B  202   3.765   5.805   5.435  2.3372  0.7531  0.4869
    3CHL1  H21C  203   3.785   5.735   5.597 -0.1574 -2.0714  0.9562
    3CHL1   C22  204   3.980   5.684   5.302 -0.1959 -0.8657  0.0086
    3CHL1  H22A  205   4.091   5.685   5.301 -0.0950  0.6423  2.8046
    3CHL1  H22B  206   3.936   5.601   5.242 -0.5831 -2.6401  2.5929
    3CHL1   C23  207   3.933   5.818   5.238  1.3163 -0.2400 -0.8803
    3CHL1  H23A  208   3.828   5.806   5.206  0.3668 -0.3178  2.0035
    3CHL1  H23B  209   3.928   5.899   5.314 -1.5821 -0.8867 -0.2870
    3CHL1   C24  210   4.022   5.875   5.120  0.2400  0.0652 -0.5541
    3CHL1  H24A  211   4.114   5.910   5.172  0.6428 -0.3192 -0.9938
    3CHL1  H24B  212   4.035   5.796   5.043  2.8706  0.2109 -0.3559
    3CHL1   C25  213   3.952   5.991   5.047  0.4832 -0.1512  0.1918
    3CHL1   H25  214   3.923   6.071   5.118  0.8487  0.7580 -0.6635
    3CHL1   C26  215   4.053   6.062   4.954 -0.2315  0.3446 -0.0153
    3CHL1  H26A  216   4.107   6.142   5.009 -0.9578  1.4036 -0.8018
    3CHL1  H26B  217   4.129   5.991   4.917  2.0394  0.3064  4.1181
    3CHL1  H26C  218   4.005   6.116   4.870 -1.2391  1.6419  1.3380
    3CHL1   C27  219   3.837   5.945   4.958 -0.4961  0.0946  0.0279
    3CHL1  H27A  220   3.755   5.894   5.014 -0.5153 -0.2492 -0.3067
    3CHL1  H27B  221   3.792   6.025   4.896 -0.9281 -1.0154 -1.1272
    3CHL1  H27C  222   3.870   5.870   4.883 -1.6814 -3.7598  3.0169
    4CHL1    C3  223   5.388   6.419   3.072  1.6356  0.8188  0.9447
    4CHL1    H3  224   5.489   6.397   3.033  0.0676 -0.8148 -2.7600
    4CHL1    O3  225   5.309   6.447   2.953 -0.4059 -0.3244 -0.2269
    4CHL1   H3'  226   5.309   6.359   2.914 -0.2046 -0.7509  0.7259
    4CHL1    C4  227   5.327   6.295   3.140  0.5446 -0.0691  0.5008
    4CHL1   H4A  228   5.222   6.316   3.172  0.2473  1.2075 -1.1818
    4CHL1   H4B  229   5.333   6.215   3.064 -1.6196  2.1686 -2.2610
    4CHL1    C5  230   5.401   6.264   3.274  0.2882  0.1804  0.7564
    4CHL1    C6  231   5.457   6.137   3.286  0.3107  0.8252  0.0967
    4CHL1    H6  232   5.430   6.055   3.217  1.3591 -0.9329  1.6907
    4CHL1    C7  233   5.538   6.110   3.406 -0.1274  0.8689 -0.0400
    4CHL1   H7A  234   5.509   6.010   3.445 -0.3337  1.5367  1.5861
    4CHL1   H7B  235   5.645   6.111   3.377 -0.3972 -1.7455 -1.4503
    4CHL1    C8  236   5.512   6.202   3.520 -0.4761  0.2385  0.2230
    4CHL1    H8  237   5.406   6.191   3.553 -0.5408 -1.7326 -0.4884
    4CHL1   C14  238   5.606   6.178   3.638  0.5706  0.1308 -0.1812
    4CHL1   H14  239   5.708   6.195   3.597 -0.0127  1.6595 -1.1079
    4CHL1   C15  240   5.617   6.027   3.688  0.8247  0.0280 -0.5060
    4CHL1  H15A  241   5.513   5.988   3.693 -0.3548  2.7259 -1.9186
    4CHL1  H15B  242   5.689   5.965   3.630  0.6490 -2.6656  1.8994
    4CHL1   C16  243   5.690   6.042   3.830 -1.1455 -0.0018 -0.6958
    4CHL1  H16A  244   5.630   5.994   3.910 -0.0502  1.2582  0.9587
    4CHL1  H16B  245   5.781   5.980   3.837 -1.1706  0.0855  0.6984
    4CHL1   C17  246   5.707   6.190   3.862  0.4378  0.4935  0.2583
    4CHL1   H17  247   5.806   6.223   3.823  1.6614  0.2237  2.9117
    4CHL1   C13  248   5.604   6.263   3.764 -0.0714 -0.0148  0.9069
    4CHL1   C18  249   5.464   6.254   3.836 -0.2158  0.5067 -0.5552
    4CHL1  H18A  250   5.460   6.308   3.933  0.0676 -0.0810 -0.2094
    4CHL1  H18B  251   5.387   6.288   3.764  0.8530 -2.2785 -3.2205
    4CHL1  H18C  252   5.428   6.152   3.859 -0.0112  1.0236  2.4171
    4CHL1   C12  253   5.628   6.404   3.719  0.1593  0.3057 -0.1014
    4CHL1  H12A  254   5.613   6.473   3.805  0.5595  0.8751 -0.4788
    4CHL1  H12B  255   5.736   6.416   3.692 -0.0969  2.5097 -0.3724
    4CHL1   C11  256   5.530   6.448   3.600  0.0457  0.0845  0.1161
    4CHL1  H11A  257   5.431   6.467   3.647  0.3111 -1.0409  1.2018
    4CHL1  H11B  258   5.564   6.547   3.565  3.2233 -1.2716 -1.0562
    4CHL1    C9  259   5.528   6.348   3.473 -0.3911 -0.1319  0.1073
    4CHL1    H9  260   5.630   6.354   3.429 -0.3547  0.6533  0.2786
    4CHL1   C10  261   5.424   6.386   3.368 -0.4089  0.0140 -0.1928
    4CHL1   C19  262   5.291   6.424   3.433  0.2991  0.1204  0.3068
    4CHL1  H19A  263   5.308   6.527   3.472  1.8970 -0.2940  0.7787
    4CHL1  H19B  264   5.211   6.415   3.357  0.5184  0.2992  0.0522
    4CHL1  H19C  265   5.254   6.360   3.516 -1.4066  0.5360 -0.0974
    4CHL1    C1  266   5.476   6.510   3.292 -0.0521  0.1799 -0.1189
    4CHL1   H1A  267   5.474   6.602   3.354 -2.0375  0.7034 -0.8944
    4CHL1   H1B  268   5.579   6.492   3.254 -0.3473  0.3275 -1.0119
    4CHL1    C2  269   5.393   6.539   3.163  0.9452 -0.9072 -0.6847
    4CHL1   H2A  270   5.445   6.626   3.116  0.3563  0.2605  0.7338
    4CHL1   H2B  271   5.288   6.567   3.183  1.3816 -0.5234  1.3283
    4CHL1   C20  272   5.704   6.220   4.014  0.4422 -0.2174 -0.4059
    4CHL1   H20  273   5.603   6.202   4.056  0.5850  1.6674  0.8453
    4CHL1   C21  274   5.723   6.368   4.040 -0.3385  0.8058  0.5473
    4CHL1  H21A  275   5.640   6.434   4.008 -0.3783  0.4584 -0.0879
    4CHL1  H21B  276   5.818   6.398   3.991  0.2900 -3.3838 -1.2578
    4CHL1  H21C  277   5.729   6.379   4.150  2.2183 -0.1956  0.5753
    4CHL1   C22  278   5.807   6.134   4.092 -0.7368 -0.4307 -0.9030
    4CHL1  H22A  279   5.783   6.168   4.195 -2.3764  0.0646 -1.4222
    4CHL1  H22B  280   5.781   6.026   4.090  3.0428 -1.5551  0.7371
    4CHL1   C23  281   5.957   6.154   4.064  0.4745  0.2750  0.1268
    4CHL1  H23A  282   5.963   6.131   3.956 -0.5231 -1.0444  0.3210
    4CHL1  H23B  283   5.970   6.263   4.079 -0.8152  0.3871  0.5265
    4CHL1   C24  284   6.064   6.070   4.140  0.1820 -0.2523 -0.2746
    4CHL1  H24A  285   6.159   6.067   4.084  0.1470 -0.5225 -0.3179
    4CHL1  H24B  286   6.079   6.119   4.239 -0.1721 -1.2250  0.2739
    4CHL1   C25  287   6.017   5.924   4.156  0.1640  0.2608 -0.0507
    4CHL1   H25  288   5.911   5.915   4.190  0.4792 -0.2444  0.8237
    4CHL1   C26  289   6.022   5.837   4.028  0.5125 -1.4324  0.3307
    4CHL1  H26A  290   6.124   5.842   3.984  0.5596  2.4323  0.5725
    4CHL1  H26B  291   5.987   5.735   4.055 -0.4272 -0.8940  1.1936
    4CHL1  H26C  292   5.945   5.872   3.956  0.4307  0.4876  1.3074
    4CHL1   C27  293   6.101   5.847   4.271 -0.0290  0.2975  0.1420
    4CHL1  H27A  294   6.203   5.821   4.236  0.0818 -0.2175  0.8515
    4CHL1  H27B  295   6.088   5.896   4.370  0.7987  0.1737  0.3207
    4CHL1  H27C  296   6.054   5.748   4.290  0.2319  0.4493  1.6722
    5CHL1    C3  297   4.562   0.182   6.097  0.1953 -0.4406  0.2716
    5CHL1    H3  298   4.660   0.170   6.047  0.8040  1.3871  0.9678
    5CHL1    O3  299   4.574   0.157   6.237  0.0523  0.2646  0.4438
    5CHL1   H3'  300   4.527   0.074   6.245  1.4045 -0.4017  2.0180
    5CHL1    C4  301   4.503   0.321   6.070 -0.7515 -0.8821  0.1003
    5CHL1   H4A  302   4.407   0.335   6.125 -1.4217  3.6688 -1.8206
    5CHL1   H4B  303   4.573   0.389   6.124 -0.0711 -2.7090  1.6392
    5CHL1    C5  304   4.491   0.358   5.922  0.4509  0.6525 -0.1514
    5CHL1    C6  305   4.551   0.466   5.871  0.0836  0.0325 -0.1064
    5CHL1    H6  306   4.610   0.528   5.939 -1.6733  4.4619 -2.1715
    5CHL1    C7  307   4.553   0.494   5.723  0.1227 -0.4900 -0.0319
    5CHL1   H7A  308   4.523   0.601   5.712 -1.2607 -0.9580 -1.0994
    5CHL1   H7B  309   4.658   0.477   5.691 -0.1189 -2.0263 -0.0571
    5CHL1    C8  310   4.464   0.406   5.635  0.3936 -0.0415  0.5471
    5CHL1    H8  311   4.362   0.448   5.649 -0.1701 -0.5594 -1.6641
    5CHL1   C14  312   4.513   0.407   5.487  0.2651 -0.3399  0.7167
    5CHL1   H14  313   4.610   0.354   5.498  0.8419  0.3603 -0.6163
    5CHL1   C15  314   4.538   0.542   5.419 -0.4135  0.6127  0.0557
    5CHL1  H15A  315   4.456   0.604   5.463 -0.1904 -0.3583  1.9407
    5CHL1  H15B  316   4.637   0.589   5.435  1.0422 -2.2015 -0.1095
    5CHL1   C16  317   4.513   0.517   5.272  0.0231  0.0747 -0.5082
    5CHL1  H16A  318   4.426   0.582   5.246  0.0087  0.5118  0.5603
    5CHL1  H16B  319   4.600   0.558   5.217  2.1130 -0.8787  1.9054
    5CHL1   C17  320   4.482   0.372   5.258  0.0981 -0.1767  0.3596
    5CHL1   H17  321   4.580   0.320   5.261  0.8827  1.2814  2.3456
    5CHL1   C13  322   4.424   0.331   5.397  0.5828  0.3059  0.1060
    5CHL1   C18  323   4.271   0.373   5.398 -0.4633  0.3364  0.1493
    5CHL1  H18A  324   4.219   0.296   5.338 -0.5626  0.4021  0.1514
    5CHL1  H18B  325   4.225   0.385   5.499 -0.0304  1.1363  0.2629
    5CHL1  H18C  326   4.250   0.467   5.342 -0.5160 -1.5882 -3.3195
    5CHL1   C12  327   4.425   0.183   5.438 -1.1130 -0.0549 -0.1308
    5CHL1  H12A  328   4.346   0.133   5.378 -0.1053 -0.2322 -1.3604
    5CHL1  H12B  329   4.521   0.132   5.415 -2.1902 -1.8121 -0.9091
    5CHL1   C11  330   4.391   0.163   5.584  0.6802  0.1373  0.4043
    5CHL1  H11A  331   4.282   0.187   5.584  0.5798 -0.0974 -1.8917
    5CHL1  H11B  332   4.405   0.057   5.613  0.9436 -0.5268 -1.9526
    5CHL1    C9  333   4.465   0.259   5.680 -0.4915  0.1176 -0.8652
    5CHL1    H9  334   4.571   0.228   5.688  0.0087  1.8694 -0.1391
    5CHL1   C10  335   4.418   0.246   5.829  0.5843  0.2846  0.3674
    5CHL1   C19  336   4.268   0.276   5.836  0.0715  0.0393  0.0139
    5CHL1  H19A  337   4.236   0.240   5.936 -1.0103 -1.6851 -0.9001
    5CHL1  H19B  338   4.234   0.380   5.818 -1.8190 -0.1394  2.1800
    5CHL1  H19C  339   4.215   0.215   5.760  0.7185  2.5330 -2.6375
    5CHL1    C1  340   4.447   0.102   5.883  0.7490  0.3621  0.0096
    5CHL1   H1A  341   4.369   0.036   5.837 -0.5733  1.5513  0.4818
    5CHL1   H1B  342   4.548   0.075   5.846  0.8117  1.5581 -0.7398
    5CHL1    C2  343   4.465   0.078   6.033 -0.6232 -0.3390 -0.9804
    5CHL1   H2A  344   4.508  -0.024   6.042 -0.3330 -0.2013 -0.8049
    5CHL1   H2B  345   4.377   0.082   6.100  2.1498  4.1511  2.9866
    5CHL1   C20  346   4.401   0.336   5.134  0.3212 -0.1698  0.3034
    5CHL1   H20  347   4.295   0.356   5.157 -0.5262 -2.3798 -1.3138
    5CHL1   C21  348   4.421   0.188   5.102  0.3099 -0.5795  0.0198
    5CHL1  H21A  349   4.372   0.126   5.181 -0.5424 -3.7531 -2.7751
    5CHL1  H21B  350   4.522   0.147   5.085  0.6743 -0.7232  2.1991
    5CHL1  H21C  351   4.359   0.168   5.012 -1.4214 -0.2185  1.0858
    5CHL1   C22  352   4.426   0.413   5.000 -0.3941 -0.2968  0.1521
    5CHL1  H22A  353   4.344   0.408   4.925  1.2488 -1.4605 -1.6739
    5CHL1  H22B  354   4.419   0.518   5.035 -2.6762 -0.6318  0.8581
    5CHL1   C23  355   4.567   0.389   4.949  0.6413  0.9935 -0.1068
    5CHL1  H23A  356   4.645   0.396   5.028 -1.1962  2.8064  1.6716
    5CHL1  H23B  357   4.575   0.286   4.907  2.5963  1.1281 -0.1536
    5CHL1   C24  358   4.601   0.478   4.829 -0.0409  0.7741  0.3433
    5CHL1  H24A  359   4.517   0.478   4.757 -0.5881 -2.9924  0.7472
    5CHL1  H24B  360   4.601   0.582   4.866 -2.0395  1.1982 -0.7081
    5CHL1   C25  361   4.736   0.456   4.752 -0.0968 -0.1672  0.4432
    5CHL1   H25  362   4.813   0.450   4.831 -1.5260  0.1484  1.9100
    5CHL1   C26  363   4.743   0.323   4.678 -0.3418 -0.2319 -0.5560
    5CHL1  H26A  364   4.660   0.304   4.606 -3.1796 -0.0390  2.4436
    5CHL1  H26B  365   4.839   0.316   4.622 -0.1863  1.2308 -0.5205
    5CHL1  H26C  366   4.750   0.250   4.761 -0.8153  0.9256  0.5329
    5CHL1   C27  367   4.776   0.573   4.659  0.8791  0.3362 -0.2964
    5CHL1  H27A  368   4.775   0.661   4.727  0.4698  0.7914 -0.8818
    5CHL1  H27B  369   4.877   0.550   4.621  0.9605  0.2868 -0.0527
    5CHL1  H27C  370   4.703   0.578   4.575  1.1646 -2.4295 -0.8000
    6CHL1    C3  371   2.303   3.057   6.280  0.0708 -0.0741  0.7228
    6CHL1    H3  372   2.217   3.012   6.227  1.4348  1.4033 -3.0339
    6CHL1    O3  373   2.283   3.034   6.417  0.6238  0.4787 -0.3910
    6CHL1   H3'  374   2.294   3.115   6.468 -1.3505  0.9709 -0.6302
    6CHL1    C4  375   2.443   2.997   6.225  0.2128 -0.2961  0.0014
    6CHL1   H4A  376   2.526   3.047   6.280 -0.2910 -1.1561  1.5840
    6CHL1   H4B  377   2.454   2.891   6.258 -0.4021  0.1726  1.8366
    6CHL1    C5  378   2.460   3.023   6.076 -0.0924  0.2839 -0.8435
    6CHL1    C6  379   2.478   2.926   5.987 -0.4429  0.3093  0.0738
    6CHL1    H6  380   2.476   2.820   6.016 -3.0777  0.5168  0.9247
    6CHL1    C7  381   2.507   2.967   5.841 -0.1375 -0.0072 -0.1242
    6CHL1   H7A  382   2.597   2.915   5.802 -0.4693  1.3019 -2.8762
    6CHL1   H7B  383   2.435   2.924   5.768  0.1889  1.3908 -1.3066
    6CHL1    C8  384   2.534   3.113   5.805 -0.8241  0.0503 -0.7649
    6CHL1    H8  385   2.638   3.137   5.836 -1.3653  2.5989 -0.7082
    6CHL1   C14  386   2.531   3.131   5.658  0.1861 -0.9379  0.5451
    6CHL1   H14  387   2.429   3.095   5.636 -0.0716  0.6732 -1.2163
    6CHL1   C15  388   2.623   3.058   5.561  0.4590 -0.6493  0.1531
    6CHL1  H15A  389   2.727   3.079   5.594  0.5597 -0.7880 -0.0801
    6CHL1  H15B  390   2.600   2.949   5.567  1.9044 -0.9638  0.2817
    6CHL1   C16  391   2.598   3.118   5.431  0.1310  0.5851  0.4324
    6CHL1  H16A  392   2.695   3.133   5.379 -0.4461  0.0390 -0.8532
    6CHL1  H16B  393   2.545   3.043   5.368 -0.3527  1.6755 -0.5023
    6CHL1   C17  394   2.533   3.256   5.454 -0.2609 -0.0056  0.6703
    6CHL1   H17  395   2.425   3.255   5.428 -0.7281 -2.0268  2.4236
    6CHL1   C13  396   2.539   3.278   5.610  0.0354  0.0793  0.1934
    6CHL1   C18  397   2.681   3.335   5.648  0.0023  0.9047 -0.8947
    6CHL1  H18A  398   2.681   3.446   5.647 -2.3579  0.9806  0.3616
    6CHL1  H18B  399   2.714   3.304   5.750 -1.7987 -1.3650 -0.9325
    6CHL1  H18C  400   2.761   3.289   5.586 -1.9109 -3.7873 -0.2796
    6CHL1   C12  401   2.426   3.359   5.684  0.4836  0.5084 -0.4061
    6CHL1  H12A  402   2.415   3.467   5.659 -0.8727  0.4564 -0.0810
    6CHL1  H12B  403   2.329   3.314   5.656  1.4200 -3.0322  1.4013
    6CHL1   C11  404   2.437   3.343   5.838 -0.2886 -0.1228 -0.1800
    6CHL1  H11A  405   2.534   3.387   5.867 -0.8990  1.0838  0.1071
    6CHL1  H11B  406   2.355   3.400   5.886  1.1257  1.2150  0.7466
    6CHL1    C9  407   2.430   3.197   5.884 -0.6322  0.3059 -0.0663
    6CHL1    H9  408   2.336   3.147   5.852  0.6293 -1.6561 -0.8825
    6CHL1   C10  409   2.444   3.174   6.038 -0.3185  0.5695 -0.2984
    6CHL1   C19  410   2.571   3.239   6.092  0.3208  0.1357 -0.2936
    6CHL1  H19A  411   2.589   3.227   6.201  0.3407 -1.6566 -0.4503
    6CHL1  H19B  412   2.656   3.185   6.045  0.7922  0.8103 -0.2305
    6CHL1  H19C  413   2.576   3.347   6.068  0.6151 -0.2893 -2.2921
    6CHL1    C1  414   2.317   3.235   6.109 -0.3423 -0.0203  0.1416
    6CHL1   H1A  415   2.306   3.345   6.097 -0.0418 -0.1534 -1.7253
    6CHL1   H1B  416   2.232   3.183   6.060 -0.7386  0.3344  0.4451
    6CHL1    C2  417   2.303   3.204   6.263  0.2727 -1.0812 -0.1586
    6CHL1   H2A  418   2.214   3.252   6.309 -0.3636 -0.4257 -2.0088
    6CHL1   H2B  419   2.392   3.246   6.314  0.2036 -2.5000  1.2130
    6CHL1   C20  420   2.595   3.359   5.361 -0.1892 -0.2035 -0.1130
    6CHL1   H20  421   2.704   3.366   5.382  0.4030 -0.8637 -2.6043
    6CHL1   C21  422   2.529   3.490   5.390 -0.1533  0.0782 -0.1624
    6CHL1  H21A  423   2.561   3.573   5.323 -0.6940  0.6343  0.2431
    6CHL1  H21B  424   2.554   3.521   5.494 -1.3993  1.0953 -0.1348
    6CHL1  H21C  425   2.419   3.475   5.379 -0.8148  2.9405  1.4527
    6CHL1   C22  426   2.568   3.321   5.212 -0.7794 -0.1304 -0.4604
    6CHL1  H22A  427   2.609   3.407   5.154 -0.5262 -0.5294 -0.8779
    6CHL1  H22B  428   2.641   3.239   5.193  0.4260  0.9724 -0.7728
    6CHL1   C23  429   2.423   3.297   5.169  0.0852 -0.1720  0.2957
    6CHL1  H23A  430   2.383   3.205   5.217  1.5793  0.9457  4.0602
    6CHL1  H23B  431   2.351   3.379   5.190 -1.0253 -1.3167  1.1428
    6CHL1   C24  432   2.421   3.261   5.016  0.0283  1.1130  1.2749
    6CHL1  H24A  433   2.453   3.339   4.944 -1.4262  2.1637  1.7040
    6CHL1  H24B  434   2.501   3.184   5.010 -1.0052  0.1186 -0.8805
    6CHL1   C25  435   2.287   3.201   4.953  0.0004  0.2110  0.4074
    6CHL1   H25  436   2.204   3.275   4.948 -0.0844  0.0145 -1.7804
    6CHL1   C26  437   2.316   3.165   4.800 -0.0428  0.3144 -0.4498
    6CHL1  H26A  438   2.356   3.254   4.746  0.3703  0.0016 -0.6689
    6CHL1  H26B  439   2.399   3.090   4.800 -1.7132 -1.6294 -0.9178
    6CHL1  H26C  440   2.232   3.126   4.738 -0.9697  0.6439  0.5738
    6CHL1   C27  441   2.232   3.072   5.024  0.1740 -0.3150  0.0547
    6CHL1  H27A  442   2.141   3.034   4.973 -1.3215  0.4304  2.0153
    6CHL1  H27B  443   2.311   2.994   5.029  1.9796  1.3340 -1.2393
    6CHL1  H27C  444   2.191   3.096   5.125  0.4025  3.1261 -0.5610
    7CHL1    C3  445   3.952   3.884   6.133  0.4596 -0.4906  0.4246
    7CHL1    H3  446   3.966   3.991   6.108  0.3580 -1.0392 -2.2943
    7CHL1    O3  447   3.991   3.866   6.262  0.3232  0.4015 -0.6174
    7CHL1   H3'  448   3.937   3.925   6.315  0.5144  0.3761 -0.3942
    7CHL1    C4  449   3.810   3.837   6.090 -0.6224  0.4284  0.5678
    7CHL1   H4A  450   3.783   3.735   6.125 -1.0668  0.8466  1.4846
    7CHL1   H4B  451   3.746   3.898   6.157 -2.0082  1.6910 -1.7634
    7CHL1    C5  452   3.773   3.859   5.944 -0.1152 -0.3241 -0.2075
    7CHL1    C6  453   3.663   3.917   5.920  0.8163 -0.4988  0.3630
    7CHL1    H6  454   3.585   3.942   5.993  0.3555 -1.5376  0.2377
    7CHL1    C7  455   3.623   3.943   5.771 -0.6390  0.3490  0.2527
    7CHL1   H7A  456   3.517   3.913   5.760  0.1560 -1.9103 -2.1267
    7CHL1   H7B  457   3.622   4.054   5.763  1.0720  0.3028 -1.1894
    7CHL1    C8  458   3.709   3.866   5.670 -0.0026 -0.3038 -0.2414
    7CHL1    H8  459   3.667   3.763   5.674 -2.0124  0.5164  2.9919
    7CHL1   C14  460   3.695   3.929   5.531 -0.4162 -0.1747  0.1812
    7CHL1   H14  461   3.746   4.028   5.533 -0.8792  0.0515  0.7785
    7CHL1   C15  462   3.552   3.962   5.485 -0.4636 -0.2741  0.3553
    7CHL1  H15A  463   3.478   3.879   5.493 -1.2422  0.0688 -2.3360
    7CHL1  H15B  464   3.513   4.060   5.518  0.9373 -0.4857  2.9197
    7CHL1   C16  465   3.576   3.987   5.335 -0.1121  0.2987  1.0107
    7CHL1  H16A  466   3.494   3.936   5.280  1.4233  0.1049 -1.2148
    7CHL1  H16B  467   3.552   4.093   5.314 -4.0422 -0.8687 -1.5610
    7CHL1   C17  468   3.719   3.942   5.300  0.0265 -0.3941 -0.2757
    7CHL1   H17  469   3.790   4.027   5.298 -0.0490 -0.3419 -0.7329
    7CHL1   C13  470   3.766   3.852   5.418  0.6654 -0.9119  0.5003
    7CHL1   C18  471   3.708   3.708   5.395  0.3944 -0.1608 -0.5458
    7CHL1  H18A  472   3.604   3.706   5.356 -0.0716 -1.7855  0.6750
    7CHL1  H18B  473   3.773   3.654   5.323  1.0569 -0.9998  0.6453
    7CHL1  H18C  474   3.717   3.648   5.488 -0.0364  0.9925  0.2671
    7CHL1   C12  475   3.917   3.842   5.449 -0.3185  0.4645  0.2778
    7CHL1  H12A  476   3.966   3.773   5.377 -0.9225  0.0811  0.2233
    7CHL1  H12B  477   3.958   3.945   5.444 -1.0608  0.7054 -1.9377
    7CHL1   C11  478   3.936   3.791   5.591  0.1803 -0.3287  0.1962
    7CHL1  H11A  479   3.909   3.684   5.603  1.1345 -0.5672  0.2701
    7CHL1  H11B  480   4.044   3.799   5.615 -0.2174 -0.4919  2.1948
    7CHL1    C9  481   3.858   3.869   5.701 -0.6508  0.4234 -0.6614
    7CHL1    H9  482   3.885   3.977   5.699 -0.2383  0.3544  0.3028
    7CHL1   C10  483   3.881   3.815   5.845  0.8213  0.0712 -0.5653
    7CHL1   C19  484   3.873   3.662   5.844  0.7028 -0.3963 -0.2154
    7CHL1  H19A  485   3.970   3.622   5.806  0.3168 -0.8138 -0.7637
    7CHL1  H19B  486   3.861   3.618   5.945 -0.5471  0.7440  0.1616
    7CHL1  H19C  487   3.788   3.626   5.782 -0.2145  0.2520  0.6449
    7CHL1    C1  488   4.021   3.854   5.895 -0.7995  1.0195  0.4076
    7CHL1   H1A  489   4.102   3.793   5.850 -0.7589  0.5905  1.0435
    7CHL1   H1B  490   4.034   3.963   5.876 -2.4667  0.8689 -2.0397
    7CHL1    C2  491   4.053   3.817   6.041  0.8438 -0.4145  1.1173
    7CHL1   H2A  492   4.152   3.861   6.068  0.6096  0.8889 -0.0307
    7CHL1   H2B  493   4.051   3.709   6.066 -0.7047 -1.1440 -1.7300
    7CHL1   C20  494   3.732   3.884   5.161 -0.6073 -0.3591  0.1456
    7CHL1   H20  495   3.671   3.792   5.153 -0.3748 -0.4475 -0.7591
    7CHL1   C21  496   3.881   3.839   5.135 -0.2714  0.4891  0.2122
    7CHL1  H21A  497   3.896   3.852   5.025 -0.9583 -0.7503 -0.0438
    7CHL1  H21B  498   3.899   3.732   5.159 -1.2913  0.1019 -0.6833
    7CHL1  H21C  499   3.954   3.906   5.185  0.1835  0.2019 -0.0450
    7CHL1   C22  500   3.681   3.976   5.043  0.3073 -0.0365  0.1515
    7CHL1  H22A  501   3.686   3.920   4.947  1.3572  1.9043 -0.9987
    7CHL1  H22B  502   3.576   4.003   5.068  0.0987  0.5058 -1.2099
    7CHL1   C23  503   3.756   4.113   5.031 -0.3575  0.8382  0.5481
    7CHL1  H23A  504   3.745   4.161   5.131 -3.1987 -0.2710  0.8630
    7CHL1  H23B  505   3.866   4.114   5.018 -0.4370 -0.5254 -0.4694
    7CHL1   C24  506   3.696   4.209   4.929  0.7110 -0.9027  0.0973
    7CHL1  H24A  507   3.594   4.235   4.965  0.7673  0.8041 -0.8573
    7CHL1  H24B  508   3.741   4.310   4.941 -0.8405  0.0184 -1.3534
    7CHL1   C25  509   3.691   4.162   4.786  0.2973 -0.6478  0.1804
    7CHL1   H25  510   3.632   4.068   4.780  0.0396 -0.4899  0.2275
    7CHL1   C26  511   3.631   4.262   4.683 -0.1218  0.4236 -0.1280
    7CHL1  H26A  512   3.526   4.291   4.705  0.5905  2.0223  1.3885
    7CHL1  H26B  513   3.686   4.359   4.680 -2.2571  1.7051  0.0006
    7CHL1  H26C  514   3.633   4.212   4.584 -0.7386 -0.0827  0.1144
    7CHL1   C27  515   3.836   4.139   4.738  0.7384 -0.2044 -0.8799
    7CHL1  H27A  516   3.847   4.114   4.631 -1.8179 -1.8396 -0.8410
    7CHL1  H27B  517   3.884   4.231   4.779 -0.2388 -0.0292 -0.0971
    7CHL1  H27C  518   3.880   4.048   4.784  0.2325 -2.0321 -3.8137
    8CHL1    C3  519   1.845   4.478   5.771  0.0660  0.2723  0.1282
    8CHL1    H3  520   1.754   4.431   5.726 -1.3196  0.8759  2.1565
    8CHL1    O3  521   1.805   4.504   5.906 -0.0176 -0.1816  0.9766
    8CHL1   H3'  522   1.880   4.469   5.955  1.5018  2.4956  0.7859
    8CHL1    C4  523   1.962   4.376   5.762 -0.3323  0.3869  0.4535
    8CHL1   H4A  524   2.048   4.415   5.820 -0.9776  1.1367  0.9266
    8CHL1   H4B  525   1.935   4.275   5.800 -0.3028  0.2529  0.1141
    8CHL1    C5  526   2.010   4.364   5.616  0.1864 -0.4340  0.0513
    8CHL1    C6  527   2.008   4.242   5.563 -0.1984 -0.3405  0.3142
    8CHL1    H6  528   1.966   4.155   5.615  1.1755 -1.6129 -0.6233
    8CHL1    C7  529   2.061   4.213   5.427  0.3084  1.0420 -0.3084
    8CHL1   H7A  530   2.123   4.121   5.429  0.4861  1.1158 -1.5650
    8CHL1   H7B  531   1.973   4.187   5.364 -0.9873 -0.0071  1.8163
    8CHL1    C8  532   2.136   4.328   5.362  0.9223 -0.5661 -0.2990
    8CHL1    H8  533   2.232   4.339   5.417  1.9152 -1.7708 -1.7334
    8CHL1   C14  534   2.156   4.298   5.216  0.1261  0.4933 -0.4701
    8CHL1   H14  535   2.050   4.301   5.185  0.8111  1.7929 -2.9466
    8CHL1   C15  536   2.215   4.165   5.181 -0.0170  0.1346 -0.2252
    8CHL1  H15A  537   2.314   4.143   5.228 -0.7151  0.0301  1.2537
    8CHL1  H15B  538   2.146   4.079   5.194 -0.2791 -0.1781 -3.0267
    8CHL1   C16  539   2.244   4.169   5.028 -0.1915 -0.7072 -0.1040
    8CHL1  H16A  540   2.336   4.110   5.009 -0.3869 -1.1225  0.2193
    8CHL1  H16B  541   2.165   4.115   4.972 -0.4850  2.0612 -2.5960
    8CHL1   C17  542   2.229   4.324   4.992 -0.9526  0.0468  0.3921
    8CHL1   H17  543   2.123   4.336   4.959 -1.0436  0.3675  0.7912
    8CHL1   C13  544   2.236   4.397   5.128  0.6803 -0.2152  0.1339
    8CHL1   C18  545   2.386   4.402   5.174  0.6225  0.6779 -0.3428
    8CHL1  H18A  546   2.406   4.436   5.278  0.5988 -3.3350  1.1621
    8CHL1  H18B  547   2.438   4.308   5.147 -1.6564 -0.2893 -1.7051
    8CHL1  H18C  548   2.432   4.480   5.109 -1.1867  1.6417 -0.5424
    8CHL1   C12  549   2.167   4.530   5.138  0.3256  0.1266 -0.4334
    8CHL1  H12A  550   2.233   4.611   5.098 -0.1204 -0.0820 -1.6273
    8CHL1  H12B  551   2.075   4.519   5.078 -2.2644  2.3130  2.7968
    8CHL1   C11  552   2.134   4.575   5.288 -0.1752  0.2155 -1.1829
    8CHL1  H11A  553   2.228   4.606   5.339 -0.7174 -1.4043  0.9675
    8CHL1  H11B  554   2.067   4.663   5.285  1.4178  1.5979  1.1040
    8CHL1    C9  555   2.063   4.459   5.377  0.2082 -0.1453 -0.1339
    8CHL1    H9  556   1.962   4.441   5.333  1.1691 -1.2658 -2.0754
    8CHL1   C10  557   2.041   4.491   5.533  0.5670  0.0521 -0.1227
    8CHL1   C19  558   2.165   4.554   5.598 -0.1336 -0.1896  0.3670
    8CHL1  H19A  559   2.150   4.593   5.701 -0.6558  2.3216 -0.5967
    8CHL1  H19B  560   2.243   4.475   5.608  0.1519 -0.0714 -0.8490
    8CHL1  H19C  561   2.217   4.639   5.549 -0.2488 -0.5831 -0.4653
    8CHL1    C1  562   1.919   4.587   5.541  0.4982  0.2339 -0.0266
    8CHL1   H1A  563   1.939   4.691   5.505  0.8739  0.3302  0.4418
    8CHL1   H1B  564   1.839   4.531   5.490 -0.4020  0.0084  1.5666
    8CHL1    C2  565   1.868   4.610   5.692 -0.3591 -0.0079  0.1961
    8CHL1   H2A  566   1.778   4.672   5.673 -1.1438 -1.5571 -1.3747
    8CHL1   H2B  567   1.933   4.672   5.758 -0.6535 -0.4831  0.9430
    8CHL1   C20  568   2.323   4.357   4.879 -0.4779 -0.2434 -0.4595
    8CHL1   H20  569   2.429   4.339   4.910  0.0567  1.2122 -1.3197
    8CHL1   C21  570   2.316   4.512   4.843  0.3390 -0.7133  0.3892
    8CHL1  H21A  571   2.210   4.535   4.819  0.3942  0.0282  0.8436
    8CHL1  H21B  572   2.385   4.533   4.759 -0.8094 -1.6596 -0.8455
    8CHL1  H21C  573   2.347   4.565   4.935 -0.7916 -0.4281  0.6210
    8CHL1   C22  574   2.307   4.265   4.755 -0.0994  0.3398  1.2054
    8CHL1  H22A  575   2.370   4.303   4.672 -1.4171  1.1715  0.5393
    8CHL1  H22B  576   2.336   4.160   4.775 -0.7164  0.1856  1.3040
    8CHL1   C23  577   2.172   4.275   4.684  0.8809 -0.6139 -0.0838
    8CHL1  H23A  578   2.081   4.258   4.745 -1.2003  2.8811 -1.8564
    8CHL1  H23B  579   2.146   4.379   4.653  0.8102 -0.3539  0.8183
    8CHL1   C24  580   2.174   4.183   4.560  0.0523 -0.0766 -0.2471
    8CHL1  H24A  581   2.262   4.220   4.503  0.7242  0.8684  1.3535
    8CHL1  H24B  582   2.193   4.076   4.583  0.3926  0.4907  2.3358
    8CHL1   C25  583   2.046   4.193   4.479 -0.5925  0.6078 -0.7775
    8CHL1   H25  584   1.958   4.159   4.537  0.5330  0.1551  0.7541
    8CHL1   C26  585   2.014   4.335   4.433 -0.4949 -0.0412  0.5145
    8CHL1  H26A  586   2.106   4.393   4.409 -0.2772 -0.8924 -0.8474
    8CHL1  H26B  587   1.949   4.334   4.343  1.5833  0.8484 -1.0986
    8CHL1  H26C  588   1.965   4.393   4.513 -0.7108 -1.4481  1.4426
    8CHL1   C27  589   2.058   4.092   4.363 -0.1784  0.0829 -0.2739
    8CHL1  H27A  590   2.124   4.126   4.281  2.8202  1.7964  2.6113
    8CHL1  H27B  591   2.092   3.990   4.393  3.3822  0.7151 -1.7459
    8CHL1  H27C  592   1.957   4.092   4.317 -0.5725  0.5391  0.5732
    9CHL1    C3  593   3.878   6.909   5.971  0.1467 -0.3929 -0.2104
    9CHL1    H3  594   3.905   6.801   5.969  0.8094 -0.2384 -2.9658
    9CHL1    O3  595   3.846   6.930   6.102 -0.6109  0.1168 -0.3752
    9CHL1   H3'  596   3.870   7.022   6.108  0.9067 -0.1369 -1.8539
    9CHL1    C4  597   4.001   6.990   5.935  0.1125  0.3720  0.0090
    9CHL1   H4A  598   3.978   7.098   5.945 -1.1894  0.1358 -0.2380
    9CHL1   H4B  599   4.079   6.949   6.003  0.1776 -0.5427 -0.5995
    9CHL1    C5  600   4.026   6.960   5.788 -0.3623 -0.0192 -0.1154
    9CHL1    C6  601   4.140   6.905   5.751  0.1157  0.1398  0.2804
    9CHL1    H6  602   4.219   6.891   5.825  1.2433 -1.3253 -1.1290
    9CHL1    C7  603   4.179   6.879   5.609  0.4643  0.4209  0.6633
    9CHL1   H7A  604   4.280   6.919   5.585  1.3789 -1.4131  1.3084
    9CHL1   H7B  605   4.171   6.771   5.589 -2.2727  1.1022 -2.8860
    9CHL1    C8  606   4.086   6.957   5.504  0.2912 -0.5419 -0.6373
    9CHL1    H8  607   4.125   7.061   5.514  1.2492 -1.0792  2.4906
    9CHL1   C14  608   4.108   6.916   5.353 -0.1183  0.3813  0.1267
    9CHL1   H14  609   4.072   6.811   5.344  1.3462 -0.0639 -0.8614
    9CHL1   C15  610   4.254   6.914   5.306 -0.2404 -0.4574  0.8528
    9CHL1  H15A  611   4.306   7.007   5.340 -0.5094  0.4002 -0.9535
    9CHL1  H15B  612   4.318   6.827   5.329  0.7917 -0.4201 -1.5827
    9CHL1   C16  613   4.246   6.908   5.154 -0.1107 -0.0474  0.2344
    9CHL1  H16A  614   4.297   6.996   5.108  1.1108  0.4185  2.3379
    9CHL1  H16B  615   4.296   6.816   5.117  1.7624  0.9854  0.0279
    9CHL1   C17  616   4.085   6.920   5.119 -0.0104 -0.3976 -0.8877
    9CHL1   H17  617   4.040   6.819   5.122 -2.9411  0.8411 -0.1099
    9CHL1   C13  618   4.027   6.984   5.244  0.5644  0.9049 -0.4003
    9CHL1   C18  619   4.066   7.127   5.239  0.7060 -0.0583  0.0104
    9CHL1  H18A  620   4.166   7.139   5.192  0.6074  3.4043  0.4650
    9CHL1  H18B  621   4.002   7.185   5.169  0.4413  0.5077  0.7091
    9CHL1  H18C  622   4.058   7.166   5.342  1.1093  0.6239 -0.2077
    9CHL1   C12  623   3.874   6.958   5.283  0.8200 -0.2519 -0.1078
    9CHL1  H12A  624   3.816   7.012   5.206 -0.6953 -1.3765  0.1899
    9CHL1  H12B  625   3.853   6.850   5.266  1.1834 -0.2687 -0.4820
    9CHL1   C11  626   3.848   7.001   5.437  0.8660 -0.3141 -0.1352
    9CHL1  H11A  627   3.871   7.109   5.434 -0.0702 -0.0036  2.2819
    9CHL1  H11B  628   3.744   7.000   5.476  0.5447 -2.1118 -0.9190
    9CHL1    C9  629   3.941   6.943   5.544 -0.5082  0.0970  0.0033
    9CHL1    H9  630   3.922   6.835   5.562 -0.3268  0.1671  0.6370
    9CHL1   C10  631   3.913   7.001   5.689  0.4164 -0.1359 -0.6431
    9CHL1   C19  632   3.901   7.152   5.689 -0.0433 -0.4219 -0.0968
    9CHL1  H19A  633   3.989   7.198   5.639 -1.6098  3.0815  0.0844
    9CHL1  H19B  634   3.818   7.186   5.624  0.3828  2.7881  0.8574
    9CHL1  H19C  635   3.875   7.194   5.788  1.0256 -1.9952  0.9104
    9CHL1    C1  636   3.782   6.932   5.744  0.4900  0.4212  0.0030
    9CHL1   H1A  637   3.695   6.973   5.688  1.2585 -1.2415 -2.6090
    9CHL1   H1B  638   3.791   6.826   5.714  2.1937  0.5975 -0.2267
    9CHL1    C2  639   3.749   6.942   5.896 -0.2512 -0.5768  0.2878
    9CHL1   H2A  640   3.666   6.872   5.918 -3.1140  2.7167  0.8011
    9CHL1   H2B  641   3.717   7.045   5.922  2.6537 -0.1914  2.8176
    9CHL1   C20  642   4.058   6.985   4.981  0.5273 -0.0446 -0.7262
    9CHL1   H20  643   4.104   7.086   4.979 -0.6454  0.4978 -1.3063
    9CHL1   C21  644   3.908   7.008   4.962 -0.0365 -0.9101  0.1132
    9CHL1  H21A  645   3.854   6.918   4.997 -1.2430  0.4327  1.9405
    9CHL1  H21B  646   3.867   7.022   4.860  0.1850 -1.0929 -0.0025
    9CHL1  H21C  647   3.862   7.089   5.024  0.3582 -1.0736  0.6250
    9CHL1   C22  648   4.113   6.904   4.860 -0.4682  0.2447 -0.3302
    9CHL1  H22A  649   4.221   6.891   4.884 -0.5997 -0.4196 -0.0732
    9CHL1  H22B  650   4.065   6.807   4.837  1.0407 -0.5155 -0.3902
    9CHL1   C23  651   4.117   6.995   4.737  0.0214 -0.0732  0.6059
    9CHL1  H23A  652   4.017   7.027   4.702  0.6962 -0.4104 -1.8306
    9CHL1  H23B  653   4.178   7.085   4.762  0.0490  0.2421 -0.5497
    9CHL1   C24  654   4.179   6.919   4.616 -0.0087  0.4479  0.9377
    9CHL1  H24A  655   4.283   6.891   4.643  0.1476 -0.3296 -0.3987
    9CHL1  H24B  656   4.122   6.824   4.611  1.1665 -0.2629  0.6614
    9CHL1   C25  657   4.156   6.975   4.476 -0.0397 -0.4558  0.0253
    9CHL1   H25  658   4.205   6.901   4.409  1.0170  0.5874 -0.3767
    9CHL1   C26  659   4.011   6.983   4.423  0.4671  0.1234  0.0063
    9CHL1  H26A  660   3.955   7.062   4.476 -2.9536 -1.1843 -1.3962
    9CHL1  H26B  661   4.017   7.005   4.314  0.7396 -2.2037 -0.5090
    9CHL1  H26C  662   3.948   6.892   4.425  0.7399 -0.0697 -0.1278
    9CHL1   C27  663   4.213   7.117   4.465  0.3404  0.7613  0.1387
    9CHL1  H27A  664   4.324   7.124   4.473  0.5756  1.5639 -2.6409
    9CHL1  H27B  665   4.187   7.153   4.363  0.0337 -2.1002 -0.8748
    9CHL1  H27C  666   4.161   7.189   4.531 -3.0624 -1.0832 -0.3180
   10CHL1    C3  667   5.786   1.894   6.244 -0.0097  0.1011  0.1546
   10CHL1    H3  668   5.895   1.916   6.240  0.0872 -0.3724  0.1183
   10CHL1    O3  669   5.738   1.881   6.376 -0.1568 -0.1341 -0.0668
   10CHL1   H3'  670   5.719   1.968   6.410  0.6950 -0.7798  2.2478
   10CHL1    C4  671   5.713   2.015   6.185 -0.8018  0.1524 -0.5254
   10CHL1   H4A  672   5.604   2.002   6.199 -0.2788 -3.4656  1.1796
   10CHL1   H4B  673   5.742   2.105   6.244 -0.7444 -0.3667  0.2474
   10CHL1    C5  674   5.734   2.033   6.038  0.2227  0.4535 -0.3421
   10CHL1    C6  675   5.767   2.159   5.997  0.3196  1.1251  0.7223
   10CHL1    H6  676   5.762   2.240   6.071 -0.7072  1.4264  0.3416
   10CHL1    C7  677   5.787   2.187   5.850  0.7440  0.7211  0.7144
   10CHL1   H7A  678   5.741   2.284   5.821 -2.0505 -0.8909 -0.7065
   10CHL1   H7B  679   5.896   2.194   5.829  1.4320 -3.2648  2.0172
   10CHL1    C8  680   5.736   2.070   5.757 -0.1082  0.2327 -0.0900
   10CHL1    H8  681   5.626   2.080   5.755 -0.0885  0.7869  0.8240
   10CHL1   C14  682   5.782   2.083   5.612  0.9170  0.1267  0.1806
   10CHL1   H14  683   5.893   2.085   5.610  0.9437  0.2875  1.4508
   10CHL1   C15  684   5.746   2.213   5.541 -0.0597  0.2228  0.6469
   10CHL1  H15A  685   5.636   2.228   5.551 -0.4073 -0.8787 -1.2102
   10CHL1  H15B  686   5.810   2.294   5.584  0.4693 -0.0911  0.4548
   10CHL1   C16  687   5.790   2.190   5.400 -0.1194 -0.1385 -0.2586
   10CHL1  H16A  688   5.736   2.252   5.326  1.5084 -0.0489 -1.4350
   10CHL1  H16B  689   5.894   2.225   5.383 -0.6002  0.8764 -1.1916
   10CHL1   C17  690   5.786   2.030   5.378  0.1824 -0.0426 -0.4146
   10CHL1   H17  691   5.890   1.992   5.375  0.3112  0.3275 -0.6016
   10CHL1   C13  692   5.728   1.972   5.517  0.1692  0.0086 -0.4259
   10CHL1   C18  693   5.573   1.970   5.501 -0.1039 -0.5846 -0.6485
   10CHL1  H18A  694   5.542   2.056   5.438  0.0157  0.4103  0.6276
   10CHL1  H18B  695   5.535   1.876   5.457 -2.8833  1.0048 -1.8455
   10CHL1  H18C  696   5.530   1.980   5.603  3.1342  0.3724  0.7704
   10CHL1   C12  697   5.777   1.839   5.564 -0.0801  0.2695  0.5866
   10CHL1  H12A  698   5.741   1.749   5.510  3.3475 -2.7205  2.8037
   10CHL1  H12B  699   5.887   1.835   5.548 -0.0123  1.1775  0.7675
   10CHL1   C11  700   5.746   1.814   5.711  0.8142 -0.1366  0.4780
   10CHL1  H11A  701   5.637   1.794   5.718  0.7512  0.5968  2.4399
   10CHL1  H11B  702   5.809   1.727   5.741  0.2354 -0.9946 -0.7436
   10CHL1    C9  703   5.774   1.931   5.810  0.0690  0.0177  0.1382
   10CHL1    H9  704   5.885   1.932   5.818 -0.0301  1.7154  2.2975
   10CHL1   C10  705   5.720   1.911   5.950 -0.0504  0.7357 -0.1047
   10CHL1   C19  706   5.567   1.881   5.949 -0.1648 -0.4941 -0.1658
   10CHL1  H19A  707   5.533   1.877   6.055  0.5750  3.0050  0.3263
   10CHL1  H19B  708   5.515   1.956   5.886 -0.7156  0.3888  1.2908
   10CHL1  H19C  709   5.561   1.785   5.893  1.0671  0.7557 -2.5880
   10CHL1    C1  710   5.796   1.791   6.024 -0.1467 -1.0629  0.2014
   10CHL1   H1A  711   5.775   1.701   5.962 -0.7691  0.9265 -2.6786
   10CHL1   H1B  712   5.904   1.813   6.016 -0.2533 -0.0096  1.3053
   10CHL1    C2  713   5.760   1.769   6.174  0.3018  0.0624 -0.0595
   10CHL1   H2A  714   5.812   1.677   6.207  0.2708 -0.0408 -0.2987
   10CHL1   H2B  715   5.650   1.751   6.175  0.5858 -1.8380  0.2158
   10CHL1   C20  716   5.735   1.981   5.241 -0.0530 -0.1562 -0.3801
   10CHL1   H20  717   5.630   2.016   5.233 -0.0726  0.1001  0.7724
   10CHL1   C21  718   5.749   1.827   5.236 -0.0857 -0.2928  0.5413
   10CHL1  H21A  719   5.690   1.779   5.317 -0.4842 -0.4331  0.1706
   10CHL1  H21B  720   5.855   1.797   5.246  0.4240 -0.0278 -2.8189
   10CHL1  H21C  721   5.723   1.775   5.142  0.3270 -1.2187  0.9226
   10CHL1   C22  722   5.818   2.045   5.127  0.5837 -0.0372  0.1881
   10CHL1  H22A  723   5.859   2.145   5.152  0.6098  0.2032 -0.8094
   10CHL1  H22B  724   5.896   1.979   5.085 -0.5683 -1.0517 -0.4415
   10CHL1   C23  725   5.728   2.065   5.006  0.3802 -0.0143 -0.6386
   10CHL1  H23A  726   5.678   1.971   4.975  0.0040 -0.7782  2.0805
   10CHL1  H23B  727   5.647   2.139   5.025 -0.5375 -0.5603 -2.2198
   10CHL1   C24  728   5.810   2.105   4.874 -0.1789 -0.3135 -0.8419
   10CHL1  H24A  729   5.897   2.036   4.877  0.9171  1.0352  1.5457
   10CHL1  H24B  730   5.747   2.077   4.787 -1.6646  0.0626  0.0630
   10CHL1   C25  731   5.849   2.259   4.869  0.9868 -0.7000  0.3081
   10CHL1   H25  732   5.903   2.281   4.963 -1.3222  0.8054  1.3944
   10CHL1   C26  733   5.936   2.293   4.746  0.0383  0.2603  0.0766
   10CHL1  H26A  734   5.929   2.398   4.710  0.3336  0.3485  0.2711
   10CHL1  H26B  735   6.044   2.277   4.765  0.2149  0.9919 -0.2645
   10CHL1  H26C  736   5.905   2.236   4.656 -2.3812  2.5612 -0.6590
   10CHL1   C27  737   5.721   2.338   4.846 -0.2467 -0.1500 -0.5796
   10CHL1  H27A  738   5.659   2.289   4.768 -1.3313 -1.0237  0.7806
   10CHL1  H27B  739   5.661   2.361   4.937 -0.6095  2.3294 -1.3518
   10CHL1  H27C  740   5.761   2.428   4.795  2.1166 -1.4491 -1.1225
   11CHL1    C3  741   3.467   4.717   6.447  0.7538  0.6890  0.5533
   11CHL1    H3  742   3.566   4.670   6.430  0.6254  0.1796  1.1529
   11CHL1    O3  743   3.412   4.681   6.572  0.2789  0.3265  0.1095
   11CHL1   H3'  744   3.320   4.708   6.577 -0.1500 -0.9393 -0.4131
   11CHL1    C4  745   3.471   4.873   6.443  0.5219 -0.4628 -1.1783
   11CHL1   H4A  746   3.376   4.921   6.474  1.4042  1.5671 -1.5148
   11CHL1   H4B  747   3.536   4.903   6.528 -0.1254  0.3656 -0.9690
   11CHL1    C5  748   3.510   4.926   6.305  0.9172  0.4043 -0.1459
   11CHL1    C6  749   3.616   5.003   6.292 -0.3235 -0.1728  0.1652
   11CHL1    H6  750   3.661   5.037   6.387 -0.1881  1.1209 -0.3513
   11CHL1    C7  751   3.654   5.053   6.159 -1.3509  0.3524 -0.0110
   11CHL1   H7A  752   3.695   5.155   6.174  0.6571 -0.1473 -1.7543
   11CHL1   H7B  753   3.740   4.992   6.126 -2.1145 -0.5970 -0.2944
   11CHL1    C8  754   3.545   5.041   6.050  0.2762 -0.1018  0.5546
   11CHL1    H8  755   3.471   5.121   6.072 -0.5043 -0.5318 -0.4664
   11CHL1   C14  756   3.614   5.063   5.910  0.6543  0.2212 -0.5200
   11CHL1   H14  757   3.674   4.973   5.886  1.6580  1.0009 -0.9881
   11CHL1   C15  758   3.705   5.184   5.893 -0.1507 -0.0950  0.9508
   11CHL1  H15A  759   3.651   5.265   5.945 -0.3897  0.0529  0.4809
   11CHL1  H15B  760   3.808   5.155   5.922  0.1689 -1.4174 -1.2235
   11CHL1   C16  761   3.713   5.200   5.739  0.7362  0.6030  0.4365
   11CHL1  H16A  762   3.662   5.296   5.717 -1.5969 -0.6803 -0.1287
   11CHL1  H16B  763   3.813   5.174   5.696  1.5003 -0.2666  2.5882
   11CHL1   C17  764   3.613   5.087   5.682  0.2984 -0.3457  0.2653
   11CHL1   H17  765   3.671   4.993   5.666  1.5441  0.4254  0.0989
   11CHL1   C13  766   3.505   5.064   5.791 -0.3659  0.8271 -0.3998
   11CHL1   C18  767   3.409   5.186   5.806 -0.3869 -0.4517  0.3237
   11CHL1  H18A  768   3.341   5.198   5.719 -1.2745 -0.4046  1.0117
   11CHL1  H18B  769   3.340   5.173   5.892 -0.3362  0.3152  0.4879
   11CHL1  H18C  770   3.463   5.279   5.832 -1.2875  0.2516 -0.2423
   11CHL1   C12  771   3.430   4.929   5.792  0.0472 -0.6203 -0.4355
   11CHL1  H12A  772   3.351   4.921   5.714  1.4318 -0.3004 -1.9393
   11CHL1  H12B  773   3.506   4.852   5.770  1.6116  1.0092 -1.0176
   11CHL1   C11  774   3.375   4.906   5.927  0.7419  0.1205 -0.0803
   11CHL1  H11A  775   3.287   4.973   5.933  1.7990  1.6464 -1.1238
   11CHL1  H11B  776   3.335   4.802   5.928  0.2014  0.2102 -3.1931
   11CHL1    C9  777   3.474   4.905   6.048 -0.0182  0.1267 -0.1132
   11CHL1    H9  778   3.559   4.837   6.027 -0.7510 -1.4583  1.7680
   11CHL1   C10  779   3.417   4.866   6.188 -0.5821 -0.1357  0.0034
   11CHL1   C19  780   3.285   4.941   6.202  0.3838 -0.0501 -0.3222
   11CHL1  H19A  781   3.220   4.907   6.119 -1.1693 -2.0391  1.5923
   11CHL1  H19B  782   3.229   4.916   6.294 -0.4857  0.2846 -0.7540
   11CHL1  H19C  783   3.295   5.052   6.200  0.4663  0.0210  1.9189
   11CHL1    C1  784   3.410   4.712   6.200 -1.0236 -0.0256  0.5362
   11CHL1   H1A  785   3.347   4.666   6.121  1.5333  0.4560 -1.9150
   11CHL1   H1B  786   3.513   4.673   6.184 -1.1463  0.4306 -1.6535
   11CHL1    C2  787   3.366   4.663   6.341 -0.5708 -0.0796  0.6587
   11CHL1   H2A  788   3.357   4.552   6.344 -0.4485 -0.0636  2.6014
   11CHL1   H2B  789   3.266   4.712   6.350 -0.3746  1.1130 -2.4112
   11CHL1   C20  790   3.566   5.117   5.534 -0.0288 -0.0735  0.1424
   11CHL1   H20  791   3.473   5.175   5.553 -0.5911 -1.0603  0.4896
   11CHL1   C21  792   3.524   4.983   5.469 -0.0436  0.3713  0.1396
   11CHL1  H21A  793   3.469   4.991   5.373 -0.1091  0.5949  0.1937
   11CHL1  H21B  794   3.461   4.926   5.540 -1.8370  0.2286 -1.4748
   11CHL1  H21C  795   3.616   4.926   5.441  0.7960  2.0888 -0.7756
   11CHL1   C22  796   3.662   5.191   5.431 -0.3660  0.3039 -0.5266
   11CHL1  H22A  797   3.683   5.293   5.469 -0.5587 -0.4762  1.8165
   11CHL1  H22B  798   3.765   5.148   5.424 -0.3065  0.4164 -0.3539
   11CHL1   C23  799   3.600   5.222   5.294 -0.5822 -0.2605 -0.0492
   11CHL1  H23A  800   3.564   5.130   5.244 -0.3013 -0.1859 -0.3871
   11CHL1  H23B  801   3.513   5.290   5.308 -0.7128 -0.6926  1.4305
   11CHL1   C24  802   3.687   5.310   5.204 -0.1604 -0.3974 -0.2684
   11CHL1  H24A  803   3.726   5.391   5.270 -1.0035  0.8765 -1.2786
   11CHL1  H24B  804   3.773   5.249   5.167  0.7436  0.6111  0.1106
   11CHL1   C25  805   3.627   5.373   5.080 -0.1713 -0.7620 -0.0905
   11CHL1   H25  806   3.539   5.434   5.109 -0.5505 -0.8408 -1.0639
   11CHL1   C26  807   3.732   5.466   5.010  0.5004  0.1307 -0.1882
   11CHL1  H26A  808   3.702   5.505   4.910 -3.1195 -3.0201 -0.5770
   11CHL1  H26B  809   3.747   5.560   5.067 -2.5640  0.7230 -0.1791
   11CHL1  H26C  810   3.828   5.413   4.994 -0.1749 -0.6874 -1.8266
   11CHL1   C27  811   3.605   5.264   4.976  0.0727  0.5573 -0.6604
   11CHL1  H27A  812   3.532   5.185   5.005  0.9991 -0.9593 -2.2460
   11CHL1  H27B  813   3.574   5.302   4.876  2.0774 -0.2592 -1.6344
   11CHL1  H27C  814   3.700   5.210   4.958 -0.6971 -1.5451  1.1388
   12CHL1    C3  815   3.913   2.538   6.217  0.1114  0.0882 -1.3263
   12CHL1    H3  816   4.022   2.558   6.208  0.3151 -0.0489  0.4986
   12CHL1    O3  817   3.894   2.494   6.354 -0.0255  0.0012 -0.1399
   12CHL1   H3'  818   3.829   2.423   6.347 -0.3569  0.2984 -0.0719
   12CHL1    C4  819   3.837   2.670   6.189  0.5741  0.1335  0.7306
   12CHL1   H4A  820   3.736   2.626   6.198  0.7787 -0.1269  1.7967
   12CHL1   H4B  821   3.850   2.742   6.272 -0.6473 -1.4252  2.3269
   12CHL1    C5  822   3.858   2.724   6.052 -0.6337  0.0847  0.0050
   12CHL1    C6  823   3.906   2.847   6.035 -0.3202 -0.2913  0.3577
   12CHL1    H6  824   3.922   2.919   6.116  1.7336 -0.4840  0.1924
   12CHL1    C7  825   3.949   2.910   5.901 -0.7230  0.5871 -0.2774
   12CHL1   H7A  826   3.899   3.008   5.888  0.3830  1.1224 -0.5938
   12CHL1   H7B  827   4.059   2.918   5.893 -0.7168  1.3615  0.4591
   12CHL1    C8  828   3.895   2.820   5.781  0.0159 -0.0920 -0.1610
   12CHL1    H8  829   3.787   2.847   5.768  0.3453  0.6417 -1.5702
   12CHL1   C14  830   3.965   2.861   5.652  0.5122 -0.4031 -0.7511
   12CHL1   H14  831   4.071   2.838   5.675  0.0850  0.4010  2.4895
   12CHL1   C15  832   3.965   3.013   5.611  0.2585  0.0571  0.2053
   12CHL1  H15A  833   3.872   3.064   5.640 -0.5601 -1.6971  0.8342
   12CHL1  H15B  834   4.053   3.064   5.655  1.8359 -1.0310 -1.5024
   12CHL1   C16  835   3.987   3.009   5.455  0.6356 -0.1275 -0.5196
   12CHL1  H16A  836   3.904   3.060   5.402  0.6667  1.8100  1.1877
   12CHL1  H16B  837   4.079   3.069   5.436  1.7531 -0.7824  2.2771
   12CHL1   C17  838   3.994   2.862   5.413  0.3472  0.2133 -0.1752
   12CHL1   H17  839   4.097   2.822   5.402  0.0301 -0.4771 -0.7057
   12CHL1   C13  840   3.927   2.782   5.522 -0.0985 -0.6862 -0.4288
   12CHL1   C18  841   3.771   2.786   5.496 -0.0812  0.0749 -0.3349
   12CHL1  H18A  842   3.740   2.884   5.456  0.2499 -0.2389 -1.3922
   12CHL1  H18B  843   3.745   2.703   5.427  2.2324 -1.0284  0.0084
   12CHL1  H18C  844   3.713   2.765   5.588  0.1907 -0.4367 -0.2766
   12CHL1   C12  845   3.972   2.638   5.563  0.5626  0.1238 -0.0345
   12CHL1  H12A  846   3.959   2.562   5.483 -0.6335 -0.7002  0.9086
   12CHL1  H12B  847   4.080   2.631   5.586  0.3267 -0.7125  0.8881
   12CHL1   C11  848   3.897   2.584   5.682  0.4421  0.2500 -0.7560
   12CHL1  H11A  849   3.788   2.577   5.660  0.7243  2.0871 -3.1226
   12CHL1  H11B  850   3.938   2.482   5.702 -0.6666 -0.0818 -0.0530
   12CHL1    C9  851   3.914   2.671   5.810  0.5947  0.2936  0.3453
   12CHL1    H9  852   4.023   2.665   5.831  0.1743 -1.8879  2.2514
   12CHL1   C10  853   3.839   2.620   5.938  0.2997  0.6655 -0.9930
   12CHL1   C19  854   3.686   2.597   5.905 -0.0684  0.0763 -0.2407
   12CHL1  H19A  855   3.622   2.555   5.986 -1.6914  0.8293 -1.0752
   12CHL1  H19B  856   3.639   2.682   5.851  0.0913  0.2060 -0.1758
   12CHL1  H19C  857   3.690   2.513   5.833  0.5420  0.8335 -1.1221
   12CHL1    C1  858   3.918   2.490   5.972  0.5040  0.1853  0.1522
   12CHL1   H1A  859   3.897   2.417   5.891  0.9270  1.9875 -1.6704
   12CHL1   H1B  860   4.026   2.516   5.972  0.6269 -0.1328  2.5316
   12CHL1    C2  861   3.887   2.428   6.113  0.3102 -0.5007  0.3229
   12CHL1   H2A  862   3.948   2.338   6.136  1.0710  0.3897  1.9464
   12CHL1   H2B  863   3.782   2.390   6.113  0.6545 -1.5816 -1.7540
   12CHL1   C20  864   3.945   2.837   5.264 -0.5509 -0.9817 -0.3740
   12CHL1   H20  865   3.836   2.860   5.257  0.0812  2.2869 -1.0135
   12CHL1   C21  866   3.955   2.690   5.225 -0.8554  0.6218  0.6909
   12CHL1  H21A  867   3.911   2.624   5.303  1.9942 -2.4527 -0.0887
   12CHL1  H21B  868   4.064   2.669   5.216  0.3504  3.8765  4.3778
   12CHL1  H21C  869   3.905   2.674   5.128  0.2993 -0.1237  0.1971
   12CHL1   C22  870   4.025   2.922   5.168  0.3736  0.2144  0.1337
   12CHL1  H22A  871   4.008   3.028   5.193 -1.9419 -0.3168  1.0510
   12CHL1  H22B  872   4.132   2.913   5.196  0.8707  3.2262 -0.4833
   12CHL1   C23  873   3.997   2.910   5.018 -0.9066 -0.4761  0.0434
   12CHL1  H23A  874   4.029   2.808   4.989  1.3599  0.8898 -2.7596
   12CHL1  H23B  875   3.886   2.916   5.014 -0.9457 -1.2981 -0.2199
   12CHL1   C24  876   4.072   3.013   4.929 -0.4395  0.6027  0.4455
   12CHL1  H24A  877   4.040   3.119   4.937  0.0794  0.9536 -1.5443
   12CHL1  H24B  878   4.178   2.996   4.957 -0.8949 -2.7504  0.6154
   12CHL1   C25  879   4.061   2.983   4.779  0.2541  0.0838  0.0511
   12CHL1   H25  880   4.086   2.875   4.770  0.2469  0.1631 -1.0841
   12CHL1   C26  881   3.921   3.009   4.727  0.3682  0.2176  0.2040
   12CHL1  H26A  882   3.841   2.994   4.802 -1.6874 -0.9343 -2.0920
   12CHL1  H26B  883   3.919   3.117   4.702  0.1729  0.1483 -0.0743
   12CHL1  H26C  884   3.904   2.951   4.634  3.8913  1.1469 -1.2002
   12CHL1   C27  885   4.168   3.061   4.704  0.3117  0.2482 -0.1252
   12CHL1  H27A  886   4.183   3.164   4.743  0.7195  0.6956 -1.4084
   12CHL1  H27B  887   4.268   3.012   4.705 -0.3063 -1.0483 -0.5226
   12CHL1  H27C  888   4.146   3.063   4.595 -0.3710 -1.3603 -0.0424
   13CHL1    C3  889   3.981   1.260   6.201  0.8602  0.8370  0.9393
   13CHL1    H3  890   3.961   1.362   6.162  0.1162  1.0226  1.7860
   13CHL1    O3  891   4.025   1.266   6.334 -0.0673  0.4516 -0.1067
   13CHL1   H3'  892   4.032   1.174   6.358 -0.9635  0.0568 -1.2345
   13CHL1    C4  893   3.851   1.179   6.201  0.0961  0.5185  0.4461
   13CHL1   H4A  894   3.862   1.077   6.244  1.5072 -0.4710 -2.0892
   13CHL1   H4B  895   3.785   1.223   6.279  2.6714  0.4165  2.8576
   13CHL1    C5  896   3.795   1.169   6.063 -0.2740  0.2690  0.2666
   13CHL1    C6  897   3.678   1.221   6.032  0.2125  0.1955 -0.1811
   13CHL1    H6  898   3.627   1.265   6.120  1.3506 -1.1492  1.2068
   13CHL1    C7  899   3.605   1.222   5.904  0.0196  0.1563 -0.2820
   13CHL1   H7A  900   3.510   1.170   5.928 -1.3867  2.3628 -0.7581
   13CHL1   H7B  901   3.578   1.325   5.872 -3.7614 -1.2217 -2.1740
   13CHL1    C8  902   3.676   1.136   5.805  0.2825  0.2689  0.8691
   13CHL1    H8  903   3.648   1.032   5.832 -1.3797  0.5675  0.4402
   13CHL1   C14  904   3.619   1.148   5.663 -0.0325 -0.2569 -0.0980
   13CHL1   H14  905   3.631   1.255   5.638 -2.7526  0.1290 -0.0409
   13CHL1   C15  906   3.469   1.111   5.638  0.7253  0.3833  0.4379
   13CHL1  H15A  907   3.442   1.009   5.672 -1.3230 -0.0526 -2.2103
   13CHL1  H15B  908   3.414   1.190   5.693  0.2641  1.0025 -0.8679
   13CHL1   C16  909   3.462   1.114   5.488 -0.2706  0.2227  0.0708
   13CHL1  H16A  910   3.397   1.026   5.468 -2.4216  1.7311  0.1094
   13CHL1  H16B  911   3.434   1.212   5.444  3.4219  0.6780 -1.5812
   13CHL1   C17  912   3.611   1.102   5.423 -0.0353  0.1986 -0.5142
   13CHL1   H17  913   3.629   1.211   5.406 -2.6620  1.1114  1.7783
   13CHL1   C13  914   3.692   1.075   5.551 -0.7691  0.0473  0.8906
   13CHL1   C18  915   3.679   0.925   5.586 -0.2031 -0.0587  0.1883
   13CHL1  H18A  916   3.754   0.863   5.533  0.3824  0.8872 -0.1106
   13CHL1  H18B  917   3.698   0.909   5.695  1.0549  1.0783  0.1675
   13CHL1  H18C  918   3.575   0.887   5.574 -1.0196  2.0838  0.0099
   13CHL1   C12  919   3.838   1.130   5.554  0.2926  0.5796 -0.4948
   13CHL1  H12A  920   3.897   1.077   5.476 -0.9085 -1.2487 -0.2297
   13CHL1  H12B  921   3.829   1.238   5.530  0.9389  1.4030  2.5516
   13CHL1   C11  922   3.903   1.100   5.695 -0.5705 -0.4170 -0.8168
   13CHL1  H11A  923   3.932   0.993   5.705 -0.6247 -0.4376 -0.8792
   13CHL1  H11B  924   4.005   1.143   5.705 -0.5380 -0.9364  1.5241
   13CHL1    C9  925   3.829   1.157   5.811  0.3351 -0.0646 -0.1605
   13CHL1    H9  926   3.838   1.266   5.796  1.6585 -0.1385 -0.0055
   13CHL1   C10  927   3.887   1.123   5.956 -0.1482 -0.0777 -0.2309
   13CHL1   C19  928   3.887   0.972   5.975 -0.3513  0.0118 -0.2299
   13CHL1  H19A  929   3.789   0.923   5.957  0.7902 -2.0995 -1.1237
   13CHL1  H19B  930   3.959   0.923   5.905  1.7294  0.7317  1.3011
   13CHL1  H19C  931   3.915   0.951   6.080  0.6320  0.6606 -0.3404
   13CHL1    C1  932   4.028   1.184   5.966 -0.3353 -0.8905 -0.2819
   13CHL1   H1A  933   4.098   1.141   5.891 -2.8884  0.5776 -3.7766
   13CHL1   H1B  934   4.014   1.292   5.943 -1.5284 -0.6422  1.4437
   13CHL1    C2  935   4.084   1.188   6.110 -0.0283  0.1152  0.3310
   13CHL1   H2A  936   4.179   1.245   6.097 -0.2354  0.1526 -1.3402
   13CHL1   H2B  937   4.111   1.084   6.137  0.7551  0.6032  1.5403
   13CHL1   C20  938   3.618   1.014   5.301  0.1901 -0.5739  0.1271
   13CHL1   H20  939   3.580   0.912   5.326 -2.7503  0.7333  1.4711
   13CHL1   C21  940   3.763   1.004   5.247 -0.9076  0.4605 -0.4323
   13CHL1  H21A  941   3.829   0.948   5.317 -0.1333  1.0765 -0.6620
   13CHL1  H21B  942   3.807   1.103   5.221 -1.9242  1.3698  1.1242
   13CHL1  H21C  943   3.750   0.949   5.152  0.2948  1.7576 -1.3889
   13CHL1   C22  944   3.539   1.082   5.196  1.1557  0.5014  0.2865
   13CHL1  H22A  945   3.448   1.135   5.231 -2.4592 -3.4603 -2.0726
   13CHL1  H22B  946   3.608   1.152   5.144  0.7459  0.0831 -0.8653
   13CHL1   C23  947   3.476   0.983   5.096 -0.1975 -0.2602  0.0218
   13CHL1  H23A  948   3.557   0.924   5.049 -0.4275 -0.1120 -0.5687
   13CHL1  H23B  949   3.408   0.918   5.156 -1.4573  0.6457 -0.3702
   13CHL1   C24  950   3.404   1.070   4.986  1.6873  0.9467  0.8026
   13CHL1  H24A  951   3.323   1.127   5.036 -0.1759 -0.8243 -0.0779
   13CHL1  H24B  952   3.466   1.140   4.926 -0.4268  1.1313 -1.2812
   13CHL1   C25  953   3.347   0.977   4.874 -0.2271  1.1815  0.0525
   13CHL1   H25  954   3.434   0.923   4.830  0.4971  0.1546  2.5842
   13CHL1   C26  955   3.265   0.857   4.930  0.0107 -0.3519  0.2710
   13CHL1  H26A  956   3.338   0.784   4.972  0.0986  1.1426  2.9169
   13CHL1  H26B  957   3.190   0.870   5.011  1.6757  0.1001  1.8081
   13CHL1  H26C  958   3.202   0.811   4.851  1.1501 -0.1236 -0.7941
   13CHL1   C27  959   3.281   1.056   4.760  0.6219  0.0392  0.3039
   13CHL1  H27A  960   3.265   0.996   4.667 -0.6935  1.2726 -0.3142
   13CHL1  H27B  961   3.187   1.104   4.796 -1.0050 -3.4653  1.1079
   13CHL1  H27C  962   3.344   1.140   4.723 -1.3602  0.5390 -2.3145
   14CHL1    C3  963   2.177   0.702   2.449 -0.6434  0.9299  0.9216
   14CHL1    H3  964   2.148   0.598   2.478 -1.1241  0.7731 -0.0952
   14CHL1    O3  965   2.174   0.713   2.309  0.1989 -0.4219  0.0444
   14CHL1   H3'  966   2.190   0.805   2.286 -0.0436 -0.5636 -0.7238
   14CHL1    C4  967   2.066   0.804   2.497 -0.0677  0.7050 -0.3207
   14CHL1   H4A  968   2.068   0.897   2.436  0.1710 -0.3756 -2.0648
   14CHL1   H4B  969   1.971   0.750   2.477 -0.2193  1.1500 -0.8306
   14CHL1    C5  970   2.067   0.843   2.647 -0.3531  0.0745 -0.1830
   14CHL1    C6  971   1.961   0.829   2.725  0.0594 -0.0610  1.3281
   14CHL1    H6  972   1.869   0.809   2.668  1.1461 -2.5934  0.2867
   14CHL1    C7  973   1.942   0.865   2.870 -0.8543 -0.7868 -0.3570
   14CHL1   H7A  974   1.854   0.930   2.893  0.9272  1.4209  0.5313
   14CHL1   H7B  975   1.936   0.765   2.918 -2.0855 -0.1268  0.9283
   14CHL1    C8  976   2.073   0.931   2.916 -0.4254  1.1639  0.6731
   14CHL1    H8  977   2.072   1.034   2.874 -0.1777  0.8039 -0.2440
   14CHL1   C14  978   2.075   0.928   3.066 -0.3133  0.0960 -1.0400
   14CHL1   H14  979   2.080   0.819   3.090  1.2450  0.4966  0.6740
   14CHL1   C15  980   1.961   0.997   3.146  0.1114  0.0715 -0.6184
   14CHL1  H15A  981   1.932   1.090   3.092 -0.1071  0.5243  0.2605
   14CHL1  H15B  982   1.862   0.947   3.148 -0.0265  0.3622  0.0511
   14CHL1   C16  983   2.005   1.018   3.294  0.2867  0.4386  0.4287
   14CHL1  H16A  984   1.992   1.120   3.334  2.2295  0.3587  1.3620
   14CHL1  H16B  985   1.953   0.945   3.361  1.5169 -1.4661 -0.5845
   14CHL1   C17  986   2.157   0.985   3.286 -0.8344 -0.5303 -0.3262
   14CHL1   H17  987   2.171   0.876   3.303  1.7795  0.1564  3.3260
   14CHL1   C13  988   2.200   0.993   3.132  1.3523 -0.2303 -0.7114
   14CHL1   C18  989   2.214   1.141   3.088 -0.5014  0.4405 -0.4825
   14CHL1  H18A  990   2.216   1.146   2.977 -0.3543  2.0046 -0.4371
   14CHL1  H18B  991   2.128   1.199   3.129 -0.8468 -1.7531  2.2467
   14CHL1  H18C  992   2.313   1.178   3.123 -0.9590  2.3633 -1.1174
   14CHL1   C12  993   2.321   0.910   3.087 -0.1939 -0.8736  0.4731
   14CHL1  H12A  994   2.417   0.945   3.128 -1.2394  2.2301  0.5235
   14CHL1  H12B  995   2.309   0.803   3.114 -0.3240 -0.7663  0.8483
   14CHL1   C11  996   2.333   0.914   2.933 -0.0344 -0.7066 -0.4503
   14CHL1  H11A  997   2.360   1.015   2.896 -1.3847 -0.3174 -0.4144
   14CHL1  H11B  998   2.422   0.851   2.911  0.9799 -0.4620  2.4555
   14CHL1    C9  999   2.202   0.865   2.855  0.0891  0.1462  0.6341
   14CHL1    H9 1000   2.192   0.757   2.880 -0.8934  0.4319  1.5563
   14CHL1   C10 1001   2.201   0.875   2.700 -0.0980  0.4366  0.1715
   14CHL1   C19 1002   2.228   1.018   2.647  0.2071 -0.0682 -0.7165
   14CHL1  H19A 1003   2.190   1.034   2.543 -2.3231 -2.3817 -0.2603
   14CHL1  H19B 1004   2.188   1.097   2.715  0.4229  0.3079 -1.0186
   14CHL1  H19C 1005   2.337   1.035   2.659 -0.2846  2.2046  1.4412
   14CHL1    C1 1006   2.303   0.775   2.655 -0.8849  0.0007 -0.7787
   14CHL1   H1A 1007   2.401   0.821   2.678  0.0100 -0.0984 -3.9857
   14CHL1   H1B 1008   2.289   0.679   2.708 -0.6601  0.1066 -0.5249
   14CHL1    C2 1009   2.311   0.746   2.500 -0.2481  0.0736  0.0920
   14CHL1   H2A 1010   2.404   0.688   2.480  0.8689  1.8675 -0.0679
   14CHL1   H2B 1011   2.332   0.838   2.442  2.7797 -1.0676 -0.8568
   14CHL1   C20 1012   2.251   1.062   3.385 -0.3207 -0.0807  0.7661
   14CHL1   H20 1013   2.294   1.154   3.338 -1.7013  0.8382  1.2719
   14CHL1   C21 1014   2.365   0.970   3.427 -0.7855 -0.0323 -0.0921
   14CHL1  H21A 1015   2.319   0.878   3.469  0.3315 -1.1958 -1.3490
   14CHL1  H21B 1016   2.436   1.023   3.495  0.6731 -1.4970 -0.3980
   14CHL1  H21C 1017   2.427   0.938   3.341  0.6260  0.4892  0.6913
   14CHL1   C22 1018   2.178   1.113   3.512 -0.4975  0.5688  0.1493
   14CHL1  H22A 1019   2.250   1.169   3.575  2.4923 -0.8110 -1.8250
   14CHL1  H22B 1020   2.105   1.189   3.475 -0.0927 -0.2367 -2.5409
   14CHL1   C23 1021   2.117   1.001   3.592  0.1872  0.7612 -0.4197
   14CHL1  H23A 1022   2.050   0.926   3.543 -0.5289  2.2564 -1.8527
   14CHL1  H23B 1023   2.198   0.941   3.638  0.3900  0.5004 -1.1073
   14CHL1   C24 1024   2.046   1.057   3.719  0.7435 -0.2404  0.2217
   14CHL1  H24A 1025   2.090   1.156   3.747  1.0403  0.2555 -1.8194
   14CHL1  H24B 1026   1.935   1.055   3.715  0.7496 -2.2177  0.2735
   14CHL1   C25 1027   2.056   0.963   3.849  0.4000 -0.8787 -0.3208
   14CHL1   H25 1028   2.040   0.857   3.820  4.6634 -1.6321 -0.5609
   14CHL1   C26 1029   2.193   0.969   3.909 -0.3989 -0.2033 -0.0529
   14CHL1  H26A 1030   2.253   0.911   3.836  0.4743  0.1669  0.3486
   14CHL1  H26B 1031   2.230   1.073   3.914  1.7879 -0.8399 -1.5773
   14CHL1  H26C 1032   2.197   0.919   4.009 -0.8978 -0.3805 -0.1181
   14CHL1   C27 1033   1.943   0.997   3.944 -0.0280 -0.2212 -0.1853
   14CHL1  H27A 1034   1.851   0.945   3.910 -0.4317  1.0762 -1.1428
   14CHL1  H27B 1035   1.959   0.954   4.045  0.2873  0.4408  0.0500
   14CHL1  H27C 1036   1.924   1.106   3.955 -1.1102 -0.4061 -0.1233
   15CHL1    C3 1037   0.731   0.598   5.672  0.1118  0.1900 -0.5678
   15CHL1    H3 1038   0.677   0.508   5.709 -0.3253  0.2341 -1.0896
   15CHL1    O3 1039   0.800   0.656   5.785  0.4589 -0.2183  0.0139
   15CHL1   H3' 1040   0.890   0.670   5.756  0.0704 -0.0333 -1.1652
   15CHL1    C4 1041   0.835   0.566   5.570 -0.3914 -0.0638 -0.0328
   15CHL1   H4A 1042   0.896   0.659   5.558 -0.7002 -0.0502 -1.6655
   15CHL1   H4B 1043   0.907   0.495   5.615  0.6793  0.1226 -1.3898
   15CHL1    C5 1044   0.782   0.527   5.433 -0.0483  0.5724  0.6417
   15CHL1    C6 1045   0.805   0.404   5.387 -0.0474 -0.0453  0.6186
   15CHL1    H6 1046   0.878   0.339   5.439  1.0812 -1.1411 -2.1241
   15CHL1    C7 1047   0.754   0.362   5.252  0.0982 -0.0890  0.3557
   15CHL1   H7A 1048   0.833   0.316   5.190  0.5203 -0.3230  1.0541
   15CHL1   H7B 1049   0.671   0.288   5.264 -2.7333  2.8180  0.2598
   15CHL1    C8 1050   0.692   0.476   5.159 -0.2267  0.1319  0.4831
   15CHL1    H8 1051   0.768   0.537   5.105 -0.5263 -0.5728 -0.7732
   15CHL1   C14 1052   0.605   0.418   5.046 -0.1011  0.2982 -0.6371
   15CHL1   H14 1053   0.533   0.350   5.095 -1.6252  2.2907  0.0451
   15CHL1   C15 1054   0.670   0.336   4.935 -0.4635  1.0836  0.0432
   15CHL1  H15A 1055   0.763   0.377   4.890  1.3914 -1.1333  1.6228
   15CHL1  H15B 1056   0.687   0.236   4.981 -2.6042  0.9722  0.6841
   15CHL1   C16 1057   0.571   0.318   4.828  0.4616 -0.5163 -0.6254
   15CHL1  H16A 1058   0.617   0.347   4.731  0.7956 -2.2749 -1.0282
   15CHL1  H16B 1059   0.524   0.217   4.835 -1.1189  0.2787  1.4677
   15CHL1   C17 1060   0.456   0.424   4.865  0.7397  0.3318  0.2572
   15CHL1   H17 1061   0.380   0.360   4.914 -0.7229  1.5895 -0.2738
   15CHL1   C13 1062   0.514   0.519   4.974 -0.7435 -0.0011  0.8743
   15CHL1   C18 1063   0.604   0.615   4.886  0.5503 -0.1952 -0.3736
   15CHL1  H18A 1064   0.669   0.672   4.957 -0.3714  0.3572  0.0422
   15CHL1  H18B 1065   0.668   0.555   4.818  2.6391 -0.0678  1.3721
   15CHL1  H18C 1066   0.538   0.685   4.830 -0.2784 -0.7309 -0.0854
   15CHL1   C12 1067   0.429   0.591   5.071  0.4583 -0.2982 -0.6285
   15CHL1  H12A 1068   0.364   0.662   5.015  1.9117  2.0405  0.5261
   15CHL1  H12B 1069   0.363   0.518   5.124 -0.5579  0.9172 -0.1785
   15CHL1   C11 1070   0.508   0.662   5.183  0.2845  0.3058 -0.0816
   15CHL1  H11A 1071   0.566   0.740   5.131  1.9936 -1.6160 -1.2086
   15CHL1  H11B 1072   0.442   0.713   5.257  0.5758  1.2496 -0.4654
   15CHL1    C9 1073   0.598   0.561   5.256 -0.0727 -0.2201 -0.2180
   15CHL1    H9 1074   0.538   0.482   5.305  1.2244  0.0431  1.9084
   15CHL1   C10 1075   0.685   0.625   5.370 -0.0524 -0.1886  1.1105
   15CHL1   C19 1076   0.772   0.744   5.320  0.2376 -0.8685 -0.6211
   15CHL1  H19A 1077   0.700   0.816   5.275 -0.1279 -0.5384  0.4570
   15CHL1  H19B 1078   0.822   0.795   5.405 -0.1034  0.7454 -1.3358
   15CHL1  H19C 1079   0.843   0.712   5.242  0.4895 -0.7798 -0.4284
   15CHL1    C1 1080   0.582   0.670   5.476 -0.3255  0.3418 -0.0681
   15CHL1   H1A 1081   0.520   0.755   5.441 -1.6301 -0.5078  0.1070
   15CHL1   H1B 1082   0.510   0.588   5.498 -0.0476  0.4176  1.2511
   15CHL1    C2 1083   0.640   0.712   5.613 -0.7360  0.3781 -0.6964
   15CHL1   H2A 1084   0.566   0.731   5.694  2.5029  0.8534  2.4206
   15CHL1   H2B 1085   0.697   0.805   5.594  2.9311 -1.7889 -1.3322
   15CHL1   C20 1086   0.391   0.483   4.739 -0.7078  0.1999 -0.3122
   15CHL1   H20 1087   0.444   0.566   4.688 -0.1860 -0.0435 -0.1658
   15CHL1   C21 1088   0.249   0.530   4.781 -0.3116 -0.3474  1.2238
   15CHL1  H21A 1089   0.253   0.599   4.869  0.4022  1.9164 -0.5000
   15CHL1  H21B 1090   0.179   0.445   4.800 -1.6880  0.6062  0.6397
   15CHL1  H21C 1091   0.212   0.596   4.700 -0.0419  0.2195  1.5556
   15CHL1   C22 1092   0.365   0.374   4.628  0.2249  0.0184 -1.3154
   15CHL1  H22A 1093   0.461   0.359   4.575  0.9236 -2.3375  0.4561
   15CHL1  H22B 1094   0.331   0.282   4.680 -0.6979  1.6117  1.0645
   15CHL1   C23 1095   0.258   0.393   4.528 -0.1919  0.1691  0.3030
   15CHL1  H23A 1096   0.162   0.398   4.583 -0.2949 -3.8805  0.7834
   15CHL1  H23B 1097   0.288   0.489   4.481  0.6770  0.8302  2.1145
   15CHL1   C24 1098   0.261   0.270   4.425 -0.3771 -0.9719 -0.0845
   15CHL1  H24A 1099   0.339   0.293   4.350 -0.7520 -0.2394 -0.2552
   15CHL1  H24B 1100   0.286   0.182   4.488  2.8850  1.5619  2.5728
   15CHL1   C25 1101   0.121   0.256   4.360  0.4724 -0.0078  0.8412
   15CHL1   H25 1102   0.106   0.343   4.293 -0.3160 -0.0562  0.9412
   15CHL1   C26 1103   0.119   0.129   4.269 -0.2899  0.3076  0.5201
   15CHL1  H26A 1104   0.170   0.044   4.317 -0.2325 -0.3715 -0.6892
   15CHL1  H26B 1105   0.026   0.099   4.214  0.1592 -0.1159 -0.0213
   15CHL1  H26C 1106   0.198   0.143   4.193 -1.5634 -2.7592 -1.5823
   15CHL1   C27 1107   0.001   0.247   4.458  0.4984  0.3151 -0.5365
   15CHL1  H27A 1108   0.015   0.163   4.529 -2.9950  0.5100  0.5598
   15CHL1  H27B 1109  -0.019   0.342   4.512 -0.2208  1.3603 -2.5250
   15CHL1  H27C 1110  -0.092   0.214   4.407  0.4912 -0.7904  0.1591
   16CHL1    C3 1111   1.888   3.117   6.412  0.3881  0.1544  0.6926
   16CHL1    H3 1112   1.999   3.112   6.408  0.4464 -0.3278  2.1919
   16CHL1    O3 1113   1.849   3.100   6.543 -0.0726  0.3114 -0.6975
   16CHL1   H3' 1114   1.817   3.182   6.581  0.1652  1.0116 -1.9798
   16CHL1    C4 1115   1.826   3.245   6.354  0.5577  0.4708 -0.2190
   16CHL1   H4A 1116   1.717   3.226   6.367  0.9982 -2.5737 -0.1121
   16CHL1   H4B 1117   1.847   3.327   6.426 -0.3431 -0.9365  1.7289
   16CHL1    C5 1118   1.863   3.272   6.211 -0.1887  0.3462  0.6665
   16CHL1    C6 1119   1.936   3.380   6.168  0.1359 -0.0494  0.2253
   16CHL1    H6 1120   1.970   3.463   6.232 -1.0557 -0.6317  1.6743
   16CHL1    C7 1121   1.975   3.394   6.024  0.1352 -1.0991 -0.7064
   16CHL1   H7A 1122   1.962   3.498   5.986  0.1278 -0.2743  1.4403
   16CHL1   H7B 1123   2.086   3.390   6.016  0.1589  0.2275 -1.4115
   16CHL1    C8 1124   1.904   3.293   5.930  0.3660 -0.6577  0.6618
   16CHL1    H8 1125   1.796   3.316   5.918  1.0601  3.3232  0.6691
   16CHL1   C14 1126   1.979   3.295   5.795 -0.7782  0.1468  0.1731
   16CHL1   H14 1127   2.085   3.285   5.828 -0.7054  0.7386  0.1399
   16CHL1   C15 1128   1.975   3.425   5.714 -0.4273  0.1502  0.7867
   16CHL1  H15A 1129   1.878   3.477   5.731  0.5095  2.3718 -0.2227
   16CHL1  H15B 1130   2.049   3.502   5.743 -2.2889  1.8487  1.2562
   16CHL1   C16 1131   2.004   3.379   5.566  0.2383 -0.2800 -0.6835
   16CHL1  H16A 1132   1.909   3.401   5.512 -0.3611 -1.8870 -0.3430
   16CHL1  H16B 1133   2.089   3.435   5.520  0.9093  0.5131  1.4156
   16CHL1   C17 1134   2.024   3.225   5.573  0.3661  0.5400  0.5388
   16CHL1   H17 1135   2.133   3.214   5.592  0.3000 -0.8448  0.1923
   16CHL1   C13 1136   1.952   3.188   5.694 -0.3692  0.3845 -0.0382
   16CHL1   C18 1137   1.795   3.186   5.660 -0.5656 -0.3750 -0.0185
   16CHL1  H18A 1138   1.764   3.094   5.605  1.0951 -0.5273 -0.7737
   16CHL1  H18B 1139   1.734   3.183   5.753 -0.9019 -1.0549 -0.2492
   16CHL1  H18C 1140   1.767   3.278   5.605  2.7552  0.7336 -0.0500
   16CHL1   C12 1141   1.989   3.051   5.764 -0.2590  0.1115  0.4971
   16CHL1  H12A 1142   1.970   2.974   5.686  1.3387  0.8852 -0.7221
   16CHL1  H12B 1143   2.094   3.063   5.797 -0.4017 -1.6613  1.7016
   16CHL1   C11 1144   1.910   3.030   5.893  0.7802  0.1496 -0.2032
   16CHL1  H11A 1145   1.804   3.002   5.871  0.5798 -0.7323  1.6296
   16CHL1  H11B 1146   1.947   2.937   5.942  0.7550  0.7112  0.9141
   16CHL1    C9 1147   1.921   3.148   5.993  0.1494 -0.3291 -0.3607
   16CHL1    H9 1148   2.027   3.139   6.023  0.3867  0.3042 -0.9581
   16CHL1   C10 1149   1.833   3.143   6.124  0.5338 -0.3292  0.3251
   16CHL1   C19 1150   1.685   3.149   6.101 -0.1019 -0.3439  1.3741
   16CHL1  H19A 1151   1.653   3.064   6.037 -0.0071  0.4609  0.2250
   16CHL1  H19B 1152   1.621   3.136   6.191 -1.9023 -1.6080 -0.0112
   16CHL1  H19C 1153   1.652   3.247   6.062  2.7860  1.0582  2.1937
   16CHL1    C1 1154   1.865   3.004   6.192 -0.4924 -0.6462 -0.4800
   16CHL1   H1A 1155   1.831   2.914   6.137  0.4896 -0.5614 -1.2452
   16CHL1   H1B 1156   1.976   3.008   6.184 -0.5647  0.0445 -1.4112
   16CHL1    C2 1157   1.824   2.999   6.338  0.2348  0.3260  0.4683
   16CHL1   H2A 1158   1.864   2.907   6.386 -1.0638  0.3145  1.5926
   16CHL1   H2B 1159   1.714   2.993   6.349 -0.0351  2.5858 -0.5700
   16CHL1   C20 1160   1.996   3.144   5.446  0.5613 -0.7188  0.2016
   16CHL1   H20 1161   1.936   3.052   5.466 -0.9855  0.2456  0.1613
   16CHL1   C21 1162   2.133   3.106   5.391 -0.3135  0.6887  0.3716
   16CHL1  H21A 1163   2.190   3.200   5.368  1.5538 -0.9573 -2.4839
   16CHL1  H21B 1164   2.120   3.039   5.303  0.1782 -0.0645  0.8589
   16CHL1  H21C 1165   2.197   3.045   5.459 -0.5404  0.0563  0.0243
   16CHL1   C22 1166   1.912   3.204   5.328  0.5561 -0.2272  0.0571
   16CHL1  H22A 1167   1.819   3.223   5.386  1.5502 -1.0896  2.0388
   16CHL1  H22B 1168   1.959   3.301   5.302 -0.9104  0.1191 -1.4554
   16CHL1   C23 1169   1.889   3.123   5.203  0.3438  0.6277  0.1444
   16CHL1  H23A 1170   1.858   3.195   5.124  0.0430  1.1658  0.7468
   16CHL1  H23B 1171   1.985   3.080   5.166 -0.1710 -0.4076 -0.0259
   16CHL1   C24 1172   1.780   3.015   5.246  0.1664  0.1217 -0.0301
   16CHL1  H24A 1173   1.825   2.947   5.321 -0.5299 -0.8617 -0.4834
   16CHL1  H24B 1174   1.694   3.072   5.288 -0.9603 -0.9950 -0.7756
   16CHL1   C25 1175   1.711   2.938   5.129 -0.3670 -0.3370 -0.0482
   16CHL1   H25 1176   1.801   2.892   5.081  0.0235  2.0151 -1.7369
   16CHL1   C26 1177   1.625   2.827   5.185  0.4491  0.0534 -0.0116
   16CHL1  H26A 1178   1.532   2.867   5.231  1.7867  0.8741  2.0818
   16CHL1  H26B 1179   1.595   2.751   5.110  0.7566 -1.1095  1.0178
   16CHL1  H26C 1180   1.681   2.775   5.265 -0.9021  0.0120  0.9322
   16CHL1   C27 1181   1.639   3.024   5.022  0.0184  0.0873 -0.2721
   16CHL1  H27A 1182   1.607   2.969   4.931  4.3413 -1.2866 -1.2078
   16CHL1  H27B 1183   1.550   3.079   5.060  0.2558  0.9947 -1.0035
   16CHL1  H27C 1184   1.714   3.094   4.980  1.6287 -0.5174  1.4475
   17CHL1    C3 1185   2.993   2.126   6.513  0.3085  0.3231 -0.3516
   17CHL1    H3 1186   3.102   2.108   6.503  0.3251  1.0732 -1.6745
   17CHL1    O3 1187   2.954   2.136   6.653 -0.0857  0.1375  0.3314
   17CHL1   H3' 1188   2.859   2.146   6.645 -0.1108 -0.7674 -0.7078
   17CHL1    C4 1189   2.943   2.251   6.439 -0.7969  0.5676  0.4684
   17CHL1   H4A 1190   2.834   2.252   6.459 -0.2550 -0.5761  4.2891
   17CHL1   H4B 1191   2.985   2.344   6.484  0.0435  0.2562  0.3591
   17CHL1    C5 1192   2.982   2.237   6.296 -0.0778  0.6647  0.1610
   17CHL1    C6 1193   3.046   2.339   6.237 -0.4719 -0.2845 -0.1100
   17CHL1    H6 1194   3.079   2.428   6.293 -0.5408  0.8241 -1.7571
   17CHL1    C7 1195   3.076   2.337   6.092  0.0842 -0.7752  0.3286
   17CHL1   H7A 1196   3.042   2.433   6.048  0.6871  0.1252  1.7755
   17CHL1   H7B 1197   3.184   2.310   6.087  0.3364  0.0075  1.4257
   17CHL1    C8 1198   3.005   2.226   6.012 -0.3268 -0.0448 -0.0602
   17CHL1    H8 1199   2.899   2.254   5.997  0.0721  1.6108  0.0389
   17CHL1   C14 1200   3.063   2.208   5.872 -0.0332  0.5443  0.0257
   17CHL1   H14 1201   3.169   2.181   5.893 -0.3089  0.4640  1.3856
   17CHL1   C15 1202   3.075   2.333   5.783  0.3517 -0.3157  0.3709
   17CHL1  H15A 1203   2.979   2.385   5.804  0.4859  0.6075 -1.1846
   17CHL1  H15B 1204   3.159   2.399   5.814 -0.0781  0.0043  0.8719
   17CHL1   C16 1205   3.075   2.284   5.640  0.1743  0.3451 -0.2766
   17CHL1  H16A 1206   2.981   2.322   5.594  0.0361  2.1184  1.3512
   17CHL1  H16B 1207   3.161   2.329   5.586  0.0931  1.0980  0.2096
   17CHL1   C17 1208   3.085   2.128   5.657 -0.1155  0.6108 -1.1886
   17CHL1   H17 1209   3.191   2.108   5.682 -0.1522  0.2115 -1.3482
   17CHL1   C13 1210   3.002   2.102   5.783  0.0543  0.3726  0.1779
   17CHL1   C18 1211   2.851   2.120   5.752 -0.9829  0.2357  0.1824
   17CHL1  H18A 1212   2.791   2.135   5.844  0.2846  1.0535  0.9030
   17CHL1  H18B 1213   2.835   2.200   5.675 -0.1067  0.3236  0.0835
   17CHL1  H18C 1214   2.814   2.022   5.715 -1.2404  0.5473 -0.4163
   17CHL1   C12 1215   3.023   1.968   5.863  0.4259  0.1575  0.3095
   17CHL1  H12A 1216   2.978   1.882   5.809  0.4931 -0.0142  0.5224
   17CHL1  H12B 1217   3.132   1.949   5.874  0.4534 -0.5309 -1.0392
   17CHL1   C11 1218   2.969   1.976   6.002 -0.0212 -0.3794 -0.1529
   17CHL1  H11A 1219   2.857   1.978   6.002 -0.2157 -3.7090  2.1634
   17CHL1  H11B 1220   2.994   1.881   6.054 -2.6721 -1.7150 -1.1212
   17CHL1    C9 1221   3.016   2.092   6.090  0.7319 -0.3641 -0.2313
   17CHL1    H9 1222   3.125   2.086   6.110  0.8945  0.3791 -0.8501
   17CHL1   C10 1223   2.936   2.105   6.228  0.4156 -0.3255  0.6672
   17CHL1   C19 1224   2.777   2.113   6.202  1.1251 -0.4719  0.2050
   17CHL1  H19A 1225   2.726   2.027   6.154  2.4154 -0.9047 -0.4580
   17CHL1  H19B 1226   2.727   2.119   6.301  1.8068 -1.6973  0.6434
   17CHL1  H19C 1227   2.752   2.206   6.147 -2.4548 -0.9177  0.8354
   17CHL1    C1 1228   2.974   1.986   6.313 -0.0346 -0.2108 -0.1095
   17CHL1   H1A 1229   2.933   1.899   6.257  0.6049 -1.5770  1.4402
   17CHL1   H1B 1230   3.085   1.991   6.317 -0.1142  1.5085  1.6179
   17CHL1    C2 1231   2.921   1.998   6.458 -0.2214  0.3710  0.1165
   17CHL1   H2A 1232   2.962   1.909   6.510  1.1425  0.2063 -1.1866
   17CHL1   H2B 1233   2.810   1.990   6.465 -0.2946  1.3487  0.2769
   17CHL1   C20 1234   3.046   2.048   5.536 -0.5530 -0.3176  0.2177
   17CHL1   H20 1235   2.936   2.034   5.531 -0.7348  1.2295 -1.3018
   17CHL1   C21 1236   3.105   1.901   5.547  0.3568 -0.4291  1.5982
   17CHL1  H21A 1237   3.095   1.836   5.457 -1.9881  0.2924  1.2664
   17CHL1  H21B 1238   3.036   1.847   5.615  0.9314 -1.1936  1.5885
   17CHL1  H21C 1239   3.211   1.898   5.579  0.7822 -0.7879  0.2293
   17CHL1   C22 1240   3.093   2.107   5.403  0.5736 -0.7219 -0.1720
   17CHL1  H22A 1241   3.075   2.217   5.396 -1.8618 -0.9770  1.1742
   17CHL1  H22B 1242   3.204   2.099   5.391  0.7816  2.0539 -0.8196
   17CHL1   C23 1243   2.997   2.053   5.291 -0.2835 -0.7309  0.2149
   17CHL1  H23A 1244   3.013   1.944   5.283 -1.1230 -0.7726 -1.3464
   17CHL1  H23B 1245   2.894   2.068   5.328 -0.3866 -0.1748 -0.2671
   17CHL1   C24 1246   3.015   2.119   5.153  0.1431 -0.0658 -0.4376
   17CHL1  H24A 1247   2.965   2.217   5.172  0.5552 -0.2557  1.9857
   17CHL1  H24B 1248   3.125   2.129   5.150  0.3514 -1.4939  1.1980
   17CHL1   C25 1249   2.968   2.027   5.042  0.2776  0.5010 -0.4390
   17CHL1   H25 1250   3.022   1.930   5.040  1.4506  1.1360 -1.9083
   17CHL1   C26 1251   2.822   1.989   5.058 -0.1916 -0.6087  0.4594
   17CHL1  H26A 1252   2.779   2.090   5.074  2.2797  0.4186  1.1052
   17CHL1  H26B 1253   2.779   1.932   4.972  1.4297 -1.2495  0.0265
   17CHL1  H26C 1254   2.805   1.913   5.138 -1.8816 -1.0951 -0.3123
   17CHL1   C27 1255   2.989   2.090   4.906 -0.1146 -0.2738  0.2731
   17CHL1  H27A 1256   3.099   2.100   4.891  0.1137  2.0346  2.7225
   17CHL1  H27B 1257   2.949   2.021   4.829 -0.8717 -0.1290  0.5230
   17CHL1  H27C 1258   2.939   2.189   4.901 -1.1795 -0.8422 -0.9873
   18CHL1    C3 1259   2.056   2.642   6.222  0.0583 -0.1633  0.1000
   18CHL1    H3 1260   2.010   2.743   6.215 -1.3127 -0.8431 -1.3085
   18CHL1    O3 1261   2.047   2.593   6.358 -0.1811 -0.0380  0.1949
   18CHL1   H3' 1262   2.107   2.520   6.342 -0.0435  0.0951  0.1023
   18CHL1    C4 1263   1.974   2.552   6.132  0.0080  0.5528  0.5522
   18CHL1   H4A 1264   2.007   2.446   6.142  0.9741  0.7481 -0.3016
   18CHL1   H4B 1265   1.868   2.563   6.164 -0.2161 -1.3822  0.5888
   18CHL1    C5 1266   1.993   2.585   5.987  0.5793  0.3011 -0.2032
   18CHL1    C6 1267   1.892   2.605   5.903 -0.5846  0.7461 -0.0741
   18CHL1    H6 1268   1.787   2.611   5.936 -0.4780 -0.4964  0.5521
   18CHL1    C7 1269   1.911   2.619   5.754  0.3576 -0.6198  0.1944
   18CHL1   H7A 1270   1.832   2.559   5.703 -0.7930  1.0957 -0.1291
   18CHL1   H7B 1271   1.887   2.725   5.730  0.3387 -0.0619  2.4581
   18CHL1    C8 1272   2.051   2.587   5.702 -0.3124 -0.3398 -0.2627
   18CHL1    H8 1273   2.064   2.477   5.692 -2.6345 -0.6940 -0.1378
   18CHL1   C14 1274   2.067   2.638   5.557 -0.2413  0.8729 -0.8756
   18CHL1   H14 1275   2.059   2.747   5.577 -1.3554  0.3506  2.0037
   18CHL1   C15 1276   1.970   2.604   5.445  0.5507 -0.0505 -0.0861
   18CHL1  H15A 1277   1.944   2.496   5.434 -1.0327  0.0798  1.8037
   18CHL1  H15B 1278   1.874   2.656   5.461 -0.4202 -1.6476 -0.4685
   18CHL1   C16 1279   2.049   2.653   5.323 -0.4103  0.1021  0.2826
   18CHL1  H16A 1280   2.063   2.564   5.258 -0.9445 -0.1684  0.5401
   18CHL1  H16B 1281   1.996   2.737   5.273  1.9715  1.8156  0.4354
   18CHL1   C17 1282   2.194   2.684   5.363 -1.1101 -0.0139  0.6662
   18CHL1   H17 1283   2.197   2.795   5.372 -3.1520  0.1700 -0.2687
   18CHL1   C13 1284   2.210   2.618   5.505 -0.4100  0.5099  0.0110
   18CHL1   C18 1285   2.248   2.474   5.486 -0.1179  0.0493 -0.0074
   18CHL1  H18A 1286   2.350   2.469   5.442 -0.5786 -0.0987 -1.1038
   18CHL1  H18B 1287   2.252   2.415   5.580  2.3671 -0.0252 -0.0959
   18CHL1  H18C 1288   2.173   2.415   5.429 -0.8362 -0.5708  1.5354
   18CHL1   C12 1289   2.309   2.686   5.599 -0.3354 -0.5881 -0.3243
   18CHL1  H12A 1290   2.415   2.671   5.570 -0.2080 -0.2064 -0.0607
   18CHL1  H12B 1291   2.302   2.797   5.592 -1.1224 -0.4316  2.0841
   18CHL1   C11 1292   2.299   2.634   5.747  0.3659  0.0866 -0.0314
   18CHL1  H11A 1293   2.332   2.528   5.754 -2.1776 -0.6436  4.3011
   18CHL1  H11B 1294   2.359   2.693   5.819 -1.4811  2.9890 -0.6886
   18CHL1    C9 1295   2.156   2.640   5.801  0.3397  0.0188 -0.2197
   18CHL1    H9 1296   2.135   2.749   5.809 -1.5085 -0.3359  0.1585
   18CHL1   C10 1297   2.141   2.588   5.946  0.6174  0.6126  0.0682
   18CHL1   C19 1298   2.195   2.444   5.960  0.4982 -0.1585 -0.4957
   18CHL1  H19A 1299   2.182   2.410   6.065  1.7239  0.7172 -0.0259
   18CHL1  H19B 1300   2.137   2.384   5.887  0.4464 -1.1075  0.3091
   18CHL1  H19C 1301   2.301   2.426   5.931  1.2954 -1.5876  2.7884
   18CHL1    C1 1302   2.226   2.676   6.045  0.5631  0.5596  0.5191
   18CHL1   H1A 1303   2.333   2.654   6.029  0.0618 -0.1120 -2.5004
   18CHL1   H1B 1304   2.215   2.783   6.015 -1.8542  0.2653  0.1514
   18CHL1    C2 1305   2.206   2.649   6.192  0.2674  0.3166  0.0185
   18CHL1   H2A 1306   2.254   2.729   6.253 -0.8212  1.1115 -0.1534
   18CHL1   H2B 1307   2.254   2.554   6.224  0.0806 -0.0957 -0.9098
   18CHL1   C20 1308   2.296   2.657   5.246 -0.7959 -0.7567 -0.0881
   18CHL1   H20 1309   2.303   2.549   5.224 -1.9012 -0.9113  0.2749
   18CHL1   C21 1310   2.438   2.706   5.282  0.0566  0.0095  0.1957
   18CHL1  H21A 1311   2.472   2.686   5.386  0.4079 -0.2289  0.0371
   18CHL1  H21B 1312   2.444   2.816   5.269  1.1766 -0.1171 -0.4899
   18CHL1  H21C 1313   2.511   2.661   5.211  0.2653 -0.7460  0.8779
   18CHL1   C22 1314   2.249   2.707   5.101 -0.0392 -0.5584  0.2333
   18CHL1  H22A 1315   2.146   2.675   5.078  0.5163 -2.5160  0.2853
   18CHL1  H22B 1316   2.245   2.818   5.108  0.0916 -0.6457  2.6747
   18CHL1   C23 1317   2.341   2.663   4.978  0.1286 -0.1945 -0.2018
   18CHL1  H23A 1318   2.448   2.690   4.991 -0.4297  1.6382  0.8809
   18CHL1  H23B 1319   2.334   2.552   4.967  1.0580 -0.2567 -0.2833
   18CHL1   C24 1320   2.297   2.732   4.845 -0.5036  0.4126  0.2586
   18CHL1  H24A 1321   2.196   2.687   4.833  0.2553 -2.2615  2.6941
   18CHL1  H24B 1322   2.298   2.842   4.853  4.1844  0.7838 -2.0763
   18CHL1   C25 1323   2.379   2.715   4.713 -0.9218 -0.2494  0.5495
   18CHL1   H25 1324   2.331   2.772   4.631  3.1945 -0.3097 -2.1746
   18CHL1   C26 1325   2.521   2.777   4.730 -0.6629 -0.0198  0.2563
   18CHL1  H26A 1326   2.579   2.749   4.639 -2.4737  1.2685 -1.3926
   18CHL1  H26B 1327   2.524   2.888   4.727 -1.2984  0.0749  1.9631
   18CHL1  H26C 1328   2.574   2.728   4.815  1.1831  1.0794 -0.2062
   18CHL1   C27 1329   2.378   2.567   4.667 -0.6312  0.2611  0.3649
   18CHL1  H27A 1330   2.284   2.542   4.613  0.0968 -0.8633 -0.4338
   18CHL1  H27B 1331   2.460   2.527   4.603 -1.7747  1.1129 -1.7387
   18CHL1  H27C 1332   2.389   2.503   4.757  0.1239  0.9233  0.7521
   19CHL1    C3 1333   0.529   4.173   6.159 -0.3073 -0.3177  0.4259
   19CHL1    H3 1334   0.622   4.233   6.152 -1.2151  1.2822  1.4632
   19CHL1    O3 1335   0.503   4.149   6.294  0.5636  0.1540  0.5187
   19CHL1   H3' 1336   0.511   4.054   6.301  2.2040  0.0016 -1.9242
   19CHL1    C4 1337   0.417   4.258   6.096 -0.6123  0.5355 -0.1033
   19CHL1   H4A 1338   0.321   4.205   6.115  0.5759 -1.2703  1.2099
   19CHL1   H4B 1339   0.399   4.354   6.149  0.3769  0.6026  0.1279
   19CHL1    C5 1340   0.450   4.281   5.949  0.1453  0.1937 -0.2045
   19CHL1    C6 1341   0.477   4.409   5.905  0.4270  0.4558  0.3466
   19CHL1    H6 1342   0.470   4.490   5.980 -0.7373  0.0668  0.6762
   19CHL1    C7 1343   0.495   4.441   5.757 -0.4583  0.1532 -0.1953
   19CHL1   H7A 1344   0.439   4.536   5.743 -0.3011  0.6050  1.8831
   19CHL1   H7B 1345   0.602   4.462   5.735 -1.0556  1.6870 -1.8271
   19CHL1    C8 1346   0.458   4.323   5.664 -0.0612 -0.5154 -0.2770
   19CHL1    H8 1347   0.349   4.302   5.657  0.4502 -2.9639 -3.0431
   19CHL1   C14 1348   0.513   4.354   5.520 -0.6003  0.0632 -0.3571
   19CHL1   H14 1349   0.621   4.367   5.542 -0.8982 -1.3101  2.3906
   19CHL1   C15 1350   0.481   4.485   5.449  0.0054 -0.2771  0.5300
   19CHL1  H15A 1351   0.378   4.518   5.474  0.1294  0.9463 -0.4666
   19CHL1  H15B 1352   0.557   4.564   5.463  0.8408 -1.1606  1.1265
   19CHL1   C16 1353   0.495   4.443   5.295 -0.1540 -0.0062 -0.7080
   19CHL1  H16A 1354   0.395   4.452   5.247  1.1587  0.1164 -3.6304
   19CHL1  H16B 1355   0.563   4.502   5.229  1.2020 -0.5190  0.1722
   19CHL1   C17 1356   0.555   4.298   5.294 -0.2927 -0.5074  0.3267
   19CHL1   H17 1357   0.665   4.312   5.301 -0.4877  0.6416  1.7538
   19CHL1   C13 1358   0.507   4.238   5.424  0.0348 -0.7673 -0.1558
   19CHL1   C18 1359   0.359   4.198   5.415 -0.0376 -0.1545  0.2243
   19CHL1  H18A 1360   0.289   4.269   5.366 -0.7162  0.9262  2.5955
   19CHL1  H18B 1361   0.333   4.107   5.356 -0.2508  1.3188 -2.0560
   19CHL1  H18C 1362   0.323   4.170   5.517  1.1011 -1.2319  0.3526
   19CHL1   C12 1363   0.588   4.129   5.494 -0.1655 -0.2412 -0.7672
   19CHL1  H12A 1364   0.596   4.045   5.422 -0.4567 -1.8171  0.9506
   19CHL1  H12B 1365   0.692   4.157   5.520  0.0434 -2.0743  0.6026
   19CHL1   C11 1366   0.529   4.080   5.624  0.2820  0.5312  0.0990
   19CHL1  H11A 1367   0.427   4.039   5.606  0.4252 -0.0936  0.6741
   19CHL1  H11B 1368   0.581   3.989   5.661 -0.1462 -1.0315 -2.7995
   19CHL1    C9 1369   0.519   4.198   5.724 -0.9670 -0.0689  0.1680
   19CHL1    H9 1370   0.624   4.229   5.745 -0.5859 -1.1388 -0.0705
   19CHL1   C10 1371   0.465   4.149   5.865 -0.3470 -0.4426 -0.6046
   19CHL1   C19 1372   0.329   4.075   5.847 -0.3606 -0.1101 -0.4929
   19CHL1  H19A 1373   0.348   3.977   5.798 -1.8154  0.0686 -1.4795
   19CHL1  H19B 1374   0.279   4.063   5.945 -1.3269  1.4963 -0.7497
   19CHL1  H19C 1375   0.263   4.148   5.795  1.5190  1.3500 -0.9473
   19CHL1    C1 1376   0.567   4.053   5.932 -0.0675  0.0650 -0.4611
   19CHL1   H1A 1377   0.555   3.950   5.891  0.8129 -0.8522  1.4696
   19CHL1   H1B 1378   0.669   4.090   5.910  0.5136 -0.1465  1.6265
   19CHL1    C2 1379   0.545   4.035   6.082 -0.5909 -0.2163  0.0731
   19CHL1   H2A 1380   0.634   3.976   6.113  0.0386  0.3953 -0.5128
   19CHL1   H2B 1381   0.450   3.980   6.101 -0.7320  0.0096  0.0275
   19CHL1   C20 1382   0.536   4.229   5.159  0.3543 -1.1832 -0.2346
   19CHL1   H20 1383   0.427   4.214   5.144  0.3621 -2.3063  0.6367
   19CHL1   C21 1384   0.611   4.100   5.150 -0.4478 -0.3746  0.1408
   19CHL1  H21A 1385   0.579   4.043   5.060  0.8113 -0.0254 -0.5410
   19CHL1  H21B 1386   0.586   4.030   5.233  0.1584  2.5196  2.9321
   19CHL1  H21C 1387   0.717   4.126   5.130  0.3880 -2.1504  1.8923
   19CHL1   C22 1388   0.570   4.319   5.038 -0.5294 -0.4598  0.1516
   19CHL1  H22A 1389   0.506   4.409   5.052 -1.0144 -1.0034  1.7319
   19CHL1  H22B 1390   0.671   4.365   5.035 -0.2222 -1.1643 -1.7599
   19CHL1   C23 1391   0.535   4.244   4.907 -0.5244  0.2194 -0.2006
   19CHL1  H23A 1392   0.610   4.169   4.876 -0.8112  0.3010 -1.1079
   19CHL1  H23B 1393   0.437   4.195   4.924 -0.3269  0.1685  0.8903
   19CHL1   C24 1394   0.537   4.353   4.792 -0.1201 -0.3136 -0.6223
   19CHL1  H24A 1395   0.466   4.432   4.825  0.5710 -0.2992  0.9161
   19CHL1  H24B 1396   0.630   4.410   4.772 -1.0709  1.3391 -0.5025
   19CHL1   C25 1397   0.478   4.297   4.655 -0.0998 -0.9595 -0.5444
   19CHL1   H25 1398   0.401   4.223   4.685 -3.2946  1.5024 -2.0089
   19CHL1   C26 1399   0.406   4.416   4.590 -0.0178  0.1564 -0.0110
   19CHL1  H26A 1400   0.492   4.478   4.555  0.5073 -0.0371  0.8995
   19CHL1  H26B 1401   0.336   4.382   4.511 -0.5538 -0.7279  0.8220
   19CHL1  H26C 1402   0.347   4.459   4.673  0.0352  2.7991 -1.2454
   19CHL1   C27 1403   0.587   4.233   4.563 -0.2639 -0.5427 -0.3536
   19CHL1  H27A 1404   0.532   4.177   4.485 -1.8488  0.7909 -0.2554
   19CHL1  H27B 1405   0.655   4.304   4.512 -0.2150  1.3193  2.1224
   19CHL1  H27C 1406   0.644   4.172   4.637 -0.3658 -0.5809 -0.3063
   20CHL1    C3 1407   6.964   2.861   6.276 -0.1772 -0.3970  0.7038
   20CHL1    H3 1408   6.996   2.758   6.252  1.2140  0.1766 -0.0588
   20CHL1    O3 1409   6.951   2.872   6.421 -0.3009 -0.1708  0.3936
   20CHL1   H3' 1410   6.859   2.850   6.435  0.4151 -2.5018  1.9288
   20CHL1    C4 1411   7.062   2.966   6.223  0.0307  0.3130  0.2394
   20CHL1   H4A 1412   7.022   3.068   6.241 -1.6843  0.0402 -1.6155
   20CHL1   H4B 1413   7.161   2.968   6.273 -0.1023  1.1613  0.4798
   20CHL1    C5 1414   7.081   2.936   6.077  0.5274 -0.3800 -0.2444
   20CHL1    C6 1415   7.203   2.888   6.030  0.0856 -0.6341 -0.5097
   20CHL1    H6 1416   7.287   2.894   6.101  0.2891 -0.9051 -0.7279
   20CHL1    C7 1417   7.226   2.849   5.888  0.0633 -0.1112  0.6816
   20CHL1   H7A 1418   7.324   2.886   5.850  0.3197 -0.5689  0.8845
   20CHL1   H7B 1419   7.231   2.738   5.876 -1.0845 -0.1170  0.1467
   20CHL1    C8 1420   7.118   2.904   5.792  0.9151 -0.4736  0.1256
   20CHL1    H8 1421   7.137   3.011   5.767 -1.0061 -0.0070  0.4957
   20CHL1   C14 1422   7.120   2.829   5.656 -0.2352  0.1435 -0.2600
   20CHL1   H14 1423   7.094   2.723   5.674 -1.2396  0.2516 -1.0019
   20CHL1   C15 1424   7.258   2.822   5.583 -0.1725  1.2474  0.3315
   20CHL1  H15A 1425   7.304   2.922   5.573  1.5288  0.5519  0.8620
   20CHL1  H15B 1426   7.326   2.753   5.637  0.2294 -0.6691 -2.3994
   20CHL1   C16 1427   7.214   2.749   5.446 -0.4481 -0.6049 -0.2393
   20CHL1  H16A 1428   7.269   2.806   5.368 -0.1399  0.7628  0.9172
   20CHL1  H16B 1429   7.241   2.643   5.432  1.0931  0.0249 -2.5514
   20CHL1   C17 1430   7.060   2.767   5.428  0.0889 -0.0468 -0.7165
   20CHL1   H17 1431   7.019   2.667   5.453  0.5253 -0.3726 -1.2708
   20CHL1   C13 1432   7.020   2.876   5.545 -0.6016 -0.3266  0.5215
   20CHL1   C18 1433   7.044   3.023   5.489 -0.1514 -0.6187  0.1028
   20CHL1  H18A 1434   6.954   3.062   5.437 -1.9539  1.3992  4.2872
   20CHL1  H18B 1435   7.059   3.090   5.576 -3.0723  2.1668 -1.3571
   20CHL1  H18C 1436   7.131   3.029   5.420  0.1763  0.2155  0.5741
   20CHL1   C12 1437   6.883   2.854   5.605 -0.0718  0.3643 -0.3337
   20CHL1  H12A 1438   6.801   2.897   5.543  0.8257  0.6141 -1.3823
   20CHL1  H12B 1439   6.882   2.743   5.611  0.3983  0.3513 -0.4866
   20CHL1   C11 1440   6.867   2.934   5.739  0.0164  0.0309  0.4527
   20CHL1  H11A 1441   6.856   3.043   5.717 -0.9051 -0.4412 -1.7174
   20CHL1  H11B 1442   6.766   2.904   5.775  0.3715 -2.9391 -0.8095
   20CHL1    C9 1443   6.970   2.892   5.843 -0.4268  0.5249 -0.0179
   20CHL1    H9 1444   6.950   2.783   5.858 -0.1754  0.5452  0.5038
   20CHL1   C10 1445   6.955   2.944   5.991  0.2317  0.5594 -0.2168
   20CHL1   C19 1446   6.914   3.089   5.978 -0.1156  0.2693  0.4710
   20CHL1  H19A 1447   6.813   3.106   5.935  0.1153  3.9488  0.9915
   20CHL1  H19B 1448   6.924   3.141   6.076  1.8465 -1.1429  1.0665
   20CHL1  H19C 1449   6.987   3.144   5.915  0.5302 -0.3980  0.6270
   20CHL1    C1 1450   6.843   2.858   6.064 -0.6203 -0.6787 -0.0786
   20CHL1   H1A 1451   6.747   2.870   6.010 -1.3667 -0.2129  1.3226
   20CHL1   H1B 1452   6.868   2.752   6.041 -1.6541 -0.8185 -0.5861
   20CHL1    C2 1453   6.826   2.886   6.211 -0.0560  0.1201 -0.1425
   20CHL1   H2A 1454   6.744   2.829   6.260  1.2450 -1.5976  0.1387
   20CHL1   H2B 1455   6.797   2.992   6.223 -2.3914 -0.2970 -1.3590
   20CHL1   C20 1456   7.016   2.790   5.283  0.2418  0.0469  0.4881
   20CHL1   H20 1457   7.061   2.882   5.239  0.1122 -1.0468 -2.0656
   20CHL1   C21 1458   6.868   2.811   5.276 -0.5041  1.0281 -0.7908
   20CHL1  H21A 1459   6.838   2.903   5.331 -1.2572  0.1781  0.2736
   20CHL1  H21B 1460   6.831   2.712   5.312  5.7083 -0.4789  2.8480
   20CHL1  H21C 1461   6.838   2.830   5.171 -1.7487  0.4050 -0.5736
   20CHL1   C22 1462   7.060   2.671   5.191 -0.3747 -0.0422  0.4028
   20CHL1  H22A 1463   7.162   2.645   5.226  0.4211  1.0004 -1.0278
   20CHL1  H22B 1464   6.986   2.591   5.212 -0.5225  0.3366  1.3491
   20CHL1   C23 1465   7.069   2.713   5.051  0.1116  0.1213  0.0071
   20CHL1  H23A 1466   7.065   2.631   4.976 -0.6680  2.0295 -2.1549
   20CHL1  H23B 1467   6.980   2.774   5.026  0.2611  0.1550 -0.4501
   20CHL1   C24 1468   7.194   2.801   5.018  0.3567  0.0423 -0.6563
   20CHL1  H24A 1469   7.194   2.895   5.077  1.3456  1.8644 -3.3870
   20CHL1  H24B 1470   7.284   2.744   5.048 -1.0382 -1.7478  0.3850
   20CHL1   C25 1471   7.202   2.837   4.865  0.1097  0.6985 -0.6577
   20CHL1   H25 1472   7.184   2.740   4.814 -0.1871 -1.4903  3.1988
   20CHL1   C26 1473   7.100   2.947   4.835  0.2165  0.1237  0.1564
   20CHL1  H26A 1474   7.136   3.043   4.878  0.8263 -0.6139  1.3637
   20CHL1  H26B 1475   7.088   2.957   4.725 -1.0535  0.3201  0.2916
   20CHL1  H26C 1476   7.001   2.912   4.872  0.3024 -1.0120 -0.6434
   20CHL1   C27 1477   7.344   2.890   4.833 -0.4125  0.2159 -0.0428
   20CHL1  H27A 1478   7.347   2.916   4.725  0.2601  0.1991 -0.0265
   20CHL1  H27B 1479   7.364   2.982   4.892  0.1626 -0.5496  0.9748
   20CHL1  H27C 1480   7.418   2.808   4.845  1.1068  1.7794  2.0274
   21CHL1    C3 1481   5.911   6.240   6.265 -0.4585  0.2491  0.2870
   21CHL1    H3 1482   5.963   6.338   6.260 -0.0305 -0.0395 -1.3349
   21CHL1    O3 1483   5.883   6.209   6.398  0.3098  0.6586  0.3676
   21CHL1   H3' 1484   5.967   6.191   6.441  0.1576 -0.2665  0.3138
   21CHL1    C4 1485   5.778   6.256   6.198  0.1800  0.3041  0.8548
   21CHL1   H4A 1486   5.721   6.163   6.218 -1.1859  0.5040 -1.6368
   21CHL1   H4B 1487   5.720   6.333   6.254 -1.1797  0.0452 -0.1435
   21CHL1    C5 1488   5.798   6.268   6.051  0.6207  0.4823  0.1204
   21CHL1    C6 1489   5.745   6.376   5.989  0.1642 -0.3543  0.2938
   21CHL1    H6 1490   5.697   6.462   6.037 -1.4361  1.1455 -3.6343
   21CHL1    C7 1491   5.749   6.391   5.837  0.1405  0.1347  0.5371
   21CHL1   H7A 1492   5.651   6.429   5.802 -0.9360 -3.6450 -1.1230
   21CHL1   H7B 1493   5.821   6.471   5.809  0.5291 -0.5945 -0.6267
   21CHL1    C8 1494   5.781   6.264   5.757  0.2735  0.0647  0.6397
   21CHL1    H8 1495   5.692   6.198   5.758 -0.7547  1.4098  0.8803
   21CHL1   C14 1496   5.810   6.296   5.611  0.0504  0.7368 -0.2137
   21CHL1   H14 1497   5.893   6.369   5.610 -0.3496  1.2562 -2.9188
   21CHL1   C15 1498   5.699   6.362   5.535 -0.5137  0.2151 -0.6120
   21CHL1  H15A 1499   5.604   6.311   5.562 -0.8633  1.0740 -0.1920
   21CHL1  H15B 1500   5.687   6.469   5.564  0.5762 -0.3978  2.3734
   21CHL1   C16 1501   5.736   6.335   5.391  0.8282 -0.5321  0.2884
   21CHL1  H16A 1502   5.648   6.293   5.338  0.1721  0.4727  0.5416
   21CHL1  H16B 1503   5.768   6.433   5.349  0.1194 -0.4296 -0.0372
   21CHL1   C17 1504   5.856   6.235   5.384  0.9458  0.4535 -0.4052
   21CHL1   H17 1505   5.950   6.295   5.380 -0.0954  2.1205 -0.8216
   21CHL1   C13 1506   5.843   6.171   5.524 -0.1761  0.0981  0.4841
   21CHL1   C18 1507   5.739   6.065   5.522  0.4920 -0.3059  0.0319
   21CHL1  H18A 1508   5.786   5.971   5.486  1.0070  0.1285 -0.4272
   21CHL1  H18B 1509   5.694   6.052   5.623  0.7387 -0.3816  0.1341
   21CHL1  H18C 1510   5.649   6.089   5.462  0.6715  1.2601  0.3505
   21CHL1   C12 1511   5.974   6.113   5.585  0.2545 -0.3039 -0.1782
   21CHL1  H12A 1512   6.005   6.022   5.529 -2.1541  0.4219 -2.9547
   21CHL1  H12B 1513   6.050   6.194   5.576  0.1559 -0.3543 -1.6553
   21CHL1   C11 1514   5.952   6.074   5.736  0.0784  0.7110 -0.1838
   21CHL1  H11A 1515   5.880   5.990   5.728  1.1524 -0.1823 -0.7884
   21CHL1  H11B 1516   6.039   6.034   5.794 -0.8311  0.7824  1.2895
   21CHL1    C9 1517   5.894   6.189   5.829  0.0586  0.1613  0.4635
   21CHL1    H9 1518   5.985   6.252   5.823  1.5368 -1.9269 -0.6866
   21CHL1   C10 1519   5.872   6.159   5.980 -0.1066 -0.3492  0.3894
   21CHL1   C19 1520   5.784   6.033   5.993 -1.0220 -0.5078 -0.4677
   21CHL1  H19A 1521   5.784   6.001   6.099  2.3080  0.5172 -0.0591
   21CHL1  H19B 1522   5.685   6.056   5.948 -0.7881 -0.7976 -1.1364
   21CHL1  H19C 1523   5.836   5.949   5.942  0.2145 -0.4531  0.6408
   21CHL1    C1 1524   6.011   6.141   6.054 -0.2501  0.2297  0.7217
   21CHL1   H1A 1525   6.079   6.058   6.023 -0.8949 -1.0974  2.6558
   21CHL1   H1B 1526   6.058   6.242   6.050  0.6291 -0.2041 -0.9368
   21CHL1    C2 1527   5.997   6.126   6.206  0.0626  0.3156 -0.2629
   21CHL1   H2A 1528   6.097   6.120   6.255  0.2230  0.2071 -0.5950
   21CHL1   H2B 1529   5.950   6.025   6.211 -1.5561  1.0970  0.8341
   21CHL1   C20 1530   5.856   6.148   5.257  0.1822 -0.8343  0.4587
   21CHL1   H20 1531   5.763   6.087   5.257  1.4507 -2.8783  0.1255
   21CHL1   C21 1532   5.971   6.042   5.246  0.6659 -0.2226 -0.5961
   21CHL1  H21A 1533   5.971   5.987   5.149  0.8446 -3.1102  0.9276
   21CHL1  H21B 1534   5.945   5.959   5.314  2.8397 -0.6767 -0.2483
   21CHL1  H21C 1535   6.071   6.086   5.265  0.3293  1.5402 -2.5012
   21CHL1   C22 1536   5.856   6.225   5.128  0.3751 -0.9378  0.4312
   21CHL1  H22A 1537   5.795   6.317   5.143  3.4790  1.1402  1.3077
   21CHL1  H22B 1538   5.957   6.263   5.102  0.2874 -1.0655 -0.1042
   21CHL1   C23 1539   5.800   6.149   5.007 -0.7394  0.4549 -0.6972
   21CHL1  H23A 1540   5.868   6.065   4.982  2.1067  1.5957  2.5027
   21CHL1  H23B 1541   5.705   6.099   5.035 -0.3222 -0.5262 -0.9618
   21CHL1   C24 1542   5.768   6.230   4.879 -0.0581  0.4194 -0.5833
   21CHL1  H24A 1543   5.695   6.311   4.904  2.4519  2.3188  1.1641
   21CHL1  H24B 1544   5.864   6.279   4.852  1.0538 -1.7037 -0.6794
   21CHL1   C25 1545   5.707   6.144   4.763 -0.3268 -0.2105  0.0051
   21CHL1   H25 1546   5.703   6.214   4.676 -0.5022 -1.3403 -0.9245
   21CHL1   C26 1547   5.807   6.030   4.736 -0.1390 -0.5462 -0.2642
   21CHL1  H26A 1548   5.911   6.069   4.732 -1.0895  2.1939 -0.3479
   21CHL1  H26B 1549   5.790   5.940   4.798  0.1097 -0.8067 -0.5711
   21CHL1  H26C 1550   5.798   5.998   4.630  1.8739 -0.2508 -0.5752
   21CHL1   C27 1551   5.558   6.101   4.787 -0.1327 -0.6105  0.1645
   21CHL1  H27A 1552   5.547   6.048   4.884 -0.0710  1.0630  1.1153
   21CHL1  H27B 1553   5.490   6.189   4.785 -1.6337 -1.7372 -1.1257
   21CHL1  H27C 1554   5.526   6.034   4.704 -1.4862  0.3348 -0.1169
   22CHL1    C3 1555   0.879   1.670   5.921 -0.0972 -0.7465 -0.3533
   22CHL1    H3 1556   0.769   1.679   5.937 -0.0800  1.1083 -1.0257
   22CHL1    O3 1557   0.927   1.657   6.051 -0.6661 -0.2239 -0.0641
   22CHL1   H3' 1558   1.020   1.680   6.039 -0.8027  0.6916  0.4971
   22CHL1    C4 1559   0.914   1.541   5.852  0.2164  0.4433 -0.5169
   22CHL1   H4A 1560   1.025   1.531   5.860  0.3917  2.3064 -0.1836
   22CHL1   H4B 1561   0.866   1.458   5.908  0.1462  2.6125  2.9273
   22CHL1    C5 1562   0.863   1.545   5.714 -0.3215 -0.4186  0.9511
   22CHL1    C6 1563   0.770   1.463   5.663  0.4478  0.6161  0.3663
   22CHL1    H6 1564   0.733   1.381   5.726  0.2227  0.1363 -0.3653
   22CHL1    C7 1565   0.729   1.454   5.511  0.1401 -0.0697 -0.0719
   22CHL1   H7A 1566   0.714   1.351   5.472 -0.3275 -0.3199  0.7310
   22CHL1   H7B 1567   0.631   1.501   5.488  1.9007  3.1856 -1.4924
   22CHL1    C8 1568   0.839   1.525   5.426  0.3735  0.1719  0.2068
   22CHL1    H8 1569   0.929   1.461   5.416 -0.7851 -1.6570  0.9794
   22CHL1   C14 1570   0.777   1.546   5.288  0.4797 -0.6243  0.0311
   22CHL1   H14 1571   0.682   1.597   5.312 -0.4752 -2.9356  1.5257
   22CHL1   C15 1572   0.740   1.421   5.212  0.0632  0.2937 -0.0209
   22CHL1  H15A 1573   0.829   1.355   5.205  0.8546  1.4091 -0.6771
   22CHL1  H15B 1574   0.651   1.371   5.257  0.8990 -0.0077  1.3478
   22CHL1   C16 1575   0.706   1.470   5.069  0.2308  0.4576  0.0875
   22CHL1  H16A 1576   0.741   1.400   4.991  0.8610 -0.8147  1.4658
   22CHL1  H16B 1577   0.596   1.478   5.057 -0.3568 -2.0226  2.7106
   22CHL1   C17 1578   0.765   1.610   5.059 -0.4826  0.2253  0.5894
   22CHL1   H17 1579   0.680   1.681   5.071 -0.5556  0.1027  0.8025
   22CHL1   C13 1580   0.859   1.627   5.185 -0.5656  0.5605  0.5348
   22CHL1   C18 1581   0.999   1.553   5.158 -0.0138 -0.6118 -0.3238
   22CHL1  H18A 1582   0.977   1.453   5.113  0.4233 -1.6257  1.6080
   22CHL1  H18B 1583   1.058   1.606   5.080  2.2619 -1.3521  0.8108
   22CHL1  H18C 1584   1.057   1.541   5.252  0.3704  1.3871 -0.2603
   22CHL1   C12 1585   0.880   1.769   5.241 -0.8073 -0.5282 -0.0052
   22CHL1  H12A 1586   0.939   1.837   5.176  0.1728 -2.3652 -1.1041
   22CHL1  H12B 1587   0.781   1.816   5.261  0.6779  2.9336 -0.2009
   22CHL1   C11 1588   0.942   1.761   5.385 -0.1403 -0.1093 -0.3448
   22CHL1  H11A 1589   1.050   1.736   5.376 -0.4306 -0.8351 -2.4550
   22CHL1  H11B 1590   0.937   1.863   5.429 -0.0187  0.3663 -1.3959
   22CHL1    C9 1591   0.864   1.658   5.477  0.3808 -0.4397 -0.0014
   22CHL1    H9 1592   0.765   1.705   5.493  0.1264 -0.6560 -0.9074
   22CHL1   C10 1593   0.926   1.656   5.622 -0.3024 -0.1867 -0.8069
   22CHL1   C19 1594   1.081   1.638   5.609  0.0651 -0.6548 -0.4644
   22CHL1  H19A 1595   1.113   1.536   5.579  2.4488  0.0226 -0.4463
   22CHL1  H19B 1596   1.131   1.717   5.549 -0.3951 -1.0681 -1.4196
   22CHL1  H19C 1597   1.129   1.653   5.707 -0.9782  1.0879 -0.1828
   22CHL1    C1 1598   0.893   1.794   5.693 -0.3360 -0.0965  0.2665
   22CHL1   H1A 1599   0.947   1.872   5.635  2.2509 -0.4454  2.0311
   22CHL1   H1B 1600   0.784   1.815   5.690 -0.6666 -1.6311  0.9067
   22CHL1    C2 1601   0.933   1.799   5.852 -0.1821  0.2805 -0.0149
   22CHL1   H2A 1602   0.884   1.886   5.900 -1.7543 -1.6360  2.1040
   22CHL1   H2B 1603   1.044   1.799   5.847 -0.0971 -1.9160  0.6920
   22CHL1   C20 1604   0.829   1.643   4.918 -0.1414 -0.5899 -0.2940
   22CHL1   H20 1605   0.920   1.579   4.909  1.0173  0.7832  1.1037
   22CHL1   C21 1606   0.888   1.786   4.902 -0.5049  0.4226 -0.7763
   22CHL1  H21A 1607   0.936   1.791   4.802  2.4165  1.3568  0.5582
   22CHL1  H21B 1608   0.974   1.804   4.970  0.2561 -1.7873 -1.0687
   22CHL1  H21C 1609   0.809   1.863   4.915 -1.2222 -0.7334  2.6650
   22CHL1   C22 1610   0.732   1.597   4.801 -0.5896 -0.4527 -0.1540
   22CHL1  H22A 1611   0.738   1.487   4.812 -1.1707 -0.3255  1.8623
   22CHL1  H22B 1612   0.630   1.637   4.822 -0.4305 -0.8588  1.5782
   22CHL1   C23 1613   0.790   1.624   4.658  0.2290  0.2953  0.1439
   22CHL1  H23A 1614   0.802   1.733   4.642 -0.3458  0.2066 -1.0299
   22CHL1  H23B 1615   0.891   1.577   4.657 -0.3042 -0.9124  0.4879
   22CHL1   C24 1616   0.717   1.575   4.534  0.2664  0.1772  0.0502
   22CHL1  H24A 1617   0.689   1.468   4.541 -0.1764  0.2345 -0.6946
   22CHL1  H24B 1618   0.622   1.632   4.527 -0.5818 -1.2128 -0.1765
   22CHL1   C25 1619   0.799   1.598   4.401 -0.7175  0.2736  0.0834
   22CHL1   H25 1620   0.895   1.547   4.423 -0.3526  0.3834 -1.1857
   22CHL1   C26 1621   0.738   1.526   4.281  0.0961 -0.1080 -1.1283
   22CHL1  H26A 1622   0.631   1.547   4.259 -0.9340 -1.9621  1.5550
   22CHL1  H26B 1623   0.796   1.552   4.190 -1.8882  1.0989 -2.1067
   22CHL1  H26C 1624   0.744   1.415   4.287  0.7611 -0.1492 -2.2149
   22CHL1   C27 1625   0.829   1.744   4.373  0.3574 -0.4467  0.0116
   22CHL1  H27A 1626   0.873   1.745   4.271  1.3890 -1.6670  0.4146
   22CHL1  H27B 1627   0.742   1.812   4.375 -0.0028 -0.8890 -0.4462
   22CHL1  H27C 1628   0.897   1.800   4.441 -0.4833  0.9923 -0.3086
   23CHL1    C3 1629   0.299   6.293   6.163 -0.4803 -0.0065  0.5514
   23CHL1    H3 1630   0.245   6.200   6.132 -1.2506 -0.1221  2.1157
   23CHL1    O3 1631   0.249   6.340   6.289  0.7353 -0.2797  0.4382
   23CHL1   H3' 1632   0.290   6.427   6.296  1.2560 -0.2581 -1.9748
   23CHL1    C4 1633   0.452   6.269   6.177  0.4957  0.8630  0.5357
   23CHL1   H4A 1634   0.489   6.368   6.210  0.8110  0.6541  0.8163
   23CHL1   H4B 1635   0.493   6.208   6.261  1.7764  2.2632  0.9668
   23CHL1    C5 1636   0.506   6.225   6.037 -0.5155  0.4934  0.0292
   23CHL1    C6 1637   0.581   6.113   6.029 -0.4137 -0.8466  0.1206
   23CHL1    H6 1638   0.604   6.062   6.123  2.0347 -1.0636 -0.5241
   23CHL1    C7 1639   0.642   6.059   5.902 -0.6462 -0.6930  0.1780
   23CHL1   H7A 1640   0.749   6.046   5.926  0.2186  4.0430 -0.1491
   23CHL1   H7B 1641   0.584   5.969   5.871  1.4223 -1.8405 -0.5138
   23CHL1    C8 1642   0.635   6.167   5.791  0.2458  0.9043 -0.0056
   23CHL1    H8 1643   0.718   6.237   5.815  0.7321  0.1983  0.4044
   23CHL1   C14 1644   0.664   6.101   5.659  0.0717  0.2486  0.0629
   23CHL1   H14 1645   0.578   6.033   5.644 -0.2914  0.7139  0.0118
   23CHL1   C15 1646   0.788   6.016   5.645 -0.1619 -0.4381 -0.7398
   23CHL1  H15A 1647   0.871   6.063   5.702 -0.3761  0.0836 -0.8523
   23CHL1  H15B 1648   0.768   5.914   5.684 -2.8851  0.5188  0.5736
   23CHL1   C16 1649   0.827   6.022   5.498 -0.1580  0.1264  0.1179
   23CHL1  H16A 1650   0.933   6.055   5.496  0.6086 -1.4021  4.6374
   23CHL1  H16B 1651   0.816   5.917   5.462  0.1415 -0.5773  1.9839
   23CHL1   C17 1652   0.715   6.111   5.428  0.6295 -0.2887  0.7158
   23CHL1   H17 1653   0.634   6.038   5.404 -1.9836  2.0271  1.8932
   23CHL1   C13 1654   0.664   6.201   5.537 -0.6381 -0.9710 -0.8684
   23CHL1   C18 1655   0.756   6.325   5.560  0.3020 -0.0773  0.6635
   23CHL1  H18A 1656   0.864   6.298   5.567  0.5650  0.6961 -0.2676
   23CHL1  H18B 1657   0.750   6.381   5.464  1.0186  1.8049  1.6732
   23CHL1  H18C 1658   0.713   6.389   5.639 -0.2587 -0.6832  0.8616
   23CHL1   C12 1659   0.519   6.245   5.530  0.3655 -0.2958  0.2735
   23CHL1  H12A 1660   0.521   6.318   5.447  1.0221 -0.7758 -0.1441
   23CHL1  H12B 1661   0.457   6.154   5.514  0.4877 -0.5397  1.1199
   23CHL1   C11 1662   0.461   6.315   5.656 -0.5682  0.2850 -0.2832
   23CHL1  H11A 1663   0.508   6.415   5.667 -0.2903  0.0734  0.5632
   23CHL1  H11B 1664   0.351   6.331   5.652 -0.5157  1.8564  2.3057
   23CHL1    C9 1665   0.493   6.237   5.789 -0.0248  0.0866 -0.1955
   23CHL1    H9 1666   0.427   6.150   5.774  0.2502 -0.1850  0.1550
   23CHL1   C10 1667   0.465   6.310   5.918 -0.0503  0.3893 -0.2681
   23CHL1   C19 1668   0.548   6.436   5.931  0.0657 -0.0335 -0.5167
   23CHL1  H19A 1669   0.659   6.434   5.927  0.0907  0.2703 -0.0252
   23CHL1  H19B 1670   0.506   6.498   5.850 -2.6933 -1.5581 -0.3803
   23CHL1  H19C 1671   0.531   6.500   6.021 -0.3197 -1.2326  0.2911
   23CHL1    C1 1672   0.313   6.337   5.922 -0.5125 -0.9137  0.1682
   23CHL1   H1A 1673   0.295   6.414   5.844 -0.2559 -0.6867  0.3304
   23CHL1   H1B 1674   0.264   6.244   5.888  2.0255 -1.7445 -1.4838
   23CHL1    C2 1675   0.265   6.396   6.058 -0.1827 -0.1248 -0.2778
   23CHL1   H2A 1676   0.155   6.412   6.056 -0.5614 -2.0074  1.6523
   23CHL1   H2B 1677   0.307   6.499   6.066 -1.5915  0.5812 -1.4432
   23CHL1   C20 1678   0.768   6.180   5.295  0.0770  0.0941  0.1260
   23CHL1   H20 1679   0.837   6.261   5.330  1.5397 -1.2707  0.5464
   23CHL1   C21 1680   0.652   6.247   5.215  0.4779  0.3397 -0.7356
   23CHL1  H21A 1681   0.637   6.351   5.252 -0.5910 -0.5782  1.6043
   23CHL1  H21B 1682   0.558   6.195   5.239  0.8717  1.2698  3.5217
   23CHL1  H21C 1683   0.676   6.260   5.107  0.3692 -0.0996 -0.8137
   23CHL1   C22 1684   0.855   6.077   5.211 -0.1687 -0.3488 -0.1406
   23CHL1  H22A 1685   0.925   6.028   5.282 -0.1683  1.0654  0.9035
   23CHL1  H22B 1686   0.791   5.995   5.171  2.5120 -1.9104 -1.4379
   23CHL1   C23 1687   0.931   6.139   5.088  0.2686 -0.0010 -0.7385
   23CHL1  H23A 1688   0.896   6.241   5.064  1.7547  0.9233  0.7713
   23CHL1  H23B 1689   1.030   6.172   5.128  0.7041 -0.0065 -1.7775
   23CHL1   C24 1690   0.944   6.043   4.972  0.0164 -0.0855 -0.6801
   23CHL1  H24A 1691   1.039   6.059   4.917  0.6648 -2.5823 -0.3684
   23CHL1  H24B 1692   0.968   5.945   5.018  0.9554 -0.6198 -2.2553
   23CHL1   C25 1693   0.817   6.025   4.893 -0.2216  0.2586  0.6518
   23CHL1   H25 1694   0.737   5.993   4.963  0.0825  0.3527  1.0459
   23CHL1   C26 1695   0.760   6.155   4.823 -0.5560 -0.2681  0.2180
   23CHL1  H26A 1696   0.663   6.132   4.774 -0.5355 -0.7399  0.3895
   23CHL1  H26B 1697   0.728   6.229   4.900 -0.4802  0.1446 -0.1415
   23CHL1  H26C 1698   0.827   6.187   4.740 -0.1950  0.3700  0.7434
   23CHL1   C27 1699   0.826   5.913   4.789 -1.0603  0.8605 -0.6920
   23CHL1  H27A 1700   0.739   5.914   4.721 -0.8998  1.9638 -0.9036
   23CHL1  H27B 1701   0.920   5.931   4.732 -0.6632  1.8293  0.2302
   23CHL1  H27C 1702   0.823   5.819   4.847  2.1861  1.6840  1.0768
   24CHL1    C3 1703   1.604   2.652   6.294 -0.2163 -0.5933  0.3399
   24CHL1    H3 1704   1.702   2.680   6.251 -0.9482 -2.4415 -2.8927
   24CHL1    O3 1705   1.610   2.682   6.429  0.3442 -0.1745  0.0431
   24CHL1   H3' 1706   1.541   2.743   6.455  0.8107  0.8453 -1.0112
   24CHL1    C4 1707   1.511   2.746   6.216  0.0346  0.4777 -0.2166
   24CHL1   H4A 1708   1.415   2.732   6.269  0.1023  0.1101 -0.1907
   24CHL1   H4B 1709   1.551   2.849   6.231 -1.0907  1.0471 -1.0124
   24CHL1    C5 1710   1.499   2.712   6.066 -0.6669  0.2108  0.2330
   24CHL1    C6 1711   1.515   2.799   5.966  1.0822 -0.6646  0.0833
   24CHL1    H6 1712   1.529   2.905   5.995 -1.2144 -0.5855  1.1115
   24CHL1    C7 1713   1.529   2.767   5.820  0.0128 -0.0790  0.6215
   24CHL1   H7A 1714   1.477   2.843   5.758  1.2260  1.5740  1.5380
   24CHL1   H7B 1715   1.635   2.759   5.787  0.0650  0.4577  0.6429
   24CHL1    C8 1716   1.456   2.635   5.786  0.7387 -0.3840 -0.1768
   24CHL1    H8 1717   1.348   2.660   5.786  0.8308  0.1463  1.3347
   24CHL1   C14 1718   1.502   2.585   5.643 -0.1376  0.3309 -0.2991
   24CHL1   H14 1719   1.612   2.571   5.648 -0.4414 -2.2002  3.1889
   24CHL1   C15 1720   1.485   2.676   5.519  0.1771 -0.3064 -0.3881
   24CHL1  H15A 1721   1.390   2.733   5.533  1.4872  1.9635 -0.2121
   24CHL1  H15B 1722   1.566   2.750   5.500  2.4585 -2.4174  0.5056
   24CHL1   C16 1723   1.475   2.577   5.399  0.3113  0.1093 -0.1415
   24CHL1  H16A 1724   1.376   2.598   5.352  0.4545 -1.3238 -1.1338
   24CHL1  H16B 1725   1.552   2.594   5.321  1.8310  0.7405  1.4322
   24CHL1   C17 1726   1.487   2.431   5.460 -0.4124 -0.5306  0.4930
   24CHL1   H17 1727   1.596   2.412   5.465 -0.3957 -0.2213  1.7442
   24CHL1   C13 1728   1.428   2.452   5.603  0.6731  0.4619  0.6580
   24CHL1   C18 1729   1.270   2.482   5.596 -0.8700 -0.0221  0.0192
   24CHL1  H18A 1730   1.229   2.497   5.698  2.9975  0.5960  1.6531
   24CHL1  H18B 1731   1.249   2.574   5.538  0.2572  0.1527 -0.1427
   24CHL1  H18C 1732   1.209   2.402   5.549 -0.9850 -0.0456  0.2062
   24CHL1   C12 1733   1.468   2.337   5.709  0.6114 -0.5520  0.0233
   24CHL1  H12A 1734   1.398   2.256   5.679 -1.2533  1.0466 -0.1302
   24CHL1  H12B 1735   1.570   2.296   5.702 -0.2067 -2.8168  0.5874
   24CHL1   C11 1736   1.433   2.391   5.852 -0.2136 -0.3779  0.2244
   24CHL1  H11A 1737   1.322   2.398   5.856 -0.3956 -2.1267 -0.7411
   24CHL1  H11B 1738   1.453   2.311   5.927 -0.1359 -1.8055 -1.2722
   24CHL1    C9 1739   1.496   2.529   5.890  0.3072  0.4482 -0.1065
   24CHL1    H9 1740   1.606   2.513   5.888  0.7416  2.1701  3.1477
   24CHL1   C10 1741   1.472   2.565   6.037  0.4480  0.5187 -0.1040
   24CHL1   C19 1742   1.320   2.545   6.072 -0.3850 -0.2003 -0.0209
   24CHL1  H19A 1743   1.254   2.608   6.007 -1.2955 -1.1412 -0.0271
   24CHL1  H19B 1744   1.291   2.438   6.063 -0.4356 -0.1484 -0.5318
   24CHL1  H19C 1745   1.299   2.581   6.175  2.3670 -0.4977  0.7076
   24CHL1    C1 1746   1.556   2.466   6.125 -0.3474  0.0509  0.6489
   24CHL1   H1A 1747   1.528   2.359   6.119  0.0555 -0.0576  0.6492
   24CHL1   H1B 1748   1.664   2.463   6.099  0.1753 -2.7129  2.6108
   24CHL1    C2 1749   1.562   2.508   6.273  0.9583 -0.4021 -0.0497
   24CHL1   H2A 1750   1.638   2.444   6.323 -0.6176 -0.8728  1.8798
   24CHL1   H2B 1751   1.469   2.485   6.329  0.5672  2.4437  0.5872
   24CHL1   C20 1752   1.429   2.316   5.386  0.1878  0.4502 -0.2409
   24CHL1   H20 1753   1.374   2.246   5.452  2.1001 -0.1564  0.7804
   24CHL1   C21 1754   1.548   2.229   5.354 -0.3262 -0.6099  0.4943
   24CHL1  H21A 1755   1.517   2.132   5.310 -0.6334 -0.9966  1.5400
   24CHL1  H21B 1756   1.612   2.205   5.442  0.3706 -0.5782  0.0113
   24CHL1  H21C 1757   1.611   2.276   5.275 -1.4013 -0.3874 -0.2537
   24CHL1   C22 1758   1.334   2.351   5.265  0.1483  0.0877  0.4355
   24CHL1  H22A 1759   1.236   2.398   5.287  0.3701  0.9789 -0.3991
   24CHL1  H22B 1760   1.388   2.425   5.202  0.5867 -1.2377 -0.8085
   24CHL1   C23 1761   1.319   2.232   5.166  0.0239 -0.2118  0.1645
   24CHL1  H23A 1762   1.418   2.195   5.128 -0.5632 -1.1916 -0.4732
   24CHL1  H23B 1763   1.282   2.145   5.224  2.7173 -1.7581 -0.2179
   24CHL1   C24 1764   1.210   2.255   5.055 -0.8759 -0.7011 -0.1449
   24CHL1  H24A 1765   1.115   2.281   5.106 -1.4789 -0.3480 -1.4129
   24CHL1  H24B 1766   1.253   2.335   4.991  0.2330 -1.6402 -0.6302
   24CHL1   C25 1767   1.196   2.138   4.955  1.1655  0.5789 -0.3206
   24CHL1   H25 1768   1.292   2.128   4.899  0.5777  0.4109 -1.3302
   24CHL1   C26 1769   1.178   2.000   5.028  0.2235 -0.1185  0.4242
   24CHL1  H26A 1770   1.162   1.925   4.947  0.3663 -0.2252  0.4931
   24CHL1  H26B 1771   1.262   1.956   5.086  1.7690  0.0907 -1.5528
   24CHL1  H26C 1772   1.081   1.994   5.082 -1.1327 -0.1916 -1.8722
   24CHL1   C27 1773   1.085   2.166   4.857  1.0813  0.1909  0.3079
   24CHL1  H27A 1774   0.994   2.181   4.920  1.4784 -0.9679  1.1826
   24CHL1  H27B 1775   1.100   2.259   4.797  1.5327 -1.7470 -2.7834
   24CHL1  H27C 1776   1.047   2.083   4.794 -0.1685 -0.5890  2.0020
   25CHL1    C3 1777   5.771   7.042   6.102  0.4389 -0.0694 -0.5130
   25CHL1    H3 1778   5.733   7.146   6.087 -1.0620 -0.4443  0.4589
   25CHL1    O3 1779   5.853   7.053   6.221  0.4062 -0.6192  0.3007
   25CHL1   H3' 1780   5.796   7.085   6.291 -1.0064 -1.5315 -0.3598
   25CHL1    C4 1781   5.662   6.941   6.130 -0.1018 -0.5342  0.7544
   25CHL1   H4A 1782   5.713   6.848   6.162  1.9039 -0.4602 -1.9398
   25CHL1   H4B 1783   5.600   6.974   6.216 -0.0868  1.4520  0.0509
   25CHL1    C5 1784   5.576   6.902   6.003 -0.5697 -0.0168  0.0224
   25CHL1    C6 1785   5.443   6.913   6.012  0.2731  0.3715  0.3128
   25CHL1    H6 1786   5.400   6.953   6.105  0.3369  2.2062 -0.4145
   25CHL1    C7 1787   5.348   6.873   5.900  0.2337 -0.0429  0.3251
   25CHL1   H7A 1788   5.280   6.791   5.933 -0.7661  0.4492 -0.4742
   25CHL1   H7B 1789   5.276   6.952   5.869 -1.5194 -1.7140 -0.0558
   25CHL1    C8 1790   5.420   6.807   5.776 -0.0917 -0.4707 -0.6768
   25CHL1    H8 1791   5.445   6.703   5.808 -0.9171 -0.4701 -0.0159
   25CHL1   C14 1792   5.333   6.815   5.659  0.9426 -0.0891  0.7419
   25CHL1   H14 1793   5.324   6.923   5.638  2.9956  0.0914  0.6113
   25CHL1   C15 1794   5.189   6.765   5.674 -0.5878  0.3408 -0.1423
   25CHL1  H15A 1795   5.186   6.664   5.719  0.2687  0.1001 -0.6108
   25CHL1  H15B 1796   5.118   6.827   5.733 -3.1586 -2.7411  0.2062
   25CHL1   C16 1797   5.149   6.752   5.530  0.4694 -0.8393  0.2758
   25CHL1  H16A 1798   5.120   6.647   5.508 -1.2610 -0.3535  0.0832
   25CHL1  H16B 1799   5.071   6.825   5.501  0.9399  0.3493  1.8711
   25CHL1   C17 1800   5.275   6.774   5.433 -0.3916 -0.3290  0.1548
   25CHL1   H17 1801   5.280   6.880   5.401  1.4184 -0.2486  0.6150
   25CHL1   C13 1802   5.386   6.752   5.530 -0.0637  0.3293  0.1900
   25CHL1   C18 1803   5.412   6.602   5.544  0.1054  0.5381  0.2927
   25CHL1  H18A 1804   5.317   6.554   5.573  0.5325 -1.6908 -1.7320
   25CHL1  H18B 1805   5.456   6.558   5.452 -2.5178  1.6180 -1.5976
   25CHL1  H18C 1806   5.487   6.583   5.624  0.1545  0.6171  0.2656
   25CHL1   C12 1807   5.518   6.829   5.501 -0.8956  0.6135  0.5274
   25CHL1  H12A 1808   5.558   6.789   5.406  0.8390  1.5360  0.8426
   25CHL1  H12B 1809   5.497   6.937   5.486 -0.7087  0.6097  0.2392
   25CHL1   C11 1810   5.622   6.816   5.611  0.4509  0.5848  0.0148
   25CHL1  H11A 1811   5.654   6.711   5.631 -0.7042  0.6267  2.5789
   25CHL1  H11B 1812   5.713   6.876   5.586  0.6975  0.5024  0.6885
   25CHL1    C9 1813   5.561   6.869   5.748 -0.2769  0.4931 -0.3194
   25CHL1    H9 1814   5.538   6.976   5.727 -0.0868  0.6314  0.1547
   25CHL1   C10 1815   5.653   6.863   5.872 -0.0369 -1.1198  0.0754
   25CHL1   C19 1816   5.706   6.720   5.909  0.0885  0.1298  1.2003
   25CHL1  H19A 1817   5.779   6.691   5.831 -0.6326 -2.2910  1.3502
   25CHL1  H19B 1818   5.762   6.717   6.005 -1.2019  0.1079  1.9749
   25CHL1  H19C 1819   5.624   6.645   5.900  0.8744 -0.5444 -1.2833
   25CHL1    C1 1820   5.768   6.964   5.862  0.7212 -0.2537  0.3993
   25CHL1   H1A 1821   5.838   6.932   5.782 -0.2367 -3.4903  0.7310
   25CHL1   H1B 1822   5.724   7.064   5.842  3.2138  0.6980 -0.7764
   25CHL1    C2 1823   5.856   6.998   5.989 -0.2453  0.3568  0.4923
   25CHL1   H2A 1824   5.923   7.082   5.960 -0.4840  1.0390  1.8436
   25CHL1   H2B 1825   5.918   6.910   6.018  2.2090  1.7462 -0.1776
   25CHL1   C20 1826   5.267   6.692   5.298  0.4279 -0.0599  0.3853
   25CHL1   H20 1827   5.248   6.584   5.313  2.2402 -0.5475 -0.4981
   25CHL1   C21 1828   5.397   6.710   5.213 -0.2488 -0.1860  0.1911
   25CHL1  H21A 1829   5.421   6.818   5.219 -0.5790 -0.1352  0.6804
   25CHL1  H21B 1830   5.389   6.676   5.108 -2.7015 -1.7187  0.7906
   25CHL1  H21C 1831   5.484   6.650   5.245 -0.4194 -2.4108 -3.0899
   25CHL1   C22 1832   5.139   6.732   5.212  0.3923  0.0669 -0.0593
   25CHL1  H22A 1833   5.137   6.675   5.116  1.8334  0.6237 -0.4426
   25CHL1  H22B 1834   5.047   6.707   5.270 -0.3314  0.9856 -0.7810
   25CHL1   C23 1835   5.136   6.877   5.175  0.3960 -0.0544  0.0648
   25CHL1  H23A 1836   5.102   6.950   5.252 -2.2853 -1.0248 -0.0832
   25CHL1  H23B 1837   5.237   6.899   5.134  0.1707  0.3131 -0.3026
   25CHL1   C24 1838   5.033   6.917   5.064 -0.2846 -0.0347 -0.2432
   25CHL1  H24A 1839   5.065   6.871   4.968 -1.0666  1.8899 -1.4708
   25CHL1  H24B 1840   4.932   6.879   5.092  0.4435 -0.9664  1.2218
   25CHL1   C25 1841   5.030   7.072   5.039  0.8282  0.1805 -0.0417
   25CHL1   H25 1842   5.136   7.105   5.050  1.0296 -0.6522  0.5947
   25CHL1   C26 1843   4.984   7.106   4.897  0.3520  0.1230 -0.0252
   25CHL1  H26A 1844   4.978   7.215   4.875 -1.7146 -0.2321 -1.4109
   25CHL1  H26B 1845   5.058   7.069   4.822 -0.6767 -0.6863 -0.6610
   25CHL1  H26C 1846   4.886   7.056   4.886  0.5487 -0.5836  1.2254
   25CHL1   C27 1847   4.944   7.145   5.144 -0.4087 -0.5592  0.1021
   25CHL1  H27A 1848   4.878   7.083   5.208  1.5747 -0.3458  2.4923
   25CHL1  H27B 1849   5.014   7.193   5.215 -0.3194 -0.2477 -0.1914
   25CHL1  H27C 1850   4.881   7.223   5.095 -0.8982  0.6169  2.4748
   26CHL1    C3 1851   1.109   3.159   6.381 -0.2556 -0.0209  0.5320
   26CHL1    H3 1852   1.078   3.054   6.362  0.0248  0.1272 -0.9032
   26CHL1    O3 1853   1.120   3.172   6.517 -0.6702  0.1608 -0.1168
   26CHL1   H3' 1854   1.173   3.250   6.535  0.6030 -0.2671 -1.7675
   26CHL1    C4 1855   1.244   3.182   6.318 -0.1042 -0.1561 -0.9255
   26CHL1   H4A 1856   1.281   3.281   6.352  0.3774 -0.2106 -1.2832
   26CHL1   H4B 1857   1.309   3.112   6.374 -0.1485  2.2097  2.3785
   26CHL1    C5 1858   1.250   3.175   6.166 -0.1265 -0.0144 -0.3890
   26CHL1    C6 1859   1.338   3.101   6.102 -0.8145  0.5575 -0.6502
   26CHL1    H6 1860   1.420   3.048   6.154 -0.1655  2.7586  0.6896
   26CHL1    C7 1861   1.355   3.100   5.951  0.2065  0.2588  0.0731
   26CHL1   H7A 1862   1.460   3.123   5.924 -0.1511 -0.2837 -1.8998
   26CHL1   H7B 1863   1.351   2.996   5.912  2.3035 -0.2227  0.9847
   26CHL1    C8 1864   1.267   3.204   5.879  0.0955 -0.1432  0.1896
   26CHL1    H8 1865   1.326   3.297   5.896 -0.1676 -0.2541  1.9144
   26CHL1   C14 1866   1.257   3.173   5.727 -0.1411 -0.0926  0.4153
   26CHL1   H14 1867   1.195   3.081   5.732  1.0261 -0.8926  0.5599
   26CHL1   C15 1868   1.383   3.138   5.634  0.7050  0.4371  0.1367
   26CHL1  H15A 1869   1.473   3.182   5.682  1.5387 -2.0236  1.0015
   26CHL1  H15B 1870   1.405   3.029   5.631 -0.6626  0.0296  2.4268
   26CHL1   C16 1871   1.354   3.193   5.493 -0.4706 -0.5317 -0.3202
   26CHL1  H16A 1872   1.408   3.290   5.487 -1.2974 -0.0371  0.0320
   26CHL1  H16B 1873   1.378   3.119   5.414 -1.4842 -0.9188 -0.2891
   26CHL1   C17 1874   1.206   3.243   5.497  0.2149  0.1066 -0.2403
   26CHL1   H17 1875   1.146   3.150   5.481 -0.4629  0.7013 -1.2408
   26CHL1   C13 1876   1.177   3.282   5.649 -0.8367 -0.5067 -0.9005
   26CHL1   C18 1877   1.246   3.421   5.671 -0.1118  0.5011 -0.6972
   26CHL1  H18A 1878   1.345   3.428   5.620  0.0896  0.3396 -0.3265
   26CHL1  H18B 1879   1.182   3.500   5.625 -2.9702 -0.1633  1.8343
   26CHL1  H18C 1880   1.262   3.451   5.776  0.0562 -2.1815  0.1263
   26CHL1   C12 1881   1.029   3.281   5.704  0.3399  0.4857 -0.0594
   26CHL1  H12A 1882   0.955   3.339   5.646 -0.7093 -0.9425 -0.2118
   26CHL1  H12B 1883   0.996   3.176   5.688  0.6358  0.2954  0.5284
   26CHL1   C11 1884   1.029   3.306   5.858 -0.0487  0.6565 -0.8210
   26CHL1  H11A 1885   1.052   3.415   5.865 -1.1438  0.9101 -0.9695
   26CHL1  H11B 1886   0.930   3.301   5.907  0.7111  3.9293  1.4020
   26CHL1    C9 1887   1.129   3.224   5.940 -0.1119  0.5442 -0.1221
   26CHL1    H9 1888   1.076   3.127   5.948 -0.9677  0.8844 -1.4334
   26CHL1   C10 1889   1.144   3.264   6.089 -0.0952  0.1535 -0.2832
   26CHL1   C19 1890   1.182   3.414   6.110  0.2532  0.2207  0.4859
   26CHL1  H19A 1891   1.227   3.437   6.209  3.4649  0.6242 -0.9381
   26CHL1  H19B 1892   1.264   3.440   6.039 -0.0245  2.5273  0.9416
   26CHL1  H19C 1893   1.107   3.488   6.073  1.2640  1.8224  1.4959
   26CHL1    C1 1894   1.011   3.243   6.165  0.0635  0.2397  0.1849
   26CHL1   H1A 1895   0.937   3.316   6.126 -0.6103 -0.8667 -0.6670
   26CHL1   H1B 1896   0.961   3.150   6.132 -0.6822  1.4492 -2.3835
   26CHL1    C2 1897   1.004   3.252   6.319 -0.5023 -0.7594  0.2140
   26CHL1   H2A 1898   0.900   3.229   6.349 -1.7044  1.7482 -1.5903
   26CHL1   H2B 1899   1.026   3.358   6.344 -0.8035 -0.4061 -0.9337
   26CHL1   C20 1900   1.167   3.335   5.384  0.6847 -0.2350 -0.3062
   26CHL1   H20 1901   1.245   3.413   5.380  1.2472 -0.7824 -4.8364
   26CHL1   C21 1902   1.025   3.393   5.406  0.0565  0.0133 -0.7404
   26CHL1  H21A 1903   1.015   3.461   5.493  0.2173 -0.8868 -0.0113
   26CHL1  H21B 1904   0.952   3.310   5.405  1.0717 -0.9069 -1.5636
   26CHL1  H21C 1905   0.991   3.455   5.320 -0.0501  0.3939 -0.4257
   26CHL1   C22 1906   1.163   3.262   5.248 -0.8421 -0.5760  0.0495
   26CHL1  H22A 1907   1.255   3.202   5.234 -1.4369 -1.3319 -0.7330
   26CHL1  H22B 1908   1.076   3.194   5.256 -0.8690 -0.4279  1.1449
   26CHL1   C23 1909   1.156   3.359   5.133 -0.1416  0.9916  0.2827
   26CHL1  H23A 1910   1.067   3.424   5.136  1.3059  3.1787 -1.4785
   26CHL1  H23B 1911   1.237   3.434   5.145  0.9202  0.5226 -2.9156
   26CHL1   C24 1912   1.170   3.294   4.997 -0.3541 -0.2406  0.4023
   26CHL1  H24A 1913   1.090   3.218   4.990  0.0162 -0.7878  1.8232
   26CHL1  H24B 1914   1.148   3.374   4.922 -0.5039  0.4819  1.2001
   26CHL1   C25 1915   1.297   3.214   4.968 -0.2822  0.5500  0.1952
   26CHL1   H25 1916   1.325   3.143   5.049 -0.1286  0.6482  0.2281
   26CHL1   C26 1917   1.287   3.137   4.837  0.2795  0.1834  0.0194
   26CHL1  H26A 1918   1.267   3.206   4.753 -1.2339 -1.3108 -0.8843
   26CHL1  H26B 1919   1.380   3.079   4.817 -0.3903 -1.4706  1.4263
   26CHL1  H26C 1920   1.199   3.072   4.823 -0.8535  1.9255 -1.3812
   26CHL1   C27 1921   1.410   3.320   4.950  0.2663  0.1188 -0.4808
   26CHL1  H27A 1922   1.439   3.366   5.047  1.1594  1.2650 -1.2579
   26CHL1  H27B 1923   1.504   3.269   4.918 -0.1291 -1.0866  0.2158
   26CHL1  H27C 1924   1.390   3.400   4.877  0.3972 -0.9576 -1.7303
   27CHL1    C3 1925   5.319   3.002   6.086  0.2670 -0.1109  0.1519
   27CHL1    H3 1926   5.238   2.927   6.093 -0.3646  0.7008  2.6610
   27CHL1    O3 1927   5.385   3.001   6.211 -0.1036 -0.0924 -0.0198
   27CHL1   H3' 1928   5.340   2.936   6.267 -1.0305  1.5173  1.1889
   27CHL1    C4 1929   5.416   2.967   5.972 -0.1105  0.0771 -1.0180
   27CHL1   H4A 1930   5.508   3.027   5.983 -0.9088  1.0043  1.0741
   27CHL1   H4B 1931   5.465   2.871   5.997  1.6773  1.3645  0.7032
   27CHL1    C5 1932   5.349   2.965   5.840 -0.6939 -0.3415  0.3084
   27CHL1    C6 1933   5.359   2.859   5.752  1.1282  0.2734 -0.0213
   27CHL1    H6 1934   5.422   2.773   5.780 -1.4300 -2.4283 -1.9486
   27CHL1    C7 1935   5.290   2.861   5.617  0.3716  0.0619  0.6363
   27CHL1   H7A 1936   5.359   2.801   5.553 -1.0989 -0.1025 -0.8521
   27CHL1   H7B 1937   5.197   2.801   5.619 -0.7354  1.7132  0.3655
   27CHL1    C8 1938   5.250   2.998   5.562 -0.5107 -0.6753 -0.6044
   27CHL1    H8 1939   5.342   3.045   5.521 -1.0953  0.0662 -1.1028
   27CHL1   C14 1940   5.143   2.978   5.457  0.3112  0.5712  0.8368
   27CHL1   H14 1941   5.060   2.929   5.512  2.3110  0.2618  3.7915
   27CHL1   C15 1942   5.177   2.889   5.347  0.2234 -0.0091 -0.1793
   27CHL1  H15A 1943   5.277   2.926   5.315 -0.8678  1.1212 -2.5672
   27CHL1  H15B 1944   5.180   2.781   5.369 -1.3164 -0.3110 -1.2841
   27CHL1   C16 1945   5.077   2.924   5.238  0.3789 -0.0064  0.5657
   27CHL1  H16A 1946   5.131   2.934   5.142 -1.3176 -2.1078 -0.7322
   27CHL1  H16B 1947   5.004   2.842   5.220  1.8339 -0.8973 -1.6385
   27CHL1   C17 1948   5.003   3.049   5.279  0.3127  0.1456  0.0732
   27CHL1   H17 1949   4.918   3.008   5.337  0.9403 -0.3727  0.6438
   27CHL1   C13 1950   5.094   3.113   5.394 -0.6194 -0.3353  0.2527
   27CHL1   C18 1951   5.211   3.191   5.332 -0.1362 -0.0118 -0.0909
   27CHL1  H18A 1952   5.179   3.290   5.292 -2.2329 -1.1334 -1.3738
   27CHL1  H18B 1953   5.294   3.206   5.404  0.1670 -1.8951 -0.0088
   27CHL1  H18C 1954   5.246   3.137   5.241 -0.8453 -0.5235 -0.0694
   27CHL1   C12 1955   5.026   3.201   5.504 -0.0819  0.2223 -0.0849
   27CHL1  H12A 1956   4.992   3.300   5.465  0.4742 -0.5937 -2.9240
   27CHL1  H12B 1957   4.945   3.136   5.541  0.6718 -0.6964 -0.0154
   27CHL1   C11 1958   5.121   3.219   5.624  0.1356  0.1527 -0.3682
   27CHL1  H11A 1959   5.202   3.289   5.595  0.0894  0.6286  0.5866
   27CHL1  H11B 1960   5.069   3.275   5.705  1.7038  0.1614  0.6728
   27CHL1    C9 1961   5.176   3.080   5.678 -0.2962  0.0147 -0.6310
   27CHL1    H9 1962   5.095   3.018   5.722 -0.0577  1.0074  1.3405
   27CHL1   C10 1963   5.263   3.091   5.808 -1.3193 -0.5094 -0.1864
   27CHL1   C19 1964   5.375   3.188   5.783 -0.1644 -0.3257  0.0920
   27CHL1  H19A 1965   5.426   3.165   5.687 -1.4135 -0.9312 -0.4523
   27CHL1  H19B 1966   5.337   3.292   5.787  0.6102 -0.0355  0.0386
   27CHL1  H19C 1967   5.461   3.177   5.853 -0.2833 -1.7205  0.0472
   27CHL1    C1 1968   5.176   3.130   5.932 -0.8417  1.0028  0.4408
   27CHL1   H1A 1969   5.115   3.223   5.923  0.8396  2.1082  0.0761
   27CHL1   H1B 1970   5.105   3.045   5.930 -0.8008  0.9716  0.2166
   27CHL1    C2 1971   5.257   3.137   6.065 -0.3882  0.2296 -0.3915
   27CHL1   H2A 1972   5.189   3.161   6.150  0.7779 -0.4761  0.7849
   27CHL1   H2B 1973   5.335   3.216   6.062 -0.2467  0.0902 -0.3926
   27CHL1   C20 1974   4.954   3.134   5.162  0.2234  0.0827 -0.5932
   27CHL1   H20 1975   5.043   3.176   5.109  0.3700  0.4402 -0.0681
   27CHL1   C21 1976   4.860   3.245   5.221  0.0432  1.0543 -0.0697
   27CHL1  H21A 1977   4.784   3.196   5.286 -0.2881 -1.4043 -2.1577
   27CHL1  H21B 1978   4.797   3.291   5.142 -1.2867 -1.6148 -0.6605
   27CHL1  H21C 1979   4.924   3.316   5.278 -0.0226  1.0841 -0.0330
   27CHL1   C22 1980   4.886   3.055   5.051  0.1028 -0.2139  0.8803
   27CHL1  H22A 1981   4.966   2.986   5.017  0.6507 -0.4476  2.5157
   27CHL1  H22B 1982   4.811   2.987   5.097  0.2104 -0.5726  0.5363
   27CHL1   C23 1983   4.829   3.124   4.928  0.3362 -0.5869 -0.7132
   27CHL1  H23A 1984   4.743   3.177   4.974  2.3797  0.8054  1.7341
   27CHL1  H23B 1985   4.907   3.193   4.890 -1.1935  3.0135  2.1538
   27CHL1   C24 1986   4.773   3.020   4.826  0.2161 -0.3487 -0.2408
   27CHL1  H24A 1987   4.851   2.951   4.788  0.2656 -1.8111  2.3109
   27CHL1  H24B 1988   4.700   2.964   4.887 -1.6504  1.5103 -0.6647
   27CHL1   C25 1989   4.708   3.079   4.699  0.2152 -0.3304 -0.3539
   27CHL1   H25 1990   4.676   3.182   4.726  3.2783  0.2320  1.6281
   27CHL1   C26 1991   4.806   3.102   4.579 -0.6521  0.3107 -0.4950
   27CHL1  H26A 1992   4.756   3.129   4.484 -1.8476 -1.0609 -0.2917
   27CHL1  H26B 1993   4.882   3.176   4.611  0.8725 -0.7649 -1.4779
   27CHL1  H26C 1994   4.865   3.008   4.575  0.6176  1.0007  0.8440
   27CHL1   C27 1995   4.581   3.000   4.663 -0.3305 -0.5503 -0.4463
   27CHL1  H27A 1996   4.549   3.027   4.560 -2.8996  0.8105  0.5997
   27CHL1  H27B 1997   4.606   2.892   4.671 -1.4158 -0.8630 -1.0084
   27CHL1  H27C 1998   4.493   3.024   4.727 -0.0427 -0.8487  0.0755
   28CHL1    C3 1999   0.939   2.221   6.238  0.4142 -0.0007  0.5127
   28CHL1    H3 2000   0.929   2.110   6.239 -0.4045  0.0059 -1.6816
   28CHL1    O3 2001   0.966   2.258   6.373  0.0174 -0.0230  1.0046
   28CHL1   H3' 2002   0.952   2.353   6.377 -2.3958 -0.2980  0.6358
   28CHL1    C4 2003   1.050   2.258   6.141  0.4500 -0.3391  0.6330
   28CHL1   H4A 2004   1.066   2.366   6.163 -0.7406 -0.0565  0.1587
   28CHL1   H4B 2005   1.143   2.212   6.181 -0.2845 -0.6423  2.0751
   28CHL1    C5 2006   1.033   2.242   5.998 -0.3206 -0.2658  0.0342
   28CHL1    C6 2007   1.119   2.172   5.927 -0.7681 -0.4807 -0.8086
   28CHL1    H6 2008   1.203   2.121   5.975 -0.6558 -0.5343 -1.0618
   28CHL1    C7 2009   1.103   2.157   5.780  0.0227  0.1648  0.2396
   28CHL1   H7A 2010   1.198   2.171   5.725  0.5826 -0.5110  1.0098
   28CHL1   H7B 2011   1.077   2.050   5.764 -0.9293  0.5066 -0.6507
   28CHL1    C8 2012   0.995   2.238   5.713  0.9482 -0.9372 -0.1077
   28CHL1    H8 2013   1.035   2.341   5.697  0.1865 -0.7655 -0.9535
   28CHL1   C14 2014   0.955   2.177   5.578  0.5430  0.1014 -0.0717
   28CHL1   H14 2015   0.909   2.083   5.614 -2.3770  1.6237  0.4996
   28CHL1   C15 2016   1.060   2.144   5.480  0.3338  0.2429  0.1421
   28CHL1  H15A 2017   1.149   2.210   5.491 -0.5354  1.1943  1.9052
   28CHL1  H15B 2018   1.097   2.040   5.494 -1.7366 -0.8873 -1.9991
   28CHL1   C16 2019   0.986   2.133   5.346 -0.6776 -0.1054  0.8830
   28CHL1  H16A 2020   1.037   2.212   5.287 -1.4353 -0.3906 -0.1605
   28CHL1  H16B 2021   0.993   2.035   5.295  2.7158 -0.1398  1.2037
   28CHL1   C17 2022   0.838   2.157   5.373  0.4183 -0.8250 -0.8201
   28CHL1   H17 2023   0.799   2.060   5.411 -0.1693 -0.1017  0.5098
   28CHL1   C13 2024   0.847   2.250   5.495 -0.6737 -0.5359 -0.7127
   28CHL1   C18 2025   0.894   2.396   5.458  0.1489  0.1055 -0.5194
   28CHL1  H18A 2026   0.993   2.402   5.409  2.4044 -1.4347  3.3980
   28CHL1  H18B 2027   0.808   2.424   5.393 -1.5327  0.4707  1.7557
   28CHL1  H18C 2028   0.897   2.455   5.552  0.9799  0.8608 -1.0022
   28CHL1   C12 2029   0.722   2.250   5.582  1.2529  0.0675 -0.6185
   28CHL1  H12A 2030   0.639   2.304   5.532  0.2005 -0.0838  0.8977
   28CHL1  H12B 2031   0.695   2.143   5.595  0.8826  0.2600  0.3012
   28CHL1   C11 2032   0.747   2.301   5.730 -0.3388  0.2288  0.4148
   28CHL1  H11A 2033   0.774   2.408   5.714  4.1776 -0.7583 -0.1139
   28CHL1  H11B 2034   0.658   2.280   5.792  0.7928 -0.9228  1.7203
   28CHL1    C9 2035   0.875   2.240   5.800  0.2222  0.7872 -0.2966
   28CHL1    H9 2036   0.850   2.132   5.810  1.3853  0.4287 -1.1408
   28CHL1   C10 2037   0.900   2.290   5.945  0.6103 -0.4271 -0.4230
   28CHL1   C19 2038   0.914   2.442   5.940 -0.4206 -0.0310 -0.3345
   28CHL1  H19A 2039   0.829   2.503   5.902  0.0485  2.3833  2.1271
   28CHL1  H19B 2040   0.933   2.473   6.045  0.5244  2.9692 -1.2777
   28CHL1  H19C 2041   1.006   2.474   5.887 -0.0956 -0.0163  0.2364
   28CHL1    C1 2042   0.788   2.247   6.051  0.5032 -0.2842  0.6765
   28CHL1   H1A 2043   0.701   2.305   6.012  0.2881 -1.6595 -1.0037
   28CHL1   H1B 2044   0.768   2.139   6.035 -0.7256  0.2036 -1.5208
   28CHL1    C2 2045   0.801   2.286   6.197 -0.6678  0.5873  0.0064
   28CHL1   H2A 2046   0.717   2.240   6.253  0.1030 -3.1988 -1.6735
   28CHL1   H2B 2047   0.811   2.397   6.207  0.4796  0.5235 -0.3314
   28CHL1   C20 2048   0.748   2.193   5.249 -0.5498 -0.3862  0.1521
   28CHL1   H20 2049   0.655   2.241   5.285  0.0435  1.0253 -0.1183
   28CHL1   C21 2050   0.722   2.067   5.170  0.0403  0.0209 -0.4024
   28CHL1  H21A 2051   0.817   2.025   5.131  0.7476 -0.0714  1.3593
   28CHL1  H21B 2052   0.651   2.084   5.085 -0.3656  1.4202  0.1884
   28CHL1  H21C 2053   0.682   1.987   5.236  0.7734  0.1529  0.2063
   28CHL1   C22 2054   0.796   2.299   5.143 -0.1573  0.3473  0.3457
   28CHL1  H22A 2055   0.861   2.374   5.194  0.2839 -0.9399  1.7644
   28CHL1  H22B 2056   0.865   2.239   5.079 -0.0337 -1.2944  1.9264
   28CHL1   C23 2057   0.687   2.369   5.057 -0.4356  0.5213  0.2857
   28CHL1  H23A 2058   0.637   2.287   5.002 -0.1531  1.9389 -2.2219
   28CHL1  H23B 2059   0.623   2.426   5.128  1.0118  0.0899  2.0245
   28CHL1   C24 2060   0.754   2.462   4.948 -0.4473  0.3283  0.2892
   28CHL1  H24A 2061   0.815   2.535   5.006 -0.0350  0.8061 -0.7113
   28CHL1  H24B 2062   0.834   2.397   4.908  0.3602 -0.3016  2.7189
   28CHL1   C25 2063   0.660   2.524   4.844 -0.0354 -0.3640  0.4711
   28CHL1   H25 2064   0.622   2.440   4.782 -0.6859  0.7512 -0.6893
   28CHL1   C26 2065   0.538   2.601   4.900  0.2022  0.8216 -0.1556
   28CHL1  H26A 2066   0.480   2.656   4.822  1.7253  2.9280  0.0969
   28CHL1  H26B 2067   0.477   2.525   4.952 -0.1126  0.1605 -1.4412
   28CHL1  H26C 2068   0.580   2.681   4.965 -1.0673  1.5664 -0.2234
   28CHL1   C27 2069   0.749   2.615   4.757  0.4468  0.0126  0.3995
   28CHL1  H27A 2070   0.828   2.559   4.703 -1.5276 -1.5179 -1.0584
   28CHL1  H27B 2071   0.684   2.663   4.681  1.5428  0.2185 -0.4340
   28CHL1  H27C 2072   0.797   2.692   4.820 -0.1051  0.2886  0.4901
   29CHL1    C3 2073   2.671   6.501   3.103 -0.2430 -0.1770  0.1157
   29CHL1    H3 2074   2.628   6.602   3.089  0.3661  0.0995  0.2151
   29CHL1    O3 2075   2.629   6.408   3.007  0.2838  0.2060 -0.2348
   29CHL1   H3' 2076   2.540   6.439   2.985  1.4949  3.0485 -1.7294
   29CHL1    C4 2077   2.824   6.505   3.108 -0.4939 -0.1245  0.4664
   29CHL1   H4A 2078   2.862   6.404   3.135 -2.1067  0.0013  3.5606
   29CHL1   H4B 2079   2.859   6.530   3.005  0.0333 -2.3156  0.0630
   29CHL1    C5 2080   2.878   6.601   3.216  0.2910  0.0413  0.1142
   29CHL1    C6 2081   2.960   6.699   3.181  0.0862  0.1361 -0.3083
   29CHL1    H6 2082   2.985   6.710   3.074 -1.0391 -2.0854 -0.8792
   29CHL1    C7 2083   3.023   6.790   3.281  0.3206  0.0597  0.1732
   29CHL1   H7A 2084   3.132   6.790   3.256  0.1627 -0.8522 -0.5649
   29CHL1   H7B 2085   2.970   6.886   3.266  0.2646  0.0153  0.0897
   29CHL1    C8 2086   3.012   6.736   3.426 -0.8061  0.3082 -0.3789
   29CHL1    H8 2087   3.092   6.660   3.436 -0.0503  1.3087  1.9451
   29CHL1   C14 2088   3.042   6.842   3.533  0.5577  0.1621  0.9271
   29CHL1   H14 2089   2.961   6.914   3.509  1.5941  1.8385  2.1929
   29CHL1   C15 2090   3.177   6.914   3.518  0.0824 -0.2978 -0.3876
   29CHL1  H15A 2091   3.255   6.838   3.497 -0.1022 -0.7828  0.6434
   29CHL1  H15B 2092   3.173   6.994   3.441  0.7735  0.5898  0.4704
   29CHL1   C16 2093   3.188   6.993   3.644  0.2217  0.5597 -1.0145
   29CHL1  H16A 2094   3.289   6.977   3.686 -0.6810 -1.9395  0.4354
   29CHL1  H16B 2095   3.180   7.102   3.627  2.2341  1.0198  0.6542
   29CHL1   C17 2096   3.074   6.940   3.738  1.0888  0.3531 -0.3669
   29CHL1   H17 2097   2.991   7.005   3.704  0.8565 -1.1358 -2.9425
   29CHL1   C13 2098   3.024   6.807   3.679 -0.3852 -0.1729  0.8809
   29CHL1   C18 2099   3.130   6.697   3.711 -1.0295 -0.1200  0.0423
   29CHL1  H18A 2100   3.232   6.741   3.715 -0.5493 -1.2162  0.2006
   29CHL1  H18B 2101   3.119   6.657   3.814 -0.0433 -0.9648 -0.1630
   29CHL1  H18C 2102   3.133   6.613   3.639  3.9819  0.1933 -0.4814
   29CHL1   C12 2103   2.871   6.770   3.695  0.3322 -0.6117 -0.3686
   29CHL1  H12A 2104   2.852   6.747   3.802  1.0491  0.7177  0.0749
   29CHL1  H12B 2105   2.807   6.857   3.669  1.3087  1.5095  3.4237
   29CHL1   C11 2106   2.840   6.650   3.602  0.6230  0.1980 -0.3318
   29CHL1  H11A 2107   2.894   6.567   3.652 -1.5125 -0.8082  0.4079
   29CHL1  H11B 2108   2.733   6.629   3.618  0.3785  1.5013 -0.1405
   29CHL1    C9 2109   2.875   6.675   3.454  0.1208 -0.4862  0.1516
   29CHL1    H9 2110   2.810   6.758   3.420  0.6832  0.2150  0.7625
   29CHL1   C10 2111   2.841   6.560   3.360 -0.3253  0.2917  0.7991
   29CHL1   C19 2112   2.897   6.424   3.408 -0.9484 -0.4551 -0.2701
   29CHL1  H19A 2113   2.859   6.402   3.510 -2.4255  1.5350 -0.3443
   29CHL1  H19B 2114   2.860   6.347   3.337 -1.1450 -0.7262  0.1241
   29CHL1  H19C 2115   3.008   6.420   3.410 -0.7894  2.3409 -0.3420
   29CHL1    C1 2116   2.680   6.547   3.351 -0.2451  0.2333 -0.3805
   29CHL1   H1A 2117   2.643   6.507   3.447  2.5817 -0.9627  0.3228
   29CHL1   H1B 2118   2.631   6.646   3.336 -2.7759 -0.7522  0.8113
   29CHL1    C2 2119   2.619   6.467   3.237 -0.0290  0.1732  0.3193
   29CHL1   H2A 2120   2.513   6.500   3.228  0.1484  0.1246 -3.6630
   29CHL1   H2B 2121   2.618   6.357   3.247 -0.5514  0.3573  2.9494
   29CHL1   C20 2122   3.098   6.944   3.893 -0.1127 -0.2834  0.8760
   29CHL1   H20 2123   3.185   6.875   3.901  1.0033  0.6743 -1.8335
   29CHL1   C21 2124   2.979   6.907   3.972  0.3057  0.3279 -0.5558
   29CHL1  H21A 2125   2.890   6.936   3.913  0.4104  2.8317  0.4063
   29CHL1  H21B 2126   2.968   6.965   4.066  1.8716  1.5943 -1.1186
   29CHL1  H21C 2127   2.969   6.800   4.003 -2.0562  1.3054  2.6109
   29CHL1   C22 2128   3.138   7.084   3.938 -0.4708  0.5777 -0.8290
   29CHL1  H22A 2129   3.214   7.126   3.868  1.2278  0.2451  0.7137
   29CHL1  H22B 2130   3.052   7.153   3.928 -2.2206 -1.7464 -2.9492
   29CHL1   C23 2131   3.210   7.090   4.074  0.4002  0.7316  0.1538
   29CHL1  H23A 2132   3.215   7.196   4.107 -0.7658  0.9616 -0.3471
   29CHL1  H23B 2133   3.142   7.045   4.149 -0.5686 -0.7112 -1.5296
   29CHL1   C24 2134   3.349   7.019   4.067 -0.1951 -0.1394  0.3637
   29CHL1  H24A 2135   3.338   6.915   4.029  2.9709  0.4293 -2.6168
   29CHL1  H24B 2136   3.425   7.053   3.993  1.4764 -1.1077  1.5639
   29CHL1   C25 2137   3.433   7.008   4.197 -0.1755 -0.0322 -0.2696
   29CHL1   H25 2138   3.443   7.110   4.240 -2.4355  1.3238 -2.6789
   29CHL1   C26 2139   3.368   6.919   4.306 -0.7972  0.2427 -0.4347
   29CHL1  H26A 2140   3.429   6.921   4.399 -0.8850  0.4915 -0.3816
   29CHL1  H26B 2141   3.269   6.961   4.334  0.1869  2.4065  0.0031
   29CHL1  H26C 2142   3.359   6.813   4.274 -2.8303 -0.1479  1.2524
   29CHL1   C27 2143   3.579   6.948   4.176 -0.1146  0.2560  0.3354
   29CHL1  H27A 2144   3.585   6.838   4.158  0.5565 -0.0127  2.0093
   29CHL1  H27B 2145   3.620   7.002   4.087  2.8175 -0.5367  1.0847
   29CHL1  H27C 2146   3.644   6.970   4.263 -0.7432  1.5528  0.4980
   30CHL1    C3 2147   4.411   0.430   2.732  0.2656 -0.3164 -0.6726
   30CHL1    H3 2148   4.450   0.326   2.731  2.0026  0.2887 -0.0062
   30CHL1    O3 2149   4.348   0.452   2.605  0.5804  0.1891 -0.2024
   30CHL1   H3' 2150   4.301   0.535   2.614  3.4789  2.1547 -1.9004
   30CHL1    C4 2151   4.304   0.445   2.849 -0.4565 -0.1770  0.1163
   30CHL1   H4A 2152   4.274   0.551   2.836 -0.8839 -0.2575  0.4241
   30CHL1   H4B 2153   4.214   0.382   2.829  0.1829 -0.3902 -2.4086
   30CHL1    C5 2154   4.360   0.429   2.989 -0.2387  0.1743 -0.0042
   30CHL1    C6 2155   4.305   0.342   3.073 -0.1149 -0.2258  0.1870
   30CHL1    H6 2156   4.216   0.282   3.049  2.7223 -3.7759 -2.6307
   30CHL1    C7 2157   4.356   0.321   3.216  0.4011  0.1883  0.1531
   30CHL1   H7A 2158   4.262   0.324   3.275 -0.7584 -0.3447 -1.5723
   30CHL1   H7B 2159   4.396   0.218   3.217  1.4292  0.5508 -0.8358
   30CHL1    C8 2160   4.463   0.416   3.262  0.2224 -0.4284 -0.5631
   30CHL1    H8 2161   4.416   0.515   3.282  0.0366 -0.0048 -2.7770
   30CHL1   C14 2162   4.534   0.361   3.391  0.4055  0.2089 -0.2200
   30CHL1   H14 2163   4.586   0.271   3.349 -0.1213  0.6926 -2.0222
   30CHL1   C15 2164   4.439   0.317   3.508  1.2816 -0.1742  0.3620
   30CHL1  H15A 2165   4.364   0.398   3.521  0.8338  0.1845 -3.3895
   30CHL1  H15B 2166   4.387   0.221   3.486 -1.3952  1.0171  1.1351
   30CHL1   C16 2167   4.529   0.307   3.634  0.4306 -0.0081  0.1680
   30CHL1  H16A 2168   4.476   0.361   3.716  0.3287  2.7241 -1.5848
   30CHL1  H16B 2169   4.567   0.207   3.664 -3.0420 -1.4686  0.1720
   30CHL1   C17 2170   4.666   0.380   3.586 -0.6367  0.1238  0.0387
   30CHL1   H17 2171   4.737   0.298   3.560 -0.1196  0.8867 -1.0390
   30CHL1   C13 2172   4.636   0.453   3.449  0.1240 -0.4232 -0.2687
   30CHL1   C18 2173   4.582   0.596   3.481  0.3388 -0.3863  0.0872
   30CHL1  H18A 2174   4.670   0.660   3.502  0.7511  0.1724 -2.9022
   30CHL1  H18B 2175   4.534   0.645   3.393  1.9253  1.6245  0.2709
   30CHL1  H18C 2176   4.510   0.595   3.565 -0.2327 -0.4462 -0.3911
   30CHL1   C12 2177   4.744   0.467   3.342  0.4216 -0.1003 -0.1619
   30CHL1  H12A 2178   4.821   0.541   3.374 -0.0587  0.1091  0.5270
   30CHL1  H12B 2179   4.777   0.361   3.335  0.0672 -0.4039  2.0629
   30CHL1   C11 2180   4.683   0.524   3.211 -0.0330  0.5359 -0.9922
   30CHL1  H11A 2181   4.654   0.628   3.237 -1.0107 -0.0393  0.3563
   30CHL1  H11B 2182   4.755   0.520   3.127 -1.0409  0.6776 -1.8932
   30CHL1    C9 2183   4.562   0.442   3.150 -0.6323  0.2625  0.3511
   30CHL1    H9 2184   4.592   0.339   3.121 -1.5316  0.5048 -1.6486
   30CHL1   C10 2185   4.500   0.501   3.015  0.4857  0.3605 -0.2778
   30CHL1   C19 2186   4.466   0.650   3.029 -0.5090  0.3331  0.3472
   30CHL1  H19A 2187   4.553   0.717   3.011 -0.5228  0.6183  1.2800
   30CHL1  H19B 2188   4.383   0.681   2.962 -0.8932 -0.8562  0.2488
   30CHL1  H19C 2189   4.439   0.659   3.137  0.2640 -0.1719  0.5902
   30CHL1    C1 2190   4.598   0.484   2.895 -0.6317  0.5585 -0.1831
   30CHL1   H1A 2191   4.694   0.538   2.905 -0.1276 -0.4337  0.5005
   30CHL1   H1B 2192   4.629   0.377   2.895 -0.5672  0.5365  2.0659
   30CHL1    C2 2193   4.535   0.513   2.755 -0.6098  0.3204  0.0652
   30CHL1   H2A 2194   4.599   0.484   2.670 -0.1499  0.9367  0.1909
   30CHL1   H2B 2195   4.514   0.622   2.745  0.8260  0.5426 -0.7654
   30CHL1   C20 2196   4.746   0.455   3.701 -1.0273  0.8804 -0.1134
   30CHL1   H20 2197   4.690   0.548   3.727 -1.3216 -0.0688  3.0739
   30CHL1   C21 2198   4.884   0.507   3.643  0.0941  0.3217 -0.3847
   30CHL1  H21A 2199   4.937   0.427   3.586 -1.6869  0.3857 -2.2380
   30CHL1  H21B 2200   4.953   0.535   3.726 -0.8811 -0.5286  0.7587
   30CHL1  H21C 2201   4.855   0.589   3.574 -0.5387  3.2284  3.0443
   30CHL1   C22 2202   4.770   0.362   3.815  0.5191  0.1240 -0.0153
   30CHL1  H22A 2203   4.671   0.333   3.858 -0.9975  0.3490 -3.1202
   30CHL1  H22B 2204   4.825   0.270   3.786 -0.7293 -0.2237 -1.4345
   30CHL1   C23 2205   4.839   0.421   3.939  0.5139  0.0657  0.1234
   30CHL1  H23A 2206   4.942   0.456   3.915 -0.4193  2.1523 -1.1145
   30CHL1  H23B 2207   4.779   0.511   3.962  0.6835  0.1121  0.3929
   30CHL1   C24 2208   4.836   0.330   4.062 -0.3507  0.9958  0.5205
   30CHL1  H24A 2209   4.731   0.321   4.098  0.5904 -0.6493  3.1174
   30CHL1  H24B 2210   4.868   0.228   4.033  0.4968  0.7754  2.1031
   30CHL1   C25 2211   4.916   0.369   4.187 -0.1795 -0.3523  0.0362
   30CHL1   H25 2212   4.902   0.480   4.186 -1.8960 -0.5200  0.7374
   30CHL1   C26 2213   4.856   0.301   4.318  0.6438  0.0890  0.0081
   30CHL1  H26A 2214   4.748   0.326   4.327  0.0085 -1.7604 -1.7081
   30CHL1  H26B 2215   4.854   0.190   4.310 -0.1290 -0.0551  1.7581
   30CHL1  H26C 2216   4.912   0.337   4.406  1.3152 -1.3614  0.1887
   30CHL1   C27 2217   5.061   0.333   4.173  0.0283 -0.2603 -0.5197
   30CHL1  H27A 2218   5.114   0.339   4.271 -1.4673 -1.1491  0.3731
   30CHL1  H27B 2219   5.061   0.229   4.134 -0.5237 -0.0467 -1.1063
   30CHL1  H27C 2220   5.116   0.395   4.099 -2.2283  1.4404 -0.8709
   31CHL1    C3 2221   4.219   0.051   2.713  0.3818  0.0161  0.4621
   31CHL1    H3 2222   4.227   0.159   2.735 -1.3624  0.6728 -1.7478
   31CHL1    O3 2223   4.181   0.026   2.578  0.3123 -0.2595 -0.1443
   31CHL1   H3' 2224   4.172  -0.069   2.571 -0.4670 -0.1449 -0.7173
   31CHL1    C4 2225   4.350  -0.011   2.736 -0.4076  0.5742 -0.3720
   31CHL1   H4A 2226   4.342  -0.115   2.698 -1.1994 -0.4770  2.4255
   31CHL1   H4B 2227   4.419   0.053   2.677 -1.4555  2.1612  0.0635
   31CHL1    C5 2228   4.392  -0.023   2.884  0.2494  0.2748 -0.4379
   31CHL1    C6 2229   4.504   0.026   2.927  0.1730 -0.0196 -0.0896
   31CHL1    H6 2230   4.566   0.082   2.855 -0.7055 -1.4893 -2.0822
   31CHL1    C7 2231   4.559   0.013   3.067 -0.2426 -0.3763  0.1194
   31CHL1   H7A 2232   4.667  -0.010   3.065 -0.4217 -1.4139  1.0983
   31CHL1   H7B 2233   4.557   0.114   3.113  0.2538 -1.2288  2.1110
   31CHL1    C8 2234   4.483  -0.087   3.154  0.5263 -0.9875 -0.2795
   31CHL1    H8 2235   4.510  -0.190   3.121  0.1801 -0.4770 -2.3044
   31CHL1   C14 2236   4.506  -0.057   3.307  0.0357  0.6282 -0.0844
   31CHL1   H14 2237   4.466   0.044   3.330 -1.4862  0.2709 -1.0155
   31CHL1   C15 2238   4.650  -0.065   3.363  0.1216 -0.1932 -0.4262
   31CHL1  H15A 2239   4.710  -0.156   3.342 -0.4167 -1.2987  2.3925
   31CHL1  H15B 2240   4.711   0.024   3.335  0.5769 -0.8722 -1.6494
   31CHL1   C16 2241   4.638  -0.085   3.516 -0.3532 -0.4315  0.2842
   31CHL1  H16A 2242   4.704  -0.168   3.548  1.1030  0.0618 -1.3315
   31CHL1  H16B 2243   4.662   0.009   3.571  0.6136  0.6450 -1.8782
   31CHL1   C17 2244   4.487  -0.126   3.541 -1.2055 -0.1447  0.1746
   31CHL1   H17 2245   4.420  -0.039   3.557 -2.2408 -0.4130 -2.1676
   31CHL1   C13 2246   4.437  -0.156   3.402 -1.0817  0.2737 -0.1756
   31CHL1   C18 2247   4.481  -0.302   3.370 -0.2049  0.5029 -0.2989
   31CHL1  H18A 2248   4.442  -0.380   3.438  1.4003  0.0130  0.1017
   31CHL1  H18B 2249   4.451  -0.328   3.266  0.1005 -0.6608 -0.1065
   31CHL1  H18C 2250   4.590  -0.318   3.378  0.0122  1.4814 -1.0701
   31CHL1   C12 2251   4.283  -0.140   3.377  0.0126 -0.3293  0.0444
   31CHL1  H12A 2252   4.231  -0.212   3.443  3.3731 -1.9576  1.1491
   31CHL1  H12B 2253   4.257  -0.034   3.399  0.6888 -0.1951  0.2173
   31CHL1   C11 2254   4.248  -0.159   3.234 -0.3073 -0.5656  0.7691
   31CHL1  H11A 2255   4.265  -0.262   3.198  3.3413 -0.0713  0.7205
   31CHL1  H11B 2256   4.146  -0.120   3.210  1.6063  2.7464 -3.3819
   31CHL1    C9 2257   4.333  -0.073   3.133  0.3145  0.3864 -0.4194
   31CHL1    H9 2258   4.308   0.031   3.162  1.0865  1.3413 -2.8944
   31CHL1   C10 2259   4.289  -0.095   2.979  0.0708 -0.3186  0.3604
   31CHL1   C19 2260   4.287  -0.248   2.947 -0.1484  0.4134 -0.0918
   31CHL1  H19A 2261   4.210  -0.304   3.005  1.0220 -0.9555  0.2220
   31CHL1  H19B 2262   4.256  -0.269   2.843 -0.6621  1.1674 -0.0910
   31CHL1  H19C 2263   4.389  -0.290   2.965 -0.8758 -0.6224  1.9856
   31CHL1    C1 2264   4.151  -0.030   2.948 -0.1321  0.9099 -0.0860
   31CHL1   H1A 2265   4.080  -0.097   3.000  0.5540  0.1050 -0.1685
   31CHL1   H1B 2266   4.150   0.072   2.992 -0.1901  0.8805 -0.0194
   31CHL1    C2 2267   4.113  -0.012   2.797  0.1388  0.7563  0.0621
   31CHL1   H2A 2268   4.023   0.050   2.776 -1.4737 -0.7661  2.1213
   31CHL1   H2B 2269   4.084  -0.111   2.756  2.8767 -0.3788  0.6594
   31CHL1   C20 2270   4.471  -0.218   3.655 -0.3824  0.2687  1.0481
   31CHL1   H20 2271   4.510  -0.317   3.623  1.2923  0.8080  1.3390
   31CHL1   C21 2272   4.326  -0.237   3.683  0.2260  0.0024 -0.5467
   31CHL1  H21A 2273   4.290  -0.318   3.615  0.9941 -0.0109 -0.9469
   31CHL1  H21B 2274   4.278  -0.139   3.662  1.7370  0.5001 -1.8900
   31CHL1  H21C 2275   4.307  -0.269   3.787 -2.2720  0.7367 -0.7045
   31CHL1   C22 2276   4.555  -0.191   3.778 -0.3634 -0.8903 -0.6933
   31CHL1  H22A 2277   4.542  -0.286   3.833 -1.3610 -1.3139 -1.6304
   31CHL1  H22B 2278   4.664  -0.182   3.756 -0.4400 -2.9608 -2.1530
   31CHL1   C23 2279   4.497  -0.070   3.865 -0.3796  0.2001 -0.5065
   31CHL1  H23A 2280   4.504   0.022   3.804 -0.7479  0.1108 -0.6850
   31CHL1  H23B 2281   4.391  -0.096   3.887 -0.4028  0.1211 -0.7106
   31CHL1   C24 2282   4.575  -0.060   3.992  0.9405 -0.3899 -0.4042
   31CHL1  H24A 2283   4.574  -0.156   4.049  2.2159  0.4817  1.1863
   31CHL1  H24B 2284   4.680  -0.025   3.981  0.5871  0.4196 -1.2786
   31CHL1   C25 2285   4.526   0.039   4.094 -0.5504  0.1438  0.2868
   31CHL1   H25 2286   4.523   0.140   4.048  0.3781 -0.3452 -0.9159
   31CHL1   C26 2287   4.391   0.001   4.137  0.3445  0.3546 -0.0123
   31CHL1  H26A 2288   4.316   0.015   4.056  0.5064  0.5857 -0.1234
   31CHL1  H26B 2289   4.384  -0.098   4.187 -0.5988 -0.0071 -0.8324
   31CHL1  H26C 2290   4.365   0.071   4.220  2.9393  1.5705 -0.1432
   31CHL1   C27 2291   4.619   0.052   4.219 -0.5239  0.4794 -0.3284
   31CHL1  H27A 2292   4.714   0.097   4.183  0.5060 -1.2560  0.1411
   31CHL1  H27B 2293   4.569   0.130   4.282  2.2457  1.7010  0.5159
   31CHL1  H27C 2294   4.625  -0.041   4.278  0.3159  0.3968 -0.5392
   32CHL1    C3 2295   1.539   0.047   2.833 -0.0221 -0.1562 -1.0096
   32CHL1    H3 2296   1.633   0.000   2.869 -0.1674  1.4611  1.7727
   32CHL1    O3 2297   1.534   0.025   2.692  0.2128 -0.3163 -0.5048
   32CHL1   H3' 2298   1.545  -0.070   2.681  0.5794 -0.2842 -0.4542
   32CHL1    C4 2299   1.413  -0.014   2.893 -0.6310 -0.4018 -0.4612
   32CHL1   H4A 2300   1.328   0.026   2.835 -0.6459  1.2928  0.6682
   32CHL1   H4B 2301   1.411  -0.123   2.871 -0.3477 -0.8411  1.4609
   32CHL1    C5 2302   1.396   0.009   3.041  0.2194  0.3791  0.3293
   32CHL1    C6 2303   1.372  -0.090   3.129 -0.7211 -0.3443 -0.1723
   32CHL1    H6 2304   1.362  -0.195   3.098 -0.8551 -0.4344  0.1752
   32CHL1    C7 2305   1.353  -0.065   3.276 -0.1081  0.3470  0.2557
   32CHL1   H7A 2306   1.277  -0.128   3.327 -1.0758 -0.4470 -2.0061
   32CHL1   H7B 2307   1.451  -0.089   3.322 -0.7680 -1.7904  0.6391
   32CHL1    C8 2308   1.321   0.082   3.305  0.2870  0.0104 -0.0920
   32CHL1    H8 2309   1.212   0.097   3.287 -0.2770 -2.5806  0.8027
   32CHL1   C14 2310   1.344   0.104   3.461  0.0367  0.8853 -0.0094
   32CHL1   H14 2311   1.451   0.089   3.485  0.2224  2.4348  0.1818
   32CHL1   C15 2312   1.270   0.016   3.557  1.2414  0.6918  0.1967
   32CHL1  H15A 2313   1.166   0.003   3.519  1.4730 -1.1105  0.0867
   32CHL1  H15B 2314   1.320  -0.082   3.574  0.7744  0.4200  0.0436
   32CHL1   C16 2315   1.263   0.088   3.690  0.0065  0.4856  0.2964
   32CHL1  H16A 2316   1.154   0.095   3.714  0.0770 -0.8355  1.1114
   32CHL1  H16B 2317   1.318   0.043   3.775 -2.7346  1.1986  2.6499
   32CHL1   C17 2318   1.337   0.223   3.662  0.6112 -0.7964 -0.2795
   32CHL1   H17 2319   1.446   0.210   3.671  0.9675  1.9272  0.2770
   32CHL1   C13 2320   1.312   0.243   3.511  0.4404 -0.1850 -0.3948
   32CHL1   C18 2321   1.163   0.290   3.484  0.1247 -0.0389 -0.3602
   32CHL1  H18A 2322   1.096   0.214   3.530  0.3930  0.4317  0.8309
   32CHL1  H18B 2323   1.149   0.384   3.541  0.0464 -0.4517  0.3158
   32CHL1  H18C 2324   1.146   0.290   3.374 -0.3400 -1.3922 -0.3204
   32CHL1   C12 2325   1.411   0.334   3.438  0.0817 -0.3093  0.4274
   32CHL1  H12A 2326   1.393   0.438   3.474  2.1262  0.4174 -0.5370
   32CHL1  H12B 2327   1.517   0.316   3.463 -0.1330 -0.7285  1.0622
   32CHL1   C11 2328   1.398   0.330   3.282 -0.4843  0.0451  0.4959
   32CHL1  H11A 2329   1.294   0.353   3.249 -0.4861  0.4594  0.7819
   32CHL1  H11B 2330   1.471   0.401   3.238 -1.1151  1.2276  1.2985
   32CHL1    C9 2331   1.411   0.181   3.232  0.7107 -0.0935  0.6277
   32CHL1    H9 2332   1.517   0.165   3.260  1.3240 -1.3569 -2.1176
   32CHL1   C10 2333   1.403   0.151   3.081 -0.1828 -0.4153 -0.3667
   32CHL1   C19 2334   1.274   0.215   3.025 -0.2737 -0.4331  0.6428
   32CHL1  H19A 2335   1.256   0.180   2.922  4.4888 -2.5973  0.2963
   32CHL1  H19B 2336   1.184   0.199   3.089 -0.6788  0.1442  0.2249
   32CHL1  H19C 2337   1.295   0.324   3.025  0.7685 -0.5576 -2.3542
   32CHL1    C1 2338   1.524   0.218   3.013 -0.1263 -0.3177  0.0015
   32CHL1   H1A 2339   1.520   0.328   3.030 -0.8402  0.2246 -3.0114
   32CHL1   H1B 2340   1.619   0.185   3.059 -0.2483 -1.8109 -0.7719
   32CHL1    C2 2341   1.529   0.202   2.860 -0.1858 -0.8378 -0.1210
   32CHL1   H2A 2342   1.615   0.260   2.819  0.1693 -1.5894 -0.4554
   32CHL1   H2B 2343   1.441   0.243   2.806 -1.3661 -2.7057  0.2922
   32CHL1   C20 2344   1.295   0.337   3.762 -0.3303 -0.2085 -0.1036
   32CHL1   H20 2345   1.201   0.381   3.723  0.2918  1.6016  0.3255
   32CHL1   C21 2346   1.413   0.435   3.766 -0.2155  1.0416 -0.1564
   32CHL1  H21A 2347   1.495   0.380   3.817 -0.5930 -0.4552 -1.0894
   32CHL1  H21B 2348   1.383   0.525   3.822  0.3397  1.3839 -0.4021
   32CHL1  H21C 2349   1.437   0.477   3.666 -1.6473  0.9020 -0.5750
   32CHL1   C22 2350   1.266   0.282   3.907 -1.4086 -0.0840  0.8327
   32CHL1  H22A 2351   1.176   0.217   3.907 -0.3889 -1.5425  0.7969
   32CHL1  H22B 2352   1.354   0.231   3.951 -0.1507  1.6236  0.4111
   32CHL1   C23 2353   1.225   0.394   4.004 -0.6543  0.2660  0.6865
   32CHL1  H23A 2354   1.300   0.476   3.999 -1.2787  0.7795 -1.2757
   32CHL1  H23B 2355   1.132   0.442   3.966  0.2712  1.2093 -0.4657
   32CHL1   C24 2356   1.209   0.343   4.153 -0.2415  0.6253 -0.0757
   32CHL1  H24A 2357   1.135   0.260   4.148 -2.4137  2.5176 -2.7112
   32CHL1  H24B 2358   1.307   0.304   4.187 -0.7595 -1.9201 -1.2534
   32CHL1   C25 2359   1.171   0.449   4.255 -0.8282 -0.3148  0.8248
   32CHL1   H25 2360   1.166   0.404   4.356 -0.1444 -0.7873  0.6530
   32CHL1   C26 2361   1.278   0.564   4.266 -0.2206 -0.0725 -0.8057
   32CHL1  H26A 2362   1.282   0.626   4.174 -2.0945 -0.9580 -1.5301
   32CHL1  H26B 2363   1.255   0.630   4.353  0.5461  0.8528 -1.2918
   32CHL1  H26C 2364   1.378   0.519   4.286  0.6371  1.0297 -2.4042
   32CHL1   C27 2365   1.041   0.520   4.227  0.9263 -0.0950 -0.3532
   32CHL1  H27A 2366   1.020   0.591   4.310 -1.2773 -0.5408 -0.4539
   32CHL1  H27B 2367   1.036   0.570   4.128 -0.0843  0.5814  0.0134
   32CHL1  H27C 2368   0.956   0.449   4.231  1.1038 -0.2811  0.1695
   33CHL1    C3 2369   0.686   6.290   2.911 -0.3562  0.0213  0.9658
   33CHL1    H3 2370   0.591   6.329   2.869  0.8376  0.7892 -1.1490
   33CHL1    O3 2371   0.780   6.244   2.813  0.0803 -1.2545  0.1653
   33CHL1   H3' 2372   0.853   6.208   2.863  1.6078 -2.2661 -2.6202
   33CHL1    C4 2373   0.754   6.394   3.000  0.0041  0.4904  0.2919
   33CHL1   H4A 2374   0.847   6.342   3.032 -1.3608 -2.3882 -0.0861
   33CHL1   H4B 2375   0.777   6.480   2.934 -1.9089  2.1756  1.6996
   33CHL1    C5 2376   0.683   6.436   3.121  0.2182  0.0525  0.0310
   33CHL1    C6 2377   0.648   6.564   3.150 -0.1997  0.0805  0.5229
   33CHL1    H6 2378   0.680   6.642   3.079  0.8883 -2.7492 -2.2880
   33CHL1    C7 2379   0.574   6.610   3.271  0.0269 -0.2843 -0.6429
   33CHL1   H7A 2380   0.606   6.711   3.302  0.3269 -1.1078  2.0164
   33CHL1   H7B 2381   0.467   6.612   3.241 -0.1476  0.0053 -0.0311
   33CHL1    C8 2382   0.578   6.503   3.383  0.3373 -0.5208 -1.2208
   33CHL1    H8 2383   0.679   6.497   3.429 -0.7701  0.8154  1.6384
   33CHL1   C14 2384   0.485   6.539   3.501  0.0928 -0.0108  0.4812
   33CHL1   H14 2385   0.387   6.536   3.451  0.0277  0.7613  0.5498
   33CHL1   C15 2386   0.500   6.681   3.555 -0.7534 -0.4396 -0.4174
   33CHL1  H15A 2387   0.607   6.709   3.568 -1.6556  2.6422  1.4602
   33CHL1  H15B 2388   0.461   6.757   3.485  0.7094  0.0985 -0.6916
   33CHL1   C16 2389   0.434   6.672   3.693  0.0852  0.6276 -0.2127
   33CHL1  H16A 2390   0.502   6.706   3.774  0.5113 -1.9366  0.6061
   33CHL1  H16B 2391   0.343   6.736   3.698  0.6257  1.3781  0.2829
   33CHL1   C17 2392   0.401   6.523   3.719  0.1086 -0.2441 -0.5061
   33CHL1   H17 2393   0.296   6.516   3.682 -0.0572  1.8639 -0.5593
   33CHL1   C13 2394   0.487   6.445   3.623 -0.5175 -0.0242  0.2287
   33CHL1   C18 2395   0.628   6.433   3.681  0.4676 -1.1230  0.1633
   33CHL1  H18A 2396   0.635   6.365   3.768  1.4303 -0.7138  0.4166
   33CHL1  H18B 2397   0.698   6.389   3.608  2.3636  0.0378  1.1968
   33CHL1  H18C 2398   0.668   6.530   3.719  0.8984 -1.2721  0.0959
   33CHL1   C12 2399   0.438   6.307   3.565 -0.0210  0.3439  0.3402
   33CHL1  H12A 2400   0.443   6.237   3.652 -0.9820  2.1514  1.9327
   33CHL1  H12B 2401   0.334   6.331   3.533  0.6421  0.8538 -1.5005
   33CHL1   C11 2402   0.518   6.260   3.444  0.4019 -0.5606  0.1786
   33CHL1  H11A 2403   0.610   6.232   3.499  1.6117  1.5022 -0.6545
   33CHL1  H11B 2404   0.472   6.168   3.402  0.0897 -0.2272 -0.2298
   33CHL1    C9 2405   0.539   6.362   3.327  0.3150 -0.4718 -0.5117
   33CHL1    H9 2406   0.443   6.387   3.277  1.1805  0.7662 -1.6119
   33CHL1   C10 2407   0.635   6.316   3.211  0.1646  0.3632  0.6147
   33CHL1   C19 2408   0.762   6.248   3.281 -0.0443 -1.2838 -0.6183
   33CHL1  H19A 2409   0.813   6.327   3.340  1.2617 -0.0748 -3.1722
   33CHL1  H19B 2410   0.725   6.162   3.340 -1.7735 -0.9476 -1.1671
   33CHL1  H19C 2411   0.836   6.214   3.205  1.2652 -0.8198  0.4144
   33CHL1    C1 2412   0.566   6.203   3.121  0.1132 -0.1049  0.0271
   33CHL1   H1A 2413   0.568   6.111   3.183 -1.1864  0.3272  0.7430
   33CHL1   H1B 2414   0.464   6.231   3.089  0.7689  1.0288 -1.1896
   33CHL1    C2 2415   0.648   6.164   2.992  0.4688  0.1124  0.5528
   33CHL1   H2A 2416   0.587   6.085   2.944  0.2531 -0.0863  1.1487
   33CHL1   H2B 2417   0.736   6.112   3.035  1.1400 -0.4840 -1.4458
   33CHL1   C20 2418   0.388   6.474   3.870  0.0656 -0.3730 -0.3812
   33CHL1   H20 2419   0.486   6.498   3.916 -0.9208  2.1967  0.5524
   33CHL1   C21 2420   0.368   6.319   3.879 -0.1137 -0.5170  0.7970
   33CHL1  H21A 2421   0.333   6.286   3.979  0.7226 -1.8607  0.6707
   33CHL1  H21B 2422   0.460   6.266   3.845  0.0305  1.1658 -1.6752
   33CHL1  H21C 2423   0.282   6.293   3.815  0.7012 -0.7483 -0.2261
   33CHL1   C22 2424   0.278   6.548   3.956 -0.0524 -0.2928  0.5822
   33CHL1  H22A 2425   0.309   6.653   3.942 -1.2787 -0.2000 -2.2106
   33CHL1  H22B 2426   0.172   6.540   3.922 -0.3537  5.1519 -0.6873
   33CHL1   C23 2427   0.280   6.511   4.103  0.1006  0.3032 -0.9264
   33CHL1  H23A 2428   0.237   6.409   4.115 -0.0023  0.3845 -0.6188
   33CHL1  H23B 2429   0.384   6.514   4.141  0.1767 -0.6562 -1.0257
   33CHL1   C24 2430   0.192   6.603   4.185  0.5658 -0.9002 -0.4391
   33CHL1  H24A 2431   0.253   6.691   4.215 -0.9696 -0.1794  0.6760
   33CHL1  H24B 2432   0.109   6.642   4.123  1.1099 -1.5972 -1.6501
   33CHL1   C25 2433   0.141   6.549   4.320  0.1345 -0.3466  0.4672
   33CHL1   H25 2434   0.227   6.500   4.371  0.5420  1.0520  1.1636
   33CHL1   C26 2435   0.109   6.677   4.405  0.4475  0.7314  0.0627
   33CHL1  H26A 2436   0.038   6.743   4.350 -1.5299  0.0571  1.6631
   33CHL1  H26B 2437   0.071   6.646   4.505  1.7925 -1.5081 -0.0580
   33CHL1  H26C 2438   0.204   6.729   4.428  1.5113 -0.9403 -0.4346
   33CHL1   C27 2439   0.017   6.463   4.312 -1.3184 -1.1297  0.1316
   33CHL1  H27A 2440   0.035   6.404   4.220  0.7314  1.6689 -1.4089
   33CHL1  H27B 2441   0.015   6.393   4.398  2.1455 -1.6184 -0.0452
   33CHL1  H27C 2442  -0.074   6.527   4.311 -0.8554 -0.4008  1.6772
   34CHL1    C3 2443   3.910   1.544   2.981 -0.0524 -0.1685 -0.1240
   34CHL1    H3 2444   3.801   1.531   2.965  0.2487  0.2931 -3.0964
   34CHL1    O3 2445   3.968   1.519   2.855 -0.5038  0.3477  0.0081
   34CHL1   H3' 2446   4.027   1.594   2.847  2.9945 -2.1554 -0.2584
   34CHL1    C4 2447   3.954   1.687   3.033  0.1764  0.1225 -0.8042
   34CHL1   H4A 2448   4.063   1.710   3.027 -0.1413  2.0495  0.0476
   34CHL1   H4B 2449   3.907   1.758   2.962 -0.1115 -0.0696 -0.8070
   34CHL1    C5 2450   3.913   1.710   3.174  0.4825 -0.3359 -0.7930
   34CHL1    C6 2451   3.833   1.817   3.202 -0.0486 -0.1836  0.1446
   34CHL1    H6 2452   3.815   1.887   3.120  2.1746  0.2559 -0.0145
   34CHL1    C7 2453   3.780   1.855   3.341 -0.2627 -0.3853  0.0927
   34CHL1   H7A 2454   3.789   1.965   3.347 -2.4652 -0.0688 -1.2758
   34CHL1   H7B 2455   3.671   1.833   3.345 -1.2639  3.7641 -0.4775
   34CHL1    C8 2456   3.853   1.776   3.458  0.0119  0.0642  0.2848
   34CHL1    H8 2457   3.956   1.816   3.468  0.5888 -1.2500 -0.2743
   34CHL1   C14 2458   3.766   1.797   3.588  0.2586  0.0301  0.1037
   34CHL1   H14 2459   3.670   1.742   3.575  0.8620 -1.1686  0.5364
   34CHL1   C15 2460   3.748   1.934   3.643  0.4800 -0.3384 -0.2760
   34CHL1  H15A 2461   3.844   1.990   3.640 -0.6043  1.6552  0.2148
   34CHL1  H15B 2462   3.674   1.988   3.579  0.9519 -0.6413 -1.0860
   34CHL1   C16 2463   3.702   1.915   3.788 -0.4673  0.2019  0.3496
   34CHL1  H16A 2464   3.754   1.980   3.862 -2.0415  0.1422  1.5548
   34CHL1  H16B 2465   3.596   1.941   3.805 -0.4598 -1.2985  3.3759
   34CHL1   C17 2466   3.730   1.754   3.817  0.0302  0.6183  0.0689
   34CHL1   H17 2467   3.639   1.700   3.784  0.7519 -0.3523 -0.3744
   34CHL1   C13 2468   3.829   1.720   3.705  0.2738 -0.2380  0.1989
   34CHL1   C18 2469   3.975   1.770   3.735  0.2971  0.1915  0.3190
   34CHL1  H18A 2470   4.039   1.760   3.645  0.3883  0.2143  0.3816
   34CHL1  H18B 2471   3.970   1.878   3.763 -0.7681  0.5859 -1.2397
   34CHL1  H18C 2472   4.023   1.703   3.809 -0.8843 -1.1486 -0.0853
   34CHL1   C12 2473   3.843   1.562   3.663 -0.3039 -0.2783  0.2651
   34CHL1  H12A 2474   3.892   1.502   3.743  1.5004 -0.6035 -1.0298
   34CHL1  H12B 2475   3.736   1.532   3.660  0.0026 -1.4184  0.3181
   34CHL1   C11 2476   3.905   1.531   3.528 -0.0501  0.3941 -1.1249
   34CHL1  H11A 2477   4.014   1.548   3.542 -0.0340  0.4748 -1.3403
   34CHL1  H11B 2478   3.886   1.426   3.498 -2.1007  0.3236  0.2506
   34CHL1    C9 2479   3.868   1.630   3.414 -0.0142  1.0615  0.0590
   34CHL1    H9 2480   3.763   1.599   3.398  0.0590 -0.3507  1.9411
   34CHL1   C10 2481   3.943   1.605   3.282  0.6879  0.3599  0.1259
   34CHL1   C19 2482   4.103   1.614   3.301 -0.3964 -0.2082  0.2518
   34CHL1  H19A 2483   4.142   1.522   3.349  0.2178  0.8027  1.7914
   34CHL1  H19B 2484   4.151   1.626   3.201 -0.1107 -3.7104 -0.1559
   34CHL1  H19C 2485   4.131   1.697   3.370  2.0494 -1.2065  0.5808
   34CHL1    C1 2486   3.901   1.466   3.225 -0.4029  0.9227 -0.0811
   34CHL1   H1A 2487   3.937   1.387   3.294  2.6637  0.9008 -1.5241
   34CHL1   H1B 2488   3.790   1.467   3.222 -0.4766  1.5510  1.8133
   34CHL1    C2 2489   3.960   1.440   3.081  0.7765  0.1243  0.2337
   34CHL1   H2A 2490   3.943   1.334   3.049  1.7402 -0.1486  0.5888
   34CHL1   H2B 2491   4.071   1.433   3.084  0.7393 -0.4762  0.3323
   34CHL1   C20 2492   3.765   1.722   3.960  0.1821 -0.2461  0.1134
   34CHL1   H20 2493   3.849   1.792   3.982 -0.0874  0.2492 -0.3864
   34CHL1   C21 2494   3.815   1.578   3.977  0.1431 -0.3725  0.2491
   34CHL1  H21A 2495   3.918   1.564   3.939 -0.2500  0.2204 -1.1004
   34CHL1  H21B 2496   3.756   1.502   3.922  1.1514 -1.7709  1.0390
   34CHL1  H21C 2497   3.814   1.548   4.084 -0.3642  0.0961  0.3829
   34CHL1   C22 2498   3.655   1.751   4.056  0.0769 -0.4221 -0.4282
   34CHL1  H22A 2499   3.613   1.852   4.034  0.6582  0.1606  0.9802
   34CHL1  H22B 2500   3.579   1.672   4.039 -0.6320  0.0767  0.3104
   34CHL1   C23 2501   3.686   1.749   4.211 -0.8754  0.9939  0.1573
   34CHL1  H23A 2502   3.723   1.646   4.227  1.2331  1.7182  0.2624
   34CHL1  H23B 2503   3.773   1.814   4.233  1.6062 -2.4861  1.4810
   34CHL1   C24 2504   3.571   1.773   4.315 -0.4216 -0.1914  0.4512
   34CHL1  H24A 2505   3.522   1.871   4.291  0.7814  0.2743 -0.1757
   34CHL1  H24B 2506   3.492   1.700   4.286  0.3173 -0.8999  0.2222
   34CHL1   C25 2507   3.589   1.760   4.460 -0.1652 -0.1199 -0.5116
   34CHL1   H25 2508   3.627   1.657   4.475 -1.1548 -0.5260 -0.7206
   34CHL1   C26 2509   3.683   1.859   4.527  0.6469 -0.4084 -0.3503
   34CHL1  H26A 2510   3.768   1.858   4.455 -0.2741  1.5155 -1.5666
   34CHL1  H26B 2511   3.638   1.961   4.526  0.5082 -0.4555  0.4029
   34CHL1  H26C 2512   3.700   1.829   4.632 -1.3411  0.9041  0.4132
   34CHL1   C27 2513   3.450   1.774   4.528 -0.0853  0.3238 -0.2212
   34CHL1  H27A 2514   3.423   1.882   4.525  1.5718  0.7518 -1.9394
   34CHL1  H27B 2515   3.369   1.720   4.473 -0.0488  0.9894 -0.9506
   34CHL1  H27C 2516   3.461   1.734   4.631  1.9230 -0.4126 -0.6884
   35CHL1    C3 2517   0.168   2.252   3.030 -0.3338  0.0881  0.2251
   35CHL1    H3 2518   0.241   2.170   3.044 -1.1539 -0.3423  2.5333
   35CHL1    O3 2519   0.122   2.262   2.895 -0.8460  0.5388  0.0583
   35CHL1   H3' 2520   0.074   2.344   2.883 -0.1154  0.7249 -2.2390
   35CHL1    C4 2521   0.045   2.234   3.116  0.2524 -0.9171 -0.0722
   35CHL1   H4A 2522  -0.019   2.323   3.095  1.8424  0.8124  1.9159
   35CHL1   H4B 2523  -0.004   2.145   3.071  1.8179 -0.9436 -1.8439
   35CHL1    C5 2524   0.074   2.236   3.264  0.6892 -0.2582 -0.2906
   35CHL1    C6 2525   0.038   2.131   3.341  0.2677  0.3526 -0.4278
   35CHL1    H6 2526  -0.037   2.059   3.306  0.1136 -1.1101  2.5932
   35CHL1    C7 2527   0.065   2.133   3.493 -0.2198 -0.4394 -0.4103
   35CHL1   H7A 2528  -0.027   2.101   3.547 -0.7274 -0.6938 -1.3957
   35CHL1   H7B 2529   0.150   2.063   3.510  0.5838  0.3117 -1.2236
   35CHL1    C8 2530   0.103   2.272   3.545  0.0923 -0.4924 -0.9492
   35CHL1    H8 2531   0.014   2.339   3.546  0.7842  0.4467 -0.1217
   35CHL1   C14 2532   0.166   2.256   3.685  0.2581  0.3017 -0.6942
   35CHL1   H14 2533   0.251   2.188   3.663  1.0991  1.4169 -1.0013
   35CHL1   C15 2534   0.083   2.191   3.800  0.4279  0.2955 -0.0037
   35CHL1  H15A 2535  -0.024   2.217   3.788  0.2482 -0.4047  0.0232
   35CHL1  H15B 2536   0.100   2.082   3.809 -1.8262  0.0510  2.5167
   35CHL1   C16 2537   0.147   2.235   3.929  0.3384 -0.0825 -0.5226
   35CHL1  H16A 2538   0.072   2.291   3.988  1.4077  0.3878  0.4235
   35CHL1  H16B 2539   0.191   2.149   3.984  1.3684  2.6178  3.2282
   35CHL1   C17 2540   0.265   2.325   3.891  0.9310 -0.9385  0.3200
   35CHL1   H17 2541   0.351   2.258   3.870  0.0679 -1.6866 -0.9293
   35CHL1   C13 2542   0.225   2.385   3.757 -0.2263 -0.2452  0.5166
   35CHL1   C18 2543   0.124   2.494   3.770  0.1244 -0.4810  0.4332
   35CHL1  H18A 2544   0.089   2.525   3.670 -1.3891  0.8822  1.3422
   35CHL1  H18B 2545   0.041   2.465   3.838 -2.2500  3.0075 -0.7649
   35CHL1  H18C 2546   0.166   2.581   3.825 -0.7450  1.1182 -1.3249
   35CHL1   C12 2547   0.345   2.423   3.663  0.0967 -0.3329  0.4258
   35CHL1  H12A 2548   0.388   2.519   3.700 -1.5738  0.6570 -0.0999
   35CHL1  H12B 2549   0.416   2.338   3.656  1.7124  1.0149 -0.6610
   35CHL1   C11 2550   0.290   2.451   3.518 -0.0680  0.8764  0.1894
   35CHL1  H11A 2551   0.236   2.548   3.512 -0.5375  0.6618  0.8403
   35CHL1  H11B 2552   0.379   2.461   3.453 -0.2905  0.1502 -0.2478
   35CHL1    C9 2553   0.211   2.331   3.451  0.7042  0.1110 -0.3636
   35CHL1    H9 2554   0.278   2.242   3.450 -0.4501 -0.8171  1.1209
   35CHL1   C10 2555   0.159   2.361   3.304  0.8969  0.2020 -0.0842
   35CHL1   C19 2556   0.068   2.488   3.308  0.2016 -0.6670 -0.2636
   35CHL1  H19A 2557   0.009   2.495   3.214 -2.4868  0.0829  1.3769
   35CHL1  H19B 2558  -0.000   2.491   3.395 -0.0334 -0.8130 -0.4405
   35CHL1  H19C 2559   0.129   2.580   3.303  1.7978 -1.6925 -0.3413
   35CHL1    C1 2560   0.276   2.383   3.205  0.2687  0.2081  0.1941
   35CHL1   H1A 2561   0.340   2.471   3.228  1.8040 -0.7206 -0.3656
   35CHL1   H1B 2562   0.346   2.299   3.223  0.9419  0.8297  0.5457
   35CHL1    C2 2563   0.235   2.379   3.054 -0.6729 -0.0910  0.4762
   35CHL1   H2A 2564   0.324   2.387   2.989 -0.5536 -1.8410  0.3577
   35CHL1   H2B 2565   0.182   2.470   3.019  2.0398  0.7960 -1.6868
   35CHL1   C20 2566   0.297   2.426   4.007 -0.1330  0.5489 -0.5687
   35CHL1   H20 2567   0.207   2.489   4.026 -0.0811  0.9989 -1.7174
   35CHL1   C21 2568   0.416   2.510   3.965  0.3677  0.4562 -0.5024
   35CHL1  H21A 2569   0.373   2.594   3.907 -2.3698  1.7317  3.0330
   35CHL1  H21B 2570   0.488   2.441   3.915 -0.2307  0.5415 -1.4934
   35CHL1  H21C 2571   0.471   2.548   4.053  0.1453 -1.0280  0.3150
   35CHL1   C22 2572   0.330   2.341   4.138  0.3328  0.2013  0.0923
   35CHL1  H22A 2573   0.242   2.291   4.182 -0.9585  1.9018 -0.4462
   35CHL1  H22B 2574   0.400   2.261   4.106  0.9611  0.8219 -0.1130
   35CHL1   C23 2575   0.385   2.429   4.252 -0.7409  0.9395  0.1346
   35CHL1  H23A 2576   0.393   2.363   4.341 -0.9293 -0.6570 -0.9796
   35CHL1  H23B 2577   0.488   2.465   4.232  0.2058 -0.1092  2.7086
   35CHL1   C24 2578   0.293   2.542   4.297 -0.0363 -0.1423 -0.1951
   35CHL1  H24A 2579   0.243   2.587   4.209  0.1977  1.2460  0.3537
   35CHL1  H24B 2580   0.213   2.488   4.352 -0.6473  0.8878 -0.0371
   35CHL1   C25 2581   0.372   2.649   4.379  0.7466  0.1644  0.0883
   35CHL1   H25 2582   0.461   2.673   4.316  0.5714 -0.2869 -0.3432
   35CHL1   C26 2583   0.288   2.781   4.398 -1.1068 -0.5413 -0.2826
   35CHL1  H26A 2584   0.236   2.789   4.496 -2.3262 -1.0521 -0.8833
   35CHL1  H26B 2585   0.355   2.871   4.398  0.1278 -1.3993  1.1539
   35CHL1  H26C 2586   0.205   2.791   4.325 -1.1942 -0.3304 -0.1553
   35CHL1   C27 2587   0.415   2.590   4.520 -0.1254 -0.0618  0.0795
   35CHL1  H27A 2588   0.491   2.513   4.498  0.5112  0.6682 -0.3042
   35CHL1  H27B 2589   0.478   2.664   4.574 -2.4979  1.7188  0.5909
   35CHL1  H27C 2590   0.327   2.575   4.586  0.3603 -2.2192  0.2966
   36CHL1    C3 2591   3.220   5.456   3.284 -0.8533 -0.0432 -0.0104
   36CHL1    H3 2592   3.322   5.489   3.258  0.0048 -3.2301 -1.1731
   36CHL1    O3 2593   3.177   5.373   3.180  0.4365  0.4969 -0.5867
   36CHL1   H3' 2594   3.181   5.428   3.102  2.3004 -0.7444 -1.4322
   36CHL1    C4 2595   3.231   5.364   3.406 -0.3542  0.4218 -0.0922
   36CHL1   H4A 2596   3.129   5.330   3.433 -1.1205  1.8736 -1.0801
   36CHL1   H4B 2597   3.296   5.280   3.372 -1.2555 -0.5602  0.5634
   36CHL1    C5 2598   3.282   5.445   3.520 -0.1981  0.2613  0.2526
   36CHL1    C6 2599   3.398   5.401   3.577 -0.3299 -0.5016 -0.0096
   36CHL1    H6 2600   3.445   5.306   3.546 -0.8515 -0.4162 -1.0896
   36CHL1    C7 2601   3.449   5.468   3.696 -0.1057  0.2349  0.7734
   36CHL1   H7A 2602   3.458   5.386   3.771  0.9222 -1.3197 -0.9444
   36CHL1   H7B 2603   3.557   5.495   3.689  0.1002 -0.8362 -1.5455
   36CHL1    C8 2604   3.355   5.573   3.762  0.0608  0.3315 -0.3668
   36CHL1    H8 2605   3.276   5.509   3.807  2.6875 -2.6771  0.2921
   36CHL1   C14 2606   3.430   5.651   3.862 -0.9602 -0.2008 -0.8613
   36CHL1   H14 2607   3.513   5.709   3.816  0.1721  1.0269  2.4742
   36CHL1   C15 2608   3.493   5.572   3.982 -0.7152  0.3776  0.4795
   36CHL1  H15A 2609   3.419   5.498   4.020  0.8137 -0.4238  2.0419
   36CHL1  H15B 2610   3.582   5.512   3.952 -2.5276 -1.5161 -1.4884
   36CHL1   C16 2611   3.525   5.671   4.088 -0.6705 -0.4304  0.4009
   36CHL1  H16A 2612   3.499   5.633   4.189 -1.8578  0.8763  0.6176
   36CHL1  H16B 2613   3.633   5.697   4.078 -1.4694  4.5927  2.1407
   36CHL1   C17 2614   3.441   5.805   4.046 -1.2021 -0.4497 -0.4527
   36CHL1   H17 2615   3.510   5.862   3.980 -0.8664 -1.3880 -0.9258
   36CHL1   C13 2616   3.343   5.757   3.938  0.6021 -0.4053 -0.3422
   36CHL1   C18 2617   3.228   5.683   4.016 -0.0846  0.0228 -0.6093
   36CHL1  H18A 2618   3.279   5.613   4.085  1.0235  0.9262 -0.4732
   36CHL1  H18B 2619   3.169   5.762   4.067 -0.8087  0.0917 -1.5426
   36CHL1  H18C 2620   3.156   5.625   3.956 -0.3934 -1.6508  1.2735
   36CHL1   C12 2621   3.283   5.849   3.837 -0.6879 -0.1511  0.0477
   36CHL1  H12A 2622   3.208   5.914   3.887 -1.3905 -0.4626 -0.5616
   36CHL1  H12B 2623   3.372   5.899   3.795  1.3384 -1.3168  2.6697
   36CHL1   C11 2624   3.209   5.767   3.732 -0.0268  0.5726 -0.3043
   36CHL1  H11A 2625   3.129   5.711   3.784  1.3128 -1.2048 -0.0505
   36CHL1  H11B 2626   3.163   5.822   3.647 -1.1327  0.9924  0.5401
   36CHL1    C9 2627   3.295   5.663   3.655 -0.0952  0.2861  1.0500
   36CHL1    H9 2628   3.379   5.712   3.601  0.1692 -0.2258  0.9817
   36CHL1   C10 2629   3.202   5.575   3.564 -0.1054 -0.7580 -0.5341
   36CHL1   C19 2630   3.072   5.537   3.637  0.3114  0.0857  1.8995
   36CHL1  H19A 2631   3.012   5.631   3.634  1.3220  0.7541  1.7247
   36CHL1  H19B 2632   3.029   5.450   3.585  2.6417  0.5444 -1.0593
   36CHL1  H19C 2633   3.077   5.516   3.746 -1.6200 -1.6407  1.7047
   36CHL1    C1 2634   3.173   5.655   3.435 -0.4941  0.4720 -0.6440
   36CHL1   H1A 2635   3.106   5.743   3.446  0.1678  0.9203 -0.1128
   36CHL1   H1B 2636   3.268   5.699   3.399  0.1183 -1.4808 -1.5841
   36CHL1    C2 2637   3.121   5.567   3.317 -0.1293 -0.0591 -0.2276
   36CHL1   H2A 2638   3.095   5.643   3.241 -0.9537 -1.2066 -1.1380
   36CHL1   H2B 2639   3.025   5.515   3.340 -1.5412  1.8665 -1.4803
   36CHL1   C20 2640   3.403   5.891   4.166  0.3263 -0.5689  0.4607
   36CHL1   H20 2641   3.335   5.839   4.237  0.2085 -0.7165  0.2394
   36CHL1   C21 2642   3.323   6.018   4.128  0.2157 -0.7732 -0.2788
   36CHL1  H21A 2643   3.380   6.077   4.052 -0.0643  1.0678  0.8991
   36CHL1  H21B 2644   3.315   6.089   4.213 -1.1556  0.8084 -1.6522
   36CHL1  H21C 2645   3.217   5.996   4.107 -0.3435  0.3868  1.1708
   36CHL1   C22 2646   3.523   5.926   4.253  0.1591  0.4622  0.4744
   36CHL1  H22A 2647   3.598   5.844   4.254 -1.8055 -1.4591 -0.2985
   36CHL1  H22B 2648   3.573   6.015   4.209 -1.5657  0.6748 -1.1745
   36CHL1   C23 2649   3.486   5.957   4.399 -0.3427 -0.7377 -0.0579
   36CHL1  H23A 2650   3.406   6.033   4.384 -1.7756 -2.3620 -1.0152
   36CHL1  H23B 2651   3.429   5.873   4.444  1.0574 -1.1067  1.1105
   36CHL1   C24 2652   3.599   6.018   4.481 -0.5198  0.5083  0.6860
   36CHL1  H24A 2653   3.648   6.103   4.429 -1.3931 -0.6239 -2.1722
   36CHL1  H24B 2654   3.555   6.048   4.579  0.8766  2.4473  0.7774
   36CHL1   C25 2655   3.719   5.926   4.508  0.1525 -0.2134 -0.1949
   36CHL1   H25 2656   3.770   5.892   4.416  0.9369  2.1386 -0.7188
   36CHL1   C26 2657   3.824   6.016   4.590 -0.0116 -0.0690 -0.2121
   36CHL1  H26A 2658   3.871   6.094   4.526 -1.5218  1.8087  0.8692
   36CHL1  H26B 2659   3.777   6.069   4.675  0.9317  1.7731 -0.7910
   36CHL1  H26C 2660   3.899   5.944   4.629  0.4360  0.1425 -0.6699
   36CHL1   C27 2661   3.675   5.804   4.595  0.7342  0.0543 -1.0639
   36CHL1  H27A 2662   3.591   5.738   4.564 -1.7213  2.0335  0.8380
   36CHL1  H27B 2663   3.766   5.751   4.630  0.5774  0.4787  0.0440
   36CHL1  H27C 2664   3.631   5.847   4.688 -1.6619  0.4349 -2.2913
   37CHL1    C3 2665   6.325   2.121   3.167 -0.1022  0.4045 -0.0618
   37CHL1    H3 2666   6.431   2.099   3.191  0.0300  1.9400  0.9102
   37CHL1    O3 2667   6.317   2.160   3.028  0.1308 -0.3543 -0.6806
   37CHL1   H3' 2668   6.284   2.250   3.035  2.0177  0.2471  1.1693
   37CHL1    C4 2669   6.224   2.013   3.184  0.7497  0.7273 -0.9198
   37CHL1   H4A 2670   6.125   2.052   3.153  0.2805 -0.5473 -1.0904
   37CHL1   H4B 2671   6.230   1.931   3.110 -2.9456 -0.2271 -0.3834
   37CHL1    C5 2672   6.230   1.963   3.330 -0.3772  0.6316 -0.2849
   37CHL1    C6 2673   6.254   1.838   3.366 -0.1983 -0.2485 -0.4738
   37CHL1    H6 2674   6.253   1.765   3.284 -1.9611  0.1781 -0.8799
   37CHL1    C7 2675   6.243   1.803   3.512 -0.4693  0.4173 -0.2351
   37CHL1   H7A 2676   6.158   1.733   3.510  0.4366 -0.7452  0.9119
   37CHL1   H7B 2677   6.341   1.770   3.552 -1.1032 -0.3593  0.7200
   37CHL1    C8 2678   6.178   1.897   3.614 -0.7699  0.2031 -0.5465
   37CHL1    H8 2679   6.069   1.913   3.603 -0.8835 -0.2531 -0.1494
   37CHL1   C14 2680   6.201   1.853   3.759 -0.0712  0.0825 -0.0196
   37CHL1   H14 2681   6.311   1.858   3.774 -0.2972 -0.2335  2.0423
   37CHL1   C15 2682   6.162   1.710   3.803 -0.3986 -0.9029  0.1696
   37CHL1  H15A 2683   6.059   1.681   3.771  0.9616 -2.6670 -3.1767
   37CHL1  H15B 2684   6.233   1.635   3.761  2.0819  0.7447  1.1978
   37CHL1   C16 2685   6.183   1.720   3.954 -0.1263 -0.7902  0.1758
   37CHL1  H16A 2686   6.105   1.665   4.012 -1.3623 -0.6938 -1.3552
   37CHL1  H16B 2687   6.286   1.689   3.983  0.2866 -0.3465 -0.7955
   37CHL1   C17 2688   6.180   1.869   3.992 -0.7381 -0.2736 -0.2664
   37CHL1   H17 2689   6.282   1.907   4.009 -1.1392  1.1781 -0.9759
   37CHL1   C13 2690   6.138   1.941   3.861 -0.3878  0.4072  0.1794
   37CHL1   C18 2691   5.984   1.948   3.854  0.0363  0.5138  0.7923
   37CHL1  H18A 2692   5.938   1.977   3.758 -0.2364  0.4522  0.9031
   37CHL1  H18B 2693   5.939   1.859   3.904  0.9962 -0.7752 -0.5603
   37CHL1  H18C 2694   5.959   2.040   3.911  0.0271  0.5376  0.7496
   37CHL1   C12 2695   6.206   2.080   3.838  0.5224 -0.0565 -0.3717
   37CHL1  H12A 2696   6.166   2.158   3.905 -0.9870 -1.1293  0.0161
   37CHL1  H12B 2697   6.314   2.057   3.856  1.1652  2.7961 -0.0911
   37CHL1   C11 2698   6.193   2.133   3.694  0.7411 -0.0599 -0.3058
   37CHL1  H11A 2699   6.090   2.174   3.685  1.8132  3.2773  0.8887
   37CHL1  H11B 2700   6.262   2.219   3.680  2.7504 -1.3747  1.0687
   37CHL1    C9 2701   6.238   2.030   3.590  0.1381 -0.0112  0.1784
   37CHL1    H9 2702   6.349   2.021   3.590  0.0367 -1.7535  0.5837
   37CHL1   C10 2703   6.213   2.073   3.436  0.7485 -0.5129 -0.4742
   37CHL1   C19 2704   6.060   2.110   3.427  0.3399  0.1785 -0.1908
   37CHL1  H19A 2705   6.032   2.194   3.494  1.6971 -0.1797  0.8542
   37CHL1  H19B 2706   6.038   2.147   3.324 -0.0052  1.3832  0.2926
   37CHL1  H19C 2707   5.996   2.022   3.449  0.7510  0.3346  1.7679
   37CHL1    C1 2708   6.306   2.194   3.403  0.1120  0.2296 -0.1002
   37CHL1   H1A 2709   6.277   2.284   3.462 -0.7013  0.9788 -1.5892
   37CHL1   H1B 2710   6.412   2.167   3.423 -0.2477  0.6827  2.7319
   37CHL1    C2 2711   6.293   2.243   3.257 -0.0209  0.4395  0.4868
   37CHL1   H2A 2712   6.383   2.308   3.247  1.1762 -0.5816  3.5037
   37CHL1   H2B 2713   6.195   2.292   3.239 -0.3758  0.0523  1.3487
   37CHL1   C20 2714   6.106   1.900   4.128 -0.2384 -0.5713  0.2476
   37CHL1   H20 2715   5.997   1.876   4.120 -0.4284  0.5989 -0.9522
   37CHL1   C21 2716   6.112   2.049   4.170  0.0489 -0.7635 -0.0798
   37CHL1  H21A 2717   6.208   2.102   4.193 -1.8616  1.9904  2.2546
   37CHL1  H21B 2718   6.057   2.047   4.266  1.1939 -1.9678  0.5814
   37CHL1  H21C 2719   6.065   2.101   4.084  2.1904  1.5395  0.0173
   37CHL1   C22 2720   6.157   1.813   4.241 -0.1153 -0.4720 -0.0626
   37CHL1  H22A 2721   6.105   1.841   4.335  3.9229 -1.7246  2.8560
   37CHL1  H22B 2722   6.150   1.703   4.222  2.4520 -0.5273 -1.1067
   37CHL1   C23 2723   6.307   1.844   4.280  0.7003  0.6776 -0.0182
   37CHL1  H23A 2724   6.361   1.875   4.187 -2.9905  2.4172 -1.7697
   37CHL1  H23B 2725   6.324   1.933   4.344  0.4317 -1.5131  3.3559
   37CHL1   C24 2726   6.364   1.724   4.353  0.0285 -0.2586  0.4956
   37CHL1  H24A 2727   6.306   1.697   4.444 -1.6376 -1.4010 -0.8368
   37CHL1  H24B 2728   6.377   1.633   4.290  2.3514  0.5423 -0.2693
   37CHL1   C25 2729   6.511   1.750   4.395 -0.1222 -0.0228 -0.4725
   37CHL1   H25 2730   6.570   1.766   4.302 -0.6524  0.2670 -0.7696
   37CHL1   C26 2731   6.531   1.872   4.484  0.5752 -0.2182 -0.1524
   37CHL1  H26A 2732   6.497   1.861   4.589 -1.4596 -2.0663 -0.9351
   37CHL1  H26B 2733   6.640   1.887   4.499  0.8344 -2.0962  0.1467
   37CHL1  H26C 2734   6.498   1.965   4.434 -0.4261  0.0542  0.9689
   37CHL1   C27 2735   6.570   1.617   4.462  0.1326  0.4520 -0.3776
   37CHL1  H27A 2736   6.516   1.610   4.558  0.1867  0.4407 -0.3480
   37CHL1  H27B 2737   6.554   1.530   4.394 -1.2232  0.7884 -0.5124
   37CHL1  H27C 2738   6.676   1.634   4.489 -0.0459 -0.6638  1.1418
   38CHL1    C3 2739   0.715   0.610   3.004  0.2002 -0.1293  0.0890
   38CHL1    H3 2740   0.614   0.644   3.034 -0.0351 -1.3435  0.7330
   38CHL1    O3 2741   0.739   0.607   2.868  0.2751 -0.9521 -0.4344
   38CHL1   H3' 2742   0.754   0.700   2.848 -0.5295 -0.2274  1.9401
   38CHL1    C4 2743   0.806   0.694   3.083 -0.1047  0.1929 -0.0895
   38CHL1   H4A 2744   0.910   0.662   3.062 -0.8093 -1.2498 -1.6499
   38CHL1   H4B 2745   0.811   0.799   3.048 -0.6068  0.5907  0.9905
   38CHL1    C5 2746   0.785   0.686   3.229  0.2012  0.1601 -0.6703
   38CHL1    C6 2747   0.775   0.796   3.305 -0.0983 -0.3963 -0.2905
   38CHL1    H6 2748   0.774   0.890   3.248 -1.7564 -1.0805 -1.4747
   38CHL1    C7 2749   0.770   0.796   3.455 -0.0024 -0.6476 -0.5008
   38CHL1   H7A 2750   0.855   0.854   3.495 -0.8663  0.1950  0.1825
   38CHL1   H7B 2751   0.685   0.851   3.502 -0.3120  0.1140 -1.8746
   38CHL1    C8 2752   0.793   0.650   3.513 -0.5031 -0.7755  0.3989
   38CHL1    H8 2753   0.903   0.635   3.517  0.0342  2.7026  3.0094
   38CHL1   C14 2754   0.731   0.643   3.658  0.1473 -0.6410 -0.3058
   38CHL1   H14 2755   0.621   0.656   3.646 -0.1229 -2.9809 -0.9016
   38CHL1   C15 2756   0.777   0.749   3.756  0.3832  0.9300  0.6296
   38CHL1  H15A 2757   0.884   0.776   3.747 -0.0540  2.5025 -0.2708
   38CHL1  H15B 2758   0.715   0.841   3.747 -1.6212 -0.3816  0.3138
   38CHL1   C16 2759   0.743   0.686   3.892 -0.5180  0.3728 -0.1970
   38CHL1  H16A 2760   0.828   0.690   3.963 -1.9763  0.6429  1.6268
   38CHL1  H16B 2761   0.657   0.745   3.931  0.3192  2.8820 -1.9189
   38CHL1   C17 2762   0.698   0.538   3.867 -0.3919 -0.2513  0.0107
   38CHL1   H17 2763   0.587   0.542   3.861 -0.3281  0.6536 -0.9551
   38CHL1   C13 2764   0.751   0.503   3.728  0.3186  0.2444 -0.7915
   38CHL1   C18 2765   0.900   0.478   3.725  0.4669 -0.8963  0.1752
   38CHL1  H18A 2766   0.915   0.380   3.776 -2.7724 -1.3820  0.4112
   38CHL1  H18B 2767   0.945   0.458   3.625  0.9191 -1.5535  0.5019
   38CHL1  H18C 2768   0.949   0.559   3.782 -2.4914  0.5187  0.8564
   38CHL1   C12 2769   0.670   0.408   3.645  0.2386  0.6441 -1.1262
   38CHL1  H12A 2770   0.679   0.307   3.690 -0.1300 -0.1908 -2.8535
   38CHL1  H12B 2771   0.561   0.433   3.644 -0.1788 -0.8524  0.5971
   38CHL1   C11 2772   0.713   0.399   3.495 -0.1596  0.4028 -0.0271
   38CHL1  H11A 2773   0.816   0.361   3.507 -0.4686  0.1047  2.1791
   38CHL1  H11B 2774   0.652   0.319   3.447 -0.1577  0.9661 -1.0037
   38CHL1    C9 2775   0.722   0.538   3.426 -0.2845  0.7167  0.3841
   38CHL1    H9 2776   0.620   0.583   3.428 -0.6739 -0.0788 -0.6698
   38CHL1   C10 2777   0.787   0.535   3.285 -0.4192 -0.7534 -0.5221
   38CHL1   C19 2778   0.926   0.479   3.275 -0.2456 -0.8193  0.1290
   38CHL1  H19A 2779   0.995   0.535   3.342 -0.8623 -0.6194  0.6035
   38CHL1  H19B 2780   0.917   0.374   3.312  0.0264 -0.3224  1.7113
   38CHL1  H19C 2781   0.965   0.475   3.171  1.6515 -2.7145  0.8440
   38CHL1    C1 2782   0.698   0.448   3.197 -0.0070  0.5833  0.0865
   38CHL1   H1A 2783   0.692   0.340   3.222  0.7516  0.4364 -0.3488
   38CHL1   H1B 2784   0.596   0.492   3.206  0.6890  2.6885 -1.4395
   38CHL1    C2 2785   0.731   0.461   3.051  0.0609 -0.3322  0.4420
   38CHL1   H2A 2786   0.652   0.409   2.993  0.2310  1.0220 -1.0849
   38CHL1   H2B 2787   0.835   0.434   3.021 -0.0379  2.3382 -2.9648
   38CHL1   C20 2788   0.736   0.445   3.988 -0.2337 -0.0538  0.0146
   38CHL1   H20 2789   0.847   0.438   3.996 -0.1651  1.6793  1.3585
   38CHL1   C21 2790   0.676   0.305   3.972  0.7062 -0.4827  0.6564
   38CHL1  H21A 2791   0.687   0.247   4.066  1.2942 -0.1791  0.7800
   38CHL1  H21B 2792   0.732   0.243   3.898  0.8920  0.0101  0.3777
   38CHL1  H21C 2793   0.567   0.310   3.949  0.9513 -1.4259 -0.8386
   38CHL1   C22 2794   0.685   0.514   4.114  0.0249  0.3096 -0.1241
   38CHL1  H22A 2795   0.725   0.455   4.199  0.7624  0.1290 -0.5969
   38CHL1  H22B 2796   0.737   0.612   4.124  1.3312 -0.3167 -0.5663
   38CHL1   C23 2797   0.534   0.529   4.116  0.3142  0.6108 -0.7752
   38CHL1  H23A 2798   0.508   0.591   4.027  1.5944  1.5015 -0.5389
   38CHL1  H23B 2799   0.495   0.425   4.112 -0.6068  0.8877  0.3623
   38CHL1   C24 2800   0.486   0.577   4.254 -0.5646 -0.0198  0.0985
   38CHL1  H24A 2801   0.375   0.590   4.259 -0.3702  1.9904 -0.1165
   38CHL1  H24B 2802   0.516   0.508   4.335 -1.3819  3.4774  3.7072
   38CHL1   C25 2803   0.535   0.713   4.291 -0.3444  0.1892  0.0512
   38CHL1   H25 2804   0.644   0.725   4.276 -0.2897 -0.7241 -0.3473
   38CHL1   C26 2805   0.464   0.818   4.199 -0.2442  0.0642  0.5844
   38CHL1  H26A 2806   0.497   0.917   4.237 -1.5695  1.0282 -0.6353
   38CHL1  H26B 2807   0.488   0.814   4.090 -0.6898 -0.3552  0.4981
   38CHL1  H26C 2808   0.355   0.809   4.216 -0.1382 -3.2407  0.1615
   38CHL1   C27 2809   0.519   0.750   4.439  0.0359  0.2723  0.1733
   38CHL1  H27A 2810   0.525   0.859   4.458  1.2232  0.4472 -1.1016
   38CHL1  H27B 2811   0.424   0.711   4.483  0.2221  0.1797  0.4950
   38CHL1  H27C 2812   0.600   0.702   4.498 -0.3283 -0.4947  0.0735
   39CHL1    C3 2813   6.726   0.763   2.940  0.1455  0.2654  0.3573
   39CHL1    H3 2814   6.645   0.723   3.004  0.0678  0.9131  0.6779
   39CHL1    O3 2815   6.700   0.756   2.801  0.2640  0.4906 -0.2892
   39CHL1   H3' 2816   6.772   0.789   2.747 -1.0472  0.1885 -2.3588
   39CHL1    C4 2817   6.733   0.914   2.980  0.3314 -0.2427  0.0191
   39CHL1   H4A 2818   6.811   0.955   2.913  1.0151 -0.4892  0.6514
   39CHL1   H4B 2819   6.639   0.963   2.947 -0.8516 -1.2489  1.7159
   39CHL1    C5 2820   6.771   0.936   3.126  0.2367 -0.5230  0.7420
   39CHL1    C6 2821   6.696   1.015   3.207  0.4046 -0.5523  0.6497
   39CHL1    H6 2822   6.608   1.069   3.168  1.2403 -0.0806 -0.6224
   39CHL1    C7 2823   6.722   1.043   3.351 -0.0298 -0.3300 -0.0433
   39CHL1   H7A 2824   6.720   1.152   3.376 -0.2373  0.6528 -3.7684
   39CHL1   H7B 2825   6.656   0.985   3.420 -2.2186 -1.8839 -3.1716
   39CHL1    C8 2826   6.863   0.990   3.388  0.2489 -0.3077  0.4529
   39CHL1    H8 2827   6.929   1.067   3.342 -0.1010  0.8003  1.7312
   39CHL1   C14 2828   6.883   0.987   3.541  0.3997  0.0554 -0.2129
   39CHL1   H14 2829   6.825   0.897   3.573 -1.9278  1.6908  0.3937
   39CHL1   C15 2830   6.825   1.102   3.625 -0.4986  0.3256 -0.3698
   39CHL1  H15A 2831   6.870   1.195   3.586 -1.2649  1.9293  2.3751
   39CHL1  H15B 2832   6.714   1.106   3.634 -0.3606 -0.2094  2.6734
   39CHL1   C16 2833   6.899   1.081   3.756 -0.2428 -0.0891 -0.1885
   39CHL1  H16A 2834   6.953   1.176   3.773  1.5801 -0.9694 -0.7828
   39CHL1  H16B 2835   6.828   1.063   3.840  0.6667  0.1263  0.6496
   39CHL1   C17 2836   7.003   0.960   3.741 -0.2204  0.0384 -0.7049
   39CHL1   H17 2837   6.960   0.860   3.765 -2.1593  1.0708  0.3637
   39CHL1   C13 2838   7.024   0.959   3.588 -0.3101  0.3161  0.1298
   39CHL1   C18 2839   7.125   1.075   3.542 -0.2530  0.5796  0.0887
   39CHL1  H18A 2840   7.108   1.083   3.433  0.8302  0.6134 -0.0875
   39CHL1  H18B 2841   7.103   1.172   3.592  1.6571  0.3265  1.5360
   39CHL1  H18C 2842   7.232   1.046   3.550 -0.9758 -2.3645  0.4997
   39CHL1   C12 2843   7.067   0.823   3.529 -0.6112  0.1220 -0.1641
   39CHL1  H12A 2844   7.174   0.795   3.523 -0.8858 -0.5939 -4.5417
   39CHL1  H12B 2845   7.022   0.734   3.579 -3.3914  1.2217 -0.5379
   39CHL1   C11 2846   7.044   0.811   3.372 -0.3255 -0.0907 -0.0477
   39CHL1  H11A 2847   7.126   0.881   3.344  0.3861 -0.8540  0.1075
   39CHL1  H11B 2848   7.070   0.713   3.328  0.1488 -1.3620  2.8608
   39CHL1    C9 2849   6.902   0.852   3.325 -0.0356  0.1334  0.0677
   39CHL1    H9 2850   6.826   0.780   3.360 -1.6118  1.3963 -0.6276
   39CHL1   C10 2851   6.900   0.857   3.171 -0.5796 -0.1884  0.2537
   39CHL1   C19 2852   7.013   0.937   3.111  0.2361 -0.2689  1.1683
   39CHL1  H19A 2853   6.999   0.981   3.010 -1.7304  2.5756  2.5350
   39CHL1  H19B 2854   7.011   1.029   3.174 -2.2447 -0.5925  1.6467
   39CHL1  H19C 2855   7.115   0.894   3.122  1.9471  2.7777 -1.0329
   39CHL1    C1 2856   6.893   0.709   3.111  0.9933 -0.2237  0.0416
   39CHL1   H1A 2857   6.982   0.646   3.131  1.7211  0.8737  0.3591
   39CHL1   H1B 2858   6.809   0.664   3.167  1.3305 -1.6413 -0.5463
   39CHL1    C2 2859   6.866   0.704   2.964  0.9800 -0.0530  0.1660
   39CHL1   H2A 2860   6.860   0.599   2.928  0.2011 -0.3740  1.1813
   39CHL1   H2B 2861   6.936   0.760   2.899  0.6331  0.8754  0.5772
   39CHL1   C20 2862   7.133   0.980   3.820  0.1029 -0.7286  0.3698
   39CHL1   H20 2863   7.191   1.064   3.776 -0.6403 -0.8246 -0.8407
   39CHL1   C21 2864   7.231   0.861   3.805 -0.3606  0.4241 -0.1651
   39CHL1  H21A 2865   7.320   0.887   3.866 -0.0846 -0.8041 -0.0319
   39CHL1  H21B 2866   7.276   0.840   3.705 -0.6220  1.4278 -0.5067
   39CHL1  H21C 2867   7.183   0.770   3.846 -0.0696  0.5544  0.4802
   39CHL1   C22 2868   7.108   1.015   3.959 -0.2454 -0.4729  0.2032
   39CHL1  H22A 2869   7.035   1.097   3.969  2.2109  1.7839  0.5618
   39CHL1  H22B 2870   7.057   0.923   3.996 -1.5318  0.9723  2.1642
   39CHL1   C23 2871   7.216   1.058   4.043 -0.6140  0.0145 -0.5520
   39CHL1  H23A 2872   7.271   0.975   4.091  0.2742  1.2212  0.5940
   39CHL1  H23B 2873   7.276   1.127   3.980  1.1925  0.7848  1.8460
   39CHL1   C24 2874   7.157   1.138   4.164  1.0537  0.7792  0.0038
   39CHL1  H24A 2875   7.114   1.238   4.140 -1.5973 -0.8958 -3.0471
   39CHL1  H24B 2876   7.064   1.086   4.197  1.0830 -0.7262 -2.0569
   39CHL1   C25 2877   7.248   1.148   4.288  0.2329  0.3130  0.3342
   39CHL1   H25 2878   7.284   1.046   4.313 -0.6003 -0.0476  0.0949
   39CHL1   C26 2879   7.369   1.240   4.263 -0.4519  0.5003  0.5849
   39CHL1  H26A 2880   7.430   1.205   4.177 -2.4487 -1.2629 -0.1774
   39CHL1  H26B 2881   7.330   1.341   4.237  3.2782  1.8968 -0.3126
   39CHL1  H26C 2882   7.433   1.262   4.351  1.0426 -2.1753  0.2735
   39CHL1   C27 2883   7.167   1.203   4.413  0.4731 -0.1267  0.8145
   39CHL1  H27A 2884   7.103   1.292   4.395 -0.1535 -0.7702 -0.2744
   39CHL1  H27B 2885   7.090   1.125   4.431 -0.2688  0.3057 -0.3299
   39CHL1  H27C 2886   7.239   1.214   4.497  1.8301  2.5874 -0.5499
   40CHL1    C3 2887   0.674   4.053   3.124 -0.5515  0.3093 -0.4465
   40CHL1    H3 2888   0.574   4.015   3.094  0.5127 -2.0403 -1.2022
   40CHL1    O3 2889   0.756   4.035   3.006  0.7434  0.4778  0.2204
   40CHL1   H3' 2890   0.844   4.047   3.043  0.0823  0.1182  1.9971
   40CHL1    C4 2891   0.675   4.201   3.157 -0.0301  0.0912  0.3932
   40CHL1   H4A 2892   0.781   4.235   3.163 -0.2057  0.5818  0.7585
   40CHL1   H4B 2893   0.640   4.262   3.071 -1.2805  1.3442  1.7294
   40CHL1    C5 2894   0.595   4.226   3.290 -0.4382  0.2503  0.4176
   40CHL1    C6 2895   0.486   4.301   3.300  0.4805  0.0735  0.3716
   40CHL1    H6 2896   0.447   4.344   3.206 -0.3440 -2.5451 -0.5937
   40CHL1    C7 2897   0.414   4.330   3.424 -0.1832 -0.2483  0.1794
   40CHL1   H7A 2898   0.409   4.440   3.434  1.0274 -0.1774  0.2289
   40CHL1   H7B 2899   0.311   4.289   3.423 -0.8811  1.3070  2.1824
   40CHL1    C8 2900   0.500   4.285   3.543 -0.0821  0.9499  0.8252
   40CHL1    H8 2901   0.582   4.358   3.557 -0.1268  1.2429 -0.3056
   40CHL1   C14 2902   0.421   4.286   3.669  0.4439 -0.2681 -0.5017
   40CHL1   H14 2903   0.338   4.217   3.644 -0.0167  0.8352 -2.1556
   40CHL1   C15 2904   0.350   4.413   3.703  0.0928 -0.1250 -0.0563
   40CHL1  H15A 2905   0.416   4.502   3.705  0.1322 -0.1604  0.4025
   40CHL1  H15B 2906   0.265   4.420   3.632 -0.4586 -0.6375  0.5427
   40CHL1   C16 2907   0.291   4.398   3.848 -0.2958  0.1207  0.1249
   40CHL1  H16A 2908   0.317   4.490   3.905  1.4116 -1.2027  1.5935
   40CHL1  H16B 2909   0.180   4.388   3.838 -0.3496  0.2257  0.6195
   40CHL1   C17 2910   0.361   4.266   3.904  0.4289  0.5092 -0.6179
   40CHL1   H17 2911   0.288   4.183   3.892  0.7654 -0.0355  0.8878
   40CHL1   C13 2912   0.484   4.243   3.806 -0.9821  0.0283  0.4010
   40CHL1   C18 2913   0.600   4.346   3.840 -0.1113  0.2881  0.2968
   40CHL1  H18A 2914   0.680   4.360   3.764  0.9785  0.9850  1.5405
   40CHL1  H18B 2915   0.557   4.443   3.870 -2.6173 -0.1311 -1.5897
   40CHL1  H18C 2916   0.649   4.306   3.931 -1.2362 -0.7462  0.4766
   40CHL1   C12 2917   0.542   4.101   3.787  0.0338 -0.0283 -0.6913
   40CHL1  H12A 2918   0.612   4.081   3.872  1.1899  0.2266 -1.5645
   40CHL1  H12B 2919   0.466   4.021   3.777 -1.7315  1.5999 -0.9131
   40CHL1   C11 2920   0.630   4.094   3.667 -0.4890  0.2655 -1.0733
   40CHL1  H11A 2921   0.724   4.146   3.696 -0.6078 -0.7739  1.3339
   40CHL1  H11B 2922   0.665   3.989   3.658 -0.0345 -0.2300  3.9578
   40CHL1    C9 2923   0.563   4.149   3.531 -0.4581  0.2911  0.4226
   40CHL1    H9 2924   0.474   4.084   3.514 -0.3887 -0.3718  2.3441
   40CHL1   C10 2925   0.659   4.147   3.404 -0.0790 -0.3647 -0.1295
   40CHL1   C19 2926   0.796   4.210   3.444  0.5281  0.1984  0.4386
   40CHL1  H19A 2927   0.785   4.313   3.485  3.9735  0.8868 -0.1182
   40CHL1  H19B 2928   0.842   4.137   3.514  0.3442 -1.2835 -0.9168
   40CHL1  H19C 2929   0.872   4.212   3.364  2.0885 -1.9433  1.7505
   40CHL1    C1 2930   0.673   3.995   3.365  0.6597  0.1190  0.3282
   40CHL1   H1A 2931   0.741   3.949   3.439  1.3666  0.6647  0.0287
   40CHL1   H1B 2932   0.572   3.949   3.368  0.3437  0.6158 -1.4746
   40CHL1    C2 2933   0.740   3.969   3.233  0.7201 -0.2517 -0.4468
   40CHL1   H2A 2934   0.735   3.861   3.206  0.3359 -0.2120 -0.5374
   40CHL1   H2B 2935   0.844   3.999   3.254  0.1545  1.5857 -0.0750
   40CHL1   C20 2936   0.378   4.275   4.061  0.0118  0.1265  0.0514
   40CHL1   H20 2937   0.461   4.348   4.078  0.6427 -0.6396  0.3445
   40CHL1   C21 2938   0.427   4.144   4.116 -0.7189 -0.8033 -0.2559
   40CHL1  H21A 2939   0.426   4.138   4.227  0.2688 -1.2040 -0.2641
   40CHL1  H21B 2940   0.532   4.132   4.083 -0.1345  2.2437  0.1872
   40CHL1  H21C 2941   0.371   4.053   4.088 -0.0952 -1.9425  1.9654
   40CHL1   C22 2942   0.262   4.322   4.149  0.9477  0.6557 -0.4241
   40CHL1  H22A 2943   0.286   4.310   4.257  0.3207 -1.0187 -0.4371
   40CHL1  H22B 2944   0.247   4.430   4.130  1.1425  0.3646 -2.5246
   40CHL1   C23 2945   0.122   4.254   4.134 -0.0437  0.4922 -0.3289
   40CHL1  H23A 2946   0.110   4.217   4.030  4.0755 -0.3159 -0.6703
   40CHL1  H23B 2947   0.132   4.154   4.180  1.8051 -0.1634 -2.0081
   40CHL1   C24 2948   0.008   4.347   4.179  0.5676  0.3434  0.7931
   40CHL1  H24A 2949   0.028   4.381   4.283  0.2608 -1.5161  1.4912
   40CHL1  H24B 2950  -0.004   4.436   4.113 -2.6220 -0.2003  0.4852
   40CHL1   C25 2951  -0.128   4.278   4.183 -0.0512  0.5626  0.0720
   40CHL1   H25 2952  -0.198   4.352   4.227 -0.3333 -0.0125  0.5990
   40CHL1   C26 2953  -0.190   4.231   4.048 -0.4215  0.1512 -0.3680
   40CHL1  H26A 2954  -0.118   4.169   3.990 -0.9238  0.4561 -1.3331
   40CHL1  H26B 2955  -0.283   4.172   4.064  1.1581 -2.1794  0.8606
   40CHL1  H26C 2956  -0.211   4.311   3.974  1.9835  0.5151 -0.7390
   40CHL1   C27 2957  -0.110   4.158   4.284  0.4838 -0.2424  0.5534
   40CHL1  H27A 2958  -0.062   4.189   4.379 -0.0956  1.7648  0.2345
   40CHL1  H27B 2959  -0.209   4.111   4.299 -1.1459  1.9992 -2.1248
   40CHL1  H27C 2960  -0.049   4.076   4.238  0.9561 -1.7060  3.5721
   41CHL1    C3 2961   2.545   2.367   3.057 -0.6799 -0.0155 -0.8528
   41CHL1    H3 2962   2.477   2.433   3.115 -1.1152 -2.7350  1.9995
   41CHL1    O3 2963   2.547   2.398   2.923  0.0686 -0.7350 -0.3825
   41CHL1   H3' 2964   2.531   2.314   2.879  0.4705 -0.1819 -1.6406
   41CHL1    C4 2965   2.689   2.374   3.121 -0.2362 -0.1602  0.3760
   41CHL1   H4A 2966   2.763   2.327   3.053 -0.3574 -0.5892  0.5379
   41CHL1   H4B 2967   2.720   2.480   3.111  0.7156 -0.4459  0.1664
   41CHL1    C5 2968   2.693   2.312   3.259 -0.5065 -0.5693  1.0975
   41CHL1    C6 2969   2.735   2.386   3.364 -0.0317  0.2107  0.3236
   41CHL1    H6 2970   2.769   2.490   3.351  0.4767  0.1913  1.3911
   41CHL1    C7 2971   2.745   2.333   3.503  0.4594  0.4581 -0.0447
   41CHL1   H7A 2972   2.846   2.359   3.543  0.3608  1.9001 -0.6515
   41CHL1   H7B 2973   2.659   2.381   3.553  1.9729  0.6974  2.5179
   41CHL1    C8 2974   2.736   2.182   3.517 -0.0494  0.4506  0.1737
   41CHL1    H8 2975   2.828   2.128   3.487 -0.6067 -0.0096 -0.7699
   41CHL1   C14 2976   2.688   2.141   3.661  0.6059  0.6057  0.1207
   41CHL1   H14 2977   2.579   2.162   3.671 -0.3595 -3.2852 -0.5575
   41CHL1   C15 2978   2.761   2.202   3.777  0.0448 -0.2734 -0.6942
   41CHL1  H15A 2979   2.870   2.200   3.755 -0.1267  0.1149 -1.6226
   41CHL1  H15B 2980   2.728   2.305   3.802 -2.3251 -1.1545  0.0263
   41CHL1   C16 2981   2.738   2.104   3.898 -0.2360  0.5370  0.0460
   41CHL1  H16A 2982   2.833   2.051   3.921 -0.1701  1.2433  1.5816
   41CHL1  H16B 2983   2.689   2.145   3.989 -1.1595 -1.6418  0.5913
   41CHL1   C17 2984   2.656   1.982   3.839  0.3327  0.3306 -0.2152
   41CHL1   H17 2985   2.549   2.005   3.857 -0.2396 -1.4276 -1.0808
   41CHL1   C13 2986   2.683   1.992   3.684 -0.1118 -0.4546  0.2885
   41CHL1   C18 2987   2.820   1.927   3.656 -0.6526 -0.5541  0.0090
   41CHL1  H18A 2988   2.804   1.818   3.661  1.7534 -1.0555 -1.3825
   41CHL1  H18B 2989   2.849   1.951   3.551  0.0879  0.8397  0.5029
   41CHL1  H18C 2990   2.898   1.961   3.728  1.5015 -0.7804 -2.0907
   41CHL1   C12 2991   2.573   1.934   3.585 -0.1182  0.0076 -0.0211
   41CHL1  H12A 2992   2.591   1.825   3.594  0.9758  0.0059 -1.7355
   41CHL1  H12B 2993   2.471   1.960   3.622 -0.6328 -0.7896 -0.8584
   41CHL1   C11 2994   2.604   1.977   3.447 -0.8831  0.3860 -0.0096
   41CHL1  H11A 2995   2.691   1.916   3.415 -1.9663 -0.2650 -1.9495
   41CHL1  H11B 2996   2.516   1.947   3.386 -0.4123  1.3385 -1.2057
   41CHL1    C9 2997   2.631   2.125   3.418  0.5232 -0.4427  0.4283
   41CHL1    H9 2998   2.535   2.171   3.451 -0.3689 -1.8341 -0.1458
   41CHL1   C10 2999   2.641   2.167   3.269 -0.2526  0.0647  0.3096
   41CHL1   C19 3000   2.743   2.072   3.203  0.0407 -0.6744 -0.1161
   41CHL1  H19A 3001   2.769   2.106   3.100  0.7731  0.1227  0.3221
   41CHL1  H19B 3002   2.835   2.060   3.263  0.0066  1.4832  0.4239
   41CHL1  H19C 3003   2.703   1.968   3.194 -0.1489 -0.5473 -0.7932
   41CHL1    C1 3004   2.503   2.166   3.203  0.4015  0.8286 -0.3319
   41CHL1   H1A 3005   2.469   2.060   3.198 -0.1168  0.9658  0.1786
   41CHL1   H1B 3006   2.431   2.220   3.267 -2.1890 -1.2097 -1.3420
   41CHL1    C2 3007   2.495   2.220   3.058  0.3858 -0.3063  0.2000
   41CHL1   H2A 3008   2.391   2.211   3.019  0.7108  1.7609 -1.3114
   41CHL1   H2B 3009   2.564   2.164   2.991  1.0525  0.9969 -0.2518
   41CHL1   C20 3010   2.681   1.854   3.923 -0.2891  0.2522  0.1052
   41CHL1   H20 3011   2.790   1.842   3.910 -0.0898  1.2836  0.6633
   41CHL1   C21 3012   2.589   1.743   3.861  0.0517  0.2994 -0.0636
   41CHL1  H21A 3013   2.484   1.781   3.868 -0.2253 -0.4578 -0.0497
   41CHL1  H21B 3014   2.577   1.645   3.912 -2.4971 -0.5483 -2.0841
   41CHL1  H21C 3015   2.611   1.727   3.753  0.7747 -0.2339  0.1639
   41CHL1   C22 3016   2.644   1.867   4.072 -0.4956 -0.3225  0.4947
   41CHL1  H22A 3017   2.706   1.945   4.121 -0.1180 -0.2216 -0.1370
   41CHL1  H22B 3018   2.540   1.904   4.082 -0.5526 -0.8048  2.0278
   41CHL1   C23 3019   2.667   1.739   4.155  0.7329  0.1900  0.2657
   41CHL1  H23A 3020   2.595   1.659   4.126  0.4369  0.6287 -0.2590
   41CHL1  H23B 3021   2.770   1.699   4.154  1.3425  1.6361  1.1831
   41CHL1   C24 3022   2.626   1.771   4.305  0.2827  0.2042 -0.3617
   41CHL1  H24A 3023   2.702   1.836   4.352 -1.7239  2.2945  0.1448
   41CHL1  H24B 3024   2.532   1.830   4.302 -0.0627 -0.2780  0.5293
   41CHL1   C25 3025   2.619   1.647   4.401 -0.3207 -0.3907 -0.2841
   41CHL1   H25 3026   2.560   1.575   4.340 -1.9203  0.6963 -0.0838
   41CHL1   C26 3027   2.759   1.590   4.444  0.5398  0.8132  0.2629
   41CHL1  H26A 3028   2.742   1.516   4.525  0.0391 -0.1192 -0.6781
   41CHL1  H26B 3029   2.810   1.536   4.362 -0.0032 -2.1414  1.7229
   41CHL1  H26C 3030   2.825   1.676   4.468  0.7507  0.8091 -0.2980
   41CHL1   C27 3031   2.531   1.685   4.526  0.0733 -0.1902  0.5118
   41CHL1  H27A 3032   2.430   1.718   4.495 -0.0582 -0.5670  0.5391
   41CHL1  H27B 3033   2.515   1.603   4.599  3.1467  0.5844  2.2711
   41CHL1  H27C 3034   2.577   1.770   4.581  1.9912 -1.6412  1.2790
   42CHL1    C3 3035   5.684   6.728   2.752 -0.6443 -0.2992 -0.5543
   42CHL1    H3 3036   5.599   6.751   2.820 -1.2659 -1.7304 -0.8026
   42CHL1    O3 3037   5.651   6.718   2.618  0.5076  0.0315  0.1952
   42CHL1   H3' 3038   5.584   6.786   2.601 -0.6828 -0.6281  1.9766
   42CHL1    C4 3039   5.788   6.831   2.780 -0.7913 -0.2436 -0.2272
   42CHL1   H4A 3040   5.883   6.797   2.733 -0.6426  1.1356 -0.9893
   42CHL1   H4B 3041   5.755   6.930   2.739 -1.7001 -0.8403 -0.9928
   42CHL1    C5 3042   5.818   6.840   2.924  0.8846  0.1202 -0.1624
   42CHL1    C6 3043   5.809   6.957   2.983 -0.2832 -0.2664 -0.0388
   42CHL1    H6 3044   5.789   7.049   2.926  0.9737 -0.2439 -0.4887
   42CHL1    C7 3045   5.841   6.976   3.129  0.3833  0.5105 -0.6395
   42CHL1   H7A 3046   5.912   7.061   3.139 -0.3702  1.0679  0.0952
   42CHL1   H7B 3047   5.742   6.992   3.177  0.0593  1.3942 -1.5614
   42CHL1    C8 3048   5.907   6.850   3.203  1.3246 -0.8393 -0.3935
   42CHL1    H8 3049   6.016   6.856   3.181  2.2257 -1.8314  3.1399
   42CHL1   C14 3050   5.906   6.854   3.359  0.1115  0.5019 -0.2221
   42CHL1   H14 3051   5.796   6.850   3.372 -0.2246  1.4852 -2.3680
   42CHL1   C15 3052   5.952   6.979   3.432 -0.4296 -0.2692  0.6179
   42CHL1  H15A 3053   6.054   6.997   3.390 -1.4220 -0.3193 -1.9934
   42CHL1  H15B 3054   5.900   7.073   3.408  0.8480 -0.0416 -1.5623
   42CHL1   C16 3055   5.963   6.935   3.582 -0.0870  0.0750  0.0623
   42CHL1  H16A 3056   6.065   6.970   3.606 -0.4072  0.7338  0.5168
   42CHL1  H16B 3057   5.894   6.985   3.654  0.0628  0.9761 -0.4135
   42CHL1   C17 3058   5.949   6.783   3.583  0.3835 -0.5986  0.7433
   42CHL1   H17 3059   5.839   6.777   3.602  0.0825 -0.6808 -0.8919
   42CHL1   C13 3060   5.962   6.733   3.435 -0.7144 -0.0914  1.2921
   42CHL1   C18 3061   6.112   6.716   3.403 -0.1168 -0.2652  0.3375
   42CHL1  H18A 3062   6.129   6.702   3.294  2.7542 -0.0739  0.6830
   42CHL1  H18B 3063   6.166   6.810   3.428 -1.6268  0.9344 -0.6566
   42CHL1  H18C 3064   6.160   6.630   3.454  0.4908 -0.5120 -0.6282
   42CHL1   C12 3065   5.882   6.615   3.386 -0.2366  0.2300  0.5962
   42CHL1  H12A 3066   5.918   6.524   3.437  0.7114 -0.5015 -1.2616
   42CHL1  H12B 3067   5.775   6.621   3.415 -1.0976 -2.0053 -1.6357
   42CHL1   C11 3068   5.885   6.595   3.231 -0.4256  0.0457 -0.8164
   42CHL1  H11A 3069   5.980   6.546   3.201 -0.4623 -1.0402  0.7346
   42CHL1  H11B 3070   5.803   6.522   3.214 -1.5832  1.3281 -0.9819
   42CHL1    C9 3071   5.846   6.722   3.149 -0.1878  0.2431 -0.6433
   42CHL1    H9 3072   5.736   6.721   3.165 -0.1218 -1.5576 -0.0238
   42CHL1   C10 3073   5.852   6.702   2.993  0.2551 -0.0858 -1.0397
   42CHL1   C19 3074   5.988   6.668   2.948 -0.2209  0.0209  0.2568
   42CHL1  H19A 3075   6.043   6.602   3.018  0.6421  0.9083  0.4427
   42CHL1  H19B 3076   5.998   6.620   2.848  3.7032  0.6779  0.1609
   42CHL1  H19C 3077   6.063   6.750   2.943 -1.0845  0.7578 -1.8272
   42CHL1    C1 3078   5.738   6.596   2.955  0.3670  0.7900  0.3549
   42CHL1   H1A 3079   5.757   6.495   2.996 -0.7057  0.3444 -0.2206
   42CHL1   H1B 3080   5.638   6.625   2.995 -1.0434 -2.0049 -0.9181
   42CHL1    C2 3081   5.716   6.586   2.801 -0.7064  0.4071 -0.4494
   42CHL1   H2A 3082   5.621   6.531   2.783  0.5508 -1.3691 -2.0673
   42CHL1   H2B 3083   5.800   6.548   2.739  1.2279  1.7871  1.1874
   42CHL1   C20 3084   6.033   6.714   3.689 -0.0635 -0.1399 -0.2493
   42CHL1   H20 3085   6.139   6.736   3.667 -0.0114  1.6493  1.5129
   42CHL1   C21 3086   6.022   6.558   3.711  0.5030 -0.3262  0.3058
   42CHL1  H21A 3087   6.109   6.532   3.774  0.4330 -0.1029  0.4967
   42CHL1  H21B 3088   6.025   6.507   3.613 -1.3674  1.9214 -1.0484
   42CHL1  H21C 3089   5.921   6.530   3.747  0.6058  0.8267  1.5941
   42CHL1   C22 3090   6.027   6.784   3.821  0.1708  0.5147 -0.7816
   42CHL1  H22A 3091   6.117   6.746   3.874 -0.6095 -2.4579 -1.4015
   42CHL1  H22B 3092   6.040   6.894   3.825 -1.4593  0.7351 -0.7950
   42CHL1   C23 3093   5.905   6.758   3.908 -0.1996 -0.3114  0.9471
   42CHL1  H23A 3094   5.818   6.798   3.850  0.5098  2.5578  1.7252
   42CHL1  H23B 3095   5.891   6.648   3.921 -0.2434 -0.4119  0.1288
   42CHL1   C24 3096   5.912   6.814   4.049 -0.2339 -0.7068  0.3029
   42CHL1  H24A 3097   5.819   6.782   4.101 -0.6775 -0.4917 -0.3420
   42CHL1  H24B 3098   6.005   6.783   4.100 -0.2372  0.4103  1.0176
   42CHL1   C25 3099   5.917   6.971   4.066 -0.1441 -0.5435  0.4468
   42CHL1   H25 3100   5.968   7.012   3.976  1.1248 -0.2011  1.2946
   42CHL1   C26 3101   5.772   7.024   4.081 -0.0560  0.3144  0.3950
   42CHL1  H26A 3102   5.714   6.992   3.992 -0.0764  0.1600  0.4649
   42CHL1  H26B 3103   5.721   6.999   4.176 -0.7489  0.5059  0.0844
   42CHL1  H26C 3104   5.782   7.135   4.079  2.9008  0.1260 -0.4714
   42CHL1   C27 3105   6.002   7.005   4.188  0.5224  0.9670  0.5983
   42CHL1  H27A 3106   5.945   6.964   4.274  0.1292 -0.4776 -0.3256
   42CHL1  H27B 3107   6.101   6.956   4.187  0.2368  0.2561  2.4478
   42CHL1  H27C 3108   6.006   7.116   4.192  2.0162  1.1067 -2.2618
   43CHL1    C3 3109   0.118   2.471   6.316 -0.5014  0.1977  0.1813
   43CHL1    H3 3110   0.147   2.568   6.269 -0.3761  0.9792  1.7932
   43CHL1    O3 3111   0.096   2.497   6.454 -0.7561  0.3276  0.0686
   43CHL1   H3' 3112   0.071   2.413   6.493  0.5670 -0.7128 -1.2436
   43CHL1    C4 3113  -0.016   2.437   6.250 -0.4864  0.4842  0.0380
   43CHL1   H4A 3114  -0.059   2.349   6.303  1.6330 -0.3344  0.4962
   43CHL1   H4B 3115  -0.089   2.520   6.266 -0.5429  0.5425 -0.5311
   43CHL1    C5 3116   0.001   2.414   6.097 -0.4595  0.1482 -0.5415
   43CHL1    C6 3117  -0.068   2.479   6.001  0.1126 -0.4571 -0.0110
   43CHL1    H6 3118  -0.145   2.551   6.033  0.7798  0.2900 -0.0594
   43CHL1    C7 3119  -0.050   2.464   5.854  0.2221  0.0988  0.1311
   43CHL1   H7A 3120  -0.148   2.457   5.802  0.6527  0.5173 -0.7667
   43CHL1   H7B 3121   0.010   2.552   5.820 -0.2836  0.6897  0.7344
   43CHL1    C8 3122   0.037   2.343   5.817  0.1051  0.1704 -0.1950
   43CHL1    H8 3123  -0.022   2.250   5.826  0.9697 -0.4912 -1.0291
   43CHL1   C14 3124   0.092   2.355   5.675  0.7743  0.0807  0.0762
   43CHL1   H14 3125   0.159   2.444   5.683 -3.5253  3.5029  2.7067
   43CHL1   C15 3126  -0.009   2.384   5.559 -0.6025 -0.0776  0.5941
   43CHL1  H15A 3127  -0.099   2.320   5.570 -0.2572 -0.4258  1.5238
   43CHL1  H15B 3128  -0.039   2.491   5.560  2.1198  0.7750 -0.0726
   43CHL1   C16 3129   0.062   2.334   5.439  0.3215 -0.7567 -0.8083
   43CHL1  H16A 3130  -0.006   2.255   5.399 -0.4492 -1.3823  1.5808
   43CHL1  H16B 3131   0.069   2.407   5.355 -0.1838 -0.5382 -0.6665
   43CHL1   C17 3132   0.198   2.272   5.481  0.4498  0.0791 -0.1159
   43CHL1   H17 3133   0.268   2.357   5.477  0.1044  0.4220  0.7906
   43CHL1   C13 3134   0.174   2.233   5.623  0.2054  0.4949 -0.5013
   43CHL1   C18 3135   0.104   2.097   5.642  0.6686 -0.6144 -0.4684
   43CHL1  H18A 3136   0.174   2.014   5.621 -0.2088 -1.5076  0.0395
   43CHL1  H18B 3137   0.075   2.081   5.748 -0.1584 -0.9123 -0.7310
   43CHL1  H18C 3138   0.016   2.087   5.574  1.2976 -0.5286 -1.3142
   43CHL1   C12 3139   0.304   2.233   5.709  0.1321  0.0389  0.0880
   43CHL1  H12A 3140   0.371   2.146   5.697 -1.3574 -1.3093  1.0504
   43CHL1  H12B 3141   0.360   2.327   5.694  1.5956 -0.8084  0.1072
   43CHL1   C11 3142   0.271   2.233   5.865 -0.1554  0.2408  0.0410
   43CHL1  H11A 3143   0.250   2.126   5.889 -0.0295  0.6588  2.2673
   43CHL1  H11B 3144   0.369   2.251   5.915  1.0706 -1.6637 -1.5244
   43CHL1    C9 3145   0.162   2.325   5.911 -1.0557  0.1573 -0.1232
   43CHL1    H9 3146   0.215   2.423   5.907  0.8182 -0.6636  2.2253
   43CHL1   C10 3147   0.118   2.319   6.065  0.2464 -1.2359 -0.2332
   43CHL1   C19 3148   0.059   2.185   6.093  0.0992  0.2652 -0.7674
   43CHL1  H19A 3149   0.134   2.104   6.084 -0.2397  0.0122 -1.3507
   43CHL1  H19B 3150   0.018   2.168   6.195 -0.7653  1.5635 -0.8840
   43CHL1  H19C 3151  -0.019   2.161   6.018  0.8959  0.8428 -1.8173
   43CHL1    C1 3152   0.239   2.344   6.159  0.0386 -0.3374  0.3116
   43CHL1   H1A 3153   0.318   2.270   6.131  0.7656  1.1669 -1.8916
   43CHL1   H1B 3154   0.279   2.444   6.135  2.2128 -1.4265 -0.9375
   43CHL1    C2 3155   0.221   2.358   6.308 -0.0551  0.1872 -1.2582
   43CHL1   H2A 3156   0.312   2.376   6.369 -0.8273  0.3232 -0.1073
   43CHL1   H2B 3157   0.173   2.264   6.344 -1.0448  1.1558  0.0806
   43CHL1   C20 3158   0.252   2.167   5.384  0.0033  0.6946 -0.2788
   43CHL1   H20 3159   0.181   2.084   5.401  0.8824  0.0320  0.2686
   43CHL1   C21 3160   0.398   2.135   5.410 -0.0211 -0.2832  0.3555
   43CHL1  H21A 3161   0.436   2.066   5.331 -0.6819  1.0704 -1.2155
   43CHL1  H21B 3162   0.407   2.087   5.509  3.8973  0.0012  0.2767
   43CHL1  H21C 3163   0.463   2.225   5.400  0.2188 -0.6727 -2.4045
   43CHL1   C22 3164   0.230   2.206   5.231  0.9299  0.6118  0.1088
   43CHL1  H22A 3165   0.249   2.112   5.175 -0.0230  0.1640  0.5021
   43CHL1  H22B 3166   0.120   2.221   5.222  0.5664 -1.7550 -0.0109
   43CHL1   C23 3167   0.299   2.336   5.186 -0.5458  0.0983 -0.0864
   43CHL1  H23A 3168   0.288   2.404   5.273 -0.6087 -2.2653  1.8754
   43CHL1  H23B 3169   0.407   2.321   5.165 -0.9064 -1.4220 -1.0747
   43CHL1   C24 3170   0.231   2.405   5.065  0.0112  0.4193  0.7144
   43CHL1  H24A 3171   0.128   2.437   5.090 -0.3483  0.2154 -0.4230
   43CHL1  H24B 3172   0.275   2.505   5.041 -1.7220  0.9003 -0.7500
   43CHL1   C25 3173   0.215   2.318   4.938 -0.0613 -0.0479 -0.8194
   43CHL1   H25 3174   0.169   2.222   4.968  0.8719 -0.3188 -0.1758
   43CHL1   C26 3175   0.146   2.394   4.830 -0.4303 -0.2002 -0.1511
   43CHL1  H26A 3176   0.064   2.455   4.871  2.1355  2.7954  0.9481
   43CHL1  H26B 3177   0.204   2.478   4.786 -3.5095  2.9027  1.2898
   43CHL1  H26C 3178   0.106   2.327   4.751 -0.9026  0.6237 -0.6230
   43CHL1   C27 3179   0.342   2.261   4.881 -0.3616  0.1983 -0.2479
   43CHL1  H27A 3180   0.403   2.348   4.848 -4.5045  3.4634 -0.1476
   43CHL1  H27B 3181   0.397   2.200   4.955 -3.1631 -0.2458  1.6481
   43CHL1  H27C 3182   0.317   2.201   4.791 -1.1722  0.3073 -0.1095
   44CHL1    C3 3183   6.936   3.007   2.903  0.3137  0.3418  0.4558
   44CHL1    H3 3184   6.894   3.110   2.898 -2.6879 -0.8475 -1.1854
   44CHL1    O3 3185   6.991   2.956   2.788  0.3343  0.1283  0.1337
   44CHL1   H3' 3186   6.958   3.017   2.722 -1.1604  2.1626  2.6078
   44CHL1    C4 3187   7.020   3.019   3.016 -0.8719  0.4022  0.1331
   44CHL1   H4A 3188   7.099   2.940   3.017 -2.1290 -0.9104 -0.1471
   44CHL1   H4B 3189   7.083   3.107   2.990  0.1590  0.0235  1.2254
   44CHL1    C5 3190   6.970   3.034   3.153 -0.7897  0.0461 -0.2685
   44CHL1    C6 3191   7.012   3.131   3.235  0.5687 -0.5000 -0.4035
   44CHL1    H6 3192   7.094   3.197   3.205  0.1567  1.3622  2.2174
   44CHL1    C7 3193   6.955   3.151   3.374  0.5052  0.2304  0.1825
   44CHL1   H7A 3194   7.032   3.180   3.448  1.9357 -0.7825 -0.8584
   44CHL1   H7B 3195   6.884   3.236   3.367  1.4332  0.9566 -0.8532
   44CHL1    C8 3196   6.866   3.035   3.432 -0.5631 -0.1857  0.0344
   44CHL1    H8 3197   6.930   2.945   3.445  0.0028  0.0528 -1.0424
   44CHL1   C14 3198   6.798   3.055   3.564  0.7068  0.2887  0.3934
   44CHL1   H14 3199   6.723   3.136   3.558 -0.9044 -1.2288 -1.5946
   44CHL1   C15 3200   6.885   3.096   3.680 -0.0825 -0.0898  0.1903
   44CHL1  H15A 3201   6.966   3.024   3.704  2.0099  1.6571 -1.2701
   44CHL1  H15B 3202   6.940   3.192   3.673  0.7536 -0.4628  1.3563
   44CHL1   C16 3203   6.796   3.086   3.800  0.4174 -0.0026 -0.0111
   44CHL1  H16A 3204   6.843   3.020   3.876  0.4047 -1.5008 -1.2612
   44CHL1  H16B 3205   6.772   3.189   3.835 -2.2628 -0.5432 -0.0368
   44CHL1   C17 3206   6.666   3.015   3.749  0.3231  0.5066 -0.0586
   44CHL1   H17 3207   6.586   3.085   3.716 -0.9113 -0.9710 -0.3350
   44CHL1   C13 3208   6.717   2.939   3.617 -0.6818  0.0806  0.6547
   44CHL1   C18 3209   6.813   2.815   3.648  0.0318  0.2029 -0.1854
   44CHL1  H18A 3210   6.882   2.790   3.565  1.9459  1.4026  0.9733
   44CHL1  H18B 3211   6.878   2.843   3.733  1.0982  0.0472 -0.9269
   44CHL1  H18C 3212   6.759   2.721   3.672  0.8945 -0.2843 -0.0866
   44CHL1   C12 3213   6.616   2.902   3.514  0.0488  0.6784  0.5040
   44CHL1  H12A 3214   6.560   2.809   3.539  0.8493  0.7303  2.6516
   44CHL1  H12B 3215   6.535   2.978   3.515 -1.6800 -0.9113 -2.1838
   44CHL1   C11 3216   6.680   2.876   3.379  0.3783 -0.6818  0.6642
   44CHL1  H11A 3217   6.719   2.774   3.400 -2.3827 -1.8183  0.6614
   44CHL1  H11B 3218   6.598   2.858   3.307 -0.2832  2.5113  0.4630
   44CHL1    C9 3219   6.776   2.987   3.321  0.6790 -0.1709 -0.6161
   44CHL1    H9 3220   6.700   3.065   3.298 -1.9677 -1.9470  1.4799
   44CHL1   C10 3221   6.851   2.945   3.187  0.0874 -1.0520 -0.3520
   44CHL1   C19 3222   6.909   2.805   3.212 -0.0505 -0.2023  0.6301
   44CHL1  H19A 3223   6.977   2.806   3.300  1.2242  0.4662 -0.3233
   44CHL1  H19B 3224   6.830   2.727   3.221 -1.6144  1.2841  0.3345
   44CHL1  H19C 3225   6.957   2.776   3.117 -1.8013  1.0513 -0.7124
   44CHL1    C1 3226   6.748   2.952   3.073 -1.0348 -0.4945  0.2623
   44CHL1   H1A 3227   6.666   2.880   3.091 -0.0041 -1.7677  0.0084
   44CHL1   H1B 3228   6.710   3.056   3.071 -0.9952 -0.4056  2.1650
   44CHL1    C2 3229   6.808   2.921   2.934 -0.0416  0.0035  0.0932
   44CHL1   H2A 3230   6.733   2.936   2.853  1.5240  0.5867 -1.3065
   44CHL1   H2B 3231   6.847   2.817   2.923  1.0704  0.1206  2.3049
   44CHL1   C20 3232   6.602   2.922   3.853  0.1597  0.5559  0.4338
   44CHL1   H20 3233   6.684   2.851   3.877  0.0490  0.5148  0.6962
   44CHL1   C21 3234   6.486   2.834   3.802  0.4852  0.4887 -0.1558
   44CHL1  H21A 3235   6.435   2.784   3.887  0.3943 -1.2521 -1.1864
   44CHL1  H21B 3236   6.525   2.748   3.744 -1.9500 -1.3434  0.7553
   44CHL1  H21C 3237   6.410   2.883   3.738  0.0336 -1.0120 -0.8075
   44CHL1   C22 3238   6.575   2.999   3.985  0.1008 -0.4075 -0.3422
   44CHL1  H22A 3239   6.664   3.059   4.016 -0.6965  0.6658 -0.0787
   44CHL1  H22B 3240   6.499   3.071   3.950  0.3154 -0.9633 -2.0572
   44CHL1   C23 3241   6.528   2.919   4.104  0.2345  0.0643  0.6945
   44CHL1  H23A 3242   6.428   2.879   4.076  0.0290  2.8369 -3.2621
   44CHL1  H23B 3243   6.606   2.846   4.135  1.1949  0.6014 -0.4174
   44CHL1   C24 3244   6.508   2.998   4.237  0.0026  0.1293  0.5783
   44CHL1  H24A 3245   6.600   3.037   4.286 -0.2169  1.1391  0.2216
   44CHL1  H24B 3246   6.451   3.091   4.216 -0.7972 -0.1329  1.5814
   44CHL1   C25 3247   6.414   2.937   4.342  0.4680 -0.0407  0.6447
   44CHL1   H25 3248   6.318   2.915   4.290  0.6294 -1.2656  0.8396
   44CHL1   C26 3249   6.461   2.805   4.405  0.7041  0.9963  0.3552
   44CHL1  H26A 3250   6.383   2.754   4.464  2.4283 -2.0555  0.1982
   44CHL1  H26B 3251   6.490   2.735   4.324 -1.9417  1.3019 -0.9481
   44CHL1  H26C 3252   6.551   2.828   4.467 -0.6042  2.0867  1.9404
   44CHL1   C27 3253   6.379   3.036   4.454  0.7481 -0.1313  0.0406
   44CHL1  H27A 3254   6.314   2.998   4.536 -0.6003 -2.0379 -1.7946
   44CHL1  H27B 3255   6.471   3.074   4.503 -0.5285 -0.3569  2.8103
   44CHL1  H27C 3256   6.326   3.124   4.412 -1.0431 -1.6257 -0.9757
   45CHL1    C3 3257   0.443   0.900   2.954 -0.0548  0.1862 -0.3368
   45CHL1    H3 3258   0.501   0.808   2.971 -2.4294 -1.2543  0.4923
   45CHL1    O3 3259   0.377   0.891   2.833  0.4064 -0.1003 -0.2470
   45CHL1   H3' 3260   0.291   0.858   2.860 -0.6360  1.0807 -1.8803
   45CHL1    C4 3261   0.333   0.919   3.055 -0.5142 -0.1916 -0.2015
   45CHL1   H4A 3262   0.267   0.996   3.010  1.3337  0.9633 -1.0245
   45CHL1   H4B 3263   0.280   0.821   3.050 -1.0489 -0.1762  2.8708
   45CHL1    C5 3264   0.364   0.965   3.196 -0.0507  0.7037 -0.0321
   45CHL1    C6 3265   0.343   0.891   3.308 -0.2631  0.6175  0.0063
   45CHL1    H6 3266   0.290   0.794   3.303 -2.9577  2.0289 -0.7281
   45CHL1    C7 3267   0.384   0.939   3.447  0.2565 -0.3483  0.6718
   45CHL1   H7A 3268   0.307   0.917   3.524  0.5686  0.3062  1.1812
   45CHL1   H7B 3269   0.478   0.885   3.473  0.8110  0.6586  0.8330
   45CHL1    C8 3270   0.423   1.086   3.449  0.2690  0.2728  0.2003
   45CHL1    H8 3271   0.330   1.148   3.443 -1.2495 -1.5861  2.5837
   45CHL1   C14 3272   0.499   1.110   3.579  0.1078 -0.1151  0.4727
   45CHL1   H14 3273   0.593   1.052   3.581  0.2081  0.0306  0.0840
   45CHL1   C15 3274   0.422   1.047   3.705  0.2612 -0.3630  0.3988
   45CHL1  H15A 3275   0.319   1.078   3.681  0.8206  0.4663 -1.0884
   45CHL1  H15B 3276   0.449   0.940   3.693 -0.5213 -0.7439  1.9019
   45CHL1   C16 3277   0.499   1.111   3.823  0.8921 -0.2120  0.1157
   45CHL1  H16A 3278   0.424   1.144   3.899  0.2734  0.1862 -0.6534
   45CHL1  H16B 3279   0.572   1.040   3.868  2.2839  0.9047 -0.3565
   45CHL1   C17 3280   0.581   1.235   3.758 -0.5788 -0.4468 -0.0691
   45CHL1   H17 3281   0.682   1.191   3.747 -1.1885 -1.9274 -0.0189
   45CHL1   C13 3282   0.532   1.257   3.615  0.2599 -0.3598 -0.0655
   45CHL1   C18 3283   0.402   1.347   3.616  0.5217 -0.6615 -0.5592
   45CHL1  H18A 3284   0.328   1.338   3.534 -0.1705 -1.0795  0.0879
   45CHL1  H18B 3285   0.339   1.322   3.705  0.1461  1.5295 -0.1526
   45CHL1  H18C 3286   0.420   1.456   3.625  1.0242 -0.7558 -0.4124
   45CHL1   C12 3287   0.618   1.314   3.498 -0.1003 -0.0903 -0.2059
   45CHL1  H12A 3288   0.638   1.423   3.509  0.0098  0.2507 -2.9710
   45CHL1  H12B 3289   0.715   1.262   3.487  0.0642  0.2271 -0.2694
   45CHL1   C11 3290   0.558   1.285   3.357  0.0524  0.1252 -0.3029
   45CHL1  H11A 3291   0.475   1.357   3.344 -0.0377  0.1191  0.1931
   45CHL1  H11B 3292   0.631   1.313   3.278 -2.5925 -0.5870 -3.2109
   45CHL1    C9 3293   0.512   1.135   3.334  0.3737 -0.2296 -0.2726
   45CHL1    H9 3294   0.608   1.083   3.353  1.0116  1.4457  1.3785
   45CHL1   C10 3295   0.452   1.096   3.199  0.0961  0.2003 -0.1929
   45CHL1   C19 3296   0.348   1.206   3.149  0.0211  0.0709 -0.3132
   45CHL1  H19A 3297   0.300   1.193   3.050  0.4854  1.2986 -0.7176
   45CHL1  H19B 3298   0.261   1.209   3.218 -1.2063  0.9811 -1.8432
   45CHL1  H19C 3299   0.410   1.298   3.143  0.4361 -0.1672  0.2199
   45CHL1    C1 3300   0.569   1.080   3.097  0.7306  0.5654 -0.2741
   45CHL1   H1A 3301   0.615   1.181   3.088  0.4583  0.7127 -0.0602
   45CHL1   H1B 3302   0.644   1.014   3.144  1.5337  2.2831  0.9763
   45CHL1    C2 3303   0.533   1.030   2.958  0.4466  0.3512 -0.0910
   45CHL1   H2A 3304   0.624   0.998   2.903 -0.7694 -0.8777 -1.4450
   45CHL1   H2B 3305   0.487   1.103   2.889 -0.1596  0.6608  0.6231
   45CHL1   C20 3306   0.597   1.344   3.857  0.3484 -0.5233 -0.2108
   45CHL1   H20 3307   0.497   1.384   3.883  0.8779 -0.1386  1.4157
   45CHL1   C21 3308   0.696   1.451   3.802 -0.3096  0.1008  0.0978
   45CHL1  H21A 3309   0.797   1.413   3.777 -0.6475 -0.7975  0.0307
   45CHL1  H21B 3310   0.708   1.530   3.879 -3.0414 -0.6286  1.4181
   45CHL1  H21C 3311   0.659   1.499   3.709  1.2840  1.1893 -0.0067
   45CHL1   C22 3312   0.660   1.298   3.997 -0.2054 -0.1468 -0.1307
   45CHL1  H22A 3313   0.684   1.394   4.048  2.4321  0.9644 -3.1103
   45CHL1  H22B 3314   0.589   1.246   4.064  0.5031 -0.7721  0.1447
   45CHL1   C23 3315   0.792   1.221   3.982 -0.4312 -0.5673 -0.5567
   45CHL1  H23A 3316   0.765   1.118   3.952 -0.9641 -1.3080  2.2425
   45CHL1  H23B 3317   0.850   1.272   3.901 -0.3899  0.0040 -0.1766
   45CHL1   C24 3318   0.879   1.231   4.110  0.0355  0.4328  0.5804
   45CHL1  H24A 3319   0.964   1.302   4.119 -0.3671  0.8434  1.2390
   45CHL1  H24B 3320   0.812   1.276   4.187 -2.7537 -0.7666 -0.9978
   45CHL1   C25 3321   0.905   1.086   4.161  0.1608 -0.5294 -0.1705
   45CHL1   H25 3322   0.981   1.100   4.240 -0.5696 -0.0243  0.4530
   45CHL1   C26 3323   0.773   1.017   4.216 -0.2704 -0.5227  0.6910
   45CHL1  H26A 3324   0.789   0.908   4.232  0.1256 -0.0409  4.5826
   45CHL1  H26B 3325   0.748   1.050   4.318 -0.0070  1.2287  0.2181
   45CHL1  H26C 3326   0.685   1.028   4.150  0.5560  0.1413 -0.3391
   45CHL1   C27 3327   0.970   0.980   4.059  0.6899  0.0797 -0.1211
   45CHL1  H27A 3328   1.049   1.033   4.002 -1.4184  0.3515 -3.0214
   45CHL1  H27B 3329   1.004   0.887   4.110  0.3865  1.4351  2.7340
   45CHL1  H27C 3330   0.896   0.954   3.981  0.6978 -1.4013  0.3364
   46CHL1    C3 3331   1.681   5.302   2.892 -0.5869 -0.1567 -0.4765
   46CHL1    H3 3332   1.760   5.225   2.886 -0.8791 -0.4678 -0.3486
   46CHL1    O3 3333   1.663   5.349   2.760 -0.0593 -0.6297 -0.0459
   46CHL1   H3' 3334   1.744   5.397   2.740 -0.9036  0.5911 -0.6276
   46CHL1    C4 3335   1.550   5.240   2.947  0.4196  0.5818  0.3259
   46CHL1   H4A 3336   1.464   5.310   2.939  0.1117  0.4344  2.0465
   46CHL1   H4B 3337   1.515   5.157   2.882 -2.2083  1.3573  0.6351
   46CHL1    C5 3338   1.565   5.207   3.088 -0.4200  0.2774  0.8483
   46CHL1    C6 3339   1.542   5.086   3.130  0.3760 -0.1194 -0.5479
   46CHL1    H6 3340   1.500   5.012   3.061 -0.4459 -0.8297  0.6760
   46CHL1    C7 3341   1.555   5.044   3.273 -0.2265 -0.1207 -0.3769
   46CHL1   H7A 3342   1.464   4.984   3.294 -1.0389  0.8592 -1.0447
   46CHL1   H7B 3343   1.643   4.976   3.283 -0.1057 -0.1139 -1.2934
   46CHL1    C8 3344   1.574   5.159   3.375  0.6554  0.5022  0.2162
   46CHL1    H8 3345   1.467   5.188   3.385 -0.6771 -2.7757 -2.6094
   46CHL1   C14 3346   1.630   5.112   3.502 -0.4575 -0.5895 -0.2785
   46CHL1   H14 3347   1.736   5.088   3.483 -0.4263 -0.0462 -0.8435
   46CHL1   C15 3348   1.571   4.985   3.565  0.2230  0.4128 -0.5789
   46CHL1  H15A 3349   1.461   4.982   3.551  0.0931 -0.6377  0.4711
   46CHL1  H15B 3350   1.625   4.901   3.516  1.3328  1.2010 -0.7297
   46CHL1   C16 3351   1.607   5.007   3.714 -0.8005  0.1009  0.2588
   46CHL1  H16A 3352   1.512   5.028   3.769  0.4892  0.8007  2.3305
   46CHL1  H16B 3353   1.643   4.920   3.772  0.3415  1.4662  1.6743
   46CHL1   C17 3354   1.683   5.139   3.732 -0.4789 -0.1519 -0.2846
   46CHL1   H17 3355   1.787   5.104   3.722 -0.1063  0.2445  1.8427
   46CHL1   C13 3356   1.638   5.221   3.610  0.3824 -0.0241  1.6833
   46CHL1   C18 3357   1.491   5.284   3.635 -0.3614  0.1471 -0.5791
   46CHL1  H18A 3358   1.437   5.193   3.668  1.3448 -0.6897  0.0429
   46CHL1  H18B 3359   1.496   5.357   3.719  0.6890  2.8182 -2.7973
   46CHL1  H18C 3360   1.448   5.327   3.542  0.2305 -0.6972 -1.2547
   46CHL1   C12 3361   1.739   5.331   3.558  0.1051 -0.3946  0.3949
   46CHL1  H12A 3362   1.763   5.407   3.636  0.9837 -1.9791  1.7214
   46CHL1  H12B 3363   1.835   5.279   3.542  2.2845  3.0521  1.2718
   46CHL1   C11 3364   1.696   5.382   3.420  0.8570 -0.0409  0.3094
   46CHL1  H11A 3365   1.605   5.442   3.441  2.4698  3.2360 -1.1424
   46CHL1  H11B 3366   1.773   5.452   3.379 -0.1419  1.6540  1.2209
   46CHL1    C9 3367   1.670   5.268   3.319  1.0346 -0.0806  0.3989
   46CHL1    H9 3368   1.764   5.209   3.319  0.4593 -1.0796  2.1817
   46CHL1   C10 3369   1.619   5.318   3.181  0.0882  0.2253 -0.5540
   46CHL1   C19 3370   1.520   5.429   3.198 -0.0140  0.0328 -0.1305
   46CHL1  H19A 3371   1.480   5.467   3.102 -0.7059  0.0717  0.1690
   46CHL1  H19B 3372   1.427   5.390   3.245  0.4470 -3.3068 -1.6718
   46CHL1  H19C 3373   1.567   5.508   3.260 -0.9911 -0.3216  1.1065
   46CHL1    C1 3374   1.751   5.379   3.122 -0.8813  0.3220  0.4440
   46CHL1   H1A 3375   1.794   5.461   3.184 -2.4145  0.0860  1.8949
   46CHL1   H1B 3376   1.833   5.305   3.115  0.1065  1.5255 -1.6361
   46CHL1    C2 3377   1.732   5.422   2.978 -0.3070 -0.6800  0.0044
   46CHL1   H2A 3378   1.831   5.453   2.938  0.3786  0.0613  2.1245
   46CHL1   H2B 3379   1.667   5.512   2.977  0.9110  0.2658 -1.6593
   46CHL1   C20 3380   1.664   5.208   3.874  0.3865 -0.3815  0.7658
   46CHL1   H20 3381   1.560   5.245   3.886  0.4608  0.2031 -0.3611
   46CHL1   C21 3382   1.767   5.323   3.889 -0.4550  0.4665 -0.2665
   46CHL1  H21A 3383   1.779   5.350   3.996  1.4283  1.5523 -0.6899
   46CHL1  H21B 3384   1.731   5.411   3.831 -1.3322  0.5331  0.3697
   46CHL1  H21C 3385   1.862   5.276   3.855 -0.9652 -1.3782  0.7503
   46CHL1   C22 3386   1.670   5.111   3.989  0.4718 -0.0776 -0.3134
   46CHL1  H22A 3387   1.614   5.020   3.959 -1.7950  0.4075  2.0399
   46CHL1  H22B 3388   1.775   5.078   4.003  0.9041  1.5600  0.6889
   46CHL1   C23 3389   1.619   5.175   4.115  0.0160 -0.1406 -0.4447
   46CHL1  H23A 3390   1.689   5.250   4.158 -0.8173 -0.2016  1.1063
   46CHL1  H23B 3391   1.522   5.227   4.107  0.8245  1.7074  1.0755
   46CHL1   C24 3392   1.608   5.064   4.224  0.1059  0.6309  0.9187
   46CHL1  H24A 3393   1.551   4.979   4.181 -1.0714  0.4049  2.7822
   46CHL1  H24B 3394   1.713   5.027   4.229 -0.4177 -1.0169  0.4051
   46CHL1   C25 3395   1.570   5.107   4.366 -0.4463  0.0403 -0.4806
   46CHL1   H25 3396   1.632   5.198   4.385 -1.4028  0.6065 -0.0260
   46CHL1   C26 3397   1.423   5.138   4.391 -0.2694  0.1209 -0.1122
   46CHL1  H26A 3398   1.391   5.146   4.497  0.0504 -1.2700  0.1067
   46CHL1  H26B 3399   1.400   5.227   4.329  1.9633  1.6309  1.0767
   46CHL1  H26C 3400   1.363   5.049   4.364 -0.0158 -0.8108  2.1284
   46CHL1   C27 3401   1.611   4.994   4.467 -0.4995 -0.2966 -0.4859
   46CHL1  H27A 3402   1.586   5.012   4.574  2.5063 -3.3662  0.9143
   46CHL1  H27B 3403   1.579   4.895   4.429  0.4988 -1.6849  2.0469
   46CHL1  H27C 3404   1.720   4.977   4.469 -0.7233 -1.9174 -0.5193
   47CHL1    C3 3405   2.510   5.706   2.869  0.2335  0.5804 -0.8514
   47CHL1    H3 3406   2.409   5.742   2.900 -0.6618 -1.7909 -0.8038
   47CHL1    O3 3407   2.492   5.665   2.733 -0.3697 -0.9044  0.3517
   47CHL1   H3' 3408   2.486   5.748   2.685  1.5866 -1.9468 -1.8410
   47CHL1    C4 3409   2.620   5.793   2.896 -0.0989 -0.5367  0.0432
   47CHL1   H4A 3410   2.711   5.738   2.860 -1.5366 -2.9430 -0.1462
   47CHL1   H4B 3411   2.615   5.883   2.830 -1.2618 -2.6881 -3.0607
   47CHL1    C5 3412   2.623   5.848   3.032 -0.6044  0.8367 -0.4901
   47CHL1    C6 3413   2.608   5.972   3.063  0.0863 -0.3853  0.1739
   47CHL1    H6 3414   2.588   6.047   2.985 -2.6285 -1.6510 -0.4674
   47CHL1    C7 3415   2.626   6.027   3.203  0.1113 -0.6643  0.2531
   47CHL1   H7A 3416   2.703   6.106   3.212  0.1970 -0.9465  2.7005
   47CHL1   H7B 3417   2.535   6.080   3.241  0.8207  0.7979 -0.0108
   47CHL1    C8 3418   2.664   5.927   3.312  0.6534 -0.0508 -0.8094
   47CHL1    H8 3419   2.775   5.922   3.312  0.7082  1.0627 -1.0837
   47CHL1   C14 3420   2.626   5.979   3.447  0.5052  0.0165 -0.5807
   47CHL1   H14 3421   2.515   5.988   3.442  0.4525  0.6374  1.2042
   47CHL1   C15 3422   2.683   6.117   3.494  0.1595  0.0632  0.4303
   47CHL1  H15A 3423   2.792   6.117   3.476  0.9915 -1.5443  4.2722
   47CHL1  H15B 3424   2.630   6.200   3.443  0.1490 -0.8163 -1.0486
   47CHL1   C16 3425   2.665   6.121   3.649  0.0492 -0.0241 -0.4112
   47CHL1  H16A 3426   2.765   6.143   3.692  0.6892  0.3130 -2.0251
   47CHL1  H16B 3427   2.586   6.194   3.674 -0.0929 -0.1016 -0.6292
   47CHL1   C17 3428   2.617   5.972   3.686  0.0044 -0.7001 -0.0242
   47CHL1   H17 3429   2.508   5.991   3.672  0.0845  1.3748  1.5599
   47CHL1   C13 3430   2.661   5.886   3.566 -0.1435  0.0203  0.0098
   47CHL1   C18 3431   2.809   5.858   3.588  0.0413  0.4198 -0.1917
   47CHL1  H18A 3432   2.826   5.779   3.664  3.2099 -0.9292 -2.0897
   47CHL1  H18B 3433   2.863   5.821   3.498 -1.1957 -2.5434  0.1716
   47CHL1  H18C 3434   2.869   5.941   3.631 -0.4184  0.1972  0.9075
   47CHL1   C12 3435   2.586   5.751   3.543  0.2024 -0.3085  0.0005
   47CHL1  H12A 3436   2.621   5.680   3.622  2.4790 -0.3774 -0.9808
   47CHL1  H12B 3437   2.476   5.759   3.536  0.3538  0.8150 -1.5829
   47CHL1   C11 3438   2.629   5.690   3.403  0.3658 -1.0707 -0.4017
   47CHL1  H11A 3439   2.738   5.669   3.412  0.6552  0.2833 -0.4982
   47CHL1  H11B 3440   2.591   5.586   3.399 -1.9689 -0.3915  1.5101
   47CHL1    C9 3441   2.602   5.792   3.281  0.0049 -0.2335 -0.8054
   47CHL1    H9 3442   2.492   5.806   3.276  0.1816  1.9581  0.1267
   47CHL1   C10 3443   2.638   5.740   3.138  0.0789  0.6158  0.1464
   47CHL1   C19 3444   2.778   5.695   3.141 -0.4720  0.0047  0.4028
   47CHL1  H19A 3445   2.834   5.664   3.050 -0.3870  0.8758  0.1464
   47CHL1  H19B 3446   2.837   5.779   3.183  0.0033  0.6788 -1.4969
   47CHL1  H19C 3447   2.789   5.604   3.203 -1.0166 -1.0177 -0.9489
   47CHL1    C1 3448   2.549   5.619   3.099 -0.2406  0.6620  0.4705
   47CHL1   H1A 3449   2.580   5.527   3.154  0.3773 -1.1888 -2.6856
   47CHL1   H1B 3450   2.446   5.651   3.126 -0.0823  0.0338  1.9516
   47CHL1    C2 3451   2.538   5.576   2.951 -0.3410 -0.7171  0.0009
   47CHL1   H2A 3452   2.450   5.508   2.945 -0.5625 -0.6569  1.8911
   47CHL1   H2B 3453   2.630   5.528   2.913  1.4039  1.3392  1.4026
   47CHL1   C20 3454   2.636   5.924   3.833 -0.4217  0.3786  0.3176
   47CHL1   H20 3455   2.641   5.813   3.834  4.1069  0.3004 -2.5730
   47CHL1   C21 3456   2.505   5.959   3.911 -0.3947 -0.2208  0.6707
   47CHL1  H21A 3457   2.501   6.069   3.894  2.2930 -0.4437 -2.4055
   47CHL1  H21B 3458   2.515   5.938   4.019  1.4462  0.0587  0.5869
   47CHL1  H21C 3459   2.419   5.904   3.866  1.4019 -2.0883 -0.6507
   47CHL1   C22 3460   2.763   5.976   3.901  0.0477 -0.6829 -0.6586
   47CHL1  H22A 3461   2.855   5.968   3.839  0.5936 -0.8760  0.1580
   47CHL1  H22B 3462   2.753   6.085   3.915  1.5771 -0.8042  1.9210
   47CHL1   C23 3463   2.779   5.910   4.046 -0.3585  0.0921 -0.1164
   47CHL1  H23A 3464   2.878   5.947   4.082 -1.6709  0.5761  3.3018
   47CHL1  H23B 3465   2.701   5.939   4.119 -0.8777 -1.0412 -0.2103
   47CHL1   C24 3466   2.798   5.760   4.048 -0.2680  0.1068  0.0955
   47CHL1  H24A 3467   2.714   5.711   3.994 -0.6277 -0.4297  1.1217
   47CHL1  H24B 3468   2.885   5.732   3.985 -0.1949 -0.9984  0.6762
   47CHL1   C25 3469   2.802   5.701   4.190  0.4325 -0.1758  0.4807
   47CHL1   H25 3470   2.816   5.591   4.180 -1.2489 -0.4732  1.1279
   47CHL1   C26 3471   2.920   5.757   4.270  0.0938 -0.1801  0.1966
   47CHL1  H26A 3472   3.016   5.740   4.217 -0.3790  0.7970 -1.0249
   47CHL1  H26B 3473   2.918   5.862   4.306  0.7825 -0.1594  0.1835
   47CHL1  H26C 3474   2.922   5.699   4.365  0.0783  1.6016  1.3359
   47CHL1   C27 3475   2.665   5.704   4.261  0.4839 -0.5413  0.5249
   47CHL1  H27A 3476   2.642   5.812   4.274  0.3539 -0.5120  0.0351
   47CHL1  H27B 3477   2.587   5.649   4.203  2.3495 -0.0218 -2.6950
   47CHL1  H27C 3478   2.674   5.664   4.365 -2.1464  1.2143  1.5562
   48CHL1    C3 3479   4.115   5.119   3.112  0.1520 -0.1697 -0.3335
   48CHL1    H3 3480   4.111   5.017   3.157 -0.1543  0.8253  2.0090
   48CHL1    O3 3481   4.076   5.113   2.977  0.3506 -0.1275 -0.0605
   48CHL1   H3' 3482   4.081   5.020   2.953  3.1135  0.1029 -0.6936
   48CHL1    C4 3483   4.026   5.222   3.177 -0.2293  0.1978  0.6056
   48CHL1   H4A 3484   4.039   5.316   3.120  2.1506 -0.1351  0.5039
   48CHL1   H4B 3485   3.917   5.211   3.158  0.2850 -2.1735 -1.6180
   48CHL1    C5 3486   4.071   5.246   3.322 -0.3136  0.5943  0.1151
   48CHL1    C6 3487   3.993   5.225   3.424 -0.8054  0.2467 -0.7166
   48CHL1    H6 3488   3.890   5.199   3.396 -0.0581 -0.2622 -3.2526
   48CHL1    C7 3489   4.022   5.237   3.569  0.1614  0.4450  0.3879
   48CHL1   H7A 3490   3.938   5.294   3.614 -0.4458  0.5841 -0.8557
   48CHL1   H7B 3491   4.020   5.137   3.617  1.1968  1.5049  2.7882
   48CHL1    C8 3492   4.152   5.312   3.590  0.9707  0.2910 -0.5898
   48CHL1    H8 3493   4.145   5.418   3.559  0.3664  0.5849  0.5025
   48CHL1   C14 3494   4.203   5.277   3.731 -0.2878 -0.1836 -1.2812
   48CHL1   H14 3495   4.225   5.168   3.725 -0.8147 -0.2648 -1.8392
   48CHL1   C15 3496   4.103   5.288   3.847  0.1330  0.1158  0.0280
   48CHL1  H15A 3497   4.044   5.376   3.814  0.5409 -0.2548 -1.7931
   48CHL1  H15B 3498   4.044   5.194   3.855  2.4712 -1.3501  1.6230
   48CHL1   C16 3499   4.186   5.312   3.971 -1.0162 -0.4728  0.0616
   48CHL1  H16A 3500   4.172   5.410   4.021  2.9068 -0.3000  1.1226
   48CHL1  H16B 3501   4.171   5.236   4.050 -0.3658 -0.3852  0.2771
   48CHL1   C17 3502   4.334   5.310   3.917 -0.7988 -0.1401 -0.5814
   48CHL1   H17 3503   4.370   5.205   3.909  0.2181  0.0864  0.6982
   48CHL1   C13 3504   4.328   5.356   3.773 -0.5120  0.6656  0.7026
   48CHL1   C18 3505   4.306   5.509   3.759 -0.4119 -0.1163  0.2534
   48CHL1  H18A 3506   4.288   5.548   3.656  0.4175  2.1490  0.8916
   48CHL1  H18B 3507   4.224   5.534   3.831 -0.5030  0.8885 -0.1790
   48CHL1  H18C 3508   4.394   5.560   3.803 -0.6532 -0.8317  1.6144
   48CHL1   C12 3509   4.447   5.314   3.677  0.2927 -0.7886  0.0364
   48CHL1  H12A 3510   4.529   5.386   3.694  0.1970 -1.0361  1.6409
   48CHL1  H12B 3511   4.473   5.210   3.708  2.3557  0.2469  2.0677
   48CHL1   C11 3512   4.400   5.326   3.528 -0.8189 -0.3454 -0.0219
   48CHL1  H11A 3513   4.426   5.434   3.516  0.9433 -0.3976  2.4817
   48CHL1  H11B 3514   4.466   5.286   3.449 -3.1105  0.9090 -2.7503
   48CHL1    C9 3515   4.260   5.272   3.490  0.3903  0.1112  0.1283
   48CHL1    H9 3516   4.271   5.163   3.506 -1.2025  0.1535  1.8981
   48CHL1   C10 3517   4.222   5.291   3.339  0.1963  0.2163 -0.1637
   48CHL1   C19 3518   4.230   5.441   3.293  0.0714  0.6930 -0.1608
   48CHL1  H19A 3519   4.328   5.489   3.311 -0.4422  1.3017  1.1698
   48CHL1  H19B 3520   4.207   5.452   3.185 -0.9273  0.4536  0.0161
   48CHL1  H19C 3521   4.151   5.493   3.353 -1.3652 -1.8937  0.3302
   48CHL1    C1 3522   4.312   5.205   3.252  0.1799 -0.4635 -0.0918
   48CHL1   H1A 3523   4.410   5.254   3.232 -0.1519 -0.2984 -1.3555
   48CHL1   H1B 3524   4.327   5.109   3.306  0.8283 -0.3461 -0.0484
   48CHL1    C2 3525   4.256   5.181   3.114  0.6059  0.4097  0.2084
   48CHL1   H2A 3526   4.334   5.123   3.062  0.1012  0.0461 -0.1545
   48CHL1   H2B 3527   4.245   5.273   3.053  2.5834  1.2125  0.9748
   48CHL1   C20 3528   4.435   5.378   4.015 -0.2681  0.1604  0.2164
   48CHL1   H20 3529   4.419   5.488   4.012  2.0659  0.5324 -1.1597
   48CHL1   C21 3530   4.584   5.362   3.976  0.1891  0.7053 -0.3578
   48CHL1  H21A 3531   4.598   5.253   3.964  0.0327  0.7004 -0.5109
   48CHL1  H21B 3532   4.647   5.402   4.058  0.5319  0.9202 -0.7234
   48CHL1  H21C 3533   4.615   5.426   3.890 -0.5790  1.9133  0.2218
   48CHL1   C22 3534   4.422   5.336   4.158  0.2056  0.6448  0.4503
   48CHL1  H22A 3535   4.501   5.395   4.209  0.6101 -0.1809  0.7855
   48CHL1  H22B 3536   4.327   5.378   4.199  0.0527  1.0401 -0.2740
   48CHL1   C23 3537   4.422   5.184   4.185 -0.3996 -0.4469 -0.2171
   48CHL1  H23A 3538   4.343   5.131   4.128 -1.2457  0.4273  0.1124
   48CHL1  H23B 3539   4.522   5.143   4.158  0.5993  0.5186  1.7846
   48CHL1   C24 3540   4.395   5.163   4.335  0.7526 -0.2081 -0.7406
   48CHL1  H24A 3541   4.299   5.209   4.367  2.2562  1.9734  0.9072
   48CHL1  H24B 3542   4.400   5.053   4.352  3.7733 -0.0090  0.3066
   48CHL1   C25 3543   4.498   5.227   4.438 -0.2026 -0.1777 -0.1940
   48CHL1   H25 3544   4.496   5.338   4.432  0.8724 -0.1829 -0.9920
   48CHL1   C26 3545   4.483   5.193   4.588  0.0266 -0.0381 -0.1921
   48CHL1  H26A 3546   4.562   5.244   4.646  1.0070 -3.4369  1.7291
   48CHL1  H26B 3547   4.387   5.231   4.631 -0.3399  0.4146 -1.3682
   48CHL1  H26C 3548   4.494   5.085   4.610  1.6513  0.1939  0.2509
   48CHL1   C27 3549   4.642   5.195   4.399 -0.0053  0.0876 -0.0974
   48CHL1  H27A 3550   4.667   5.248   4.304  3.5448 -0.5206  0.3622
   48CHL1  H27B 3551   4.712   5.215   4.483 -1.4612  0.7684  0.9953
   48CHL1  H27C 3552   4.666   5.088   4.380 -0.8168  0.2153 -2.0879
   49CHL1    C3 3553   0.331   2.925   2.982 -0.4934  0.2714 -0.1684
   49CHL1    H3 3554   0.232   2.967   2.954  0.1204  1.3091 -0.8720
   49CHL1    O3 3555   0.398   2.896   2.863  0.0597 -0.6933  0.4156
   49CHL1   H3' 3556   0.374   2.804   2.851 -1.8454 -0.2706  0.7905
   49CHL1    C4 3557   0.398   3.035   3.061  0.3528  0.8860  0.5134
   49CHL1   H4A 3558   0.506   3.005   3.058  0.3816  0.7441 -3.6163
   49CHL1   H4B 3559   0.397   3.133   3.009  0.6810  1.1112  0.9270
   49CHL1    C5 3560   0.345   3.050   3.201 -0.8275  0.0269 -0.2485
   49CHL1    C6 3561   0.313   3.172   3.241 -0.0915 -0.4763  0.1755
   49CHL1    H6 3562   0.333   3.255   3.171 -0.9595 -1.5087 -1.3377
   49CHL1    C7 3563   0.259   3.204   3.380  0.9412  0.9329 -0.2948
   49CHL1   H7A 3564   0.309   3.292   3.426  1.8851  0.6118 -0.6900
   49CHL1   H7B 3565   0.150   3.224   3.379  0.8907  0.6705 -0.9606
   49CHL1    C8 3566   0.284   3.081   3.480  0.7493 -0.3449  0.6737
   49CHL1    H8 3567   0.394   3.090   3.498  1.1388  0.9359 -1.8850
   49CHL1   C14 3568   0.213   3.097   3.615 -0.5686 -0.6192 -0.2786
   49CHL1   H14 3569   0.103   3.108   3.602 -1.1439 -3.7022  1.1155
   49CHL1   C15 3570   0.241   3.229   3.695  0.7106 -0.4372 -0.7485
   49CHL1  H15A 3571   0.346   3.261   3.681  0.3157  3.2698  2.9348
   49CHL1  H15B 3572   0.171   3.301   3.648 -0.5161 -0.2107  1.3301
   49CHL1   C16 3573   0.194   3.200   3.833 -0.4013 -0.9073 -0.1693
   49CHL1  H16A 3574   0.254   3.259   3.906 -0.7320  1.0559 -1.3952
   49CHL1  H16B 3575   0.092   3.241   3.853  1.0606  2.5762  1.0650
   49CHL1   C17 3576   0.183   3.041   3.850 -1.0686 -0.0627  0.6726
   49CHL1   H17 3577   0.073   3.025   3.845 -1.2309  1.1311 -0.1703
   49CHL1   C13 3578   0.248   2.989   3.719  0.1154 -0.8721 -0.6333
   49CHL1   C18 3579   0.407   2.978   3.745  0.6400  0.5898  0.0696
   49CHL1  H18A 3580   0.410   2.899   3.824 -3.1879 -2.3252 -2.3334
   49CHL1  H18B 3581   0.450   2.930   3.655  1.1509 -1.4789  1.3255
   49CHL1  H18C 3582   0.453   3.077   3.763 -1.0247  1.2388  0.8720
   49CHL1   C12 3583   0.197   2.859   3.668 -0.0920  0.6002 -0.1919
   49CHL1  H12A 3584   0.227   2.769   3.726 -0.0508 -0.7197 -2.1641
   49CHL1  H12B 3585   0.086   2.861   3.676 -0.1689  0.7764 -1.1855
   49CHL1   C11 3586   0.247   2.829   3.519  0.3209  0.1424  0.1997
   49CHL1  H11A 3587   0.352   2.795   3.536  0.2657 -0.3245 -0.3357
   49CHL1  H11B 3588   0.190   2.745   3.472  2.0874 -1.2308  0.3977
   49CHL1    C9 3589   0.251   2.948   3.420 -0.3836 -0.0162 -0.0231
   49CHL1    H9 3590   0.145   2.967   3.392 -0.8528  0.5608  1.9776
   49CHL1   C10 3591   0.320   2.922   3.279  0.7549 -0.1646  0.1606
   49CHL1   C19 3592   0.468   2.869   3.307  0.5494  0.3269  0.0031
   49CHL1  H19A 3593   0.529   2.866   3.215 -0.2887  1.6510 -0.6240
   49CHL1  H19B 3594   0.528   2.929   3.379  0.5740 -0.1744  0.4103
   49CHL1  H19C 3595   0.451   2.765   3.344  0.1705  0.0735 -0.8627
   49CHL1    C1 3596   0.243   2.824   3.189  0.1159  0.1419  0.1081
   49CHL1   H1A 3597   0.221   2.732   3.246 -0.3035  0.0756 -0.1576
   49CHL1   H1B 3598   0.142   2.862   3.165 -1.1192 -2.6418  0.4726
   49CHL1    C2 3599   0.308   2.794   3.058 -0.1458 -0.4177 -0.2099
   49CHL1   H2A 3600   0.246   2.723   3.000 -1.5275  0.9609 -0.5011
   49CHL1   H2B 3601   0.400   2.734   3.071 -0.4717 -0.9681 -0.4243
   49CHL1   C20 3602   0.232   3.007   3.993 -0.1929  0.7624 -1.1268
   49CHL1   H20 3603   0.343   3.015   4.002 -0.2765 -0.5988  3.5853
   49CHL1   C21 3604   0.209   2.857   4.009  0.7485 -0.1231  0.5334
   49CHL1  H21A 3605   0.100   2.846   3.989  0.6780  1.3850  0.0087
   49CHL1  H21B 3606   0.246   2.823   4.109  0.0449 -1.8688  0.2395
   49CHL1  H21C 3607   0.258   2.788   3.938 -0.7442 -0.3615 -0.3078
   49CHL1   C22 3608   0.170   3.086   4.111 -1.1313  1.0150  0.0556
   49CHL1  H22A 3609   0.217   3.040   4.200  1.7034  0.0852 -1.8117
   49CHL1  H22B 3610   0.206   3.191   4.109 -1.3302  1.0916  0.4226
   49CHL1   C23 3611   0.018   3.079   4.116  0.2018 -0.0884  0.3816
   49CHL1  H23A 3612  -0.012   3.151   4.037 -0.4070 -0.8431 -0.0959
   49CHL1  H23B 3613  -0.023   2.979   4.089 -3.0188  1.3066 -0.4541
   49CHL1   C24 3614  -0.048   3.128   4.248  0.5919 -1.0269 -0.1585
   49CHL1  H24A 3615  -0.011   3.047   4.315  1.0202  1.0949  2.3826
   49CHL1  H24B 3616  -0.004   3.223   4.287  0.7547 -1.7540  1.5514
   49CHL1   C25 3617  -0.200   3.140   4.246  0.0845 -0.3075 -0.6238
   49CHL1   H25 3618  -0.235   3.045   4.200 -2.1225  1.4932 -2.9246
   49CHL1   C26 3619  -0.252   3.156   4.396 -0.6233  0.6182 -0.0646
   49CHL1  H26A 3620  -0.216   3.067   4.452  0.0864  1.2102  0.4393
   49CHL1  H26B 3621  -0.207   3.246   4.443  1.4512  0.0077 -0.7928
   49CHL1  H26C 3622  -0.360   3.180   4.410 -0.7428 -0.5844  1.2334
   49CHL1   C27 3623  -0.240   3.255   4.156  0.5414 -0.5077  0.0290
   49CHL1  H27A 3624  -0.350   3.271   4.165  0.6149 -0.8599  1.8520
   49CHL1  H27B 3625  -0.202   3.355   4.187 -0.5549  0.8281 -2.6182
   49CHL1  H27C 3626  -0.215   3.244   4.048 -0.3141  0.4003 -0.2807
   50CHL1    C3 3627   3.418   2.087   3.163  0.3028  0.1613 -0.5028
   50CHL1    H3 3628   3.387   1.985   3.194  1.5302 -0.7940 -2.2376
   50CHL1    O3 3629   3.423   2.091   3.020  0.3703 -0.3201 -0.2730
   50CHL1   H3' 3630   3.465   2.173   2.993  1.9144 -1.4917 -1.6463
   50CHL1    C4 3631   3.316   2.191   3.206  0.3661 -0.4409 -0.1258
   50CHL1   H4A 3632   3.352   2.282   3.152  0.0563 -0.0222  0.3646
   50CHL1   H4B 3633   3.212   2.172   3.172 -0.9178  2.4980  1.7779
   50CHL1    C5 3634   3.316   2.194   3.362 -0.3800 -0.3009 -0.1320
   50CHL1    C6 3635   3.201   2.156   3.430 -0.6728 -1.1117  0.0047
   50CHL1    H6 3636   3.108   2.134   3.375 -0.8372  0.8866 -0.5984
   50CHL1    C7 3637   3.193   2.149   3.579 -1.0821 -0.1179 -0.2703
   50CHL1   H7A 3638   3.096   2.186   3.619  0.8539  2.1789  2.7954
   50CHL1   H7B 3639   3.218   2.050   3.623 -0.0563 -0.6299 -1.9473
   50CHL1    C8 3640   3.305   2.244   3.635  0.4983 -0.6775 -0.5847
   50CHL1    H8 3641   3.275   2.346   3.606  3.0182  1.0116  2.1226
   50CHL1   C14 3642   3.309   2.228   3.788  0.6608 -0.5711 -0.3483
   50CHL1   H14 3643   3.341   2.124   3.813  2.2285 -0.2798 -1.0463
   50CHL1   C15 3644   3.176   2.259   3.863 -0.0148  0.4401 -0.1328
   50CHL1  H15A 3645   3.133   2.358   3.837  3.3321  2.2264  0.5696
   50CHL1  H15B 3646   3.101   2.177   3.861  0.9275 -0.4296 -0.4914
   50CHL1   C16 3647   3.229   2.279   4.008 -0.3238  0.7987 -0.5227
   50CHL1  H16A 3648   3.171   2.365   4.048  0.3395  1.4991 -1.0165
   50CHL1  H16B 3649   3.189   2.195   4.068  0.1567  0.8659 -0.0970
   50CHL1   C17 3650   3.380   2.279   4.006  0.0475 -0.4851  0.1023
   50CHL1   H17 3651   3.415   2.176   4.030  1.4564  0.4799  2.6488
   50CHL1   C13 3652   3.410   2.315   3.863  0.2710 -0.7776  0.8841
   50CHL1   C18 3653   3.392   2.475   3.843  0.6921  0.2237  0.2859
   50CHL1  H18A 3654   3.298   2.513   3.887 -0.0256  0.8307 -1.6808
   50CHL1  H18B 3655   3.470   2.539   3.889 -0.5738  2.0602 -0.0054
   50CHL1  H18C 3656   3.386   2.496   3.734 -0.5969 -0.3758  0.2296
   50CHL1   C12 3657   3.549   2.266   3.809  0.1036  0.5496  0.2048
   50CHL1  H12A 3658   3.640   2.315   3.851  3.0818 -1.6698 -3.0075
   50CHL1  H12B 3659   3.552   2.160   3.845 -0.5056 -0.3144 -2.1291
   50CHL1   C11 3660   3.561   2.277   3.656  0.8620  0.0661  0.5862
   50CHL1  H11A 3661   3.566   2.388   3.649 -1.2316  0.0688 -2.3637
   50CHL1  H11B 3662   3.661   2.235   3.629  0.5679 -0.6409  0.5915
   50CHL1    C9 3663   3.444   2.211   3.582  0.2379  0.4262  0.6382
   50CHL1    H9 3664   3.452   2.102   3.601 -0.1450  0.6916  2.5215
   50CHL1   C10 3665   3.451   2.236   3.425 -0.5324 -0.2298 -0.2322
   50CHL1   C19 3666   3.498   2.375   3.387 -0.9254 -0.4841 -0.1252
   50CHL1  H19A 3667   3.491   2.400   3.279 -0.2707 -0.5180 -0.1823
   50CHL1  H19B 3668   3.449   2.460   3.440  1.0732  0.4565  0.3424
   50CHL1  H19C 3669   3.605   2.393   3.412 -1.4905 -0.4010  2.5592
   50CHL1    C1 3670   3.556   2.138   3.367  0.6500 -0.2301  0.2981
   50CHL1   H1A 3671   3.658   2.164   3.401  0.2199 -0.7929  2.1040
   50CHL1   H1B 3672   3.539   2.032   3.395  1.8997 -0.2832  0.8962
   50CHL1    C2 3673   3.558   2.130   3.217  0.1693 -0.0885 -0.0527
   50CHL1   H2A 3674   3.629   2.050   3.188 -0.5011 -0.1832 -1.5607
   50CHL1   H2B 3675   3.589   2.226   3.171  0.9110 -0.6989 -0.8615
   50CHL1   C20 3676   3.438   2.364   4.125  0.1032 -0.1039 -0.1143
   50CHL1   H20 3677   3.394   2.466   4.131 -1.9303 -0.7869 -1.9506
   50CHL1   C21 3678   3.591   2.379   4.118 -0.3595 -0.1922 -0.0228
   50CHL1  H21A 3679   3.611   2.437   4.025 -0.7001  0.2342  0.1678
   50CHL1  H21B 3680   3.634   2.278   4.101 -1.9464 -1.0118  0.6389
   50CHL1  H21C 3681   3.631   2.435   4.205 -1.4984  0.5432  0.0457
   50CHL1   C22 3682   3.401   2.305   4.261  0.6800 -0.3246 -1.1476
   50CHL1  H22A 3683   3.309   2.243   4.253  1.4866 -1.3777 -2.7285
   50CHL1  H22B 3684   3.479   2.232   4.292  0.7517  0.0081 -0.5112
   50CHL1   C23 3685   3.387   2.403   4.381 -0.6270  0.0969  0.6481
   50CHL1  H23A 3686   3.468   2.478   4.393 -1.1962  0.7039  0.7505
   50CHL1  H23B 3687   3.293   2.460   4.400 -1.1937 -0.1808 -1.1423
   50CHL1   C24 3688   3.402   2.311   4.502 -0.3575  0.6619  0.1494
   50CHL1  H24A 3689   3.326   2.230   4.493  0.4717 -0.4521  2.4939
   50CHL1  H24B 3690   3.499   2.257   4.508 -1.3014 -1.0073  1.1758
   50CHL1   C25 3691   3.370   2.367   4.643 -0.1172 -0.8905  0.1751
   50CHL1   H25 3692   3.381   2.287   4.719 -2.4948 -1.0228  0.4489
   50CHL1   C26 3693   3.463   2.483   4.682 -0.4897 -0.0739  0.1125
   50CHL1  H26A 3694   3.433   2.568   4.616  1.1978  0.9055  0.5630
   50CHL1  H26B 3695   3.440   2.521   4.784 -0.1675  0.1899  0.0858
   50CHL1  H26C 3696   3.571   2.463   4.670 -0.7499 -0.7072 -1.4046
   50CHL1   C27 3697   3.225   2.406   4.656 -0.1673 -0.0191 -0.3184
   50CHL1  H27A 3698   3.165   2.313   4.651  0.0958 -0.1124 -2.6766
   50CHL1  H27B 3699   3.199   2.452   4.754  1.4602 -1.0009  0.6309
   50CHL1  H27C 3700   3.199   2.474   4.572  0.6098 -0.7341 -1.1577
   51CHL1    C3 3701   0.680   2.570   2.980 -0.1793 -0.1632 -0.2328
   51CHL1    H3 3702   0.614   2.659   2.989  0.5189  0.1974  1.7906
   51CHL1    O3 3703   0.689   2.519   2.846  0.0413  0.4700 -0.8103
   51CHL1   H3' 3704   0.602   2.490   2.815  0.5992 -0.7331 -1.3171
   51CHL1    C4 3705   0.818   2.625   3.029 -0.0632 -0.9484 -0.3965
   51CHL1   H4A 3706   0.892   2.542   3.024  0.3367 -0.6695  0.5937
   51CHL1   H4B 3707   0.851   2.705   2.959 -1.4843  0.3564  0.3725
   51CHL1    C5 3708   0.819   2.666   3.178 -0.2392  0.5567 -0.4697
   51CHL1    C6 3709   0.862   2.787   3.221  0.2220 -0.5699  0.8035
   51CHL1    H6 3710   0.902   2.861   3.151 -1.4491 -1.4207 -1.1497
   51CHL1    C7 3711   0.857   2.840   3.362 -0.3435 -0.0986  0.3940
   51CHL1   H7A 3712   0.944   2.903   3.391 -1.8043  1.2752  1.9836
   51CHL1   H7B 3713   0.770   2.904   3.384  0.7937  0.9217  2.2431
   51CHL1    C8 3714   0.837   2.730   3.463  0.0437  0.4164 -0.0374
   51CHL1    H8 3715   0.936   2.683   3.482 -0.5162 -0.1935  1.5650
   51CHL1   C14 3716   0.796   2.791   3.600 -0.3851 -0.9206 -1.5301
   51CHL1   H14 3717   0.691   2.828   3.597 -0.2551  0.3955  3.0806
   51CHL1   C15 3718   0.888   2.891   3.665 -0.2180 -0.7505 -0.3564
   51CHL1  H15A 3719   0.995   2.862   3.666  0.3819  1.0631 -2.8972
   51CHL1  H15B 3720   0.894   2.992   3.620  0.0638 -0.5511  0.1214
   51CHL1   C16 3721   0.844   2.893   3.815 -0.0664  0.2070 -0.0684
   51CHL1  H16A 3722   0.933   2.873   3.878  1.8428  0.0087 -2.6353
   51CHL1  H16B 3723   0.795   2.988   3.845 -0.3555  0.5571 -1.5357
   51CHL1   C17 3724   0.741   2.781   3.828  0.2615  0.4354 -0.0188
   51CHL1   H17 3725   0.644   2.824   3.797 -0.4797 -1.0731  0.1144
   51CHL1   C13 3726   0.773   2.689   3.709 -0.2814 -0.5278 -0.5962
   51CHL1   C18 3727   0.908   2.613   3.740  0.0395  0.6721  0.1715
   51CHL1  H18A 3728   0.896   2.543   3.826  1.0565  0.3126  0.0391
   51CHL1  H18B 3729   0.945   2.554   3.654  1.5459  0.5477  0.8626
   51CHL1  H18C 3730   0.991   2.677   3.777 -0.2735  2.0044 -1.3038
   51CHL1   C12 3731   0.662   2.597   3.677 -0.2762  0.5443 -0.3118
   51CHL1  H12A 3732   0.650   2.519   3.754 -2.5998  1.8855  0.8168
   51CHL1  H12B 3733   0.565   2.653   3.674 -1.0481 -0.6958  0.4855
   51CHL1   C11 3734   0.693   2.532   3.536  0.1125  0.7644 -0.2424
   51CHL1  H11A 3735   0.779   2.466   3.559 -0.2240  0.8798  1.4770
   51CHL1  H11B 3736   0.603   2.471   3.513  1.1833 -0.8281 -0.3475
   51CHL1    C9 3737   0.729   2.624   3.421  1.0016 -0.4207 -0.0842
   51CHL1    H9 3738   0.635   2.681   3.411  0.6222  0.0287  4.3121
   51CHL1   C10 3739   0.758   2.561   3.281  0.2712  0.4621 -0.3313
   51CHL1   C19 3740   0.865   2.456   3.308 -0.0064 -0.0316 -0.9378
   51CHL1  H19A 3741   0.883   2.394   3.218  0.7878 -2.2375  0.6553
   51CHL1  H19B 3742   0.961   2.499   3.345 -0.5417  1.9548 -1.7230
   51CHL1  H19C 3743   0.830   2.384   3.385  0.9135  2.1063  1.6279
   51CHL1    C1 3744   0.617   2.509   3.228 -0.3723  0.1131 -0.2625
   51CHL1   H1A 3745   0.576   2.438   3.302  3.0952 -1.4999  0.3139
   51CHL1   H1B 3746   0.545   2.594   3.230  0.4158  0.7856  1.7573
   51CHL1    C2 3747   0.631   2.461   3.083  0.2277 -0.0914 -0.1885
   51CHL1   H2A 3748   0.537   2.418   3.041  0.3612 -0.2881 -0.2879
   51CHL1   H2B 3749   0.698   2.372   3.084 -0.4918 -0.6494 -0.2252
   51CHL1   C20 3750   0.715   2.719   3.967 -0.0886 -0.1561 -0.1973
   51CHL1   H20 3751   0.658   2.624   3.961 -3.3141  1.6696 -0.3516
   51CHL1   C21 3752   0.619   2.812   4.048 -0.0771 -0.5425 -0.2703
   51CHL1  H21A 3753   0.670   2.904   4.082 -0.4895 -0.4321  0.0693
   51CHL1  H21B 3754   0.581   2.763   4.140 -0.9466  0.9870  0.2256
   51CHL1  H21C 3755   0.537   2.847   3.981 -0.8431 -0.9692  0.4195
   51CHL1   C22 3756   0.836   2.704   4.060 -0.5005 -0.5776  0.2271
   51CHL1  H22A 3757   0.914   2.649   4.003 -1.1778 -2.8670  1.3750
   51CHL1  H22B 3758   0.880   2.800   4.093 -2.0937 -0.5158  2.4183
   51CHL1   C23 3759   0.818   2.632   4.197  0.1636  0.4423 -0.6540
   51CHL1  H23A 3760   0.759   2.703   4.259 -0.4374 -0.5941 -0.0046
   51CHL1  H23B 3761   0.749   2.546   4.181  1.4990 -0.4150 -2.0558
   51CHL1   C24 3762   0.947   2.589   4.270 -0.1783 -0.2216 -0.3353
   51CHL1  H24A 3763   0.914   2.528   4.357 -0.3661  0.8820  0.3893
   51CHL1  H24B 3764   1.017   2.534   4.204 -0.3992 -0.1673 -0.6167
   51CHL1   C25 3765   1.026   2.703   4.344  0.6673  0.4377 -0.8954
   51CHL1   H25 3766   1.038   2.785   4.270  0.0135  1.0827 -0.2998
   51CHL1   C26 3767   0.949   2.758   4.472 -0.5071 -0.4097  0.3480
   51CHL1  H26A 3768   1.007   2.842   4.516 -0.4265 -0.0786 -0.3832
   51CHL1  H26B 3769   0.851   2.802   4.444  0.3251  0.6616 -0.9740
   51CHL1  H26C 3770   0.950   2.672   4.542  1.7233  1.4091  2.7575
   51CHL1   C27 3771   1.162   2.640   4.388 -0.3140 -0.5968  0.1210
   51CHL1  H27A 3772   1.150   2.562   4.466 -0.3879  1.8985  2.7405
   51CHL1  H27B 3773   1.208   2.584   4.304  0.7809 -0.6003  0.7110
   51CHL1  H27C 3774   1.229   2.713   4.438 -1.0725  0.0191  0.2653
   52CHL1    C3 3775   6.344   0.776   3.101 -0.4004 -0.1766  0.3646
   52CHL1    H3 3776   6.444   0.728   3.105 -0.1951  0.1353 -0.7306
   52CHL1    O3 3777   6.294   0.799   2.968  0.4594  0.1382 -0.0839
   52CHL1   H3' 3778   6.295   0.711   2.930 -1.0309 -0.6231  1.5167
   52CHL1    C4 3779   6.251   0.691   3.189  0.0269 -0.5103 -0.7952
   52CHL1   H4A 3780   6.156   0.749   3.194 -0.4750 -1.3845  0.2401
   52CHL1   H4B 3781   6.224   0.593   3.144 -1.8675 -0.1629 -0.4945
   52CHL1    C5 3782   6.286   0.664   3.332  0.3140 -0.6250 -0.1921
   52CHL1    C6 3783   6.300   0.537   3.388  0.2608 -0.1279  0.5347
   52CHL1    H6 3784   6.283   0.450   3.323 -2.3948  1.2375 -0.7567
   52CHL1    C7 3785   6.341   0.523   3.531  0.7576  0.4622 -0.5058
   52CHL1   H7A 3786   6.265   0.450   3.569 -0.4034  1.2485 -1.2422
   52CHL1   H7B 3787   6.436   0.466   3.535 -0.4084 -1.7845 -2.0450
   52CHL1    C8 3788   6.324   0.651   3.622 -0.0206  0.1143 -0.6934
   52CHL1    H8 3789   6.216   0.672   3.631  0.2517  1.3723 -0.0328
   52CHL1   C14 3790   6.396   0.623   3.757  0.0290  0.3881 -0.0747
   52CHL1   H14 3791   6.504   0.605   3.735 -0.0005 -1.7854  1.2381
   52CHL1   C15 3792   6.346   0.501   3.837 -0.0745  0.0654 -0.0237
   52CHL1  H15A 3793   6.237   0.500   3.813 -0.2113  0.9082  0.5027
   52CHL1  H15B 3794   6.393   0.408   3.798  1.4868  0.9291 -0.2888
   52CHL1   C16 3795   6.385   0.535   3.983 -0.1004 -0.3120 -0.8051
   52CHL1  H16A 3796   6.298   0.543   4.052  1.1134  3.1356  0.5192
   52CHL1  H16B 3797   6.460   0.469   4.031 -0.2562  0.9225  1.2691
   52CHL1   C17 3798   6.449   0.680   3.972  0.1030  0.4862  0.7699
   52CHL1   H17 3799   6.552   0.666   3.933 -0.3406 -1.1329  0.0899
   52CHL1   C13 3800   6.389   0.742   3.849  0.6799 -0.2720  0.2697
   52CHL1   C18 3801   6.244   0.789   3.889  0.4896  0.4352  0.2577
   52CHL1  H18A 3802   6.261   0.888   3.937  0.7727  0.2805  0.4760
   52CHL1  H18B 3803   6.169   0.804   3.809 -0.8953  1.7218  1.7202
   52CHL1  H18C 3804   6.190   0.722   3.959  0.8354  0.1988  0.2985
   52CHL1   C12 3805   6.472   0.852   3.770 -0.4876  0.6970 -0.4512
   52CHL1  H12A 3806   6.478   0.944   3.832  0.5619 -0.6346  1.5118
   52CHL1  H12B 3807   6.569   0.800   3.752 -2.1222 -2.4199 -0.9240
   52CHL1   C11 3808   6.414   0.891   3.637 -0.0505  0.7103  0.2336
   52CHL1  H11A 3809   6.332   0.965   3.652 -0.9986 -0.2907  0.1494
   52CHL1  H11B 3810   6.486   0.960   3.589  0.5648  1.7821  2.5430
   52CHL1    C9 3811   6.383   0.769   3.548 -0.0412 -0.1114  0.3391
   52CHL1    H9 3812   6.483   0.728   3.524  1.6494  3.5975  0.4012
   52CHL1   C10 3813   6.312   0.793   3.409  0.1698 -0.9911  0.6222
   52CHL1   C19 3814   6.179   0.876   3.435  0.3644 -0.2414 -0.0197
   52CHL1  H19A 3815   6.131   0.837   3.527  1.9746 -0.4657  0.7553
   52CHL1  H19B 3816   6.210   0.982   3.440  0.3717 -0.1712 -1.2240
   52CHL1  H19C 3817   6.106   0.879   3.351  0.9257 -0.5416 -0.5204
   52CHL1    C1 3818   6.410   0.886   3.323 -0.3091 -0.1305 -0.2083
   52CHL1   H1A 3819   6.423   0.985   3.372 -0.0483 -0.7709  1.0742
   52CHL1   H1B 3820   6.510   0.839   3.318 -0.4034 -0.7482  2.2029
   52CHL1    C2 3821   6.362   0.907   3.177  0.2192 -0.3511  0.7402
   52CHL1   H2A 3822   6.433   0.970   3.119  1.7508 -0.6116  2.2651
   52CHL1   H2B 3823   6.267   0.965   3.187  0.1689 -0.3570  0.3222
   52CHL1   C20 3824   6.458   0.765   4.096 -0.2189 -0.0956 -0.8935
   52CHL1   H20 3825   6.474   0.871   4.066  2.4953 -0.3248 -0.4789
   52CHL1   C21 3826   6.590   0.728   4.165  0.4806  0.5333  0.3720
   52CHL1  H21A 3827   6.579   0.777   4.264  0.2823  0.0978  0.5676
   52CHL1  H21B 3828   6.687   0.761   4.122  1.9702 -1.4251  2.0078
   52CHL1  H21C 3829   6.588   0.622   4.198 -1.5228  0.8539  1.4321
   52CHL1   C22 3830   6.345   0.755   4.203 -0.2220  0.1544  0.2330
   52CHL1  H22A 3831   6.244   0.761   4.157 -0.4713 -2.4321  0.3179
   52CHL1  H22B 3832   6.346   0.650   4.240 -2.1982 -0.0100 -0.0447
   52CHL1   C23 3833   6.345   0.856   4.316 -0.0389  0.4719 -0.7653
   52CHL1  H23A 3834   6.449   0.890   4.331 -0.0566 -0.1038  0.9242
   52CHL1  H23B 3835   6.287   0.945   4.282 -0.7578  0.5157  0.5054
   52CHL1   C24 3836   6.286   0.796   4.444 -0.1607 -0.1879  0.3449
   52CHL1  H24A 3837   6.175   0.783   4.436 -0.6204  1.9423  2.3173
   52CHL1  H24B 3838   6.332   0.695   4.448  0.6455 -0.0318 -2.7781
   52CHL1   C25 3839   6.310   0.879   4.565 -1.6065 -0.4193 -0.0920
   52CHL1   H25 3840   6.264   0.824   4.649 -0.2776 -1.0636  0.2328
   52CHL1   C26 3841   6.457   0.924   4.599  0.7548  0.9119  0.7923
   52CHL1  H26A 3842   6.489   0.999   4.523  0.2328  0.4899  0.1528
   52CHL1  H26B 3843   6.472   0.957   4.704  1.1196 -2.3751  1.8598
   52CHL1  H26C 3844   6.523   0.836   4.584  0.0690  0.6963 -1.2696
   52CHL1   C27 3845   6.230   1.008   4.539 -0.4594 -0.2079 -0.3739
   52CHL1  H27A 3846   6.287   1.064   4.463  0.0962 -0.5564 -0.2231
   52CHL1  H27B 3847   6.132   0.977   4.496 -1.2378  1.1150  0.3913
   52CHL1  H27C 3848   6.215   1.060   4.636  2.4599 -1.6069  0.9495
   53CHL1    C3 3849   1.350   2.655   2.760 -0.2192  0.4348 -0.5848
   53CHL1    H3 3850   1.440   2.721   2.761  1.2422 -1.4176 -1.8078
   53CHL1    O3 3851   1.314   2.621   2.634  0.8674  0.4666  0.3829
   53CHL1   H3' 3852   1.254   2.547   2.647  2.1033 -0.5019  0.7871
   53CHL1    C4 3853   1.386   2.526   2.844  0.1381 -0.7614  0.0326
   53CHL1   H4A 3854   1.295   2.464   2.826  0.1872 -1.0077  0.5957
   53CHL1   H4B 3855   1.467   2.470   2.792 -0.4438 -0.8027 -0.8386
   53CHL1    C5 3856   1.413   2.552   2.986 -0.4895  0.1516  0.2058
   53CHL1    C6 3857   1.535   2.526   3.039  0.7823 -0.3049 -0.8260
   53CHL1    H6 3858   1.614   2.481   2.978  1.6208  1.1095 -0.8371
   53CHL1    C7 3859   1.567   2.553   3.182  0.3050 -0.4868  0.1523
   53CHL1   H7A 3860   1.620   2.470   3.232 -1.5141 -1.4020  0.6545
   53CHL1   H7B 3861   1.625   2.646   3.196 -0.1130 -0.0950 -0.6466
   53CHL1    C8 3862   1.438   2.576   3.266 -0.2667 -0.3290 -0.2332
   53CHL1    H8 3863   1.392   2.475   3.280 -0.8459 -0.1196 -0.5587
   53CHL1   C14 3864   1.473   2.636   3.400  0.4428 -0.0875  0.2069
   53CHL1   H14 3865   1.541   2.722   3.383  2.4866 -1.2360  2.0772
   53CHL1   C15 3866   1.561   2.540   3.485 -0.0188  0.3622 -0.2872
   53CHL1  H15A 3867   1.516   2.439   3.488 -2.8066  1.5166 -0.1499
   53CHL1  H15B 3868   1.668   2.534   3.454  0.1246 -0.2001  0.2947
   53CHL1   C16 3869   1.554   2.608   3.620  0.1054  0.0902 -0.3460
   53CHL1  H16A 3870   1.521   2.538   3.700 -0.6240  0.5666 -0.2185
   53CHL1  H16B 3871   1.657   2.644   3.642 -1.0009  1.3700  3.4054
   53CHL1   C17 3872   1.441   2.722   3.611  0.5138  0.2405  0.3117
   53CHL1   H17 3873   1.493   2.818   3.592  0.4686  0.8453  2.8868
   53CHL1   C13 3874   1.357   2.683   3.492  0.4621 -0.6325 -0.3328
   53CHL1   C18 3875   1.256   2.567   3.536  0.1958  0.3592  0.1809
   53CHL1  H18A 3876   1.169   2.598   3.598 -0.1936 -0.3214 -0.0193
   53CHL1  H18B 3877   1.214   2.512   3.449 -0.6165 -2.6283  2.2954
   53CHL1  H18C 3878   1.325   2.497   3.587  0.1236 -0.2465 -0.5374
   53CHL1   C12 3879   1.280   2.787   3.421 -0.0594  0.1139 -0.1962
   53CHL1  H12A 3880   1.190   2.824   3.476  0.7046 -0.3434  1.4075
   53CHL1  H12B 3881   1.340   2.877   3.398 -0.3064  0.5272  0.7356
   53CHL1   C11 3882   1.233   2.741   3.284 -0.0716  0.5356 -0.0921
   53CHL1  H11A 3883   1.149   2.674   3.311  1.4127 -1.3858  0.0103
   53CHL1  H11B 3884   1.197   2.835   3.237 -0.1069  0.5443 -0.0480
   53CHL1    C9 3885   1.343   2.675   3.194 -0.1871  0.9046  0.6919
   53CHL1    H9 3886   1.402   2.766   3.169  0.4742  0.3638  0.2212
   53CHL1   C10 3887   1.296   2.620   3.056 -0.0055  0.2602 -0.4346
   53CHL1   C19 3888   1.191   2.504   3.074  0.2272  0.1620 -0.4671
   53CHL1  H19A 3889   1.245   2.432   3.140 -0.4032 -0.9791 -1.1802
   53CHL1  H19B 3890   1.103   2.536   3.133 -1.0369 -1.5673 -1.3352
   53CHL1  H19C 3891   1.157   2.449   2.984 -1.8166  0.9948 -0.2539
   53CHL1    C1 3892   1.238   2.736   2.973  0.8807  0.6627  0.4629
   53CHL1   H1A 3893   1.144   2.783   3.007  1.1461  1.8145 -0.3224
   53CHL1   H1B 3894   1.315   2.816   2.980  1.6712  0.0341 -0.7464
   53CHL1    C2 3895   1.222   2.710   2.828  0.2018  0.6843  0.4872
   53CHL1   H2A 3896   1.209   2.806   2.775  0.2098  0.5887  0.3117
   53CHL1   H2B 3897   1.139   2.636   2.818  1.0143 -0.1763 -0.1102
   53CHL1   C20 3898   1.380   2.746   3.756  0.6538  0.2610  0.2541
   53CHL1   H20 3899   1.317   2.663   3.794  0.3605  0.2264 -0.2936
   53CHL1   C21 3900   1.279   2.866   3.744  0.3266 -0.1984 -0.7815
   53CHL1  H21A 3901   1.345   2.947   3.706 -0.8570  1.1322 -0.0917
   53CHL1  H21B 3902   1.239   2.888   3.845  0.5806 -2.7057 -0.0720
   53CHL1  H21C 3903   1.190   2.849   3.680 -0.2425 -1.2983  0.2721
   53CHL1   C22 3904   1.487   2.774   3.865 -0.1674 -0.4466 -0.2302
   53CHL1  H22A 3905   1.559   2.689   3.860 -0.3367 -0.7867  2.0542
   53CHL1  H22B 3906   1.539   2.869   3.839  0.0978 -0.5943 -0.2454
   53CHL1   C23 3907   1.426   2.787   4.007 -0.1112  0.2386 -0.0213
   53CHL1  H23A 3908   1.343   2.860   4.001 -2.1785 -2.0799 -2.9133
   53CHL1  H23B 3909   1.380   2.689   4.031  0.8843 -0.1906  0.2175
   53CHL1   C24 3910   1.514   2.810   4.133  0.3573  0.2759  0.5727
   53CHL1  H24A 3911   1.582   2.722   4.136  0.5084  0.4138  2.6273
   53CHL1  H24B 3912   1.578   2.898   4.109  0.8854 -0.2212  0.1331
   53CHL1   C25 3913   1.440   2.837   4.256  0.7722 -0.3458 -0.6337
   53CHL1   H25 3914   1.365   2.755   4.249  0.7542 -0.3823 -0.0147
   53CHL1   C26 3915   1.532   2.819   4.379 -0.5890  0.5261 -0.1814
   53CHL1  H26A 3916   1.528   2.708   4.384  2.4647  0.2504 -1.3031
   53CHL1  H26B 3917   1.637   2.856   4.373  0.0994 -1.0122  1.3487
   53CHL1  H26C 3918   1.493   2.852   4.477  2.0121  1.4782  0.6127
   53CHL1   C27 3919   1.372   2.975   4.242 -0.3463  0.0517  0.1725
   53CHL1  H27A 3920   1.302   2.981   4.156  0.8088 -0.5169 -0.8419
   53CHL1  H27B 3921   1.321   2.995   4.339 -0.1227 -0.2198  0.3460
   53CHL1  H27C 3922   1.452   3.051   4.230  0.2478  0.0417  3.2060
   54CHL1    C3 3923   6.803   4.424   3.322  0.3144  0.1079 -0.3097
   54CHL1    H3 3924   6.809   4.516   3.260 -1.4291  1.1418  0.9562
   54CHL1    O3 3925   6.763   4.326   3.230 -0.4789  0.1317  0.6725
   54CHL1   H3' 3926   6.753   4.246   3.282 -0.2058 -0.7235 -0.5651
   54CHL1    C4 3927   6.934   4.387   3.382 -0.2143 -0.0404  0.6391
   54CHL1   H4A 3928   6.928   4.287   3.430  0.7121  0.2078  1.2981
   54CHL1   H4B 3929   7.012   4.374   3.304 -0.9617 -0.9261  0.0298
   54CHL1    C5 3930   6.976   4.490   3.490  0.3255  0.4115 -0.0349
   54CHL1    C6 3931   7.090   4.560   3.466  0.4711 -0.0331 -0.5768
   54CHL1    H6 3932   7.131   4.547   3.365 -0.9360  0.7819 -1.2891
   54CHL1    C7 3933   7.129   4.675   3.544 -1.2397 -0.9244  0.4555
   54CHL1   H7A 3934   7.233   4.659   3.580 -0.9639 -0.5303 -0.1381
   54CHL1   H7B 3935   7.124   4.774   3.494 -0.5022 -0.2975  1.5765
   54CHL1    C8 3936   7.059   4.679   3.684 -0.7113 -0.3512 -0.3933
   54CHL1    H8 3937   7.104   4.593   3.739  0.0649  0.2787 -0.0225
   54CHL1   C14 3938   7.092   4.806   3.749  0.6870 -0.2153 -0.0549
   54CHL1   H14 3939   7.036   4.886   3.696  0.1191 -1.9787 -2.2302
   54CHL1   C15 3940   7.247   4.853   3.744  0.1711  0.2165 -0.0332
   54CHL1  H15A 3941   7.317   4.767   3.756 -2.8572 -2.4725 -0.3026
   54CHL1  H15B 3942   7.266   4.906   3.649  0.8099 -0.9288 -0.5590
   54CHL1   C16 3943   7.256   4.958   3.858  0.2413 -0.7693 -0.0912
   54CHL1  H16A 3944   7.331   4.919   3.930  1.1740  2.3597  0.7945
   54CHL1  H16B 3945   7.302   5.048   3.811 -2.0321 -0.3715 -1.6977
   54CHL1   C17 3946   7.110   4.967   3.919  0.5579 -0.6035  0.0875
   54CHL1   H17 3947   7.056   5.030   3.845  1.4265  0.3733  0.2548
   54CHL1   C13 3948   7.051   4.824   3.894  0.4072  0.0485 -0.2800
   54CHL1   C18 3949   7.104   4.705   3.978  0.1610 -0.7509  0.1737
   54CHL1  H18A 3950   7.215   4.707   3.968  0.0782 -1.2580 -1.0371
   54CHL1  H18B 3951   7.090   4.727   4.086  1.2914  1.5600 -0.0870
   54CHL1  H18C 3952   7.070   4.605   3.944  0.5677 -0.6274 -0.6023
   54CHL1   C12 3953   6.899   4.809   3.886  0.5184  0.0111 -0.0519
   54CHL1  H12A 3954   6.855   4.800   3.987  0.8357  0.1335  0.1022
   54CHL1  H12B 3955   6.857   4.899   3.835 -0.4020 -2.0794 -3.3493
   54CHL1   C11 3956   6.842   4.682   3.800  0.4550  0.7684 -0.0307
   54CHL1  H11A 3957   6.856   4.600   3.874 -1.8548  0.1130 -0.2273
   54CHL1  H11B 3958   6.735   4.707   3.782  0.3997  0.5481 -0.0190
   54CHL1    C9 3959   6.910   4.660   3.664  0.2545 -0.5094 -0.3206
   54CHL1    H9 3960   6.883   4.744   3.596  0.2485 -0.4152 -0.2027
   54CHL1   C10 3961   6.871   4.524   3.596  0.4158  0.1922 -0.0373
   54CHL1   C19 3962   6.867   4.405   3.703 -0.4291 -0.4249  0.1891
   54CHL1  H19A 3963   6.829   4.312   3.654 -2.5274  0.5226 -0.0929
   54CHL1  H19B 3964   6.970   4.386   3.738  0.6467 -0.1545 -2.5760
   54CHL1  H19C 3965   6.805   4.434   3.791 -0.8055  1.7353 -0.7359
   54CHL1    C1 3966   6.728   4.540   3.536 -0.0151 -0.5223  0.1105
   54CHL1   H1A 3967   6.657   4.526   3.621 -1.3931 -0.2858 -0.9693
   54CHL1   H1B 3968   6.721   4.643   3.496 -0.1064 -0.2527  0.7909
   54CHL1    C2 3969   6.696   4.441   3.428 -0.1482 -0.0723  0.2477
   54CHL1   H2A 3970   6.601   4.465   3.375 -1.3932 -0.6796  2.0643
   54CHL1   H2B 3971   6.687   4.337   3.468 -1.4113 -0.6732 -1.4663
   54CHL1   C20 3972   7.100   5.041   4.054 -0.0877  0.0173 -0.8133
   54CHL1   H20 3973   7.013   4.998   4.107  1.1081 -2.7058 -0.8863
   54CHL1   C21 3974   7.072   5.190   4.036  0.4154  0.2496 -0.6436
   54CHL1  H21A 3975   6.978   5.207   3.981  0.4163  0.3624 -0.6116
   54CHL1  H21B 3976   7.154   5.249   3.990  1.4358  0.7300  1.6176
   54CHL1  H21C 3977   7.060   5.247   4.131 -0.7902  1.6947 -1.6344
   54CHL1   C22 3978   7.221   5.013   4.158 -0.0582 -0.2418  0.2846
   54CHL1  H22A 3979   7.263   4.913   4.137 -2.1161 -0.9805 -0.6111
   54CHL1  H22B 3980   7.305   5.083   4.138 -0.8922  0.9428  0.8042
   54CHL1   C23 3981   7.182   5.014   4.302  0.3605 -0.3376  0.7463
   54CHL1  H23A 3982   7.154   5.119   4.323  2.0063  0.7670 -1.9881
   54CHL1  H23B 3983   7.091   4.954   4.322  1.2328 -2.1766 -0.4975
   54CHL1   C24 3984   7.295   4.993   4.407  0.3703  1.1330  0.6211
   54CHL1  H24A 3985   7.382   5.050   4.369  2.1131 -2.2204 -0.8851
   54CHL1  H24B 3986   7.255   5.047   4.496 -0.0955  1.6633  0.0937
   54CHL1   C25 3987   7.334   4.847   4.429 -0.2278 -0.9475 -0.4844
   54CHL1   H25 3988   7.371   4.801   4.335  0.9759  0.7722 -0.9128
   54CHL1   C26 3989   7.461   4.835   4.529  0.9276  0.3260  0.6457
   54CHL1  H26A 3990   7.452   4.885   4.628 -0.0896 -1.2184  1.3754
   54CHL1  H26B 3991   7.477   4.725   4.536 -0.4951  0.1245  1.0392
   54CHL1  H26C 3992   7.548   4.885   4.483  0.9561  2.3012  2.6474
   54CHL1   C27 3993   7.216   4.755   4.481  0.4746 -0.3702  0.6855
   54CHL1  H27A 3994   7.257   4.652   4.482  2.3998  0.2331 -2.5138
   54CHL1  H27B 3995   7.191   4.794   4.583 -0.0219  1.4576 -0.0904
   54CHL1  H27C 3996   7.119   4.774   4.432  0.2057 -0.6844  1.0861
   55CHL1    C3 3997   4.694   3.764   3.311  0.1234 -0.0786 -0.6019
   55CHL1    H3 3998   4.611   3.690   3.312  2.4631 -2.8956  0.8953
   55CHL1    O3 3999   4.757   3.763   3.191 -0.7259 -0.3793  0.2806
   55CHL1   H3' 4000   4.749   3.679   3.146 -0.4576  0.2499 -1.0013
   55CHL1    C4 4001   4.640   3.900   3.355 -0.4795  0.2060  0.2428
   55CHL1   H4A 4002   4.734   3.959   3.359 -1.3855  1.6814  0.6842
   55CHL1   H4B 4003   4.588   3.946   3.268 -2.9684 -3.5028 -0.4487
   55CHL1    C5 4004   4.564   3.899   3.490  0.2565 -0.1571  0.1980
   55CHL1    C6 4005   4.437   3.937   3.502 -0.0999  0.0093 -0.1533
   55CHL1    H6 4006   4.380   3.979   3.417  1.2103  0.6647 -0.7461
   55CHL1    C7 4007   4.377   3.945   3.638 -1.1233  0.0543  0.6156
   55CHL1   H7A 4008   4.314   4.036   3.651  1.1980  2.1285 -1.5224
   55CHL1   H7B 4009   4.301   3.865   3.638  0.5537 -1.6641 -1.8668
   55CHL1    C8 4010   4.475   3.930   3.757  0.5760 -0.5688  0.0114
   55CHL1    H8 4011   4.539   4.021   3.768 -0.3874  0.2703 -1.0508
   55CHL1   C14 4012   4.397   3.896   3.886 -0.2230  0.2972  0.4582
   55CHL1   H14 4013   4.340   3.804   3.860  0.7637  0.3101 -2.0337
   55CHL1   C15 4014   4.304   4.006   3.944  0.2629 -0.4398 -0.1234
   55CHL1  H15A 4015   4.355   4.105   3.950  1.3257 -0.8503 -1.6690
   55CHL1  H15B 4016   4.220   4.025   3.874  0.0647 -1.4611 -0.1816
   55CHL1   C16 4017   4.281   3.969   4.092  0.1395 -0.2885 -0.4518
   55CHL1  H16A 4018   4.306   4.054   4.158  0.1109 -1.0832  0.6107
   55CHL1  H16B 4019   4.173   3.942   4.101  0.7542 -3.0391 -0.3353
   55CHL1   C17 4020   4.378   3.847   4.119  0.2291  0.2842 -0.1481
   55CHL1   H17 4021   4.323   3.755   4.088  0.3203 -0.2561  1.2069
   55CHL1   C13 4022   4.488   3.858   4.007  0.0832 -0.1566 -0.4287
   55CHL1   C18 4023   4.583   3.973   4.028  0.0305 -0.4977  0.2780
   55CHL1  H18A 4024   4.654   3.953   4.111  0.0822 -0.5588  0.2193
   55CHL1  H18B 4025   4.632   3.995   3.930 -0.6156 -2.2234 -0.4741
   55CHL1  H18C 4026   4.538   4.071   4.054  1.1133 -0.0764  0.6175
   55CHL1   C12 4027   4.555   3.723   3.977 -0.1865 -0.2350  0.7182
   55CHL1  H12A 4028   4.611   3.683   4.064 -1.7686 -2.5917  0.7758
   55CHL1  H12B 4029   4.479   3.647   3.948  1.6533 -1.1186 -2.2567
   55CHL1   C11 4030   4.646   3.750   3.856  0.7683 -0.5280 -0.2281
   55CHL1  H11A 4031   4.721   3.825   3.889 -0.6978 -0.0725  2.2904
   55CHL1  H11B 4032   4.702   3.658   3.829 -0.1213 -1.5520  1.2395
   55CHL1    C9 4033   4.569   3.813   3.731  0.3049 -0.6365 -0.2569
   55CHL1    H9 4034   4.508   3.725   3.702 -0.2968 -0.2476 -0.1932
   55CHL1   C10 4035   4.655   3.846   3.608 -0.1489 -0.2638  0.2011
   55CHL1   C19 4036   4.771   3.945   3.636  0.2818 -0.1835 -0.6721
   55CHL1  H19A 4037   4.736   4.042   3.678 -0.2090 -0.3845 -0.6132
   55CHL1  H19B 4038   4.835   3.900   3.714 -0.4907 -2.2143 -1.1346
   55CHL1  H19C 4039   4.831   3.968   3.545 -0.1380  0.4734 -0.7928
   55CHL1    C1 4040   4.722   3.717   3.562  0.4856  0.0891  0.5992
   55CHL1   H1A 4041   4.801   3.692   3.636  0.1421 -0.3287  0.8255
   55CHL1   H1B 4042   4.634   3.651   3.559 -0.1080  0.8668 -2.8072
   55CHL1    C2 4043   4.787   3.710   3.415  0.4773 -0.4701  0.1901
   55CHL1   H2A 4044   4.812   3.602   3.401 -0.1408 -0.3445 -2.5107
   55CHL1   H2B 4045   4.883   3.766   3.417 -0.3725  0.9991  0.7519
   55CHL1   C20 4046   4.436   3.842   4.256 -0.2948  0.5934  0.2248
   55CHL1   H20 4047   4.541   3.806   4.250 -1.2144 -1.9951 -2.2919
   55CHL1   C21 4048   4.350   3.735   4.325  0.0470 -0.2187  0.0872
   55CHL1  H21A 4049   4.245   3.771   4.335 -0.2203 -0.3681 -1.7638
   55CHL1  H21B 4050   4.390   3.710   4.425  1.7403 -0.5895 -0.6428
   55CHL1  H21C 4051   4.343   3.643   4.263  0.7689  1.3090 -2.4358
   55CHL1   C22 4052   4.458   3.968   4.344  0.4003 -0.4791  0.2322
   55CHL1  H22A 4053   4.525   4.042   4.294 -1.6659  1.7465  0.5464
   55CHL1  H22B 4054   4.354   4.005   4.350  0.2083 -0.5991 -1.7470
   55CHL1   C23 4055   4.515   3.940   4.489 -0.4594 -0.6165 -1.0612
   55CHL1  H23A 4056   4.459   3.865   4.549  0.0509  0.1361  0.4034
   55CHL1  H23B 4057   4.617   3.897   4.484  0.0904  0.0854  2.0832
   55CHL1   C24 4058   4.522   4.073   4.569  0.5822 -0.3487 -0.3596
   55CHL1  H24A 4059   4.591   4.144   4.519 -1.1610 -0.2700 -2.8207
   55CHL1  H24B 4060   4.421   4.118   4.565 -0.3439 -1.7606  3.1999
   55CHL1   C25 4061   4.546   4.053   4.718  0.0859  0.4141 -0.1588
   55CHL1   H25 4062   4.471   3.972   4.733 -1.3775  1.5809 -0.8290
   55CHL1   C26 4063   4.693   4.009   4.747 -1.2717 -0.2490 -0.8927
   55CHL1  H26A 4064   4.693   3.992   4.857  0.8300  0.2814 -0.7802
   55CHL1  H26B 4065   4.718   3.921   4.685 -0.3139 -0.3037 -0.4473
   55CHL1  H26C 4066   4.766   4.092   4.733 -0.2994 -0.9988 -0.3524
   55CHL1   C27 4067   4.521   4.177   4.801 -0.4094 -0.2626 -0.2502
   55CHL1  H27A 4068   4.568   4.169   4.902  0.3865 -2.5582 -0.7305
   55CHL1  H27B 4069   4.570   4.264   4.753 -1.0428 -0.1604 -0.7238
   55CHL1  H27C 4070   4.411   4.191   4.802 -0.5071 -0.6718 -2.1630
   56CHL1    C3 4071   4.357   1.532   2.762 -0.7413 -1.1121  0.2223
   56CHL1    H3 4072   4.330   1.638   2.783  1.8542 -0.5095  0.8493
   56CHL1    O3 4073   4.296   1.480   2.641 -0.3073  0.3813 -0.3250
   56CHL1   H3' 4074   4.330   1.390   2.635 -1.4716 -0.1659  0.7779
   56CHL1    C4 4075   4.506   1.528   2.755  0.4773  0.1937  0.2526
   56CHL1   H4A 4076   4.533   1.424   2.727  1.5446  0.2002  1.1837
   56CHL1   H4B 4077   4.544   1.579   2.663 -3.1261  3.8449  0.5223
   56CHL1    C5 4078   4.573   1.567   2.882 -1.0009  0.1770 -0.5608
   56CHL1    C6 4079   4.678   1.654   2.886  0.3202  0.5290  0.1412
   56CHL1    H6 4080   4.717   1.709   2.800  1.9716 -1.3486 -0.3833
   56CHL1    C7 4081   4.771   1.676   3.000  0.6612 -0.1158  0.3455
   56CHL1   H7A 4082   4.876   1.664   2.964  0.2855 -2.9962 -0.0352
   56CHL1   H7B 4083   4.752   1.776   3.042 -0.8719  1.2126 -3.1423
   56CHL1    C8 4084   4.746   1.575   3.115  0.0460  0.1055  1.0080
   56CHL1    H8 4085   4.786   1.474   3.095  3.2450  1.3348  0.6102
   56CHL1   C14 4086   4.803   1.633   3.242 -0.1352  0.0720  0.5846
   56CHL1   H14 4087   4.747   1.728   3.255  1.3485  1.0838 -0.0633
   56CHL1   C15 4088   4.948   1.681   3.249  0.0542 -0.4057 -0.4302
   56CHL1  H15A 4089   5.018   1.621   3.188  1.7338  0.0946  0.9164
   56CHL1  H15B 4090   4.950   1.788   3.218 -0.5016  0.5007  2.3318
   56CHL1   C16 4091   4.971   1.686   3.404 -1.1565  0.3616  0.0506
   56CHL1  H16A 4092   5.057   1.621   3.431 -0.7638  1.0761  0.5873
   56CHL1  H16B 4093   4.984   1.786   3.451 -2.3468 -0.1798  1.5927
   56CHL1   C17 4094   4.843   1.633   3.474  0.2250  0.0590 -0.1329
   56CHL1   H17 4095   4.775   1.720   3.473 -0.4438 -0.4186 -2.5841
   56CHL1   C13 4096   4.778   1.548   3.372 -0.3611  0.1343  0.6715
   56CHL1   C18 4097   4.852   1.418   3.355 -0.5771  0.5035  0.0372
   56CHL1  H18A 4098   4.962   1.431   3.351 -0.5698  0.5560  0.3757
   56CHL1  H18B 4099   4.836   1.364   3.451 -0.9863  0.3918 -0.0924
   56CHL1  H18C 4100   4.827   1.343   3.277 -1.2552 -0.2171  0.9222
   56CHL1   C12 4101   4.624   1.520   3.383 -1.0130 -0.6579  0.4575
   56CHL1  H12A 4102   4.604   1.443   3.460 -0.2087 -0.5034  0.8319
   56CHL1  H12B 4103   4.555   1.606   3.399 -0.8865 -0.5429  0.3802
   56CHL1   C11 4104   4.564   1.459   3.255  0.0068 -0.0086  0.2879
   56CHL1  H11A 4105   4.599   1.355   3.235  1.9432  0.2169  2.1702
   56CHL1  H11B 4106   4.454   1.451   3.265  0.1051 -1.3552  0.4788
   56CHL1    C9 4107   4.594   1.548   3.133  0.3862 -0.3930  0.7160
   56CHL1    H9 4108   4.555   1.651   3.148  2.0067  0.4598 -0.6082
   56CHL1   C10 4109   4.526   1.484   3.003  0.3763  0.1340 -0.8635
   56CHL1   C19 4110   4.569   1.339   2.990  0.2710 -0.6370  0.8524
   56CHL1  H19A 4111   4.675   1.323   3.016  1.5383  3.2586 -1.1294
   56CHL1  H19B 4112   4.503   1.271   3.049 -1.8769  1.1381  0.6416
   56CHL1  H19C 4113   4.564   1.298   2.887  0.5622 -0.3600  0.7292
   56CHL1    C1 4114   4.373   1.504   3.008 -0.4095 -0.2265 -0.0090
   56CHL1   H1A 4115   4.335   1.442   3.091  2.1542 -0.2357  1.2542
   56CHL1   H1B 4116   4.352   1.613   3.019  1.5987  0.0113  2.2480
   56CHL1    C2 4117   4.305   1.452   2.884  0.4606 -0.5990 -0.6422
   56CHL1   H2A 4118   4.194   1.452   2.896  0.4115 -3.1162 -0.6430
   56CHL1   H2B 4119   4.340   1.348   2.868  0.3001 -1.1632  2.1926
   56CHL1   C20 4120   4.849   1.579   3.620  0.3649  0.1682 -0.4242
   56CHL1   H20 4121   4.846   1.468   3.620  0.1786  0.1535  1.4923
   56CHL1   C21 4122   4.716   1.613   3.684 -0.6307 -0.4750  0.5274
   56CHL1  H21A 4123   4.642   1.549   3.631 -0.6526 -0.0011 -0.0253
   56CHL1  H21B 4124   4.695   1.720   3.663  1.2573 -0.1442  0.1806
   56CHL1  H21C 4125   4.710   1.575   3.789 -0.9562 -2.6854 -0.2469
   56CHL1   C22 4126   4.975   1.624   3.692  0.0450  0.4121 -0.1693
   56CHL1  H22A 4127   5.072   1.592   3.648  1.1203  2.1973  0.7856
   56CHL1  H22B 4128   4.977   1.734   3.680  0.1412  0.3492 -0.7224
   56CHL1   C23 4129   4.980   1.600   3.843  0.2904  0.5846 -0.6690
   56CHL1  H23A 4130   5.062   1.667   3.879 -0.6777  0.6264  1.6371
   56CHL1  H23B 4131   4.891   1.632   3.901  0.3747 -0.3408  0.0020
   56CHL1   C24 4132   5.001   1.445   3.874 -0.4880 -0.1094 -0.9147
   56CHL1  H24A 4133   4.902   1.404   3.843 -2.3076  2.8929  0.4602
   56CHL1  H24B 4134   5.083   1.396   3.816  0.0555 -1.1350  0.6704
   56CHL1   C25 4135   5.030   1.419   4.023 -1.1243 -1.4559  0.1666
   56CHL1   H25 4136   4.950   1.450   4.094  0.7016  0.1493  1.6359
   56CHL1   C26 4137   5.055   1.272   4.054  0.4140 -0.2363 -0.1630
   56CHL1  H26A 4138   5.150   1.232   4.013  1.5357  0.6021  1.5378
   56CHL1  H26B 4139   5.052   1.253   4.163  0.5241 -0.0884 -0.1353
   56CHL1  H26C 4140   4.973   1.203   4.023 -1.1078  1.1546  0.6410
   56CHL1   C27 4141   5.157   1.493   4.069 -0.9620 -0.3106 -0.4893
   56CHL1  H27A 4142   5.199   1.448   4.161  0.5510  1.3330 -0.3116
   56CHL1  H27B 4143   5.241   1.491   3.996 -1.3883 -0.7996 -0.9716
   56CHL1  H27C 4144   5.126   1.600   4.076  0.7878  0.4292 -2.7054
   57SAPC     N 4145   6.689   6.498   7.180  0.4644  0.2424  0.0152
   57SAPC   C12 4146   6.597   6.575   7.084 -0.0412  0.0768 -0.2844
   57SAPC  H12A 4147   6.587   6.677   7.118 -2.1760 -0.8935  2.2677
   57SAPC  H12B 4148   6.496   6.539   7.096 -0.9522  3.0800  2.6256
   57SAPC   C13 4149   6.678   6.349   7.162  0.5488  0.1620 -0.5015
   57SAPC  H13A 4150   6.741   6.297   7.232 -0.3453 -1.3208 -0.7521
   57SAPC  H13B 4151   6.575   6.320   7.180  0.3679 -0.0787 -1.8400
   57SAPC  H13C 4152   6.703   6.323   7.061  0.0015  1.3377 -0.9718
   57SAPC   C14 4153   6.833   6.533   7.174 -0.7538 -0.4683 -0.1332
   57SAPC  H14A 4154   6.887   6.486   7.254  1.3643 -2.6909 -2.7132
   57SAPC  H14B 4155   6.878   6.502   7.081 -0.8226  0.4785 -0.5017
   57SAPC  H14C 4156   6.847   6.640   7.170  0.6271 -0.6101  0.5314
   57SAPC   C15 4157   6.631   6.523   7.320  0.2900 -0.1964  0.7666
   57SAPC  H15A 4158   6.526   6.500   7.328  0.6495 -2.5235 -0.5281
   57SAPC  H15B 4159   6.687   6.465   7.392  1.1586 -0.9871 -0.5218
   57SAPC  H15C 4160   6.644   6.624   7.357  4.0506  0.3996 -1.6721
   57SAPC   C11 4161   6.637   6.582   6.941  0.1547  0.1777 -0.2869
   57SAPC  H11A 4162   6.728   6.646   6.936  0.6008 -0.2774  1.2568
   57SAPC  H11B 4163   6.564   6.632   6.875  1.1095  1.8654 -0.1265
   57SAPC     P 4164   6.804   6.407   6.812  0.1941  0.1091 -0.9255
   57SAPC   O13 4165   6.919   6.410   6.908 -0.0060  0.5414 -0.3645
   57SAPC   O14 4166   6.791   6.275   6.744  0.2781  0.9960 -0.6014
   57SAPC   O12 4167   6.669   6.455   6.881 -0.1771  0.0695 -0.2508
   57SAPC   O11 4168   6.837   6.520   6.705  0.0835 -0.0317 -0.1126
   57SAPC    C1 4169   6.839   6.498   6.564 -0.1248  0.0138  0.3510
   57SAPC    HA 4170   6.892   6.580   6.510 -0.7962  0.2969  0.1106
   57SAPC    HB 4171   6.890   6.402   6.541 -1.3133 -0.0753 -2.1793
   57SAPC    C2 4172   6.693   6.492   6.500  0.3816 -0.3508 -0.3377
   57SAPC    HS 4173   6.648   6.400   6.543  0.1312 -0.4325 -0.7682
   57SAPC   O21 4174   6.703   6.479   6.356  0.3535 -0.5005  0.6658
   57SAPC   C21 4175   6.590   6.415   6.300  0.6726  0.2218 -0.4192
   57SAPC   O22 4176   6.500   6.368   6.363  0.4856 -0.1761  0.0542
   57SAPC   C22 4177   6.600   6.411   6.149  0.3336  0.5460 -0.1128
   57SAPC   H2R 4178   6.644   6.503   6.106  2.8208  0.1285  1.3769
   57SAPC   H2S 4179   6.676   6.331   6.135  0.5523  1.0060 -1.8435
   57SAPC    C3 4180   6.608   6.613   6.542  0.4780  0.1312  0.6707
   57SAPC    HX 4181   6.579   6.604   6.649  0.7991 -0.6235  0.7010
   57SAPC    HY 4182   6.508   6.602   6.496  0.7122 -1.6493  0.5001
   57SAPC   O31 4183   6.678   6.737   6.512 -0.2977 -0.3647 -0.0739
   57SAPC   C31 4184   6.664   6.790   6.391  0.1434 -0.3676 -0.4620
   57SAPC   O32 4185   6.601   6.739   6.300  0.3409 -0.0032 -0.0025
   57SAPC   C32 4186   6.737   6.920   6.387  0.0102 -0.5044 -0.6246
   57SAPC   H2X 4187   6.832   6.904   6.331 -0.1147 -0.6324 -0.7982
   57SAPC   H2Y 4188   6.770   6.959   6.486 -0.6334  0.8546 -0.9162
   57SAPC   C23 4189   6.474   6.357   6.070 -0.2062  0.2855  0.1932
   57SAPC   H3R 4190   6.406   6.444   6.057 -0.6022 -0.2154 -1.3407
   57SAPC   H3S 4191   6.428   6.281   6.137 -1.5299  0.9172  0.0355
   57SAPC   C24 4192   6.500   6.290   5.925 -0.3862 -0.0551  0.4543
   57SAPC   H4R 4193   6.569   6.203   5.927 -2.0195 -1.3907  0.9572
   57SAPC   H4S 4194   6.537   6.376   5.865 -0.8482 -0.7624 -0.8699
   57SAPC   C25 4195   6.362   6.244   5.873 -0.0406  0.5070  0.1661
   57SAPC   H5R 4196   6.308   6.182   5.946  0.5432 -0.1617  0.0412
   57SAPC   C26 4197   6.302   6.283   5.759 -0.4790  0.1594 -0.8473
   57SAPC   H6R 4198   6.208   6.229   5.741  0.0043 -0.5539 -1.2594
   57SAPC   C27 4199   6.334   6.379   5.645  0.2965  0.0957 -0.1185
   57SAPC   H7R 4200   6.397   6.463   5.679  0.4456  0.4590 -1.2594
   57SAPC   H7S 4201   6.238   6.421   5.608 -1.7502 -2.5462  1.7855
   57SAPC   C28 4202   6.413   6.308   5.540 -0.7906  0.6275 -0.1102
   57SAPC   H8R 4203   6.467   6.216   5.565  0.4489  1.1031 -0.9776
   57SAPC   C29 4204   6.414   6.349   5.413 -0.3948  0.2406  0.4943
   57SAPC   H9R 4205   6.469   6.287   5.340  1.3088  1.9889  0.1878
   57SAPC  C210 4206   6.338   6.465   5.357  0.2361  0.4366  0.0928
   57SAPC  H10R 4207   6.351   6.558   5.416  0.2669  2.0232 -2.2598
   57SAPC  H10S 4208   6.231   6.437   5.362  0.5975 -1.0793 -0.0967
   57SAPC  C211 4209   6.384   6.498   5.209 -1.1449  0.5835 -0.2431
   57SAPC  H11R 4210   6.442   6.591   5.206 -1.6943  1.1198  2.7911
   57SAPC  C212 4211   6.358   6.426   5.097 -0.2719  0.7253 -0.0267
   57SAPC  H12R 4212   6.385   6.476   5.003 -0.8634 -0.2767 -0.7609
   57SAPC  C213 4213   6.284   6.290   5.088  0.5514  0.0121  0.1183
   57SAPC  H13R 4214   6.196   6.297   5.021  1.2989  0.6284 -0.8255
   57SAPC  H13S 4215   6.236   6.268   5.186  0.7630 -0.4988  0.1095
   57SAPC  C214 4216   6.382   6.186   5.038  0.2382  0.0113  0.2873
   57SAPC  H14R 4217   6.448   6.138   5.112  1.6420  1.4091 -0.0002
   57SAPC  C215 4218   6.390   6.136   4.908 -0.3074  0.4005 -0.9262
   57SAPC  H15R 4219   6.460   6.053   4.894  2.1264  1.9131  1.2683
   57SAPC  C216 4220   6.312   6.189   4.787 -0.7141 -0.5059 -0.1831
   57SAPC  H16R 4221   6.376   6.167   4.699 -0.1731  0.6477 -0.1018
   57SAPC  H16S 4222   6.309   6.300   4.797  1.8737 -0.3073 -0.8575
   57SAPC  C217 4223   6.179   6.124   4.742  1.0554 -0.0379  0.1373
   57SAPC  H17R 4224   6.147   6.182   4.653  0.2095 -1.4637 -0.5358
   57SAPC  H17S 4225   6.104   6.131   4.824 -0.2785  0.9088 -1.1124
   57SAPC  C218 4226   6.199   5.978   4.700  0.0408 -0.5570 -1.0181
   57SAPC  H18R 4227   6.295   5.946   4.655  1.3005 -0.2916  1.3396
   57SAPC  H18S 4228   6.118   5.953   4.628 -0.5648 -0.1684 -0.4827
   57SAPC  C219 4229   6.176   5.890   4.818 -0.3381 -0.2803 -0.1985
   57SAPC  H19R 4230   6.077   5.914   4.863  0.6627  0.8817  1.5323
   57SAPC  H19S 4231   6.245   5.909   4.903 -1.1845  2.3908 -0.0154
   57SAPC  C220 4232   6.170   5.740   4.786 -0.3322 -0.6419  0.1057
   57SAPC  H20R 4233   6.081   5.714   4.723  0.6348 -2.1529 -0.7173
   57SAPC  H20S 4234   6.175   5.684   4.882  2.1099  0.9354  0.9898
   57SAPC  H20T 4235   6.257   5.716   4.721  0.9236  2.2744  0.5667
   57SAPC   C33 4236   6.660   7.036   6.319  0.1128  0.2518  0.0128
   57SAPC   H3X 4237   6.555   7.016   6.349  0.8686 -3.8997  0.5415
   57SAPC   H3Y 4238   6.651   7.026   6.209 -0.8251  1.8641 -0.0768
   57SAPC   C34 4239   6.711   7.180   6.346 -0.5655  0.3097  1.0939
   57SAPC   H4X 4240   6.818   7.191   6.318 -0.3161 -1.4123  1.2565
   57SAPC   H4Y 4241   6.720   7.201   6.455  0.6094 -1.2398  1.3183
   57SAPC   C35 4242   6.633   7.285   6.263  0.6251 -0.6632 -1.1765
   57SAPC   H5X 4243   6.654   7.383   6.311 -0.8388 -1.3645  1.0991
   57SAPC   H5Y 4244   6.523   7.271   6.274  0.6392 -0.0453  0.0004
   57SAPC   C36 4245   6.675   7.302   6.122 -0.0066 -0.0654  0.0067
   57SAPC   H6X 4246   6.667   7.205   6.070 -0.6340 -0.8679  1.5366
   57SAPC   H6Y 4247   6.783   7.326   6.124  0.1808 -0.5827 -1.9364
   57SAPC   C37 4248   6.589   7.400   6.041  0.3185 -0.4362  0.7329
   57SAPC   H7X 4249   6.602   7.506   6.069 -0.9442  0.3681 -1.5081
   57SAPC   H7Y 4250   6.481   7.384   6.058  0.2809 -1.1832 -0.1044
   57SAPC   C38 4251   6.633   7.389   5.888 -0.5370  0.1758 -0.4760
   57SAPC   H8X 4252   6.613   7.284   5.858 -0.0706 -0.0867  0.1097
   57SAPC   H8Y 4253   6.742   7.408   5.881 -0.5548  0.4366 -0.0513
   57SAPC   C39 4254   6.552   7.483   5.804 -0.0108 -0.3170 -0.4321
   57SAPC   H9X 4255   6.443   7.482   5.821  0.1605  1.1173  1.0570
   57SAPC   H9Y 4256   6.583   7.459   5.700  2.3586  0.2095  0.0805
   57SAPC  C310 4257   6.591   7.630   5.825  0.4882 -0.0543  0.4801
   57SAPC  H10X 4258   6.667   7.665   5.753 -0.8131  1.3672 -0.2639
   57SAPC  H10Y 4259   6.630   7.644   5.928 -0.7747  0.1788  0.9456
   57SAPC  C311 4260   6.477   7.733   5.801  0.5448 -0.2387 -0.8212
   57SAPC  H11X 4261   6.504   7.833   5.840 -0.4417  0.4689 -1.8741
   57SAPC  H11Y 4262   6.382   7.691   5.842  0.0841 -0.4657 -2.0836
   57SAPC  C312 4263   6.450   7.746   5.644  0.8016 -0.0374 -1.2321
   57SAPC  H12X 4264   6.427   7.649   5.595 -0.6002 -1.1569  1.4254
   57SAPC  H12Y 4265   6.546   7.778   5.597  2.2708 -1.2264  0.7666
   57SAPC  C313 4266   6.341   7.854   5.612 -0.3782  0.1134 -0.6200
   57SAPC  H13X 4267   6.379   7.954   5.640  0.9409 -0.2736 -0.9660
   57SAPC  H13Y 4268   6.250   7.840   5.675 -1.3412  0.9163 -1.7836
   57SAPC  C314 4269   6.289   7.859   5.470 -0.5065  0.7145  0.0284
   57SAPC  H14X 4270   6.364   7.910   5.405 -0.1339  0.9405  0.6195
   57SAPC  H14Y 4271   6.202   7.927   5.470 -1.5415 -0.5591  1.1822
   57SAPC  C315 4272   6.244   7.724   5.404  0.2612  1.0246 -0.6328
   57SAPC  H15X 4273   6.193   7.666   5.484  1.2833  2.6278  1.3047
   57SAPC  H15Y 4274   6.338   7.677   5.368  1.0051  1.2910  0.8600
   57SAPC  C316 4275   6.147   7.737   5.289  0.0826  0.4852  0.0641
   57SAPC  H16X 4276   6.186   7.798   5.204  1.8661 -0.4950  0.1393
   57SAPC  H16Y 4277   6.049   7.775   5.326 -1.5638 -2.6851 -0.6974
   57SAPC  C317 4278   6.123   7.598   5.223  0.2547  1.1836 -0.1148
   57SAPC  H17X 4279   6.223   7.557   5.200  1.0320  2.5150  0.7405
   57SAPC  H17Y 4280   6.072   7.623   5.127 -1.7108 -2.2516 -0.1091
   57SAPC  C318 4281   6.052   7.499   5.312  0.3622  0.0386  1.0947
   57SAPC  H18X 4282   6.048   7.400   5.261 -0.5354  0.8851 -0.5361
   57SAPC  H18Y 4283   5.948   7.535   5.330 -0.8281 -3.4442  2.0109
   57SAPC  H18Z 4284   6.106   7.481   5.408 -2.1839 -1.7339  2.3153
   58SAPC     N 4285   1.925   3.991   6.676 -0.3381  0.3673 -0.1502
   58SAPC   C12 4286   1.822   4.075   6.613  0.1327 -0.5212  0.3748
   58SAPC  H12A 4287   1.808   4.163   6.674 -1.3070 -0.3366 -0.1740
   58SAPC  H12B 4288   1.728   4.022   6.607  0.6499 -2.0690  3.8005
   58SAPC   C13 4289   1.946   3.868   6.597 -0.5542  0.0443  0.3958
   58SAPC  H13A 4290   1.856   3.810   6.588 -1.3971  1.5294 -1.5165
   58SAPC  H13B 4291   1.970   3.897   6.495  1.5337  1.1226  1.1324
   58SAPC  H13C 4292   2.028   3.808   6.633  0.1591  1.1142  0.6280
   58SAPC   C14 4293   2.050   4.064   6.707 -0.3660  0.1770 -0.5184
   58SAPC  H14A 4294   2.118   4.011   6.771  1.3537  3.6377  0.7828
   58SAPC  H14B 4295   2.103   4.103   6.621 -1.8747  1.0462 -1.0964
   58SAPC  H14C 4296   2.027   4.152   6.764  1.7489  0.4307  0.0035
   58SAPC   C15 4297   1.874   3.939   6.813  0.0201  0.2448  0.6353
   58SAPC  H15A 4298   1.770   3.912   6.821 -0.2240  0.5917 -1.0826
   58SAPC  H15B 4299   1.935   3.853   6.836  1.3800  1.5401  2.1686
   58SAPC  H15C 4300   1.888   4.020   6.883 -2.9987  0.9604  0.5395
   58SAPC   C11 4301   1.855   4.141   6.477  0.4426  0.4569 -0.6116
   58SAPC  H11A 4302   1.766   4.194   6.438  0.4734 -0.4500 -1.9550
   58SAPC  H11B 4303   1.862   4.060   6.402  1.0758  1.0026 -1.1508
   58SAPC     P 4304   1.941   4.371   6.548  0.0135 -0.4292 -0.1800
   58SAPC   O13 4305   1.830   4.448   6.489 -0.4290  0.3504 -0.1739
   58SAPC   O14 4306   1.941   4.351   6.697 -0.4558 -0.3337  0.2475
   58SAPC   O12 4307   1.965   4.237   6.471 -0.1457  0.6463 -0.1244
   58SAPC   O11 4308   2.074   4.441   6.505  0.1144  0.3519  0.2392
   58SAPC    C1 4309   2.074   4.550   6.413  0.1691 -0.2741  0.4691
   58SAPC    HA 4310   2.002   4.629   6.443 -0.1181  0.2499 -1.4531
   58SAPC    HB 4311   2.174   4.598   6.412  1.0912 -2.0557 -1.3794
   58SAPC    C2 4312   2.044   4.506   6.267 -0.5046 -0.4042 -0.2133
   58SAPC    HS 4313   1.936   4.484   6.256 -1.2393  2.4176  0.4951
   58SAPC   O21 4314   2.125   4.391   6.235  0.1349  0.2467  0.0120
   58SAPC   C21 4315   2.084   4.322   6.133  0.8154  0.3656 -0.0083
   58SAPC   O22 4316   1.989   4.349   6.058 -0.1679 -0.0170  0.5115
   58SAPC   C22 4317   2.182   4.204   6.113  0.1144 -0.1921 -0.2950
   58SAPC   H2R 4318   2.279   4.258   6.118  0.2784 -0.5937  1.3322
   58SAPC   H2S 4319   2.156   4.135   6.195 -1.4791 -0.6251 -1.1286
   58SAPC    C3 4320   2.068   4.626   6.169  0.0229 -0.0414 -0.0009
   58SAPC    HX 4321   2.012   4.711   6.214  3.1341  1.1457  2.0309
   58SAPC    HY 4322   2.016   4.601   6.074  0.0723 -0.1831  0.0088
   58SAPC   O31 4323   2.202   4.669   6.157  0.2500 -0.1947 -0.5732
   58SAPC   C31 4324   2.273   4.610   6.059  0.2263  0.2346 -0.3050
   58SAPC   O32 4325   2.227   4.536   5.975 -0.0451  0.5712  0.4614
   58SAPC   C32 4326   2.423   4.641   6.065 -0.4526  0.0903  0.6961
   58SAPC   H2X 4327   2.453   4.607   6.166 -1.2295 -0.0823  0.8731
   58SAPC   H2Y 4328   2.427   4.752   6.057 -2.2947  0.2342  1.4347
   58SAPC   C23 4329   2.160   4.133   5.967  0.2156  0.0118 -0.2990
   58SAPC   H3R 4330   2.133   4.210   5.891 -0.6691 -0.7087 -0.7238
   58SAPC   H3S 4331   2.076   4.065   5.990 -1.1822  1.0843 -1.9889
   58SAPC   C24 4332   2.280   4.050   5.921 -0.1089 -0.0630 -0.7034
   58SAPC   H4R 4333   2.369   4.113   5.904  1.8854 -1.9402  1.8521
   58SAPC   H4S 4334   2.254   4.019   5.818 -0.8109  2.3460 -1.3068
   58SAPC   C25 4335   2.329   3.931   6.011  0.4822  0.4904 -0.3640
   58SAPC   H5R 4336   2.390   3.959   6.098  1.7978 -2.5949 -0.1846
   58SAPC   C26 4337   2.298   3.800   5.993 -0.2882 -0.3969 -0.4492
   58SAPC   H6R 4338   2.325   3.729   6.072 -0.3842 -0.1885 -0.2268
   58SAPC   C27 4339   2.220   3.750   5.875 -1.0823  0.7803 -0.2122
   58SAPC   H7R 4340   2.256   3.646   5.857 -0.9595  0.5743  1.1338
   58SAPC   H7S 4341   2.253   3.806   5.785 -1.6413  2.4086  0.5593
   58SAPC   C28 4342   2.073   3.737   5.886  0.3077 -0.8865  0.0055
   58SAPC   H8R 4343   2.044   3.679   5.974 -0.1596 -1.8972 -0.8010
   58SAPC   C29 4344   1.984   3.777   5.791 -0.3662  0.2541  0.0961
   58SAPC   H9R 4345   1.878   3.773   5.818 -0.5123  0.6802 -0.3898
   58SAPC  C210 4346   1.999   3.843   5.660 -0.0326 -1.2327  0.1358
   58SAPC  H10R 4347   2.086   3.794   5.611 -1.0938 -0.2826 -2.9401
   58SAPC  H10S 4348   2.020   3.948   5.688 -2.6447 -0.4937 -0.4024
   58SAPC  C211 4349   1.881   3.847   5.567  0.0496 -0.5224  0.4973
   58SAPC  H11R 4350   1.784   3.862   5.617 -0.3131 -0.4088 -0.2285
   58SAPC  C212 4351   1.873   3.841   5.431  0.1844  0.7766 -0.1622
   58SAPC  H12R 4352   1.772   3.847   5.388  0.9830 -2.6575 -3.0841
   58SAPC  C213 4353   1.988   3.819   5.335  0.2025  0.7496  0.8008
   58SAPC  H13R 4354   2.082   3.852   5.384  0.1035  3.4977 -0.6133
   58SAPC  H13S 4355   1.978   3.871   5.237 -0.2806 -1.0105 -0.1193
   58SAPC  C214 4356   2.008   3.674   5.305 -0.2017  0.0627 -0.6501
   58SAPC  H14R 4357   1.973   3.604   5.383  1.6809 -0.0616  0.1248
   58SAPC  C215 4358   2.058   3.621   5.194  0.3210  0.9595  0.3003
   58SAPC  H15R 4359   2.058   3.511   5.190  0.6053  0.9274  1.0542
   58SAPC  C216 4360   2.119   3.694   5.077  0.0334 -0.8394  0.0249
   58SAPC  H16R 4361   2.131   3.800   5.104  0.5130  0.2064 -3.7399
   58SAPC  H16S 4362   2.040   3.696   4.998 -0.0238  0.7778  0.0903
   58SAPC  C217 4363   2.249   3.627   5.031  0.0341  0.1807  0.3812
   58SAPC  H17R 4364   2.243   3.517   5.018  1.8998 -0.0199  0.8552
   58SAPC  H17S 4365   2.325   3.646   5.110  0.4987  1.9595 -0.4261
   58SAPC  C218 4366   2.312   3.689   4.903  0.5960  0.1607  0.5534
   58SAPC  H18R 4367   2.233   3.705   4.827  0.4801  0.2522  0.6933
   58SAPC  H18S 4368   2.389   3.621   4.859  0.7547  1.2723 -0.9809
   58SAPC  C219 4369   2.394   3.814   4.939 -0.0812 -0.1220 -0.3566
   58SAPC  H19R 4370   2.473   3.798   5.016 -2.5915  0.1099  2.4265
   58SAPC  H19S 4371   2.326   3.888   4.985 -3.5674 -3.5453  0.5854
   58SAPC  C220 4372   2.460   3.876   4.809  0.2457  0.2269  0.0735
   58SAPC  H20R 4373   2.520   3.966   4.836  0.8656  0.1546 -1.0148
   58SAPC  H20S 4374   2.391   3.894   4.724 -0.4121 -0.5475  0.4266
   58SAPC  H20T 4375   2.535   3.800   4.780  0.8124  0.6664  0.3738
   58SAPC   C33 4376   2.497   4.562   5.955 -0.3794  1.1396 -0.3290
   58SAPC   H3X 4377   2.480   4.452   5.960  2.5970  0.6441  1.1781
   58SAPC   H3Y 4378   2.608   4.567   5.969  0.2048 -4.3128 -0.7985
   58SAPC   C34 4379   2.483   4.615   5.806 -0.4389 -0.0226 -0.6973
   58SAPC   H4X 4380   2.491   4.726   5.809 -1.3014  0.0330  0.1222
   58SAPC   H4Y 4381   2.376   4.604   5.777 -0.4886  0.9260 -0.9067
   58SAPC   C35 4382   2.578   4.543   5.714  0.2398  0.2252 -0.3737
   58SAPC   H5X 4383   2.562   4.433   5.710 -0.2694  0.3045 -0.6148
   58SAPC   H5Y 4384   2.680   4.550   5.756 -0.0141 -2.3710  0.8840
   58SAPC   C36 4385   2.574   4.593   5.569  0.2184 -0.2807 -0.2070
   58SAPC   H6X 4386   2.567   4.704   5.568 -1.9475 -0.3266  1.8167
   58SAPC   H6Y 4387   2.475   4.562   5.528  1.1512 -4.2126  0.1052
   58SAPC   C37 4388   2.680   4.532   5.497 -0.2236  0.5919  0.7458
   58SAPC   H7X 4389   2.657   4.424   5.482  1.0834  0.5336 -1.3652
   58SAPC   H7Y 4390   2.776   4.541   5.551 -0.0428 -1.6406  0.9010
   58SAPC   C38 4391   2.698   4.588   5.349  0.6335  0.7921 -0.0237
   58SAPC   H8X 4392   2.755   4.683   5.351  0.8283  0.6680  0.9744
   58SAPC   H8Y 4393   2.600   4.602   5.299  2.3004  1.4527 -3.3979
   58SAPC   C39 4394   2.776   4.484   5.274 -0.3012  0.0950  0.4702
   58SAPC   H9X 4395   2.706   4.410   5.230 -0.7638 -0.7178  2.4974
   58SAPC   H9Y 4396   2.840   4.417   5.334 -1.0324 -2.0815 -1.0488
   58SAPC  C310 4397   2.867   4.552   5.161 -0.1836  0.4514 -0.6056
   58SAPC  H10X 4398   2.917   4.467   5.110  0.1259  0.0612  0.3359
   58SAPC  H10Y 4399   2.946   4.607   5.215 -0.3602 -0.6170  0.7952
   58SAPC  C311 4400   2.789   4.636   5.055  0.0408  0.4239  0.1336
   58SAPC  H11X 4401   2.874   4.695   5.014 -0.9896  1.3532 -0.7293
   58SAPC  H11Y 4402   2.716   4.708   5.099  0.2868  0.9014 -0.2274
   58SAPC  C312 4403   2.737   4.539   4.949  0.1467 -0.3895  0.8514
   58SAPC  H12X 4404   2.658   4.472   4.989 -0.2292 -1.5616 -1.6817
   58SAPC  H12Y 4405   2.822   4.472   4.924 -0.1515 -0.1451 -0.9108
   58SAPC  C313 4406   2.679   4.611   4.828 -0.8554 -0.0778 -0.2680
   58SAPC  H13X 4407   2.602   4.685   4.862  0.1020  1.0706 -0.5181
   58SAPC  H13Y 4408   2.631   4.541   4.757 -0.2948  0.7082 -1.4532
   58SAPC  C314 4409   2.783   4.696   4.751  0.0468 -0.1661 -0.0535
   58SAPC  H14X 4410   2.861   4.628   4.710  1.2498 -0.5192  2.5696
   58SAPC  H14Y 4411   2.822   4.773   4.821 -0.2810 -0.4396  0.4427
   58SAPC  C315 4412   2.729   4.779   4.630  0.5449 -0.2433  0.7600
   58SAPC  H15X 4413   2.808   4.845   4.587  1.2826 -0.4765  1.7345
   58SAPC  H15Y 4414   2.656   4.848   4.679 -0.3367 -0.3253 -0.3916
   58SAPC  C316 4415   2.652   4.687   4.535 -0.5995  0.3004  0.0540
   58SAPC  H16X 4416   2.574   4.634   4.593 -0.1567  2.1959  2.5692
   58SAPC  H16Y 4417   2.727   4.614   4.499  0.2009  0.8286  0.6142
   58SAPC  C317 4418   2.586   4.768   4.423  0.1838  0.5935 -0.5012
   58SAPC  H17X 4419   2.670   4.824   4.379  2.5984 -2.7352 -0.5124
   58SAPC  H17Y 4420   2.508   4.837   4.463  0.2565  2.0780 -2.7666
   58SAPC  C318 4421   2.525   4.672   4.315 -0.0314 -0.6704 -0.5543
   58SAPC  H18X 4422   2.441   4.614   4.360 -0.0550 -0.3102 -0.1279
   58SAPC  H18Y 4423   2.608   4.611   4.274 -0.6573 -1.2048 -1.0548
   58SAPC  H18Z 4424   2.480   4.725   4.229  0.0477 -1.2280 -0.9464
   59SAPC     N 4425   2.436   0.645   6.087  0.3312 -0.6294 -0.4175
   59SAPC   C12 4426   2.375   0.675   5.948  0.4369  1.1497 -0.4715
   59SAPC  H12A 4427   2.369   0.782   5.938 -0.2681  1.1893  0.2662
   59SAPC  H12B 4428   2.272   0.644   5.946  0.3428  1.3799  0.4204
   59SAPC   C13 4429   2.579   0.651   6.094 -0.4695 -0.1973  0.2735
   59SAPC  H13A 4430   2.624   0.587   6.020 -1.9946 -0.3296 -0.5711
   59SAPC  H13B 4431   2.613   0.751   6.072  0.2503 -0.6927 -0.9821
   59SAPC  H13C 4432   2.625   0.614   6.185  2.7968 -0.3287 -1.2668
   59SAPC   C14 4433   2.375   0.735   6.190 -1.2373 -0.2627 -0.5241
   59SAPC  H14A 4434   2.371   0.834   6.146 -1.2664 -0.4166 -0.8740
   59SAPC  H14B 4435   2.277   0.702   6.219 -1.2178  1.2787  1.5045
   59SAPC  H14C 4436   2.437   0.738   6.279 -0.9772  2.1116 -0.6979
   59SAPC   C15 4437   2.405   0.501   6.123  0.7698 -0.4769  0.2941
   59SAPC  H15A 4438   2.433   0.435   6.042 -2.2504 -2.3196  0.5991
   59SAPC  H15B 4439   2.433   0.467   6.222  0.7633 -0.7008  0.2194
   59SAPC  H15C 4440   2.297   0.494   6.115  0.8377  0.1274 -1.9401
   59SAPC   C11 4441   2.438   0.616   5.826  0.4630  0.2421 -0.1073
   59SAPC  H11A 4442   2.545   0.649   5.824  0.0625  1.5981 -0.4947
   59SAPC  H11B 4443   2.400   0.669   5.736 -0.3779  0.9153  0.6219
   59SAPC     P 4444   2.296   0.405   5.769  0.2476  0.2257 -0.0276
   59SAPC   O13 4445   2.295   0.262   5.807  0.7221  0.4178 -0.2597
   59SAPC   O14 4446   2.182   0.488   5.813  0.7465  0.3192 -0.4569
   59SAPC   O12 4447   2.432   0.474   5.821 -0.0559  0.3224 -0.0284
   59SAPC   O11 4448   2.305   0.430   5.614 -0.0195 -0.1988 -0.1207
   59SAPC    C1 4449   2.414   0.379   5.535  0.3915  0.2732  0.1273
   59SAPC    HA 4450   2.449   0.467   5.477  0.0527  0.9849  0.9868
   59SAPC    HB 4451   2.500   0.349   5.599  0.4414 -0.3451 -0.2138
   59SAPC    C2 4452   2.374   0.268   5.430 -0.2367 -0.1168  0.2495
   59SAPC    HS 4453   2.456   0.241   5.360  0.8544 -0.6143  1.6741
   59SAPC   O21 4454   2.260   0.318   5.356  0.3199 -0.6994  0.5343
   59SAPC   C21 4455   2.287   0.410   5.254 -0.2490 -0.0193  0.7040
   59SAPC   O22 4456   2.401   0.442   5.229  0.1675 -0.4419 -0.0332
   59SAPC   C22 4457   2.167   0.459   5.183  0.2008 -0.0673  0.3742
   59SAPC   H2R 4458   2.080   0.432   5.247 -0.0893  1.6320  0.7369
   59SAPC   H2S 4459   2.170   0.569   5.172 -0.7148  0.0385  1.0302
   59SAPC    C3 4460   2.323   0.131   5.499  0.6468  0.3682  0.2715
   59SAPC    HX 4461   2.230   0.141   5.560  0.9695 -2.3548  1.3817
   59SAPC    HY 4462   2.405   0.081   5.555 -0.6628 -1.6944  0.4796
   59SAPC   O31 4463   2.284   0.051   5.391  0.0056 -0.3434  0.4605
   59SAPC   C31 4464   2.164   0.010   5.367  0.0847 -0.7457  0.5041
   59SAPC   O32 4465   2.060   0.034   5.424 -0.2255 -0.0082 -0.9086
   59SAPC   C32 4466   2.179  -0.091   5.256 -0.2031  0.0487  0.3693
   59SAPC   H2X 4467   2.240  -0.174   5.298  1.9585  0.8224 -1.0996
   59SAPC   H2Y 4468   2.238  -0.063   5.166  1.7155 -2.0697  0.8506
   59SAPC   C23 4469   2.156   0.397   5.045 -1.0399 -0.3644  0.2667
   59SAPC   H3R 4470   2.255   0.414   4.999 -0.9327 -0.4538  0.4652
   59SAPC   H3S 4471   2.078   0.449   4.986 -0.9626 -1.8954 -1.2902
   59SAPC   C24 4472   2.124   0.239   5.048  1.0295 -0.0818  0.2122
   59SAPC   H4R 4473   2.030   0.226   5.105  0.8155  0.9958  0.1171
   59SAPC   H4S 4474   2.205   0.189   5.106  0.2607  2.6934  4.1317
   59SAPC   C25 4475   2.098   0.182   4.916  0.2615 -0.2982 -0.4231
   59SAPC   H5R 4476   1.993   0.173   4.887  0.2428 -2.3581  0.1316
   59SAPC   C26 4477   2.189   0.116   4.845 -0.0259 -0.2883 -0.2554
   59SAPC   H6R 4478   2.158   0.075   4.748  2.0251 -3.9022  0.4249
   59SAPC   C27 4479   2.341   0.112   4.868  0.1368 -0.2982  0.2959
   59SAPC   H7R 4480   2.368   0.010   4.904 -2.6981 -1.3534 -0.3093
   59SAPC   H7S 4481   2.374   0.172   4.956  2.0833  0.2375 -0.7455
   59SAPC   C28 4482   2.411   0.151   4.740  0.1609 -0.1772  0.8874
   59SAPC   H8R 4483   2.373   0.238   4.684  1.8914 -0.6208 -1.0873
   59SAPC   C29 4484   2.526   0.099   4.689  0.5977 -0.5584 -0.3993
   59SAPC   H9R 4485   2.565   0.139   4.595  0.9514 -1.6586 -0.7442
   59SAPC  C210 4486   2.600  -0.018   4.748 -0.2158  0.8762 -0.3092
   59SAPC  H10R 4487   2.577  -0.118   4.704  0.9607  0.0222  0.9386
   59SAPC  H10S 4488   2.559  -0.035   4.851 -0.4244 -0.3288 -0.5698
   59SAPC  C211 4489   2.748  -0.005   4.756 -0.0571  0.1504  0.1133
   59SAPC  H11R 4490   2.805  -0.016   4.662 -0.8676 -0.5481 -0.3088
   59SAPC  C212 4491   2.817   0.022   4.869 -0.9077 -0.2432 -0.5787
   59SAPC  H12R 4492   2.920   0.056   4.849 -0.6307 -0.8763 -0.2697
   59SAPC  C213 4493   2.762   0.035   5.009  0.3351 -0.0517  0.4704
   59SAPC  H13R 4494   2.835   0.005   5.087  2.0008  0.5428 -0.8069
   59SAPC  H13S 4495   2.680  -0.040   5.013  1.5408 -1.4259  0.0206
   59SAPC  C214 4496   2.707   0.170   5.050  0.4596  0.3242 -0.4352
   59SAPC  H14R 4497   2.648   0.230   4.978 -0.4507  1.3654  1.1078
   59SAPC  C215 4498   2.729   0.235   5.170 -0.2264  0.3165  0.4412
   59SAPC  H15R 4499   2.698   0.338   5.192  0.7654  0.9256 -0.8789
   59SAPC  C216 4500   2.817   0.176   5.283  0.5859 -0.2652  0.3260
   59SAPC  H16R 4501   2.899   0.122   5.231 -0.4949 -2.5772  0.9037
   59SAPC  H16S 4502   2.757   0.107   5.346  0.6946  0.9416  1.8201
   59SAPC  C217 4503   2.874   0.288   5.370  1.1408  0.1472 -0.1422
   59SAPC  H17R 4504   2.785   0.352   5.385  1.2471  1.0545 -2.8743
   59SAPC  H17S 4505   2.945   0.354   5.316  1.6832  1.5523  2.1319
   59SAPC  C218 4506   2.941   0.226   5.495 -0.4604 -0.6069  0.3116
   59SAPC  H18R 4507   3.031   0.166   5.473  0.1800  0.6011 -0.4785
   59SAPC  H18S 4508   2.867   0.157   5.541 -1.0266  0.6532  1.3855
   59SAPC  C219 4509   2.989   0.338   5.588  0.0921  0.3104  0.2969
   59SAPC  H19R 4510   2.919   0.424   5.597 -0.9979 -0.6704  1.5225
   59SAPC  H19S 4511   3.088   0.368   5.546 -1.1435  2.0474 -1.5053
   59SAPC  C220 4512   3.030   0.285   5.731  0.8907  0.3413 -0.5586
   59SAPC  H20R 4513   3.110   0.353   5.767  0.3235  1.5987 -1.5794
   59SAPC  H20S 4514   3.074   0.183   5.725  0.3878  0.0587  0.3787
   59SAPC  H20T 4515   2.939   0.276   5.794  2.2995 -1.8764  1.3173
   59SAPC   C33 4516   2.046  -0.148   5.207  0.1355  0.6094  0.1166
   59SAPC   H3X 4517   1.986  -0.060   5.174  0.2004 -0.2607 -2.6168
   59SAPC   H3Y 4518   1.998  -0.199   5.293  0.4691 -2.8367 -1.5710
   59SAPC   C34 4519   2.057  -0.256   5.106 -0.2312  0.3773  0.3281
   59SAPC   H4X 4520   1.964  -0.318   5.113  0.5448 -1.1282 -1.5670
   59SAPC   H4Y 4521   2.134  -0.330   5.136 -1.0637 -0.6632 -0.0003
   59SAPC   C35 4522   2.089  -0.213   4.956 -0.5145  0.3944  0.6319
   59SAPC   H5X 4523   2.188  -0.163   4.956 -0.8216  1.0220 -0.0167
   59SAPC   H5Y 4524   2.016  -0.134   4.929  0.1531  1.2948  1.4107
   59SAPC   C36 4525   2.091  -0.329   4.856  0.0064 -0.9387  0.0496
   59SAPC   H6X 4526   1.988  -0.372   4.851 -0.2732 -0.4063  0.9786
   59SAPC   H6Y 4527   2.161  -0.410   4.888 -0.2313 -1.3080 -0.3511
   59SAPC   C37 4528   2.138  -0.287   4.722  0.1714  0.2130 -0.4012
   59SAPC   H7X 4529   2.086  -0.197   4.683  1.5260  0.6008 -1.4296
   59SAPC   H7Y 4530   2.109  -0.376   4.662  0.0692 -1.4907  2.0150
   59SAPC   C38 4531   2.290  -0.264   4.693  0.1215 -0.0088  0.3878
   59SAPC   H8X 4532   2.339  -0.362   4.710  0.5144  0.2176  0.5628
   59SAPC   H8Y 4533   2.335  -0.184   4.755  1.2252 -1.0733  1.0100
   59SAPC   C39 4534   2.295  -0.230   4.543 -0.0616  0.2695 -0.2613
   59SAPC   H9X 4535   2.270  -0.122   4.545  2.7291  1.0078  1.6457
   59SAPC   H9Y 4536   2.227  -0.295   4.484 -0.6017 -0.3257  0.9886
   59SAPC  C310 4537   2.435  -0.241   4.476 -0.0560 -0.1805  0.4426
   59SAPC  H10X 4538   2.456  -0.350   4.470 -0.7694 -0.2883 -0.1553
   59SAPC  H10Y 4539   2.513  -0.197   4.542  0.2087 -0.4610  0.3191
   59SAPC  C311 4540   2.442  -0.176   4.333  0.0835 -0.2864 -0.5173
   59SAPC  H11X 4541   2.413  -0.069   4.342  1.9038  0.0678  2.2128
   59SAPC  H11Y 4542   2.359  -0.228   4.281 -3.1271  1.1806  2.7114
   59SAPC  C312 4543   2.571  -0.197   4.262  0.0909 -0.4909 -0.0822
   59SAPC  H12X 4544   2.594  -0.306   4.271 -0.1623 -0.3965  2.3800
   59SAPC  H12Y 4545   2.655  -0.150   4.317 -0.8342 -1.7306  2.5918
   59SAPC  C313 4546   2.565  -0.138   4.121 -0.6830 -0.2125  0.7338
   59SAPC  H13X 4547   2.665  -0.149   4.073 -0.1018  1.4524  1.4846
   59SAPC  H13Y 4548   2.572  -0.030   4.143  0.4586 -0.4379  1.5827
   59SAPC  C314 4549   2.445  -0.184   4.034  0.2414 -0.1573 -0.1983
   59SAPC  H14X 4550   2.438  -0.120   3.943 -1.8009 -0.2286 -0.1477
   59SAPC  H14Y 4551   2.351  -0.174   4.092 -0.1504 -0.7545 -0.7150
   59SAPC  C315 4552   2.446  -0.336   3.999 -0.6366 -0.2457  0.4835
   59SAPC  H15X 4553   2.346  -0.359   3.958 -0.9781  0.6675  0.7879
   59SAPC  H15Y 4554   2.454  -0.394   4.094  0.6209  0.4407  0.8219
   59SAPC  C316 4555   2.565  -0.377   3.908  0.0629 -0.5161 -0.3668
   59SAPC  H16X 4556   2.651  -0.322   3.953  0.4745 -0.4917 -1.1787
   59SAPC  H16Y 4557   2.543  -0.341   3.805  0.4708  2.5209  0.4925
   59SAPC  C317 4558   2.600  -0.527   3.910  0.1751  0.0272 -0.5628
   59SAPC  H17X 4559   2.599  -0.573   4.011 -1.0121 -0.8903 -0.9681
   59SAPC  H17Y 4560   2.701  -0.546   3.869  0.4194 -0.0190  0.0474
   59SAPC  C318 4561   2.506  -0.597   3.816 -0.6657 -0.1772  0.0098
   59SAPC  H18X 4562   2.513  -0.574   3.707  0.7142 -1.3392 -0.1728
   59SAPC  H18Y 4563   2.402  -0.584   3.853 -0.6903 -3.0438  1.2368
   59SAPC  H18Z 4564   2.518  -0.707   3.823 -1.8955 -0.2708  1.0544
   60SAPC     N 4565   1.106   2.014   6.751  0.4251  0.1945 -0.3497
   60SAPC   C12 4566   1.124   1.882   6.675 -0.3477 -0.2087 -0.0687
   60SAPC  H12A 4567   1.180   1.888   6.583  1.4452  1.7796  1.0728
   60SAPC  H12B 4568   1.026   1.839   6.657 -0.3050 -2.7870  4.4302
   60SAPC   C13 4569   1.247   2.060   6.769 -0.3701  0.6736 -0.5341
   60SAPC  H13A 4570   1.302   1.988   6.828 -0.5301  0.1095 -1.0549
   60SAPC  H13B 4571   1.305   2.086   6.682  2.2068  2.6750  1.6284
   60SAPC  H13C 4572   1.247   2.153   6.823 -1.3375 -0.2479  1.1352
   60SAPC   C14 4573   1.033   2.115   6.670  0.3171 -0.0879 -0.0461
   60SAPC  H14A 4574   1.070   2.129   6.570  0.9413 -0.1791  0.1673
   60SAPC  H14B 4575   0.929   2.089   6.657  0.3151  0.7859 -2.1405
   60SAPC  H14C 4576   1.033   2.212   6.719 -0.5228 -1.7786  3.6473
   60SAPC   C15 4577   1.038   2.007   6.888 -0.0052 -0.0346 -0.2185
   60SAPC  H15A 4578   1.083   1.933   6.952 -1.9153 -0.3546  0.8418
   60SAPC  H15B 4579   1.038   2.104   6.935 -2.0404 -0.6019  1.0694
   60SAPC  H15C 4580   0.931   1.992   6.885 -0.6150  2.5365  2.8982
   60SAPC   C11 4581   1.195   1.768   6.749  0.4097  0.4853 -0.2620
   60SAPC  H11A 4582   1.157   1.675   6.701 -0.5690  0.7255  0.0130
   60SAPC  H11B 4583   1.151   1.766   6.851 -1.7207 -0.2712 -1.1273
   60SAPC     P 4584   1.407   1.726   6.610  0.3342  0.4544 -0.5838
   60SAPC   O13 4585   1.535   1.674   6.668  0.1774 -0.1727 -0.5351
   60SAPC   O14 4586   1.315   1.642   6.531 -0.1512  0.0641  0.0337
   60SAPC   O12 4587   1.332   1.772   6.741  0.8332  0.0464  0.1583
   60SAPC   O11 4588   1.433   1.847   6.512 -0.1690  0.1182  0.3143
   60SAPC    C1 4589   1.553   1.928   6.530 -0.6357 -0.0249 -0.7415
   60SAPC    HA 4590   1.536   2.038   6.526  1.9072  0.5608  1.7104
   60SAPC    HB 4591   1.605   1.908   6.626 -3.4718  0.0593  0.9426
   60SAPC    C2 4592   1.656   1.917   6.418  0.7295 -0.0506  0.8911
   60SAPC    HS 4593   1.714   2.010   6.432  1.8304 -0.2582 -1.7407
   60SAPC   O21 4594   1.587   1.905   6.293  0.1013 -0.4863  0.5513
   60SAPC   C21 4595   1.544   2.025   6.250 -0.5218  0.7246  0.1277
   60SAPC   O22 4596   1.578   2.135   6.299  0.8300  0.1683  0.0896
   60SAPC   C22 4597   1.460   1.998   6.129 -0.0115  0.5524  0.2899
   60SAPC   H2R 4598   1.396   1.913   6.160  1.9310  0.0767  3.4459
   60SAPC   H2S 4599   1.401   2.090   6.112 -0.0275  0.4796 -0.0540
   60SAPC    C3 4600   1.757   1.800   6.432  0.2423  0.0594  0.6170
   60SAPC    HX 4601   1.684   1.717   6.440 -0.5145  0.7701  1.3271
   60SAPC    HY 4602   1.813   1.803   6.528 -1.3137  1.2496  1.5450
   60SAPC   O31 4603   1.846   1.788   6.323 -0.3213  0.5836  0.2454
   60SAPC   C31 4604   1.846   1.669   6.265 -0.3759  0.3053  0.2613
   60SAPC   O32 4605   1.768   1.580   6.293 -0.0460 -0.2413  0.3661
   60SAPC   C32 4606   1.945   1.660   6.157 -0.3954 -0.4961 -0.0886
   60SAPC   H2X 4607   2.015   1.579   6.188  1.1585  1.0141  0.4736
   60SAPC   H2Y 4608   2.008   1.751   6.156  0.2667 -0.9037 -2.3639
   60SAPC   C23 4609   1.535   1.962   6.001  0.1573 -0.2353 -0.1656
   60SAPC   H3R 4610   1.608   1.882   6.024 -0.2618 -0.5910 -0.0640
   60SAPC   H3S 4611   1.594   2.049   5.965 -0.8116  1.8958  2.9483
   60SAPC   C24 4612   1.427   1.924   5.890  0.2537  0.4666  0.1291
   60SAPC   H4R 4613   1.399   2.020   5.841 -0.0927  0.3806  0.1498
   60SAPC   H4S 4614   1.338   1.886   5.945  1.2886 -0.5800  1.1354
   60SAPC   C25 4615   1.480   1.818   5.799  0.1559 -0.1706 -0.4769
   60SAPC   H5R 4616   1.481   1.723   5.855  1.4749  0.6299  0.9072
   60SAPC   C26 4617   1.510   1.828   5.670 -0.0555  0.1080 -0.0700
   60SAPC   H6R 4618   1.561   1.740   5.628 -2.8095 -0.4994 -2.4157
   60SAPC   C27 4619   1.510   1.956   5.588  0.2911  0.6422 -0.2544
   60SAPC   H7R 4620   1.601   1.965   5.523  0.9872 -0.0763  0.5964
   60SAPC   H7S 4621   1.526   2.037   5.662 -1.5129  0.3089  0.5435
   60SAPC   C28 4622   1.380   1.964   5.508  0.4969 -1.0141 -0.6041
   60SAPC   H8R 4623   1.303   2.038   5.535 -0.1649 -1.6229 -0.7966
   60SAPC   C29 4624   1.355   1.899   5.392  0.2442  0.2143 -0.0774
   60SAPC   H9R 4625   1.263   1.908   5.333 -0.7384 -2.3667  0.9568
   60SAPC  C210 4626   1.440   1.793   5.327 -0.4651 -0.1570  0.0737
   60SAPC  H10R 4627   1.547   1.808   5.352 -0.3246 -0.1189 -0.5369
   60SAPC  H10S 4628   1.431   1.807   5.217 -1.3668 -1.4883 -0.0482
   60SAPC  C211 4629   1.410   1.654   5.374  0.1969 -0.6171 -0.7957
   60SAPC  H11R 4630   1.388   1.648   5.482  1.6326  1.0624 -0.3640
   60SAPC  C212 4631   1.400   1.540   5.306  0.1504 -0.5454  0.6389
   60SAPC  H12R 4632   1.383   1.443   5.356 -1.4760 -1.2984 -1.2218
   60SAPC  C213 4633   1.390   1.535   5.156  0.2114  0.4631 -0.4406
   60SAPC  H13R 4634   1.380   1.637   5.113 -0.5187  0.4994 -0.2019
   60SAPC  H13S 4635   1.299   1.475   5.137 -1.1518  1.4239  2.4059
   60SAPC  C214 4636   1.519   1.481   5.107  0.3135 -0.6822  0.0978
   60SAPC  H14R 4637   1.597   1.457   5.180 -0.7222 -2.5099  0.6715
   60SAPC  C215 4638   1.529   1.434   4.981 -0.4954  0.2277 -0.2103
   60SAPC  H15R 4639   1.629   1.405   4.946  0.0618  0.4483  1.1388
   60SAPC  C216 4640   1.427   1.454   4.869 -0.9268  0.8791  0.2948
   60SAPC  H16R 4641   1.321   1.462   4.902 -1.2429  0.6440 -0.6247
   60SAPC  H16S 4642   1.425   1.361   4.809 -0.3938  1.2464 -0.3042
   60SAPC  C217 4643   1.456   1.580   4.786  0.0319  0.0216  0.1404
   60SAPC  H17R 4644   1.548   1.558   4.728  0.6665  2.6869  0.0010
   60SAPC  H17S 4645   1.483   1.670   4.847 -1.4956  0.9763 -0.5537
   60SAPC  C218 4646   1.347   1.616   4.690  0.0292 -0.2682  0.5935
   60SAPC  H18R 4647   1.290   1.532   4.645  0.8028 -0.9466  0.8528
   60SAPC  H18S 4648   1.406   1.665   4.609 -0.7108 -0.5108 -0.1029
   60SAPC  C219 4649   1.246   1.714   4.746 -0.0157  0.7209  0.1738
   60SAPC  H19R 4650   1.297   1.773   4.825 -1.9149  2.0337  0.4982
   60SAPC  H19S 4651   1.154   1.666   4.788 -0.2156  0.0452 -0.9857
   60SAPC  C220 4652   1.215   1.823   4.639  0.8453  0.6148  0.5356
   60SAPC  H20R 4653   1.152   1.781   4.557  0.8619  0.0506  0.8091
   60SAPC  H20S 4654   1.307   1.857   4.587  0.1978  0.6031 -0.6612
   60SAPC  H20T 4655   1.152   1.904   4.683  1.8980  1.1391  1.0925
   60SAPC   C33 4656   1.895   1.652   6.014 -0.1897  0.6448  0.0267
   60SAPC   H3X 4657   1.816   1.729   6.000 -1.3881 -0.2862  1.3777
   60SAPC   H3Y 4658   1.847   1.552   6.003  0.8791 -0.0220  1.1090
   60SAPC   C34 4659   2.003   1.668   5.906 -0.2553 -0.1336 -0.2243
   60SAPC   H4X 4660   2.074   1.752   5.922 -1.2519  1.4885 -3.5866
   60SAPC   H4Y 4661   1.963   1.696   5.807  1.9806 -0.0245 -1.1636
   60SAPC   C35 4662   2.090   1.544   5.880 -0.8756  0.2687  0.2047
   60SAPC   H5X 4663   2.030   1.475   5.818 -0.5997  0.6936 -0.5450
   60SAPC   H5Y 4664   2.136   1.491   5.967  0.7154 -0.5242 -1.0685
   60SAPC   C36 4665   2.221   1.586   5.801  0.1753  0.2849 -0.4734
   60SAPC   H6X 4666   2.311   1.553   5.857 -1.2057 -1.1020  1.0401
   60SAPC   H6Y 4667   2.215   1.696   5.799 -0.2890  0.3246  1.4179
   60SAPC   C37 4668   2.226   1.519   5.669  0.4660 -0.4198  0.6555
   60SAPC   H7X 4669   2.205   1.410   5.670 -0.3971 -0.2642  1.8733
   60SAPC   H7Y 4670   2.335   1.515   5.648  0.8867 -0.8617  2.7047
   60SAPC   C38 4671   2.163   1.592   5.553 -0.3375 -0.5624  0.7204
   60SAPC   H8X 4672   2.060   1.630   5.570 -0.6497 -0.9049 -0.3419
   60SAPC   H8Y 4673   2.154   1.520   5.469 -2.2992  0.6178 -0.1610
   60SAPC   C39 4674   2.249   1.721   5.511 -0.2345 -0.1411  0.0975
   60SAPC   H9X 4675   2.357   1.698   5.524  0.0177  0.9075 -0.0550
   60SAPC   H9Y 4676   2.216   1.808   5.571 -0.9409  0.6309 -1.3670
   60SAPC  C310 4677   2.227   1.761   5.364 -0.3107  0.6218 -0.4913
   60SAPC  H10X 4678   2.120   1.787   5.355 -0.6071  0.0881  1.2208
   60SAPC  H10Y 4679   2.251   1.687   5.284  1.3264 -0.1118  0.6192
   60SAPC  C311 4680   2.319   1.878   5.314 -0.0930  0.9856 -0.4478
   60SAPC  H11X 4681   2.428   1.856   5.321  0.1826  2.4936  0.5246
   60SAPC  H11Y 4682   2.287   1.954   5.389  2.5863  1.5218  0.2748
   60SAPC  C312 4683   2.278   1.932   5.173  0.2052 -0.6464  0.6353
   60SAPC  H12X 4684   2.174   1.970   5.172 -0.2057 -1.6713 -1.1686
   60SAPC  H12Y 4685   2.266   1.845   5.105 -3.8148  0.3522 -0.1980
   60SAPC  C313 4686   2.368   2.042   5.117 -0.0436 -0.0665 -0.8662
   60SAPC  H13X 4687   2.473   2.004   5.122 -0.4039 -1.0093  3.3293
   60SAPC  H13Y 4688   2.366   2.127   5.189 -1.9851 -1.0365  0.3179
   60SAPC  C314 4689   2.331   2.089   4.978  0.0089  0.4213  0.2307
   60SAPC  H14X 4690   2.398   2.175   4.954 -0.1742  0.2989 -0.7254
   60SAPC  H14Y 4691   2.225   2.123   4.972 -0.7992 -1.7049  1.1714
   60SAPC  C315 4692   2.346   1.975   4.868 -1.3288  0.2705  0.3055
   60SAPC  H15X 4693   2.258   1.907   4.871 -0.2466 -1.1599  0.8063
   60SAPC  H15Y 4694   2.423   1.902   4.902 -3.7347 -2.0216  1.2108
   60SAPC  C316 4695   2.385   2.024   4.725 -0.0520  0.5084  0.0509
   60SAPC  H16X 4696   2.419   1.935   4.667 -2.2626 -0.9842  0.9129
   60SAPC  H16Y 4697   2.463   2.104   4.729 -0.8954  1.2819  3.1531
   60SAPC  C317 4698   2.265   2.088   4.651 -0.0405 -0.1144 -0.1040
   60SAPC  H17X 4699   2.216   2.165   4.714  0.6493  2.0944 -2.1129
   60SAPC  H17Y 4700   2.190   2.009   4.631 -0.2280 -0.1782  0.7993
   60SAPC  C318 4701   2.314   2.159   4.521 -0.7988  0.3042  0.1996
   60SAPC  H18X 4702   2.364   2.253   4.551 -1.9405  0.6395  1.1412
   60SAPC  H18Y 4703   2.225   2.194   4.464 -0.7595 -0.6034 -0.4421
   60SAPC  H18Z 4704   2.371   2.095   4.450 -0.5290  2.0102 -1.1792
   61SAPC     N 4705   6.921   2.460   6.807  0.3255 -0.2642  0.2513
   61SAPC   C12 4706   6.821   2.344   6.794 -0.0077  0.4117  0.4888
   61SAPC  H12A 4707   6.746   2.368   6.867  1.2431 -0.4953  2.1566
   61SAPC  H12B 4708   6.876   2.263   6.840  0.3693  0.6908  0.5402
   61SAPC   C13 4709   6.882   2.579   6.726 -0.1179 -0.6718 -0.1141
   61SAPC  H13A 4710   6.849   2.543   6.631  0.0946 -0.0070 -0.4476
   61SAPC  H13B 4711   6.794   2.632   6.761 -0.2866 -0.9531 -0.1127
   61SAPC  H13C 4712   6.958   2.654   6.710 -3.0268  2.0969 -2.2858
   61SAPC   C14 4713   6.913   2.499   6.952 -0.4536 -0.1376 -0.3942
   61SAPC  H14A 4714   6.929   2.416   7.019 -0.2541 -0.8586 -1.3098
   61SAPC  H14B 4715   6.983   2.580   6.968  1.8336 -0.9719 -4.5718
   61SAPC  H14C 4716   6.813   2.537   6.966 -0.0461  1.5983 -1.8185
   61SAPC   C15 4717   7.069   2.431   6.779 -0.1173  0.0288 -0.2260
   61SAPC  H15A 4718   7.102   2.354   6.847 -0.9069  2.0620  2.6450
   61SAPC  H15B 4719   7.086   2.397   6.678 -0.1199 -0.0341 -0.2055
   61SAPC  H15C 4720   7.129   2.518   6.798 -0.0578  0.0583 -0.5332
   61SAPC   C11 4721   6.764   2.304   6.658 -0.3460 -0.1406  0.3681
   61SAPC  H11A 4722   6.682   2.372   6.628  0.2974  0.1432 -0.8264
   61SAPC  H11B 4723   6.706   2.210   6.665 -3.6276  1.6479 -0.5458
   61SAPC     P 4724   6.972   2.180   6.555  0.2766  0.4888 -0.4025
   61SAPC   O13 4725   7.101   2.237   6.524  0.1329 -0.1186 -0.0929
   61SAPC   O14 4726   6.963   2.092   6.675 -0.4502  0.0469 -0.5750
   61SAPC   O12 4727   6.861   2.293   6.555 -0.9327 -1.3128  0.2154
   61SAPC   O11 4728   6.939   2.079   6.437  0.0023 -0.5007 -0.7000
   61SAPC    C1 4729   6.853   2.105   6.328  0.2683  0.3488  0.3509
   61SAPC    HA 4730   6.764   2.166   6.354 -0.1794  0.0455 -0.4367
   61SAPC    HB 4731   6.906   2.163   6.249 -0.3838 -0.4792 -0.7216
   61SAPC    C2 4732   6.807   1.970   6.267 -0.2895 -0.5479  0.8820
   61SAPC    HS 4733   6.758   1.916   6.350  1.9642 -0.6460  2.2376
   61SAPC   O21 4734   6.911   1.906   6.199  0.1932 -0.0739  0.9602
   61SAPC   C21 4735   6.918   1.772   6.222  0.3969  0.2432  0.7649
   61SAPC   O22 4736   6.857   1.720   6.313 -0.2577 -0.0237  0.0127
   61SAPC   C22 4737   7.022   1.717   6.121  0.1793  0.7796  0.4898
   61SAPC   H2R 4738   6.991   1.744   6.018  2.1280  0.3820 -0.2293
   61SAPC   H2S 4739   7.118   1.763   6.150  1.9610 -1.5953 -1.2569
   61SAPC    C3 4740   6.698   2.002   6.160 -0.1870 -0.1749 -0.0973
   61SAPC    HX 4741   6.677   1.906   6.109 -0.1722 -0.9451  1.2929
   61SAPC    HY 4742   6.736   2.065   6.077 -2.6213  0.4934 -0.8052
   61SAPC   O31 4743   6.575   2.056   6.222 -0.1696 -0.7427 -0.3285
   61SAPC   C31 4744   6.500   1.963   6.268 -0.1236 -0.3538 -0.2785
   61SAPC   O32 4745   6.518   1.841   6.265  0.2407 -0.1772  0.6566
   61SAPC   C32 4746   6.379   2.030   6.325 -0.2570  0.5063  0.0209
   61SAPC   H2X 4747   6.392   2.138   6.302 -0.8441  0.5749 -0.0081
   61SAPC   H2Y 4748   6.379   2.006   6.433  2.1510 -0.4299 -0.1376
   61SAPC   C23 4749   7.035   1.564   6.117  0.5251  0.0119 -0.4498
   61SAPC   H3R 4750   6.936   1.526   6.082  0.9107 -0.4227 -1.0949
   61SAPC   H3S 4751   7.045   1.523   6.220  1.1752  1.1948 -0.0281
   61SAPC   C24 4752   7.141   1.516   6.012 -0.1830  0.2104 -0.6345
   61SAPC   H4R 4753   7.225   1.586   6.034  0.2659 -1.0978  2.1481
   61SAPC   H4S 4754   7.103   1.558   5.916 -0.6459  0.6822 -0.2523
   61SAPC   C25 4755   7.170   1.371   6.013  0.7322  0.3522 -0.1195
   61SAPC   H5R 4756   7.227   1.337   6.100 -0.5204 -1.8506 -0.0843
   61SAPC   C26 4757   7.142   1.282   5.914 -0.0034 -0.2506 -1.1230
   61SAPC   H6R 4758   7.157   1.175   5.936 -0.4175 -0.1696 -0.4270
   61SAPC   C27 4759   7.079   1.306   5.782  0.1904  0.0327 -0.4155
   61SAPC   H7R 4760   7.030   1.406   5.778  0.4912  0.2209  0.4568
   61SAPC   H7S 4761   6.992   1.237   5.772  0.1569 -0.0977  0.6435
   61SAPC   C28 4762   7.170   1.294   5.660  0.1070 -0.5009 -1.0276
   61SAPC   H8R 4763   7.272   1.311   5.698 -0.1315 -0.3432 -0.4476
   61SAPC   C29 4764   7.139   1.260   5.537  0.1103 -0.2249  0.0736
   61SAPC   H9R 4765   7.216   1.260   5.458 -0.7866  0.5689 -0.8198
   61SAPC  C210 4766   6.999   1.233   5.494 -0.1293 -0.0941 -0.1653
   61SAPC  H10R 4767   6.953   1.334   5.497  1.3642  0.6106  2.1928
   61SAPC  H10S 4768   6.947   1.191   5.583  0.5232 -0.4154  0.0775
   61SAPC  C211 4769   6.962   1.158   5.367 -0.4485 -0.4958 -0.3167
   61SAPC  H11R 4770   6.889   1.078   5.388 -1.0439  0.3692  1.0526
   61SAPC  C212 4771   7.009   1.167   5.244  0.0809 -0.8275 -0.2053
   61SAPC  H12R 4772   6.958   1.107   5.167  1.0636  0.2179 -1.7104
   61SAPC  C213 4773   7.123   1.254   5.189 -0.2515 -0.8359 -0.0685
   61SAPC  H13R 4774   7.212   1.280   5.250 -1.0149  0.2658  0.6310
   61SAPC  H13S 4775   7.075   1.352   5.165  0.1439 -0.3123  1.1812
   61SAPC  C214 4776   7.186   1.194   5.066  0.5641 -0.0488  0.7781
   61SAPC  H14R 4777   7.221   1.090   5.078  0.4578 -0.3539 -1.1310
   61SAPC  C215 4778   7.199   1.252   4.944 -0.6634  0.2619 -0.2153
   61SAPC  H15R 4779   7.256   1.200   4.865 -0.0690  2.3163 -1.2198
   61SAPC  C216 4780   7.157   1.392   4.903  0.8818 -0.3546  1.4048
   61SAPC  H16R 4781   7.157   1.476   4.976 -0.8849  2.7714 -1.8474
   61SAPC  H16S 4782   7.053   1.376   4.868  1.4176 -1.7115  0.3594
   61SAPC  C217 4783   7.245   1.446   4.791 -0.6585 -0.0646  0.2158
   61SAPC  H17R 4784   7.203   1.547   4.769 -0.7467 -0.0525  0.4468
   61SAPC  H17S 4785   7.238   1.390   4.695  0.2873  0.5455 -0.2358
   61SAPC  C218 4786   7.393   1.462   4.828  0.0059  0.1105 -0.0949
   61SAPC  H18R 4787   7.434   1.360   4.822 -1.3477 -0.4588 -0.0101
   61SAPC  H18S 4788   7.417   1.500   4.930  2.0820 -0.1861 -0.4253
   61SAPC  C219 4789   7.481   1.530   4.722  0.0866 -0.3896  0.0964
   61SAPC  H19R 4790   7.465   1.481   4.624 -2.0695  1.0093 -0.3087
   61SAPC  H19S 4791   7.584   1.512   4.759 -0.0971  1.3532  1.5930
   61SAPC  C220 4792   7.453   1.675   4.709 -0.6657  0.5197 -0.2086
   61SAPC  H20R 4793   7.502   1.738   4.787  1.5562  0.7870 -1.7267
   61SAPC  H20S 4794   7.344   1.692   4.701 -0.8023  0.0034  0.4188
   61SAPC  H20T 4795   7.499   1.716   4.617 -0.3673 -1.1455 -0.8171
   61SAPC   C33 4796   6.254   1.981   6.261  0.4565 -0.4480  0.5585
   61SAPC   H3X 4797   6.176   2.028   6.326  0.5196 -0.1533  0.4192
   61SAPC   H3Y 4798   6.243   1.870   6.267 -0.7046 -0.3253  1.0678
   61SAPC   C34 4799   6.223   2.020   6.113  0.2096  0.3947 -0.3316
   61SAPC   H4X 4800   6.234   2.130   6.102  0.7045  0.3578 -0.2264
   61SAPC   H4Y 4801   6.112   2.015   6.105  0.3137 -0.2194 -1.5038
   61SAPC   C35 4802   6.292   1.940   6.000  0.0499  0.0584  0.2377
   61SAPC   H5X 4803   6.276   1.830   6.007  0.0390 -0.0014 -0.6903
   61SAPC   H5Y 4804   6.403   1.952   5.997  0.3358 -2.2350 -1.4169
   61SAPC   C36 4805   6.243   1.992   5.861 -1.0443 -0.1615  0.1157
   61SAPC   H6X 4806   6.258   2.102   5.854 -0.7026 -0.1922  0.3008
   61SAPC   H6Y 4807   6.132   1.990   5.865 -1.1686  2.1922  4.4263
   61SAPC   C37 4808   6.297   1.912   5.739  0.7411  0.2161 -0.3413
   61SAPC   H7X 4809   6.267   1.806   5.758  0.1294  0.2961 -0.8311
   61SAPC   H7Y 4810   6.407   1.912   5.752  0.4307  0.3564  3.4885
   61SAPC   C38 4811   6.257   1.959   5.602 -0.2589 -0.0743  0.2904
   61SAPC   H8X 4812   6.277   2.067   5.587 -0.1578 -0.1460 -0.1207
   61SAPC   H8Y 4813   6.147   1.955   5.590 -0.1235  0.4192 -1.4703
   61SAPC   C39 4814   6.345   1.890   5.501 -0.0771 -0.3899  0.3622
   61SAPC   H9X 4815   6.334   1.781   5.521 -0.3455 -0.6957 -1.3280
   61SAPC   H9Y 4816   6.452   1.911   5.524 -0.2916  0.1385  0.9031
   61SAPC  C310 4817   6.306   1.915   5.356  0.1727  0.4754  0.3292
   61SAPC  H10X 4818   6.307   2.023   5.331 -2.1516  0.0816 -1.8550
   61SAPC  H10Y 4819   6.203   1.876   5.339  0.1441  0.9103 -0.5346
   61SAPC  C311 4820   6.398   1.833   5.271  0.2792 -0.1473  0.2848
   61SAPC  H11X 4821   6.385   1.725   5.292  0.7822 -0.2290  0.2093
   61SAPC  H11Y 4822   6.502   1.866   5.292 -0.1695  1.9209 -0.4820
   61SAPC  C312 4823   6.355   1.834   5.122 -0.4155  0.8397 -0.0056
   61SAPC  H12X 4824   6.330   1.938   5.094  1.3926  1.1925 -0.4725
   61SAPC  H12Y 4825   6.260   1.777   5.118  0.6559 -1.1040  0.6146
   61SAPC  C313 4826   6.455   1.766   5.026  0.5100  0.2482  0.3091
   61SAPC  H13X 4827   6.416   1.777   4.922  0.8966 -1.5321 -0.0504
   61SAPC  H13Y 4828   6.445   1.658   5.050 -0.6390  0.6449  1.7202
   61SAPC  C314 4829   6.601   1.811   5.034 -0.3303 -0.4018 -0.5691
   61SAPC  H14X 4830   6.648   1.770   5.125  1.3874 -1.1887 -1.7746
   61SAPC  H14Y 4831   6.587   1.921   5.027 -1.2166 -0.5200 -0.8713
   61SAPC  C315 4832   6.678   1.759   4.916 -0.1029  0.1485  0.2912
   61SAPC  H15X 4833   6.659   1.784   4.810 -0.5284  0.4102  0.4255
   61SAPC  H15Y 4834   6.653   1.651   4.920  1.2260 -0.1965 -0.0640
   61SAPC  C316 4835   6.827   1.764   4.942  0.0581 -0.9335 -0.1765
   61SAPC  H16X 4836   6.849   1.700   5.030  1.0454  1.0386  1.0711
   61SAPC  H16Y 4837   6.865   1.861   4.981  1.3848 -1.6681  0.3893
   61SAPC  C317 4838   6.917   1.715   4.828  0.0667 -0.2935  0.6574
   61SAPC  H17X 4839   6.865   1.623   4.794 -2.3555  0.0869  2.9942
   61SAPC  H17Y 4840   7.012   1.678   4.873  0.7197  1.4861  0.8620
   61SAPC  C318 4841   6.962   1.818   4.719  0.5300 -0.3491  0.1628
   61SAPC  H18X 4842   7.040   1.785   4.648  1.7356  0.6045  0.9969
   61SAPC  H18Y 4843   7.003   1.906   4.773  1.0008 -0.9957  0.8794
   61SAPC  H18Z 4844   6.869   1.850   4.666  1.0331 -1.1722 -1.2708
   62SAPC     N 4845   2.817   3.617   7.339  0.0385 -0.6029 -0.1388
   62SAPC   C12 4846   2.898   3.581   7.214  0.8494  0.6149  0.2146
   62SAPC  H12A 4847   2.926   3.477   7.216  0.2196  0.4486  0.8840
   62SAPC  H12B 4848   2.991   3.634   7.207  0.5268  1.0689 -0.8611
   62SAPC   C13 4849   2.899   3.593   7.462 -0.3040 -0.2248  0.1727
   62SAPC  H13A 4850   2.922   3.488   7.461  2.9410  0.3769  0.6674
   62SAPC  H13B 4851   2.988   3.654   7.452  1.6038 -2.7751  0.6185
   62SAPC  H13C 4852   2.857   3.633   7.553 -0.4739  3.5984 -1.3721
   62SAPC   C14 4853   2.778   3.762   7.333  0.0064  0.4108 -0.6966
   62SAPC  H14A 4854   2.728   3.797   7.422  0.9991 -0.2503  0.1421
   62SAPC  H14B 4855   2.867   3.822   7.322  1.0437 -0.7283  1.0195
   62SAPC  H14C 4856   2.720   3.772   7.242  2.0248 -0.8398 -2.2214
   62SAPC   C15 4857   2.690   3.539   7.355  0.4259 -0.6033  0.1824
   62SAPC  H15A 4858   2.623   3.591   7.421  0.2143 -2.0138  1.1160
   62SAPC  H15B 4859   2.640   3.524   7.260  1.1658 -2.3989  0.0417
   62SAPC  H15C 4860   2.696   3.436   7.387 -0.9003 -1.1155 -1.1031
   62SAPC   C11 4861   2.836   3.618   7.073 -0.0333  0.3254  0.3784
   62SAPC  H11A 4862   2.727   3.597   7.081 -0.3690  1.0637 -1.6087
   62SAPC  H11B 4863   2.877   3.544   7.001 -0.6670 -0.5423  0.8896
   62SAPC     P 4864   2.980   3.809   6.983  0.0830  0.2737  0.2048
   62SAPC   O13 4865   3.021   3.934   7.049  0.2422  0.6976 -0.4706
   62SAPC   O14 4866   3.081   3.699   6.968  0.1189  0.1940 -0.0793
   62SAPC   O12 4867   2.848   3.758   7.044  0.5443 -0.3046 -0.0411
   62SAPC   O11 4868   2.931   3.849   6.835  0.0672  0.2567  0.1064
   62SAPC    C1 4869   2.802   3.915   6.804  0.6378  0.2038 -0.8787
   62SAPC    HA 4870   2.741   3.843   6.745  1.1227 -0.0838 -1.0415
   62SAPC    HB 4871   2.752   3.961   6.891  1.6306 -1.5566  0.6811
   62SAPC    C2 4872   2.826   4.037   6.707 -0.1887  0.5374 -0.5425
   62SAPC    HS 4873   2.723   4.062   6.675 -0.7014  0.5457  1.0070
   62SAPC   O21 4874   2.917   4.003   6.601 -0.1030  0.0152 -0.0801
   62SAPC   C21 4875   2.859   3.943   6.498  0.7117 -0.6265  0.2427
   62SAPC   O22 4876   2.745   3.895   6.492  0.1751  0.1993  0.6436
   62SAPC   C22 4877   2.959   3.954   6.377  0.5100  0.5801  0.0705
   62SAPC   H2R 4878   2.894   3.976   6.289 -0.1323 -1.9327 -0.1587
   62SAPC   H2S 4879   3.023   4.044   6.386  1.1378  0.4141 -2.1359
   62SAPC    C3 4880   2.872   4.164   6.779  0.1281  0.2203 -0.2030
   62SAPC    HX 4881   2.958   4.133   6.842  0.5596 -0.4107 -1.0825
   62SAPC    HY 4882   2.795   4.192   6.853 -1.8972 -1.0472 -1.7258
   62SAPC   O31 4883   2.928   4.268   6.695 -0.5846  0.2990 -0.1132
   62SAPC   C31 4884   2.838   4.351   6.639  0.1326  0.0270 -0.0763
   62SAPC   O32 4885   2.724   4.367   6.677 -0.6293  0.1401 -0.2500
   62SAPC   C32 4886   2.892   4.424   6.520 -0.0444 -0.3067  0.3448
   62SAPC   H2X 4887   2.950   4.511   6.558  0.7994 -0.4942 -0.5058
   62SAPC   H2Y 4888   2.807   4.471   6.466  0.4607  1.8352  1.3124
   62SAPC   C23 4889   3.040   3.822   6.371 -0.3077  0.4573 -0.2285
   62SAPC   H3R 4890   2.969   3.736   6.376  0.2871 -0.1034 -1.0853
   62SAPC   H3S 4891   3.113   3.816   6.455 -0.2862 -1.1686 -0.3246
   62SAPC   C24 4892   3.126   3.800   6.241 -0.1440 -0.0889  0.4130
   62SAPC   H4R 4893   3.059   3.787   6.153  2.3689  1.2601 -1.8614
   62SAPC   H4S 4894   3.186   3.707   6.247  0.2819 -0.0701 -2.3762
   62SAPC   C25 4895   3.221   3.912   6.225  0.0147  0.4821  0.4525
   62SAPC   H5R 4896   3.306   3.925   6.293 -0.9273  3.1415  1.2282
   62SAPC   C26 4897   3.217   3.990   6.113 -0.2986  0.5631 -0.9935
   62SAPC   H6R 4898   3.302   4.058   6.098  1.1964 -1.3643 -1.7110
   62SAPC   C27 4899   3.126   3.986   5.996 -0.1078  0.4450  0.2353
   62SAPC   H7R 4900   3.091   4.091   5.987 -1.3669  0.1169  1.0040
   62SAPC   H7S 4901   3.030   3.930   6.006  1.0040 -1.2517  2.2251
   62SAPC   C28 4902   3.189   3.930   5.871 -0.2951 -0.5544  0.2978
   62SAPC   H8R 4903   3.232   3.829   5.885 -0.8014 -0.8554 -0.2833
   62SAPC   C29 4904   3.184   3.987   5.750 -0.7490 -0.0512  0.3341
   62SAPC   H9R 4905   3.231   3.924   5.674 -1.5958 -0.8431  0.4541
   62SAPC  C210 4906   3.127   4.125   5.715 -0.0967  1.2227 -0.9764
   62SAPC  H10R 4907   3.086   4.176   5.805 -1.2078  1.7782 -1.7654
   62SAPC  H10S 4908   3.036   4.116   5.652  2.1481  0.3671 -4.3434
   62SAPC  C211 4909   3.235   4.204   5.650  0.4787  0.6930  0.5105
   62SAPC  H11R 4910   3.323   4.227   5.712  2.2972  0.2144 -1.7341
   62SAPC  C212 4911   3.251   4.253   5.525  0.0072  0.3473 -0.1007
   62SAPC  H12R 4912   3.339   4.314   5.497 -0.7952  0.5053 -2.5856
   62SAPC  C213 4913   3.145   4.247   5.421  0.0222 -0.0468  0.1206
   62SAPC  H13R 4914   3.143   4.349   5.378 -0.8223 -0.7507 -1.6221
   62SAPC  H13S 4915   3.045   4.238   5.468 -0.3972  0.0520 -0.7363
   62SAPC  C214 4916   3.160   4.135   5.319  0.7572  0.5020  0.7469
   62SAPC  H14R 4917   3.125   4.035   5.350 -1.2569  1.3831  1.5288
   62SAPC  C215 4918   3.211   4.155   5.197 -0.3431 -0.3918  0.0144
   62SAPC  H15R 4919   3.206   4.075   5.122  1.4398 -1.8918  1.3778
   62SAPC  C216 4920   3.248   4.286   5.142 -0.4198 -0.1577 -0.1045
   62SAPC  H16R 4921   3.340   4.326   5.190 -1.2838 -0.9858  2.4299
   62SAPC  H16S 4922   3.167   4.355   5.174 -0.1219 -0.8362  2.3372
   62SAPC  C217 4923   3.254   4.284   4.982  0.2184 -0.8472 -0.1039
   62SAPC  H17R 4924   3.156   4.247   4.945 -0.2279  1.0307 -0.9209
   62SAPC  H17S 4925   3.336   4.216   4.950  1.5490 -0.6749  2.6974
   62SAPC  C218 4926   3.260   4.429   4.922  0.2873  0.0921  1.0982
   62SAPC  H18R 4927   3.366   4.454   4.899 -0.5715  0.2510 -3.9351
   62SAPC  H18S 4928   3.224   4.497   5.002 -0.2600  0.6479  0.3955
   62SAPC  C219 4929   3.179   4.446   4.787 -0.2654 -0.0683  0.9631
   62SAPC  H19R 4930   3.097   4.371   4.792 -1.0664  0.7717  0.8119
   62SAPC  H19S 4931   3.244   4.401   4.709 -1.4668 -2.0271  1.0222
   62SAPC  C220 4932   3.151   4.591   4.753  0.0367  0.3245  0.1905
   62SAPC  H20R 4933   3.132   4.605   4.644  0.6662  0.6430  0.1204
   62SAPC  H20S 4934   3.239   4.654   4.775 -1.4762  2.5199  0.2655
   62SAPC  H20T 4935   3.064   4.620   4.815 -2.0517 -0.0739 -2.3740
   62SAPC   C33 4936   2.972   4.344   6.433  0.1508 -0.2534 -0.0475
   62SAPC   H3X 4937   2.923   4.255   6.387  1.1051 -0.6022 -0.4048
   62SAPC   H3Y 4938   3.061   4.307   6.488  0.2111 -1.7013 -1.0742
   62SAPC   C34 4939   3.014   4.421   6.308  0.6671  0.4602  0.2313
   62SAPC   H4X 4940   3.079   4.510   6.324 -1.0575  1.5542  1.5739
   62SAPC   H4Y 4941   2.922   4.458   6.256  0.8260  0.1768 -0.2620
   62SAPC   C35 4942   3.101   4.317   6.214 -0.0948 -0.5247  0.5500
   62SAPC   H5X 4943   3.040   4.234   6.172  2.1280 -0.1762 -3.9598
   62SAPC   H5Y 4944   3.159   4.249   6.281 -1.3120 -1.5473  0.6033
   62SAPC   C36 4945   3.178   4.385   6.102 -0.3426  0.3610  0.5834
   62SAPC   H6X 4946   3.265   4.323   6.069  1.9759  3.5788  0.2297
   62SAPC   H6Y 4947   3.219   4.478   6.147  0.0267  1.1508 -1.3012
   62SAPC   C37 4948   3.091   4.418   5.983  0.8310  0.6035 -0.2492
   62SAPC   H7X 4949   3.009   4.488   6.011 -0.3731 -1.4075  1.6282
   62SAPC   H7Y 4950   3.044   4.333   5.929  0.3803  1.4971 -1.2843
   62SAPC   C38 4951   3.174   4.479   5.872  0.3040  0.1200  0.3372
   62SAPC   H8X 4952   3.257   4.414   5.838  0.8175  1.9662 -2.1767
   62SAPC   H8Y 4953   3.228   4.568   5.911  0.6564 -0.6590  1.7133
   62SAPC   C39 4954   3.090   4.523   5.754 -0.1111  0.3188 -0.0494
   62SAPC   H9X 4955   3.008   4.589   5.789  0.2840  1.6288 -1.4868
   62SAPC   H9Y 4956   3.041   4.434   5.709  0.5912 -0.0798 -0.0391
   62SAPC  C310 4957   3.173   4.597   5.652 -0.7845  0.0151 -0.2645
   62SAPC  H10X 4958   3.262   4.534   5.629  0.7079  2.0212 -0.2989
   62SAPC  H10Y 4959   3.225   4.685   5.695 -1.2688  0.1386  0.0725
   62SAPC  C311 4960   3.095   4.630   5.522 -0.2220  0.0671 -0.6615
   62SAPC  H11X 4961   3.016   4.701   5.556  0.3315  1.0315 -1.3250
   62SAPC  H11Y 4962   3.050   4.536   5.483  2.0647 -0.9006 -1.0813
   62SAPC  C312 4963   3.178   4.707   5.420  0.3591  0.0873 -0.0588
   62SAPC  H12X 4964   3.218   4.799   5.469  0.5167 -0.6839  1.3169
   62SAPC  H12Y 4965   3.105   4.743   5.344  1.5029 -0.2395 -1.3362
   62SAPC  C313 4966   3.283   4.631   5.340 -0.4494  0.0234  0.1925
   62SAPC  H13X 4967   3.235   4.539   5.301 -0.0710  0.1199 -0.5132
   62SAPC  H13Y 4968   3.369   4.603   5.405 -0.4113  2.3648  1.2617
   62SAPC  C314 4969   3.329   4.711   5.225 -1.2838 -1.1201  0.7005
   62SAPC  H14X 4970   3.381   4.642   5.155  1.0935 -0.4385  1.6633
   62SAPC  H14Y 4971   3.407   4.782   5.261 -1.1373 -1.0381  0.2330
   62SAPC  C315 4972   3.226   4.783   5.138  0.0145  0.0964  0.5057
   62SAPC  H15X 4973   3.187   4.881   5.173  0.1210 -0.0739  1.1289
   62SAPC  H15Y 4974   3.144   4.708   5.129  0.6119 -0.9900  2.9681
   62SAPC  C316 4975   3.289   4.813   5.002 -0.1826 -0.3221 -0.1205
   62SAPC  H16X 4976   3.215   4.851   4.928  0.1897  0.4360 -0.1112
   62SAPC  H16Y 4977   3.328   4.728   4.943 -0.7342  0.9699 -2.4946
   62SAPC  C317 4978   3.401   4.922   4.997  0.2530 -0.5070 -0.2720
   62SAPC  H17X 4979   3.485   4.910   5.070 -0.3438  1.7699  0.8851
   62SAPC  H17Y 4980   3.353   5.013   5.040  1.5951 -0.3803  1.0329
   62SAPC  C318 4981   3.458   4.941   4.850 -0.2818  0.6537  0.5683
   62SAPC  H18X 4982   3.494   4.843   4.813 -0.5347  1.0524 -0.8071
   62SAPC  H18Y 4983   3.548   5.007   4.853  1.0641 -1.0908  0.1459
   62SAPC  H18Z 4984   3.373   4.983   4.792 -0.3216 -0.6532 -0.3666
   63SAPC     N 4985   0.838   4.201   6.606  0.4006 -0.3714  0.1948
   63SAPC   C12 4986   0.941   4.094   6.616 -0.4403 -0.5317  0.4141
   63SAPC  H12A 4987   1.038   4.126   6.652 -0.2592 -0.9150  0.2809
   63SAPC  H12B 4988   0.960   4.073   6.511 -1.8541  1.8887 -0.3883
   63SAPC   C13 4989   0.713   4.149   6.544  0.8535 -0.7285  0.5041
   63SAPC  H13A 4990   0.641   4.230   6.546  0.2590 -1.1912 -0.7076
   63SAPC  H13B 4991   0.712   4.131   6.437 -2.6276  2.8712 -0.3557
   63SAPC  H13C 4992   0.681   4.059   6.595  1.2220 -1.4566 -0.5143
   63SAPC   C14 4993   0.804   4.247   6.748 -0.3925 -0.6397  0.3173
   63SAPC  H14A 4994   0.787   4.161   6.810 -0.7836 -0.0103  1.0913
   63SAPC  H14B 4995   0.887   4.301   6.792 -0.8897  0.2532  0.1975
   63SAPC  H14C 4996   0.726   4.321   6.737  0.7304  0.2690 -2.4265
   63SAPC   C15 4997   0.878   4.316   6.520 -0.9028  0.0222  0.3696
   63SAPC  H15A 4998   0.805   4.395   6.522  1.0755  1.9646  0.3483
   63SAPC  H15B 4999   0.967   4.368   6.554  0.1096 -0.7564 -1.0010
   63SAPC  H15C 5000   0.901   4.291   6.418 -0.7826  0.2416  0.3437
   63SAPC   C11 5001   0.894   3.969   6.699 -0.7062 -0.5993  0.6658
   63SAPC  H11A 5002   0.882   3.994   6.806  0.7035  1.3804  0.4102
   63SAPC  H11B 5003   0.982   3.901   6.700 -0.9532 -0.9295  0.3496
   63SAPC     P 5004   0.676   3.815   6.704 -0.0636  0.1414 -0.1964
   63SAPC   O13 5005   0.716   3.771   6.840  0.2007  0.1742  0.1167
   63SAPC   O14 5006   0.544   3.881   6.683  0.4512  0.2407  0.1406
   63SAPC   O12 5007   0.785   3.901   6.638  1.2324 -0.3219 -0.1519
   63SAPC   O11 5008   0.679   3.694   6.609 -0.2257  0.0755 -0.0707
   63SAPC    C1 5009   0.798   3.620   6.596 -1.0704 -0.2437 -0.9543
   63SAPC    HA 5010   0.891   3.661   6.641 -0.7149  0.3632 -2.1808
   63SAPC    HB 5011   0.778   3.520   6.639 -0.5090  0.3028  0.6313
   63SAPC    C2 5012   0.832   3.601   6.442  1.0672 -0.6308  0.1380
   63SAPC    HS 5013   0.923   3.539   6.428  1.1804 -0.2105 -1.0660
   63SAPC   O21 5014   0.862   3.718   6.369  0.2222  0.8340  0.0488
   63SAPC   C21 5015   0.971   3.779   6.407  0.3934 -0.1252  0.1306
   63SAPC   O22 5016   1.048   3.750   6.495  0.4672 -0.6062  0.3958
   63SAPC   C22 5017   0.996   3.898   6.312 -0.2747 -0.3205  0.2586
   63SAPC   H2R 5018   0.928   3.970   6.363 -0.3314 -0.2150  0.0359
   63SAPC   H2S 5019   1.100   3.935   6.311 -0.9587  1.8190  1.1861
   63SAPC    C3 5020   0.723   3.512   6.369  0.0790 -0.2414 -0.0109
   63SAPC    HX 5021   0.618   3.546   6.379  0.2693  0.2375  0.3738
   63SAPC    HY 5022   0.724   3.414   6.421 -2.7758 -1.4938 -2.0256
   63SAPC   O31 5023   0.762   3.498   6.228  0.4690  0.3094 -0.4459
   63SAPC   C31 5024   0.693   3.574   6.148 -0.5550 -0.0350 -0.5469
   63SAPC   O32 5025   0.603   3.649   6.180 -1.1499 -1.2521 -0.8039
   63SAPC   C32 5026   0.727   3.544   6.003 -0.0916 -0.2745 -0.0201
   63SAPC   H2X 5027   0.722   3.433   5.991  1.9999 -0.6557  1.8370
   63SAPC   H2Y 5028   0.833   3.571   5.980 -0.1057  2.8584  2.8386
   63SAPC   C23 5029   0.944   3.893   6.167  0.0622  0.2435  0.2980
   63SAPC   H3R 5030   0.954   3.996   6.126 -0.3120 -0.0913 -0.6525
   63SAPC   H3S 5031   0.839   3.857   6.163  0.0111  0.4954 -0.6809
   63SAPC   C24 5032   1.023   3.796   6.080 -0.6735  0.9111  0.8445
   63SAPC   H4R 5033   0.974   3.823   5.984  0.5937  2.7384  0.6617
   63SAPC   H4S 5034   1.001   3.696   6.124 -1.5392  0.8646  0.3167
   63SAPC   C25 5035   1.175   3.814   6.070  0.1327  0.4514  1.0807
   63SAPC   H5R 5036   1.226   3.818   6.168  2.5952  1.7343 -0.1487
   63SAPC   C26 5037   1.249   3.799   5.962  0.8826 -0.2865  0.0568
   63SAPC   H6R 5038   1.357   3.810   5.976  1.1004 -2.7444  0.7062
   63SAPC   C27 5039   1.200   3.778   5.816 -0.5238  0.1613 -0.0017
   63SAPC   H7R 5040   1.089   3.765   5.815 -0.3354 -1.9035 -0.0806
   63SAPC   H7S 5041   1.250   3.683   5.788 -4.4917 -2.5904  1.2136
   63SAPC   C28 5042   1.244   3.879   5.718 -0.1354 -0.9091  0.2353
   63SAPC   H8R 5043   1.309   3.955   5.764 -1.9336  0.5924  0.3922
   63SAPC   C29 5044   1.195   3.884   5.591  0.0946  0.2796  0.4208
   63SAPC   H9R 5045   1.224   3.971   5.530 -0.9356  1.5682  1.6941
   63SAPC  C210 5046   1.096   3.783   5.531  0.2948  0.0090  0.3087
   63SAPC  H10R 5047   1.076   3.698   5.599 -1.9075  1.1458  1.1651
   63SAPC  H10S 5048   1.139   3.732   5.443  0.8414  0.0979  0.5135
   63SAPC  C211 5049   0.958   3.836   5.494  0.1222 -0.7899 -0.3902
   63SAPC  H11R 5050   0.909   3.879   5.583  1.0024  2.4458 -1.3493
   63SAPC  C212 5051   0.907   3.847   5.374 -0.5239  0.5607  1.2337
   63SAPC  H12R 5052   0.805   3.885   5.357  0.6959  3.7625  0.3538
   63SAPC  C213 5053   0.969   3.800   5.238  0.2711 -0.1101 -0.4077
   63SAPC  H13R 5054   1.000   3.693   5.247  0.5488  0.0697  0.8655
   63SAPC  H13S 5055   1.058   3.866   5.229  0.2677 -0.3017 -2.3448
   63SAPC  C214 5056   0.872   3.809   5.118 -0.6037 -0.5541 -0.9083
   63SAPC  H14R 5057   0.765   3.794   5.135 -1.1322 -0.2780 -3.4776
   63SAPC  C215 5058   0.914   3.813   4.990  0.1372 -0.4368  0.6412
   63SAPC  H15R 5059   0.836   3.823   4.914 -0.2998 -0.3105  1.0995
   63SAPC  C216 5060   1.058   3.803   4.946  0.5925 -0.1145  0.2323
   63SAPC  H16R 5061   1.130   3.830   5.027  1.5795  0.7358 -0.8913
   63SAPC  H16S 5062   1.072   3.875   4.863 -3.0990  0.9420  0.3500
   63SAPC  C217 5063   1.099   3.667   4.895  0.5683  0.0934 -0.3264
   63SAPC  H17R 5064   1.040   3.635   4.807 -0.7407 -2.8853  1.4499
   63SAPC  H17S 5065   1.089   3.592   4.977 -0.8794  1.7871  1.1405
   63SAPC  C218 5066   1.245   3.661   4.845  0.7312 -0.1087 -0.9582
   63SAPC  H18R 5067   1.263   3.554   4.822  1.0120  0.0519 -1.4993
   63SAPC  H18S 5068   1.312   3.690   4.928  2.4654 -1.9770 -1.6542
   63SAPC  C219 5069   1.267   3.741   4.718  0.1806 -0.2747 -0.1615
   63SAPC  H19R 5070   1.282   3.849   4.742  2.2189 -0.7528  0.9169
   63SAPC  H19S 5071   1.181   3.734   4.647 -1.0908  2.1591  0.9969
   63SAPC  C220 5072   1.398   3.685   4.653 -0.2985  0.4155 -1.1540
   63SAPC  H20R 5073   1.473   3.674   4.734  0.2731 -1.8596 -1.9161
   63SAPC  H20S 5074   1.441   3.750   4.574  0.1251  1.4114 -0.1315
   63SAPC  H20T 5075   1.388   3.580   4.618 -2.1412  0.4252 -0.7429
   63SAPC   C33 5076   0.620   3.604   5.906 -0.4955  0.3184  0.7931
   63SAPC   H3X 5077   0.591   3.709   5.926 -2.1585  0.1517 -0.5563
   63SAPC   H3Y 5078   0.521   3.555   5.907  0.1173 -1.0042 -0.4137
   63SAPC   C34 5079   0.677   3.593   5.758  0.5745  0.1241 -0.8130
   63SAPC   H4X 5080   0.715   3.489   5.762  1.7774  0.5635  1.8862
   63SAPC   H4Y 5081   0.763   3.663   5.742  1.2442 -0.3765  0.3920
   63SAPC   C35 5082   0.561   3.635   5.661 -0.1976 -0.2998 -0.7628
   63SAPC   H5X 5083   0.517   3.736   5.672 -2.4229 -1.1240 -1.4400
   63SAPC   H5Y 5084   0.480   3.558   5.665  2.0922 -2.8478 -0.1901
   63SAPC   C36 5085   0.609   3.630   5.518  0.4972  0.7204  0.0237
   63SAPC   H6X 5086   0.657   3.532   5.501  1.1073  1.2004 -1.1068
   63SAPC   H6Y 5087   0.676   3.712   5.484  0.8297 -0.1075 -1.4327
   63SAPC   C37 5088   0.481   3.637   5.427  0.5054  0.3176  0.6755
   63SAPC   H7X 5089   0.392   3.676   5.481 -0.6081  1.0768 -1.5911
   63SAPC   H7Y 5090   0.463   3.530   5.405 -1.5121  0.6658  0.3619
   63SAPC   C38 5091   0.482   3.744   5.314 -0.3037 -0.3205 -0.1642
   63SAPC   H8X 5092   0.580   3.738   5.262  0.7182  3.5217  0.9870
   63SAPC   H8Y 5093   0.485   3.840   5.370  0.3680  0.7682 -1.9503
   63SAPC   C39 5094   0.371   3.716   5.213 -0.8428 -0.2670 -0.7070
   63SAPC   H9X 5095   0.270   3.724   5.258 -1.3096  0.6670 -1.8703
   63SAPC   H9Y 5096   0.392   3.614   5.174  1.9165 -0.2312  0.4736
   63SAPC  C310 5097   0.385   3.818   5.102 -0.2636 -0.6353  0.4521
   63SAPC  H10X 5098   0.492   3.834   5.080 -0.2745 -2.5143 -1.2648
   63SAPC  H10Y 5099   0.349   3.920   5.130  0.8114  0.2605 -1.2603
   63SAPC  C311 5100   0.320   3.781   4.966 -0.1852 -0.1581  0.3896
   63SAPC  H11X 5101   0.214   3.760   4.994 -0.1404 -1.3785 -0.2987
   63SAPC  H11Y 5102   0.354   3.685   4.922 -0.2894  0.8389 -2.0085
   63SAPC  C312 5103   0.336   3.881   4.848  0.0267 -0.3981  0.4256
   63SAPC  H12X 5104   0.317   3.986   4.878  0.3249 -0.4836  0.9153
   63SAPC  H12Y 5105   0.247   3.863   4.783 -0.4688 -0.0545  1.0023
   63SAPC  C313 5106   0.464   3.878   4.771 -0.8627  0.1970  0.2174
   63SAPC  H13X 5107   0.543   3.928   4.831 -0.6107  0.8831 -0.6655
   63SAPC  H13Y 5108   0.440   3.949   4.689 -2.0409  0.8638  1.1230
   63SAPC  C314 5109   0.500   3.740   4.718 -0.1252 -0.1523  0.2488
   63SAPC  H14X 5110   0.421   3.712   4.645 -1.1106 -0.6324  1.4572
   63SAPC  H14Y 5111   0.496   3.658   4.794  1.6679  0.0618  0.6265
   63SAPC  C315 5112   0.638   3.755   4.651 -0.3417  0.4072 -0.3133
   63SAPC  H15X 5113   0.707   3.806   4.722 -0.3273  0.7067 -0.5385
   63SAPC  H15Y 5114   0.625   3.822   4.563 -1.3293 -0.4993 -0.8738
   63SAPC  C316 5115   0.710   3.617   4.619 -0.3975 -0.5806  0.3200
   63SAPC  H16X 5116   0.651   3.566   4.539  0.2480  0.9035 -1.1618
   63SAPC  H16Y 5117   0.729   3.554   4.708 -1.6841 -3.4056 -1.2774
   63SAPC  C317 5118   0.845   3.650   4.557 -0.0727  0.2987 -0.2226
   63SAPC  H17X 5119   0.903   3.723   4.617  1.0965 -0.4814 -0.3638
   63SAPC  H17Y 5120   0.838   3.697   4.456  2.0064  1.0441 -0.0728
   63SAPC  C318 5121   0.936   3.525   4.550 -0.4145 -0.4096  0.2040
   63SAPC  H18X 5122   0.950   3.455   4.636  0.4787  0.7144  1.0078
   63SAPC  H18Y 5123   1.039   3.565   4.540 -0.4439  0.3008  2.2264
   63SAPC  H18Z 5124   0.908   3.474   4.455  0.1652 -2.9691  1.3009
   64SAPC     N 5125   6.927   5.558   6.754 -0.1936 -0.6639 -0.6508
   64SAPC   C12 5126   6.852   5.497   6.640  0.1232 -0.3570  0.1110
   64SAPC  H12A 5127   6.789   5.578   6.604  1.8586 -0.1208 -2.7148
   64SAPC  H12B 5128   6.785   5.429   6.690  1.0077 -0.2401  1.5054
   64SAPC   C13 5129   7.017   5.678   6.716  0.4617 -0.1258 -0.0082
   64SAPC  H13A 5130   7.092   5.637   6.650 -1.8566 -2.8244 -1.2048
   64SAPC  H13B 5131   6.944   5.749   6.681 -2.6693 -3.8094 -1.8201
   64SAPC  H13C 5132   7.069   5.709   6.805  0.9790  0.8139 -0.6314
   64SAPC   C14 5133   6.822   5.605   6.850  0.0496  0.6137  0.3254
   64SAPC  H14A 5134   6.760   5.688   6.819 -1.3304  0.9105  3.4714
   64SAPC  H14B 5135   6.753   5.527   6.876  1.3260 -1.1654 -1.3599
   64SAPC  H14C 5136   6.870   5.634   6.942 -0.0103 -1.1078  0.9305
   64SAPC   C15 5137   7.007   5.453   6.831 -0.4517  0.1638 -0.1847
   64SAPC  H15A 5138   6.941   5.373   6.863  0.4322 -0.1308  0.9548
   64SAPC  H15B 5139   7.083   5.411   6.767  0.0638  1.5170 -0.5019
   64SAPC  H15C 5140   7.061   5.494   6.915  0.7450 -0.0661 -0.8223
   64SAPC   C11 5141   6.937   5.438   6.519 -0.2080 -0.3986  0.2668
   64SAPC  H11A 5142   6.986   5.522   6.466 -1.4465  0.6718  0.7624
   64SAPC  H11B 5143   6.871   5.394   6.441 -1.5861  1.1678  0.4766
   64SAPC     P 5144   7.023   5.203   6.559  0.1363  0.1459 -0.0901
   64SAPC   O13 5145   7.125   5.159   6.658  0.8085 -0.6998 -0.3535
   64SAPC   O14 5146   6.881   5.165   6.577  0.2397 -0.2390 -0.0404
   64SAPC   O12 5147   7.035   5.351   6.552 -0.7655  0.0558  0.0455
   64SAPC   O11 5148   7.068   5.174   6.410  0.2300 -0.2182 -0.4302
   64SAPC    C1 5149   7.200   5.222   6.366  0.2524  0.3034 -0.2544
   64SAPC    HA 5150   7.204   5.333   6.367  0.2078  0.3091 -0.5305
   64SAPC    HB 5151   7.282   5.178   6.427  0.3034  0.9306  0.1322
   64SAPC    C2 5152   7.223   5.188   6.211  0.0049 -0.1343 -0.5147
   64SAPC    HS 5153   7.135   5.235   6.162 -0.1072  0.2140  0.0058
   64SAPC   O21 5154   7.222   5.040   6.198 -0.3547  0.2151  0.4108
   64SAPC   C21 5155   7.188   5.003   6.075 -0.4070 -0.6877  0.5435
   64SAPC   O22 5156   7.152   5.087   5.990 -0.6424 -0.0742  0.5447
   64SAPC   C22 5157   7.209   4.853   6.046 -0.0122 -0.0806 -0.2610
   64SAPC   H2R 5158   7.301   4.814   6.096 -0.9984 -1.6977  0.3585
   64SAPC   H2S 5159   7.128   4.790   6.089 -0.3366  1.2389  1.1087
   64SAPC    C3 5160   7.361   5.239   6.158  0.1924  0.2617 -0.7447
   64SAPC    HX 5161   7.445   5.175   6.195 -0.0103  0.6953  0.5005
   64SAPC    HY 5162   7.374   5.339   6.202 -1.2638 -0.1110  0.5923
   64SAPC   O31 5163   7.386   5.229   6.014  0.0173  0.1478 -0.2020
   64SAPC   C31 5164   7.317   5.333   5.952  0.5500  0.2753 -0.5879
   64SAPC   O32 5165   7.290   5.438   6.010  0.8912 -0.8210 -0.2232
   64SAPC   C32 5166   7.288   5.298   5.809 -0.1704  0.3086 -0.6648
   64SAPC   H2X 5167   7.300   5.189   5.792  1.1054  0.2260  0.5827
   64SAPC   H2Y 5168   7.369   5.341   5.746  0.6044  0.1578  0.2055
   64SAPC   C23 5169   7.237   4.822   5.894  0.0291  0.9467  0.0167
   64SAPC   H3R 5170   7.188   4.882   5.815  0.5188  0.3925 -0.7212
   64SAPC   H3S 5171   7.203   4.718   5.875  2.0028  0.1557  0.6454
   64SAPC   C24 5172   7.390   4.803   5.872  0.6085 -0.5941 -0.9558
   64SAPC   H4R 5173   7.384   4.771   5.766 -3.0911 -0.0376 -1.0402
   64SAPC   H4S 5174   7.440   4.724   5.931  1.1441 -2.8526 -4.1614
   64SAPC   C25 5175   7.485   4.923   5.890 -0.0368 -0.4530 -0.0898
   64SAPC   H5R 5176   7.501   4.959   5.993 -2.5921  1.0969 -0.1554
   64SAPC   C26 5177   7.551   4.980   5.785 -0.4530  0.5520  0.3235
   64SAPC   H6R 5178   7.607   5.071   5.814  0.7521  0.0152 -0.2501
   64SAPC   C27 5179   7.543   4.937   5.636  0.4875 -0.4114 -0.2151
   64SAPC   H7R 5180   7.442   4.958   5.593  0.6846 -0.3192 -0.6420
   64SAPC   H7S 5181   7.549   4.826   5.633 -0.5625 -0.6359  2.8255
   64SAPC   C28 5182   7.651   5.010   5.554  0.3113  0.3978 -0.1027
   64SAPC   H8R 5183   7.748   5.018   5.606 -0.2184 -1.1078  1.2322
   64SAPC   C29 5184   7.644   5.065   5.433  0.0094 -0.3968 -0.0795
   64SAPC   H9R 5185   7.735   5.086   5.376  0.9309  0.5782  1.6588
   64SAPC  C210 5186   7.525   5.066   5.346 -0.2084 -0.2658 -0.5631
   64SAPC  H10R 5187   7.427   5.028   5.382 -0.6807  0.4495 -1.0732
   64SAPC  H10S 5188   7.549   4.997   5.262  1.6179 -3.5371  2.3620
   64SAPC  C211 5189   7.493   5.211   5.306 -0.5446 -0.0546 -0.2203
   64SAPC  H11R 5190   7.532   5.292   5.370  0.6210 -0.0164 -0.9312
   64SAPC  C212 5191   7.447   5.246   5.182 -0.0154  0.3585 -0.1910
   64SAPC  H12R 5192   7.427   5.354   5.171 -0.2063  0.3115 -0.3176
   64SAPC  C213 5193   7.382   5.152   5.080  0.5464 -0.9519  1.0632
   64SAPC  H13R 5194   7.288   5.201   5.046  1.4495  0.0821 -0.0209
   64SAPC  H13S 5195   7.354   5.060   5.136 -2.4955 -0.1044  1.1177
   64SAPC  C214 5196   7.475   5.122   4.963  0.2679 -0.9652 -0.3021
   64SAPC  H14R 5197   7.581   5.105   4.990  0.2410 -1.3420 -0.4380
   64SAPC  C215 5198   7.441   5.110   4.836 -0.7686 -0.5995  0.7720
   64SAPC  H15R 5199   7.527   5.105   4.767  1.5946  0.3402  3.4405
   64SAPC  C216 5200   7.296   5.129   4.778  0.1082  0.2420 -0.4809
   64SAPC  H16R 5201   7.216   5.155   4.850 -1.2769 -1.1406 -1.4483
   64SAPC  H16S 5202   7.270   5.038   4.719  0.2964 -1.2098  1.5761
   64SAPC  C217 5203   7.305   5.252   4.684 -0.0451  0.1663  0.3117
   64SAPC  H17R 5204   7.200   5.261   4.649  1.0783  1.5934 -3.2399
   64SAPC  H17S 5205   7.363   5.234   4.590  1.4771  0.4663  1.1594
   64SAPC  C218 5206   7.351   5.384   4.749 -0.2190  0.2063 -0.0248
   64SAPC  H18R 5207   7.448   5.374   4.802 -1.6294 -1.8588  2.4607
   64SAPC  H18S 5208   7.281   5.416   4.830  1.2940 -1.8323  2.2334
   64SAPC  C219 5209   7.350   5.494   4.643  0.2159  0.4932  0.5832
   64SAPC  H19R 5210   7.245   5.504   4.608 -0.2201 -2.4056  0.8337
   64SAPC  H19S 5211   7.390   5.448   4.550 -0.6095  0.6416  0.1422
   64SAPC  C220 5212   7.419   5.623   4.684  0.0215  0.1932  0.1258
   64SAPC  H20R 5213   7.524   5.602   4.715  0.0163  0.3066  0.2225
   64SAPC  H20S 5214   7.362   5.682   4.759 -1.0286  1.9405 -1.9271
   64SAPC  H20T 5215   7.422   5.684   4.591 -2.7722 -1.3105 -1.0769
   64SAPC   C33 5216   7.150   5.342   5.754 -0.0580  0.6444 -0.8515
   64SAPC   H3X 5217   7.141   5.451   5.737 -0.2176  0.3922 -2.5866
   64SAPC   H3Y 5218   7.064   5.323   5.822  1.2872  0.4880  0.8851
   64SAPC   C34 5219   7.109   5.268   5.626  0.3325 -0.0036  0.7868
   64SAPC   H4X 5220   7.004   5.297   5.602  0.4225 -1.6221 -1.9783
   64SAPC   H4Y 5221   7.099   5.161   5.652 -1.0027  0.4687  2.3472
   64SAPC   C35 5222   7.201   5.275   5.501 -1.0516 -0.2975  0.8360
   64SAPC   H5X 5223   7.297   5.223   5.520 -1.4839 -1.0286  1.0383
   64SAPC   H5Y 5224   7.238   5.375   5.469  1.3524 -1.3730 -0.0402
   64SAPC   C36 5225   7.127   5.208   5.384 -0.3314 -0.4949 -0.2779
   64SAPC   H6X 5226   7.102   5.108   5.426 -2.0367 -0.3667 -0.9108
   64SAPC   H6Y 5227   7.207   5.192   5.308  2.0038 -2.5840  2.4173
   64SAPC   C37 5228   7.000   5.277   5.336 -0.7065 -0.2937 -0.3518
   64SAPC   H7X 5229   7.027   5.383   5.317 -2.9708  0.0243 -2.1561
   64SAPC   H7Y 5230   6.920   5.291   5.411 -0.1586 -0.3944  0.2614
   64SAPC   C38 5231   6.943   5.213   5.208  0.1162 -0.1680 -0.2626
   64SAPC   H8X 5232   6.878   5.127   5.231  0.3295  0.1208  1.5420
   64SAPC   H8Y 5233   7.034   5.183   5.151  2.2862  0.1970  2.7690
   64SAPC   C39 5234   6.878   5.324   5.125  0.1741  0.7773 -0.1407
   64SAPC   H9X 5235   6.939   5.342   5.035  3.2664 -1.9747  1.1941
   64SAPC   H9Y 5236   6.871   5.416   5.188 -4.0379  0.2559  0.4560
   64SAPC  C310 5237   6.734   5.274   5.087  0.0028  0.2565 -0.7922
   64SAPC  H10X 5238   6.689   5.238   5.182  1.3553  1.2636  0.2668
   64SAPC  H10Y 5239   6.738   5.179   5.030 -1.1980 -0.8115  0.8071
   64SAPC  C311 5240   6.647   5.376   5.020 -1.0701 -0.5229 -0.0531
   64SAPC  H11X 5241   6.688   5.476   5.043  1.6930 -2.0639  2.4817
   64SAPC  H11Y 5242   6.543   5.363   5.057 -1.1841 -0.4887 -0.3593
   64SAPC  C312 5243   6.651   5.370   4.862  0.5004 -0.3638  0.4044
   64SAPC  H12X 5244   6.589   5.444   4.807 -2.0169 -1.4327  1.6653
   64SAPC  H12Y 5245   6.614   5.267   4.846  1.2847 -0.2316 -2.9300
   64SAPC  C313 5246   6.787   5.345   4.789  0.1588  0.1314 -1.2743
   64SAPC  H13X 5247   6.834   5.252   4.827  0.4327  0.3907 -0.9682
   64SAPC  H13Y 5248   6.846   5.426   4.837 -1.6374 -0.3400  2.0081
   64SAPC  C314 5249   6.772   5.362   4.641  0.1817 -0.3073  0.7484
   64SAPC  H14X 5250   6.868   5.384   4.589 -0.1484 -2.5721 -0.9599
   64SAPC  H14Y 5251   6.716   5.454   4.613 -1.6211 -1.9596 -1.5131
   64SAPC  C315 5252   6.703   5.250   4.552  0.1152  0.9706 -0.5310
   64SAPC  H15X 5253   6.613   5.221   4.610  0.7741  0.5249  0.2911
   64SAPC  H15Y 5254   6.772   5.165   4.570  2.1381  1.9748 -2.8767
   64SAPC  C316 5255   6.675   5.277   4.399  0.1507 -0.1893 -0.4073
   64SAPC  H16X 5256   6.599   5.358   4.398  0.5886  0.2488  0.4076
   64SAPC  H16Y 5257   6.636   5.183   4.355  2.1550 -1.5550  0.5691
   64SAPC  C317 5258   6.797   5.336   4.324 -0.6939  0.0997  0.4901
   64SAPC  H17X 5259   6.878   5.259   4.326  0.3674  1.1366  3.7039
   64SAPC  H17Y 5260   6.839   5.420   4.384  0.8799 -1.1183  1.1764
   64SAPC  C318 5261   6.768   5.373   4.175  0.5585  0.0616  0.2378
   64SAPC  H18X 5262   6.675   5.434   4.175 -0.0077 -0.6911  2.0937
   64SAPC  H18Y 5263   6.744   5.281   4.117  1.6592 -0.4225  0.5246
   64SAPC  H18Z 5264   6.846   5.437   4.130  0.2267  0.8468  0.7647
   65SAPC     N 5265   0.576   4.655   2.601  0.1920  0.1536  0.2483
   65SAPC   C12 5266   0.572   4.814   2.599 -0.1132  0.2175 -0.4074
   65SAPC  H12A 5267   0.495   4.839   2.528 -1.2512  1.2607  1.1322
   65SAPC  H12B 5268   0.664   4.863   2.571 -0.1487  0.9505  0.6853
   65SAPC   C13 5269   0.606   4.607   2.465 -0.6096  0.1242 -0.4068
   65SAPC  H13A 5270   0.595   4.500   2.465 -1.9319  0.0735  3.6944
   65SAPC  H13B 5271   0.539   4.652   2.393  0.7977 -1.9885 -3.2341
   65SAPC  H13C 5272   0.702   4.644   2.433 -0.7693  2.4113  1.4257
   65SAPC   C14 5273   0.683   4.604   2.686 -0.0944 -0.3554 -0.1438
   65SAPC  H14A 5274   0.694   4.496   2.678  1.6462 -0.3996  1.7441
   65SAPC  H14B 5275   0.777   4.651   2.660 -0.4189  0.7090  0.5760
   65SAPC  H14C 5276   0.672   4.625   2.791  1.4900 -0.2178  0.0219
   65SAPC   C15 5277   0.445   4.591   2.644  0.2627  0.4220  0.2668
   65SAPC  H15A 5278   0.362   4.613   2.578 -1.4519  0.1259  2.1904
   65SAPC  H15B 5279   0.443   4.483   2.642  0.8805  0.3928  0.8425
   65SAPC  H15C 5280   0.408   4.638   2.734  0.8931 -1.0009  1.3135
   65SAPC   C11 5281   0.538   4.880   2.730  0.1552 -0.2855  0.4292
   65SAPC  H11A 5282   0.535   4.989   2.712 -2.4463 -0.3258  0.2688
   65SAPC  H11B 5283   0.622   4.866   2.801  0.8757  0.9565 -0.1487
   65SAPC     P 5284   0.272   4.894   2.710  0.6263 -0.2645  0.1151
   65SAPC   O13 5285   0.277   4.887   2.562 -0.0889 -0.3565 -0.2463
   65SAPC   O14 5286   0.155   4.835   2.781 -0.2347  0.3209  0.4435
   65SAPC   O12 5287   0.406   4.836   2.778 -0.1960  0.1501 -0.4758
   65SAPC   O11 5288   0.273   5.045   2.751  0.4530 -0.0121 -0.0714
   65SAPC    C1 5289   0.320   5.091   2.881 -0.0990  0.4005 -0.9222
   65SAPC    HA 5290   0.301   5.025   2.968 -1.3967  0.5970 -1.0369
   65SAPC    HB 5291   0.430   5.108   2.883  0.0818 -0.7494 -0.1915
   65SAPC    C2 5292   0.266   5.232   2.907  0.4733 -0.0202 -0.6797
   65SAPC    HS 5293   0.228   5.273   2.810 -1.2112  0.1562  0.0226
   65SAPC   O21 5294   0.373   5.314   2.950 -0.0725 -0.2516  0.1701
   65SAPC   C21 5295   0.363   5.441   2.919 -0.8034  0.5229 -0.0334
   65SAPC   O22 5296   0.266   5.502   2.885  0.0410  0.6500 -0.6088
   65SAPC   C22 5297   0.505   5.501   2.934  1.1887  0.5538  0.5671
   65SAPC   H2R 5298   0.529   5.556   2.840 -1.1687  0.2958 -0.2627
   65SAPC   H2S 5299   0.500   5.570   3.021  1.7844  2.4934 -0.8534
   65SAPC    C3 5300   0.153   5.228   3.010  0.3378 -0.0579 -0.0625
   65SAPC    HX 5301   0.209   5.209   3.103  0.7707 -1.4591 -0.5854
   65SAPC    HY 5302   0.081   5.147   2.986 -0.7030  1.0848 -0.9918
   65SAPC   O31 5303   0.078   5.355   3.032  0.6436 -0.6124  0.0706
   65SAPC   C31 5304  -0.022   5.374   2.941  0.6749  0.0978  0.1514
   65SAPC   O32 5305  -0.043   5.299   2.846 -0.3502 -0.4470 -0.4018
   65SAPC   C32 5306  -0.110   5.496   2.977 -0.4028 -0.2508 -0.1787
   65SAPC   H2X 5307  -0.204   5.469   2.925  0.7804 -1.4408 -1.7943
   65SAPC   H2Y 5308  -0.058   5.588   2.944  1.0807 -0.9024  0.2645
   65SAPC   C23 5309   0.614   5.387   2.952  0.3890 -0.2844  0.1757
   65SAPC   H3R 5310   0.572   5.313   3.024  0.6922 -0.8370 -0.2004
   65SAPC   H3S 5311   0.703   5.440   2.990  0.5078  0.0168 -0.5067
   65SAPC   C24 5312   0.652   5.314   2.822  0.4073  0.2105  0.2969
   65SAPC   H4R 5313   0.553   5.284   2.780  0.7217  0.5252 -0.6942
   65SAPC   H4S 5314   0.700   5.215   2.840  2.8078  1.2458 -0.1898
   65SAPC   C25 5315   0.737   5.406   2.738  0.3791 -0.0297  0.7439
   65SAPC   H5R 5316   0.700   5.466   2.653  0.6127  1.0722  1.4032
   65SAPC   C26 5317   0.868   5.423   2.751  0.6328  1.2840  0.4187
   65SAPC   H6R 5318   0.928   5.482   2.681 -0.0832  0.1449 -1.2035
   65SAPC   C27 5319   0.959   5.363   2.856 -0.5681 -0.0744  0.2884
   65SAPC   H7R 5320   0.963   5.252   2.859  2.0111 -0.0287  1.5578
   65SAPC   H7S 5321   0.914   5.370   2.957 -0.9644 -0.7766  0.1625
   65SAPC   C28 5322   1.103   5.412   2.860  0.1506  0.3230  0.5998
   65SAPC   H8R 5323   1.142   5.466   2.772  1.9844 -1.7120  0.0934
   65SAPC   C29 5324   1.185   5.396   2.962 -0.4346 -0.3853  0.4729
   65SAPC   H9R 5325   1.290   5.427   2.951 -1.0320  1.1478 -1.3698
   65SAPC  C210 5326   1.163   5.310   3.086  0.0393 -0.4251 -0.1053
   65SAPC  H10R 5327   1.250   5.242   3.085  0.2867 -0.1170 -1.4120
   65SAPC  H10S 5328   1.079   5.239   3.072 -0.4063 -0.6729  3.1484
   65SAPC  C211 5329   1.154   5.379   3.224  0.2254  0.7529  0.5213
   65SAPC  H11R 5330   1.109   5.479   3.224 -4.0061 -0.9511  1.8622
   65SAPC  C212 5331   1.171   5.326   3.343 -0.2095  0.3205 -0.1430
   65SAPC  H12R 5332   1.156   5.379   3.438 -1.0254 -2.0881  1.1386
   65SAPC  C213 5333   1.181   5.177   3.370  0.0884 -0.0690  0.4788
   65SAPC  H13R 5334   1.208   5.167   3.478 -0.1535 -3.0064  0.3591
   65SAPC  H13S 5335   1.262   5.129   3.312 -0.2835  0.5668 -0.5896
   65SAPC  C214 5336   1.052   5.095   3.354  0.1255  0.0794  0.1404
   65SAPC  H14R 5337   1.039   5.078   3.247 -0.1591 -1.6556  0.4222
   65SAPC  C215 5338   0.968   5.049   3.451 -0.1464  0.5929  0.5828
   65SAPC  H15R 5339   0.870   5.011   3.418 -1.5342  4.8374 -0.9398
   65SAPC  C216 5340   0.985   5.057   3.598 -0.3097  0.2896 -0.2598
   65SAPC  H16R 5341   0.885   5.065   3.645 -0.3994  0.5494 -0.4879
   65SAPC  H16S 5342   1.037   5.151   3.626  1.3851 -1.3696  2.5283
   65SAPC  C217 5343   1.084   4.966   3.663 -0.0779 -0.1674  0.5183
   65SAPC  H17R 5344   1.187   4.965   3.620  0.0239 -2.1483  0.7151
   65SAPC  H17S 5345   1.060   4.858   3.657 -0.0462 -0.0805 -2.1349
   65SAPC  C218 5346   1.078   4.982   3.819  0.1286 -0.4786 -0.0177
   65SAPC  H18R 5347   0.973   4.992   3.854  0.6819  1.9675  1.1644
   65SAPC  H18S 5348   1.125   5.079   3.849  1.5124 -0.7977 -1.0307
   65SAPC  C219 5349   1.142   4.862   3.892  0.8263  0.1007  0.6637
   65SAPC  H19R 5350   1.245   4.865   3.850  0.2015 -1.3446 -1.0694
   65SAPC  H19S 5351   1.095   4.767   3.860  2.9023 -0.3102 -1.4716
   65SAPC  C220 5352   1.129   4.868   4.042 -0.3729 -0.1492 -0.1128
   65SAPC  H20R 5353   1.166   4.965   4.081  2.4300 -1.6490  1.2425
   65SAPC  H20S 5354   1.196   4.790   4.084 -1.1740 -2.5978 -2.9952
   65SAPC  H20T 5355   1.023   4.852   4.069 -0.1589 -0.0420  0.8409
   65SAPC   C33 5356  -0.136   5.524   3.126  0.0881  0.4304  0.1419
   65SAPC   H3X 5357  -0.044   5.553   3.181  0.2649  2.5842 -1.1568
   65SAPC   H3Y 5358  -0.175   5.430   3.170 -1.8406  1.7944  1.4651
   65SAPC   C34 5359  -0.243   5.626   3.152 -0.6022  0.4723  0.2347
   65SAPC   H4X 5360  -0.332   5.581   3.105 -0.7091 -0.3045  1.1615
   65SAPC   H4Y 5361  -0.215   5.717   3.094  0.1920 -0.1445 -0.3749
   65SAPC   C35 5362  -0.274   5.648   3.301 -0.5054  0.0449 -0.2169
   65SAPC   H5X 5363  -0.184   5.665   3.364 -0.9915 -1.3669  0.9171
   65SAPC   H5Y 5364  -0.327   5.559   3.341  2.0198 -0.2654  2.8012
   65SAPC   C36 5365  -0.371   5.763   3.322 -0.1428  0.0799  0.3324
   65SAPC   H6X 5366  -0.398   5.753   3.429  1.3091 -0.2295  0.6924
   65SAPC   H6Y 5367  -0.459   5.744   3.257 -0.2776  0.5487  0.3785
   65SAPC   C37 5368  -0.309   5.898   3.297  0.3395 -0.3127 -0.6498
   65SAPC   H7X 5369  -0.387   5.976   3.305 -1.1001 -1.9227  3.0555
   65SAPC   H7Y 5370  -0.280   5.901   3.189 -2.8327  0.2182 -1.5769
   65SAPC   C38 5371  -0.191   5.931   3.391  0.4577 -0.1383  0.2670
   65SAPC   H8X 5372  -0.114   5.858   3.358 -0.6713 -0.8159 -1.0035
   65SAPC   H8Y 5373  -0.227   5.900   3.492  1.6934 -2.0847  0.1613
   65SAPC   C39 5374  -0.141   6.073   3.368  0.2977 -0.1920 -0.0659
   65SAPC   H9X 5375  -0.219   6.145   3.401  0.1360 -0.3648 -0.0712
   65SAPC   H9Y 5376  -0.113   6.080   3.260  1.1477 -0.3065  0.1413
   65SAPC  C310 5377  -0.017   6.102   3.450 -0.1350 -0.2432  0.2359
   65SAPC  H10X 5378   0.018   6.206   3.434 -0.7190  0.5384  3.4356
   65SAPC  H10Y 5379   0.063   6.042   3.403 -1.3832 -0.1331 -2.2168
   65SAPC  C311 5380  -0.038   6.090   3.612 -0.6529 -0.8702  0.3449
   65SAPC  H11X 5381  -0.123   6.022   3.636 -1.0415 -0.1320  1.0990
   65SAPC  H11Y 5382  -0.073   6.192   3.641 -0.8198 -0.9030  0.2631
   65SAPC  C312 5383   0.093   6.067   3.682 -0.4040  0.2699  0.0223
   65SAPC  H12X 5384   0.171   6.145   3.669  1.6298 -1.6422  0.1342
   65SAPC  H12Y 5385   0.127   5.971   3.638 -1.3187  0.9485 -2.3215
   65SAPC  C313 5386   0.088   6.048   3.830 -0.1398  0.0398  0.2340
   65SAPC  H13X 5387   0.041   6.145   3.854  0.3191  0.0364  1.2094
   65SAPC  H13Y 5388   0.191   6.045   3.873 -0.5102  0.8199  1.2231
   65SAPC  C314 5389   0.018   5.923   3.886 -0.3850 -0.4569 -0.3189
   65SAPC  H14X 5390   0.066   5.828   3.852  0.4794 -0.8414  1.8421
   65SAPC  H14Y 5391  -0.078   5.921   3.830 -1.3051 -1.2300  1.2325
   65SAPC  C315 5392   0.008   5.915   4.039 -0.6732 -0.3212  0.3837
   65SAPC  H15X 5393   0.112   5.894   4.072 -0.9330  0.4137  1.7807
   65SAPC  H15Y 5394  -0.055   5.831   4.075  2.0717 -2.1776  1.0955
   65SAPC  C316 5395  -0.047   6.047   4.098  0.1831 -0.1587 -0.4038
   65SAPC  H16X 5396  -0.139   6.060   4.037  0.6099 -0.4784 -1.1176
   65SAPC  H16Y 5397   0.013   6.138   4.077 -0.5709  0.4130 -0.1683
   65SAPC  C317 5398  -0.079   6.029   4.237  0.1638  0.2935 -0.9582
   65SAPC  H17X 5399  -0.165   5.962   4.256 -1.0833  2.1135  0.1565
   65SAPC  H17Y 5400  -0.123   6.123   4.277 -0.8050 -0.5540  0.0317
   65SAPC  C318 5401   0.031   5.982   4.336 -0.7446 -1.7789 -0.7628
   65SAPC  H18X 5402   0.067   5.879   4.316  0.7585 -1.2443 -0.9880
   65SAPC  H18Y 5403  -0.003   6.000   4.440  1.2446 -0.9775 -0.2007
   65SAPC  H18Z 5404   0.119   6.050   4.325 -2.1841  0.8281  2.1797
   66SAPC     N 5405   3.884   4.988   2.701 -0.6792 -0.5440 -0.3701
   66SAPC   C12 5406   3.898   4.850   2.759 -0.1613 -0.2613  0.3250
   66SAPC  H12A 5407   3.948   4.787   2.687 -1.3683 -0.7694 -0.1008
   66SAPC  H12B 5408   3.796   4.817   2.771 -0.4662  0.6174  0.2199
   66SAPC   C13 5409   4.022   5.037   2.665  0.2754  0.1728  0.2829
   66SAPC  H13A 5410   4.024   5.133   2.616 -2.8309  0.6560  0.9139
   66SAPC  H13B 5411   4.090   5.025   2.748  1.8096  0.0346 -0.9382
   66SAPC  H13C 5412   4.067   4.975   2.589  0.7864 -1.0279  1.5058
   66SAPC   C14 5413   3.796   4.986   2.576 -0.6795 -0.5320  0.2212
   66SAPC  H14A 5414   3.829   4.931   2.489  0.5111  1.1941 -0.4664
   66SAPC  H14B 5415   3.701   4.938   2.596  0.3054 -1.2648  3.8075
   66SAPC  H14C 5416   3.775   5.086   2.543  1.5878 -0.4208 -1.1177
   66SAPC   C15 5417   3.830   5.081   2.798 -0.0496 -0.0068  0.3065
   66SAPC  H15A 5418   3.739   5.036   2.834 -0.8152  0.1677 -1.3152
   66SAPC  H15B 5419   3.899   5.105   2.877 -1.1917  0.4081  1.1849
   66SAPC  H15C 5420   3.804   5.173   2.748 -1.0547  0.6730  2.0299
   66SAPC   C11 5421   3.976   4.829   2.894  0.1543 -0.2170  0.3619
   66SAPC  H11A 5422   3.975   4.729   2.943  3.3545  0.4088  1.9825
   66SAPC  H11B 5423   3.928   4.884   2.978  1.8464  1.1766  0.4821
   66SAPC     P 5424   4.223   4.790   2.816  0.3592 -0.0902 -0.1708
   66SAPC   O13 5425   4.170   4.700   2.707 -0.0964  0.0464  0.6181
   66SAPC   O14 5426   4.341   4.877   2.778 -0.4350  0.5890  0.3661
   66SAPC   O12 5427   4.105   4.871   2.880 -0.3078  0.6020  0.0976
   66SAPC   O11 5428   4.265   4.703   2.935 -0.3358  0.0625  0.3160
   66SAPC    C1 5429   4.365   4.747   3.029 -0.2180 -0.9157 -0.3881
   66SAPC    HA 5430   4.465   4.719   2.989  0.6876  0.5386  0.7737
   66SAPC    HB 5431   4.369   4.858   3.037  3.2043 -1.0109  0.9904
   66SAPC    C2 5432   4.347   4.677   3.168  0.2813 -0.3126  0.6028
   66SAPC    HS 5433   4.339   4.568   3.146  0.7137 -0.3740  0.7582
   66SAPC   O21 5434   4.233   4.742   3.231  0.6855  0.5455 -0.0478
   66SAPC   C21 5435   4.196   4.698   3.349 -0.3710 -0.4770 -0.2141
   66SAPC   O22 5436   4.241   4.594   3.396 -0.0499  0.5340 -0.0165
   66SAPC   C22 5437   4.083   4.788   3.407 -0.1666 -0.3818  0.1500
   66SAPC   H2R 5438   4.042   4.861   3.334 -0.0197 -1.0288 -0.5996
   66SAPC   H2S 5439   4.007   4.714   3.442 -1.4577  0.9402  0.2508
   66SAPC    C3 5440   4.479   4.690   3.254  0.5124  0.4299  0.3343
   66SAPC    HX 5441   4.552   4.642   3.186 -0.7909 -1.7111  0.3492
   66SAPC    HY 5442   4.480   4.628   3.345  0.1889 -0.1149 -0.0259
   66SAPC   O31 5443   4.512   4.827   3.287  0.2124  0.4036  0.1117
   66SAPC   C31 5444   4.609   4.885   3.233 -0.2039 -0.2419  0.2531
   66SAPC   O32 5445   4.689   4.839   3.149 -0.2584  0.0439 -0.4012
   66SAPC   C32 5446   4.613   5.027   3.285  0.5052 -0.0787 -0.5057
   66SAPC   H2X 5447   4.509   5.056   3.310 -0.3102  0.0907 -3.7350
   66SAPC   H2Y 5448   4.660   5.092   3.208  1.6595  1.2913  1.2774
   66SAPC   C23 5449   4.139   4.860   3.531 -0.3924 -0.0638 -1.1588
   66SAPC   H3R 5450   4.063   4.934   3.564  0.9141 -0.8384  4.5420
   66SAPC   H3S 5451   4.227   4.925   3.512 -0.2023 -0.0119 -0.1542
   66SAPC   C24 5452   4.169   4.765   3.650  0.5335 -0.0148  0.4589
   66SAPC   H4R 5453   4.254   4.699   3.621  0.0408 -0.6654  0.5016
   66SAPC   H4S 5454   4.073   4.710   3.655 -0.6623  1.9806  0.6788
   66SAPC   C25 5455   4.203   4.833   3.779  0.0054  0.8144 -0.7133
   66SAPC   H5R 5456   4.306   4.870   3.776 -1.2076  4.6353 -0.3318
   66SAPC   C26 5457   4.130   4.840   3.892  0.1209  0.0591 -0.7609
   66SAPC   H6R 5458   4.170   4.897   3.978 -2.0733  2.0997 -1.0039
   66SAPC   C27 5459   3.992   4.775   3.911 -0.4292  0.2503 -0.3806
   66SAPC   H7R 5460   4.011   4.666   3.895  0.2561  0.6547 -2.7728
   66SAPC   H7S 5461   3.923   4.803   3.828 -1.1628 -0.0830  0.1053
   66SAPC   C28 5462   3.925   4.808   4.038 -0.4316  0.2635 -0.5423
   66SAPC   H8R 5463   3.863   4.898   4.036  0.8474  1.1611 -1.7748
   66SAPC   C29 5464   3.946   4.751   4.161 -0.6879 -0.3771  0.1637
   66SAPC   H9R 5465   3.899   4.792   4.252  1.1196  1.8273  0.1972
   66SAPC  C210 5466   4.048   4.643   4.199 -0.0980  0.8631 -1.1067
   66SAPC  H10R 5467   4.082   4.588   4.108 -1.0251 -1.0974 -0.3268
   66SAPC  H10S 5468   3.998   4.566   4.262  1.0855  0.1644 -0.9870
   66SAPC  C211 5469   4.163   4.709   4.268  0.3286 -0.8840 -0.0298
   66SAPC  H11R 5470   4.219   4.761   4.188 -1.0383 -0.3483 -0.6737
   66SAPC  C212 5471   4.210   4.716   4.395  1.1404 -0.8918  0.2785
   66SAPC  H12R 5472   4.306   4.766   4.413  1.1566 -0.1570 -1.5260
   66SAPC  C213 5473   4.144   4.645   4.507 -0.3445 -0.2208  1.1037
   66SAPC  H13R 5474   4.035   4.661   4.495 -0.2944 -0.5363  0.1303
   66SAPC  H13S 5475   4.170   4.705   4.597  2.0942  0.0093  0.3160
   66SAPC  C214 5476   4.174   4.499   4.508 -0.0262 -0.3620  0.1224
   66SAPC  H14R 5477   4.206   4.453   4.414 -0.0681 -1.4581  0.6301
   66SAPC  C215 5478   4.201   4.429   4.615 -0.5162 -0.1027 -0.4968
   66SAPC  H15R 5479   4.214   4.321   4.594 -1.8344  0.2952 -4.2550
   66SAPC  C216 5480   4.210   4.472   4.760  1.0266  0.5176 -0.1956
   66SAPC  H16R 5481   4.156   4.567   4.780  0.5482  0.0949  0.5620
   66SAPC  H16S 5482   4.319   4.480   4.778  1.1894  1.0507 -1.3762
   66SAPC  C217 5483   4.156   4.363   4.857  0.0637 -0.3419  0.0716
   66SAPC  H17R 5484   4.202   4.267   4.827 -0.7877 -0.8114  0.2409
   66SAPC  H17S 5485   4.050   4.355   4.826  0.8180  0.0413 -2.8989
   66SAPC  C218 5486   4.166   4.395   5.005 -0.1691 -0.1923 -0.0763
   66SAPC  H18R 5487   4.131   4.500   5.020  2.4201  0.9879 -1.6357
   66SAPC  H18S 5488   4.275   4.387   5.020 -0.5023  0.0281  3.1217
   66SAPC  C219 5489   4.100   4.300   5.104  0.7011  0.2952  0.0039
   66SAPC  H19R 5490   3.989   4.309   5.101  0.4298 -2.3563 -1.0396
   66SAPC  H19S 5491   4.141   4.331   5.202  1.4481  0.1754 -0.2629
   66SAPC  C220 5492   4.133   4.146   5.090  0.0472 -0.6130 -0.5042
   66SAPC  H20R 5493   4.242   4.125   5.094 -0.2460 -3.2557 -2.6133
   66SAPC  H20S 5494   4.076   4.112   5.000 -3.8966 -2.3876  2.3695
   66SAPC  H20T 5495   4.089   4.099   5.181  0.5927  0.1750  0.1765
   66SAPC   C33 5496   4.686   5.042   3.424 -0.4444  0.0664  0.3530
   66SAPC   H3X 5497   4.688   5.151   3.441 -2.6921  0.5058 -1.6164
   66SAPC   H3Y 5498   4.794   5.020   3.416 -0.0556  0.9518  2.4836
   66SAPC   C34 5499   4.622   4.960   3.538  0.2682 -0.2576  0.0532
   66SAPC   H4X 5500   4.646   4.855   3.514  0.1287  0.1476 -2.0095
   66SAPC   H4Y 5501   4.511   4.973   3.535  0.0655 -1.5452  0.9762
   66SAPC   C35 5502   4.664   4.999   3.680  0.3324  0.0090  0.0252
   66SAPC   H5X 5503   4.668   5.108   3.700 -0.8648  0.0661  0.0662
   66SAPC   H5Y 5504   4.760   4.948   3.700  0.5853 -0.3864 -1.9463
   66SAPC   C36 5505   4.568   4.932   3.788  0.2593  0.1685  0.3334
   66SAPC   H6X 5506   4.515   4.851   3.734 -1.1693  1.4060 -0.1760
   66SAPC   H6Y 5507   4.483   5.000   3.808  0.3256  1.0390 -1.9530
   66SAPC   C37 5508   4.648   4.896   3.914  0.1759 -0.6610 -0.0706
   66SAPC   H7X 5509   4.568   4.852   3.977 -2.2325  0.7555 -1.9340
   66SAPC   H7Y 5510   4.705   4.985   3.950 -3.0839  1.7913 -0.4667
   66SAPC   C38 5511   4.753   4.785   3.889 -0.2390  0.8742 -0.3787
   66SAPC   H8X 5512   4.849   4.831   3.857  0.8989 -0.4141  0.9950
   66SAPC   H8Y 5513   4.717   4.723   3.804 -0.8559  1.3804 -0.4923
   66SAPC   C39 5514   4.770   4.693   4.012 -0.0297  0.8428 -0.1735
   66SAPC   H9X 5515   4.709   4.602   4.004 -0.4039  1.2342 -2.5444
   66SAPC   H9Y 5516   4.748   4.747   4.107  2.3960 -1.9022  2.1238
   66SAPC  C310 5517   4.917   4.636   4.028  0.6516 -0.1583 -0.7267
   66SAPC  H10X 5518   4.945   4.598   3.927 -1.4505  1.2051 -1.8803
   66SAPC  H10Y 5519   4.920   4.551   4.099  1.8176  0.4345 -0.0381
   66SAPC  C311 5520   5.013   4.737   4.078 -0.1413 -0.1644  0.6991
   66SAPC  H11X 5521   4.979   4.802   4.162 -1.5850  0.9611 -0.7001
   66SAPC  H11Y 5522   5.034   4.801   3.990 -0.0175 -0.9157  0.1845
   66SAPC  C312 5523   5.145   4.672   4.127 -0.0811 -0.0411 -0.9097
   66SAPC  H12X 5524   5.155   4.591   4.052 -2.7089 -1.0734 -0.2284
   66SAPC  H12Y 5525   5.131   4.625   4.226  2.0409 -0.2085 -0.6378
   66SAPC  C313 5526   5.263   4.772   4.140 -0.6135 -0.1724  0.0031
   66SAPC  H13X 5527   5.232   4.844   4.220 -0.3311 -1.1779  1.0426
   66SAPC  H13Y 5528   5.274   4.831   4.047  1.8410 -0.6651 -0.0903
   66SAPC  C314 5529   5.395   4.710   4.178 -0.0031 -0.3598  0.7209
   66SAPC  H14X 5530   5.417   4.626   4.108 -0.6239 -0.1675  0.2816
   66SAPC  H14Y 5531   5.389   4.675   4.283 -0.7384 -1.0850  0.4459
   66SAPC  C315 5532   5.507   4.814   4.181  0.6278 -0.0618 -0.1517
   66SAPC  H15X 5533   5.487   4.905   4.241  1.0490 -0.3444  0.4307
   66SAPC  H15Y 5534   5.532   4.840   4.076  1.7662  0.7653  0.3061
   66SAPC  C316 5535   5.638   4.766   4.245 -0.5696  0.3626 -0.0132
   66SAPC  H16X 5536   5.622   4.707   4.338  0.5301  0.5135  0.2849
   66SAPC  H16Y 5537   5.697   4.855   4.276  0.1643 -0.4970  1.1833
   66SAPC  C317 5538   5.735   4.690   4.152 -0.3721  0.4494 -0.1231
   66SAPC  H17X 5539   5.818   4.658   4.217  1.6800  0.3958 -2.6015
   66SAPC  H17Y 5540   5.769   4.760   4.073  1.1172 -0.2523 -0.1308
   66SAPC  C318 5541   5.678   4.557   4.084 -0.2087 -0.4966 -0.1938
   66SAPC  H18X 5542   5.760   4.500   4.036 -0.5067 -1.4827  0.4407
   66SAPC  H18Y 5543   5.599   4.583   4.010  0.3905  2.0508 -0.0307
   66SAPC  H18Z 5544   5.639   4.499   4.170  0.8518  0.8854  1.2641
   67SAPC     N 5545   3.380   6.837   6.564  0.0847  0.2401 -0.6830
   67SAPC   C12 5546   3.395   6.903   6.432 -0.2382 -0.1484 -0.4669
   67SAPC  H12A 5547   3.423   6.828   6.359 -0.6138  0.3411 -1.1219
   67SAPC  H12B 5548   3.479   6.971   6.436 -1.5845  1.6440 -1.4470
   67SAPC   C13 5549   3.300   6.922   6.659  0.3143  0.4865  0.2385
   67SAPC  H13A 5550   3.337   7.024   6.665  0.4397  0.4724 -0.2730
   67SAPC  H13B 5551   3.205   6.944   6.612 -1.1472  0.5741  2.9841
   67SAPC  H13C 5552   3.290   6.879   6.758 -3.2227 -0.5182 -0.4207
   67SAPC   C14 5553   3.302   6.710   6.549 -0.6752 -0.4221  0.0557
   67SAPC  H14A 5554   3.334   6.654   6.463 -0.1477  0.9986 -0.6977
   67SAPC  H14B 5555   3.317   6.640   6.631  1.5993 -0.5597 -0.3960
   67SAPC  H14C 5556   3.197   6.734   6.552 -0.0158  2.9750  2.7838
   67SAPC   C15 5557   3.507   6.799   6.621 -0.6463  0.6134  0.1414
   67SAPC  H15A 5558   3.501   6.766   6.724  1.8118 -0.9893 -0.1521
   67SAPC  H15B 5559   3.552   6.716   6.569 -1.7866  0.5245 -0.7521
   67SAPC  H15C 5560   3.571   6.885   6.606 -0.8293  0.8500  0.6893
   67SAPC   C11 5561   3.274   6.971   6.362 -0.0299  0.6376 -0.9414
   67SAPC  H11A 5562   3.308   7.030   6.274  0.6309  2.2488  0.3319
   67SAPC  H11B 5563   3.225   7.050   6.423 -0.1976  2.7348 -3.6201
   67SAPC     P 5564   3.030   6.887   6.377  0.1839 -0.1904 -0.0121
   67SAPC   O13 5565   3.023   6.864   6.523 -0.1102 -0.6965 -0.3735
   67SAPC   O14 5566   2.970   7.012   6.321  0.1426 -0.7180  0.1505
   67SAPC   O12 5567   3.180   6.873   6.326 -0.3063  0.1088 -0.3982
   67SAPC   O11 5568   2.950   6.765   6.319  0.2548  0.4515  0.1604
   67SAPC    C1 5569   2.832   6.712   6.381 -0.3335  0.8707 -0.0122
   67SAPC    HA 5570   2.854   6.681   6.485 -0.6105  0.2559 -0.1298
   67SAPC    HB 5571   2.752   6.789   6.388 -1.4585 -0.3659  1.5337
   67SAPC    C2 5572   2.786   6.600   6.285 -0.7278 -0.1397  0.3106
   67SAPC    HS 5573   2.860   6.518   6.294 -0.2770  0.1727 -0.4241
   67SAPC   O21 5574   2.774   6.646   6.153  0.2231  0.1119 -0.4668
   67SAPC   C21 5575   2.866   6.603   6.069 -0.3764 -0.1689 -0.2101
   67SAPC   O22 5576   2.962   6.526   6.093  0.2929  0.0411  0.3984
   67SAPC   C22 5577   2.839   6.664   5.926 -0.2221 -0.3040  0.4982
   67SAPC   H2R 5578   2.745   6.615   5.894  0.1128  0.2459 -1.4329
   67SAPC   H2S 5579   2.832   6.774   5.944  2.3459 -0.0102  0.0075
   67SAPC    C3 5580   2.654   6.540   6.326  0.0963  0.0646 -0.2659
   67SAPC    HX 5581   2.575   6.618   6.318  2.0560  2.1661  0.1163
   67SAPC    HY 5582   2.641   6.520   6.435 -0.3579 -0.5984 -0.4358
   67SAPC   O31 5583   2.623   6.423   6.247 -0.1255 -0.2954 -0.3341
   67SAPC   C31 5584   2.687   6.317   6.291  0.3042 -0.4225 -0.6721
   67SAPC   O32 5585   2.744   6.306   6.399 -0.4491  0.0541 -0.2070
   67SAPC   C32 5586   2.687   6.203   6.185  0.2098  0.1251  0.4073
   67SAPC   H2X 5587   2.582   6.184   6.154  0.0907  0.8838  0.3367
   67SAPC   H2Y 5588   2.731   6.117   6.241 -0.9643 -0.4588  0.4765
   67SAPC   C23 5589   2.956   6.628   5.834 -0.7920 -0.1352  0.3227
   67SAPC   H3R 5590   2.964   6.518   5.842 -0.6866 -0.2118 -0.6730
   67SAPC   H3S 5591   3.052   6.678   5.861  0.8699 -1.8206 -1.9505
   67SAPC   C24 5592   2.937   6.653   5.680  0.3513  0.5508 -0.6996
   67SAPC   H4R 5593   2.839   6.607   5.657 -0.2690  1.0876  0.7245
   67SAPC   H4S 5594   3.017   6.611   5.616  0.9173 -0.8123  0.8066
   67SAPC   C25 5595   2.929   6.794   5.664  0.3535 -0.4856 -0.2467
   67SAPC   H5R 5596   2.984   6.850   5.741 -0.7427 -3.3676  2.8568
   67SAPC   C26 5597   2.845   6.864   5.582 -0.6058  1.0503  0.4762
   67SAPC   H6R 5598   2.852   6.974   5.592  0.4317  0.9903  0.5308
   67SAPC   C27 5599   2.742   6.817   5.481 -0.6325  0.2271  0.0516
   67SAPC   H7R 5600   2.743   6.706   5.482 -1.3334  0.2153 -0.2869
   67SAPC   H7S 5601   2.792   6.845   5.386  1.5257 -3.1353  0.0124
   67SAPC   C28 5602   2.602   6.871   5.499  0.5040  0.5929 -0.3207
   67SAPC   H8R 5603   2.569   6.859   5.603  2.7419 -2.0401  0.2311
   67SAPC   C29 5604   2.520   6.925   5.406  0.3576  0.1622 -0.2584
   67SAPC   H9R 5605   2.416   6.941   5.441  1.1210 -0.1731  2.3959
   67SAPC  C210 5606   2.554   6.974   5.268  0.3579  0.3044 -0.2436
   67SAPC  H10R 5607   2.662   6.996   5.256  0.6859  0.6405  2.5925
   67SAPC  H10S 5608   2.528   7.081   5.249  1.0527  0.5518  0.1453
   67SAPC  C211 5609   2.497   6.894   5.151 -0.6733  0.6338  0.1799
   67SAPC  H11R 5610   2.398   6.919   5.112 -1.3780 -1.2264  0.6761
   67SAPC  C212 5611   2.555   6.788   5.089  0.3990 -0.0726  0.1973
   67SAPC  H12R 5612   2.501   6.732   5.011 -0.8066  0.0611  0.9285
   67SAPC  C213 5613   2.682   6.715   5.132 -0.0341 -0.2795  0.3031
   67SAPC  H13R 5614   2.650   6.629   5.193 -0.4125  0.5168  1.2572
   67SAPC  H13S 5615   2.752   6.779   5.190 -1.1574  1.3694 -0.0644
   67SAPC  C214 5616   2.759   6.671   5.006 -0.2993  0.8142 -0.6864
   67SAPC  H14R 5617   2.702   6.620   4.927 -2.5011 -2.1700  2.4948
   67SAPC  C215 5618   2.886   6.693   4.978  0.1054 -0.4605  0.0814
   67SAPC  H15R 5619   2.927   6.662   4.880 -1.4848 -0.1297 -0.7264
   67SAPC  C216 5620   2.990   6.756   5.070  0.3047  0.7669  0.4806
   67SAPC  H16R 5621   2.955   6.843   5.130  2.2568  0.9317  1.4667
   67SAPC  H16S 5622   3.087   6.786   5.025 -0.3796  0.3466 -1.3714
   67SAPC  C217 5623   3.034   6.657   5.187  0.5956 -0.2890  0.4842
   67SAPC  H17R 5624   2.948   6.612   5.243  0.8563 -0.1943  0.9696
   67SAPC  H17S 5625   3.087   6.719   5.262  0.7169  1.0460 -0.6650
   67SAPC  C218 5626   3.112   6.530   5.154 -0.3625  0.4565  0.5846
   67SAPC  H18R 5627   3.215   6.552   5.121 -0.4101 -0.3198 -0.1456
   67SAPC  H18S 5628   3.070   6.478   5.064  2.0328 -0.4314 -0.0801
   67SAPC  C219 5629   3.128   6.430   5.268 -0.7193 -0.0859  0.7160
   67SAPC  H19R 5630   3.033   6.417   5.324 -0.3673  0.0479  1.3566
   67SAPC  H19S 5631   3.203   6.464   5.343 -0.2654 -1.1260  0.7463
   67SAPC  C220 5632   3.176   6.292   5.222  0.0298  0.2547 -0.4716
   67SAPC  H20R 5633   3.285   6.287   5.202 -0.1872 -0.1100 -1.6296
   67SAPC  H20S 5634   3.123   6.233   5.144  1.7375 -0.1151 -1.4212
   67SAPC  H20T 5635   3.181   6.231   5.315 -1.1936  1.3756  0.3706
   67SAPC   C33 5636   2.751   6.236   6.051  0.2000 -0.2370 -0.0215
   67SAPC   H3X 5637   2.861   6.243   6.067  0.3609  2.1811 -1.7078
   67SAPC   H3Y 5638   2.709   6.332   6.018 -3.6659 -1.8143 -0.1869
   67SAPC   C34 5639   2.712   6.126   5.947  0.2209 -0.2261 -0.2796
   67SAPC   H4X 5640   2.602   6.125   5.933  0.2559  1.2093 -0.7685
   67SAPC   H4Y 5641   2.738   6.023   5.979  0.1751 -0.3554 -0.6586
   67SAPC   C35 5642   2.769   6.158   5.807 -0.8564 -0.4084 -0.0278
   67SAPC   H5X 5643   2.878   6.135   5.806 -1.1281 -2.1812  2.5439
   67SAPC   H5Y 5644   2.775   6.266   5.780  2.6389 -0.7611 -1.2079
   67SAPC   C36 5645   2.689   6.089   5.691 -0.2518  0.3903 -0.4762
   67SAPC   H6X 5646   2.585   6.116   5.717 -0.9605 -2.5367  0.0967
   67SAPC   H6Y 5647   2.686   5.978   5.690 -1.8715  0.4091 -0.3365
   67SAPC   C37 5648   2.713   6.136   5.547 -0.2152 -0.5724 -0.0116
   67SAPC   H7X 5649   2.662   6.067   5.477 -1.7279  0.8100 -0.3366
   67SAPC   H7Y 5650   2.816   6.109   5.517 -0.2309 -1.2954  0.5663
   67SAPC   C38 5651   2.700   6.286   5.511 -0.1207 -0.1971  0.3591
   67SAPC   H8X 5652   2.750   6.349   5.588  3.5626 -1.2699 -0.9386
   67SAPC   H8Y 5653   2.591   6.307   5.512  0.4246  3.2478  1.4504
   67SAPC   C39 5654   2.763   6.323   5.376 -0.0686 -0.0219 -0.3048
   67SAPC   H9X 5655   2.870   6.292   5.374 -0.5763 -2.1050  1.5716
   67SAPC   H9Y 5656   2.758   6.432   5.356  0.6996  0.2757  1.0139
   67SAPC  C310 5657   2.705   6.261   5.250  1.3693 -0.0461  0.4183
   67SAPC  H10X 5658   2.594   6.272   5.250  1.4723  1.2634 -0.9493
   67SAPC  H10Y 5659   2.719   6.152   5.267 -0.1468 -0.6564 -1.7763
   67SAPC  C311 5660   2.774   6.299   5.120 -0.0764 -1.0014  0.2937
   67SAPC  H11X 5661   2.880   6.269   5.134  0.7529 -0.1146 -3.2900
   67SAPC  H11Y 5662   2.773   6.406   5.091 -2.4039 -1.2841 -0.9705
   67SAPC  C312 5663   2.698   6.225   5.001  0.0859 -0.4498  0.6061
   67SAPC  H12X 5664   2.589   6.246   4.999 -0.2456 -1.9124  1.5456
   67SAPC  H12Y 5665   2.712   6.115   5.009 -0.4481 -0.4826  1.2204
   67SAPC  C313 5666   2.748   6.255   4.857 -0.7980 -0.1518 -0.4072
   67SAPC  H13X 5667   2.698   6.348   4.823  0.3930 -0.1618 -2.2757
   67SAPC  H13Y 5668   2.714   6.169   4.795 -1.6041  0.8801 -1.4398
   67SAPC  C314 5669   2.900   6.266   4.850 -0.0405 -0.1028  0.1081
   67SAPC  H14X 5670   2.934   6.179   4.910  1.6883  1.6133  1.7308
   67SAPC  H14Y 5671   2.942   6.358   4.895 -0.2986  0.3487 -0.5633
   67SAPC  C315 5672   2.960   6.259   4.712 -0.3936 -0.1080 -0.0325
   67SAPC  H15X 5673   3.071   6.252   4.724 -0.3312  0.4221 -0.2885
   67SAPC  H15Y 5674   2.940   6.348   4.648  0.8845 -0.1262 -0.5036
   67SAPC  C316 5675   2.911   6.144   4.623 -0.0528  0.0494  0.2559
   67SAPC  H16X 5676   2.811   6.178   4.588 -0.1500 -2.0009 -1.7005
   67SAPC  H16Y 5677   2.912   6.046   4.675  0.7284 -1.7772 -2.9108
   67SAPC  C317 5678   2.999   6.131   4.496 -0.4025  0.0280 -0.0577
   67SAPC  H17X 5679   3.047   6.229   4.474  0.1372 -0.7347 -2.6412
   67SAPC  H17Y 5680   2.938   6.101   4.409  2.1295  0.1574 -1.9971
   67SAPC  C318 5681   3.121   6.034   4.511 -0.0403  0.0828  0.5799
   67SAPC  H18X 5682   3.084   5.934   4.542 -0.9709 -0.3726 -1.7868
   67SAPC  H18Y 5683   3.190   6.071   4.590 -1.3144  1.1301  1.2193
   67SAPC  H18Z 5684   3.181   6.036   4.417  0.3593  0.5248  0.8390
   68SAPC     N 5685   3.704   6.423   1.915  0.4693 -0.0182  0.5622
   68SAPC   C12 5686   3.791   6.499   2.012 -0.2194  0.2014  0.4060
   68SAPC  H12A 5687   3.733   6.578   2.059 -0.5455 -0.8771  1.8784
   68SAPC  H12B 5688   3.870   6.548   1.957 -1.8291  2.5923  0.0760
   68SAPC   C13 5689   3.642   6.503   1.810 -0.1784  0.3788 -0.0751
   68SAPC  H13A 5690   3.567   6.448   1.755 -0.1550  2.2436 -2.1258
   68SAPC  H13B 5691   3.598   6.597   1.840 -0.5202  0.5704 -1.1142
   68SAPC  H13C 5692   3.714   6.527   1.733  0.4996 -0.5843  0.2393
   68SAPC   C14 5693   3.792   6.323   1.844 -0.0573  0.0024 -1.0223
   68SAPC  H14A 5694   3.738   6.254   1.781  0.8568 -0.9490 -0.7936
   68SAPC  H14B 5695   3.858   6.382   1.782 -0.5413  1.0032 -0.6096
   68SAPC  H14C 5696   3.860   6.271   1.910 -1.2025  1.1090  1.1222
   68SAPC   C15 5697   3.585   6.358   1.992 -0.2112 -0.4764 -0.4845
   68SAPC  H15A 5698   3.510   6.429   2.023  0.3635 -0.3118  0.5721
   68SAPC  H15B 5699   3.536   6.286   1.928  1.2761 -1.9230 -0.0754
   68SAPC  H15C 5700   3.614   6.305   2.082 -1.5515  1.2783  1.0845
   68SAPC   C11 5701   3.851   6.427   2.137 -0.4562  0.4344  0.6773
   68SAPC  H11A 5702   3.771   6.384   2.200 -1.7058 -0.1890 -1.2488
   68SAPC  H11B 5703   3.903   6.499   2.204  0.0748  0.5494  0.1491
   68SAPC     P 5704   4.090   6.361   2.082  0.1403  0.0316 -0.1136
   68SAPC   O13 5705   4.164   6.251   2.014 -0.2420 -0.0888 -0.1975
   68SAPC   O14 5706   4.103   6.498   2.022  0.2820 -0.1748 -0.0203
   68SAPC   O12 5707   3.939   6.319   2.101  0.6683  0.2224 -0.6595
   68SAPC   O11 5708   4.135   6.382   2.232 -0.5435  0.1046  0.4453
   68SAPC    C1 5709   4.143   6.265   2.322 -0.4295  0.1260 -0.2505
   68SAPC    HA 5710   4.051   6.203   2.316 -0.7239  0.3347  1.5848
   68SAPC    HB 5711   4.235   6.207   2.295  0.8669  1.3510  1.3591
   68SAPC    C2 5712   4.145   6.313   2.467 -0.6444  0.9138 -0.4135
   68SAPC    HS 5713   4.169   6.218   2.520  0.9658  1.4319 -0.1510
   68SAPC   O21 5714   4.020   6.365   2.499 -0.3576  0.0402  0.2094
   68SAPC   C21 5715   3.952   6.303   2.595 -0.1384  0.2006  0.0671
   68SAPC   O22 5716   3.981   6.195   2.646 -0.1091  0.3774 -0.6737
   68SAPC   C22 5717   3.840   6.396   2.635  0.2683 -0.0465  0.6521
   68SAPC   H2R 5718   3.873   6.500   2.612 -0.0419 -0.2684 -0.9307
   68SAPC   H2S 5719   3.759   6.378   2.560  1.7591  0.7813 -1.2516
   68SAPC    C3 5720   4.263   6.419   2.499 -0.6452  0.4103 -0.1512
   68SAPC    HX 5721   4.238   6.510   2.440  1.0173  2.5747  2.2543
   68SAPC    HY 5722   4.365   6.388   2.471 -0.0471  2.1838 -0.0816
   68SAPC   O31 5723   4.258   6.459   2.637  0.5553  0.3981  0.0712
   68SAPC   C31 5724   4.309   6.366   2.724  0.1971 -0.6127 -0.4587
   68SAPC   O32 5725   4.365   6.265   2.691  0.1017 -0.2528  0.1817
   68SAPC   C32 5726   4.273   6.414   2.867  0.0072  0.2286  0.0290
   68SAPC   H2X 5727   4.199   6.344   2.911 -0.7373  0.5565 -0.6732
   68SAPC   H2Y 5728   4.224   6.512   2.851  1.5919  1.1166  0.3929
   68SAPC   C23 5729   3.775   6.384   2.769  0.4493 -0.7091  0.3316
   68SAPC   H3R 5730   3.723   6.287   2.789 -1.3718  0.6883  3.0667
   68SAPC   H3S 5731   3.689   6.454   2.775 -1.3161 -2.5452 -1.7369
   68SAPC   C24 5732   3.863   6.408   2.891  0.6581 -0.7535 -0.5508
   68SAPC   H4R 5733   3.927   6.321   2.916  2.1092  0.3086 -0.4474
   68SAPC   H4S 5734   3.797   6.410   2.980  2.1431  2.0490  0.5929
   68SAPC   C25 5735   3.942   6.540   2.892 -0.4143  1.1441 -0.0175
   68SAPC   H5R 5736   3.959   6.569   2.787  0.1833 -1.2402 -0.6359
   68SAPC   C26 5737   3.969   6.622   3.000 -0.4188  0.2842 -0.6495
   68SAPC   H6R 5738   4.027   6.715   2.989 -1.1401  1.1593  2.0562
   68SAPC   C27 5739   3.930   6.594   3.143 -0.4279 -0.5846  0.1310
   68SAPC   H7R 5740   3.989   6.517   3.197  0.1482 -0.1064  0.1933
   68SAPC   H7S 5741   3.832   6.541   3.148  0.3520 -2.1495 -0.6277
   68SAPC   C28 5742   3.911   6.712   3.227 -0.0177 -0.2506  0.4435
   68SAPC   H8R 5743   3.867   6.804   3.185  1.5986 -0.2317 -1.3586
   68SAPC   C29 5744   3.930   6.715   3.359 -0.0529 -0.4242  0.1749
   68SAPC   H9R 5745   3.931   6.817   3.399  1.0237  0.0767 -1.0496
   68SAPC  C210 5746   3.983   6.603   3.449 -0.1512  0.3953 -0.2363
   68SAPC  H10R 5747   4.092   6.626   3.460 -0.0590  0.1769 -0.6582
   68SAPC  H10S 5748   3.978   6.501   3.406 -0.7936 -0.9713  2.7760
   68SAPC  C211 5749   3.919   6.609   3.584  0.7103  0.9405 -0.1476
   68SAPC  H11R 5750   3.826   6.667   3.584  0.0824  0.0363 -2.0234
   68SAPC  C212 5751   3.961   6.559   3.709 -0.1610 -0.3256  0.0526
   68SAPC  H12R 5752   3.901   6.573   3.800  2.3003  2.5651  1.4406
   68SAPC  C213 5753   4.091   6.471   3.719 -0.0320  0.0042  0.3583
   68SAPC  H13R 5754   4.170   6.525   3.777 -0.9504 -0.7494  2.4142
   68SAPC  H13S 5755   4.133   6.449   3.619  2.3056  1.2860  0.9692
   68SAPC  C214 5756   4.069   6.339   3.784 -0.1982  0.5731 -0.1638
   68SAPC  H14R 5757   3.977   6.292   3.746 -2.0572  0.2130  4.2401
   68SAPC  C215 5758   4.146   6.275   3.878  0.3281  0.7224 -0.3051
   68SAPC  H15R 5759   4.105   6.179   3.911  0.0179  1.3832  1.3028
   68SAPC  C216 5760   4.265   6.320   3.960 -0.2814  0.2161 -0.7824
   68SAPC  H16R 5761   4.298   6.421   3.928  0.5461 -0.0614 -0.8143
   68SAPC  H16S 5762   4.344   6.243   3.949  1.3651  2.1043 -3.2662
   68SAPC  C217 5763   4.232   6.336   4.111  0.8261 -0.4143 -0.4274
   68SAPC  H17R 5764   4.142   6.402   4.117  0.2343 -1.3458  2.0116
   68SAPC  H17S 5765   4.325   6.384   4.146 -0.4676  1.0806  1.1193
   68SAPC  C218 5766   4.206   6.211   4.195 -0.0891  0.6715  0.7047
   68SAPC  H18R 5767   4.286   6.140   4.164 -1.1280 -0.1873 -0.0649
   68SAPC  H18S 5768   4.110   6.166   4.163  0.8435 -0.8135 -0.1683
   68SAPC  C219 5769   4.200   6.228   4.346  0.6428  0.1070  0.0355
   68SAPC  H19R 5770   4.107   6.287   4.364 -0.8937 -0.3591 -4.8749
   68SAPC  H19S 5771   4.285   6.293   4.376  0.1073  0.2738  1.2372
   68SAPC  C220 5772   4.196   6.100   4.433  0.5185 -0.4197 -0.5756
   68SAPC  H20R 5773   4.210   6.137   4.537 -0.1309  0.3315 -0.7488
   68SAPC  H20S 5774   4.275   6.027   4.404 -1.6151 -3.2110  0.1521
   68SAPC  H20T 5775   4.101   6.043   4.428 -0.1940  0.3778  2.1478
   68SAPC   C33 5776   4.400   6.437   2.953 -0.3881  0.2910 -0.5654
   68SAPC   H3X 5777   4.458   6.517   2.903  1.2064  0.1303  0.9338
   68SAPC   H3Y 5778   4.475   6.354   2.951  0.5290  1.0731 -3.4865
   68SAPC   C34 5779   4.378   6.477   3.101  0.2152 -0.3607  0.2804
   68SAPC   H4X 5780   4.333   6.578   3.104  1.9747  0.4391  0.8360
   68SAPC   H4Y 5781   4.477   6.485   3.151  1.1682  0.4905 -1.6089
   68SAPC   C35 5782   4.278   6.392   3.180  0.4530  0.0231  0.2371
   68SAPC   H5X 5783   4.301   6.285   3.162  0.2563  0.3499 -2.2544
   68SAPC   H5Y 5784   4.172   6.407   3.150  0.1582  1.0440  1.6778
   68SAPC   C36 5785   4.296   6.425   3.338  0.1419  0.6175 -0.4249
   68SAPC   H6X 5786   4.211   6.365   3.379  0.1946  0.5801 -0.3706
   68SAPC   H6Y 5787   4.284   6.532   3.365  0.8368  0.8162 -0.8620
   68SAPC   C37 5788   4.436   6.371   3.397 -0.4527 -0.0462  0.1331
   68SAPC   H7X 5789   4.513   6.416   3.332 -3.1098  0.4777 -2.9311
   68SAPC   H7Y 5790   4.428   6.260   3.397 -1.6661  0.0201  0.7024
   68SAPC   C38 5791   4.462   6.412   3.543  0.0732 -0.3422  1.0961
   68SAPC   H8X 5792   4.363   6.396   3.592  0.3869  0.0463  1.8835
   68SAPC   H8Y 5793   4.489   6.520   3.548  1.9923 -0.5897 -1.7666
   68SAPC   C39 5794   4.571   6.322   3.604  0.0366 -0.0592  0.1520
   68SAPC   H9X 5795   4.669   6.344   3.557 -0.4902  2.2921  0.0389
   68SAPC   H9Y 5796   4.530   6.220   3.589  1.2309 -0.8525  1.9422
   68SAPC  C310 5797   4.583   6.330   3.756 -0.3500  0.4576  0.2692
   68SAPC  H10X 5798   4.657   6.249   3.777 -1.3661 -0.3280  0.9475
   68SAPC  H10Y 5799   4.493   6.295   3.812  0.3510 -0.0424  1.1055
   68SAPC  C311 5800   4.622   6.467   3.800 -0.1139 -0.0426  0.0440
   68SAPC  H11X 5801   4.540   6.540   3.782  1.3139  1.2879 -1.3857
   68SAPC  H11Y 5802   4.701   6.511   3.735 -1.7643  1.3223 -1.1438
   68SAPC  C312 5803   4.661   6.476   3.949  0.0510  0.2697  0.0914
   68SAPC  H12X 5804   4.747   6.407   3.962 -1.0813 -1.0755  0.6220
   68SAPC  H12Y 5805   4.582   6.449   4.022  0.5907  1.5404  1.1969
   68SAPC  C313 5806   4.723   6.616   3.976 -0.4236 -0.1982 -0.9868
   68SAPC  H13X 5807   4.633   6.683   3.975 -1.0728 -0.9756  0.8024
   68SAPC  H13Y 5808   4.795   6.643   3.896  0.4411 -0.2870 -0.2547
   68SAPC  C314 5809   4.801   6.623   4.118 -0.5839 -1.1304 -0.0414
   68SAPC  H14X 5810   4.812   6.732   4.135  2.1081 -1.4054  0.4288
   68SAPC  H14Y 5811   4.903   6.583   4.106 -0.6544 -1.0524 -0.9127
   68SAPC  C315 5812   4.734   6.570   4.244  0.3728  0.0067  0.4974
   68SAPC  H15X 5813   4.708   6.463   4.231  0.7917 -0.0134 -0.2427
   68SAPC  H15Y 5814   4.644   6.629   4.270  0.0204  0.0193 -0.6620
   68SAPC  C316 5815   4.833   6.559   4.362 -0.2996  0.0372 -0.6153
   68SAPC  H16X 5816   4.869   6.663   4.376  0.0070 -0.3227  1.6206
   68SAPC  H16Y 5817   4.908   6.485   4.326  0.6786  0.6791  0.0681
   68SAPC  C317 5818   4.763   6.508   4.491 -0.0039 -0.0213  0.5257
   68SAPC  H17X 5819   4.838   6.527   4.571  1.3933 -1.3624 -0.4031
   68SAPC  H17Y 5820   4.748   6.398   4.490  0.0794 -0.0426  1.1691
   68SAPC  C318 5821   4.643   6.593   4.532  0.7677  0.6317 -0.6076
   68SAPC  H18X 5822   4.680   6.689   4.575 -0.4116 -0.0503  2.1231
   68SAPC  H18Y 5823   4.581   6.543   4.608 -0.1405 -0.9772 -2.3390
   68SAPC  H18Z 5824   4.569   6.614   4.452  0.4982 -0.9010 -0.7718
   69SAPC     N 5825   2.550   3.863   2.221 -0.0027  0.3969  0.0891
   69SAPC   C12 5826   2.564   3.759   2.326 -0.6605  0.2415  0.8309
   69SAPC  H12A 5827   2.668   3.742   2.349 -0.1820 -1.3459 -2.0292
   69SAPC  H12B 5828   2.538   3.664   2.282  1.4812  0.9234 -2.2281
   69SAPC   C13 5829   2.409   3.892   2.179 -0.0672 -0.0084  0.3776
   69SAPC  H13A 5830   2.355   3.924   2.266  0.3192 -0.2712  0.7177
   69SAPC  H13B 5831   2.418   3.971   2.107  1.9137 -0.1231  0.4452
   69SAPC  H13C 5832   2.357   3.806   2.138 -2.3544  0.1861  2.6188
   69SAPC   C14 5833   2.613   3.992   2.270  0.2600  0.4538  0.8386
   69SAPC  H14A 5834   2.720   3.982   2.265  0.1906 -0.8333  1.6236
   69SAPC  H14B 5835   2.581   4.072   2.205  0.2040 -0.4870 -0.3320
   69SAPC  H14C 5836   2.583   4.011   2.372 -3.3101 -0.3223  0.0683
   69SAPC   C15 5837   2.636   3.826   2.103  0.2960  0.8035 -0.4193
   69SAPC  H15A 5838   2.620   3.890   2.017  1.0913  0.8588 -0.5328
   69SAPC  H15B 5839   2.738   3.812   2.135 -0.1691 -0.6302  0.5250
   69SAPC  H15C 5840   2.607   3.726   2.074  0.4398  1.1204 -1.7132
   69SAPC   C11 5841   2.482   3.777   2.460 -0.5504  0.1738  0.1817
   69SAPC  H11A 5842   2.509   3.880   2.492  0.0819  0.6185 -1.6551
   69SAPC  H11B 5843   2.517   3.717   2.547 -0.3118  1.5712  1.0888
   69SAPC     P 5844   2.276   3.620   2.417 -0.1319 -0.1647  0.2630
   69SAPC   O13 5845   2.132   3.635   2.390  0.6257 -0.6218 -0.5327
   69SAPC   O14 5846   2.347   3.544   2.316  0.2143 -0.2625 -0.6258
   69SAPC   O12 5847   2.345   3.766   2.431 -0.2186  0.3721 -0.0653
   69SAPC   O11 5848   2.308   3.548   2.554 -0.2207  0.3984  0.7241
   69SAPC    C1 5849   2.280   3.606   2.680 -0.5898 -0.7987  0.8040
   69SAPC    HA 5850   2.343   3.695   2.699 -0.0433 -0.6376 -1.4837
   69SAPC    HB 5851   2.171   3.629   2.687 -0.3079  0.1566  2.6229
   69SAPC    C2 5852   2.294   3.497   2.790  0.4400 -0.7265 -0.1722
   69SAPC    HS 5853   2.215   3.419   2.787  0.1317 -0.3856 -1.2213
   69SAPC   O21 5854   2.304   3.563   2.919  0.1256 -0.2596  0.4536
   69SAPC   C21 5855   2.202   3.525   3.001  0.4159  0.7734  0.4251
   69SAPC   O22 5856   2.093   3.482   2.970  0.4969 -0.3082 -0.5433
   69SAPC   C22 5857   2.236   3.563   3.145 -0.0220 -0.1575 -0.3362
   69SAPC   H2R 5858   2.335   3.514   3.155 -0.7574 -1.4661  0.8064
   69SAPC   H2S 5859   2.250   3.673   3.156 -2.2773  0.4818 -2.6809
   69SAPC    C3 5860   2.432   3.435   2.773  0.5965  0.7578  0.0382
   69SAPC    HX 5861   2.501   3.519   2.793  2.0495 -0.3584 -0.1586
   69SAPC    HY 5862   2.450   3.408   2.667  1.3183  2.3437 -0.2635
   69SAPC   O31 5863   2.445   3.322   2.859  0.1516 -0.0342 -0.1707
   69SAPC   C31 5864   2.381   3.216   2.826 -0.7339  0.4498 -0.9802
   69SAPC   O32 5865   2.312   3.205   2.731 -0.0628 -0.3095 -0.2188
   69SAPC   C32 5866   2.402   3.112   2.932 -0.0286  0.0014  0.4502
   69SAPC   H2X 5867   2.492   3.140   2.990  1.0233 -1.5622 -0.3424
   69SAPC   H2Y 5868   2.419   3.021   2.870 -2.3383 -0.3960  0.3301
   69SAPC   C23 5869   2.149   3.484   3.245  0.3209 -0.8566  0.4308
   69SAPC   H3R 5870   2.118   3.381   3.220 -3.0260  0.4690 -1.5343
   69SAPC   H3S 5871   2.052   3.538   3.246  0.2752 -0.9058 -0.5746
   69SAPC   C24 5872   2.209   3.482   3.388  0.0458  0.0680  0.8606
   69SAPC   H4R 5873   2.129   3.459   3.462 -0.7452 -1.8980 -0.5034
   69SAPC   H4S 5874   2.253   3.583   3.401 -0.4586  0.6173 -1.3352
   69SAPC   C25 5875   2.314   3.374   3.397 -0.2467 -0.1806 -0.4036
   69SAPC   H5R 5876   2.398   3.381   3.326  0.1000 -2.5773 -0.3378
   69SAPC   C26 5877   2.329   3.268   3.481  0.0378  0.1761 -0.5408
   69SAPC   H6R 5878   2.421   3.208   3.480  1.2620  1.9366  0.2421
   69SAPC   C27 5879   2.227   3.240   3.590  0.3475 -0.9748  0.8367
   69SAPC   H7R 5880   2.138   3.191   3.544 -1.1394  0.9792  1.4957
   69SAPC   H7S 5881   2.182   3.334   3.628 -1.6750 -1.1502 -0.9535
   69SAPC   C28 5882   2.287   3.153   3.702 -0.5458 -0.1592  0.3904
   69SAPC   H8R 5883   2.353   3.073   3.666  0.6898  0.3176  1.4944
   69SAPC   C29 5884   2.276   3.175   3.830  0.0938 -0.4444  0.0238
   69SAPC   H9R 5885   2.308   3.096   3.900  3.7817  2.0540  1.4873
   69SAPC  C210 5886   2.197   3.284   3.894 -0.1667 -0.1587  0.0530
   69SAPC  H10R 5887   2.093   3.269   3.859  0.2720 -2.5127 -0.4129
   69SAPC  H10S 5888   2.236   3.375   3.843  1.5043 -1.3451 -0.8547
   69SAPC  C211 5889   2.206   3.287   4.049  0.0865 -0.3812  0.7830
   69SAPC  H11R 5890   2.144   3.211   4.100  0.0619 -0.6635  0.3442
   69SAPC  C212 5891   2.302   3.354   4.106 -0.0127 -0.2449  0.4113
   69SAPC  H12R 5892   2.306   3.341   4.215  2.7807 -1.1913  0.2816
   69SAPC  C213 5893   2.409   3.449   4.046 -0.3547 -0.1885  0.0092
   69SAPC  H13R 5894   2.437   3.526   4.121 -1.9220  0.0576  0.3791
   69SAPC  H13S 5895   2.366   3.506   3.962  1.5095  2.2606  0.5995
   69SAPC  C214 5896   2.540   3.391   3.993  0.3840 -0.9612 -0.2823
   69SAPC  H14R 5897   2.526   3.339   3.898 -0.8983  0.9830 -1.2174
   69SAPC  C215 5898   2.663   3.422   4.044 -0.6908 -0.2062  0.3059
   69SAPC  H15R 5899   2.748   3.382   3.987  0.4504  1.9986  0.3620
   69SAPC  C216 5900   2.712   3.509   4.159  0.0182  0.6839  0.1806
   69SAPC  H16R 5901   2.621   3.533   4.218 -0.5292 -1.2794  0.1937
   69SAPC  H16S 5902   2.764   3.599   4.118  1.0496  0.1779  0.3457
   69SAPC  C217 5903   2.801   3.432   4.256 -0.2021 -0.3825 -0.0364
   69SAPC  H17R 5904   2.784   3.323   4.243 -2.3839  0.1618 -2.7615
   69SAPC  H17S 5905   2.783   3.453   4.363  2.3186  0.0833  0.3545
   69SAPC  C218 5906   2.952   3.462   4.234  0.6350 -0.0330  0.0407
   69SAPC  H18R 5907   2.998   3.440   4.333 -2.0750 -1.0507  1.1816
   69SAPC  H18S 5908   2.957   3.572   4.218  0.1268  0.0041  0.1281
   69SAPC  C219 5909   3.016   3.405   4.107 -0.3479  0.6594 -0.0703
   69SAPC  H19R 5910   3.117   3.451   4.111 -0.0696  0.0629 -0.0338
   69SAPC  H19S 5911   2.959   3.431   4.016 -1.2485 -1.0848 -0.0549
   69SAPC  C220 5912   3.024   3.253   4.101  0.2375  0.3743  0.8425
   69SAPC  H20R 5913   3.013   3.211   4.204 -1.7552  0.3491  0.6600
   69SAPC  H20S 5914   3.120   3.208   4.065 -1.5281 -0.2377 -3.7536
   69SAPC  H20T 5915   2.941   3.223   4.034 -0.1042 -1.1262  1.8573
   69SAPC   C33 5916   2.269   3.098   3.004 -0.0287 -0.1468 -0.0837
   69SAPC   H3X 5917   2.191   3.066   2.931 -0.5480  0.0652  0.3750
   69SAPC   H3Y 5918   2.243   3.199   3.042  1.1659 -0.7407  2.5188
   69SAPC   C34 5919   2.282   3.005   3.123  0.5297 -0.4074  0.3445
   69SAPC   H4X 5920   2.367   3.033   3.189 -0.6006  0.1023  1.6336
   69SAPC   H4Y 5921   2.299   2.900   3.090  1.1810 -0.1515 -0.1646
   69SAPC   C35 5922   2.164   3.014   3.218 -0.0097  0.5194  0.0251
   69SAPC   H5X 5923   2.072   2.994   3.160 -1.3496 -1.0968  2.5074
   69SAPC   H5Y 5924   2.158   3.120   3.253 -3.3392  1.4503 -2.7905
   69SAPC   C36 5925   2.170   2.906   3.330 -0.8694 -0.3507 -0.0614
   69SAPC   H6X 5926   2.264   2.917   3.389  2.2191 -1.2296 -4.3202
   69SAPC   H6Y 5927   2.179   2.809   3.276 -0.2771 -0.9631  1.1031
   69SAPC   C37 5928   2.044   2.918   3.416 -0.0813 -0.2944  0.1737
   69SAPC   H7X 5929   1.961   2.885   3.349  0.1564 -1.3813  0.4047
   69SAPC   H7Y 5930   2.030   3.025   3.444  2.1986  0.1770 -0.2871
   69SAPC   C38 5931   2.039   2.839   3.555  0.5830 -0.6064  0.1247
   69SAPC   H8X 5932   2.089   2.911   3.623 -0.6570  0.5014 -0.0924
   69SAPC   H8Y 5933   2.098   2.745   3.553  1.8057  0.1408 -0.9767
   69SAPC   C39 5934   1.891   2.822   3.602 -0.3321  0.2128 -0.0510
   69SAPC   H9X 5935   1.835   2.765   3.525 -0.2317 -1.2965  0.9637
   69SAPC   H9Y 5936   1.847   2.924   3.610  0.5891  0.4853  2.3366
   69SAPC  C310 5937   1.883   2.768   3.747  0.9101  0.6380 -0.1645
   69SAPC  H10X 5938   1.783   2.795   3.787  1.8220  1.8416  1.4288
   69SAPC  H10Y 5939   1.958   2.816   3.813  2.2277 -2.9167  1.1599
   69SAPC  C311 5940   1.899   2.620   3.743 -0.4011  0.2916 -0.7481
   69SAPC  H11X 5941   1.999   2.595   3.701 -0.3476  0.2083 -0.5712
   69SAPC  H11Y 5942   1.833   2.574   3.666 -1.5030 -0.1174  0.3967
   69SAPC  C312 5943   1.882   2.535   3.874 -0.1038  0.2764  0.8817
   69SAPC  H12X 5944   1.914   2.431   3.851  0.6157  0.6389  0.1991
   69SAPC  H12Y 5945   1.772   2.533   3.890 -0.1334 -1.6910  0.7279
   69SAPC  C313 5946   1.955   2.580   4.001 -0.3411  0.7375  0.1418
   69SAPC  H13X 5947   1.894   2.662   4.043 -2.6534 -1.6909  1.8471
   69SAPC  H13Y 5948   2.059   2.617   3.987  0.3300 -0.8762  0.5825
   69SAPC  C314 5949   1.962   2.464   4.095 -0.2293 -0.4218  0.6822
   69SAPC  H14X 5950   2.048   2.403   4.060 -0.5413 -0.1608 -0.6034
   69SAPC  H14Y 5951   1.867   2.406   4.091  0.4842 -1.8442  2.7275
   69SAPC  C315 5952   1.999   2.505   4.236  0.5354 -0.1462  0.7514
   69SAPC  H15X 5953   1.909   2.559   4.272  1.2959  1.3895  0.4089
   69SAPC  H15Y 5954   2.086   2.573   4.243  1.3193 -1.0280 -0.1177
   69SAPC  C316 5955   2.021   2.401   4.341  0.1985  0.4429  0.3219
   69SAPC  H16X 5956   2.036   2.436   4.445 -1.5024  1.8921  0.1245
   69SAPC  H16Y 5957   2.111   2.340   4.319  1.1313  1.2782  1.6864
   69SAPC  C317 5958   1.906   2.297   4.338  0.8651  0.1709 -0.4507
   69SAPC  H17X 5959   1.911   2.221   4.257  0.9431 -2.5287  1.9428
   69SAPC  H17Y 5960   1.809   2.350   4.326  1.7492  1.7583 -1.0027
   69SAPC  C318 5961   1.893   2.219   4.472 -0.3269  0.4918 -0.0408
   69SAPC  H18X 5962   1.997   2.186   4.493  0.2280  2.2599  0.1888
   69SAPC  H18Y 5963   1.829   2.128   4.463 -0.1852  0.4724 -0.9536
   69SAPC  H18Z 5964   1.859   2.286   4.554 -0.7299  0.8431 -0.4861
   70SAPC     N 5965   5.365   0.261   2.319  0.0008 -0.2746  0.6205
   70SAPC   C12 5966   5.218   0.302   2.314 -0.0993 -0.6154  0.2992
   70SAPC  H12A 5967   5.157   0.256   2.237  0.0654  1.0856 -0.8921
   70SAPC  H12B 5968   5.200   0.405   2.288 -2.3312 -0.4902  2.0357
   70SAPC   C13 5969   5.449   0.352   2.410 -0.3410  0.8282  0.5449
   70SAPC  H13A 5970   5.549   0.314   2.422 -0.0212  1.5327  0.1587
   70SAPC  H13B 5971   5.443   0.454   2.375  0.2260 -0.2022 -2.9986
   70SAPC  H13C 5972   5.402   0.348   2.507 -0.7706  1.4925  0.3771
   70SAPC   C14 5973   5.384   0.121   2.370  0.2856 -0.1725 -0.1366
   70SAPC  H14A 5974   5.487   0.108   2.398  0.4212 -2.1250 -1.3856
   70SAPC  H14B 5975   5.320   0.111   2.457  0.5567  1.3463  0.2644
   70SAPC  H14C 5976   5.350   0.048   2.299 -1.2296  0.5406 -0.1913
   70SAPC   C15 5977   5.426   0.275   2.183  0.0385 -0.5280  0.4413
   70SAPC  H15A 5978   5.378   0.221   2.103  0.3147  0.3409 -0.3249
   70SAPC  H15B 5979   5.429   0.378   2.151 -1.0697 -0.8704 -0.8440
   70SAPC  H15C 5980   5.526   0.235   2.187  0.6146  0.6721 -1.2820
   70SAPC   C11 5981   5.141   0.289   2.452  0.3349  0.1814 -0.2860
   70SAPC  H11A 5982   5.155   0.188   2.496 -1.6922  0.1880  0.4806
   70SAPC  H11B 5983   5.033   0.296   2.427  0.6752  0.1091 -1.9277
   70SAPC     P 5984   5.149   0.538   2.521 -0.1887  0.2741  0.1671
   70SAPC   O13 5985   5.248   0.627   2.580 -0.4330 -0.4308  0.5162
   70SAPC   O14 5986   5.106   0.558   2.380  0.3954 -0.1191  0.1980
   70SAPC   O12 5987   5.193   0.384   2.548 -0.1647 -0.0537  0.1334
   70SAPC   O11 5988   5.018   0.542   2.607 -0.1811 -0.0120 -0.0187
   70SAPC    C1 5989   5.025   0.523   2.752 -0.3165 -0.0359  0.2038
   70SAPC    HA 5990   4.929   0.475   2.783 -0.5635 -1.1028 -2.0022
   70SAPC    HB 5991   5.107   0.455   2.784  0.8226  2.0840  2.0485
   70SAPC    C2 5992   5.026   0.671   2.818 -0.0795  0.2557 -0.1970
   70SAPC    HS 5993   5.126   0.714   2.797 -0.1246  1.2352  1.4757
   70SAPC   O21 5994   5.011   0.637   2.952  0.3153  0.6126  0.1423
   70SAPC   C21 5995   5.122   0.628   3.017  0.0505  0.3716 -0.5518
   70SAPC   O22 5996   5.236   0.642   2.977 -0.1490 -0.2837 -0.2298
   70SAPC   C22 5997   5.081   0.570   3.153  0.4295 -0.0210 -0.2827
   70SAPC   H2R 5998   4.985   0.612   3.187 -0.0630 -1.6055  0.4033
   70SAPC   H2S 5999   5.061   0.460   3.152 -1.4713  0.2658 -3.2953
   70SAPC    C3 6000   4.916   0.759   2.767  0.4545 -0.7079 -0.4499
   70SAPC    HX 6001   4.824   0.698   2.784  2.4810 -3.7558  0.4354
   70SAPC    HY 6002   4.917   0.768   2.656 -2.2622 -0.1194 -0.5020
   70SAPC   O31 6003   4.928   0.897   2.823  0.0370  0.2124  0.6491
   70SAPC   C31 6004   4.805   0.968   2.831 -1.1096  0.7968 -0.2081
   70SAPC   O32 6005   4.702   0.922   2.787 -0.4414 -0.7742  0.2469
   70SAPC   C32 6006   4.836   1.097   2.893 -0.0574 -0.0164  0.4236
   70SAPC   H2X 6007   4.748   1.151   2.934 -0.3140  0.9739 -1.3520
   70SAPC   H2Y 6008   4.879   1.162   2.814 -0.2213  1.9142  1.8437
   70SAPC   C23 6009   5.197   0.588   3.256  0.2093  0.0563  0.2828
   70SAPC   H3R 6010   5.300   0.587   3.213 -0.0591 -0.3830 -0.3469
   70SAPC   H3S 6011   5.188   0.514   3.338  2.4120  1.9809  2.4485
   70SAPC   C24 6012   5.192   0.719   3.346 -0.2441  0.1333 -0.2739
   70SAPC   H4R 6013   5.261   0.705   3.432  1.3712 -1.0317 -1.6888
   70SAPC   H4S 6014   5.089   0.724   3.385 -0.7821  0.2709 -1.6594
   70SAPC   C25 6015   5.229   0.841   3.273 -0.5135  0.1800 -0.1817
   70SAPC   H5R 6016   5.149   0.880   3.208  0.1298  1.1970 -0.3778
   70SAPC   C26 6017   5.348   0.909   3.280 -0.0839  0.6157 -0.0090
   70SAPC   H6R 6018   5.363   0.984   3.201 -1.5346  1.3605  0.3891
   70SAPC   C27 6019   5.465   0.883   3.371  0.6019  0.8723  0.7949
   70SAPC   H7R 6020   5.413   0.860   3.466  3.3958 -2.6735  1.6773
   70SAPC   H7S 6021   5.516   0.981   3.382 -1.4761  2.9027 -4.4705
   70SAPC   C28 6022   5.554   0.763   3.346 -0.3872 -0.5080  0.5197
   70SAPC   H8R 6023   5.536   0.701   3.256  0.6360 -2.7019  1.7535
   70SAPC   C29 6024   5.661   0.728   3.427  1.2077 -0.2741  0.4719
   70SAPC   H9R 6025   5.714   0.633   3.407  0.1683 -0.7994  0.1275
   70SAPC  C210 6026   5.710   0.797   3.544 -0.7902 -0.3313 -0.6669
   70SAPC  H10R 6027   5.631   0.800   3.624 -1.8866 -1.0979 -1.6851
   70SAPC  H10S 6028   5.721   0.904   3.516  1.9971 -0.3151  0.2444
   70SAPC  C211 6029   5.855   0.743   3.592  1.1603 -0.3211  0.0048
   70SAPC  H11R 6030   5.931   0.733   3.514  0.3159 -2.7541 -0.5725
   70SAPC  C212 6031   5.878   0.700   3.716  0.3299  1.1661  0.2240
   70SAPC  H12R 6032   5.976   0.654   3.737 -0.7139 -0.8916  0.7858
   70SAPC  C213 6033   5.788   0.705   3.839 -0.3888 -0.1070  0.7318
   70SAPC  H13R 6034   5.835   0.663   3.931  2.1158 -0.5328 -0.6756
   70SAPC  H13S 6035   5.692   0.653   3.822  0.0382 -0.4927 -0.5767
   70SAPC  C214 6036   5.762   0.847   3.872  0.6740  0.7138  0.2921
   70SAPC  H14R 6037   5.683   0.893   3.811  2.9606  3.4919 -0.8213
   70SAPC  C215 6038   5.825   0.924   3.966  0.5035 -0.0325  0.4137
   70SAPC  H15R 6039   5.785   1.025   3.985  0.7125 -0.1246  1.3649
   70SAPC  C216 6040   5.940   0.884   4.051 -0.0470 -0.4135  0.2021
   70SAPC  H16R 6041   6.036   0.921   4.010 -0.3116  0.7366  0.5633
   70SAPC  H16S 6042   5.942   0.775   4.070  1.4040 -0.5879 -0.8583
   70SAPC  C217 6043   5.918   0.947   4.190 -0.0007  0.6817 -1.0607
   70SAPC  H17R 6044   5.908   1.057   4.181 -1.0371  1.2859  4.4504
   70SAPC  H17S 6045   6.013   0.930   4.245 -1.0962  0.8302  0.9415
   70SAPC  C218 6046   5.800   0.896   4.271  0.6697 -0.0581  0.8925
   70SAPC  H18R 6047   5.799   0.785   4.281  0.1480 -0.3391 -1.5233
   70SAPC  H18S 6048   5.702   0.915   4.222  0.8160  0.2283  0.7079
   70SAPC  C219 6049   5.792   0.960   4.411 -0.1284  0.3534  0.8008
   70SAPC  H19R 6050   5.760   1.063   4.387 -0.3252  0.2124  0.4529
   70SAPC  H19S 6051   5.893   0.960   4.458 -0.2002  0.7190  0.9554
   70SAPC  C220 6052   5.698   0.889   4.513 -0.1864  0.0814  0.1939
   70SAPC  H20R 6053   5.599   0.869   4.468  0.4297 -0.8156 -0.8321
   70SAPC  H20S 6054   5.698   0.949   4.606 -3.3519 -0.6021  0.7241
   70SAPC  H20T 6055   5.743   0.790   4.540 -0.0967  0.8469  3.2564
   70SAPC   C33 6056   4.937   1.090   3.015 -0.1542  0.5684  0.4562
   70SAPC   H3X 6057   4.951   1.195   3.050  2.3780  0.4424  0.0058
   70SAPC   H3Y 6058   5.037   1.058   2.978 -0.0165  0.4795  0.8964
   70SAPC   C34 6059   4.893   0.998   3.132 -1.0572 -0.8353 -0.1015
   70SAPC   H4X 6060   4.945   1.035   3.223 -1.0895 -0.9374 -0.0416
   70SAPC   H4Y 6061   4.926   0.895   3.108 -0.2153 -0.6867  0.3973
   70SAPC   C35 6062   4.741   0.983   3.148 -0.7298 -0.1288 -0.4671
   70SAPC   H5X 6063   4.703   0.923   3.063  0.9259 -0.6440 -0.8906
   70SAPC   H5Y 6064   4.686   1.079   3.147 -0.9419 -0.2243 -2.1679
   70SAPC   C36 6065   4.687   0.913   3.277  0.9286  0.4749  0.0459
   70SAPC   H6X 6066   4.751   0.826   3.301  2.1684  1.3683  0.0734
   70SAPC   H6Y 6067   4.591   0.862   3.255  0.5944  0.1460  2.0363
   70SAPC   C37 6068   4.670   1.003   3.405  0.1974 -0.0959 -0.7815
   70SAPC   H7X 6069   4.616   1.099   3.394  1.5386  1.1582  2.3366
   70SAPC   H7Y 6070   4.599   0.945   3.467 -1.3019 -0.0117 -2.3580
   70SAPC   C38 6071   4.797   1.031   3.491  0.2107  0.5221  0.8208
   70SAPC   H8X 6072   4.851   1.121   3.454 -1.5406  1.6541  0.8421
   70SAPC   H8Y 6073   4.866   0.945   3.479  0.1303  0.3908  1.2884
   70SAPC   C39 6074   4.757   1.040   3.638  0.3907 -0.3383 -0.5381
   70SAPC   H9X 6075   4.854   1.017   3.686  0.0079  0.4264  0.6543
   70SAPC   H9Y 6076   4.694   0.950   3.656  1.9963 -1.2338  0.9911
   70SAPC  C310 6077   4.701   1.177   3.672  0.4850 -0.2492 -0.9182
   70SAPC  H10X 6078   4.608   1.193   3.613 -1.0445 -0.4313  1.2871
   70SAPC  H10Y 6079   4.783   1.252   3.667 -0.2438  0.5965 -0.5255
   70SAPC  C311 6080   4.667   1.168   3.823 -0.0306  0.9784  0.1665
   70SAPC  H11X 6081   4.752   1.130   3.884 -0.9215  2.0720  2.1821
   70SAPC  H11Y 6082   4.585   1.093   3.830 -0.6883  1.5203 -1.4633
   70SAPC  C312 6083   4.616   1.293   3.895 -0.8269 -0.0892  0.0906
   70SAPC  H12X 6084   4.517   1.334   3.864  0.8398  3.3337 -1.1851
   70SAPC  H12Y 6085   4.686   1.377   3.874  0.9822 -1.5415  0.1047
   70SAPC  C313 6086   4.611   1.269   4.049 -0.2403 -0.3743  0.6694
   70SAPC  H13X 6087   4.710   1.222   4.066  0.2870  0.2779 -0.4827
   70SAPC  H13Y 6088   4.539   1.191   4.080  0.3863 -0.3476  2.2571
   70SAPC  C314 6089   4.595   1.391   4.143 -0.5007  0.7613  0.1331
   70SAPC  H14X 6090   4.647   1.360   4.237  0.6311  2.0654 -0.0330
   70SAPC  H14Y 6091   4.488   1.403   4.169 -1.3268 -1.6646 -1.8072
   70SAPC  C315 6092   4.658   1.522   4.106  0.1399 -0.1241 -1.3136
   70SAPC  H15X 6093   4.609   1.557   4.012 -3.6595 -0.5418  0.3242
   70SAPC  H15Y 6094   4.765   1.498   4.088  0.5330 -1.6418  2.3295
   70SAPC  C316 6095   4.631   1.632   4.212 -0.0440  0.2878 -0.3901
   70SAPC  H16X 6096   4.678   1.606   4.309 -1.9027 -0.3641  0.3731
   70SAPC  H16Y 6097   4.521   1.636   4.231  0.2491  1.0555  1.4099
   70SAPC  C317 6098   4.687   1.771   4.174 -0.2173  0.1070  0.2803
   70SAPC  H17X 6099   4.786   1.760   4.125 -1.0989 -1.7746 -1.2189
   70SAPC  H17Y 6100   4.705   1.816   4.274  1.5540 -3.0539  1.5291
   70SAPC  C318 6101   4.600   1.870   4.081  0.5246 -0.0022 -0.5402
   70SAPC  H18X 6102   4.512   1.906   4.139  0.5626 -0.2915 -0.3008
   70SAPC  H18Y 6103   4.568   1.811   3.993 -0.8000 -0.3023  0.1187
   70SAPC  H18Z 6104   4.660   1.960   4.053 -3.7151  3.3135  0.0414
   71SAPC     N 6105   6.602   6.286   2.060 -0.7113  0.2214 -0.1953
   71SAPC   C12 6106   6.737   6.329   2.006  0.3212  0.5471 -0.0409
   71SAPC  H12A 6107   6.712   6.362   1.906 -4.0226 -1.2594  0.2530
   71SAPC  H12B 6108   6.789   6.235   1.999  0.7184  0.8603 -1.7997
   71SAPC   C13 6109   6.525   6.226   1.954 -0.2426  0.2203  0.6107
   71SAPC  H13A 6110   6.544   6.286   1.866  2.6822  1.1133  1.7402
   71SAPC  H13B 6111   6.558   6.127   1.925  0.2496  0.6420 -0.3182
   71SAPC  H13C 6112   6.420   6.225   1.978 -0.1280  1.9742  1.3209
   71SAPC   C14 6113   6.614   6.189   2.171  0.1744  0.5829  0.3801
   71SAPC  H14A 6114   6.652   6.095   2.133 -1.2821 -0.4487  1.3607
   71SAPC  H14B 6115   6.687   6.225   2.241 -0.8637  1.9264  0.8164
   71SAPC  H14C 6116   6.519   6.167   2.217 -1.2329  0.6499 -2.2978
   71SAPC   C15 6117   6.538   6.416   2.108 -0.4503  0.2835 -0.4148
   71SAPC  H15A 6118   6.436   6.401   2.139 -0.7406  0.2672 -1.3500
   71SAPC  H15B 6119   6.593   6.447   2.195  0.3698  0.3671 -0.9534
   71SAPC  H15C 6120   6.543   6.491   2.030 -0.8770  0.5915 -0.1450
   71SAPC   C11 6121   6.830   6.427   2.082  0.1179 -0.2765 -0.1927
   71SAPC  H11A 6122   6.795   6.531   2.061 -1.3947 -0.8022 -0.3887
   71SAPC  H11B 6123   6.929   6.426   2.030 -0.1688  0.6167 -0.7944
   71SAPC     P 6124   6.912   6.503   2.318 -0.2861 -0.3443  0.2923
   71SAPC   O13 6125   6.998   6.584   2.231  0.0524 -0.5508 -0.0582
   71SAPC   O14 6126   6.800   6.573   2.386  0.8664 -0.2341 -0.1512
   71SAPC   O12 6127   6.848   6.393   2.225 -0.5325  0.3334  0.2733
   71SAPC   O11 6128   6.994   6.431   2.424 -0.0270  1.0130  0.2325
   71SAPC    C1 6129   6.944   6.379   2.543  0.1796  0.6453 -0.2674
   71SAPC    HA 6130   6.837   6.349   2.532  0.5752 -1.6072  1.1658
   71SAPC    HB 6131   6.984   6.279   2.570  0.6079  1.4030  2.2272
   71SAPC    C2 6132   6.943   6.477   2.659  0.5399 -0.2237 -0.4774
   71SAPC    HS 6133   6.902   6.573   2.621  0.7137 -0.2557 -0.7477
   71SAPC   O21 6134   7.081   6.486   2.703 -0.1867 -0.5387  0.2595
   71SAPC   C21 6135   7.115   6.595   2.774 -0.2652 -0.1258  0.9228
   71SAPC   O22 6136   7.049   6.695   2.796  1.0958  0.5434 -0.0860
   71SAPC   C22 6137   7.256   6.577   2.816  0.1670  0.1289 -0.4892
   71SAPC   H2R 6138   7.262   6.504   2.900 -3.2806  1.4604  1.1108
   71SAPC   H2S 6139   7.312   6.528   2.734  0.5357 -2.7218  1.3223
   71SAPC    C3 6140   6.847   6.411   2.768  0.2267 -0.2004 -0.6017
   71SAPC    HX 6141   6.903   6.323   2.807 -1.3093 -0.7646  0.4370
   71SAPC    HY 6142   6.752   6.364   2.733  0.6800 -2.3189  0.7990
   71SAPC   O31 6143   6.814   6.500   2.880  0.6593 -0.1966 -0.3811
   71SAPC   C31 6144   6.714   6.589   2.845  0.8109 -0.6169 -0.0819
   71SAPC   O32 6145   6.654   6.583   2.738 -0.8310 -0.5378  0.0505
   71SAPC   C32 6146   6.664   6.693   2.946 -0.3107 -0.4612  0.3465
   71SAPC   H2X 6147   6.691   6.796   2.914  1.5290 -1.1289 -0.3354
   71SAPC   H2Y 6148   6.716   6.682   3.044  0.7754 -1.3192 -0.3120
   71SAPC   C23 6149   7.324   6.703   2.880  0.1911  0.5152  0.3755
   71SAPC   H3R 6150   7.258   6.720   2.968 -0.9806 -1.8879  0.0301
   71SAPC   H3S 6151   7.316   6.785   2.805 -2.7602 -0.4995 -0.5475
   71SAPC   C24 6152   7.464   6.680   2.952  0.2516 -0.1645  0.3315
   71SAPC   H4R 6153   7.443   6.584   3.005  2.2206 -0.0445  1.4774
   71SAPC   H4S 6154   7.478   6.756   3.032  0.0762 -0.3423  0.5319
   71SAPC   C25 6155   7.568   6.655   2.841 -0.9030 -0.2848  0.2252
   71SAPC   H5R 6156   7.558   6.561   2.786  1.2152 -1.1527  1.2182
   71SAPC   C26 6157   7.685   6.716   2.810  0.0271 -0.6253 -0.2682
   71SAPC   H6R 6158   7.735   6.690   2.716  0.7203  1.2960 -0.4713
   71SAPC   C27 6159   7.732   6.838   2.888 -0.3108  0.2582  0.4305
   71SAPC   H7R 6160   7.840   6.815   2.903  0.3596 -0.8779 -4.3822
   71SAPC   H7S 6161   7.694   6.863   2.989 -2.2603  2.7715 -0.8213
   71SAPC   C28 6162   7.743   6.965   2.808 -0.5466 -0.2995  0.4975
   71SAPC   H8R 6163   7.815   6.958   2.725 -0.1726  1.2814  0.6513
   71SAPC   C29 6164   7.663   7.075   2.814  0.0977  0.9032 -0.0988
   71SAPC   H9R 6165   7.680   7.164   2.751  0.1861  1.4232  0.6498
   71SAPC  C210 6166   7.555   7.085   2.914 -0.5889  0.0536 -0.4752
   71SAPC  H10R 6167   7.522   6.992   2.964 -1.2014 -0.2854 -1.4913
   71SAPC  H10S 6168   7.470   7.110   2.847  0.0427  1.3501 -0.8351
   71SAPC  C211 6169   7.578   7.202   3.008 -0.5092 -0.8300  0.6676
   71SAPC  H11R 6170   7.575   7.297   2.954  0.7223  0.2945  2.4610
   71SAPC  C212 6171   7.582   7.201   3.144 -0.0151  0.4417  0.6081
   71SAPC  H12R 6172   7.592   7.299   3.194  2.1667 -0.9422  3.1546
   71SAPC  C213 6173   7.575   7.091   3.237 -0.1985  0.3005 -0.2667
   71SAPC  H13R 6174   7.595   7.125   3.341  1.4053 -1.0338 -0.1006
   71SAPC  H13S 6175   7.657   7.020   3.218  0.8056  0.6629  2.2756
   71SAPC  C214 6176   7.447   7.014   3.244  0.4663 -0.2751  0.8153
   71SAPC  H14R 6177   7.442   6.933   3.170 -0.9656  0.2889  0.2631
   71SAPC  C215 6178   7.339   7.044   3.314  0.2059 -0.0679  0.0992
   71SAPC  H15R 6179   7.258   6.970   3.325 -0.8698  1.0965  0.2153
   71SAPC  C216 6180   7.321   7.158   3.409 -0.0433 -0.4515  0.5695
   71SAPC  H16R 6181   7.255   7.236   3.365 -1.8130 -1.9593  0.4209
   71SAPC  H16S 6182   7.421   7.199   3.435 -0.6895  0.7835  1.2399
   71SAPC  C217 6183   7.250   7.112   3.537  0.0418  0.6430 -0.2043
   71SAPC  H17R 6184   7.147   7.085   3.507  0.2716 -0.8742  0.2665
   71SAPC  H17S 6185   7.250   7.205   3.598  1.9776  0.9207 -0.5496
   71SAPC  C218 6186   7.320   7.004   3.615  0.5027  0.1835 -0.6752
   71SAPC  H18R 6187   7.419   7.045   3.643 -0.3632  0.5394  2.1124
   71SAPC  H18S 6188   7.336   6.918   3.546  2.1693 -1.1218  1.2272
   71SAPC  C219 6189   7.236   6.960   3.742 -0.0689  0.1263  0.0669
   71SAPC  H19R 6190   7.292   6.881   3.794 -0.3120 -0.9126 -1.1849
   71SAPC  H19S 6191   7.147   6.902   3.706  0.0631  0.0932 -0.2120
   71SAPC  C220 6192   7.202   7.079   3.842  0.5531  0.6482  0.3175
   71SAPC  H20R 6193   7.301   7.122   3.866  0.7442  1.1023 -1.2032
   71SAPC  H20S 6194   7.148   7.033   3.928  0.5695 -1.7275 -0.8524
   71SAPC  H20T 6195   7.146   7.164   3.800  1.4681 -0.2655 -3.0239
   71SAPC   C33 6196   6.507   6.682   2.954 -0.0076  0.3355  0.8148
   71SAPC   H3X 6197   6.481   6.585   3.002 -0.2342 -0.7515 -1.3980
   71SAPC   H3Y 6198   6.463   6.679   2.852 -1.3772  2.0462  1.2949
   71SAPC   C34 6199   6.432   6.787   3.038  0.5379 -1.0836 -0.1152
   71SAPC   H4X 6200   6.464   6.800   3.144 -2.6771  0.2263  0.7986
   71SAPC   H4Y 6201   6.328   6.749   3.047 -0.1009  0.5661 -0.2070
   71SAPC   C35 6202   6.427   6.929   2.967 -0.1403 -0.3459  0.1985
   71SAPC   H5X 6203   6.389   6.909   2.864 -2.2730 -1.2561  1.0987
   71SAPC   H5Y 6204   6.531   6.965   2.953  0.5676 -2.1313  0.5633
   71SAPC   C36 6205   6.337   7.036   3.040 -0.5166  0.0183 -0.8358
   71SAPC   H6X 6206   6.230   7.006   3.035 -0.5656  0.1996 -0.8792
   71SAPC   H6Y 6207   6.339   7.130   2.981  0.1691  0.6581  0.1730
   71SAPC   C37 6208   6.381   7.067   3.181 -0.1543 -0.0040  0.3352
   71SAPC   H7X 6209   6.483   7.108   3.168 -1.0343  2.3140  0.3418
   71SAPC   H7Y 6210   6.391   6.971   3.238 -0.3410  0.3884  1.0441
   71SAPC   C38 6211   6.282   7.156   3.255  0.3669 -0.1078 -0.0722
   71SAPC   H8X 6212   6.183   7.110   3.234  0.4216 -0.5649  0.6669
   71SAPC   H8Y 6213   6.287   7.260   3.217 -1.1970  0.0044 -0.0040
   71SAPC   C39 6214   6.305   7.162   3.405  0.2087  0.0640 -0.0556
   71SAPC   H9X 6215   6.298   7.057   3.443  0.4990  0.3438  0.7996
   71SAPC   H9Y 6216   6.214   7.210   3.447 -0.1088 -1.0703  0.6005
   71SAPC  C310 6217   6.427   7.239   3.445  0.2035 -0.0181  0.4791
   71SAPC  H10X 6218   6.411   7.342   3.408 -0.0671 -0.3591 -0.3904
   71SAPC  H10Y 6219   6.513   7.191   3.394 -1.4094  0.1880 -2.6685
   71SAPC  C311 6220   6.421   7.279   3.594  0.1749  0.2083 -0.2195
   71SAPC  H11X 6221   6.328   7.335   3.617 -0.3729 -0.9523  0.5333
   71SAPC  H11Y 6222   6.502   7.350   3.618 -0.5074  1.2494 -0.8819
   71SAPC  C312 6223   6.433   7.158   3.686  0.1307 -0.0322 -0.5518
   71SAPC  H12X 6224   6.523   7.101   3.654  0.3638  0.4165 -0.6903
   71SAPC  H12Y 6225   6.351   7.084   3.675 -0.3721  0.6432 -1.5114
   71SAPC  C313 6226   6.445   7.190   3.835 -0.7769 -0.3185 -0.0515
   71SAPC  H13X 6227   6.361   7.260   3.857 -0.5840  0.5311 -1.8916
   71SAPC  H13Y 6228   6.542   7.237   3.859 -0.6353 -1.4420  1.8358
   71SAPC  C314 6229   6.437   7.067   3.927 -0.9574  0.0572  0.2240
   71SAPC  H14X 6230   6.519   7.009   3.881 -0.9969 -1.4170  1.9117
   71SAPC  H14Y 6231   6.345   7.005   3.911 -1.8929  1.9590 -2.6740
   71SAPC  C315 6232   6.461   7.094   4.072  0.2263  0.1012 -0.4165
   71SAPC  H15X 6233   6.521   7.185   4.090 -2.2704  1.6012  0.8035
   71SAPC  H15Y 6234   6.505   7.005   4.123  1.3262 -1.1186 -3.2860
   71SAPC  C316 6235   6.323   7.124   4.141  0.0406 -0.0355  0.5473
   71SAPC  H16X 6236   6.261   7.041   4.102  2.2593 -0.8796 -1.4769
   71SAPC  H16Y 6237   6.297   7.222   4.095  0.2063 -0.4779 -0.5300
   71SAPC  C317 6238   6.330   7.131   4.297  0.0684 -0.3715  0.1087
   71SAPC  H17X 6239   6.262   7.206   4.342  1.0506  2.3546 -2.6331
   71SAPC  H17Y 6240   6.433   7.173   4.303 -0.5184  1.3017 -0.8911
   71SAPC  C318 6241   6.317   7.002   4.376  0.9081 -0.4898  0.1154
   71SAPC  H18X 6242   6.211   6.969   4.377  0.5665  0.4827 -1.0271
   71SAPC  H18Y 6243   6.359   7.015   4.478  2.7158 -1.5563 -0.4407
   71SAPC  H18Z 6244   6.373   6.919   4.328 -0.7696 -1.2237 -0.6781
   72SAPC     N 6245   4.118   3.641   2.502 -0.5766 -0.0517  0.0539
   72SAPC   C12 6246   4.183   3.592   2.638  0.3224 -0.0096 -0.0527
   72SAPC  H12A 6247   4.161   3.679   2.698 -2.9673  0.4731 -1.7101
   72SAPC  H12B 6248   4.290   3.582   2.627  0.8692  3.1923  1.3307
   72SAPC   C13 6249   4.138   3.793   2.478  0.4264 -0.0537 -0.2907
   72SAPC  H13A 6250   4.245   3.806   2.473  0.9121 -3.4244 -1.5468
   72SAPC  H13B 6251   4.097   3.843   2.391 -0.8336 -0.1276  0.2394
   72SAPC  H13C 6252   4.097   3.841   2.566 -0.1213 -2.0874  0.6261
   72SAPC   C14 6253   4.197   3.566   2.394  0.0099 -0.2606  0.1298
   72SAPC  H14A 6254   4.196   3.461   2.418 -2.7644 -0.0638  1.3435
   72SAPC  H14B 6255   4.144   3.584   2.301 -1.0168 -1.1622  0.5131
   72SAPC  H14C 6256   4.294   3.612   2.386  0.0257 -0.3977 -0.4807
   72SAPC   C15 6257   3.975   3.607   2.504  0.4263 -0.0852  0.5079
   72SAPC  H15A 6258   3.931   3.622   2.406  0.7894  1.4272  0.5559
   72SAPC  H15B 6259   3.976   3.500   2.519  0.3073 -0.5114 -2.0232
   72SAPC  H15C 6260   3.929   3.673   2.576  1.3966  0.9931  0.1710
   72SAPC   C11 6261   4.122   3.472   2.703  0.1566  1.0470  0.0404
   72SAPC  H11A 6262   4.020   3.476   2.746  1.2345  0.1444  2.9102
   72SAPC  H11B 6263   4.184   3.443   2.791  2.1788 -0.3487 -1.7317
   72SAPC     P 6264   4.062   3.219   2.653 -0.1391 -0.3697  0.2188
   72SAPC   O13 6265   3.916   3.223   2.628  0.0536  0.1985 -0.3648
   72SAPC   O14 6266   4.141   3.116   2.584  0.0961  0.3223  0.8532
   72SAPC   O12 6267   4.122   3.364   2.605  0.1282  0.6569  0.0723
   72SAPC   O11 6268   4.076   3.209   2.809 -0.1171 -0.4581 -0.3176
   72SAPC    C1 6269   4.194   3.188   2.891 -0.3333 -0.5395  1.1911
   72SAPC    HA 6270   4.220   3.080   2.887 -0.3007 -0.5284  1.0870
   72SAPC    HB 6271   4.282   3.245   2.853 -1.6911  1.0303  0.2575
   72SAPC    C2 6272   4.166   3.223   3.035  0.0168  0.1656  0.6553
   72SAPC    HS 6273   4.256   3.216   3.100  0.0144  1.7197  0.8633
   72SAPC   O21 6274   4.073   3.127   3.083  0.1740 -0.1798 -0.3284
   72SAPC   C21 6275   4.127   3.012   3.107  0.4246  0.1017 -0.2859
   72SAPC   O22 6276   4.244   2.976   3.093 -0.2524  0.2554 -0.4111
   72SAPC   C22 6277   4.020   2.914   3.158  0.0227 -0.5261 -0.1056
   72SAPC   H2R 6278   3.937   2.974   3.200 -0.5877 -1.4989  0.1032
   72SAPC   H2S 6279   3.993   2.858   3.065 -0.1321  0.2813 -0.5588
   72SAPC    C3 6280   4.116   3.373   3.044  0.8339 -0.3359 -0.2361
   72SAPC    HX 6281   4.037   3.375   2.966 -0.4239 -2.1805  0.9173
   72SAPC    HY 6282   4.197   3.440   3.007  0.7969  0.7403  1.5065
   72SAPC   O31 6283   4.059   3.420   3.171 -0.4700 -0.0088 -0.4539
   72SAPC   C31 6284   4.146   3.450   3.262 -0.6492 -0.7015  0.3299
   72SAPC   O32 6285   4.267   3.455   3.246  0.7034 -0.0112 -0.0739
   72SAPC   C32 6286   4.074   3.488   3.391  0.4099  0.9990  0.4365
   72SAPC   H2X 6287   3.973   3.442   3.384  1.3566 -0.9607 -1.1772
   72SAPC   H2Y 6288   4.062   3.598   3.396  0.7993  1.0689 -0.1352
   72SAPC   C23 6289   4.068   2.807   3.254  0.0205  0.2033 -0.4251
   72SAPC   H3R 6290   4.155   2.759   3.204 -0.3335  0.2104 -1.0661
   72SAPC   H3S 6291   3.990   2.729   3.271 -1.1494  1.9244  3.1730
   72SAPC   C24 6292   4.091   2.830   3.406  0.3611 -0.4430 -0.0317
   72SAPC   H4R 6293   4.112   2.725   3.437 -2.2035 -1.2620 -0.8103
   72SAPC   H4S 6294   4.003   2.866   3.463  0.7653  0.0375  0.2909
   72SAPC   C25 6295   4.209   2.919   3.438  0.5552 -0.2529 -0.0294
   72SAPC   H5R 6296   4.300   2.893   3.383 -1.6456 -2.3310 -3.0191
   72SAPC   C26 6297   4.210   3.024   3.525 -0.8459  0.4932  0.2510
   72SAPC   H6R 6298   4.297   3.089   3.535 -1.6316  1.7083 -0.5424
   72SAPC   C27 6299   4.108   3.078   3.623 -0.2383 -0.1344  0.3203
   72SAPC   H7R 6300   4.022   3.101   3.558  0.9904 -0.6778 -1.5745
   72SAPC   H7S 6301   4.131   3.178   3.664  0.8907 -1.0893  2.1767
   72SAPC   C28 6302   4.064   2.982   3.726  0.0955  0.4612 -0.5781
   72SAPC   H8R 6303   4.095   2.876   3.727  0.6336  0.6000 -1.5841
   72SAPC   C29 6304   3.999   3.018   3.838  0.4073 -0.3790  0.2710
   72SAPC   H9R 6305   3.973   2.941   3.912  1.3057 -0.5209  0.4482
   72SAPC  C210 6306   3.972   3.162   3.877  0.0647  0.0895  0.1660
   72SAPC  H10R 6307   3.994   3.236   3.797 -0.0518 -1.3753 -1.2781
   72SAPC  H10S 6308   4.031   3.191   3.967 -1.3234  2.7917  0.3393
   72SAPC  C211 6309   3.823   3.183   3.904  0.0919  0.2368  0.5562
   72SAPC  H11R 6310   3.797   3.141   4.002  1.4584 -1.5545  0.2026
   72SAPC  C212 6311   3.733   3.254   3.834 -0.6524  0.1011 -0.0712
   72SAPC  H12R 6312   3.630   3.254   3.873 -0.9349 -3.1587 -0.5191
   72SAPC  C213 6313   3.747   3.324   3.699  0.1004  0.3896 -0.0223
   72SAPC  H13R 6314   3.829   3.276   3.642 -0.6860  0.1009 -0.9436
   72SAPC  H13S 6315   3.780   3.429   3.714 -0.2767  0.3901  0.8363
   72SAPC  C214 6316   3.618   3.314   3.618  0.5981 -0.4897  0.3135
   72SAPC  H14R 6317   3.531   3.360   3.668  0.2554 -0.7345 -0.0524
   72SAPC  C215 6318   3.603   3.234   3.509  0.5448 -0.1040  0.0522
   72SAPC  H15R 6319   3.502   3.234   3.465  0.4835  0.7469  0.1871
   72SAPC  C216 6320   3.698   3.143   3.437 -0.2039 -0.9351 -0.0372
   72SAPC  H16R 6321   3.652   3.043   3.425 -0.5203 -1.0935  2.1322
   72SAPC  H16S 6322   3.783   3.127   3.506  0.2051  2.1439  0.3358
   72SAPC  C217 6323   3.751   3.204   3.309 -0.4279 -0.3582  0.9813
   72SAPC  H17R 6324   3.848   3.154   3.290 -0.1120 -0.1350  1.9791
   72SAPC  H17S 6325   3.777   3.312   3.318  0.3140 -0.4195 -0.1417
   72SAPC  C218 6326   3.652   3.182   3.185  0.5935 -0.1829  0.4710
   72SAPC  H18R 6327   3.555   3.221   3.222  0.8343  0.7435  0.1625
   72SAPC  H18S 6328   3.631   3.080   3.147  1.7113 -0.4582  0.5613
   72SAPC  C219 6329   3.688   3.273   3.074  0.8528 -0.5269  0.2626
   72SAPC  H19R 6330   3.733   3.368   3.109  1.2577 -1.3081  2.0167
   72SAPC  H19S 6331   3.593   3.312   3.032  0.2343 -1.3907  0.8245
   72SAPC  C220 6332   3.761   3.199   2.965  0.1211  0.3291  0.4918
   72SAPC  H20R 6333   3.702   3.112   2.927  0.6960 -0.0663  0.4887
   72SAPC  H20S 6334   3.854   3.148   2.996 -0.7805 -2.2429 -0.7499
   72SAPC  H20T 6335   3.784   3.273   2.885 -0.4800 -0.0051 -0.0028
   72SAPC   C33 6336   4.150   3.443   3.518  0.5812 -0.7975  0.7266
   72SAPC   H3X 6337   4.225   3.361   3.519 -0.1181 -1.4493  1.6050
   72SAPC   H3Y 6338   4.058   3.429   3.579 -1.3357 -0.4831 -1.8886
   72SAPC   C34 6339   4.225   3.560   3.586  0.2705  0.0429 -0.3093
   72SAPC   H4X 6340   4.160   3.649   3.571 -0.6036 -0.6764 -0.9117
   72SAPC   H4Y 6341   4.319   3.578   3.529  0.6954 -0.7736  0.1247
   72SAPC   C35 6342   4.234   3.525   3.734 -0.3438  0.3287 -0.2202
   72SAPC   H5X 6343   4.329   3.564   3.776 -0.6072 -1.1177  1.8735
   72SAPC   H5Y 6344   4.240   3.416   3.753  2.3496  0.6946  1.6169
   72SAPC   C36 6345   4.119   3.595   3.819 -0.1162 -0.3939  0.5130
   72SAPC   H6X 6346   4.017   3.562   3.787 -0.7394  1.8217 -0.0027
   72SAPC   H6Y 6347   4.122   3.706   3.814  1.1498 -0.4699 -1.4555
   72SAPC   C37 6348   4.115   3.564   3.973  0.9860 -0.3354  0.5786
   72SAPC   H7X 6349   4.208   3.608   4.016  1.8976 -2.5035  0.9645
   72SAPC   H7Y 6350   4.113   3.453   3.980 -0.7388 -0.7034 -3.4655
   72SAPC   C38 6351   3.982   3.596   4.047 -0.6284  0.2684 -0.5695
   72SAPC   H8X 6352   3.895   3.554   3.992 -0.6651  1.2425 -1.2774
   72SAPC   H8Y 6353   3.976   3.703   4.076  0.3098 -0.0707  1.0274
   72SAPC   C39 6354   3.985   3.530   4.189 -0.7405  0.4909 -0.5198
   72SAPC   H9X 6355   4.067   3.586   4.238 -1.6680  0.8959  0.6214
   72SAPC   H9Y 6356   4.012   3.423   4.175  0.2822  0.7718 -0.7730
   72SAPC  C310 6357   3.857   3.539   4.267  0.1359  0.7883 -0.9948
   72SAPC  H10X 6358   3.872   3.498   4.369 -1.1015 -0.1019 -1.1570
   72SAPC  H10Y 6359   3.789   3.474   4.208  1.3197  0.7058 -2.3260
   72SAPC  C311 6360   3.801   3.682   4.278 -0.5242 -0.2860  0.3979
   72SAPC  H11X 6361   3.788   3.737   4.182 -1.5008  0.0559  0.7107
   72SAPC  H11Y 6362   3.874   3.743   4.335  0.5597 -0.1638 -1.0622
   72SAPC  C312 6363   3.656   3.675   4.340 -0.3503 -0.2064  0.0271
   72SAPC  H12X 6364   3.672   3.604   4.423  1.0484  0.6800  0.5501
   72SAPC  H12Y 6365   3.582   3.650   4.261 -1.0711  0.6232  0.4202
   72SAPC  C313 6366   3.595   3.807   4.389  0.0677  0.0454  0.3628
   72SAPC  H13X 6367   3.574   3.878   4.307  2.4510 -0.4778 -0.7950
   72SAPC  H13Y 6368   3.669   3.855   4.456 -2.1386  1.6888  1.7407
   72SAPC  C314 6369   3.468   3.808   4.481 -0.3922 -0.2117  0.0857
   72SAPC  H14X 6370   3.473   3.730   4.560 -0.1388  1.9361  2.3226
   72SAPC  H14Y 6371   3.381   3.797   4.414 -0.4786  0.2491  0.1212
   72SAPC  C315 6372   3.446   3.945   4.552 -0.0882 -0.4098  0.1129
   72SAPC  H15X 6373   3.527   4.018   4.536 -1.4117  0.6856 -2.1917
   72SAPC  H15Y 6374   3.452   3.919   4.660  1.6547  0.2700  0.2124
   72SAPC  C316 6375   3.321   4.012   4.500  0.9538 -0.0701 -0.4525
   72SAPC  H16X 6376   3.244   3.932   4.496  0.0709  0.7736 -0.8068
   72SAPC  H16Y 6377   3.335   4.045   4.395  0.7185  0.9949 -0.1647
   72SAPC  C317 6378   3.263   4.118   4.590  0.4661  0.0559  0.8039
   72SAPC  H17X 6379   3.324   4.211   4.596 -0.2088  0.6051 -0.4365
   72SAPC  H17Y 6380   3.255   4.080   4.694 -1.1610 -0.5810  0.4695
   72SAPC  C318 6381   3.122   4.157   4.542  0.1848 -0.2542 -0.4536
   72SAPC  H18X 6382   3.068   4.069   4.501 -0.0870  1.1992 -3.5445
   72SAPC  H18Y 6383   3.144   4.219   4.452 -0.1138 -2.3400 -2.0438
   72SAPC  H18Z 6384   3.076   4.213   4.626 -0.4319  0.2617 -1.1230
   73SLPC     N 6385   2.954   6.217   7.049 -0.2023  0.4397  0.7621
   73SLPC   C13 6386   2.937   6.080   7.100  0.5349  0.2624 -0.7867
   73SLPC  H13A 6387   3.010   6.018   7.051  1.6341 -0.9537  2.1421
   73SLPC  H13B 6388   2.949   6.086   7.208 -1.6471 -1.6098 -0.3633
   73SLPC  H13C 6389   2.836   6.047   7.082 -0.6637  3.3049 -0.1540
   73SLPC   C14 6390   3.091   6.256   7.091  0.4023  0.0541  0.0045
   73SLPC  H14A 6391   3.104   6.256   7.198  1.1949  0.2914 -0.0856
   73SLPC  H14B 6392   3.165   6.183   7.060  0.8948  1.0388 -1.2422
   73SLPC  H14C 6393   3.123   6.355   7.061 -1.9121  1.9378  3.1563
   73SLPC   C15 6394   2.863   6.314   7.121 -0.1152 -0.5451 -0.2260
   73SLPC  H15A 6395   2.776   6.257   7.149 -0.0692 -0.8457 -0.6806
   73SLPC  H15B 6396   2.903   6.347   7.216  2.3657 -0.5774 -1.1773
   73SLPC  H15C 6397   2.849   6.403   7.062 -1.1332  2.7075  4.4646
   73SLPC   C12 6398   2.947   6.230   6.897  0.2500  0.0420 -0.2559
   73SLPC  H12A 6399   2.962   6.336   6.881 -0.3147  0.0747 -0.6060
   73SLPC  H12B 6400   2.847   6.198   6.873  0.6910 -3.4671  1.9196
   73SLPC   C11 6401   3.041   6.149   6.805 -0.0479  0.1197 -0.9281
   73SLPC  H11A 6402   3.137   6.204   6.803 -0.9596  1.7709 -1.5394
   73SLPC  H11B 6403   3.004   6.157   6.700  1.1839 -1.4233 -1.5332
   73SLPC     P 6404   3.153   5.919   6.771  0.5071 -0.2664  0.4166
   73SLPC   O13 6405   3.284   5.965   6.813  0.0817 -0.3107  0.4517
   73SLPC   O14 6406   3.110   5.776   6.796 -0.1735 -0.2181 -1.0090
   73SLPC   O12 6407   3.054   6.014   6.847 -0.3007 -0.6446 -0.0775
   73SLPC   O11 6408   3.131   5.955   6.616  0.6006 -0.0485 -0.0847
   73SLPC    C1 6409   3.011   5.914   6.549  0.1454 -0.4242  0.7224
   73SLPC    HA 6410   2.978   5.811   6.575 -2.7342 -0.1091 -1.3241
   73SLPC    HB 6411   2.928   5.986   6.563 -0.1176 -0.6339  0.2358
   73SLPC    C2 6412   3.033   5.901   6.389  1.1385  0.0085 -0.4804
   73SLPC    HS 6413   2.944   5.859   6.337  0.9082  1.0861 -0.9814
   73SLPC   O21 6414   3.151   5.825   6.359 -0.9137  0.4106  0.8155
   73SLPC   C21 6415   3.135   5.717   6.278  0.6775 -0.3434  0.1697
   73SLPC   O22 6416   3.027   5.675   6.238  0.2958  0.1727  0.2915
   73SLPC   C22 6417   3.279   5.661   6.240 -0.5304  0.1491 -0.1286
   73SLPC   H2R 6418   3.367   5.721   6.271  0.4804 -1.4738  0.3130
   73SLPC   H2S 6419   3.295   5.559   6.283 -2.8557 -1.5896 -2.9812
   73SLPC    C3 6420   3.056   6.038   6.330 -0.0110  0.2262 -0.0339
   73SLPC    HX 6421   3.144   6.080   6.385  0.8545 -1.0526 -0.3925
   73SLPC    HY 6422   2.980   6.110   6.367  0.9436  0.6986  1.0856
   73SLPC   O31 6423   3.073   6.036   6.183 -0.1637 -0.5567  0.6782
   73SLPC   C31 6424   3.189   6.067   6.129 -0.4621  0.1544  0.5365
   73SLPC   O32 6425   3.299   6.078   6.181  0.7173  0.4071  0.0691
   73SLPC   C32 6426   3.166   6.092   5.976  0.7450  0.5681  0.3280
   73SLPC   H2X 6427   3.065   6.136   5.961  1.1111  0.9017 -1.3969
   73SLPC   H2Y 6428   3.170   5.990   5.933  1.4036  0.2783  1.0609
   73SLPC   C23 6429   3.298   5.652   6.080  0.3557  0.0900  0.4676
   73SLPC   H3R 6430   3.281   5.754   6.040 -0.0888 -0.0553  0.2805
   73SLPC   H3S 6431   3.226   5.591   6.022  1.0824 -1.3350  1.0299
   73SLPC   C24 6432   3.439   5.603   6.047 -0.1258 -0.5356 -0.3773
   73SLPC   H4R 6433   3.447   5.496   6.020  0.3469 -1.0958  1.8322
   73SLPC   H4S 6434   3.500   5.619   6.138  0.9350  0.9221 -1.2911
   73SLPC   C25 6435   3.500   5.685   5.932  0.0713 -0.5171 -0.7024
   73SLPC   H5R 6436   3.598   5.722   5.968 -0.4370 -0.2102  0.4254
   73SLPC   H5S 6437   3.435   5.770   5.904  0.0312 -0.7898 -1.4648
   73SLPC   C26 6438   3.521   5.606   5.799 -0.4512 -0.1163 -0.0588
   73SLPC   H6R 6439   3.600   5.528   5.809  1.2010  1.5363  0.5763
   73SLPC   H6S 6440   3.556   5.681   5.724  1.8645  2.1995  3.0465
   73SLPC   C27 6441   3.389   5.555   5.743  0.9148 -0.0211 -0.0319
   73SLPC   H7R 6442   3.313   5.634   5.760  0.0835 -1.1236  1.6074
   73SLPC   H7S 6443   3.365   5.467   5.806  1.1834 -0.2706 -0.2727
   73SLPC   C28 6444   3.379   5.522   5.597 -0.7134 -0.2024 -0.4932
   73SLPC   H8R 6445   3.446   5.434   5.597 -1.0465 -0.4810  0.8671
   73SLPC   H8S 6446   3.427   5.605   5.540  2.3207 -2.3794 -1.3770
   73SLPC   C29 6447   3.245   5.477   5.542 -0.4962  0.3820 -0.4486
   73SLPC   H9R 6448   3.182   5.457   5.629  0.5846  2.0872  0.7869
   73SLPC  C210 6449   3.204   5.457   5.415  0.1824  0.1904  0.1463
   73SLPC  H10R 6450   3.105   5.413   5.395  0.5336 -1.2535  1.3216
   73SLPC  C211 6451   3.298   5.475   5.299 -0.3532  0.9104 -0.0042
   73SLPC  H11R 6452   3.341   5.377   5.270  0.8320  1.4958 -0.2938
   73SLPC  H11S 6453   3.383   5.537   5.333 -0.1566  0.1038  1.0324
   73SLPC  C212 6454   3.225   5.548   5.185 -0.6999  0.0963 -0.1776
   73SLPC  H12R 6455   3.167   5.636   5.215 -1.7892  0.2108 -2.4467
   73SLPC  C213 6456   3.183   5.499   5.073 -0.1674 -0.0350  0.5406
   73SLPC  H13R 6457   3.105   5.557   5.021  0.1393  0.6142  0.7836
   73SLPC  C214 6458   3.211   5.359   5.023  0.3979  0.6155 -0.3149
   73SLPC  H14R 6459   3.184   5.284   5.101  2.4550  0.8920  0.7213
   73SLPC  H14S 6460   3.321   5.356   5.005  0.4539 -0.2518  0.1146
   73SLPC  C215 6461   3.143   5.322   4.889 -0.2943 -0.1622 -0.3925
   73SLPC  H15R 6462   3.178   5.389   4.807  2.9032  1.1856  1.8450
   73SLPC  H15S 6463   3.033   5.333   4.901 -0.2267 -0.6823  0.8824
   73SLPC  C216 6464   3.164   5.183   4.842  1.2240  0.2448  0.4103
   73SLPC  H16R 6465   3.143   5.107   4.920  0.4889 -0.4368 -0.4295
   73SLPC  H16S 6466   3.269   5.161   4.815  1.5751  0.3129  1.6546
   73SLPC  C217 6467   3.081   5.151   4.722 -0.0282  0.1815 -0.1720
   73SLPC  H17R 6468   3.106   5.207   4.629  0.4059  0.4862  0.1238
   73SLPC  H17S 6469   2.977   5.176   4.750 -1.1583 -1.2840 -2.7476
   73SLPC  C218 6470   3.084   5.004   4.673 -0.5105  0.6064 -0.7100
   73SLPC  H18R 6471   3.038   4.953   4.761  1.9470 -0.1794  0.2055
   73SLPC  H18S 6472   3.188   4.966   4.670 -1.0865 -0.9816 -1.7556
   73SLPC  H18T 6473   3.029   4.989   4.578 -1.8925 -0.0948  0.1663
   73SLPC   C33 6474   3.274   6.181   5.909 -0.0019 -0.3595 -0.6742
   73SLPC   H3X 6475   3.372   6.155   5.955  0.2945  0.2187 -0.9724
   73SLPC   H3Y 6476   3.267   6.290   5.932  1.7167 -0.0417 -1.4889
   73SLPC   C34 6477   3.283   6.171   5.752  0.1976  0.8665 -0.0815
   73SLPC   H4X 6478   3.347   6.254   5.715 -0.3810  1.3649  0.0192
   73SLPC   H4Y 6479   3.187   6.187   5.699  0.1992  0.0451 -0.3377
   73SLPC   C35 6480   3.336   6.039   5.694 -0.8701  0.0054 -0.2541
   73SLPC   H5X 6481   3.260   5.962   5.720  0.8740 -1.2252  1.5180
   73SLPC   H5Y 6482   3.439   6.017   5.730 -0.9750 -0.1666 -0.0550
   73SLPC   C36 6483   3.340   6.037   5.538 -0.2602  0.1315 -0.8717
   73SLPC   H6X 6484   3.364   6.137   5.497 -1.6994  1.6883  1.7831
   73SLPC   H6Y 6485   3.238   6.019   5.498 -1.3642  3.2129  0.2880
   73SLPC   C37 6486   3.432   5.926   5.483  0.0887  0.2590  0.1217
   73SLPC   H7X 6487   3.430   5.830   5.539  0.0138  0.8112  1.0846
   73SLPC   H7Y 6488   3.537   5.959   5.498  0.4043 -0.6959  0.0441
   73SLPC   C38 6489   3.396   5.889   5.337 -0.0480  0.0427  0.0608
   73SLPC   H8X 6490   3.286   5.876   5.324 -0.0970  0.1376  0.3673
   73SLPC   H8Y 6491   3.438   5.789   5.314 -2.1761 -0.4493 -2.1036
   73SLPC   C39 6492   3.441   5.997   5.234  0.2344 -0.4354 -0.5005
   73SLPC   H9X 6493   3.549   5.991   5.213 -0.1026 -0.5356 -2.3974
   73SLPC   H9Y 6494   3.423   6.095   5.285 -0.7309 -2.7772  4.1511
   73SLPC  C310 6495   3.373   5.987   5.095  0.5030 -0.7475  0.5458
   73SLPC  H10X 6496   3.413   6.073   5.036 -0.8963 -1.0083 -0.8404
   73SLPC  H10Y 6497   3.265   6.009   5.106  0.9431  1.6928  0.7103
   73SLPC  C311 6498   3.408   5.852   5.015 -0.1224 -0.2403  0.4088
   73SLPC  H11X 6499   3.372   5.767   5.077 -1.5799 -0.1876 -0.3210
   73SLPC  H11Y 6500   3.518   5.856   5.007 -0.0791  1.4194  1.3202
   73SLPC  C312 6501   3.332   5.844   4.878 -0.1348  0.4478 -0.1495
   73SLPC  H12X 6502   3.366   5.925   4.810 -0.5926  0.7296 -0.0516
   73SLPC  H12Y 6503   3.222   5.860   4.891 -0.3200  0.3449 -1.4873
   73SLPC  C313 6504   3.348   5.710   4.817 -0.5338 -0.1461  0.0268
   73SLPC  H13X 6505   3.277   5.644   4.871  0.7565  0.2047  2.2567
   73SLPC  H13Y 6506   3.444   5.655   4.821 -0.0966  0.6216  0.3479
   73SLPC  C314 6507   3.304   5.711   4.677  0.1558 -0.3896  0.2819
   73SLPC  H14X 6508   3.365   5.790   4.628 -0.6449  1.1396  1.6546
   73SLPC  H14Y 6509   3.201   5.751   4.662  0.8591  2.0686  1.5752
   73SLPC  C315 6510   3.298   5.582   4.598 -0.1400 -0.4033  0.1189
   73SLPC  H15X 6511   3.289   5.603   4.490 -2.4382  0.9369  0.5009
   73SLPC  H15Y 6512   3.201   5.533   4.622  0.1859 -1.9453 -1.5008
   73SLPC  C316 6513   3.403   5.467   4.621 -0.0512  0.0458  0.2647
   73SLPC  H16X 6514   3.394   5.428   4.724  0.2088  0.5493  0.4816
   73SLPC  H16Y 6515   3.502   5.517   4.622 -0.3060  0.6638 -1.2002
   73SLPC  C317 6516   3.409   5.357   4.515 -0.0039  0.6726 -0.3607
   73SLPC  H17X 6517   3.312   5.303   4.519  1.1579 -1.5265 -0.0169
   73SLPC  H17Y 6518   3.499   5.296   4.540 -0.7165 -0.8780 -1.4084
   73SLPC  C318 6519   3.434   5.407   4.370  0.3972 -0.5678  0.7288
   73SLPC  H18X 6520   3.333   5.441   4.339  1.1539 -0.0471 -1.3640
   73SLPC  H18Y 6521   3.473   5.335   4.295  1.9727 -0.7356  1.6634
   73SLPC  H18Z 6522   3.508   5.490   4.366  1.3246 -1.3242  1.6163
   74SLPC     N 6523   3.133   4.685   7.432  0.4351  0.0963 -1.1315
   74SLPC   C13 6524   3.095   4.657   7.573 -0.2239 -0.1250  0.3874
   74SLPC  H13A 6525   3.125   4.739   7.637  1.3250 -2.2040  2.4699
   74SLPC  H13B 6526   2.988   4.642   7.577 -0.1679 -0.5675  0.2704
   74SLPC  H13C 6527   3.141   4.570   7.617 -2.7392 -2.2677 -0.9717
   74SLPC   C14 6528   3.253   4.774   7.451 -0.3805 -0.2352 -0.2159
   74SLPC  H14A 6529   3.323   4.719   7.512 -0.1765 -0.4324 -0.6223
   74SLPC  H14B 6530   3.312   4.791   7.362  0.3063  1.0059  0.4489
   74SLPC  H14C 6531   3.231   4.863   7.507 -0.7546 -0.9663  0.8337
   74SLPC   C15 6532   3.019   4.760   7.365  0.1738 -0.0724  0.0981
   74SLPC  H15A 6533   2.925   4.707   7.379 -1.0945  2.3969  1.6745
   74SLPC  H15B 6534   3.007   4.850   7.423 -1.7304 -0.9479  1.1882
   74SLPC  H15C 6535   3.030   4.784   7.261 -0.0006  0.6734  0.2442
   74SLPC   C12 6536   3.166   4.552   7.361  0.1768 -0.4197 -0.1843
   74SLPC  H12A 6537   3.075   4.494   7.369  0.0271 -0.2244 -0.4313
   74SLPC  H12B 6538   3.241   4.495   7.412  1.4969 -0.3412 -1.9307
   74SLPC   C11 6539   3.202   4.555   7.207  0.5439 -0.3959 -1.0810
   74SLPC  H11A 6540   3.109   4.572   7.149 -0.2791 -1.2068 -0.0487
   74SLPC  H11B 6541   3.244   4.459   7.169  0.9802 -0.6352 -0.0341
   74SLPC     P 6542   3.315   4.769   7.088 -0.0999  0.4661 -0.3377
   74SLPC   O13 6543   3.306   4.887   7.167  0.6585  0.0581  0.1107
   74SLPC   O14 6544   3.449   4.740   7.022  0.2665 -0.1374 -0.4141
   74SLPC   O12 6545   3.309   4.646   7.184 -0.0897  0.1921 -0.3952
   74SLPC   O11 6546   3.201   4.764   6.976 -0.4362 -0.4133 -0.0625
   74SLPC    C1 6547   3.197   4.679   6.867 -0.0865  0.5039  0.4666
   74SLPC    HA 6548   3.283   4.698   6.799 -0.2602  0.7642  0.3161
   74SLPC    HB 6549   3.210   4.573   6.898 -0.7896 -0.7220 -3.0799
   74SLPC    C2 6550   3.054   4.687   6.803 -0.1113 -0.3407 -0.4997
   74SLPC    HS 6551   3.052   4.622   6.713 -1.7019 -0.8628 -0.1194
   74SLPC   O21 6552   3.023   4.821   6.759  0.0255 -0.2110  0.3027
   74SLPC   C21 6553   3.094   4.858   6.659 -0.7838 -0.8622  0.6606
   74SLPC   O22 6554   3.150   4.779   6.582 -0.0545  0.3342 -0.1549
   74SLPC   C22 6555   3.098   5.002   6.644 -0.1432 -0.2752  0.4172
   74SLPC   H2R 6556   3.066   5.061   6.733  0.3867  0.1049  0.3593
   74SLPC   H2S 6557   3.202   5.031   6.621 -0.5497  0.7492 -0.1933
   74SLPC    C3 6558   2.934   4.633   6.896 -0.5223  0.1217  0.0380
   74SLPC    HX 6559   2.938   4.690   6.991  0.3749 -0.5514  0.4142
   74SLPC    HY 6560   2.960   4.530   6.928  1.0514  0.3777 -0.3657
   74SLPC   O31 6561   2.804   4.630   6.834 -0.0950 -0.7493  0.2325
   74SLPC   C31 6562   2.716   4.736   6.862  0.4165 -0.1816  0.3489
   74SLPC   O32 6563   2.738   4.825   6.943  0.9339  0.6131 -0.5990
   74SLPC   C32 6564   2.609   4.738   6.757  0.6869  0.9527 -0.3854
   74SLPC   H2X 6565   2.512   4.774   6.798  0.9882  1.1371  0.1677
   74SLPC   H2Y 6566   2.593   4.635   6.718  0.1082  0.7222  0.4351
   74SLPC   C23 6567   3.001   5.044   6.529 -0.5105 -0.6136 -0.3140
   74SLPC   H3R 6568   2.898   5.050   6.570  0.1120  0.9427  1.1482
   74SLPC   H3S 6569   2.994   4.964   6.452 -0.0926 -1.9245  0.9668
   74SLPC   C24 6570   3.055   5.173   6.464 -0.3603 -0.2957 -0.2612
   74SLPC   H4R 6571   3.149   5.149   6.409 -0.6049  0.5663 -1.0850
   74SLPC   H4S 6572   3.084   5.245   6.544  0.5725  1.0973 -1.7964
   74SLPC   C25 6573   2.963   5.234   6.368  0.6240 -0.8065  0.8376
   74SLPC   H5R 6574   2.950   5.339   6.402  3.7329  0.1913 -0.6596
   74SLPC   H5S 6575   2.865   5.182   6.369  0.1202  0.1200  1.3198
   74SLPC   C26 6576   3.013   5.248   6.231  0.4226  0.0566  0.5248
   74SLPC   H6R 6577   3.061   5.155   6.193  1.8977  1.0978 -0.2737
   74SLPC   H6S 6578   3.096   5.319   6.251  1.0123 -0.7194  0.9051
   74SLPC   C27 6579   2.923   5.306   6.122  0.4256 -0.1014 -0.4636
   74SLPC   H7R 6580   2.873   5.384   6.184  0.5501 -0.8041  0.5493
   74SLPC   H7S 6581   2.850   5.228   6.091 -0.2744  0.5383 -0.4444
   74SLPC   C28 6582   2.990   5.363   6.002 -1.2087  0.3508 -0.4939
   74SLPC   H8R 6583   3.071   5.288   5.992 -0.8091  0.4650  1.3721
   74SLPC   H8S 6584   3.043   5.454   6.038 -0.2760 -0.9956  1.8031
   74SLPC   C29 6585   2.904   5.382   5.878 -0.2363 -0.2864 -1.0551
   74SLPC   H9R 6586   2.863   5.290   5.833 -1.5557 -0.8537  1.0954
   74SLPC  C210 6587   2.871   5.501   5.826  0.6614  0.6120 -0.2396
   74SLPC  H10R 6588   2.827   5.489   5.725 -2.7918 -1.2857  1.3116
   74SLPC  C211 6589   2.888   5.642   5.869 -0.0809 -0.6217 -0.2065
   74SLPC  H11R 6590   2.906   5.642   5.979  1.1566  1.5529 -0.3460
   74SLPC  H11S 6591   2.797   5.699   5.839 -0.7252 -1.7417 -0.4540
   74SLPC  C212 6592   3.017   5.702   5.814 -0.0507  0.1782 -0.2291
   74SLPC  H12R 6593   3.108   5.710   5.875  0.7482  2.0401 -1.5634
   74SLPC  C213 6594   3.034   5.738   5.684 -0.0120  0.2985 -0.3217
   74SLPC  H13R 6595   3.126   5.793   5.657 -0.5624  1.6949  0.5423
   74SLPC  C214 6596   2.933   5.741   5.576  0.3235  0.0770  0.0140
   74SLPC  H14R 6597   2.837   5.788   5.606 -0.7516  0.2855 -3.3935
   74SLPC  H14S 6598   2.906   5.637   5.548  1.0815 -0.0471 -0.2743
   74SLPC  C215 6599   2.980   5.817   5.455  0.6732  0.0470 -0.3003
   74SLPC  H15R 6600   3.071   5.772   5.410 -0.4880 -0.4064 -2.2838
   74SLPC  H15S 6601   3.018   5.916   5.490  1.2577 -0.8586  1.7781
   74SLPC  C216 6602   2.878   5.820   5.338  0.2832  0.2893  0.5882
   74SLPC  H16R 6603   2.784   5.864   5.377  0.7976  1.5065  0.5124
   74SLPC  H16S 6604   2.854   5.718   5.301 -1.2460  0.1585  1.8626
   74SLPC  C217 6605   2.899   5.921   5.218 -0.1636  0.3438 -0.1230
   74SLPC  H17R 6606   2.910   6.026   5.252 -0.2432  0.6020 -0.8645
   74SLPC  H17S 6607   2.800   5.924   5.166 -0.6404 -1.0199  0.6639
   74SLPC  C218 6608   3.007   5.873   5.126  0.7630  0.3533  0.1038
   74SLPC  H18R 6609   2.980   5.767   5.106  1.3524  0.2406 -0.1091
   74SLPC  H18S 6610   3.110   5.873   5.169  1.1133 -0.9274 -0.6784
   74SLPC  H18T 6611   3.012   5.926   5.029  1.0735 -0.6176 -0.4217
   74SLPC   C33 6612   2.629   4.838   6.639 -0.2087  0.5036  0.1991
   74SLPC   H3X 6613   2.703   4.917   6.663 -0.7264  0.7177  1.1482
   74SLPC   H3Y 6614   2.537   4.897   6.619  0.6538  1.5989 -0.6101
   74SLPC   C34 6615   2.687   4.769   6.506  0.3139 -0.7278  0.3433
   74SLPC   H4X 6616   2.625   4.681   6.478 -1.4102 -0.1307  2.1554
   74SLPC   H4Y 6617   2.791   4.730   6.516  0.7752  0.4504  0.2839
   74SLPC   C35 6618   2.680   4.853   6.378  0.2148  0.5657 -0.2512
   74SLPC   H5X 6619   2.734   4.945   6.408 -0.1938  0.6407  0.2782
   74SLPC   H5Y 6620   2.574   4.876   6.357 -0.8781 -2.4762  1.3448
   74SLPC   C36 6621   2.755   4.796   6.254  0.2945 -0.6603 -0.7408
   74SLPC   H6X 6622   2.694   4.719   6.203 -0.8716 -0.3394  0.1127
   74SLPC   H6Y 6623   2.854   4.760   6.288 -0.4752 -2.8163 -0.6738
   74SLPC   C37 6624   2.777   4.908   6.140 -0.1855  0.3247 -0.5295
   74SLPC   H7X 6625   2.843   4.979   6.195 -1.7051  0.7512  0.8102
   74SLPC   H7Y 6626   2.686   4.966   6.113 -0.3545 -0.1388 -0.9744
   74SLPC   C38 6627   2.854   4.855   6.023  0.1280  0.4795 -0.1828
   74SLPC   H8X 6628   2.798   4.771   5.976 -1.6858 -0.6534  3.5523
   74SLPC   H8Y 6629   2.952   4.814   6.055 -0.6665  0.2267  2.1171
   74SLPC   C39 6630   2.864   4.958   5.911 -0.6476  0.2580 -0.4174
   74SLPC   H9X 6631   2.919   5.050   5.943 -1.4751  0.1114  1.5331
   74SLPC   H9Y 6632   2.762   4.997   5.892 -0.1353  1.0037 -1.8242
   74SLPC  C310 6633   2.910   4.909   5.776 -0.1103 -0.2927 -0.4701
   74SLPC  H10X 6634   2.850   4.817   5.765 -0.9543 -0.2414  2.6490
   74SLPC  H10Y 6635   3.017   4.881   5.767 -0.0900 -0.2736 -0.3031
   74SLPC  C311 6636   2.869   5.007   5.664  0.1721  0.6156  0.0758
   74SLPC  H11X 6637   2.774   5.056   5.692  0.3861  0.4919  1.0699
   74SLPC  H11Y 6638   2.850   4.962   5.564 -2.4953 -0.0203  0.7978
   74SLPC  C312 6639   2.975   5.115   5.639  0.0106 -0.0372 -0.6156
   74SLPC  H12X 6640   3.066   5.078   5.587 -0.5112  0.2920 -1.8099
   74SLPC  H12Y 6641   3.013   5.154   5.736 -0.4103 -1.3397  0.0923
   74SLPC  C313 6642   2.924   5.225   5.552  0.0849  0.4295  0.4858
   74SLPC  H13X 6643   2.984   5.317   5.565 -0.5689  0.9501 -0.1390
   74SLPC  H13Y 6644   2.823   5.243   5.593  0.0648 -2.4172  1.9406
   74SLPC  C314 6645   2.926   5.173   5.409 -0.0376 -0.5091 -0.2865
   74SLPC  H14X 6646   2.892   5.067   5.405 -1.2240 -0.1458 -0.1233
   74SLPC  H14Y 6647   3.025   5.182   5.359 -1.4478  1.3380 -2.9461
   74SLPC  C315 6648   2.844   5.264   5.314  0.2233 -0.4388 -0.3063
   74SLPC  H15X 6649   2.874   5.369   5.333 -0.3167 -0.0534 -1.4999
   74SLPC  H15Y 6650   2.735   5.266   5.333  0.2858  2.2336  0.1875
   74SLPC  C316 6651   2.864   5.228   5.168 -0.1676  0.5635  0.0524
   74SLPC  H16X 6652   2.970   5.220   5.137  0.1481  1.6981  0.7697
   74SLPC  H16Y 6653   2.819   5.310   5.108 -0.1531  1.1869  0.8781
   74SLPC  C317 6654   2.801   5.094   5.123 -0.6188 -0.1672  0.1322
   74SLPC  H17X 6655   2.691   5.100   5.140 -0.5818 -2.1961  1.4257
   74SLPC  H17Y 6656   2.834   5.015   5.194  0.9564 -0.4800 -0.8767
   74SLPC  C318 6657   2.842   5.049   4.983  0.4236  0.1299  0.0413
   74SLPC  H18X 6658   2.799   4.951   4.955 -1.7734  1.2962 -0.8523
   74SLPC  H18Y 6659   2.953   5.045   4.979  0.5841  2.7422  0.2623
   74SLPC  H18Z 6660   2.808   5.126   4.912  1.7138  0.4459 -0.2720
   75SLPC     N 6661   6.920   0.342   6.707  0.2994 -0.0220 -0.6555
   75SLPC   C13 6662   6.823   0.394   6.600 -0.0231  0.0373  0.5256
   75SLPC  H13A 6663   6.872   0.457   6.526  3.3226 -4.2974 -1.4086
   75SLPC  H13B 6664   6.789   0.305   6.550  2.7756 -1.8071  1.6521
   75SLPC  H13C 6665   6.738   0.443   6.644 -2.0717 -3.6266  1.0331
   75SLPC   C14 6666   6.848   0.244   6.796  0.0395  0.4353 -0.0527
   75SLPC  H14A 6667   6.911   0.206   6.875  1.5307 -0.4627 -1.6016
   75SLPC  H14B 6668   6.750   0.273   6.830 -0.5654 -1.1416 -0.3925
   75SLPC  H14C 6669   6.829   0.155   6.738  3.3110 -0.4504  0.0004
   75SLPC   C15 6670   6.962   0.452   6.803 -0.2926 -0.0565 -0.1326
   75SLPC  H15A 6671   7.042   0.508   6.758 -0.1545 -0.8071 -0.8465
   75SLPC  H15B 6672   6.867   0.504   6.812 -0.0045  0.5800 -0.7693
   75SLPC  H15C 6673   6.994   0.412   6.899  2.0387  1.3296 -0.2579
   75SLPC   C12 6674   7.047   0.276   6.648 -0.7898  0.1228  0.5477
   75SLPC  H12A 6675   7.018   0.177   6.617  0.4357  0.7473 -3.0647
   75SLPC  H12B 6676   7.121   0.263   6.726 -1.2142 -2.0977  0.6338
   75SLPC   C11 6677   7.123   0.342   6.536  0.0416 -0.1453  0.1040
   75SLPC  H11A 6678   7.060   0.329   6.446  0.5544 -2.8871  0.0311
   75SLPC  H11B 6679   7.226   0.301   6.529  0.0338 -0.3157  0.8453
   75SLPC     P 6680   7.113   0.611   6.496 -0.2720  0.0787 -0.1721
   75SLPC   O13 6681   6.970   0.632   6.485  0.2368 -1.0472 -0.7835
   75SLPC   O14 6682   7.196   0.714   6.563  0.0590 -0.3134  0.2712
   75SLPC   O12 6683   7.140   0.478   6.577 -0.4273  0.2073  0.3853
   75SLPC   O11 6684   7.166   0.589   6.346 -0.9031 -0.3861  0.2766
   75SLPC    C1 6685   7.304   0.564   6.315  0.0945  0.3752 -0.4191
   75SLPC    HA 6686   7.365   0.527   6.400 -1.0294 -0.5711  0.0113
   75SLPC    HB 6687   7.317   0.490   6.234 -0.6539  0.2995 -0.4771
   75SLPC    C2 6688   7.375   0.700   6.280  0.1288  0.2208 -0.0761
   75SLPC    HS 6689   7.347   0.773   6.359  1.1118  0.3248  0.1967
   75SLPC   O21 6690   7.328   0.750   6.150  0.1483  0.2413 -0.1753
   75SLPC   C21 6691   7.315   0.879   6.137  0.5005 -0.2686 -0.1991
   75SLPC   O22 6692   7.351   0.958   6.227  0.1284 -0.0869  0.0912
   75SLPC   C22 6693   7.266   0.904   5.999 -0.3697 -0.7087 -0.2129
   75SLPC   H2R 6694   7.158   0.930   6.005 -0.2721 -0.3580  0.0528
   75SLPC   H2S 6695   7.320   0.993   5.960 -0.0384 -0.5740  0.5555
   75SLPC    C3 6696   7.529   0.702   6.275  0.2796  0.5394  0.3664
   75SLPC    HX 6697   7.560   0.613   6.216  0.6321 -1.6885  3.6840
   75SLPC    HY 6698   7.564   0.675   6.377  2.0443 -3.2940 -1.0664
   75SLPC   O31 6699   7.598   0.819   6.224 -0.7337 -0.1795 -0.0283
   75SLPC   C31 6700   7.726   0.809   6.185 -0.0479  0.4290  0.5306
   75SLPC   O32 6701   7.788   0.707   6.173 -0.6350  0.1131  0.3286
   75SLPC   C32 6702   7.769   0.939   6.121  0.2324 -0.2999 -0.1482
   75SLPC   H2X 6703   7.739   1.024   6.187 -1.3853 -1.2252  0.3548
   75SLPC   H2Y 6704   7.705   0.962   6.033 -0.9139  0.6867  0.9027
   75SLPC   C23 6705   7.281   0.781   5.904  0.0622 -0.6969  0.0885
   75SLPC   H3R 6706   7.230   0.689   5.939  0.4688 -0.7813  0.4607
   75SLPC   H3S 6707   7.389   0.759   5.889  0.2326 -0.7316  1.3063
   75SLPC   C24 6708   7.202   0.802   5.768  0.1737  0.2435  0.5245
   75SLPC   H4R 6709   7.234   0.899   5.725  1.3119  0.0447  0.8851
   75SLPC   H4S 6710   7.093   0.806   5.790 -0.4107 -5.1224 -0.0119
   75SLPC   C25 6711   7.220   0.700   5.658 -0.5710 -0.8921  0.8812
   75SLPC   H5R 6712   7.170   0.604   5.684 -0.1151 -1.4924 -0.3758
   75SLPC   H5S 6713   7.327   0.688   5.632 -0.9545 -0.4560 -1.1485
   75SLPC   C26 6714   7.148   0.746   5.524 -0.1934 -0.2735 -0.4371
   75SLPC   H6R 6715   7.196   0.845   5.510  2.1946 -1.1303  1.0679
   75SLPC   H6S 6716   7.039   0.742   5.545 -0.2438  0.2307 -0.5847
   75SLPC   C27 6717   7.179   0.668   5.399  0.1217 -0.2063  1.0320
   75SLPC   H7R 6718   7.111   0.579   5.399  1.8485 -1.5804  1.8319
   75SLPC   H7S 6719   7.284   0.633   5.395  0.4184  0.7686 -0.1213
   75SLPC   C28 6720   7.139   0.759   5.281  0.0877  0.3291  0.1435
   75SLPC   H8R 6721   7.209   0.845   5.279  1.5510 -0.5787  3.7505
   75SLPC   H8S 6722   7.038   0.804   5.290 -0.3491 -0.3459 -1.1714
   75SLPC   C29 6723   7.164   0.688   5.154  0.0472  0.1214  0.4640
   75SLPC   H9R 6724   7.246   0.616   5.153  2.2662  2.5009 -0.0367
   75SLPC  C210 6725   7.113   0.718   5.032  0.0589 -0.3017  0.2276
   75SLPC  H10R 6726   7.132   0.639   4.958 -0.9070  1.3915 -1.9540
   75SLPC  C211 6727   7.007   0.827   5.000  0.9429  0.3092 -0.0557
   75SLPC  H11R 6728   7.045   0.919   5.048 -1.6325  0.2977  2.2728
   75SLPC  H11S 6729   6.918   0.809   5.064  1.8504  1.5562  1.6089
   75SLPC  C212 6730   6.973   0.837   4.853 -0.2638  0.3427 -0.0051
   75SLPC  H12R 6731   6.993   0.934   4.807 -1.2529  0.1031 -0.9721
   75SLPC  C213 6732   6.914   0.743   4.781  0.9160  0.3170  0.1645
   75SLPC  H13R 6733   6.889   0.756   4.675  0.2562  0.4648  0.3347
   75SLPC  C214 6734   6.865   0.611   4.841 -0.0039 -0.0093  0.2661
   75SLPC  H14R 6735   6.762   0.580   4.813  1.1441 -1.3001 -3.0429
   75SLPC  H14S 6736   6.877   0.608   4.951  1.0937 -2.6128  0.1673
   75SLPC  C215 6737   6.953   0.501   4.782 -0.2605 -0.2401  0.3776
   75SLPC  H15R 6738   7.061   0.527   4.788 -0.3318  0.0138  0.5957
   75SLPC  H15S 6739   6.927   0.486   4.676 -1.3873  1.7127  0.3304
   75SLPC  C216 6740   6.942   0.366   4.860  0.1548 -0.0828  0.5021
   75SLPC  H16R 6741   6.991   0.292   4.793  0.2916  0.6129 -0.1814
   75SLPC  H16S 6742   6.836   0.333   4.866 -0.3159  1.3814  0.5799
   75SLPC  C217 6743   7.009   0.363   4.998 -0.1630  0.6298 -0.1105
   75SLPC  H17R 6744   6.957   0.432   5.068 -0.5396 -0.1729  0.4104
   75SLPC  H17S 6745   7.107   0.407   4.972 -1.5043  2.9965 -1.6464
   75SLPC  C218 6746   7.027   0.228   5.060 -0.0283  0.1770  0.2516
   75SLPC  H18R 6747   7.090   0.238   5.151  1.3580 -1.7299 -0.4329
   75SLPC  H18S 6748   7.077   0.164   4.985 -1.3740 -0.4149 -0.1846
   75SLPC  H18T 6749   6.927   0.186   5.087  0.6480 -1.0431  0.9731
   75SLPC   C33 6750   7.912   0.909   6.077 -0.3310 -0.0678 -0.3270
   75SLPC   H3X 6751   7.918   0.832   5.997  2.2670 -1.7109  1.2926
   75SLPC   H3Y 6752   7.964   0.867   6.166 -2.9357 -1.1062  0.8222
   75SLPC   C34 6753   7.998   1.033   6.038 -0.7722 -0.3477 -0.0055
   75SLPC   H4X 6754   8.108   1.019   6.030  0.0509  3.2291  2.5197
   75SLPC   H4Y 6755   7.976   1.106   6.119 -2.6685 -2.4375  1.4815
   75SLPC   C35 6756   7.954   1.109   5.906 -0.1710  0.1801  0.4551
   75SLPC   H5X 6757   8.014   1.203   5.903 -0.2618  0.2171 -2.0950
   75SLPC   H5Y 6758   7.844   1.123   5.900 -0.0824  0.5973 -0.3661
   75SLPC   C36 6759   8.012   1.040   5.782  0.0243 -0.1263 -0.1999
   75SLPC   H6X 6760   7.950   0.949   5.767 -2.7471  1.2332  1.9027
   75SLPC   H6Y 6761   8.119   1.015   5.796 -0.2039 -0.3875  1.2905
   75SLPC   C37 6762   8.009   1.125   5.649  0.0356  0.2355 -0.4234
   75SLPC   H7X 6763   8.076   1.212   5.665  1.9434 -1.0298 -1.1879
   75SLPC   H7Y 6764   7.905   1.166   5.643 -0.5538 -1.0838  0.4828
   75SLPC   C38 6765   8.059   1.054   5.522 -0.7260  0.1102 -0.3125
   75SLPC   H8X 6766   8.000   0.962   5.505 -1.8261  1.0067 -1.5870
   75SLPC   H8Y 6767   8.167   1.031   5.532  0.2959  4.7144  1.9268
   75SLPC   C39 6768   8.044   1.145   5.403  0.8612  0.4598  0.5997
   75SLPC   H9X 6769   8.113   1.233   5.409  2.4135 -0.5553 -1.2249
   75SLPC   H9Y 6770   7.941   1.182   5.386  1.0632  0.5150 -0.5517
   75SLPC  C310 6771   8.093   1.079   5.270 -0.4292 -0.4621  0.1219
   75SLPC  H10X 6772   8.037   0.986   5.247 -1.4577  0.0393  0.5674
   75SLPC  H10Y 6773   8.196   1.039   5.283 -0.2039 -0.2668 -0.9560
   75SLPC  C311 6774   8.110   1.170   5.150  0.2215 -0.4092 -0.5022
   75SLPC  H11X 6775   8.164   1.261   5.185 -1.8590  0.5782  0.2653
   75SLPC  H11Y 6776   8.017   1.196   5.096  0.6103  0.0634 -0.9554
   75SLPC  C312 6777   8.195   1.093   5.038 -0.1768  0.2036  0.4976
   75SLPC  H12X 6778   8.280   1.035   5.081 -0.7087 -1.1559 -0.2322
   75SLPC  H12Y 6779   8.238   1.158   4.959  2.2635 -2.4630 -0.5551
   75SLPC  C313 6780   8.093   0.996   4.971 -0.2715  0.6321 -0.3032
   75SLPC  H13X 6781   8.033   0.944   5.049  0.0687  1.0893  0.2714
   75SLPC  H13Y 6782   8.138   0.912   4.914 -3.4198 -0.9897 -0.6283
   75SLPC  C314 6783   8.008   1.071   4.870  0.1263  0.4001 -0.0953
   75SLPC  H14X 6784   8.074   1.130   4.803  0.6497  0.6046  0.5884
   75SLPC  H14Y 6785   7.950   1.153   4.919 -0.3541  0.4259 -0.7011
   75SLPC  C315 6786   7.909   0.980   4.800 -0.2804 -0.1486  0.3496
   75SLPC  H15X 6787   7.842   1.038   4.733  1.0109 -2.3628 -3.1169
   75SLPC  H15Y 6788   7.854   0.929   4.882  0.5916 -0.8953  0.4797
   75SLPC  C316 6789   7.977   0.876   4.715 -0.6510 -0.3091  0.7007
   75SLPC  H16X 6790   7.901   0.809   4.671 -0.2107 -2.0384  2.4521
   75SLPC  H16Y 6791   8.041   0.814   4.781 -1.0200 -0.5092  0.8684
   75SLPC  C317 6792   8.040   0.934   4.594 -0.8612 -0.1334  0.9583
   75SLPC  H17X 6793   8.124   1.003   4.618 -0.8873 -0.0768  0.8855
   75SLPC  H17Y 6794   7.963   0.980   4.529  1.2307  1.3834 -0.5753
   75SLPC  C318 6795   8.113   0.826   4.508 -0.3506 -0.1161 -0.1356
   75SLPC  H18X 6796   8.145   0.873   4.412 -0.9939 -0.9515 -0.7745
   75SLPC  H18Y 6797   8.056   0.733   4.489 -1.6996  0.8574 -1.0653
   75SLPC  H18Z 6798   8.205   0.788   4.559 -1.5799 -2.1867  0.6522
   76SLPC     N 6799   5.040   5.327   6.755  0.0168 -0.1929 -0.1780
   76SLPC   C13 6800   4.972   5.206   6.825  0.5373 -0.7048 -0.1708
   76SLPC  H13A 6801   4.901   5.159   6.758  0.6900 -1.8127  0.4288
   76SLPC  H13B 6802   5.039   5.124   6.846  0.8413 -0.4724 -0.2300
   76SLPC  H13C 6803   4.921   5.243   6.912  2.2323  1.2662  0.0640
   76SLPC   C14 6804   5.090   5.282   6.623  0.0927 -0.1156 -0.1411
   76SLPC  H14A 6805   5.005   5.258   6.560 -0.5676  1.5969  0.0460
   76SLPC  H14B 6806   5.132   5.368   6.573  2.1279 -2.0533 -1.9623
   76SLPC  H14C 6807   5.155   5.196   6.627 -0.3040 -0.4381 -0.4449
   76SLPC   C15 6808   5.164   5.355   6.843 -0.1116 -0.1860 -0.0018
   76SLPC  H15A 6809   5.219   5.437   6.798  2.1698 -2.1534 -1.0428
   76SLPC  H15B 6810   5.140   5.373   6.946  0.9182 -0.4342  0.2961
   76SLPC  H15C 6811   5.223   5.265   6.841  1.2541  0.6395  1.2660
   76SLPC   C12 6812   4.957   5.449   6.735  0.0108 -0.0119 -0.4701
   76SLPC  H12A 6813   4.932   5.493   6.831  1.3355  3.1347 -1.4390
   76SLPC  H12B 6814   4.858   5.427   6.699 -2.4825  2.0461  4.1614
   76SLPC   C11 6815   5.014   5.566   6.648  0.3927 -0.0929  0.8247
   76SLPC  H11A 6816   4.955   5.658   6.670  1.1481  2.4128 -5.4494
   76SLPC  H11B 6817   5.000   5.550   6.539  1.7659  0.0293  0.6033
   76SLPC     P 6818   5.227   5.716   6.656  0.1273  0.1924 -0.0368
   76SLPC   O13 6819   5.151   5.826   6.716 -0.0247  0.0169 -0.0472
   76SLPC   O14 6820   5.363   5.680   6.709  0.8450  0.0049 -0.5995
   76SLPC   O12 6821   5.151   5.581   6.676 -0.2308 -0.0857 -0.2329
   76SLPC   O11 6822   5.237   5.730   6.497 -0.2922 -0.3940  0.3050
   76SLPC    C1 6823   5.157   5.830   6.427  0.1351  0.2497  0.0346
   76SLPC    HA 6824   5.052   5.824   6.463  0.8703  0.2697  2.3357
   76SLPC    HB 6825   5.199   5.929   6.454 -2.5101  1.2410  0.8171
   76SLPC    C2 6826   5.163   5.820   6.276 -0.5631  0.2601  0.3103
   76SLPC    HS 6827   5.131   5.716   6.255  0.5957 -0.0089 -0.1981
   76SLPC   O21 6828   5.295   5.839   6.234 -0.1644 -0.2118 -0.1528
   76SLPC   C21 6829   5.342   5.753   6.138 -0.2648 -0.3115  0.6873
   76SLPC   O22 6830   5.266   5.676   6.081 -0.1387 -0.3341 -0.1841
   76SLPC   C22 6831   5.496   5.756   6.121  0.3823  0.5330 -0.4982
   76SLPC   H2R 6832   5.542   5.856   6.106  1.3581  0.0266 -0.9000
   76SLPC   H2S 6833   5.521   5.715   6.221 -3.0211  0.5829  0.5335
   76SLPC    C3 6834   5.066   5.925   6.212 -0.3448 -0.0723  0.4087
   76SLPC    HX 6835   5.114   6.022   6.238 -0.6953  1.0519 -2.7095
   76SLPC    HY 6836   4.960   5.922   6.246 -0.5021  1.9879  0.2574
   76SLPC   O31 6837   5.076   5.911   6.067  0.1541  0.9519 -0.0061
   76SLPC   C31 6838   4.993   5.816   6.016  0.0281  0.3664 -0.1972
   76SLPC   O32 6839   4.925   5.738   6.078  0.0341  0.0830 -0.0130
   76SLPC   C32 6840   4.984   5.834   5.869  0.3895 -0.6584  1.0298
   76SLPC   H2X 6841   5.084   5.860   5.827 -1.1431  0.5624 -2.1454
   76SLPC   H2Y 6842   4.912   5.914   5.843 -0.4451 -1.1422  1.7722
   76SLPC   C23 6843   5.542   5.657   6.012 -0.4442  0.5257  0.3841
   76SLPC   H3R 6844   5.477   5.567   6.015  1.8633 -1.2282  0.6160
   76SLPC   H3S 6845   5.640   5.618   6.048 -0.5802  2.4626  3.1293
   76SLPC   C24 6846   5.579   5.714   5.882  0.0217  0.4333  0.4859
   76SLPC   H4R 6847   5.631   5.637   5.821 -0.6033  1.2157 -1.0892
   76SLPC   H4S 6848   5.658   5.793   5.883  0.4510  0.5465 -5.1949
   76SLPC   C25 6849   5.455   5.751   5.798 -0.2739  0.1962  0.5442
   76SLPC   H5R 6850   5.413   5.846   5.838 -1.9744 -0.6673  0.9067
   76SLPC   H5S 6851   5.382   5.669   5.813 -0.7657  0.2678 -1.2247
   76SLPC   C26 6852   5.483   5.768   5.651  0.5482  0.0441  0.7565
   76SLPC   H6R 6853   5.551   5.694   5.604 -0.7492  0.1004 -1.3505
   76SLPC   H6S 6854   5.523   5.871   5.638  2.2700 -0.8305 -1.6490
   76SLPC   C27 6855   5.352   5.773   5.554  0.3987 -0.4572  0.2134
   76SLPC   H7R 6856   5.283   5.850   5.593 -2.7504 -2.1006 -1.7129
   76SLPC   H7S 6857   5.300   5.675   5.553  1.0775 -0.8278 -1.0508
   76SLPC   C28 6858   5.382   5.808   5.401 -0.1645  0.1976 -0.7077
   76SLPC   H8R 6859   5.446   5.898   5.404  0.1802 -0.0696  1.3513
   76SLPC   H8S 6860   5.287   5.838   5.351 -1.3525 -2.0038  0.0817
   76SLPC   C29 6861   5.426   5.697   5.305  0.1480  0.2946 -0.7986
   76SLPC   H9R 6862   5.373   5.601   5.315 -0.4788  0.5457 -1.6042
   76SLPC  C210 6863   5.517   5.694   5.209 -0.4525  0.4872 -0.4688
   76SLPC  H10R 6864   5.527   5.600   5.153  0.3609 -0.5547  1.3234
   76SLPC  C211 6865   5.608   5.808   5.173 -0.3111  0.3310 -0.3527
   76SLPC  H11R 6866   5.672   5.831   5.261 -3.3626  1.0934  1.8512
   76SLPC  H11S 6867   5.539   5.895   5.167  1.0062  1.5058  0.8176
   76SLPC  C212 6868   5.689   5.783   5.049 -0.1761 -0.2720  0.1190
   76SLPC  H12R 6869   5.649   5.831   4.958 -1.5223 -0.7396  0.4412
   76SLPC  C213 6870   5.802   5.709   5.042  0.3395 -0.0528  0.4535
   76SLPC  H13R 6871   5.844   5.703   4.940 -0.2047  1.6754  0.0980
   76SLPC  C214 6872   5.872   5.628   5.151 -0.0060 -1.0024  0.6837
   76SLPC  H14R 6873   5.816   5.611   5.245 -0.6699 -1.9609  0.1362
   76SLPC  H14S 6874   5.967   5.678   5.176 -0.7768  2.4514 -2.3773
   76SLPC  C215 6875   5.883   5.484   5.095  0.3546 -0.8153  0.2361
   76SLPC  H15R 6876   5.928   5.478   4.993 -0.3845 -3.0907 -0.0349
   76SLPC  H15S 6877   5.787   5.429   5.084  0.7930 -1.3668 -1.0985
   76SLPC  C216 6878   5.975   5.391   5.173  0.6453 -0.2857 -0.1018
   76SLPC  H16R 6879   5.922   5.359   5.266  0.0280 -0.3469 -0.4670
   76SLPC  H16S 6880   6.063   5.450   5.207  0.1730  1.2072 -1.3478
   76SLPC  C217 6881   6.011   5.264   5.096 -1.5477  0.0496  1.3988
   76SLPC  H17R 6882   5.923   5.208   5.061 -1.1317 -0.7529  1.6163
   76SLPC  H17S 6883   6.068   5.191   5.158  1.0659  0.0726 -0.8038
   76SLPC  C218 6884   6.109   5.291   4.976  0.4336  0.0937 -0.2595
   76SLPC  H18R 6885   6.185   5.364   5.011  1.9737 -2.3886  1.8831
   76SLPC  H18S 6886   6.054   5.336   4.891  2.6935  0.7941 -1.4146
   76SLPC  H18T 6887   6.164   5.199   4.949  1.3613  0.4372  0.4121
   76SLPC   C33 6888   4.934   5.707   5.792 -0.2975  0.8251  0.1517
   76SLPC   H3X 6889   4.826   5.691   5.810 -0.7392 -0.3742 -2.8927
   76SLPC   H3Y 6890   4.983   5.619   5.839 -1.1623 -0.1782 -0.7451
   76SLPC   C34 6891   4.975   5.705   5.637 -0.3393  0.2158 -0.4670
   76SLPC   H4X 6892   4.920   5.618   5.595  0.1560  0.9905 -2.8765
   76SLPC   H4Y 6893   5.081   5.682   5.615 -0.2878  1.2609 -1.4070
   76SLPC   C35 6894   4.933   5.820   5.557  0.2117 -0.0169 -0.2469
   76SLPC   H5X 6895   4.975   5.916   5.596  1.6759 -0.2601 -1.1284
   76SLPC   H5Y 6896   4.823   5.832   5.553  0.2205  0.7151  0.9903
   76SLPC   C36 6897   4.983   5.823   5.412 -0.0133 -0.2957 -0.4078
   76SLPC   H6X 6898   5.087   5.787   5.425 -0.2883 -0.5047  1.5558
   76SLPC   H6Y 6899   4.978   5.929   5.379  1.1511 -0.0246  0.2379
   76SLPC   C37 6900   4.901   5.733   5.318 -0.3882 -0.7778 -0.1675
   76SLPC   H7X 6901   4.797   5.771   5.326 -0.8505 -2.1307  0.3982
   76SLPC   H7Y 6902   4.907   5.629   5.355 -0.1020 -0.6811  0.0617
   76SLPC   C38 6903   4.947   5.728   5.174 -0.0030 -0.0677  0.2385
   76SLPC   H8X 6904   4.886   5.680   5.095  0.3732  0.4965 -0.4037
   76SLPC   H8Y 6905   5.046   5.681   5.159  0.7697  1.9163 -1.3885
   76SLPC   C39 6906   4.979   5.863   5.111  0.2157 -0.4667  0.2156
   76SLPC   H9X 6907   5.068   5.912   5.157  1.0337 -0.8133 -0.9460
   76SLPC   H9Y 6908   4.894   5.931   5.136  0.1116 -0.7893  0.7431
   76SLPC  C310 6909   4.980   5.862   4.955 -0.2472  0.9762  0.4488
   76SLPC  H10X 6910   4.878   5.846   4.914 -0.9847  0.1338  2.4826
   76SLPC  H10Y 6911   5.044   5.773   4.933 -1.5408  0.2707 -0.6746
   76SLPC  C311 6912   5.052   5.977   4.887 -0.3799 -0.3031  0.4145
   76SLPC  H11X 6913   5.162   5.963   4.884 -0.2393  0.9271 -1.2012
   76SLPC  H11Y 6914   5.019   6.073   4.932 -0.6563  0.2333 -0.8860
   76SLPC  C312 6915   5.006   5.984   4.740  0.2237  0.0255  0.2756
   76SLPC  H12X 6916   4.895   5.991   4.747 -0.0872 -2.6502 -0.7619
   76SLPC  H12Y 6917   5.025   5.895   4.676  0.7526  0.8724 -0.7766
   76SLPC  C313 6918   5.067   6.103   4.667 -0.8276 -0.3457  0.4954
   76SLPC  H13X 6919   5.175   6.083   4.653 -0.9365 -0.6715  0.0765
   76SLPC  H13Y 6920   5.066   6.195   4.730 -1.2637  1.6744 -2.2528
   76SLPC  C314 6921   4.995   6.147   4.539  0.1860 -0.6468 -0.1142
   76SLPC  H14X 6922   4.892   6.180   4.568  1.0345 -0.0404  2.5274
   76SLPC  H14Y 6923   4.986   6.062   4.468 -2.7891 -0.4029 -0.1891
   76SLPC  C315 6924   5.065   6.265   4.460  0.3888  0.3406 -0.4413
   76SLPC  H15X 6925   5.055   6.363   4.510  0.8319  0.7244 -1.0880
   76SLPC  H15Y 6926   4.993   6.275   4.376 -1.6585 -1.9461  0.9132
   76SLPC  C316 6927   5.208   6.233   4.418  0.3054  0.1364 -0.1079
   76SLPC  H16X 6928   5.216   6.133   4.371 -0.6813  1.5869 -3.6448
   76SLPC  H16Y 6929   5.285   6.242   4.498  1.1027 -0.3304 -0.8042
   76SLPC  C317 6930   5.250   6.332   4.307  0.4900 -0.4720  0.2578
   76SLPC  H17X 6931   5.252   6.436   4.345  0.5479 -0.2706 -0.2969
   76SLPC  H17Y 6932   5.187   6.329   4.216  1.4143  0.8018 -0.4506
   76SLPC  C318 6933   5.391   6.296   4.250  0.2771  1.2407 -0.0708
   76SLPC  H18X 6934   5.472   6.305   4.325  2.6465 -1.0571 -2.1748
   76SLPC  H18Y 6935   5.410   6.358   4.161 -0.8150 -0.7798 -1.8228
   76SLPC  H18Z 6936   5.386   6.190   4.216 -0.4200  1.7081 -1.4640
   77SLPC     N 6937   0.209   6.268   6.689  0.0257 -0.2911  0.1767
   77SLPC   C13 6938   0.263   6.188   6.799  0.0794  0.0562 -0.4854
   77SLPC  H13A 6939   0.277   6.088   6.761  2.1600  0.0258  0.2553
   77SLPC  H13B 6940   0.356   6.217   6.845  1.2639 -0.4895 -2.4291
   77SLPC  H13C 6941   0.191   6.193   6.879 -1.0743 -0.5633 -1.4472
   77SLPC   C14 6942   0.206   6.419   6.720 -0.2008  0.0584  0.8387
   77SLPC  H14A 6943   0.298   6.447   6.769 -0.3094  1.5402  0.2415
   77SLPC  H14B 6944   0.190   6.469   6.626 -1.4714 -1.0003  0.4655
   77SLPC  H14C 6945   0.121   6.441   6.782 -0.2490  1.1831  0.3918
   77SLPC   C15 6946   0.072   6.237   6.648  0.5064  1.0038  0.1592
   77SLPC  H15A 6947   0.063   6.131   6.628 -0.4394  1.1458 -0.2354
   77SLPC  H15B 6948   0.006   6.253   6.732  0.2542 -2.6700  0.8150
   77SLPC  H15C 6949   0.036   6.290   6.561 -2.1406 -2.1523 -0.8807
   77SLPC   C12 6950   0.300   6.244   6.567  0.4244 -0.2603  0.3909
   77SLPC  H12A 6951   0.284   6.324   6.497  0.6297 -0.3121  0.2829
   77SLPC  H12B 6952   0.269   6.150   6.526 -0.9066  0.8601 -1.2786
   77SLPC   C11 6953   0.457   6.244   6.584 -0.2127 -0.1387  0.4377
   77SLPC  H11A 6954   0.501   6.204   6.490 -0.9431 -0.1911  0.1174
   77SLPC  H11B 6955   0.486   6.168   6.660 -0.8377 -2.6939 -1.7303
   77SLPC     P 6956   0.536   6.489   6.534 -0.1427 -0.1737  0.0081
   77SLPC   O13 6957   0.579   6.606   6.616  0.1556  0.4932  0.2730
   77SLPC   O14 6958   0.632   6.431   6.439  0.4468  0.5721 -0.5733
   77SLPC   O12 6959   0.500   6.372   6.634  0.3402  0.3336  0.4086
   77SLPC   O11 6960   0.391   6.516   6.470 -0.4564 -0.0201 -0.0896
   77SLPC    C1 6961   0.333   6.642   6.476  0.5088 -0.0971 -0.5368
   77SLPC    HA 6962   0.244   6.630   6.542  0.9827 -0.0147  0.1249
   77SLPC    HB 6963   0.395   6.720   6.525 -1.2754  1.1591 -0.1819
   77SLPC    C2 6964   0.282   6.703   6.340 -0.4227  0.5556 -0.6520
   77SLPC    HS 6965   0.239   6.800   6.372 -0.3532  0.0205  1.1965
   77SLPC   O21 6966   0.188   6.618   6.271  0.1123 -0.2721  0.4729
   77SLPC   C21 6967   0.063   6.642   6.314  0.0641  0.4935 -0.5704
   77SLPC   O22 6968   0.037   6.708   6.412  0.3150  0.2707 -0.3392
   77SLPC   C22 6969  -0.053   6.587   6.229  0.3020  0.4770  0.2974
   77SLPC   H2R 6970  -0.058   6.476   6.227  0.9675  0.4413 -2.0041
   77SLPC   H2S 6971  -0.152   6.616   6.271 -0.3072 -2.2800  0.9127
   77SLPC    C3 6972   0.412   6.742   6.264  0.0032 -0.1036  0.0904
   77SLPC    HX 6973   0.441   6.648   6.213  1.7229  1.2522 -1.5775
   77SLPC    HY 6974   0.489   6.779   6.334  0.6652  0.7076 -1.0358
   77SLPC   O31 6975   0.380   6.848   6.169  0.0291  0.1284  0.2631
   77SLPC   C31 6976   0.475   6.857   6.076  0.4178  0.4955 -0.1319
   77SLPC   O32 6977   0.572   6.783   6.075  0.7283  0.5499 -0.0398
   77SLPC   C32 6978   0.443   6.958   5.974  0.1827 -0.1466 -0.6374
   77SLPC   H2X 6979   0.532   6.984   5.912  1.0697 -0.1215  0.6008
   77SLPC   H2Y 6980   0.417   7.051   6.030 -1.1320 -0.6820 -0.3236
   77SLPC   C23 6981  -0.033   6.641   6.075 -0.5399  0.3704 -0.3367
   77SLPC   H3R 6982   0.054   6.598   6.021 -0.5580  1.6548 -1.4342
   77SLPC   H3S 6983  -0.008   6.748   6.087 -1.1365  0.4110  0.7081
   77SLPC   C24 6984  -0.153   6.613   5.979 -0.1693 -0.0577  0.7726
   77SLPC   H4R 6985  -0.236   6.685   5.995 -0.1529  0.6074 -1.6581
   77SLPC   H4S 6986  -0.195   6.512   5.993  0.1371 -0.4519 -0.9275
   77SLPC   C25 6987  -0.117   6.629   5.822 -0.7282 -0.1212 -0.4064
   77SLPC   H5R 6988  -0.028   6.564   5.815 -0.9193 -0.7364  2.0117
   77SLPC   H5S 6989  -0.084   6.732   5.799  0.3455 -0.6660 -1.3829
   77SLPC   C26 6990  -0.227   6.582   5.725 -0.5813 -0.0775  0.1242
   77SLPC   H6R 6991  -0.300   6.512   5.772 -1.3680 -0.2771 -1.3314
   77SLPC   H6S 6992  -0.171   6.522   5.649  2.2934  0.5992  1.5521
   77SLPC   C27 6993  -0.307   6.703   5.660  0.9651 -0.0372 -0.1933
   77SLPC   H7R 6994  -0.237   6.771   5.608  1.5665 -0.2645  0.3072
   77SLPC   H7S 6995  -0.361   6.759   5.740  2.3156  0.3598  0.4722
   77SLPC   C28 6996  -0.410   6.660   5.552 -0.1746  0.2687 -0.7844
   77SLPC   H8R 6997  -0.482   6.584   5.589 -0.9302  0.8488 -1.0502
   77SLPC   H8S 6998  -0.357   6.623   5.462  1.6502  2.7028 -0.8455
   77SLPC   C29 6999  -0.503   6.773   5.513  0.1256  0.2353 -0.2129
   77SLPC   H9R 7000  -0.587   6.777   5.585  2.3181  1.2744  2.4573
   77SLPC  C210 7001  -0.488   6.855   5.409 -0.0317  0.2887 -0.2471
   77SLPC  H10R 7002  -0.568   6.925   5.379 -0.7326 -0.5186 -0.3048
   77SLPC  C211 7003  -0.373   6.843   5.312  0.3169  0.4054  0.0904
   77SLPC  H11R 7004  -0.396   6.745   5.265  0.7524  1.1184 -1.6786
   77SLPC  H11S 7005  -0.281   6.822   5.371 -1.5188 -0.7010  2.7692
   77SLPC  C212 7006  -0.350   6.933   5.195 -1.3010  0.1411 -0.0797
   77SLPC  H12R 7007  -0.439   6.964   5.138 -0.6069  0.7040 -0.8965
   77SLPC  C213 7008  -0.228   6.981   5.153  0.0578  0.4972 -0.6540
   77SLPC  H13R 7009  -0.228   7.051   5.068  0.8462  3.0178  1.2854
   77SLPC  C214 7010  -0.099   6.961   5.216 -0.1318  0.0653  0.7881
   77SLPC  H14R 7011  -0.098   6.991   5.323  2.2143 -1.3686  1.2568
   77SLPC  H14S 7012  -0.014   7.011   5.164  0.2637 -3.1495 -1.9936
   77SLPC  C215 7013  -0.045   6.821   5.212 -0.0307 -0.1934 -0.1309
   77SLPC  H15R 7014  -0.107   6.764   5.284 -0.2890  3.0151  2.4415
   77SLPC  H15S 7015   0.058   6.831   5.252  0.2419  0.4024 -0.9631
   77SLPC  C216 7016  -0.016   6.742   5.081  0.4578 -0.0955 -0.0420
   77SLPC  H16R 7017   0.029   6.807   5.002 -0.1262  0.8274  0.3691
   77SLPC  H16S 7018  -0.112   6.711   5.034  1.0026 -0.8379 -0.6864
   77SLPC  C217 7019   0.070   6.621   5.110  0.3606  0.3331  0.2416
   77SLPC  H17R 7020   0.032   6.566   5.199  0.0835  2.5863  1.5948
   77SLPC  H17S 7021   0.177   6.646   5.120  0.1901  0.6299  1.5837
   77SLPC  C218 7022   0.084   6.521   4.992 -0.0552 -0.5516  0.6689
   77SLPC  H18R 7023   0.144   6.574   4.915 -0.9642 -0.7818 -0.2069
   77SLPC  H18S 7024  -0.016   6.493   4.953 -1.0497  0.8883  2.0535
   77SLPC  H18T 7025   0.151   6.440   5.027  2.8846  0.7980 -1.3983
   77SLPC   C33 7026   0.319   6.918   5.892 -0.9089 -0.1389  1.0977
   77SLPC   H3X 7027   0.301   7.018   5.846  1.6883 -0.2557 -0.3324
   77SLPC   H3Y 7028   0.235   6.880   5.954 -0.5462 -2.3331  0.3253
   77SLPC   C34 7029   0.357   6.829   5.773 -0.3910 -0.2778 -0.2001
   77SLPC   H4X 7030   0.422   6.746   5.810 -0.2649  0.5591  1.5982
   77SLPC   H4Y 7031   0.408   6.883   5.691  0.6908  0.4772  0.9195
   77SLPC   C35 7032   0.233   6.769   5.714 -0.4966 -0.0637 -0.0762
   77SLPC   H5X 7033   0.164   6.849   5.679  0.5210  2.0674  2.4537
   77SLPC   H5Y 7034   0.189   6.700   5.789  1.9590 -2.2448 -0.5105
   77SLPC   C36 7035   0.264   6.671   5.587  0.0617  0.0532  0.1585
   77SLPC   H6X 7036   0.352   6.611   5.618 -0.7416 -1.4336 -0.3344
   77SLPC   H6Y 7037   0.305   6.735   5.506  1.8512  0.7209  1.5339
   77SLPC   C37 7038   0.163   6.574   5.551  0.5760  0.1541 -0.2210
   77SLPC   H7X 7039   0.070   6.630   5.527  1.3335  1.9177  0.7913
   77SLPC   H7Y 7040   0.146   6.518   5.645  0.4349  0.3682 -0.1177
   77SLPC   C38 7041   0.208   6.487   5.443 -0.5683 -0.0724 -0.7002
   77SLPC   H8X 7042   0.311   6.455   5.471 -0.4669  1.9408  1.4910
   77SLPC   H8Y 7043   0.224   6.552   5.355 -0.4007  0.2259 -0.4534
   77SLPC   C39 7044   0.125   6.364   5.414 -0.0407  0.7516 -0.2311
   77SLPC   H9X 7045   0.031   6.389   5.362  0.0492  0.1608 -0.6814
   77SLPC   H9Y 7046   0.112   6.313   5.512  2.1452 -1.1141 -0.8143
   77SLPC  C310 7047   0.192   6.259   5.311 -0.3467 -0.3028 -0.0866
   77SLPC  H10X 7048   0.295   6.238   5.348  0.6657  0.5104 -2.2888
   77SLPC  H10Y 7049   0.204   6.321   5.220  0.6545 -0.1952  0.1010
   77SLPC  C311 7050   0.102   6.138   5.279 -0.5399 -0.1552 -0.0834
   77SLPC  H11X 7051   0.001   6.168   5.242 -0.2216  1.4310  0.2641
   77SLPC  H11Y 7052   0.100   6.087   5.378  1.9185  1.3005  0.7952
   77SLPC  C312 7053   0.152   6.032   5.173  0.5486  0.3712 -0.0370
   77SLPC  H12X 7054   0.087   5.944   5.190 -0.1732  0.5088 -1.8352
   77SLPC  H12Y 7055   0.257   6.009   5.199  0.4655  2.6718  2.8829
   77SLPC  C313 7056   0.145   6.093   5.032 -0.3475  0.0551  0.3880
   77SLPC  H13X 7057   0.214   6.180   5.030  1.2444 -1.1878 -1.4168
   77SLPC  H13Y 7058   0.044   6.138   5.015 -1.0155 -0.9251  1.6378
   77SLPC  C314 7059   0.164   6.002   4.910 -0.3381 -0.2938 -1.4189
   77SLPC  H14X 7060   0.079   5.931   4.920 -0.8673  0.5063  0.2006
   77SLPC  H14Y 7061   0.251   5.936   4.928 -0.0794  0.0256 -1.4806
   77SLPC  C315 7062   0.155   6.075   4.778 -0.2573 -0.2882 -0.3639
   77SLPC  H15X 7063   0.061   6.136   4.777 -0.4284 -0.5135  0.8230
   77SLPC  H15Y 7064   0.129   6.004   4.697 -0.8051 -0.8473  0.2850
   77SLPC  C316 7065   0.262   6.165   4.735 -0.6375  0.0777  0.4642
   77SLPC  H16X 7066   0.265   6.248   4.808 -1.7559 -0.8736  1.6309
   77SLPC  H16Y 7067   0.228   6.219   4.644  0.6628  2.5863  1.3563
   77SLPC  C317 7068   0.403   6.104   4.719 -0.9680  0.3761 -0.0473
   77SLPC  H17X 7069   0.444   6.068   4.816 -0.2693 -0.0278 -0.4793
   77SLPC  H17Y 7070   0.465   6.192   4.690  1.8716 -1.2577  0.6584
   77SLPC  C318 7071   0.409   6.001   4.607  0.0541 -0.7547 -0.0656
   77SLPC  H18X 7072   0.516   5.980   4.586 -0.0693 -2.3670  0.7581
   77SLPC  H18Y 7073   0.373   6.045   4.511 -1.4304  0.2727  0.9149
   77SLPC  H18Z 7074   0.357   5.904   4.624  2.7840 -2.3258  0.0265
   78SLPC     N 7075   1.352   3.829   7.074 -0.1211 -0.0234 -0.4235
   78SLPC   C13 7076   1.223   3.765   7.131  0.2581  0.1264  0.4522
   78SLPC  H13A 7077   1.141   3.806   7.075 -1.2042 -1.0913  1.6216
   78SLPC  H13B 7078   1.230   3.659   7.115  0.4429  0.4862 -2.3617
   78SLPC  H13C 7079   1.216   3.787   7.237  0.9716 -1.8647  0.9464
   78SLPC   C14 7080   1.389   3.772   6.948 -0.1252 -0.2496 -0.0814
   78SLPC  H14A 7081   1.305   3.775   6.879 -2.8717  1.3475  3.0273
   78SLPC  H14B 7082   1.470   3.825   6.901 -2.2851  2.0535 -1.4456
   78SLPC  H14C 7083   1.419   3.669   6.951  0.5786 -0.0549 -0.2973
   78SLPC   C15 7084   1.460   3.805   7.177 -0.3462 -0.4736 -0.7154
   78SLPC  H15A 7085   1.462   3.884   7.250 -1.1244 -0.5516 -0.5954
   78SLPC  H15B 7086   1.450   3.709   7.226 -1.8280 -0.3590 -0.7326
   78SLPC  H15C 7087   1.553   3.814   7.122 -1.2990 -0.5091 -2.4228
   78SLPC   C12 7088   1.319   3.982   7.061 -0.0048 -0.3703  0.0770
   78SLPC  H12A 7089   1.279   4.019   7.154 -2.2377  0.0374 -0.9894
   78SLPC  H12B 7090   1.231   4.004   7.002  0.0027 -1.3775 -0.3351
   78SLPC   C11 7091   1.441   4.067   7.014 -0.2123  0.1029 -0.5263
   78SLPC  H11A 7092   1.527   4.049   7.082  1.3514  1.1555 -2.1274
   78SLPC  H11B 7093   1.415   4.175   7.014 -0.0071  0.1790 -1.9499
   78SLPC     P 7094   1.515   4.161   6.785  0.0517  0.1904 -0.0988
   78SLPC   O13 7095   1.396   4.251   6.779  0.0595 -0.1378 -0.8155
   78SLPC   O14 7096   1.636   4.227   6.838 -0.0337 -0.1584  0.0932
   78SLPC   O12 7097   1.484   4.039   6.878 -0.1520  0.3488  0.0024
   78SLPC   O11 7098   1.538   4.082   6.647 -0.2559 -0.4157 -0.0708
   78SLPC    C1 7099   1.448   3.988   6.585  0.2369  0.1246  0.7114
   78SLPC    HA 7100   1.415   3.905   6.651  0.2655 -1.6367 -1.3851
   78SLPC    HB 7101   1.356   4.046   6.562 -0.4241 -1.0643  0.3342
   78SLPC    C2 7102   1.494   3.910   6.459 -0.1373 -0.1410  0.7923
   78SLPC    HS 7103   1.585   3.850   6.480  1.0434  1.3637  0.1875
   78SLPC   O21 7104   1.512   3.993   6.345 -0.1579  0.1126  0.7196
   78SLPC   C21 7105   1.615   3.958   6.267  0.2909 -0.2664 -0.4638
   78SLPC   O22 7106   1.692   3.870   6.295  0.0155 -0.2302 -0.0350
   78SLPC   C22 7107   1.608   4.040   6.140 -0.3921  0.1287  0.8273
   78SLPC   H2R 7108   1.505   4.052   6.100 -0.5667  0.6687  1.4197
   78SLPC   H2S 7109   1.647   4.140   6.171  0.5582  0.4938 -1.4068
   78SLPC    C3 7110   1.394   3.803   6.409 -0.2347  0.1424 -0.2363
   78SLPC    HX 7111   1.291   3.842   6.393 -0.4750 -0.3518  0.0858
   78SLPC    HY 7112   1.378   3.730   6.492 -0.3453 -0.8514 -1.1047
   78SLPC   O31 7113   1.441   3.735   6.292 -0.3760  0.7383 -0.1704
   78SLPC   C31 7114   1.491   3.607   6.316  0.1016  0.0282 -0.3659
   78SLPC   O32 7115   1.482   3.552   6.423 -0.0880  0.4580  0.1083
   78SLPC   C32 7116   1.571   3.555   6.204  0.6826 -0.0959 -0.1751
   78SLPC   H2X 7117   1.558   3.444   6.201  0.1544 -0.1140  1.3734
   78SLPC   H2Y 7118   1.679   3.571   6.221  0.4493 -0.5966  2.1870
   78SLPC   C23 7119   1.706   3.987   6.034 -0.5436 -0.2872  0.5257
   78SLPC   H3R 7120   1.671   3.886   6.003  0.9218 -1.3561  2.2011
   78SLPC   H3S 7121   1.811   3.985   6.070  1.1571  1.1511 -3.6867
   78SLPC   C24 7122   1.712   4.083   5.916 -0.6491 -0.1850 -0.2404
   78SLPC   H4R 7123   1.814   4.058   5.878 -0.7778 -1.1956  0.0500
   78SLPC   H4S 7124   1.712   4.187   5.955  0.3987 -1.0059  2.1180
   78SLPC   C25 7125   1.597   4.071   5.800 -1.0335 -0.1866 -1.3388
   78SLPC   H5R 7126   1.510   4.116   5.853 -1.6477 -3.4878  0.8090
   78SLPC   H5S 7127   1.589   3.963   5.773 -0.4259 -0.5364 -0.2055
   78SLPC   C26 7128   1.631   4.150   5.671 -0.2535 -0.2470  0.1367
   78SLPC   H6R 7129   1.725   4.106   5.633 -1.5870 -3.0773 -0.1840
   78SLPC   H6S 7130   1.657   4.253   5.700 -1.7503  0.0673  0.4663
   78SLPC   C27 7131   1.517   4.175   5.569 -0.1184  0.5074 -0.0447
   78SLPC   H7R 7132   1.416   4.197   5.609 -0.7729 -1.0434 -0.7495
   78SLPC   H7S 7133   1.493   4.082   5.512 -0.7803  0.8182 -0.2815
   78SLPC   C28 7134   1.555   4.288   5.476  0.6900  0.4922  0.5509
   78SLPC   H8R 7135   1.572   4.382   5.533 -1.1347  0.2019  1.6421
   78SLPC   H8S 7136   1.473   4.310   5.405  0.6796 -1.8962 -0.2695
   78SLPC   C29 7137   1.673   4.245   5.391 -0.5472  0.2104  0.1925
   78SLPC   H9R 7138   1.772   4.281   5.425 -1.0676  0.4239  1.5560
   78SLPC  C210 7139   1.669   4.193   5.266 -0.1603 -0.3074 -1.3107
   78SLPC  H10R 7140   1.764   4.167   5.218  0.8376  2.2759 -0.8977
   78SLPC  C211 7141   1.540   4.137   5.207 -0.3495 -0.2059 -0.6257
   78SLPC  H11R 7142   1.503   4.205   5.128  0.8636 -1.3343 -2.2319
   78SLPC  H11S 7143   1.460   4.140   5.285  1.9878 -1.1055  1.9781
   78SLPC  C212 7144   1.552   3.999   5.151 -0.0282  0.1181 -0.4643
   78SLPC  H12R 7145   1.522   3.921   5.222  3.0600 -0.1933  0.6808
   78SLPC  C213 7146   1.610   3.962   5.037  0.6408 -0.6541  0.0164
   78SLPC  H13R 7147   1.603   3.858   5.002  0.2945 -0.4617 -0.5014
   78SLPC  C214 7148   1.647   4.058   4.935  0.7662  0.8027  0.1891
   78SLPC  H14R 7149   1.632   4.162   4.971  0.9717  1.4073 -1.4042
   78SLPC  H14S 7150   1.566   4.046   4.859  0.4513 -2.4116  0.8895
   78SLPC  C215 7151   1.784   4.035   4.866 -0.4922  0.3147  0.1715
   78SLPC  H15R 7152   1.866   4.072   4.932 -1.3894  0.8312  1.0227
   78SLPC  H15S 7153   1.794   4.105   4.781  0.4003 -1.7926 -1.5595
   78SLPC  C216 7154   1.816   3.883   4.826 -0.3687  0.2845 -0.2749
   78SLPC  H16R 7155   1.743   3.842   4.754 -0.4480 -1.8481  0.9238
   78SLPC  H16S 7156   1.815   3.827   4.922 -0.6445  0.5687 -0.1075
   78SLPC  C217 7157   1.951   3.869   4.757 -0.2279  0.1010  0.8734
   78SLPC  H17R 7158   1.953   3.900   4.650  1.3048 -0.6492  0.6595
   78SLPC  H17S 7159   1.963   3.760   4.740  1.8999  0.0802  2.2469
   78SLPC  C218 7160   2.061   3.929   4.832 -0.0428 -0.6457  0.5598
   78SLPC  H18R 7161   2.045   3.904   4.939 -0.6213 -0.4484  0.5245
   78SLPC  H18S 7162   2.043   4.038   4.820 -1.5176 -1.0381 -1.1809
   78SLPC  H18T 7163   2.158   3.897   4.788 -0.7671 -2.1595 -0.0236
   78SLPC   C33 7164   1.531   3.622   6.067  0.4581 -0.2026  0.6220
   78SLPC   H3X 7165   1.540   3.731   6.083 -1.5131 -0.2268  2.3736
   78SLPC   H3Y 7166   1.425   3.606   6.038  0.3293  0.1013  0.9146
   78SLPC   C34 7167   1.611   3.576   5.954 -0.3721 -0.3996 -0.5030
   78SLPC   H4X 7168   1.608   3.465   5.957 -1.2779 -0.3879  2.8733
   78SLPC   H4Y 7169   1.719   3.602   5.957 -0.1862 -1.2503  0.3883
   78SLPC   C35 7170   1.538   3.617   5.818  0.0190 -0.0751  0.9257
   78SLPC   H5X 7171   1.525   3.727   5.822 -2.2069 -0.0068 -2.7024
   78SLPC   H5Y 7172   1.442   3.561   5.809 -0.2283  0.2577  1.4603
   78SLPC   C36 7173   1.621   3.576   5.696  0.2187 -0.9363  0.4848
   78SLPC   H6X 7174   1.624   3.465   5.686  2.9178 -0.8299 -1.1467
   78SLPC   H6Y 7175   1.723   3.618   5.714 -0.2323 -0.4150  1.9624
   78SLPC   C37 7176   1.571   3.628   5.563  0.0441 -0.2242 -0.0762
   78SLPC   H7X 7177   1.602   3.734   5.552 -2.1586  0.4667  0.0374
   78SLPC   H7Y 7178   1.461   3.629   5.570  0.1243 -0.4252  1.6894
   78SLPC   C38 7179   1.619   3.536   5.449  0.6990 -0.0971 -0.1611
   78SLPC   H8X 7180   1.555   3.447   5.463  2.7825 -1.6980 -0.4490
   78SLPC   H8Y 7181   1.725   3.518   5.476  1.4210  2.6189 -0.8522
   78SLPC   C39 7182   1.592   3.589   5.307 -0.7625  0.4003  0.7898
   78SLPC   H9X 7183   1.649   3.684   5.292  1.2808 -1.0221 -0.9634
   78SLPC   H9Y 7184   1.487   3.581   5.271 -0.3073 -1.4149 -0.2601
   78SLPC  C310 7185   1.667   3.490   5.215  1.0531 -0.0959 -0.1237
   78SLPC  H10X 7186   1.625   3.387   5.207  0.2407  0.2035  0.1618
   78SLPC  H10Y 7187   1.771   3.479   5.252  1.3089 -0.5729 -0.9500
   78SLPC  C311 7188   1.680   3.546   5.072  0.4702  0.0331  0.0376
   78SLPC  H11X 7189   1.726   3.646   5.087 -0.2130  0.6149 -1.5829
   78SLPC  H11Y 7190   1.573   3.554   5.044  0.1610 -1.1334  0.8026
   78SLPC  C312 7191   1.758   3.448   4.985  0.6214 -0.3623 -0.5172
   78SLPC  H12X 7192   1.694   3.359   4.967 -0.4834  0.1348  0.7592
   78SLPC  H12Y 7193   1.855   3.407   5.020  0.9766 -0.0245 -1.0950
   78SLPC  C313 7194   1.797   3.512   4.854  0.1333 -0.1353  0.0814
   78SLPC  H13X 7195   1.846   3.609   4.874  2.2022 -0.8840 -1.0903
   78SLPC  H13Y 7196   1.719   3.536   4.779  0.2711  0.1751  0.0383
   78SLPC  C314 7197   1.911   3.437   4.779  0.0357  0.1162  0.3900
   78SLPC  H14X 7198   2.005   3.440   4.838  0.4782  2.0936 -0.3268
   78SLPC  H14Y 7199   1.932   3.495   4.687 -0.8161 -0.4585 -0.1787
   78SLPC  C315 7200   1.871   3.289   4.725  0.0531 -0.1569  0.8300
   78SLPC  H15X 7201   1.847   3.236   4.819  1.0767 -0.8724  0.7041
   78SLPC  H15Y 7202   1.952   3.239   4.667 -0.5316 -1.8468  1.4231
   78SLPC  C316 7203   1.737   3.299   4.648 -0.0960 -0.3379  0.2425
   78SLPC  H16X 7204   1.765   3.357   4.558  1.8470  0.5351  1.3419
   78SLPC  H16Y 7205   1.653   3.349   4.702 -1.2687 -2.3318  0.3937
   78SLPC  C317 7206   1.694   3.161   4.580 -0.0692 -0.4849  0.4569
   78SLPC  H17X 7207   1.701   3.081   4.657  1.4539 -1.2813 -0.4636
   78SLPC  H17Y 7208   1.760   3.133   4.495  0.3319  4.3520 -1.1186
   78SLPC  C318 7209   1.539   3.164   4.548  0.2105  0.3871 -0.5837
   78SLPC  H18X 7210   1.528   3.213   4.448 -1.0413  1.9198  0.2522
   78SLPC  H18Y 7211   1.473   3.216   4.621 -1.0129  0.8723 -1.9933
   78SLPC  H18Z 7212   1.498   3.063   4.529 -1.2657  1.1525 -1.7172
   79SLPC     N 7213   0.916   6.575   6.725 -0.1076  0.6370  0.5278
   79SLPC   C13 7214   0.897   6.680   6.626 -0.6721  0.1947 -0.0910
   79SLPC  H13A 7215   0.954   6.658   6.537  2.5854  2.1082  1.3249
   79SLPC  H13B 7216   0.792   6.694   6.607 -0.5185  2.9923  0.6043
   79SLPC  H13C 7217   0.928   6.777   6.664 -0.4244  0.2936 -0.5336
   79SLPC   C14 7218   0.821   6.592   6.844  0.0564  0.1477 -0.0713
   79SLPC  H14A 7219   0.717   6.604   6.816 -0.0739  0.0328  0.3547
   79SLPC  H14B 7220   0.839   6.507   6.908 -1.1622  0.4871  0.7417
   79SLPC  H14C 7221   0.857   6.682   6.891  1.4280 -0.5343  0.2253
   79SLPC   C15 7222   1.060   6.580   6.775 -0.0245 -0.4847  0.0399
   79SLPC  H15A 7223   1.086   6.683   6.795  0.3400 -0.5805  0.0666
   79SLPC  H15B 7224   1.075   6.514   6.859  0.7382 -1.2084 -0.6452
   79SLPC  H15C 7225   1.130   6.554   6.697 -0.8254 -2.1304 -0.1802
   79SLPC   C12 7226   0.883   6.435   6.664  0.2796 -0.7560 -0.4788
   79SLPC  H12A 7227   0.784   6.434   6.621 -0.5891 -1.8478  1.4180
   79SLPC  H12B 7228   0.863   6.363   6.742 -2.6178 -0.0056 -0.4307
   79SLPC   C11 7229   0.980   6.374   6.558  0.5319 -0.3357 -0.5565
   79SLPC  H11A 7230   1.001   6.452   6.481  0.1548 -1.5907 -1.9859
   79SLPC  H11B 7231   0.924   6.292   6.510  0.2665 -1.5346  1.6817
   79SLPC     P 7232   1.087   6.199   6.694  0.0329 -0.1117  0.0591
   79SLPC   O13 7233   1.211   6.176   6.784  0.4516 -0.4287 -0.3362
   79SLPC   O14 7234   0.951   6.182   6.751 -0.8186 -0.4035 -0.2611
   79SLPC   O12 7235   1.096   6.334   6.618  0.3171  0.5890 -0.3343
   79SLPC   O11 7236   1.110   6.101   6.577 -0.2011  0.1991  0.1639
   79SLPC    C1 7237   1.212   6.129   6.477  0.1434 -0.1519  0.8147
   79SLPC    HA 7238   1.262   6.226   6.494 -1.8876  1.2869 -0.8593
   79SLPC    HB 7239   1.296   6.058   6.491  1.5295  1.2278 -0.1430
   79SLPC    C2 7240   1.163   6.100   6.329  0.2296 -0.1196  0.1595
   79SLPC    HS 7241   1.055   6.128   6.335 -0.3036 -2.0439  0.4486
   79SLPC   O21 7242   1.189   5.967   6.286 -0.2273  0.5786 -0.3502
   79SLPC   C21 7243   1.093   5.902   6.219 -0.6795  0.2304 -0.1206
   79SLPC   O22 7244   0.994   5.957   6.181  0.1678  0.6246 -0.3457
   79SLPC   C22 7245   1.124   5.756   6.211  0.7838 -0.2156  0.0326
   79SLPC   H2R 7246   1.226   5.749   6.169  1.0054  1.6444  0.2138
   79SLPC   H2S 7247   1.125   5.704   6.309  0.1665 -1.8816 -0.7921
   79SLPC    C3 7248   1.233   6.200   6.228 -0.8267 -0.2874 -0.0647
   79SLPC    HX 7249   1.340   6.175   6.246 -1.0697 -0.6892  0.9449
   79SLPC    HY 7250   1.213   6.300   6.272  1.5342 -0.4371  1.5539
   79SLPC   O31 7251   1.196   6.178   6.095  0.0990 -0.1687  0.1743
   79SLPC   C31 7252   1.088   6.242   6.064  0.1560 -0.1314  0.5705
   79SLPC   O32 7253   1.021   6.304   6.142  0.2898  0.4100  0.3756
   79SLPC   C32 7254   1.058   6.213   5.918 -1.2088 -0.3055 -0.2595
   79SLPC   H2X 7255   0.965   6.250   5.870 -0.6012 -1.9084 -2.8669
   79SLPC   H2Y 7256   1.063   6.103   5.901  0.3484 -0.0857 -1.3595
   79SLPC   C23 7257   1.031   5.666   6.118 -0.1647  0.7034 -0.1064
   79SLPC   H3R 7258   0.934   5.683   6.170  1.1993  1.7320  2.2276
   79SLPC   H3S 7259   1.048   5.557   6.132 -1.5836  0.6048  1.0685
   79SLPC   C24 7260   1.018   5.707   5.972 -0.7892  0.6544 -0.2372
   79SLPC   H4R 7261   0.997   5.816   5.967 -0.9930  0.6802  0.9865
   79SLPC   H4S 7262   0.922   5.663   5.937  0.8681 -3.1910 -0.3150
   79SLPC   C25 7263   1.142   5.663   5.894  0.1619  0.6724  0.4828
   79SLPC   H5R 7264   1.138   5.556   5.868  2.1982  0.2544  1.6220
   79SLPC   H5S 7265   1.233   5.677   5.957  0.1475  1.9903  0.2406
   79SLPC   C26 7266   1.164   5.736   5.762 -0.4432 -0.3919 -0.0624
   79SLPC   H6R 7267   1.273   5.740   5.741  0.1843 -1.5726  2.4698
   79SLPC   H6S 7268   1.139   5.840   5.789 -1.4696 -0.7835  0.5572
   79SLPC   C27 7269   1.084   5.703   5.645  0.3726 -0.5756  0.4632
   79SLPC   H7R 7270   0.975   5.708   5.662  0.3397  1.0345 -0.0096
   79SLPC   H7S 7271   1.109   5.599   5.613 -0.4505 -0.6380  0.0056
   79SLPC   C28 7272   1.120   5.793   5.528  0.1493 -0.4438  0.0327
   79SLPC   H8R 7273   1.102   5.902   5.540  0.7096 -0.1480 -1.5798
   79SLPC   H8S 7274   1.042   5.778   5.450  0.0265 -0.0007  0.0698
   79SLPC   C29 7275   1.252   5.753   5.475 -0.3677 -0.8314  1.1125
   79SLPC   H9R 7276   1.343   5.786   5.527 -1.0701  0.5067  1.5391
   79SLPC  C210 7277   1.272   5.694   5.355 -0.4777 -0.7340 -0.2077
   79SLPC  H10R 7278   1.375   5.685   5.316 -0.7059  0.3182 -1.0961
   79SLPC  C211 7279   1.168   5.636   5.265 -0.5283  0.3532 -0.4852
   79SLPC  H11R 7280   1.097   5.710   5.222  0.7910  0.7227 -2.1568
   79SLPC  H11S 7281   1.120   5.557   5.326  0.0077  0.7905  0.5253
   79SLPC  C212 7282   1.241   5.553   5.163 -0.6849 -0.2815  0.6606
   79SLPC  H12R 7283   1.281   5.457   5.198  2.0382  0.4775 -0.1206
   79SLPC  C213 7284   1.241   5.579   5.031 -0.2122  0.2640  0.2623
   79SLPC  H13R 7285   1.307   5.522   4.964  1.0511 -0.4472  2.0263
   79SLPC  C214 7286   1.177   5.695   4.957 -0.4842 -0.5391 -0.1898
   79SLPC  H14R 7287   1.241   5.783   4.937 -2.2524  0.5017 -1.6416
   79SLPC  H14S 7288   1.091   5.740   5.012 -1.3936 -1.7290 -0.5921
   79SLPC  C215 7289   1.116   5.664   4.817  0.6437 -0.0259 -0.0379
   79SLPC  H15R 7290   1.068   5.760   4.790 -0.2518  0.0241  1.6564
   79SLPC  H15S 7291   1.040   5.582   4.812  2.0533 -1.4970  1.4317
   79SLPC  C216 7292   1.233   5.627   4.724  0.3087 -0.4440 -0.4383
   79SLPC  H16R 7293   1.289   5.535   4.750 -1.2138 -1.2472  0.1002
   79SLPC  H16S 7294   1.312   5.706   4.726 -0.0319 -0.0122 -2.3770
   79SLPC  C217 7295   1.194   5.615   4.574  0.1334 -0.7213 -0.0414
   79SLPC  H17R 7296   1.172   5.719   4.540 -1.5122  0.1758  3.3314
   79SLPC  H17S 7297   1.104   5.551   4.562  0.5041 -1.4243  0.8515
   79SLPC  C218 7298   1.306   5.553   4.484  0.6842  0.6124 -0.5811
   79SLPC  H18R 7299   1.271   5.581   4.382 -2.7747  0.8426  0.5501
   79SLPC  H18S 7300   1.314   5.443   4.496  0.3534  0.4485 -1.7204
   79SLPC  H18T 7301   1.402   5.603   4.510  1.2062 -1.3125  1.5826
   79SLPC   C33 7302   1.177   6.254   5.820 -0.0800 -0.5576  0.3076
   79SLPC   H3X 7303   1.280   6.244   5.860  0.5817 -0.3723 -1.3092
   79SLPC   H3Y 7304   1.143   6.354   5.788 -0.5813 -0.7071  0.3618
   79SLPC   C34 7305   1.162   6.167   5.696  0.3440 -0.1317  1.1042
   79SLPC   H4X 7306   1.053   6.185   5.680  0.2393  1.4467  3.1422
   79SLPC   H4Y 7307   1.174   6.059   5.719 -0.7372 -0.7037 -0.7804
   79SLPC   C35 7308   1.231   6.228   5.573 -0.5806  0.7059  0.0374
   79SLPC   H5X 7309   1.340   6.243   5.587  0.0267 -2.5830 -0.4201
   79SLPC   H5Y 7310   1.199   6.333   5.550 -0.1412  0.9330  0.4495
   79SLPC   C36 7311   1.220   6.143   5.448  0.3190 -0.6013  0.5105
   79SLPC   H6X 7312   1.116   6.125   5.415 -0.3623  0.9929  1.6798
   79SLPC   H6Y 7313   1.249   6.038   5.471 -1.4786 -1.4487 -0.8849
   79SLPC   C37 7314   1.304   6.197   5.334  0.1172  0.6539  0.1374
   79SLPC   H7X 7315   1.403   6.209   5.384 -0.1703 -2.3031  1.6532
   79SLPC   H7Y 7316   1.268   6.297   5.301  0.7059 -0.1015 -3.1544
   79SLPC   C38 7317   1.329   6.083   5.231  0.1359  0.4433 -0.4541
   79SLPC   H8X 7318   1.233   6.062   5.179  0.1515 -2.0921  0.3929
   79SLPC   H8Y 7319   1.349   5.986   5.282  0.9317  0.9781  0.2757
   79SLPC   C39 7320   1.431   6.124   5.125 -0.5101  0.1568 -0.2263
   79SLPC   H9X 7321   1.528   6.154   5.171  0.0200  0.8422 -1.7305
   79SLPC   H9Y 7322   1.400   6.209   5.060 -1.2664 -1.4878 -2.1292
   79SLPC  C310 7323   1.469   6.010   5.023 -0.0994  0.5516  0.2962
   79SLPC  H10X 7324   1.395   6.005   4.941 -0.4420 -3.9866  0.6220
   79SLPC  H10Y 7325   1.474   5.915   5.081 -1.6418 -0.4867 -1.1920
   79SLPC  C311 7326   1.608   6.034   4.954 -0.1546 -1.1129  0.4517
   79SLPC  H11X 7327   1.651   5.940   4.913  1.9770 -0.0362  0.0745
   79SLPC  H11Y 7328   1.682   6.074   5.026  0.5178  0.2349 -0.9371
   79SLPC  C312 7329   1.585   6.131   4.834 -0.4712 -0.2491 -0.2395
   79SLPC  H12X 7330   1.558   6.227   4.883  0.9475 -0.5644  1.2638
   79SLPC  H12Y 7331   1.498   6.116   4.766 -0.6794  0.0742 -0.0455
   79SLPC  C313 7332   1.704   6.140   4.744  0.3756 -0.5289  0.1560
   79SLPC  H13X 7333   1.711   6.036   4.706  0.6146 -1.3834  2.3517
   79SLPC  H13Y 7334   1.792   6.169   4.807  0.7388 -1.5029  0.1148
   79SLPC  C314 7335   1.698   6.259   4.634  0.4057 -0.5343 -0.2174
   79SLPC  H14X 7336   1.611   6.239   4.568 -0.7011 -1.6758  1.5123
   79SLPC  H14Y 7337   1.800   6.254   4.590  0.5613 -3.4469  0.2732
   79SLPC  C315 7338   1.683   6.397   4.694 -0.4217 -0.4933  0.5183
   79SLPC  H15X 7339   1.750   6.404   4.782 -0.4862 -0.2441  0.5470
   79SLPC  H15Y 7340   1.581   6.407   4.735 -0.7151  2.1508 -0.6424
   79SLPC  C316 7341   1.721   6.502   4.589 -0.3715  0.0594 -0.0823
   79SLPC  H16X 7342   1.666   6.480   4.495 -1.8349 -2.8903  1.3137
   79SLPC  H16Y 7343   1.830   6.494   4.570  0.4699  1.6779  3.3413
   79SLPC  C317 7344   1.696   6.640   4.638  0.3041  0.3035  0.5108
   79SLPC  H17X 7345   1.720   6.646   4.746  1.5300  1.6836  0.1957
   79SLPC  H17Y 7346   1.586   6.650   4.629  0.0435 -2.9266 -1.4425
   79SLPC  C318 7347   1.764   6.737   4.547  0.7311 -0.3566 -0.4504
   79SLPC  H18X 7348   1.874   6.732   4.561  0.6059 -0.0399  0.7418
   79SLPC  H18Y 7349   1.738   6.841   4.574 -2.0421 -0.6214 -1.7623
   79SLPC  H18Z 7350   1.742   6.723   4.439  1.3996  0.0121 -0.6371
   80SLPC     N 7351   6.175   4.448   6.925 -0.1894 -0.1449 -0.6881
   80SLPC   C13 7352   6.238   4.334   7.010  0.5143 -0.5210 -0.2416
   80SLPC  H13A 7353   6.174   4.308   7.093  1.0350  0.9192  0.6593
   80SLPC  H13B 7354   6.233   4.256   6.935 -0.5343 -0.5676 -0.1459
   80SLPC  H13C 7355   6.334   4.361   7.051 -0.3982  0.7464  1.1581
   80SLPC   C14 7356   6.157   4.564   7.014  0.3509 -0.5997 -1.2146
   80SLPC  H14A 7357   6.065   4.561   7.071  2.7370  0.3777  3.1404
   80SLPC  H14B 7358   6.234   4.571   7.089 -2.7898  2.2612  2.1449
   80SLPC  H14C 7359   6.152   4.662   6.968 -0.7388  0.5873  1.2205
   80SLPC   C15 7360   6.043   4.402   6.870  0.2500  0.2723  0.1406
   80SLPC  H15A 7361   5.965   4.387   6.944  0.0385  0.5633 -0.0217
   80SLPC  H15B 7362   6.006   4.475   6.799 -0.0101 -0.8738 -0.9375
   80SLPC  H15C 7363   6.043   4.315   6.806 -1.0135 -0.8187  1.5256
   80SLPC   C12 7364   6.262   4.481   6.812 -0.8324 -0.0519  0.3082
   80SLPC  H12A 7365   6.270   4.389   6.756 -2.1432  0.4640 -0.7839
   80SLPC  H12B 7366   6.361   4.507   6.848 -1.3913  2.4628  0.1825
   80SLPC   C11 7367   6.211   4.587   6.712  0.1733 -0.2583 -0.4001
   80SLPC  H11A 7368   6.119   4.552   6.659  0.5874 -2.2113  0.0705
   80SLPC  H11B 7369   6.290   4.585   6.634  0.2973  0.1058 -0.2846
   80SLPC     P 7370   6.291   4.828   6.763 -0.5300  0.1319 -0.4664
   80SLPC   O13 7371   6.228   4.957   6.803 -0.0901 -0.0907 -0.7717
   80SLPC   O14 7372   6.415   4.784   6.834  0.2788  0.2587  0.3634
   80SLPC   O12 7373   6.189   4.713   6.771 -0.2630  0.1960  0.0340
   80SLPC   O11 7374   6.338   4.847   6.615 -0.3015 -0.0843  0.8398
   80SLPC    C1 7375   6.249   4.859   6.509  0.1237 -0.0776  0.8603
   80SLPC    HA 7376   6.179   4.773   6.510 -0.1578  0.0727 -1.6046
   80SLPC    HB 7377   6.202   4.959   6.510  1.6722  0.6752  0.8688
   80SLPC    C2 7378   6.312   4.844   6.369 -0.8465 -1.1439  0.0597
   80SLPC    HS 7379   6.384   4.760   6.380 -0.8127 -1.2869 -1.1273
   80SLPC   O21 7380   6.377   4.970   6.336 -0.2728  0.0993 -0.2728
   80SLPC   C21 7381   6.466   4.972   6.244 -0.2429  0.1142 -0.7207
   80SLPC   O22 7382   6.543   4.882   6.214  0.5320  0.1428  0.3146
   80SLPC   C22 7383   6.453   5.117   6.181  0.5034 -0.3386 -0.4036
   80SLPC   H2R 7384   6.346   5.142   6.162  0.6274 -1.1056 -2.3852
   80SLPC   H2S 7385   6.478   5.201   6.249  1.4245 -0.0378 -1.0921
   80SLPC    C3 7386   6.204   4.816   6.259  0.6708  0.3300  0.1481
   80SLPC    HX 7387   6.136   4.904   6.268  0.2070  0.2897 -2.2726
   80SLPC    HY 7388   6.140   4.728   6.278 -0.7080  1.2652 -0.0344
   80SLPC   O31 7389   6.251   4.820   6.128  0.2134 -0.3472  0.2951
   80SLPC   C31 7390   6.290   4.691   6.080 -0.2773  0.8897  0.5987
   80SLPC   O32 7391   6.270   4.588   6.147 -0.2618 -0.2178  0.5328
   80SLPC   C32 7392   6.369   4.699   5.944 -0.4349  0.4702 -0.6893
   80SLPC   H2X 7393   6.409   4.801   5.927 -1.6562  0.8760 -1.2829
   80SLPC   H2Y 7394   6.298   4.681   5.860 -0.9913  1.6328 -0.4857
   80SLPC   C23 7395   6.520   5.141   6.045 -0.2028 -0.8491  0.4448
   80SLPC   H3R 7396   6.477   5.078   5.964 -0.5925  2.3826 -2.0808
   80SLPC   H3S 7397   6.627   5.127   6.071  0.5543  1.7851 -0.8573
   80SLPC   C24 7398   6.533   5.286   5.984  0.7784  0.3689 -0.0567
   80SLPC   H4R 7399   6.535   5.357   6.070  0.5815 -0.6388  0.8021
   80SLPC   H4S 7400   6.440   5.310   5.928  0.9427 -2.2879 -1.6324
   80SLPC   C25 7401   6.652   5.306   5.892  0.4481 -0.1572  0.1163
   80SLPC   H5R 7402   6.643   5.228   5.813  0.7300  0.6853 -0.7644
   80SLPC   H5S 7403   6.742   5.297   5.957  0.6782 -0.4669 -0.2391
   80SLPC   C26 7404   6.652   5.446   5.830 -1.0292 -0.2050  0.0324
   80SLPC   H6R 7405   6.643   5.525   5.907 -2.4137 -0.6283  0.3504
   80SLPC   H6S 7406   6.569   5.464   5.758 -0.2878  1.3300 -0.4676
   80SLPC   C27 7407   6.787   5.479   5.748  1.1267  0.4677 -0.6223
   80SLPC   H7R 7408   6.801   5.407   5.664  4.2980 -0.6893  0.7348
   80SLPC   H7S 7409   6.866   5.456   5.823 -0.1924  0.6037  0.8608
   80SLPC   C28 7410   6.789   5.622   5.708 -0.4949  0.0592 -0.0457
   80SLPC   H8R 7411   6.778   5.691   5.794  1.8418 -0.9155  1.1388
   80SLPC   H8S 7412   6.698   5.645   5.649 -0.9417  0.0012  0.6098
   80SLPC   C29 7413   6.918   5.638   5.621  0.0850 -0.5386 -0.0581
   80SLPC   H9R 7414   7.008   5.638   5.683 -0.6150  0.3738  0.9969
   80SLPC  C210 7415   6.924   5.665   5.491 -0.1421  0.5327  0.0544
   80SLPC  H10R 7416   7.027   5.661   5.453 -0.8266 -0.9000 -1.8013
   80SLPC  C211 7417   6.808   5.657   5.398 -0.5565 -0.7813 -0.7401
   80SLPC  H11R 7418   6.714   5.630   5.451 -0.5316  0.2639 -0.1226
   80SLPC  H11S 7419   6.837   5.568   5.339  1.4112 -0.7793  0.1330
   80SLPC  C212 7420   6.786   5.756   5.284 -0.7358 -0.7009 -0.1174
   80SLPC  H12R 7421   6.880   5.797   5.243 -0.8500  0.6349  0.8939
   80SLPC  C213 7422   6.670   5.808   5.236 -0.8752  0.6705 -0.7881
   80SLPC  H13R 7423   6.679   5.867   5.144  1.9957  0.2244 -0.8925
   80SLPC  C214 7424   6.535   5.746   5.269 -0.4613 -0.7257 -1.2443
   80SLPC  H14R 7425   6.549   5.637   5.251 -0.7223 -0.5883 -2.3480
   80SLPC  H14S 7426   6.456   5.774   5.196  0.9173 -0.0856 -2.5479
   80SLPC  C215 7427   6.482   5.765   5.413  0.6388  0.8293 -0.2408
   80SLPC  H15R 7428   6.565   5.762   5.486  1.5746  0.0525 -1.2971
   80SLPC  H15S 7429   6.400   5.695   5.441 -0.5257  1.6733 -1.4239
   80SLPC  C216 7430   6.416   5.901   5.441  0.5298 -0.0115 -0.2786
   80SLPC  H16R 7431   6.332   5.910   5.370  1.0242  1.1298 -0.7496
   80SLPC  H16S 7432   6.486   5.987   5.435 -0.0901  0.7619  2.2486
   80SLPC  C217 7433   6.356   5.910   5.584 -0.0345  0.2496 -0.1284
   80SLPC  H17R 7434   6.305   5.813   5.607  0.6495  0.2237  1.4272
   80SLPC  H17S 7435   6.271   5.981   5.579  0.4271  0.8854  0.7372
   80SLPC  C218 7436   6.453   5.953   5.695 -0.0103  0.0266  0.1548
   80SLPC  H18R 7437   6.406   5.986   5.789 -1.4922 -1.1019 -0.1433
   80SLPC  H18S 7438   6.506   6.044   5.660 -0.5628 -0.3323 -1.7385
   80SLPC  H18T 7439   6.536   5.880   5.707  0.3061  0.8206  3.5617
   80SLPC   C33 7440   6.471   4.579   5.932 -0.5899 -0.6385 -0.1864
   80SLPC   H3X 7441   6.412   4.486   5.948 -0.3753 -0.8764 -0.7643
   80SLPC   H3Y 7442   6.536   4.593   6.021  1.0175 -0.5660 -1.3399
   80SLPC   C34 7443   6.561   4.591   5.813  0.4643 -0.5982 -0.1213
   80SLPC   H4X 7444   6.615   4.688   5.822  0.0529 -0.3868  0.0930
   80SLPC   H4Y 7445   6.500   4.587   5.720  1.1503 -1.6231 -0.5490
   80SLPC   C35 7446   6.675   4.484   5.806  0.0494  0.8046  0.0925
   80SLPC   H5X 7447   6.676   4.426   5.901 -0.2992  0.2737 -0.2224
   80SLPC   H5Y 7448   6.768   4.543   5.799  0.0527  0.7403 -0.4558
   80SLPC   C36 7449   6.672   4.403   5.675  0.5508 -1.0634 -0.7322
   80SLPC   H6X 7450   6.576   4.351   5.658 -1.9863  2.4673  1.2769
   80SLPC   H6Y 7451   6.755   4.332   5.692 -0.3495 -1.7282  1.1522
   80SLPC   C37 7452   6.710   4.484   5.553 -0.3748 -0.2410  0.4903
   80SLPC   H7X 7453   6.810   4.532   5.563 -0.5266 -0.2798  2.6268
   80SLPC   H7Y 7454   6.641   4.571   5.544  0.7924  0.9948  2.7416
   80SLPC   C38 7455   6.721   4.395   5.423  0.7498  0.5681 -0.4196
   80SLPC   H8X 7456   6.651   4.309   5.421 -0.1913  1.2046 -5.0442
   80SLPC   H8Y 7457   6.825   4.355   5.412  0.5833  0.3765 -1.3922
   80SLPC   C39 7458   6.684   4.456   5.288  0.0160 -0.8626 -0.8360
   80SLPC   H9X 7459   6.737   4.552   5.272 -0.1244 -0.6887 -0.2568
   80SLPC   H9Y 7460   6.576   4.482   5.288  0.1481 -0.2345 -1.9157
   80SLPC  C310 7461   6.711   4.361   5.167 -0.9237 -0.6029 -0.5622
   80SLPC  H10X 7462   6.681   4.255   5.186  1.6778 -1.5975 -1.6060
   80SLPC  H10Y 7463   6.821   4.361   5.154 -0.8017 -0.6233  0.4127
   80SLPC  C311 7464   6.644   4.389   5.032 -0.5961  0.0589 -0.2262
   80SLPC  H11X 7465   6.537   4.396   5.059 -0.7762 -0.5720 -0.7551
   80SLPC  H11Y 7466   6.680   4.309   4.964  2.9377 -1.6749  3.2268
   80SLPC  C312 7467   6.685   4.527   4.976 -0.1162  0.0960  0.3281
   80SLPC  H12X 7468   6.659   4.609   5.045 -2.0403  0.1418 -0.4095
   80SLPC  H12Y 7469   6.616   4.542   4.890  2.0904 -0.3103 -1.6211
   80SLPC  C313 7470   6.828   4.531   4.924 -0.3953 -0.0731 -0.0281
   80SLPC  H13X 7471   6.886   4.526   5.019  0.2728  1.3554 -0.3483
   80SLPC  H13Y 7472   6.856   4.631   4.885 -0.0502 -0.1743 -0.0523
   80SLPC  C314 7473   6.876   4.429   4.815 -0.9139  0.6330 -0.7840
   80SLPC  H14X 7474   6.797   4.441   4.739 -2.9522  2.3587  1.4666
   80SLPC  H14Y 7475   6.870   4.325   4.855 -0.5152  0.7687 -0.3615
   80SLPC  C315 7476   7.017   4.459   4.765  0.5501 -0.1326 -0.2693
   80SLPC  H15X 7477   7.044   4.566   4.784 -0.4287 -0.3198  2.6416
   80SLPC  H15Y 7478   7.001   4.442   4.657 -2.0271  0.3343 -0.0130
   80SLPC  C316 7479   7.131   4.379   4.831 -0.2948  0.1131  0.5637
   80SLPC  H16X 7480   7.224   4.404   4.776  0.6816 -4.0611 -0.0374
   80SLPC  H16Y 7481   7.124   4.270   4.813  1.3338  0.3807 -2.1395
   80SLPC  C317 7482   7.154   4.421   4.974 -0.2701 -0.3651  0.0323
   80SLPC  H17X 7483   7.081   4.362   5.034 -0.6075  0.4367  0.4184
   80SLPC  H17Y 7484   7.140   4.530   4.983 -1.1730 -0.6215  2.5468
   80SLPC  C318 7485   7.295   4.388   5.038  0.1190 -0.2185  0.1491
   80SLPC  H18X 7486   7.293   4.422   5.143  1.8109  1.2608 -0.2515
   80SLPC  H18Y 7487   7.371   4.442   4.978  0.9145 -0.0802  1.2710
   80SLPC  H18Z 7488   7.319   4.280   5.045  1.8788  0.2470  2.2545
   81SLPC     N 7489   3.073   6.354   2.209 -0.1727 -0.6715 -0.5089
   81SLPC   C13 7490   3.095   6.221   2.284 -0.6234  0.3533  0.1732
   81SLPC  H13A 7491   3.148   6.232   2.377  0.4934 -0.3116 -0.3631
   81SLPC  H13B 7492   2.998   6.179   2.305  0.2350 -0.9617  1.7689
   81SLPC  H13C 7493   3.160   6.150   2.234 -2.4904 -1.7619  0.5846
   81SLPC   C14 7494   3.076   6.321   2.065  0.4971 -0.1288 -0.1724
   81SLPC  H14A 7495   3.019   6.232   2.046 -0.0567  0.4739 -1.4804
   81SLPC  H14B 7496   3.028   6.394   2.001 -1.4293 -1.7281 -0.6672
   81SLPC  H14C 7497   3.172   6.293   2.025  2.5804  3.1207  2.1082
   81SLPC   C15 7498   3.192   6.439   2.241 -0.6642 -0.2128 -0.3130
   81SLPC  H15A 7499   3.287   6.393   2.218 -0.3495  0.3026 -0.0631
   81SLPC  H15B 7500   3.192   6.535   2.191 -2.6828  1.4593  2.5754
   81SLPC  H15C 7501   3.191   6.470   2.345  0.3623  1.7310 -0.8279
   81SLPC   C12 7502   2.941   6.407   2.256  0.4642  0.7411  0.0077
   81SLPC  H12A 7503   2.872   6.328   2.231  0.9485 -0.1569  1.3878
   81SLPC  H12B 7504   2.911   6.492   2.196 -2.1013 -0.9738 -1.3245
   81SLPC   C11 7505   2.925   6.465   2.404  0.5894  0.0048 -0.2132
   81SLPC  H11A 7506   2.955   6.377   2.465 -0.5999 -0.1666  0.1483
   81SLPC  H11B 7507   2.819   6.485   2.431  1.0686  1.6565  0.6189
   81SLPC     P 7508   2.964   6.714   2.362 -0.0992  0.1351 -0.2963
   81SLPC   O13 7509   3.068   6.748   2.259  0.0773 -0.4211 -0.5296
   81SLPC   O14 7510   2.823   6.713   2.307  0.0984 -0.6975  0.4141
   81SLPC   O12 7511   3.008   6.579   2.426  0.1568 -0.1722 -0.6319
   81SLPC   O11 7512   2.978   6.820   2.479 -0.7069 -0.5360 -0.2725
   81SLPC    C1 7513   3.075   6.801   2.581 -0.5476 -0.1073 -0.6439
   81SLPC    HA 7514   3.053   6.704   2.630  1.7393 -0.8329 -0.9655
   81SLPC    HB 7515   3.181   6.797   2.551 -0.3592 -0.5959  0.0441
   81SLPC    C2 7516   3.068   6.904   2.694 -0.2767 -0.1088 -0.1673
   81SLPC    HS 7517   3.098   6.872   2.796 -0.3065 -0.5957 -0.3097
   81SLPC   O21 7518   2.938   6.966   2.712 -0.0693  0.6259 -0.1999
   81SLPC   C21 7519   2.853   6.891   2.770 -0.6403 -1.5494 -0.0106
   81SLPC   O22 7520   2.869   6.777   2.810 -0.7253  0.4381 -0.0942
   81SLPC   C22 7521   2.731   6.975   2.805  0.6165  0.0620  0.1839
   81SLPC   H2R 7522   2.741   7.080   2.773 -0.0885 -0.5227 -2.1358
   81SLPC   H2S 7523   2.649   6.924   2.749 -0.6633  2.9510 -0.7586
   81SLPC    C3 7524   3.159   7.026   2.662 -0.0687 -0.1316  0.4487
   81SLPC    HX 7525   3.109   7.081   2.579  1.0623  0.8445  0.3869
   81SLPC    HY 7526   3.258   6.993   2.622 -0.7567 -1.1967 -0.4479
   81SLPC   O31 7527   3.182   7.105   2.773 -0.0036  0.3484 -0.4655
   81SLPC   C31 7528   3.146   7.233   2.770  0.7708  0.2896  0.2432
   81SLPC   O32 7529   3.085   7.288   2.678 -0.2071  0.6616 -0.3924
   81SLPC   C32 7530   3.201   7.314   2.896  0.6568  0.6659  0.0233
   81SLPC   H2X 7531   3.267   7.388   2.846  1.4584 -0.7892 -1.1812
   81SLPC   H2Y 7532   3.253   7.247   2.967 -1.1667  0.9819  1.7265
   81SLPC   C23 7533   2.698   6.976   2.953 -0.2471  0.7400 -0.0622
   81SLPC   H3R 7534   2.784   6.992   3.022 -1.7908  0.8491  1.9095
   81SLPC   H3S 7535   2.662   6.876   2.984  1.6312 -0.5317 -1.7359
   81SLPC   C24 7536   2.584   7.080   2.979 -0.0197  0.2034 -0.4078
   81SLPC   H4R 7537   2.493   7.054   2.921 -0.3923 -3.0849  1.3949
   81SLPC   H4S 7538   2.622   7.183   2.962  0.1063  0.6930  2.4424
   81SLPC   C25 7539   2.521   7.049   3.120 -0.4963 -0.6236 -0.7094
   81SLPC   H5R 7540   2.507   6.939   3.122 -1.5877 -0.5787 -2.8141
   81SLPC   H5S 7541   2.423   7.101   3.135 -0.2995  0.4014 -2.6888
   81SLPC   C26 7542   2.614   7.097   3.232 -0.8006 -0.2396 -0.2820
   81SLPC   H6R 7543   2.594   7.206   3.221 -2.0118 -0.5617 -1.8049
   81SLPC   H6S 7544   2.720   7.068   3.220 -1.2301 -2.1873  0.3264
   81SLPC   C27 7545   2.575   7.030   3.366  0.2782  0.3933  0.3053
   81SLPC   H7R 7546   2.593   6.921   3.369 -0.4783  0.2622  0.4956
   81SLPC   H7S 7547   2.465   7.037   3.385  0.4994  1.1447  1.4120
   81SLPC   C28 7548   2.638   7.095   3.492 -0.0005 -0.0108  0.1538
   81SLPC   H8R 7549   2.622   7.205   3.499 -1.5792 -0.2545  0.8559
   81SLPC   H8S 7550   2.744   7.076   3.465 -0.3530  0.2325 -1.5348
   81SLPC   C29 7551   2.606   7.020   3.621  0.7929  0.2612  0.1428
   81SLPC   H9R 7552   2.549   6.927   3.608 -0.2365  0.7098  1.2537
   81SLPC  C210 7553   2.641   7.056   3.749 -0.6433  0.3034  0.6643
   81SLPC  H10R 7554   2.619   6.977   3.822 -1.3111 -1.3475 -1.2422
   81SLPC  C211 7555   2.725   7.170   3.790  0.7310 -0.7283 -0.5903
   81SLPC  H11R 7556   2.780   7.209   3.702 -0.7238 -0.1194 -1.2646
   81SLPC  H11S 7557   2.811   7.143   3.855  0.5477 -3.5668 -1.4052
   81SLPC  C212 7558   2.633   7.277   3.859  0.2166  0.0571 -0.0588
   81SLPC  H12R 7559   2.558   7.319   3.791  1.4407  2.6584  0.0680
   81SLPC  C213 7560   2.643   7.330   3.981 -0.4400 -0.5217 -0.2749
   81SLPC  H13R 7561   2.582   7.413   4.021 -1.2395 -0.4976 -1.4906
   81SLPC  C214 7562   2.745   7.288   4.081  0.1532  0.2935 -0.5079
   81SLPC  H14R 7563   2.849   7.310   4.048  0.3960  2.0492  1.2809
   81SLPC  H14S 7564   2.738   7.178   4.067 -1.6895  0.2686  0.3938
   81SLPC  C215 7565   2.733   7.325   4.231 -0.2892  0.0210 -0.8826
   81SLPC  H15R 7566   2.625   7.335   4.251 -0.1767 -0.2182 -0.1228
   81SLPC  H15S 7567   2.774   7.427   4.246 -1.4594  0.6731 -1.9134
   81SLPC  C216 7568   2.806   7.231   4.332 -0.2644  0.5262 -0.4322
   81SLPC  H16R 7569   2.796   7.125   4.299 -0.5600  0.0464  1.1103
   81SLPC  H16S 7570   2.756   7.241   4.431 -0.5037 -0.4414 -0.4449
   81SLPC  C217 7571   2.950   7.265   4.335 -0.2296 -1.2358 -0.1034
   81SLPC  H17R 7572   2.950   7.371   4.367  0.1093 -1.5937  1.1787
   81SLPC  H17S 7573   2.977   7.265   4.228 -1.4904  0.6655 -0.4662
   81SLPC  C218 7574   3.046   7.191   4.430 -0.3954 -0.4732  0.0603
   81SLPC  H18R 7575   3.005   7.180   4.533 -1.6507  1.4562 -0.1707
   81SLPC  H18S 7576   3.141   7.248   4.432  0.1736 -1.3571 -1.0389
   81SLPC  H18T 7577   3.068   7.090   4.390 -2.4839 -1.7840  1.9320
   81SLPC   C33 7578   3.091   7.396   2.965 -0.0090  0.3219 -0.3768
   81SLPC   H3X 7579   3.035   7.464   2.897 -1.4455  0.6352  1.0815
   81SLPC   H3Y 7580   3.131   7.465   3.042 -0.4993 -0.0046  0.1762
   81SLPC   C34 7581   2.977   7.300   3.024  0.6494 -0.3499 -0.5108
   81SLPC   H4X 7582   2.920   7.256   2.939  0.6082  0.0236 -0.6770
   81SLPC   H4Y 7583   2.900   7.355   3.082  0.5578  1.4652 -2.2448
   81SLPC   C35 7584   3.025   7.183   3.112  0.0272 -0.3695  0.8879
   81SLPC   H5X 7585   3.103   7.113   3.075 -0.0496  0.1797 -0.3570
   81SLPC   H5Y 7586   2.942   7.120   3.152 -1.6482 -0.1833 -1.9880
   81SLPC   C36 7587   3.077   7.240   3.246  0.2592  0.6958 -0.4305
   81SLPC   H6X 7588   3.168   7.302   3.235  0.3816  0.4304 -0.9676
   81SLPC   H6Y 7589   3.098   7.155   3.314 -1.3579  0.9693  0.4648
   81SLPC   C37 7590   2.965   7.316   3.323  0.4147 -0.2770 -1.0304
   81SLPC   H7X 7591   2.867   7.273   3.293  0.0429  0.0295 -0.2781
   81SLPC   H7Y 7592   2.950   7.422   3.294 -3.5185  0.3027  2.1634
   81SLPC   C38 7593   2.977   7.315   3.478 -0.2566 -0.4614  0.0838
   81SLPC   H8X 7594   2.979   7.214   3.524  1.5088 -0.4945  0.0394
   81SLPC   H8Y 7595   2.898   7.369   3.535  0.3818  1.3137 -0.6210
   81SLPC   C39 7596   3.118   7.376   3.511  0.8544  0.1279 -0.2414
   81SLPC   H9X 7597   3.138   7.466   3.449  1.0070 -0.7384 -1.4934
   81SLPC   H9Y 7598   3.201   7.303   3.494  2.3904  1.4759  1.0911
   81SLPC  C310 7599   3.133   7.409   3.665 -0.3404  0.2278  0.4690
   81SLPC  H10X 7600   3.138   7.305   3.704  1.1162  0.3111  0.5580
   81SLPC  H10Y 7601   3.040   7.459   3.701 -0.9006  0.1519 -0.8251
   81SLPC  C311 7602   3.262   7.487   3.693 -0.1227  0.1576 -0.1832
   81SLPC  H11X 7603   3.267   7.581   3.633  2.8980  0.8857  1.0058
   81SLPC  H11Y 7604   3.353   7.427   3.673  0.1949 -0.3548  2.4837
   81SLPC  C312 7605   3.264   7.539   3.840 -0.2930 -0.1803 -0.2405
   81SLPC  H12X 7606   3.170   7.595   3.857 -0.0062  0.7072 -1.4167
   81SLPC  H12Y 7607   3.352   7.607   3.839 -0.0011 -0.5507 -0.4976
   81SLPC  C313 7608   3.279   7.428   3.952 -0.1984 -0.2171  0.1733
   81SLPC  H13X 7609   3.354   7.349   3.932 -2.1072 -2.1291  0.2615
   81SLPC  H13Y 7610   3.179   7.379   3.956 -0.5950  0.0034 -3.5396
   81SLPC  C314 7611   3.321   7.500   4.078 -0.2789  0.0416  0.5793
   81SLPC  H14X 7612   3.244   7.562   4.129  1.0288  1.8887  0.4252
   81SLPC  H14Y 7613   3.396   7.579   4.053  0.6808 -1.4712 -1.6574
   81SLPC  C315 7614   3.362   7.406   4.195 -0.1277 -0.2980 -0.4785
   81SLPC  H15X 7615   3.401   7.313   4.147  1.9185  0.1282  0.2288
   81SLPC  H15Y 7616   3.278   7.374   4.260  0.2475 -2.8568 -1.1153
   81SLPC  C316 7617   3.470   7.470   4.279 -0.1995 -0.0337 -0.7958
   81SLPC  H16X 7618   3.458   7.439   4.385  2.2841  4.1142  0.9688
   81SLPC  H16Y 7619   3.450   7.580   4.277 -1.7671 -0.0792  3.1126
   81SLPC  C317 7620   3.607   7.437   4.225 -0.1180  0.4167  0.0858
   81SLPC  H17X 7621   3.609   7.480   4.122 -0.1842  0.9312  0.2994
   81SLPC  H17Y 7622   3.613   7.326   4.231 -0.5766  0.2680 -1.6398
   81SLPC  C318 7623   3.723   7.496   4.308  0.8164  0.5012  0.1059
   81SLPC  H18X 7624   3.689   7.592   4.353 -0.3011 -0.0826  0.5384
   81SLPC  H18Y 7625   3.812   7.515   4.244  3.1982 -1.3509  2.6620
   81SLPC  H18Z 7626   3.749   7.427   4.391 -2.4001 -3.6344 -1.9132
   82SLPC     N 7627   1.756   6.954   2.248 -0.3092 -0.6138 -0.9489
   82SLPC   C13 7628   1.674   7.027   2.150  0.0980  0.7439  0.0278
   82SLPC  H13A 7629   1.597   6.966   2.105  0.0864 -0.1017  1.1387
   82SLPC  H13B 7630   1.619   7.098   2.210 -0.4174  2.2103 -2.0937
   82SLPC  H13C 7631   1.725   7.093   2.082 -1.3474  1.2787 -0.5815
   82SLPC   C14 7632   1.837   6.859   2.166 -0.1515 -0.5052  0.8349
   82SLPC  H14A 7633   1.898   6.904   2.089  0.1807 -0.4914  1.1012
   82SLPC  H14B 7634   1.897   6.802   2.236 -1.2840  1.0955  3.2474
   82SLPC  H14C 7635   1.770   6.787   2.121 -1.8943  1.6287 -0.1714
   82SLPC   C15 7636   1.666   6.889   2.341 -1.1267  0.0660 -0.1095
   82SLPC  H15A 7637   1.717   6.866   2.433 -1.7251 -0.9574 -0.0161
   82SLPC  H15B 7638   1.580   6.942   2.380 -4.1783 -2.1613 -3.2114
   82SLPC  H15C 7639   1.613   6.804   2.301 -2.6615  0.6745  0.5337
   82SLPC   C12 7640   1.855   7.050   2.325  0.5139  0.5074 -0.4152
   82SLPC  H12A 7641   1.790   7.117   2.379  0.9115 -0.1492  0.9180
   82SLPC  H12B 7642   1.918   7.110   2.261  3.0877  0.0425  1.5076
   82SLPC   C11 7643   1.955   6.974   2.419 -0.7511  0.6424  0.3898
   82SLPC  H11A 7644   1.901   6.886   2.459  1.1428 -2.8503 -3.8606
   82SLPC  H11B 7645   1.995   7.034   2.504  2.6340 -1.4096  0.4456
   82SLPC     P 7646   2.177   6.979   2.281 -0.5469 -0.7628 -0.2976
   82SLPC   O13 7647   2.272   6.879   2.232  0.0361 -0.6926 -0.0265
   82SLPC   O14 7648   2.130   7.079   2.184 -0.4590  0.4888  0.5144
   82SLPC   O12 7649   2.054   6.906   2.346 -0.6340  0.5631 -0.0870
   82SLPC   O11 7650   2.237   7.064   2.404  0.0488  0.0550  0.0247
   82SLPC    C1 7651   2.342   7.001   2.475  0.0114 -0.5647  0.2969
   82SLPC    HA 7652   2.294   6.919   2.532  1.9775 -1.6724  0.4520
   82SLPC    HB 7653   2.419   6.959   2.407  0.5616 -1.1567  1.2550
   82SLPC    C2 7654   2.398   7.105   2.572 -0.8388 -0.0929 -0.4719
   82SLPC    HS 7655   2.471   7.048   2.633  0.9448  1.5250 -0.9913
   82SLPC   O21 7656   2.296   7.161   2.652  0.3207  0.0031 -0.3370
   82SLPC   C21 7657   2.250   7.084   2.750 -0.0607 -0.3212 -0.0087
   82SLPC   O22 7658   2.280   6.970   2.776 -0.3265 -0.2765  0.2494
   82SLPC   C22 7659   2.125   7.151   2.805 -0.2865 -0.8787  0.0453
   82SLPC   H2R 7660   2.162   7.246   2.850 -1.0247  0.4408 -2.0037
   82SLPC   H2S 7661   2.054   7.184   2.727 -2.1683 -3.0589  0.7366
   82SLPC    C3 7662   2.483   7.216   2.502  0.7469 -0.1434  0.2927
   82SLPC    HX 7663   2.419   7.257   2.421 -0.0568 -2.0281 -0.0817
   82SLPC    HY 7664   2.571   7.165   2.456  2.6575  2.0150  1.3706
   82SLPC   O31 7665   2.524   7.316   2.592  0.0681  0.2906 -0.2598
   82SLPC   C31 7666   2.453   7.419   2.597  0.7001 -0.0159  0.1678
   82SLPC   O32 7667   2.346   7.439   2.542 -0.8844 -0.4045 -0.4720
   82SLPC   C32 7668   2.515   7.519   2.697 -0.4924  0.1710  0.2104
   82SLPC   H2X 7669   2.453   7.611   2.701 -0.3177  0.2515  1.4883
   82SLPC   H2Y 7670   2.618   7.540   2.658 -0.1235  2.5791  2.2500
   82SLPC   C23 7671   2.046   7.060   2.906 -0.5255 -0.3753  0.2679
   82SLPC   H3R 7672   2.122   6.995   2.955  2.1395  1.2674 -1.4374
   82SLPC   H3S 7673   1.983   6.990   2.846 -0.0339  1.0723 -2.0509
   82SLPC   C24 7674   1.952   7.132   3.002 -1.0691 -0.3222 -0.5632
   82SLPC   H4R 7675   1.870   7.181   2.945 -0.5882  1.3589  0.1306
   82SLPC   H4S 7676   2.010   7.212   3.053 -2.7678 -0.3766  1.6435
   82SLPC   C25 7677   1.891   7.031   3.102  0.0487 -0.3921  0.6018
   82SLPC   H5R 7678   1.975   6.972   3.144  1.4348  0.6521 -0.5659
   82SLPC   H5S 7679   1.821   6.969   3.043 -1.6755  1.4934  0.5556
   82SLPC   C26 7680   1.795   7.091   3.216 -0.0189  0.3429  0.1727
   82SLPC   H6R 7681   1.760   7.004   3.275  0.8132 -0.5549 -0.6140
   82SLPC   H6S 7682   1.709   7.141   3.167 -0.3323  2.3574  2.5626
   82SLPC   C27 7683   1.874   7.189   3.304 -0.2185  0.2167  0.2387
   82SLPC   H7R 7684   1.895   7.285   3.251  1.6566 -1.0284 -1.4183
   82SLPC   H7S 7685   1.978   7.150   3.313  0.4081  0.4961 -3.8493
   82SLPC   C28 7686   1.811   7.211   3.444  0.5627  0.3343  0.1390
   82SLPC   H8R 7687   1.777   7.119   3.496  2.2586 -0.4913 -0.1419
   82SLPC   H8S 7688   1.718   7.272   3.439  1.0389  1.1747  1.0057
   82SLPC   C29 7689   1.909   7.279   3.536  0.4763  0.1352  0.5149
   82SLPC   H9R 7690   2.010   7.293   3.495 -0.2853 -0.5167 -1.7371
   82SLPC  C210 7691   1.878   7.326   3.661 -0.2616  0.0926 -0.0356
   82SLPC  H10R 7692   1.954   7.368   3.727 -0.1182 -0.6745  0.2924
   82SLPC  C211 7693   1.735   7.326   3.716  0.2165  0.8321  0.2081
   82SLPC  H11R 7694   1.658   7.282   3.649  0.0002  1.3537  0.1093
   82SLPC  H11S 7695   1.703   7.430   3.738 -3.3351  0.4341 -2.3097
   82SLPC  C212 7696   1.737   7.229   3.831 -0.7995 -0.7447  0.6609
   82SLPC  H12R 7697   1.734   7.124   3.799 -1.4987 -0.1856 -1.2990
   82SLPC  C213 7698   1.736   7.256   3.960 -0.5140 -0.0195  0.3089
   82SLPC  H13R 7699   1.742   7.172   4.031 -0.0888 -3.2357 -3.1993
   82SLPC  C214 7700   1.727   7.391   4.021 -0.1167  0.4210 -0.2878
   82SLPC  H14R 7701   1.638   7.399   4.087 -0.9033 -2.1185 -0.9074
   82SLPC  H14S 7702   1.712   7.467   3.941 -0.1225 -0.2178 -0.9125
   82SLPC  C215 7703   1.850   7.419   4.109 -0.0226 -0.0966  0.2763
   82SLPC  H15R 7704   1.940   7.425   4.045 -1.9722 -0.0632 -2.6578
   82SLPC  H15S 7705   1.851   7.347   4.194 -0.9865  0.9149  1.1893
   82SLPC  C216 7706   1.840   7.560   4.181 -0.1083  0.2632  0.1919
   82SLPC  H16R 7707   1.925   7.583   4.249 -0.0006  1.6228 -0.3593
   82SLPC  H16S 7708   1.747   7.536   4.237 -0.5149 -2.2193 -1.3956
   82SLPC  C217 7709   1.819   7.681   4.095  0.3464  0.1242  0.2951
   82SLPC  H17R 7710   1.804   7.779   4.144 -1.6525  2.6425 -4.6458
   82SLPC  H17S 7711   1.720   7.665   4.046  1.5526 -0.6431 -2.0648
   82SLPC  C218 7712   1.916   7.687   3.968 -0.3831  0.3457  0.1061
   82SLPC  H18R 7713   1.917   7.784   3.915  1.4514 -0.5978 -1.7407
   82SLPC  H18S 7714   1.893   7.606   3.895 -2.4643  1.1950 -0.2406
   82SLPC  H18T 7715   2.023   7.671   3.992 -0.3782  0.3261  0.0704
   82SLPC   C33 7716   2.531   7.455   2.835  0.3042 -0.3861 -0.7947
   82SLPC   H3X 7717   2.614   7.384   2.821 -0.0712 -0.2686 -4.3070
   82SLPC   H3Y 7718   2.443   7.399   2.873 -0.5185  2.8238  2.7315
   82SLPC   C34 7719   2.576   7.554   2.937 -0.6043  0.4371  0.2020
   82SLPC   H4X 7720   2.509   7.642   2.931  1.3088  1.9437 -0.2679
   82SLPC   H4Y 7721   2.679   7.588   2.914  0.4208 -2.3543  0.2200
   82SLPC   C35 7722   2.577   7.493   3.083 -0.6209 -0.3900 -0.6757
   82SLPC   H5X 7723   2.646   7.406   3.085 -1.9707 -1.5371  2.2223
   82SLPC   H5Y 7724   2.480   7.458   3.124  1.3917 -2.3041  2.9385
   82SLPC   C36 7725   2.621   7.599   3.194  0.1960  0.1305  1.0403
   82SLPC   H6X 7726   2.552   7.686   3.186 -0.0263 -0.1819 -1.1861
   82SLPC   H6Y 7727   2.722   7.632   3.159 -0.1472 -1.2737 -1.5791
   82SLPC   C37 7728   2.630   7.544   3.337  0.2454  0.1879  0.3460
   82SLPC   H7X 7729   2.672   7.441   3.340  0.4951  0.2883  0.2263
   82SLPC   H7Y 7730   2.527   7.533   3.380  0.9783 -1.2986  1.8491
   82SLPC   C38 7731   2.680   7.645   3.436 -0.7205  0.1001  0.1695
   82SLPC   H8X 7732   2.627   7.742   3.439  1.2127  1.2420 -0.6844
   82SLPC   H8Y 7733   2.785   7.670   3.409  0.6300 -2.4671  2.4980
   82SLPC   C39 7734   2.684   7.593   3.580 -0.2496 -0.7591  0.4006
   82SLPC   H9X 7735   2.759   7.511   3.590  0.6464 -0.1977 -1.3960
   82SLPC   H9Y 7736   2.581   7.562   3.611 -0.5678  0.7347  0.8900
   82SLPC  C310 7737   2.745   7.691   3.685 -0.0134 -0.1994  0.4342
   82SLPC  H10X 7738   2.672   7.772   3.709 -0.3139 -0.4571  0.3889
   82SLPC  H10Y 7739   2.839   7.737   3.649 -0.8060  0.2420 -1.1925
   82SLPC  C311 7740   2.776   7.612   3.813  0.1047  0.0490 -1.1372
   82SLPC  H11X 7741   2.827   7.518   3.782  2.6015  1.6607 -2.2638
   82SLPC  H11Y 7742   2.680   7.589   3.865  0.7080 -0.0745 -0.0454
   82SLPC  C312 7743   2.853   7.698   3.915  0.8505 -0.0835 -0.2458
   82SLPC  H12X 7744   2.817   7.800   3.939  2.9527  0.3540  1.3381
   82SLPC  H12Y 7745   2.953   7.714   3.869  0.7142  0.2235 -0.4360
   82SLPC  C313 7746   2.867   7.623   4.054  0.5632 -0.3774  1.2877
   82SLPC  H13X 7747   2.920   7.527   4.039  1.6046  0.4617 -0.7483
   82SLPC  H13Y 7748   2.765   7.591   4.084  0.3489 -0.0533  0.9202
   82SLPC  C314 7749   2.926   7.713   4.162  0.7555  0.2273  0.1762
   82SLPC  H14X 7750   2.852   7.794   4.178  0.3974  0.5350 -2.5157
   82SLPC  H14Y 7751   3.021   7.754   4.122  0.5396 -0.6346 -1.3018
   82SLPC  C315 7752   2.969   7.624   4.284 -0.0630 -0.6560 -0.2703
   82SLPC  H15X 7753   3.029   7.536   4.250 -0.0434  0.3141 -2.9737
   82SLPC  H15Y 7754   2.876   7.587   4.332 -0.5879 -1.3841 -1.7747
   82SLPC  C316 7755   3.052   7.711   4.374 -0.0960  0.5484 -0.2842
   82SLPC  H16X 7756   3.012   7.811   4.398 -2.4592 -0.3407 -0.2632
   82SLPC  H16Y 7757   3.150   7.733   4.327  0.0790  0.0996 -0.1415
   82SLPC  C317 7758   3.077   7.635   4.498  0.4708 -0.4370 -0.0766
   82SLPC  H17X 7759   3.131   7.539   4.482  2.5754  0.5729  0.4956
   82SLPC  H17Y 7760   2.984   7.599   4.547  2.1269 -2.9354  1.4698
   82SLPC  C318 7761   3.156   7.712   4.599  0.4805 -0.6078 -0.0316
   82SLPC  H18X 7762   3.120   7.817   4.603  0.4258 -0.5893 -0.7880
   82SLPC  H18Y 7763   3.265   7.717   4.574 -0.2867 -0.1714 -4.0593
   82SLPC  H18Z 7764   3.146   7.676   4.703 -1.3375 -0.9584 -0.3049
   83SLPC     N 7765   5.914   0.865   2.781  1.0493 -0.2934 -0.4809
   83SLPC   C13 7766   5.812   0.952   2.833  0.5877  0.1734  0.3408
   83SLPC  H13A 7767   5.844   0.989   2.929  1.0847  1.0350 -0.1471
   83SLPC  H13B 7768   5.805   1.043   2.776 -2.6562 -0.5450 -0.6153
   83SLPC  H13C 7769   5.716   0.905   2.818  0.9790 -0.1023 -1.4393
   83SLPC   C14 7770   5.914   0.748   2.877 -0.3533  0.4225  0.3224
   83SLPC  H14A 7771   5.990   0.676   2.848 -0.7021  0.5191 -0.8835
   83SLPC  H14B 7772   5.948   0.792   2.969 -2.0808  2.4743  0.0538
   83SLPC  H14C 7773   5.816   0.704   2.885 -0.8001  1.5096  1.0048
   83SLPC   C15 7774   6.046   0.927   2.800 -0.3443  0.1503  0.1515
   83SLPC  H15A 7775   6.060   0.946   2.906 -0.1818  0.0416  0.1503
   83SLPC  H15B 7776   6.114   0.847   2.776 -4.3118 -2.6354 -2.9052
   83SLPC  H15C 7777   6.060   1.015   2.740  3.0310  0.0082  0.5335
   83SLPC   C12 7778   5.884   0.825   2.639  0.4093  0.0875 -0.3897
   83SLPC  H12A 7779   5.860   0.916   2.586  0.4793  0.9086  0.9300
   83SLPC  H12B 7780   5.805   0.753   2.625 -0.1255  0.8349 -1.3086
   83SLPC   C11 7781   6.001   0.767   2.558 -0.0559  0.3042  0.0132
   83SLPC  H11A 7782   6.085   0.840   2.548  0.3772 -0.1101  0.5175
   83SLPC  H11B 7783   5.972   0.740   2.455 -0.9004 -0.5300  0.4558
   83SLPC     P 7784   6.027   0.507   2.588 -0.3536  0.3010  0.0418
   83SLPC   O13 7785   5.884   0.473   2.570  0.2199  0.5060 -0.2797
   83SLPC   O14 7786   6.124   0.479   2.481 -0.2766 -0.0012 -0.1173
   83SLPC   O12 7787   6.060   0.662   2.631  0.5854  0.6256  0.1347
   83SLPC   O11 7788   6.068   0.438   2.726 -0.0167  0.2695 -0.3245
   83SLPC    C1 7789   6.015   0.309   2.763 -0.8928  0.1734 -0.6295
   83SLPC    HA 7790   5.936   0.265   2.697 -0.4586  0.9145 -1.6586
   83SLPC    HB 7791   6.100   0.238   2.776 -0.4454  0.7259 -0.5184
   83SLPC    C2 7792   5.949   0.326   2.901 -0.3997  0.5930 -0.6052
   83SLPC    HS 7793   5.921   0.224   2.936 -0.8572  0.7021 -0.6592
   83SLPC   O21 7794   5.836   0.412   2.908 -0.9123  0.2842  0.4862
   83SLPC   C21 7795   5.725   0.368   2.851 -0.2369  0.2508  0.7753
   83SLPC   O22 7796   5.702   0.253   2.812 -0.5418  0.2760 -1.1477
   83SLPC   C22 7797   5.618   0.469   2.876 -0.6346  0.0663 -1.0264
   83SLPC   H2R 7798   5.641   0.524   2.970  0.5601  0.1624 -1.3697
   83SLPC   H2S 7799   5.605   0.538   2.789 -1.6428  0.5844 -0.4915
   83SLPC    C3 7800   6.057   0.396   2.994  0.7339 -0.0064  0.1033
   83SLPC    HX 7801   6.060   0.505   2.975  0.5090 -0.1746 -0.9880
   83SLPC    HY 7802   6.161   0.368   2.970 -0.2472 -3.5127 -0.6372
   83SLPC   O31 7803   6.025   0.367   3.133  0.2455 -0.1054  0.4632
   83SLPC   C31 7804   5.961   0.466   3.200 -0.2752  0.1154  0.6487
   83SLPC   O32 7805   5.932   0.573   3.149  0.2787  0.0108 -0.8194
   83SLPC   C32 7806   5.943   0.426   3.350  0.3312  0.7695 -0.2998
   83SLPC   H2X 7807   5.855   0.477   3.396 -0.5666 -0.7099 -0.3084
   83SLPC   H2Y 7808   6.033   0.462   3.403  1.4533 -0.8909 -1.0216
   83SLPC   C23 7809   5.485   0.400   2.891  0.1145  0.0546  0.0000
   83SLPC   H3R 7810   5.467   0.326   2.810 -3.8778  1.3011 -0.4444
   83SLPC   H3S 7811   5.403   0.474   2.876 -0.1961 -0.4631 -0.9593
   83SLPC   C24 7812   5.452   0.314   3.018  0.3246  0.0676 -0.3076
   83SLPC   H4R 7813   5.495   0.213   2.999 -1.1610 -0.3422 -1.6974
   83SLPC   H4S 7814   5.343   0.296   3.029  0.4435 -0.1751  0.6323
   83SLPC   C25 7815   5.479   0.350   3.164  0.2751 -0.7009  0.4169
   83SLPC   H5R 7816   5.455   0.458   3.180  0.3065 -0.7864  1.0966
   83SLPC   H5S 7817   5.590   0.347   3.161  0.2558 -1.6807  0.4427
   83SLPC   C26 7818   5.404   0.269   3.269  0.2506  0.0434 -0.0419
   83SLPC   H6R 7819   5.403   0.165   3.231  1.6009 -0.7418  1.9158
   83SLPC   H6S 7820   5.298   0.304   3.268 -0.1753 -1.1889 -1.1636
   83SLPC   C27 7821   5.473   0.276   3.400  0.2162  0.6576 -0.1057
   83SLPC   H7R 7822   5.583   0.266   3.388  0.9584  1.7370  4.0617
   83SLPC   H7S 7823   5.452   0.185   3.460 -0.3012 -0.1213 -1.4291
   83SLPC   C28 7824   5.443   0.404   3.479  0.0076 -0.3300  0.4291
   83SLPC   H8R 7825   5.333   0.412   3.492 -0.1739  0.6550 -1.3920
   83SLPC   H8S 7826   5.481   0.490   3.419  1.3007 -1.2789 -0.1680
   83SLPC   C29 7827   5.516   0.403   3.616  0.3126  0.4719  0.3501
   83SLPC   H9R 7828   5.603   0.337   3.627  0.2520  0.6156  2.0394
   83SLPC  C210 7829   5.465   0.457   3.727  0.8011 -0.0945 -0.3306
   83SLPC  H10R 7830   5.529   0.430   3.812  2.6978 -1.2405 -2.0297
   83SLPC  C211 7831   5.339   0.541   3.764 -0.2334  0.0249  0.2795
   83SLPC  H11R 7832   5.319   0.539   3.873  2.8359  2.2427  1.0388
   83SLPC  H11S 7833   5.252   0.491   3.715 -2.5200  1.8077  2.2718
   83SLPC  C212 7834   5.363   0.684   3.715 -0.2589 -0.2876  0.4756
   83SLPC  H12R 7835   5.421   0.701   3.623  0.4813 -2.2517  0.5412
   83SLPC  C213 7836   5.296   0.790   3.763  0.2137  0.3150 -0.0767
   83SLPC  H13R 7837   5.316   0.886   3.714  1.1020  0.0969 -0.1650
   83SLPC  C214 7838   5.192   0.788   3.872  0.2006 -0.4514 -0.1178
   83SLPC  H14R 7839   5.135   0.693   3.875 -2.1737  0.8728 -0.3777
   83SLPC  H14S 7840   5.114   0.860   3.839  0.3444 -0.0074  0.4954
   83SLPC  C215 7841   5.226   0.835   4.017 -0.7131 -0.0392 -0.4238
   83SLPC  H15R 7842   5.250   0.943   4.013  1.1682 -0.3805  0.4430
   83SLPC  H15S 7843   5.318   0.787   4.059 -1.5729 -2.6170 -1.2989
   83SLPC  C216 7844   5.110   0.826   4.123 -0.6903 -0.0489  0.4080
   83SLPC  H16R 7845   5.109   0.723   4.164 -2.1781  0.0941  0.7855
   83SLPC  H16S 7846   5.010   0.857   4.085  0.7578  3.0403 -1.2182
   83SLPC  C217 7847   5.142   0.908   4.255 -0.1260 -1.0933  1.4108
   83SLPC  H17R 7848   5.120   1.011   4.218  2.8309 -0.8091  0.2017
   83SLPC  H17S 7849   5.251   0.906   4.271 -0.0693 -1.3260  1.0168
   83SLPC  C218 7850   5.053   0.870   4.370  0.3057 -0.8690  0.0071
   83SLPC  H18R 7851   5.105   0.781   4.410 -0.1119 -1.7489 -1.3524
   83SLPC  H18S 7852   4.955   0.834   4.333 -0.4335  0.6053  0.4258
   83SLPC  H18T 7853   5.042   0.949   4.447  2.1184 -0.3414 -0.2300
   83SLPC   C33 7854   5.922   0.276   3.377 -0.3168 -0.3484  0.1048
   83SLPC   H3X 7855   6.021   0.227   3.373 -0.2179 -0.1862  0.5658
   83SLPC   H3Y 7856   5.847   0.240   3.302  0.8926 -1.4616 -0.6018
   83SLPC   C34 7857   5.862   0.253   3.519 -0.5605  0.3652 -0.0937
   83SLPC   H4X 7858   5.824   0.149   3.522 -2.9455  1.0980 -1.8444
   83SLPC   H4Y 7859   5.777   0.324   3.535 -1.3677 -1.0943  2.7438
   83SLPC   C35 7860   5.953   0.266   3.637 -0.0248 -0.0964  0.0742
   83SLPC   H5X 7861   6.004   0.365   3.633  0.0326 -0.1358 -0.1664
   83SLPC   H5Y 7862   6.038   0.195   3.631  0.9421  1.1102 -5.3277
   83SLPC   C36 7863   5.880   0.240   3.768 -0.3068  0.1616 -0.1797
   83SLPC   H6X 7864   5.832   0.140   3.774  0.9567 -0.6957 -2.9603
   83SLPC   H6Y 7865   5.801   0.318   3.779 -1.2190 -0.2715 -2.7981
   83SLPC   C37 7866   5.980   0.258   3.885  0.6692  0.3927 -0.4329
   83SLPC   H7X 7867   6.060   0.326   3.849  4.0553 -1.4492  2.8844
   83SLPC   H7Y 7868   6.043   0.168   3.900 -0.0483  0.0176  0.4438
   83SLPC   C38 7869   5.921   0.308   4.018 -0.0962  0.3691 -0.1176
   83SLPC   H8X 7870   5.870   0.223   4.068  2.5577 -0.5251  1.2560
   83SLPC   H8Y 7871   5.846   0.390   4.007 -1.0911 -0.0677  2.5607
   83SLPC   C39 7872   6.035   0.356   4.118  0.1792  0.3902  0.3500
   83SLPC   H9X 7873   6.062   0.449   4.064 -2.5720  0.5245 -0.9878
   83SLPC   H9Y 7874   6.122   0.286   4.116  0.6210  0.9403  0.1742
   83SLPC  C310 7875   5.980   0.373   4.258  0.4132  0.7313 -1.3951
   83SLPC  H10X 7876   5.912   0.289   4.284 -0.1076  1.4435 -0.3916
   83SLPC  H10Y 7877   5.913   0.461   4.252 -1.0281  0.1221  2.8581
   83SLPC  C311 7878   6.088   0.413   4.364  1.4626  0.3171 -0.0531
   83SLPC  H11X 7879   6.151   0.497   4.327 -0.1770  1.4225 -0.4500
   83SLPC  H11Y 7880   6.157   0.328   4.380  1.5024  0.4578  0.5363
   83SLPC  C312 7881   6.020   0.433   4.502 -0.4283  0.3749 -0.6511
   83SLPC  H12X 7882   5.976   0.335   4.533 -3.2902  1.9808  0.8025
   83SLPC  H12Y 7883   5.933   0.500   4.491 -2.6623 -1.2359  4.2152
   83SLPC  C313 7884   6.119   0.494   4.610 -0.2886  0.0917 -0.2735
   83SLPC  H13X 7885   6.065   0.544   4.694 -0.3871  1.1359 -0.9303
   83SLPC  H13Y 7886   6.165   0.586   4.567 -0.9924  1.0401  0.9284
   83SLPC  C314 7887   6.237   0.412   4.661  0.1797 -0.7794  0.2394
   83SLPC  H14X 7888   6.298   0.378   4.574 -1.6511  1.7665 -2.2049
   83SLPC  H14Y 7889   6.205   0.315   4.705  1.2535  0.2284  3.4649
   83SLPC  C315 7890   6.318   0.498   4.758 -0.0209 -0.9414 -0.0881
   83SLPC  H15X 7891   6.249   0.524   4.840  1.6761  0.1043  1.0672
   83SLPC  H15Y 7892   6.350   0.598   4.721 -0.2692 -0.0036  2.1134
   83SLPC  C316 7893   6.444   0.448   4.819 -0.2354  0.4729 -0.2743
   83SLPC  H16X 7894   6.490   0.538   4.865 -0.6285  0.1029  0.8954
   83SLPC  H16Y 7895   6.517   0.411   4.744  0.7169  0.2034  0.7559
   83SLPC  C317 7896   6.415   0.341   4.938 -0.5675  0.4473  0.3315
   83SLPC  H17X 7897   6.384   0.243   4.897  0.7435 -0.1464  0.7234
   83SLPC  H17Y 7898   6.325   0.382   4.989 -0.9211 -0.0611  0.1233
   83SLPC  C318 7899   6.527   0.308   5.043  0.7938 -0.5821  0.6260
   83SLPC  H18X 7900   6.534   0.381   5.126  1.8411 -1.1905  1.0988
   83SLPC  H18Y 7901   6.622   0.320   4.988 -0.7317  0.5407 -1.9435
   83SLPC  H18Z 7902   6.515   0.206   5.087  1.4985 -0.8045  0.3056
   84SLPC     N 7903   3.121   4.828   2.620 -0.3359  0.0204 -0.7028
   84SLPC   C13 7904   3.211   4.720   2.571 -0.6936  0.1904  0.5236
   84SLPC  H13A 7905   3.301   4.748   2.519 -1.3507 -0.3822 -0.9884
   84SLPC  H13B 7906   3.238   4.647   2.645  0.7307 -0.1343 -0.2851
   84SLPC  H13C 7907   3.151   4.658   2.506  0.0867  0.6000 -0.6204
   84SLPC   C14 7908   3.060   4.893   2.499  0.1048 -0.5032 -1.0912
   84SLPC  H14A 7909   3.137   4.930   2.433  1.3900 -0.8538  0.1693
   84SLPC  H14B 7910   2.988   4.825   2.454  1.9677 -3.5683  0.2540
   84SLPC  H14C 7911   3.011   4.984   2.528 -0.0887 -0.8378 -0.3534
   84SLPC   C15 7912   3.208   4.933   2.684  0.0157 -0.1688 -1.9200
   84SLPC  H15A 7913   3.276   4.980   2.615 -1.8508  2.2623 -2.2456
   84SLPC  H15B 7914   3.145   5.005   2.734  0.4843  1.5257 -3.6732
   84SLPC  H15C 7915   3.269   4.891   2.763 -1.1218  1.0264 -0.3427
   84SLPC   C12 7916   3.025   4.770   2.725 -0.3075  0.0269 -0.4279
   84SLPC  H12A 7917   3.082   4.716   2.800  0.4209  0.5284 -0.6132
   84SLPC  H12B 7918   2.966   4.691   2.681 -0.4587 -0.3983  0.5181
   84SLPC   C11 7919   2.923   4.858   2.794  0.1952  0.6698 -0.7067
   84SLPC  H11A 7920   2.962   4.933   2.866 -1.9424  0.3988  0.8484
   84SLPC  H11B 7921   2.862   4.787   2.853 -0.8269  1.3271 -0.9445
   84SLPC     P 7922   2.723   4.877   2.633 -0.0504  0.3325  0.1793
   84SLPC   O13 7923   2.693   4.953   2.509 -0.0348 -0.1766  0.2001
   84SLPC   O14 7924   2.726   4.735   2.616  0.4173 -0.1731 -0.4768
   84SLPC   O12 7925   2.848   4.940   2.703 -0.2775  0.1988 -0.2940
   84SLPC   O11 7926   2.612   4.905   2.741 -0.3147 -0.5010  0.3805
   84SLPC    C1 7927   2.580   5.037   2.783  0.3413  0.1076 -0.0227
   84SLPC    HA 7928   2.648   5.106   2.730  1.2121  0.6245  1.6999
   84SLPC    HB 7929   2.474   5.053   2.753  0.6371  0.1711 -1.0823
   84SLPC    C2 7930   2.586   5.054   2.940 -1.0768 -0.1919  0.7377
   84SLPC    HS 7931   2.679   5.011   2.983 -0.3578  0.1390 -0.4423
   84SLPC   O21 7932   2.469   4.990   2.994 -0.6499  0.1526  0.1945
   84SLPC   C21 7933   2.482   4.872   3.041  0.0298  0.2803  0.6620
   84SLPC   O22 7934   2.587   4.809   3.042 -0.0693  0.8944  0.6444
   84SLPC   C22 7935   2.346   4.835   3.107 -0.1134  0.0642 -0.3340
   84SLPC   H2R 7936   2.267   4.908   3.080  0.2323  0.0570 -1.4426
   84SLPC   H2S 7937   2.316   4.733   3.072  1.2986 -0.9059  1.1418
   84SLPC    C3 7938   2.582   5.208   2.975  0.0714 -0.1533  0.2710
   84SLPC    HX 7939   2.477   5.242   2.968  0.1378 -0.2773 -2.1544
   84SLPC    HY 7940   2.631   5.267   2.895 -0.9847  0.0348 -0.2444
   84SLPC   O31 7941   2.630   5.239   3.109 -0.8796  0.0722 -0.3378
   84SLPC   C31 7942   2.747   5.298   3.120  0.2125  1.0905 -0.1495
   84SLPC   O32 7943   2.823   5.314   3.031 -0.2186  0.0447 -0.5288
   84SLPC   C32 7944   2.775   5.327   3.266  0.4491  0.3680  0.0442
   84SLPC   H2X 7945   2.706   5.411   3.289  0.0417  0.8514 -2.6966
   84SLPC   H2Y 7946   2.883   5.351   3.272  0.8694 -1.3285 -0.1228
   84SLPC   C23 7947   2.358   4.820   3.258 -1.2208 -1.1753  0.7857
   84SLPC   H3R 7948   2.442   4.756   3.291  0.4569 -0.3370 -1.5853
   84SLPC   H3S 7949   2.264   4.772   3.294 -1.7605 -0.8608 -0.1589
   84SLPC   C24 7950   2.376   4.962   3.325  0.1095  0.0156  0.3371
   84SLPC   H4R 7951   2.294   5.028   3.289  0.6280  1.2483  1.3247
   84SLPC   H4S 7952   2.475   5.005   3.296  0.3603  1.1604  2.6857
   84SLPC   C25 7953   2.384   4.966   3.481  1.0441 -0.1476  0.0137
   84SLPC   H5R 7954   2.301   4.907   3.525  0.2655  0.5381 -0.5203
   84SLPC   H5S 7955   2.356   5.070   3.507  1.4798 -0.3003  1.1818
   84SLPC   C26 7956   2.522   4.926   3.536 -0.3714  0.0294  0.7843
   84SLPC   H6R 7957   2.604   4.958   3.467 -0.4173 -1.9126 -0.2428
   84SLPC   H6S 7958   2.537   4.816   3.529 -0.6406 -0.0610  1.5439
   84SLPC   C27 7959   2.553   4.993   3.669  0.6453  0.6814  0.5675
   84SLPC   H7R 7960   2.546   5.102   3.653 -0.6686  0.4424 -0.6775
   84SLPC   H7S 7961   2.658   4.972   3.698  0.8664  1.3682  0.2662
   84SLPC   C28 7962   2.455   4.956   3.779  0.5582 -0.5405  0.3701
   84SLPC   H8R 7963   2.351   4.986   3.754  0.2329 -0.7877  1.3811
   84SLPC   H8S 7964   2.479   5.027   3.860 -1.9545  0.4097  0.3668
   84SLPC   C29 7965   2.452   4.815   3.818 -0.3856 -0.0684  0.8094
   84SLPC   H9R 7966   2.369   4.762   3.771 -0.3195 -1.3814  2.1117
   84SLPC  C210 7967   2.533   4.753   3.907  0.0366  0.6033 -0.1489
   84SLPC  H10R 7968   2.517   4.645   3.922 -0.2286  0.4916 -1.1639
   84SLPC  C211 7969   2.639   4.833   3.991 -0.1393  0.1065  0.1419
   84SLPC  H11R 7970   2.623   4.814   4.100  3.0756  1.0909  0.8950
   84SLPC  H11S 7971   2.630   4.944   3.984  0.1520  0.0942 -0.4237
   84SLPC  C212 7972   2.786   4.794   3.960 -0.1579  0.1990  0.1902
   84SLPC  H12R 7973   2.804   4.755   3.859  1.2470  0.6030  0.2703
   84SLPC  C213 7974   2.894   4.786   4.047  0.0277  0.1008  0.1389
   84SLPC  H13R 7975   2.988   4.746   4.006  1.6626  2.2842  1.5673
   84SLPC  C214 7976   2.914   4.813   4.189 -0.2832  0.0088  0.2081
   84SLPC  H14R 7977   2.820   4.811   4.248 -0.5068 -0.2548 -0.1538
   84SLPC  H14S 7978   2.965   4.911   4.204 -1.0516  0.3912  0.3496
   84SLPC  C215 7979   3.005   4.706   4.257  0.1871  0.3306  0.4668
   84SLPC  H15R 7980   2.991   4.712   4.367 -0.1249 -2.9703  0.6915
   84SLPC  H15S 7981   3.111   4.732   4.241 -0.3836  2.2901 -0.4822
   84SLPC  C216 7982   2.974   4.552   4.228  0.2795  0.0422 -0.5401
   84SLPC  H16R 7983   3.014   4.530   4.127  1.1516 -1.2842  0.0666
   84SLPC  H16S 7984   2.863   4.540   4.230  0.2635  0.1820 -0.5985
   84SLPC  C217 7985   3.047   4.466   4.329 -0.1605  0.1991  1.1972
   84SLPC  H17R 7986   2.998   4.366   4.325 -0.2107  0.2580 -0.1385
   84SLPC  H17S 7987   3.028   4.511   4.429 -0.9935 -1.5340  1.8734
   84SLPC  C218 7988   3.198   4.446   4.297 -0.0803 -0.3716 -0.1864
   84SLPC  H18R 7989   3.245   4.541   4.266  0.0284  0.0726  1.2631
   84SLPC  H18S 7990   3.215   4.370   4.217  1.0070  1.2730 -1.5867
   84SLPC  H18T 7991   3.237   4.399   4.390 -0.9752  0.3813  0.5882
   84SLPC   C33 7992   2.749   5.204   3.356  0.1229 -0.4423 -0.5354
   84SLPC   H3X 7993   2.805   5.112   3.328 -0.7993 -1.8383  1.8659
   84SLPC   H3Y 7994   2.642   5.181   3.375  0.3082 -1.5021 -0.6891
   84SLPC   C34 7995   2.807   5.243   3.497  0.2377  0.1294  0.1310
   84SLPC   H4X 7996   2.908   5.284   3.476 -0.8068  1.4759 -2.8783
   84SLPC   H4Y 7997   2.813   5.145   3.549  1.2892 -1.0215 -2.0607
   84SLPC   C35 7998   2.723   5.342   3.575 -0.4746  0.4664 -0.3669
   84SLPC   H5X 7999   2.614   5.321   3.567 -0.5454  0.6036  0.1922
   84SLPC   H5Y 8000   2.746   5.445   3.542  2.4353 -0.4637 -1.5240
   84SLPC   C36 8001   2.752   5.330   3.725 -0.0622 -0.4158  0.1277
   84SLPC   H6X 8002   2.861   5.351   3.736 -0.0785  0.7954 -1.5920
   84SLPC   H6Y 8003   2.741   5.223   3.750 -0.2318 -1.2124 -2.9465
   84SLPC   C37 8004   2.688   5.425   3.819 -0.2255 -0.2134  0.3202
   84SLPC   H7X 8005   2.578   5.425   3.803 -0.2493  2.2572  0.0335
   84SLPC   H7Y 8006   2.735   5.523   3.796  3.5875 -2.2452 -1.5084
   84SLPC   C38 8007   2.714   5.388   3.963  0.2343 -0.2133  0.1188
   84SLPC   H8X 8008   2.673   5.470   4.027  0.5244  0.7151 -0.8486
   84SLPC   H8Y 8009   2.823   5.381   3.987 -0.1756 -1.3852  1.7914
   84SLPC   C39 8010   2.652   5.255   4.009 -0.5997  0.2760 -0.1735
   84SLPC   H9X 8011   2.696   5.174   3.946  0.5801  0.9754 -0.2725
   84SLPC   H9Y 8012   2.544   5.254   3.983 -0.4163  1.4463 -1.0723
   84SLPC  C310 8013   2.676   5.228   4.155  0.5465 -0.6927  0.6188
   84SLPC  H10X 8014   2.770   5.256   4.205  1.0079  0.1474 -0.6769
   84SLPC  H10Y 8015   2.666   5.117   4.162  1.0948 -0.7721  0.1585
   84SLPC  C311 8016   2.561   5.289   4.235 -0.9442  0.0414  0.2850
   84SLPC  H11X 8017   2.459   5.256   4.203 -1.1178  0.6938  0.1562
   84SLPC  H11Y 8018   2.570   5.399   4.229  1.8839 -0.1985 -1.5575
   84SLPC  C312 8019   2.549   5.258   4.387 -0.3000  0.6263  0.1032
   84SLPC  H12X 8020   2.555   5.154   4.424 -1.4580  0.6177  0.2993
   84SLPC  H12Y 8021   2.443   5.286   4.407 -1.8167 -1.8811 -3.2874
   84SLPC  C313 8022   2.642   5.352   4.463  0.0587  0.5416 -0.2256
   84SLPC  H13X 8023   2.612   5.459   4.476 -1.4841 -0.0700  1.7540
   84SLPC  H13Y 8024   2.739   5.357   4.409  1.2441  2.4315  1.8739
   84SLPC  C314 8025   2.666   5.294   4.604 -1.1899 -0.3802  0.2978
   84SLPC  H14X 8026   2.683   5.188   4.574  0.9661 -0.3359  1.2126
   84SLPC  H14Y 8027   2.578   5.301   4.671 -0.1662  1.4290  1.5271
   84SLPC  C315 8028   2.789   5.355   4.673  0.0188 -0.2413  0.0560
   84SLPC  H15X 8029   2.873   5.343   4.601  0.0099 -0.4576  0.0810
   84SLPC  H15Y 8030   2.805   5.300   4.769  0.7356 -1.5727 -0.7879
   84SLPC  C316 8031   2.758   5.509   4.700 -0.7923  0.2398 -0.2658
   84SLPC  H16X 8032   2.665   5.510   4.762 -0.9823  0.4245 -0.5488
   84SLPC  H16Y 8033   2.737   5.552   4.600  0.3555  1.1609 -0.1388
   84SLPC  C317 8034   2.867   5.585   4.782 -0.2072 -0.2491  0.4961
   84SLPC  H17X 8035   2.959   5.582   4.719 -1.2932  1.4668 -1.2718
   84SLPC  H17Y 8036   2.890   5.527   4.874  2.7515  0.5833  0.3868
   84SLPC  C318 8037   2.833   5.727   4.806 -0.0236  0.2863 -0.2622
   84SLPC  H18X 8038   2.909   5.778   4.869  0.0766 -0.0954 -0.0700
   84SLPC  H18Y 8039   2.738   5.723   4.864 -0.0196 -3.3057 -0.3236
   84SLPC  H18Z 8040   2.815   5.785   4.713 -1.2798 -0.6080 -0.6043
   85SLPC     N 8041   6.179   3.377   2.434 -0.7143 -0.3829 -0.6987
   85SLPC   C13 8042   6.256   3.498   2.494 -0.5276  0.1822 -0.5526
   85SLPC  H13A 8043   6.269   3.481   2.599 -1.0774 -1.1805 -0.6843
   85SLPC  H13B 8044   6.350   3.496   2.442 -0.8165 -1.7085 -1.0726
   85SLPC  H13C 8045   6.213   3.596   2.476  2.1481  1.8353  1.3753
   85SLPC   C14 8046   6.189   3.380   2.281  0.0765  0.1176 -0.3595
   85SLPC  H14A 8047   6.285   3.408   2.239 -0.4469  1.1335 -0.9148
   85SLPC  H14B 8048   6.164   3.292   2.224 -1.3564  0.8597 -0.9222
   85SLPC  H14C 8049   6.113   3.451   2.253 -0.3385 -0.2751 -0.2457
   85SLPC   C15 8050   6.039   3.382   2.489  0.1964  0.0207 -0.1214
   85SLPC  H15A 8051   5.989   3.292   2.457 -4.0227  1.9851  0.3162
   85SLPC  H15B 8052   6.044   3.394   2.596  0.3251  1.7079 -0.2881
   85SLPC  H15C 8053   5.984   3.468   2.453  2.2863  1.5289  0.0877
   85SLPC   C12 8054   6.247   3.245   2.481 -0.5913 -0.0851  0.2206
   85SLPC  H12A 8055   6.242   3.224   2.587 -0.4944  0.6306  0.3728
   85SLPC  H12B 8056   6.352   3.256   2.463 -0.8272  0.4345 -0.8909
   85SLPC   C11 8057   6.202   3.113   2.416  0.2285 -0.6353  0.3098
   85SLPC  H11A 8058   6.271   3.034   2.454  0.0386 -1.0002 -0.1004
   85SLPC  H11B 8059   6.214   3.125   2.306 -3.1075  1.9776  0.0817
   85SLPC     P 8060   6.017   3.033   2.587  0.0693 -0.4017  0.4888
   85SLPC   O13 8061   6.111   3.064   2.688 -0.2450  0.4225  0.1714
   85SLPC   O14 8062   5.877   3.071   2.611  0.3741 -0.3053 -1.0959
   85SLPC   O12 8063   6.066   3.085   2.445  0.2290 -0.0495 -0.1251
   85SLPC   O11 8064   6.034   2.878   2.565 -0.2503 -0.1659  0.3951
   85SLPC    C1 8065   5.944   2.776   2.609 -0.2499 -0.4611 -0.6921
   85SLPC    HA 8066   5.840   2.811   2.592 -0.9012 -1.9168  0.1248
   85SLPC    HB 8067   5.957   2.691   2.539  0.6955 -1.7666  1.0002
   85SLPC    C2 8068   5.972   2.724   2.757  0.2330 -0.2161  0.1686
   85SLPC    HS 8069   5.913   2.633   2.777  1.3041 -1.3565 -1.5894
   85SLPC   O21 8070   5.933   2.827   2.848  0.1731  0.2930 -0.0705
   85SLPC   C21 8071   5.811   2.830   2.883  0.2658  0.5188  0.4344
   85SLPC   O22 8072   5.722   2.754   2.844  0.0406 -0.1661  0.2704
   85SLPC   C22 8073   5.794   2.943   2.975 -0.0337  0.6874  0.6930
   85SLPC   H2R 8074   5.887   2.947   3.035 -0.2261 -1.8166  1.2661
   85SLPC   H2S 8075   5.774   3.042   2.929 -1.6178  0.0629 -0.0542
   85SLPC    C3 8076   6.122   2.697   2.775  0.1948  0.0016 -0.4287
   85SLPC    HX 8077   6.167   2.799   2.765  0.2172  0.1127  0.6938
   85SLPC    HY 8078   6.167   2.641   2.690  0.3935 -0.9950  0.3142
   85SLPC   O31 8079   6.160   2.645   2.907  0.5502 -0.5286 -0.5553
   85SLPC   C31 8080   6.196   2.731   3.007  0.0023 -0.5618  0.7068
   85SLPC   O32 8081   6.199   2.855   3.003 -0.3589  0.0049  0.1241
   85SLPC   C32 8082   6.223   2.646   3.132 -0.0004 -0.7169 -0.6560
   85SLPC   H2X 8083   6.258   2.545   3.102  1.5235 -0.9385  1.6441
   85SLPC   H2Y 8084   6.131   2.646   3.194  0.8333  0.2126  0.6355
   85SLPC   C23 8085   5.671   2.932   3.071  0.0962  0.7177 -0.3188
   85SLPC   H3R 8086   5.675   3.019   3.139 -3.3270  2.3606 -1.9819
   85SLPC   H3S 8087   5.677   2.837   3.129 -0.6786 -0.2759 -1.7839
   85SLPC   C24 8088   5.536   2.963   3.015  0.7924  0.7744 -0.2857
   85SLPC   H4R 8089   5.490   2.868   2.981 -1.6584  1.0282  1.9664
   85SLPC   H4S 8090   5.550   3.031   2.929  0.1685 -0.0322 -1.0490
   85SLPC   C25 8091   5.428   3.019   3.108  0.3434  0.2690  0.0111
   85SLPC   H5R 8092   5.432   3.128   3.126 -2.6432  0.9258 -2.3895
   85SLPC   H5S 8093   5.332   3.018   3.051  0.7186 -0.3812 -0.6320
   85SLPC   C26 8094   5.403   2.934   3.231 -0.7425 -0.4256 -0.5462
   85SLPC   H6R 8095   5.326   2.992   3.287  0.3662  0.3632  0.2100
   85SLPC   H6S 8096   5.492   2.920   3.295 -1.3857 -0.4991  0.3635
   85SLPC   C27 8097   5.342   2.798   3.202 -0.3363  1.1439 -0.5077
   85SLPC   H7R 8098   5.403   2.729   3.140 -1.6774  0.4848 -1.1391
   85SLPC   H7S 8099   5.244   2.804   3.150  0.0230 -0.0880 -1.3477
   85SLPC   C28 8100   5.318   2.718   3.331  0.4712  0.2667  0.0003
   85SLPC   H8R 8101   5.278   2.618   3.303 -0.8814  1.1286 -1.2216
   85SLPC   H8S 8102   5.241   2.772   3.391  0.2646  3.9183 -3.2265
   85SLPC   C29 8103   5.438   2.689   3.409  0.0784 -0.2530  0.7335
   85SLPC   H9R 8104   5.504   2.623   3.351 -2.5709 -2.2073 -0.3023
   85SLPC  C210 8105   5.472   2.740   3.535  0.3153  0.1524 -0.2265
   85SLPC  H10R 8106   5.556   2.694   3.588 -0.2702  0.9562  1.4785
   85SLPC  C211 8107   5.397   2.835   3.626  0.1359  0.2580  0.7159
   85SLPC  H11R 8108   5.436   2.809   3.727  3.7731  1.8837 -0.0957
   85SLPC  H11S 8109   5.291   2.802   3.622  0.2815 -0.1203 -0.0817
   85SLPC  C212 8110   5.419   2.979   3.602  0.1361 -1.1384  0.0167
   85SLPC  H12R 8111   5.359   3.023   3.520  1.2065 -0.1938 -0.2848
   85SLPC  C213 8112   5.491   3.066   3.677 -0.3116  0.1051  0.1499
   85SLPC  H13R 8113   5.520   3.158   3.624 -1.1256  0.2850 -0.0012
   85SLPC  C214 8114   5.588   3.031   3.789  0.0257  0.6396  1.0318
   85SLPC  H14R 8115   5.668   3.106   3.775 -1.2661  1.6863 -1.5693
   85SLPC  H14S 8116   5.628   2.929   3.778 -1.2331  0.1521  0.7492
   85SLPC  C215 8117   5.529   3.064   3.930  0.4874  0.4115  0.4367
   85SLPC  H15R 8118   5.426   3.022   3.937  0.2876  0.6747 -0.7323
   85SLPC  H15S 8119   5.533   3.174   3.947  3.1444  0.2697  1.2795
   85SLPC  C216 8120   5.615   3.007   4.049 -0.6815  0.6794 -0.9730
   85SLPC  H16R 8121   5.575   3.037   4.148  0.2944  0.4695 -0.5105
   85SLPC  H16S 8122   5.721   3.038   4.040  0.5775 -3.0438 -0.6118
   85SLPC  C217 8123   5.605   2.851   4.065  0.0035 -0.5637 -0.2290
   85SLPC  H17R 8124   5.610   2.813   3.961  0.6916 -0.5201 -0.2184
   85SLPC  H17S 8125   5.504   2.832   4.107 -0.2057 -0.6091 -0.7471
   85SLPC  C218 8126   5.718   2.795   4.150 -0.5596 -0.7734 -0.5526
   85SLPC  H18R 8127   5.708   2.821   4.258 -1.3063 -0.0156 -0.7932
   85SLPC  H18S 8128   5.821   2.818   4.115 -1.1625  2.6540 -0.4867
   85SLPC  H18T 8129   5.721   2.684   4.149 -0.3517 -0.7793  0.0995
   85SLPC   C33 8130   6.351   2.692   3.200  0.5683  0.4934 -0.3412
   85SLPC   H3X 8131   6.344   2.799   3.230  0.2853  0.5130 -0.4722
   85SLPC   H3Y 8132   6.434   2.680   3.128  2.1697  2.5778  1.0354
   85SLPC   C34 8133   6.386   2.605   3.325  0.0541 -0.0579 -0.6252
   85SLPC   H4X 8134   6.488   2.643   3.344 -1.1051  3.3612 -0.5399
   85SLPC   H4Y 8135   6.387   2.500   3.288 -1.0137  0.2162 -1.4856
   85SLPC   C35 8136   6.289   2.617   3.441  0.2707 -0.4233 -0.2595
   85SLPC   H5X 8137   6.193   2.568   3.413 -0.0382 -0.0894  0.2072
   85SLPC   H5Y 8138   6.278   2.725   3.464  0.9171 -0.1906 -0.9877
   85SLPC   C36 8139   6.350   2.539   3.563 -0.2420 -0.1027 -0.3302
   85SLPC   H6X 8140   6.445   2.582   3.600 -0.7360  0.6929  0.0449
   85SLPC   H6Y 8141   6.370   2.432   3.538 -1.6263 -0.7648  1.1701
   85SLPC   C37 8142   6.251   2.532   3.681 -0.1389  0.5064  1.1068
   85SLPC   H7X 8143   6.168   2.464   3.652  1.8115 -1.5730  0.0443
   85SLPC   H7Y 8144   6.214   2.636   3.694 -0.9912  0.2074  1.1334
   85SLPC   C38 8145   6.321   2.493   3.808 -0.8474  0.0288 -0.3737
   85SLPC   H8X 8146   6.404   2.564   3.826 -0.0419 -0.8692 -0.4382
   85SLPC   H8Y 8147   6.373   2.395   3.794  1.0645  1.0940 -1.0254
   85SLPC   C39 8148   6.230   2.492   3.929 -0.2750 -0.4899  0.1516
   85SLPC   H9X 8149   6.190   2.388   3.926 -3.0464  0.5246 -1.4929
   85SLPC   H9Y 8150   6.149   2.567   3.917  1.2592  1.5793  1.9286
   85SLPC  C310 8151   6.290   2.506   4.069  0.0120 -0.4387  0.1953
   85SLPC  H10X 8152   6.346   2.602   4.077 -1.4625  0.4007  0.9818
   85SLPC  H10Y 8153   6.367   2.428   4.088  1.7226  1.2237  0.3659
   85SLPC  C311 8154   6.185   2.500   4.182  0.6039 -0.0934 -0.0515
   85SLPC  H11X 8155   6.239   2.471   4.275 -1.3331  2.5031  2.0380
   85SLPC  H11Y 8156   6.101   2.430   4.162 -0.6345  0.7515  1.9488
   85SLPC  C312 8157   6.128   2.642   4.217  0.2364  0.4315 -0.1371
   85SLPC  H12X 8158   6.090   2.695   4.127 -1.1645  0.4588  0.4552
   85SLPC  H12Y 8159   6.204   2.703   4.272  0.6376 -0.0516 -0.1508
   85SLPC  C313 8160   6.008   2.626   4.312 -0.2951 -0.4914 -0.1677
   85SLPC  H13X 8161   6.035   2.549   4.387  2.4048 -0.2376 -0.7675
   85SLPC  H13Y 8162   5.917   2.594   4.256 -0.5467  2.1465 -1.4033
   85SLPC  C314 8163   5.970   2.751   4.390  0.1024 -0.2740 -0.3506
   85SLPC  H14X 8164   5.865   2.727   4.420  0.1131 -1.1712 -0.9757
   85SLPC  H14Y 8165   5.962   2.849   4.338  0.6953 -0.3155 -0.5248
   85SLPC  C315 8166   6.054   2.768   4.513 -0.2020 -0.1674 -0.1812
   85SLPC  H15X 8167   6.162   2.754   4.494 -0.0503 -1.5982  1.4844
   85SLPC  H15Y 8168   6.010   2.697   4.586 -2.2497  2.2965  1.1585
   85SLPC  C316 8169   6.042   2.911   4.573  0.0858 -1.1815 -0.5378
   85SLPC  H16X 8170   6.095   2.981   4.505 -1.0397  4.4142  3.5561
   85SLPC  H16Y 8171   6.110   2.926   4.660 -0.1409  0.9334 -0.6655
   85SLPC  C317 8172   5.899   2.947   4.626  0.0652  0.0760  0.5755
   85SLPC  H17X 8173   5.849   2.855   4.662  0.9946  0.1700  2.2287
   85SLPC  H17Y 8174   5.840   2.984   4.540  0.4782  1.9144  1.0288
   85SLPC  C318 8175   5.897   3.048   4.736 -0.2911  0.0729 -0.0226
   85SLPC  H18X 8176   5.937   3.009   4.832 -1.0925 -0.2518  0.1879
   85SLPC  H18Y 8177   5.794   3.088   4.745 -0.1039  0.3888  0.7778
   85SLPC  H18Z 8178   5.964   3.133   4.709  2.6758 -2.0159  0.2938
   86SLPC     N 8179   1.479   4.951   2.287  0.7524  0.0492 -1.2514
   86SLPC   C13 8180   1.594   4.905   2.208  0.5955 -0.0553 -0.5325
   86SLPC  H13A 8181   1.612   4.976   2.128 -0.4785  1.0464  0.1674
   86SLPC  H13B 8182   1.675   4.886   2.276  1.3727  1.2596 -1.0498
   86SLPC  H13C 8183   1.565   4.817   2.153 -1.0770  1.4102 -2.1545
   86SLPC   C14 8184   1.367   4.973   2.190  0.2575 -0.3404  0.6870
   86SLPC  H14A 8185   1.388   5.066   2.139 -1.3610 -1.4301 -2.1881
   86SLPC  H14B 8186   1.370   4.893   2.117 -2.2771 -0.4413  0.6020
   86SLPC  H14C 8187   1.271   4.965   2.238 -0.8815 -0.9941 -1.5536
   86SLPC   C15 8188   1.511   5.082   2.340 -0.9009  0.2508 -0.4398
   86SLPC  H15A 8189   1.564   5.142   2.268 -1.3154  1.8434  0.5419
   86SLPC  H15B 8190   1.426   5.128   2.387 -0.2710 -0.4018  1.4794
   86SLPC  H15C 8191   1.573   5.068   2.428 -2.8745  0.6204  1.0734
   86SLPC   C12 8192   1.443   4.842   2.389 -0.3031 -0.7168 -0.0569
   86SLPC  H12A 8193   1.526   4.826   2.456  0.0046 -1.6927 -0.6501
   86SLPC  H12B 8194   1.431   4.747   2.338 -1.6338 -0.7282  0.2445
   86SLPC   C11 8195   1.321   4.864   2.479  0.4925  0.7137  0.3511
   86SLPC  H11A 8196   1.348   4.947   2.549  1.5412 -1.1976  2.3506
   86SLPC  H11B 8197   1.317   4.778   2.549  0.8986  1.6865  1.6219
   86SLPC     P 8198   1.097   4.990   2.476  0.0182  0.4574 -0.0483
   86SLPC   O13 8199   1.142   5.129   2.473 -0.1733 -0.3816 -0.1456
   86SLPC   O14 8200   0.971   4.963   2.412 -0.3221 -0.0964  0.9064
   86SLPC   O12 8201   1.202   4.896   2.406  0.2408  0.6215  0.2045
   86SLPC   O11 8202   1.101   4.941   2.631  0.2777  0.1454  0.5967
   86SLPC    C1 8203   0.985   4.976   2.707  0.4972  0.0319  0.4201
   86SLPC    HA 8204   0.978   5.087   2.718  1.8746  0.2234 -0.4727
   86SLPC    HB 8205   0.895   4.928   2.664  0.5136 -0.2566  0.7032
   86SLPC    C2 8206   1.021   4.933   2.848 -0.2273 -0.0077 -0.5493
   86SLPC    HS 8207   1.028   4.822   2.856  0.3034  0.0392 -0.3742
   86SLPC   O21 8208   0.917   4.979   2.939 -0.0573 -0.2991 -0.6194
   86SLPC   C21 8209   0.889   4.921   3.052  0.1224 -0.0131 -0.6667
   86SLPC   O22 8210   0.943   4.821   3.093 -0.5920  0.0414 -0.5356
   86SLPC   C22 8211   0.770   4.986   3.122 -0.8704 -0.3452 -0.4859
   86SLPC   H2R 8212   0.798   5.076   3.181 -2.3167  0.1112 -0.4579
   86SLPC   H2S 8213   0.705   5.031   3.044 -0.1859  0.0811 -0.8277
   86SLPC    C3 8214   1.156   4.994   2.892 -0.7387  0.4158 -0.1100
   86SLPC    HX 8215   1.165   5.104   2.882  1.6678  0.3856  0.8480
   86SLPC    HY 8216   1.232   4.961   2.818  2.2417 -0.1519  2.9195
   86SLPC   O31 8217   1.188   4.955   3.026 -0.0511 -0.6190  0.3840
   86SLPC   C31 8218   1.247   4.839   3.041  0.1601 -0.0073  0.2356
   86SLPC   O32 8219   1.291   4.756   2.963  0.0311  0.2363  0.4578
   86SLPC   C32 8220   1.255   4.815   3.190 -0.4878 -0.3601 -0.4129
   86SLPC   H2X 8221   1.161   4.763   3.219 -0.8892 -0.2823 -1.5646
   86SLPC   H2Y 8222   1.254   4.913   3.243  0.4275  0.8298 -2.5080
   86SLPC   C23 8223   0.674   4.893   3.197  0.5150 -0.1815 -0.2277
   86SLPC   H3R 8224   0.724   4.841   3.282  1.7993  0.6330 -0.4506
   86SLPC   H3S 8225   0.649   4.807   3.132  0.3646 -1.2636  1.1926
   86SLPC   C24 8226   0.549   4.968   3.252 -0.7189 -0.5113  0.5008
   86SLPC   H4R 8227   0.506   5.017   3.162  0.0027 -0.6421  0.0779
   86SLPC   H4S 8228   0.576   5.052   3.319 -0.3168  0.0866 -0.4038
   86SLPC   C25 8229   0.446   4.885   3.325 -1.0651  0.5690  0.0366
   86SLPC   H5R 8230   0.500   4.814   3.390 -0.1637 -0.4468 -1.7407
   86SLPC   H5S 8231   0.387   4.837   3.243  0.5482 -0.3005 -0.6565
   86SLPC   C26 8232   0.354   4.951   3.429  0.5476  0.2052  0.2336
   86SLPC   H6R 8233   0.409   4.990   3.518  0.7575  1.7081 -0.5094
   86SLPC   H6S 8234   0.283   4.874   3.464 -0.6634  0.0194 -2.4235
   86SLPC   C27 8235   0.276   5.066   3.365  0.3107  0.3684  0.4062
   86SLPC   H7R 8236   0.243   5.015   3.272  2.4772 -2.4620  1.0244
   86SLPC   H7S 8237   0.350   5.141   3.330  0.0676  0.0024 -0.9247
   86SLPC   C28 8238   0.172   5.138   3.448 -0.4190  0.0837  0.3372
   86SLPC   H8R 8239   0.221   5.176   3.540  3.7676  0.8346 -1.9312
   86SLPC   H8S 8240   0.099   5.058   3.472 -0.6514 -0.2560 -1.3533
   86SLPC   C29 8241   0.100   5.239   3.368  0.4315 -0.2175 -0.0097
   86SLPC   H9R 8242   0.055   5.207   3.273 -3.0867  2.8067  0.4006
   86SLPC  C210 8243   0.073   5.367   3.405  0.0382 -0.3139  0.2866
   86SLPC  H10R 8244   0.010   5.432   3.343  0.8389  1.4228  1.2162
   86SLPC  C211 8245   0.125   5.424   3.533  0.4782  0.0401  0.6073
   86SLPC  H11R 8246   0.234   5.402   3.536  0.0624 -2.3872  0.5290
   86SLPC  H11S 8247   0.088   5.368   3.622 -2.1575  0.5219 -0.0958
   86SLPC  C212 8248   0.098   5.570   3.560  0.2129  1.1018  0.5311
   86SLPC  H12R 8249   0.044   5.615   3.475 -0.5793 -0.9872 -0.1393
   86SLPC  C213 8250   0.153   5.647   3.652  0.2986  0.4031 -0.1389
   86SLPC  H13R 8251   0.134   5.755   3.643 -2.4444  0.0316  0.5454
   86SLPC  C214 8252   0.245   5.604   3.765 -0.0315  0.5917 -0.7663
   86SLPC  H14R 8253   0.225   5.496   3.777 -2.2580  1.0581  0.3471
   86SLPC  H14S 8254   0.217   5.664   3.854  2.3013  1.5599 -0.6159
   86SLPC  C215 8255   0.388   5.633   3.743  0.1546  0.2632  0.1636
   86SLPC  H15R 8256   0.425   5.581   3.652  0.3437 -0.5421  0.6879
   86SLPC  H15S 8257   0.455   5.599   3.825  2.7963  0.2084 -1.8694
   86SLPC  C216 8258   0.410   5.786   3.714 -0.0647 -0.2767  0.1682
   86SLPC  H16R 8259   0.349   5.851   3.781  1.4805  0.3959  0.9751
   86SLPC  H16S 8260   0.384   5.808   3.609  1.6643  0.1289 -0.1946
   86SLPC  C217 8261   0.565   5.819   3.713  0.3853  0.2067  0.2109
   86SLPC  H17R 8262   0.616   5.753   3.639 -2.3625 -0.5588 -1.0968
   86SLPC  H17S 8263   0.611   5.800   3.812  0.9277  2.2585  0.3901
   86SLPC  C218 8264   0.595   5.963   3.677 -0.1995  0.3686 -0.7895
   86SLPC  H18R 8265   0.584   5.991   3.570  1.3507  1.1374 -0.7731
   86SLPC  H18S 8266   0.691   6.006   3.714 -1.3277 -0.2536  3.3964
   86SLPC  H18T 8267   0.524   6.029   3.732 -0.2192 -1.5068  1.6261
   86SLPC   C33 8268   1.361   4.713   3.244 -0.4361  0.8453 -0.8272
   86SLPC   H3X 8269   1.461   4.748   3.210 -0.7147  2.6573  0.0773
   86SLPC   H3Y 8270   1.340   4.614   3.199  0.3086  0.7631 -1.0174
   86SLPC   C34 8271   1.361   4.709   3.398  0.0366 -0.4146 -0.2473
   86SLPC   H4X 8272   1.258   4.700   3.438  0.1921  2.5024  1.0379
   86SLPC   H4Y 8273   1.405   4.800   3.443  1.4925 -1.0550 -0.3233
   86SLPC   C35 8274   1.434   4.589   3.463  0.1340 -0.3780  0.0009
   86SLPC   H5X 8275   1.545   4.589   3.454  0.0504 -1.3635 -1.3313
   86SLPC   H5Y 8276   1.390   4.501   3.410  0.1349 -0.8438  0.7540
   86SLPC   C36 8277   1.394   4.586   3.609 -0.3498  0.6029 -1.2619
   86SLPC   H6X 8278   1.288   4.609   3.633 -0.0319  0.7776  0.0706
   86SLPC   H6Y 8279   1.456   4.645   3.679 -0.7022  0.4598 -0.8264
   86SLPC   C37 8280   1.431   4.437   3.655  0.3802 -0.4560 -0.1665
   86SLPC   H7X 8281   1.518   4.400   3.597  0.7973 -3.9916  2.3507
   86SLPC   H7Y 8282   1.338   4.382   3.630 -0.8856  1.0418  1.0148
   86SLPC   C38 8283   1.449   4.428   3.810 -0.0917  0.4291 -0.7158
   86SLPC   H8X 8284   1.534   4.483   3.856 -0.2706  0.5947 -0.5839
   86SLPC   H8Y 8285   1.462   4.321   3.839  1.5956  0.9754  0.7367
   86SLPC   C39 8286   1.329   4.482   3.886 -0.2864  0.2512  0.0259
   86SLPC   H9X 8287   1.325   4.589   3.857 -0.2465  0.1361 -0.4081
   86SLPC   H9Y 8288   1.342   4.479   3.997 -1.8588 -0.8938  0.2050
   86SLPC  C310 8289   1.208   4.396   3.849  0.2344 -0.4001  0.1378
   86SLPC  H10X 8290   1.238   4.289   3.855 -0.6694 -1.0015 -3.5403
   86SLPC  H10Y 8291   1.169   4.403   3.745  1.5628 -1.9330 -0.5050
   86SLPC  C311 8292   1.083   4.440   3.934 -0.5627 -0.0360 -0.0619
   86SLPC  H11X 8293   1.077   4.545   3.900 -0.1133 -0.5311 -1.7702
   86SLPC  H11Y 8294   1.109   4.446   4.042 -1.5853 -2.1829  0.3713
   86SLPC  C312 8295   0.947   4.366   3.906 -0.6703 -0.6770 -0.3145
   86SLPC  H12X 8296   0.928   4.373   3.797 -0.7032 -1.7762 -0.3907
   86SLPC  H12Y 8297   0.869   4.433   3.949  0.1868 -0.1223  0.4137
   86SLPC  C313 8298   0.925   4.222   3.964  0.6998  0.3450  0.4865
   86SLPC  H13X 8299   1.019   4.163   3.960  1.5482  1.6526  0.4727
   86SLPC  H13Y 8300   0.849   4.172   3.901  0.6749 -0.6365  1.2809
   86SLPC  C314 8301   0.873   4.231   4.104  0.5195 -0.3152 -0.7182
   86SLPC  H14X 8302   0.803   4.314   4.128 -0.5626 -0.9463 -1.6395
   86SLPC  H14Y 8303   0.959   4.259   4.170  0.1396 -2.9401  1.0206
   86SLPC  C315 8304   0.824   4.095   4.150  0.2183  0.6602  0.1119
   86SLPC  H15X 8305   0.917   4.035   4.140 -0.6466 -0.4888 -1.7614
   86SLPC  H15Y 8306   0.762   4.060   4.065  0.0361  1.4649 -0.0913
   86SLPC  C316 8307   0.752   4.100   4.282 -0.5740  0.1451  0.0030
   86SLPC  H16X 8308   0.653   4.148   4.266 -0.8401 -0.2160  0.5414
   86SLPC  H16Y 8309   0.817   4.161   4.348  0.6076  0.1440 -1.1279
   86SLPC  C317 8310   0.723   3.963   4.353 -0.1134 -0.4528  0.0764
   86SLPC  H17X 8311   0.678   3.994   4.449  3.0124 -0.1289  1.5734
   86SLPC  H17Y 8312   0.819   3.909   4.365 -1.2773 -2.5733  0.2740
   86SLPC  C318 8313   0.616   3.870   4.289  0.4882 -0.0157  0.0960
   86SLPC  H18X 8314   0.514   3.914   4.290  0.1761 -0.5946 -1.9975
   86SLPC  H18Y 8315   0.628   3.777   4.349  3.7175  1.0372  1.2996
   86SLPC  H18Z 8316   0.641   3.850   4.183  2.1371  0.3872  0.3669
   87SLPC     N 8317   5.329   4.130   3.027  0.2642  0.2649 -0.0269
   87SLPC   C13 8318   5.441   4.149   2.929  0.1181  0.4657 -0.0126
   87SLPC  H13A 8319   5.397   4.129   2.833 -1.8531  4.1450 -0.0602
   87SLPC  H13B 8320   5.477   4.251   2.921  0.3882  0.2930 -1.1555
   87SLPC  H13C 8321   5.523   4.084   2.953  0.9610  1.4251 -0.2090
   87SLPC   C14 8322   5.225   4.227   2.998 -0.4274 -0.0636  0.1179
   87SLPC  H14A 8323   5.133   4.212   3.052 -0.0173 -1.2455  0.5144
   87SLPC  H14B 8324   5.264   4.327   3.015  1.3751 -0.7516  0.3038
   87SLPC  H14C 8325   5.187   4.230   2.897 -0.4468  1.2634  0.1448
   87SLPC   C15 8326   5.383   4.149   3.160  0.2516  0.0029 -0.7702
   87SLPC  H15A 8327   5.443   4.062   3.185 -0.0423  0.7202  3.1914
   87SLPC  H15B 8328   5.439   4.241   3.167  2.3776 -1.2219 -0.6818
   87SLPC  H15C 8329   5.320   4.168   3.245  0.4020 -0.2698 -0.5941
   87SLPC   C12 8330   5.273   3.986   3.013 -0.8079  0.6027 -0.2550
   87SLPC  H12A 8331   5.181   3.975   3.068 -2.0558 -1.3592 -2.5667
   87SLPC  H12B 8332   5.353   3.916   3.036  0.7143  1.4658 -2.5899
   87SLPC   C11 8333   5.231   3.934   2.871  0.2599  0.3048  0.0182
   87SLPC  H11A 8334   5.156   4.007   2.833 -1.0339 -0.8358  0.3294
   87SLPC  H11B 8335   5.185   3.836   2.893  1.1376 -0.2392 -0.5416
   87SLPC     P 8336   5.417   3.790   2.761  0.3679 -0.3717 -0.1568
   87SLPC   O13 8337   5.334   3.684   2.703  0.4181 -0.1328  0.3996
   87SLPC   O14 8338   5.548   3.822   2.690  0.4658 -0.0579 -0.8120
   87SLPC   O12 8339   5.336   3.924   2.778  0.1745  0.4381  0.3340
   87SLPC   O11 8340   5.451   3.754   2.913 -0.1663 -0.5623 -0.4136
   87SLPC    C1 8341   5.429   3.624   2.967  0.5380 -0.3584  0.3059
   87SLPC    HA 8342   5.330   3.577   2.949  0.9334 -1.0775 -0.0259
   87SLPC    HB 8343   5.508   3.561   2.920  0.9778  0.5714 -0.2150
   87SLPC    C2 8344   5.448   3.612   3.124 -0.4404 -0.1181 -0.2139
   87SLPC    HS 8345   5.461   3.505   3.149 -1.0943  0.1671  1.5179
   87SLPC   O21 8346   5.332   3.670   3.189 -0.5174 -0.0890 -0.1299
   87SLPC   C21 8347   5.237   3.579   3.230  0.1461  0.1758 -0.3417
   87SLPC   O22 8348   5.247   3.457   3.199 -0.0723  0.4241  0.2337
   87SLPC   C22 8349   5.137   3.655   3.312  0.7088  0.2440 -0.3086
   87SLPC   H2R 8350   5.044   3.651   3.253  0.5130 -2.5229  0.0464
   87SLPC   H2S 8351   5.129   3.591   3.402  0.7184 -0.5700 -0.8768
   87SLPC    C3 8352   5.575   3.688   3.155 -0.2497  0.6249  0.2693
   87SLPC    HX 8353   5.558   3.792   3.117 -0.5734  0.2935 -0.5260
   87SLPC    HY 8354   5.661   3.657   3.092  0.0865  5.3114 -2.0086
   87SLPC   O31 8355   5.603   3.686   3.297  0.3602  0.7652  0.8837
   87SLPC   C31 8356   5.689   3.786   3.326  0.1781  0.1037  0.0796
   87SLPC   O32 8357   5.747   3.855   3.249 -0.1353 -0.0318  0.5143
   87SLPC   C32 8358   5.689   3.790   3.474 -0.1064  0.0047  0.2881
   87SLPC   H2X 8359   5.700   3.686   3.511 -1.0444 -0.3091 -0.2925
   87SLPC   H2Y 8360   5.591   3.824   3.513 -0.7922 -0.7821 -0.7046
   87SLPC   C23 8361   5.170   3.799   3.340 -0.3639 -0.3407 -0.4215
   87SLPC   H3R 8362   5.079   3.851   3.378  0.1578  1.4326 -1.4707
   87SLPC   H3S 8363   5.199   3.859   3.251 -0.3693 -0.2265 -0.3462
   87SLPC   C24 8364   5.279   3.809   3.452 -0.8223  0.5076  0.6214
   87SLPC   H4R 8365   5.377   3.769   3.418 -0.6795  0.3678  1.1888
   87SLPC   H4S 8366   5.245   3.759   3.545 -0.3911 -1.3616 -0.1797
   87SLPC   C25 8367   5.321   3.951   3.489  0.2286  0.0397 -0.1335
   87SLPC   H5R 8368   5.366   3.998   3.399 -0.0033  2.2694  0.8500
   87SLPC   H5S 8369   5.401   3.952   3.566  0.4968 -0.9340 -0.3779
   87SLPC   C26 8370   5.195   4.019   3.544 -0.1658  0.3141 -0.7468
   87SLPC   H6R 8371   5.129   3.942   3.591  2.4991 -2.4102 -1.1182
   87SLPC   H6S 8372   5.144   4.075   3.463  0.5257  0.1096 -1.3450
   87SLPC   C27 8373   5.220   4.124   3.648  0.4737 -0.0157  0.0655
   87SLPC   H7R 8374   5.294   4.195   3.604  0.5407  0.5966  1.1429
   87SLPC   H7S 8375   5.265   4.076   3.737  0.0138 -0.5049  0.0438
   87SLPC   C28 8376   5.094   4.206   3.667 -0.3002 -0.3403 -0.0696
   87SLPC   H8R 8377   5.005   4.141   3.679 -1.0440  1.0925  3.2555
   87SLPC   H8S 8378   5.067   4.265   3.576 -0.4166  2.9914  1.9508
   87SLPC   C29 8379   5.110   4.299   3.783  0.7493  0.1343 -0.2262
   87SLPC   H9R 8380   5.191   4.373   3.782  4.0035 -3.1344  0.1679
   87SLPC  C210 8381   5.040   4.285   3.897  0.3998 -0.8518  0.5461
   87SLPC  H10R 8382   5.081   4.329   3.989  0.3887  1.0371 -0.3003
   87SLPC  C211 8383   4.940   4.173   3.918  0.1056 -0.5103 -1.0371
   87SLPC  H11R 8384   4.978   4.074   3.883  1.0350 -0.7078  0.4270
   87SLPC  H11S 8385   4.847   4.177   3.858  0.2792  0.6609 -1.2479
   87SLPC  C212 8386   4.893   4.163   4.064  0.6519  0.3904 -0.1957
   87SLPC  H12R 8387   4.830   4.249   4.093 -0.9957 -0.4912 -1.0269
   87SLPC  C213 8388   4.925   4.072   4.154  0.5664  0.2155  0.3845
   87SLPC  H13R 8389   4.869   4.068   4.249 -0.0814  0.8263  0.0399
   87SLPC  C214 8390   5.013   3.956   4.136  0.1997 -0.1197  0.3802
   87SLPC  H14R 8391   5.088   3.975   4.216 -0.2749  0.2963  0.7294
   87SLPC  H14S 8392   5.062   3.960   4.036  2.3012 -0.7893  1.3244
   87SLPC  C215 8393   4.954   3.816   4.152 -0.6832  0.0820 -0.2859
   87SLPC  H15R 8394   5.019   3.726   4.143 -2.1748 -0.8574 -2.7487
   87SLPC  H15S 8395   4.901   3.808   4.055 -0.5768 -0.1185 -0.3288
   87SLPC  C216 8396   4.857   3.797   4.264  0.1664  0.0972 -0.3988
   87SLPC  H16R 8397   4.799   3.704   4.249  0.9627 -1.0266  2.6300
   87SLPC  H16S 8398   4.786   3.882   4.279  0.6501  0.3809  0.3791
   87SLPC  C217 8399   4.913   3.767   4.410 -0.1840 -0.3208  0.8545
   87SLPC  H17R 8400   4.830   3.788   4.481 -2.1761 -1.5762 -1.0164
   87SLPC  H17S 8401   4.997   3.832   4.443 -0.8573 -0.0769  2.1625
   87SLPC  C218 8402   4.956   3.623   4.428 -0.1546  0.0334 -0.7480
   87SLPC  H18R 8403   4.991   3.594   4.530 -1.0769  0.5538 -0.2650
   87SLPC  H18S 8404   5.043   3.604   4.363  0.7683  1.3383  0.0742
   87SLPC  H18T 8405   4.871   3.555   4.403 -1.2659  0.5476  1.3537
   87SLPC   C33 8406   5.806   3.878   3.531 -0.5528 -0.0491 -0.5255
   87SLPC   H3X 8407   5.906   3.845   3.498 -1.2026 -3.8631  0.8061
   87SLPC   H3Y 8408   5.803   3.859   3.640 -1.6735  0.3886 -0.4625
   87SLPC   C34 8409   5.786   4.031   3.522  0.0027 -0.0394 -0.0944
   87SLPC   H4X 8410   5.684   4.054   3.558 -0.4258 -1.1717 -0.5433
   87SLPC   H4Y 8411   5.800   4.058   3.415 -1.7242  0.9726 -0.1054
   87SLPC   C35 8412   5.904   4.101   3.599 -0.9888  0.1803  0.2824
   87SLPC   H5X 8413   5.998   4.067   3.551 -0.9430  1.2328 -0.4190
   87SLPC   H5Y 8414   5.917   4.049   3.696  0.9398 -0.8530 -0.4757
   87SLPC   C36 8415   5.879   4.251   3.625  0.1717 -0.4016 -0.0413
   87SLPC   H6X 8416   5.774   4.269   3.655 -0.0353  2.0612 -1.9302
   87SLPC   H6Y 8417   5.904   4.289   3.523  1.9108 -0.4679  0.3360
   87SLPC   C37 8418   5.968   4.303   3.731 -0.0223 -0.4115  0.6088
   87SLPC   H7X 8419   6.068   4.277   3.690 -0.8925 -1.0377 -1.2162
   87SLPC   H7Y 8420   5.950   4.258   3.831 -2.9145 -1.3037 -0.2171
   87SLPC   C38 8421   5.963   4.453   3.754 -0.3871  0.4116 -0.6881
   87SLPC   H8X 8422   6.060   4.476   3.804 -0.0175 -1.5201 -0.4227
   87SLPC   H8Y 8423   5.882   4.467   3.828 -1.4484 -0.9299 -1.5419
   87SLPC   C39 8424   5.957   4.542   3.635  0.1810  0.0143 -0.6174
   87SLPC   H9X 8425   5.861   4.540   3.580 -1.0725 -2.4279  1.4047
   87SLPC   H9Y 8426   6.046   4.528   3.570  0.1098  1.0659 -0.9499
   87SLPC  C310 8427   5.972   4.690   3.677 -0.0526 -0.0338 -0.1965
   87SLPC  H10X 8428   5.998   4.737   3.580  0.0769 -0.5135 -0.3992
   87SLPC  H10Y 8429   6.053   4.700   3.753 -0.3109  1.0646 -0.0418
   87SLPC  C311 8430   5.843   4.756   3.722 -0.6720  0.1921 -0.6885
   87SLPC  H11X 8431   5.818   4.700   3.815  0.3472  0.2032 -0.3956
   87SLPC  H11Y 8432   5.755   4.750   3.654 -0.3491 -0.3095 -1.0616
   87SLPC  C312 8433   5.862   4.900   3.754 -0.2032 -0.4344 -0.3104
   87SLPC  H12X 8434   5.765   4.935   3.794 -0.9162 -0.9713 -1.5479
   87SLPC  H12Y 8435   5.869   4.964   3.664 -0.2640 -0.9777 -0.7089
   87SLPC  C313 8436   5.970   4.929   3.860 -0.2415 -0.2642  0.8979
   87SLPC  H13X 8437   6.074   4.907   3.827 -0.2542 -1.1548  1.4372
   87SLPC  H13Y 8438   5.946   4.857   3.940  1.0721 -1.6933  0.0679
   87SLPC  C314 8439   5.960   5.065   3.901  0.2708 -0.2730 -0.1792
   87SLPC  H14X 8440   5.858   5.085   3.940  0.9794  1.9587  0.7431
   87SLPC  H14Y 8441   5.971   5.142   3.821  0.7584 -0.3574 -0.1965
   87SLPC  C315 8442   6.055   5.109   4.010 -0.0652  0.0148  0.8751
   87SLPC  H15X 8443   6.157   5.073   3.986  0.4636  2.0674 -0.1922
   87SLPC  H15Y 8444   6.026   5.050   4.099 -1.4645  2.0815  1.8782
   87SLPC  C316 8445   6.033   5.263   4.044  0.3940  0.5566  0.2496
   87SLPC  H16X 8446   5.926   5.261   4.075  1.0420 -1.2603  2.7737
   87SLPC  H16Y 8447   6.044   5.325   3.953 -0.9209 -0.4941 -0.6753
   87SLPC  C317 8448   6.116   5.310   4.161 -0.4387  0.2653  0.7350
   87SLPC  H17X 8449   6.219   5.302   4.120 -1.0726 -0.6303 -0.8019
   87SLPC  H17Y 8450   6.097   5.238   4.243  1.4989 -0.8835  0.2333
   87SLPC  C318 8451   6.083   5.446   4.213  0.6462 -0.2615 -0.2416
   87SLPC  H18X 8452   6.120   5.532   4.153  1.7293  0.1486  0.9668
   87SLPC  H18Y 8453   6.097   5.466   4.321  0.1770  1.2137 -0.4364
   87SLPC  H18Z 8454   5.973   5.451   4.198  0.5682 -0.7118  0.1661
   88SLPC     N 8455   6.615   4.347   2.820 -0.4323  0.1234 -0.9876
   88SLPC   C13 8456   6.644   4.206   2.779  0.0473  0.5355  0.5879
   88SLPC  H13A 8457   6.662   4.205   2.672  0.9564 -0.2638  0.7330
   88SLPC  H13B 8458   6.721   4.155   2.835 -0.5569 -1.9342 -0.6890
   88SLPC  H13C 8459   6.562   4.136   2.789  0.1599  0.4589  0.9890
   88SLPC   C14 8460   6.527   4.411   2.720  0.6018  0.5349  0.1776
   88SLPC  H14A 8461   6.477   4.499   2.758 -0.2489 -0.2205  0.8398
   88SLPC  H14B 8462   6.574   4.434   2.625  1.5272 -1.6378  0.0645
   88SLPC  H14C 8463   6.448   4.340   2.699 -1.7984  3.0783 -0.0626
   88SLPC   C15 8464   6.742   4.420   2.811 -0.4521  0.4688  0.6887
   88SLPC  H15A 8465   6.820   4.395   2.882  0.2563  1.5201  0.3061
   88SLPC  H15B 8466   6.790   4.398   2.718 -0.7039  2.9431 -0.1018
   88SLPC  H15C 8467   6.722   4.526   2.821 -1.7733  0.4219 -1.0356
   88SLPC   C12 8468   6.553   4.361   2.954  0.1817  0.6901  0.3018
   88SLPC  H12A 8469   6.635   4.330   3.016  1.9119 -0.4613 -2.4030
   88SLPC  H12B 8470   6.478   4.283   2.959  0.8068 -0.0429 -1.0574
   88SLPC   C11 8471   6.498   4.489   3.001 -0.0414 -0.7878  0.1276
   88SLPC  H11A 8472   6.561   4.575   2.971 -1.0217 -0.5988 -1.4667
   88SLPC  H11B 8473   6.485   4.494   3.111  0.4702 -0.4656  0.1762
   88SLPC     P 8474   6.241   4.415   2.975 -0.0227 -0.1443  0.0911
   88SLPC   O13 8475   6.164   4.391   2.848 -0.2842  0.4274  0.4966
   88SLPC   O14 8476   6.285   4.289   3.038 -0.0286 -0.7025 -0.0577
   88SLPC   O12 8477   6.365   4.509   2.942  0.3556 -0.0061 -0.4382
   88SLPC   O11 8478   6.160   4.515   3.068 -0.1326  0.2163  0.2935
   88SLPC    C1 8479   6.123   4.639   3.014  0.2255 -0.5610 -0.9510
   88SLPC    HA 8480   6.214   4.702   3.004 -0.5771  0.9874  0.8191
   88SLPC    HB 8481   6.069   4.635   2.917 -1.9264  2.5859 -0.0365
   88SLPC    C2 8482   6.047   4.718   3.123 -0.3457 -0.2250  0.3444
   88SLPC    HS 8483   6.043   4.826   3.094 -2.7919 -1.0156 -2.8324
   88SLPC   O21 8484   6.106   4.694   3.253  0.1042 -0.3005 -0.3146
   88SLPC   C21 8485   6.215   4.769   3.261  0.3045  0.3142  0.1948
   88SLPC   O22 8486   6.247   4.865   3.189  0.1380  0.6786 -0.3629
   88SLPC   C22 8487   6.301   4.715   3.374  0.4196 -0.4071 -0.0237
   88SLPC   H2R 8488   6.240   4.676   3.459  0.3271 -1.4768 -0.5618
   88SLPC   H2S 8489   6.367   4.634   3.336  0.9390  0.0604 -0.1292
   88SLPC    C3 8490   5.897   4.678   3.124  0.4104  0.3319 -0.5064
   88SLPC    HX 8491   5.896   4.574   3.162  0.8793  0.4258 -0.2253
   88SLPC    HY 8492   5.853   4.683   3.022  1.8718  0.9259 -1.1464
   88SLPC   O31 8493   5.802   4.749   3.214 -0.0248 -0.5181  1.0065
   88SLPC   C31 8494   5.784   4.877   3.174 -0.0771  0.1313 -0.2836
   88SLPC   O32 8495   5.844   4.936   3.088 -0.1998  0.0213 -0.3659
   88SLPC   C32 8496   5.694   4.944   3.280 -0.0936  0.5907 -0.3383
   88SLPC   H2X 8497   5.756   4.968   3.369 -0.6782 -2.2993  0.9452
   88SLPC   H2Y 8498   5.622   4.866   3.313 -0.3634  0.7488 -0.5556
   88SLPC   C23 8499   6.380   4.826   3.436 -0.4243 -0.0502 -0.4526
   88SLPC   H3R 8500   6.339   4.928   3.420  2.3559  1.2735  0.1956
   88SLPC   H3S 8501   6.482   4.829   3.393 -0.1510 -0.7896  0.1300
   88SLPC   C24 8502   6.392   4.805   3.587  0.6298  0.8551 -0.1826
   88SLPC   H4R 8503   6.426   4.703   3.616 -0.1950  0.4449 -0.6482
   88SLPC   H4S 8504   6.294   4.829   3.633 -0.4448 -2.0125 -0.7735
   88SLPC   C25 8505   6.494   4.904   3.653  0.4511  0.4598 -0.0423
   88SLPC   H5R 8506   6.464   5.008   3.630 -0.0600  0.0880 -1.1718
   88SLPC   H5S 8507   6.588   4.871   3.603 -0.0149  0.9543 -1.2700
   88SLPC   C26 8508   6.505   4.872   3.804  0.0929  0.6761  0.1929
   88SLPC   H6R 8509   6.582   4.949   3.827  1.5316 -0.3901 -0.8389
   88SLPC   H6S 8510   6.547   4.774   3.836 -1.1845  0.1267  0.2442
   88SLPC   C27 8511   6.376   4.891   3.882  0.2842 -0.1993 -0.0103
   88SLPC   H7R 8512   6.306   4.806   3.870 -1.2460  1.1826 -1.3003
   88SLPC   H7S 8513   6.313   4.978   3.854 -2.9797 -2.3233  0.2012
   88SLPC   C28 8514   6.419   4.911   4.034 -0.1915  0.0929  0.2096
   88SLPC   H8R 8515   6.460   4.815   4.070  3.2345  1.1795 -0.3917
   88SLPC   H8S 8516   6.320   4.933   4.079  0.0767 -0.8558  1.3112
   88SLPC   C29 8517   6.513   5.015   4.075  0.0536 -0.9192 -0.6440
   88SLPC   H9R 8518   6.504   5.114   4.029  2.8746  0.3436  1.1881
   88SLPC  C210 8519   6.634   4.995   4.142  0.3406 -0.5554 -0.1312
   88SLPC  H10R 8520   6.687   5.086   4.172 -2.1835  0.2640  2.2443
   88SLPC  C211 8521   6.675   4.859   4.201  0.2466 -0.4507 -0.4309
   88SLPC  H11R 8522   6.684   4.784   4.119  1.6842  1.5659 -2.2082
   88SLPC  H11S 8523   6.590   4.831   4.267 -0.4396  0.7701 -0.7734
   88SLPC  C212 8524   6.797   4.874   4.289 -0.9238 -0.5221 -0.0893
   88SLPC  H12R 8525   6.859   4.964   4.276 -2.3366  0.3485 -1.0828
   88SLPC  C213 8526   6.831   4.780   4.376  0.4687 -0.4865 -0.3518
   88SLPC  H13R 8527   6.915   4.799   4.445 -0.6452 -1.2662  1.2742
   88SLPC  C214 8528   6.753   4.652   4.402  0.1072 -0.1392  0.0007
   88SLPC  H14R 8529   6.833   4.576   4.417 -0.0288 -0.3862 -0.5242
   88SLPC  H14S 8530   6.695   4.623   4.312  1.7259 -1.1348 -0.7655
   88SLPC  C215 8531   6.677   4.645   4.530 -1.0306 -0.0318  0.3220
   88SLPC  H15R 8532   6.746   4.664   4.615 -0.1507 -0.4267 -0.2922
   88SLPC  H15S 8533   6.644   4.538   4.531  1.6052 -1.0191 -2.9193
   88SLPC  C216 8534   6.561   4.737   4.561  0.5818 -0.1401 -0.6439
   88SLPC  H16R 8535   6.499   4.751   4.470  0.7650 -5.0844 -1.8283
   88SLPC  H16S 8536   6.602   4.835   4.594  1.3384 -0.2435 -1.2658
   88SLPC  C217 8537   6.465   4.693   4.673 -0.7354 -0.4375  0.0093
   88SLPC  H17R 8538   6.375   4.757   4.670 -0.3885  0.0443 -0.2688
   88SLPC  H17S 8539   6.513   4.706   4.772  0.5315  1.3170 -0.7821
   88SLPC  C218 8540   6.412   4.551   4.673  0.0051 -0.1797 -0.2607
   88SLPC  H18R 8541   6.492   4.484   4.711  0.2309 -0.4247 -1.1358
   88SLPC  H18S 8542   6.358   4.517   4.582 -1.5983 -0.7980  0.8921
   88SLPC  H18T 8543   6.330   4.554   4.747  0.1481  0.7634 -0.1262
   88SLPC   C33 8544   5.642   5.073   3.231  0.0831  0.0120  0.0799
   88SLPC   H3X 8545   5.613   5.066   3.124  2.2705  1.1014 -0.6368
   88SLPC   H3Y 8546   5.726   5.144   3.223  0.8245 -0.9642 -1.0990
   88SLPC   C34 8547   5.522   5.112   3.317 -0.2752  0.1477  0.2546
   88SLPC   H4X 8548   5.460   5.023   3.342  1.1651 -0.7802  0.6311
   88SLPC   H4Y 8549   5.467   5.197   3.271  0.1920  1.3459  1.8416
   88SLPC   C35 8550   5.555   5.158   3.455 -0.4171 -0.4650  0.2512
   88SLPC   H5X 8551   5.587   5.265   3.454  1.3905 -0.9658 -0.6496
   88SLPC   H5Y 8552   5.645   5.104   3.493 -1.0812 -2.5865 -1.0339
   88SLPC   C36 8553   5.442   5.137   3.560 -0.2112  0.5483  0.1312
   88SLPC   H6X 8554   5.413   5.032   3.538  0.5920  0.8110 -2.6520
   88SLPC   H6Y 8555   5.359   5.208   3.540  0.7972  1.3096 -1.6050
   88SLPC   C37 8556   5.494   5.146   3.702 -0.4325 -0.4572 -0.0348
   88SLPC   H7X 8557   5.505   5.249   3.741  0.3060  0.1052 -1.6500
   88SLPC   H7Y 8558   5.590   5.093   3.722  0.6183  1.7684  1.2027
   88SLPC   C38 8559   5.400   5.073   3.795 -0.0032  0.0880 -0.1497
   88SLPC   H8X 8560   5.436   4.968   3.801  0.2420  0.0779 -1.4582
   88SLPC   H8Y 8561   5.299   5.080   3.748 -0.5708 -0.6974  0.9199
   88SLPC   C39 8562   5.394   5.142   3.926 -0.0708 -0.3202 -1.1383
   88SLPC   H9X 8563   5.313   5.094   3.986  2.4618 -1.8935  1.3035
   88SLPC   H9Y 8564   5.372   5.250   3.909  0.8001 -0.1845 -1.4785
   88SLPC  C310 8565   5.527   5.146   3.998  0.0228  0.0730  0.2383
   88SLPC  H10X 8566   5.607   5.209   3.955  2.8354 -3.2881  0.0576
   88SLPC  H10Y 8567   5.571   5.044   3.995 -1.2171 -0.4972  0.6324
   88SLPC  C311 8568   5.519   5.191   4.152  0.6177  0.2857 -0.1099
   88SLPC  H11X 8569   5.440   5.140   4.211  0.4308 -0.0750 -0.6558
   88SLPC  H11Y 8570   5.498   5.300   4.140 -0.6313  0.0775  0.0447
   88SLPC  C312 8571   5.652   5.176   4.220  0.8144 -0.9249  0.3735
   88SLPC  H12X 8572   5.724   5.213   4.143 -2.5435  0.7814 -2.2495
   88SLPC  H12Y 8573   5.666   5.067   4.235 -3.2859 -1.6567  0.0904
   88SLPC  C313 8574   5.660   5.241   4.354  0.0871 -0.4885 -0.2894
   88SLPC  H13X 8575   5.602   5.183   4.429  0.7778  1.4073  1.7930
   88SLPC  H13Y 8576   5.621   5.344   4.340  2.9735  0.5963 -0.9770
   88SLPC  C314 8577   5.802   5.235   4.405 -0.0401  0.7091  0.2239
   88SLPC  H14X 8578   5.863   5.305   4.344  1.2919 -0.6978 -0.1080
   88SLPC  H14Y 8579   5.836   5.130   4.390 -0.8118  0.4423  0.2894
   88SLPC  C315 8580   5.829   5.267   4.550  0.9454 -0.1581  0.6678
   88SLPC  H15X 8581   5.938   5.262   4.568  1.3805 -2.7700 -1.9908
   88SLPC  H15Y 8582   5.771   5.197   4.614  1.2692 -0.6193  0.4533
   88SLPC  C316 8583   5.778   5.403   4.594  0.1241 -0.0274  0.6776
   88SLPC  H16X 8584   5.812   5.405   4.700  2.4208 -0.7051  0.0190
   88SLPC  H16Y 8585   5.667   5.401   4.592  0.0674 -0.1634  2.3257
   88SLPC  C317 8586   5.836   5.517   4.512 -0.6123  0.2823 -0.6278
   88SLPC  H17X 8587   5.784   5.517   4.414  1.2509  0.9223 -1.6770
   88SLPC  H17Y 8588   5.944   5.504   4.489  0.3562 -0.1541  3.4356
   88SLPC  C318 8589   5.812   5.653   4.574 -1.0741 -0.9342 -0.1175
   88SLPC  H18X 8590   5.858   5.737   4.518  0.4753 -2.1778 -0.8113
   88SLPC  H18Y 8591   5.847   5.666   4.679  1.0766  0.6109 -0.9448
   88SLPC  H18Z 8592   5.702   5.662   4.583 -1.1745  0.2532 -1.9600
   89SAPE     N 8593   4.275   6.163   6.776 -0.3913  0.3178  0.6000
   89SAPE   HN1 8594   4.182   6.124   6.750  1.0462 -2.3234 -1.0570
   89SAPE   HN2 8595   4.342   6.112   6.715 -2.1381  1.1744 -2.2225
   89SAPE   HN3 8596   4.300   6.139   6.874  0.7870  0.1613  0.2863
   89SAPE   C12 8597   4.272   6.312   6.760  0.2291 -0.3953  0.0800
   89SAPE  H12A 8598   4.191   6.350   6.826 -0.2745 -0.9220 -0.2309
   89SAPE  H12B 8599   4.246   6.336   6.654  1.1858  2.2522  0.3615
   89SAPE   C11 8600   4.412   6.377   6.796  0.4005 -0.0469  0.8009
   89SAPE  H11A 8601   4.472   6.334   6.713 -1.7597 -4.3028  1.1570
   89SAPE  H11B 8602   4.451   6.334   6.891  0.5816  0.6528  1.0498
   89SAPE     P 8603   4.525   6.611   6.774 -0.2621 -0.1647 -0.5949
   89SAPE   O13 8604   4.473   6.749   6.747 -0.2716  0.5077  0.2510
   89SAPE   O14 8605   4.622   6.580   6.886 -0.0779  0.0912 -0.4064
   89SAPE   O12 8606   4.403   6.519   6.799  0.3128 -0.1502  0.2398
   89SAPE   O11 8607   4.571   6.549   6.639  0.0203 -0.7485  0.4322
   89SAPE    C1 8608   4.504   6.594   6.515  0.0506 -0.3169  0.4494
   89SAPE    HA 8609   4.408   6.548   6.483  1.3246 -1.2282 -2.5436
   89SAPE    HB 8610   4.489   6.704   6.512  1.3912 -0.0891  1.3450
   89SAPE    C2 8611   4.603   6.573   6.399 -0.0721  0.2416  0.7784
   89SAPE    HS 8612   4.565   6.601   6.298  2.5637 -1.3860 -0.7848
   89SAPE   O21 8613   4.648   6.433   6.394 -0.0779 -0.6126 -0.0457
   89SAPE   C21 8614   4.558   6.338   6.365 -0.4521  0.1592 -0.3411
   89SAPE   O22 8615   4.437   6.356   6.355 -0.2417  0.0409  0.4472
   89SAPE   C22 8616   4.629   6.202   6.333 -0.1449  0.9104 -0.1764
   89SAPE   H2R 8617   4.734   6.230   6.307  0.0167  0.6222  0.1577
   89SAPE   H2S 8618   4.626   6.125   6.413 -0.2508 -0.2573 -1.2760
   89SAPE    C3 8619   4.731   6.661   6.413 -0.1538  0.6204 -0.1876
   89SAPE    HX 8620   4.782   6.628   6.506  0.5462  1.9454 -0.0865
   89SAPE    HY 8621   4.711   6.770   6.417 -0.1373  0.5764  2.2089
   89SAPE   O31 8622   4.820   6.636   6.305 -0.4879 -0.6433  0.3759
   89SAPE   C31 8623   4.782   6.701   6.196  0.1847 -0.1134 -0.5071
   89SAPE   O32 8624   4.687   6.775   6.185 -0.1403 -0.2285 -0.2265
   89SAPE   C32 8625   4.872   6.661   6.085 -0.1755 -0.1945 -0.6062
   89SAPE   H2X 8626   4.951   6.594   6.123  1.5522  2.7252  1.3888
   89SAPE   H2Y 8627   4.927   6.752   6.051 -0.4530  0.9453  1.7763
   89SAPE   C23 8628   4.572   6.144   6.202 -0.0809  0.5713 -0.0584
   89SAPE   H3R 8629   4.463   6.129   6.219 -0.1200  1.2978  0.3955
   89SAPE   H3S 8630   4.620   6.045   6.189  3.9517  2.0310  1.8419
   89SAPE   C24 8631   4.599   6.243   6.087  0.4266  0.1715 -0.0062
   89SAPE   H4R 8632   4.595   6.353   6.104  1.9497  0.6315 -2.2324
   89SAPE   H4S 8633   4.526   6.237   6.003 -1.5417  2.5182  1.3570
   89SAPE   C25 8634   4.736   6.215   6.043 -0.4820 -0.3854  0.0801
   89SAPE   H5R 8635   4.810   6.247   6.119 -0.0805  0.0108 -0.4707
   89SAPE   C26 8636   4.785   6.178   5.925  0.3308  0.2884 -0.4354
   89SAPE   H6R 8637   4.893   6.157   5.924 -0.0085 -1.7342  1.1356
   89SAPE   C27 8638   4.700   6.128   5.809  0.6973  0.0760 -0.4468
   89SAPE   H7R 8639   4.763   6.131   5.718 -0.1879  1.8531 -1.0624
   89SAPE   H7S 8640   4.622   6.205   5.792 -0.5969 -1.5516 -2.2680
   89SAPE   C28 8641   4.626   5.996   5.839 -0.4394  0.5867 -0.4912
   89SAPE   H8R 8642   4.627   5.978   5.947  1.4578  1.4219 -0.3300
   89SAPE   C29 8643   4.559   5.921   5.754  0.2137  0.7626  0.1164
   89SAPE   H9R 8644   4.514   5.830   5.797  0.9142  0.2545 -0.2194
   89SAPE  C210 8645   4.545   5.939   5.609 -1.0848  0.2390  0.3714
   89SAPE  H10R 8646   4.641   5.917   5.559 -1.0805  1.2947 -0.1038
   89SAPE  H10S 8647   4.526   6.043   5.574 -1.1666  0.2437  0.4304
   89SAPE  C211 8648   4.433   5.848   5.561 -0.4788 -0.2148  0.8096
   89SAPE  H11R 8649   4.358   5.817   5.635 -2.8432  0.6115 -1.0737
   89SAPE  C212 8650   4.397   5.806   5.434 -0.0532 -0.3011 -0.3776
   89SAPE  H12R 8651   4.312   5.737   5.419 -1.6679  1.3136  0.8467
   89SAPE  C213 8652   4.471   5.830   5.305  0.9349  1.1191  0.1608
   89SAPE  H13R 8653   4.454   5.742   5.239  1.4109  1.7383 -0.8174
   89SAPE  H13S 8654   4.578   5.840   5.334  1.1181 -0.5882  0.1578
   89SAPE  C214 8655   4.444   5.956   5.237 -0.7095 -0.0665  0.3956
   89SAPE  H14R 8656   4.390   6.035   5.291 -2.7212  0.6976 -2.4664
   89SAPE  C215 8657   4.467   5.984   5.110 -0.1043 -0.1975  0.2268
   89SAPE  H15R 8658   4.434   6.080   5.068  0.5193 -0.1223 -0.1027
   89SAPE  C216 8659   4.520   5.895   5.002  0.7301 -0.4282 -0.6844
   89SAPE  H16R 8660   4.440   5.843   4.945  1.7345  0.5185 -3.0944
   89SAPE  H16S 8661   4.577   5.810   5.047  3.0293  0.8530 -0.9941
   89SAPE  C217 8662   4.623   5.956   4.905 -0.0583  0.5052 -0.3805
   89SAPE  H17R 8663   4.655   5.876   4.835  1.5109 -1.5666  2.4863
   89SAPE  H17S 8664   4.710   5.989   4.965  0.4941 -1.2163 -0.1679
   89SAPE  C218 8665   4.549   6.067   4.826  0.5134  0.0944 -0.3786
   89SAPE  H18R 8666   4.546   6.157   4.892  1.1230 -0.7474  0.8335
   89SAPE  H18S 8667   4.443   6.040   4.806  0.4762  0.4078 -0.6207
   89SAPE  C219 8668   4.619   6.118   4.701  0.2665 -0.0956  0.7512
   89SAPE  H19R 8669   4.723   6.136   4.734  1.1402 -2.7329 -0.3464
   89SAPE  H19S 8670   4.582   6.219   4.672  0.6844  0.4696  2.1045
   89SAPE  C220 8671   4.631   6.018   4.585  0.0194 -0.0720 -0.2636
   89SAPE  H20R 8672   4.678   6.069   4.498  0.1029  0.6698  0.2035
   89SAPE  H20S 8673   4.540   5.963   4.555  0.6920  0.1455 -3.0333
   89SAPE  H20T 8674   4.706   5.938   4.602 -0.0152 -0.2562 -0.9339
   89SAPE   C33 8675   4.798   6.604   5.959 -0.2219 -0.8054  0.0595
   89SAPE   H3X 8676   4.716   6.671   5.926  0.1853  1.6884  3.6103
   89SAPE   H3Y 8677   4.750   6.514   6.004  0.3024 -0.0915  2.1815
   89SAPE   C34 8678   4.893   6.569   5.847 -0.9004 -0.0375  0.4136
   89SAPE   H4X 8679   4.955   6.484   5.885  1.0086  1.0451 -0.1876
   89SAPE   H4Y 8680   4.966   6.652   5.833 -2.1452  1.3160  1.6248
   89SAPE   C35 8681   4.811   6.529   5.726  0.0539 -0.4951  0.2102
   89SAPE   H5X 8682   4.769   6.625   5.687 -0.3476 -0.0718  1.6084
   89SAPE   H5Y 8683   4.731   6.454   5.744 -0.6428 -0.1011 -1.1125
   89SAPE   C36 8684   4.886   6.459   5.608  0.6890 -0.1756  0.3238
   89SAPE   H6X 8685   4.959   6.388   5.653  0.5102 -1.7546 -1.7716
   89SAPE   H6Y 8686   4.943   6.528   5.542  2.3449  0.4785  2.3011
   89SAPE   C37 8687   4.801   6.371   5.521 -0.9284 -0.1001  0.0675
   89SAPE   H7X 8688   4.728   6.442   5.477  0.7391  0.4670 -1.9354
   89SAPE   H7Y 8689   4.739   6.297   5.576 -1.5661  0.1190 -0.3391
   89SAPE   C38 8690   4.873   6.281   5.417  0.6123 -0.4980  0.9244
   89SAPE   H8X 8691   4.940   6.210   5.471  1.5926  0.2477  0.7044
   89SAPE   H8Y 8692   4.946   6.337   5.355 -1.1111 -0.5260 -1.2257
   89SAPE   C39 8693   4.780   6.200   5.326 -0.8522  0.1257  0.1503
   89SAPE   H9X 8694   4.692   6.163   5.382 -1.2419  0.9903  0.1298
   89SAPE   H9Y 8695   4.842   6.119   5.284  1.3941  2.3845 -1.1618
   89SAPE  C310 8696   4.728   6.282   5.203  0.4183  0.1892 -0.0717
   89SAPE  H10X 8697   4.677   6.375   5.237  0.8745  1.1524 -1.9044
   89SAPE  H10Y 8698   4.641   6.224   5.166  1.2109  0.9772 -3.4657
   89SAPE  C311 8699   4.835   6.300   5.096  0.2944  0.2209  0.6638
   89SAPE  H11X 8700   4.882   6.203   5.068  2.6379  1.4731  0.0398
   89SAPE  H11Y 8701   4.922   6.355   5.137 -0.1169  1.2801  0.1475
   89SAPE  C312 8702   4.773   6.368   4.967 -0.2689 -0.2634  0.0603
   89SAPE  H12X 8703   4.718   6.459   5.000  0.0833  0.1395 -0.4484
   89SAPE  H12Y 8704   4.703   6.301   4.914  0.0069  0.3639 -1.1333
   89SAPE  C313 8705   4.875   6.397   4.855 -0.0479  0.0045  0.8041
   89SAPE  H13X 8706   4.819   6.432   4.765  2.8362  1.0326 -0.7055
   89SAPE  H13Y 8707   4.928   6.300   4.845  0.6578  0.3642  0.9866
   89SAPE  C314 8708   4.977   6.506   4.888 -0.8025 -0.0406 -0.9958
   89SAPE  H14X 8709   5.023   6.471   4.983 -1.4138  0.1143 -0.6357
   89SAPE  H14Y 8710   4.921   6.599   4.913 -2.1388 -1.2750  0.8648
   89SAPE  C315 8711   5.087   6.542   4.783 -0.1460 -0.1699 -0.1430
   89SAPE  H15X 8712   5.025   6.600   4.711 -1.8691 -1.2145  0.4351
   89SAPE  H15Y 8713   5.115   6.455   4.720 -1.2212  0.1677 -1.1331
   89SAPE  C316 8714   5.205   6.627   4.827  0.2243  0.3379  0.9145
   89SAPE  H16X 8715   5.254   6.593   4.920  1.0376  1.6426  0.9947
   89SAPE  H16Y 8716   5.187   6.735   4.846  1.5294  0.7723 -0.1598
   89SAPE  C317 8717   5.316   6.618   4.725 -0.0966 -0.6821 -0.2361
   89SAPE  H17X 8718   5.338   6.515   4.688  3.6586 -1.0259  2.3301
   89SAPE  H17Y 8719   5.412   6.650   4.772 -1.4438  0.6252  1.7654
   89SAPE  C318 8720   5.277   6.699   4.595 -0.3118 -0.1977 -0.1701
   89SAPE  H18X 8721   5.203   6.636   4.541  0.9400 -2.0045  0.1551
   89SAPE  H18Y 8722   5.364   6.711   4.527 -0.7828 -1.5473 -1.0510
   89SAPE  H18Z 8723   5.245   6.804   4.615  0.8757  0.5425 -1.8960
   90SAPE     N 8724   3.926   4.266   6.964  0.0977 -0.5539  0.2294
   90SAPE   HN1 8725   3.828   4.276   6.931  0.2863 -1.0500 -0.5093
   90SAPE   HN2 8726   3.992   4.307   6.895  1.2586 -2.3954  0.1773
   90SAPE   HN3 8727   3.956   4.166   6.966  0.0237 -0.6074 -0.9683
   90SAPE   C12 8728   3.953   4.341   7.092  0.0974 -0.5241 -0.0867
   90SAPE  H12A 8729   4.051   4.323   7.140 -0.0100 -1.2020 -0.1079
   90SAPE  H12B 8730   3.865   4.324   7.157  0.1993  3.1283  1.2094
   90SAPE   C11 8731   3.920   4.495   7.065  0.2261 -0.0213  1.2466
   90SAPE  H11A 8732   3.933   4.543   7.165  0.5780 -1.2940  1.8406
   90SAPE  H11B 8733   3.816   4.500   7.026 -0.1559 -2.7860  1.6780
   90SAPE     P 8734   4.056   4.704   6.972 -0.5144 -0.1696  0.0564
   90SAPE   O13 8735   3.945   4.789   7.017 -0.0937  0.0935 -0.1580
   90SAPE   O14 8736   4.188   4.717   7.040  0.1647 -0.1277  0.1066
   90SAPE   O12 8737   4.014   4.552   6.973  0.6318 -0.0915  0.1225
   90SAPE   O11 8738   4.074   4.737   6.825 -0.8377 -0.5289  0.0287
   90SAPE    C1 8739   3.982   4.720   6.721 -0.1812  0.3024  0.1763
   90SAPE    HA 8740   3.881   4.746   6.760  0.5098  1.4716  1.2832
   90SAPE    HB 8741   4.013   4.780   6.632  0.6917 -1.0406 -0.4546
   90SAPE    C2 8742   3.978   4.570   6.677  1.0808 -0.0687 -0.4397
   90SAPE    HS 8743   3.921   4.506   6.748  2.2560 -2.0875 -1.2531
   90SAPE   O21 8744   4.104   4.522   6.658  0.1787 -0.0033  0.1028
   90SAPE   C21 8745   4.127   4.395   6.678 -0.9140  0.0226 -0.0423
   90SAPE   O22 8746   4.045   4.310   6.716 -0.0920 -0.4608  0.1415
   90SAPE   C22 8747   4.272   4.365   6.626 -0.1396  0.0753 -0.2294
   90SAPE   H2R 8748   4.334   4.455   6.608  1.4471 -0.9946 -0.3881
   90SAPE   H2S 8749   4.317   4.299   6.704 -2.4559 -3.4651 -1.6614
   90SAPE    C3 8750   3.893   4.562   6.545  0.6853 -0.5409  0.2460
   90SAPE    HX 8751   3.787   4.589   6.563  0.3197 -1.9973  0.4186
   90SAPE    HY 8752   3.889   4.456   6.510 -0.5597 -0.1884 -0.8022
   90SAPE   O31 8753   3.940   4.649   6.433  0.4403  0.5312  0.1331
   90SAPE   C31 8754   3.870   4.637   6.326  0.8320 -0.7008  0.2821
   90SAPE   O32 8755   3.778   4.562   6.301  0.6212  0.3239 -0.1191
   90SAPE   C32 8756   3.914   4.740   6.228 -0.0611 -0.3608 -0.3641
   90SAPE   H2X 8757   4.024   4.746   6.233 -0.0966  2.4944 -1.3256
   90SAPE   H2Y 8758   3.872   4.839   6.255  0.1933 -1.1456  3.4821
   90SAPE   C23 8759   4.271   4.271   6.508 -0.1771  0.1624 -0.1456
   90SAPE   H3R 8760   4.236   4.174   6.550  0.8212  0.7305  2.1323
   90SAPE   H3S 8761   4.375   4.263   6.469 -0.7868 -1.9805 -1.5079
   90SAPE   C24 8762   4.184   4.303   6.383  0.1893 -0.2656 -0.2471
   90SAPE   H4R 8763   4.228   4.392   6.333  0.6074  0.5565  1.5061
   90SAPE   H4S 8764   4.080   4.328   6.413 -0.0338 -1.0858 -0.3124
   90SAPE   C25 8765   4.178   4.179   6.292  0.0008  0.0851  0.8028
   90SAPE   H5R 8766   4.142   4.090   6.346  0.7392 -0.2465  0.7597
   90SAPE   C26 8767   4.210   4.177   6.156  0.4991  0.5006  0.3383
   90SAPE   H6R 8768   4.208   4.085   6.096  0.2419  1.1301 -0.6581
   90SAPE   C27 8769   4.259   4.289   6.065  0.0747 -0.0635  0.0816
   90SAPE   H7R 8770   4.334   4.244   5.996  0.4707 -1.7808  1.5486
   90SAPE   H7S 8771   4.305   4.370   6.126 -1.3255  1.2176 -0.5002
   90SAPE   C28 8772   4.140   4.339   5.991  0.6041  0.0834  0.7484
   90SAPE   H8R 8773   4.046   4.371   6.038 -1.6320 -1.3177 -2.3392
   90SAPE   C29 8774   4.136   4.343   5.855  0.5928  0.0212 -0.6111
   90SAPE   H9R 8775   4.042   4.377   5.808  3.0618  2.7272 -4.0702
   90SAPE  C210 8776   4.239   4.309   5.754 -0.1976 -0.1365  0.3559
   90SAPE  H10R 8777   4.185   4.262   5.669  0.0284  1.2053 -0.5552
   90SAPE  H10S 8778   4.301   4.226   5.793 -1.0675 -0.4761  1.0626
   90SAPE  C211 8779   4.314   4.429   5.704  0.3195 -0.0382 -0.4546
   90SAPE  H11R 8780   4.363   4.485   5.785  1.7014 -2.0526  0.1642
   90SAPE  C212 8781   4.320   4.484   5.583  0.2421  0.1989 -0.4524
   90SAPE  H12R 8782   4.386   4.570   5.569  1.3980 -0.8935 -2.1172
   90SAPE  C213 8783   4.246   4.423   5.465 -0.1448 -0.1764  0.1126
   90SAPE  H13R 8784   4.226   4.500   5.388  0.8239 -1.7175 -1.7422
   90SAPE  H13S 8785   4.157   4.365   5.498  0.7401 -1.2942  0.6140
   90SAPE  C214 8786   4.341   4.327   5.400  0.4353 -0.1076 -0.6282
   90SAPE  H14R 8787   4.314   4.222   5.420 -2.4372  0.2450 -2.1385
   90SAPE  C215 8788   4.441   4.352   5.317 -0.5785  0.1284  0.9803
   90SAPE  H15R 8789   4.489   4.272   5.259 -1.4117  0.7349 -0.5773
   90SAPE  C216 8790   4.497   4.484   5.281  0.5835 -1.1468  0.8401
   90SAPE  H16R 8791   4.457   4.563   5.348 -0.1779  0.1553 -1.0348
   90SAPE  H16S 8792   4.466   4.506   5.176 -1.2922 -0.9094  1.4142
   90SAPE  C217 8793   4.648   4.489   5.304 -0.6391  0.7926  0.5250
   90SAPE  H17R 8794   4.700   4.417   5.237 -0.2776  1.9650 -0.4953
   90SAPE  H17S 8795   4.686   4.462   5.405 -0.0455  1.9596  0.6352
   90SAPE  C218 8796   4.704   4.631   5.272  0.4600 -0.1814 -0.8955
   90SAPE  H18R 8797   4.702   4.690   5.366 -1.0280 -1.5530 -0.0080
   90SAPE  H18S 8798   4.648   4.693   5.198 -0.4493 -1.7051 -1.5287
   90SAPE  C219 8799   4.851   4.617   5.216  0.0355  0.8399 -0.1696
   90SAPE  H19R 8800   4.901   4.529   5.261 -2.3159  0.0938  1.1403
   90SAPE  H19S 8801   4.905   4.710   5.244  4.2817 -0.9316 -1.4600
   90SAPE  C220 8802   4.846   4.597   5.061 -0.3017  0.1209  0.3422
   90SAPE  H20R 8803   4.799   4.679   5.003 -2.4058  0.2070  2.0059
   90SAPE  H20S 8804   4.789   4.504   5.042  1.1824 -0.4230 -1.7783
   90SAPE  H20T 8805   4.950   4.568   5.036  0.5529  1.6566  1.8419
   90SAPE   C33 8806   3.871   4.697   6.083 -0.3260  0.8068 -0.5585
   90SAPE   H3X 8807   3.760   4.689   6.078 -0.3386 -0.4678  0.9182
   90SAPE   H3Y 8808   3.919   4.598   6.066 -0.6745  0.5554 -0.1032
   90SAPE   C34 8809   3.929   4.804   5.997  0.2171  0.4007  1.0470
   90SAPE   H4X 8810   4.038   4.823   6.007  0.7004 -2.1055  1.3362
   90SAPE   H4Y 8811   3.881   4.904   6.008 -0.8534  0.0807 -0.5046
   90SAPE   C35 8812   3.922   4.763   5.843  0.5911 -0.0025 -0.5926
   90SAPE   H5X 8813   3.814   4.751   5.819 -0.7421  0.5885  4.1453
   90SAPE   H5Y 8814   3.973   4.670   5.812 -0.9588 -0.4433 -1.9896
   90SAPE   C36 8815   3.971   4.879   5.749 -0.1700 -0.2109  0.3201
   90SAPE   H6X 8816   4.078   4.889   5.777  0.0690 -1.7925  0.0659
   90SAPE   H6Y 8817   3.922   4.974   5.778  0.1254  0.6885 -1.9441
   90SAPE   C37 8818   3.960   4.857   5.596  0.6013  0.4950 -0.8041
   90SAPE   H7X 8819   3.856   4.833   5.567  0.8930  0.2947 -1.7247
   90SAPE   H7Y 8820   4.019   4.765   5.576  1.9531  0.7790  1.4498
   90SAPE   C38 8821   4.007   4.976   5.512 -0.1918 -0.5315 -0.1726
   90SAPE   H8X 8822   4.112   4.996   5.544 -0.1967 -1.4137  0.4297
   90SAPE   H8Y 8823   3.953   5.071   5.535  0.1360 -0.0613 -1.2718
   90SAPE   C39 8824   3.999   4.959   5.363  0.5726 -0.4776  0.2423
   90SAPE   H9X 8825   3.896   4.937   5.329  1.1534 -0.4848 -1.5791
   90SAPE   H9Y 8826   4.053   4.864   5.345 -1.5156 -2.0887  1.8399
   90SAPE  C310 8827   4.049   5.083   5.284 -0.2908 -0.1207  0.5242
   90SAPE  H10X 8828   4.152   5.099   5.324 -0.0720 -3.0634  1.3884
   90SAPE  H10Y 8829   3.989   5.172   5.309 -1.6334 -1.5274  2.7283
   90SAPE  C311 8830   4.041   5.068   5.130 -0.1450  0.3618  0.6036
   90SAPE  H11X 8831   3.947   5.031   5.083  1.1178 -0.0167 -1.7704
   90SAPE  H11Y 8832   4.121   4.995   5.106  0.2745  1.5735 -2.0334
   90SAPE  C312 8833   4.080   5.202   5.060  0.6566 -0.2807 -0.7511
   90SAPE  H12X 8834   4.175   5.232   5.109 -0.1047  1.4950 -0.2884
   90SAPE  H12Y 8835   4.012   5.282   5.096 -2.0036 -1.4722 -2.7363
   90SAPE  C313 8836   4.083   5.189   4.910 -0.8931  0.1289  0.2788
   90SAPE  H13X 8837   3.984   5.224   4.875 -0.5145  1.3302  0.3509
   90SAPE  H13Y 8838   4.115   5.086   4.886 -1.7734  0.2171 -1.4117
   90SAPE  C314 8839   4.179   5.285   4.837 -0.3489 -0.8745  0.2509
   90SAPE  H14X 8840   4.175   5.279   4.726  0.8926 -2.0253  0.2357
   90SAPE  H14Y 8841   4.284   5.262   4.866  0.4464  0.6877 -1.2112
   90SAPE  C315 8842   4.162   5.439   4.866  0.4295  0.5733  0.3392
   90SAPE  H15X 8843   4.174   5.469   4.973  1.4108 -1.5126  0.8693
   90SAPE  H15Y 8844   4.059   5.472   4.838  0.2029 -0.8631 -0.6023
   90SAPE  C316 8845   4.268   5.519   4.779  0.1815 -0.1889 -0.6757
   90SAPE  H16X 8846   4.262   5.476   4.676 -0.8995 -1.8629  0.0467
   90SAPE  H16Y 8847   4.374   5.494   4.803 -0.6615 -2.4045  0.9904
   90SAPE  C317 8848   4.249   5.671   4.790  0.7114  0.0430 -0.2880
   90SAPE  H17X 8849   4.337   5.726   4.750  1.7186 -1.0874  0.3258
   90SAPE  H17Y 8850   4.256   5.685   4.900 -3.0919 -0.9609  0.2565
   90SAPE  C318 8851   4.118   5.731   4.741 -0.6142  0.2286  0.1239
   90SAPE  H18X 8852   4.031   5.711   4.806  0.5194 -0.5254  1.4780
   90SAPE  H18Y 8853   4.106   5.699   4.635  0.2707 -0.6938  0.2780
   90SAPE  H18Z 8854   4.131   5.841   4.744 -1.3205  0.2994  0.7196
   91SAPE     N 8855   1.983   5.419   6.834  0.1630 -0.0560 -0.1303
   91SAPE   HN1 8856   2.014   5.517   6.848  1.6166 -0.5608  0.4192
   91SAPE   HN2 8857   2.013   5.358   6.912  0.7725 -0.5940 -0.7697
   91SAPE   HN3 8858   2.039   5.380   6.756  0.1795 -1.3705  0.5155
   91SAPE   C12 8859   1.840   5.410   6.803  0.2156 -0.6724 -0.2333
   91SAPE  H12A 8860   1.784   5.435   6.896 -0.5104  0.7838 -1.0320
   91SAPE  H12B 8861   1.812   5.308   6.768 -2.4187 -0.6748  1.5856
   91SAPE   C11 8862   1.823   5.504   6.686  0.0040  0.1692  0.6755
   91SAPE  H11A 8863   1.721   5.495   6.644  1.0547 -3.4191 -1.4844
   91SAPE  H11B 8864   1.892   5.482   6.602  0.4610 -0.4625  1.2032
   91SAPE     P 8865   1.764   5.748   6.775  0.0788 -0.2130  0.0210
   91SAPE   O13 8866   1.753   5.718   6.923  0.5746  0.5023  0.7039
   91SAPE   O14 8867   1.822   5.875   6.745  0.2858 -0.5426 -0.2321
   91SAPE   O12 8868   1.855   5.637   6.721  0.3213 -0.2580  0.2131
   91SAPE   O11 8869   1.627   5.732   6.698  0.3514  0.2418  0.8085
   91SAPE    C1 8870   1.598   5.825   6.581  0.2759 -0.3887 -0.3624
   91SAPE    HA 8871   1.508   5.883   6.610  0.9764  1.0653 -0.9768
   91SAPE    HB 8872   1.680   5.898   6.563  0.6910 -0.6358  0.4809
   91SAPE    C2 8873   1.549   5.753   6.453 -0.3527 -0.2128 -0.1603
   91SAPE    HS 8874   1.633   5.689   6.417 -1.5425 -1.0276 -1.5946
   91SAPE   O21 8875   1.498   5.838   6.352 -0.4258 -0.4057  0.0346
   91SAPE   C21 8876   1.603   5.878   6.277 -0.3478  0.2078  0.5398
   91SAPE   O22 8877   1.722   5.865   6.303  0.0228 -0.2548 -0.2003
   91SAPE   C22 8878   1.556   5.952   6.153 -0.2444 -0.4655 -0.2160
   91SAPE   H2R 8879   1.482   6.029   6.183  0.0666  0.0538 -0.7500
   91SAPE   H2S 8880   1.643   6.011   6.116  0.0990 -0.3999  0.6781
   91SAPE    C3 8881   1.427   5.654   6.481 -0.3834 -0.1160 -0.0237
   91SAPE    HX 8882   1.351   5.725   6.521  0.4695  0.0041  1.4493
   91SAPE    HY 8883   1.452   5.586   6.565 -0.9498 -1.6961 -1.0859
   91SAPE   O31 8884   1.369   5.599   6.367 -0.4148  0.5601 -0.2490
   91SAPE   C31 8885   1.396   5.474   6.332 -0.1639  0.1923  0.0537
   91SAPE   O32 8886   1.483   5.404   6.385  0.2612 -0.5072  0.4734
   91SAPE   C32 8887   1.305   5.431   6.220 -0.3966 -0.0204  0.2565
   91SAPE   H2X 8888   1.283   5.510   6.145  1.3388  2.2595  2.0113
   91SAPE   H2Y 8889   1.204   5.419   6.264 -0.4953 -1.0207 -0.2258
   91SAPE   C23 8890   1.508   5.859   6.035  0.0580 -0.3651 -0.8700
   91SAPE   H3R 8891   1.422   5.799   6.072  1.1570  0.1914  2.9977
   91SAPE   H3S 8892   1.594   5.805   5.990  0.3685 -0.2404 -0.4347
   91SAPE   C24 8893   1.419   5.934   5.934  0.3964 -0.1529 -0.5975
   91SAPE   H4R 8894   1.330   5.977   5.984  1.6794  0.1669  1.5452
   91SAPE   H4S 8895   1.381   5.863   5.858 -1.0879  1.0928 -1.0751
   91SAPE   C25 8896   1.500   6.044   5.868 -0.0521  0.2227 -0.6897
   91SAPE   H5R 8897   1.486   6.136   5.926  0.0376 -0.2309  0.0751
   91SAPE   C26 8898   1.565   6.047   5.750  0.2978 -0.6279  0.0204
   91SAPE   H6R 8899   1.610   6.139   5.710  2.4948 -1.9738 -0.7434
   91SAPE   C27 8900   1.581   5.936   5.655 -0.4758 -0.1817  0.2284
   91SAPE   H7R 8901   1.534   5.962   5.558  0.3250 -0.1364 -0.1541
   91SAPE   H7S 8902   1.535   5.839   5.683 -1.8097  0.7513  1.3973
   91SAPE   C28 8903   1.727   5.916   5.635 -0.1176  0.2043 -0.0355
   91SAPE   H8R 8904   1.801   5.944   5.712  1.9534 -2.7885 -0.7567
   91SAPE   C29 8905   1.778   5.846   5.531  0.1282 -0.4647 -0.2303
   91SAPE   H9R 8906   1.886   5.838   5.513 -0.0184 -2.1981 -0.4898
   91SAPE  C210 8907   1.696   5.785   5.418 -0.3706 -0.4865 -0.0212
   91SAPE  H10R 8908   1.586   5.790   5.431 -0.2348  0.4463  0.8753
   91SAPE  H10S 8909   1.720   5.676   5.416  1.0235 -0.2034  0.3746
   91SAPE  C211 8910   1.730   5.861   5.291 -0.2464  0.2944 -0.3025
   91SAPE  H11R 8911   1.727   5.971   5.296  0.0042  0.2474  1.7019
   91SAPE  C212 8912   1.768   5.810   5.177 -0.8966 -0.6193  0.1627
   91SAPE  H12R 8913   1.805   5.885   5.106  1.8263 -0.4329  1.6322
   91SAPE  C213 8914   1.770   5.673   5.119 -0.4896  0.1497 -0.6291
   91SAPE  H13R 8915   1.783   5.592   5.195 -2.0354  0.0916 -0.3962
   91SAPE  H13S 8916   1.856   5.651   5.052 -0.7635 -0.5489 -0.7670
   91SAPE  C214 8917   1.634   5.639   5.054  0.0316 -0.0819 -0.4134
   91SAPE  H14R 8918   1.543   5.656   5.113  0.6697  0.8257  0.3349
   91SAPE  C215 8919   1.617   5.620   4.919  0.1299  0.7470 -0.2260
   91SAPE  H15R 8920   1.518   5.598   4.875 -0.1717  1.9034 -0.1713
   91SAPE  C216 8921   1.717   5.620   4.807  0.7581  0.1963  0.0307
   91SAPE  H16R 8922   1.717   5.518   4.764  1.7651  0.0373  0.3758
   91SAPE  H16S 8923   1.820   5.648   4.837 -0.4510  2.2164  2.7444
   91SAPE  C217 8924   1.677   5.704   4.691 -0.2597 -0.2117  0.3126
   91SAPE  H17R 8925   1.723   5.804   4.705  1.3623 -0.9595  0.5539
   91SAPE  H17S 8926   1.567   5.713   4.680 -0.2000 -0.9241 -1.1529
   91SAPE  C218 8927   1.729   5.651   4.555  0.0419  0.1015 -0.3197
   91SAPE  H18R 8928   1.686   5.700   4.465 -0.0265  0.0886 -0.2943
   91SAPE  H18S 8929   1.699   5.544   4.552  0.5509 -0.0525 -0.0228
   91SAPE  C219 8930   1.882   5.655   4.519 -0.0659 -0.3329 -0.4446
   91SAPE  H19R 8931   1.941   5.595   4.592  0.4628 -0.4094 -0.9286
   91SAPE  H19S 8932   1.908   5.762   4.532 -1.8064 -0.0287  0.8549
   91SAPE  C220 8933   1.917   5.600   4.387  0.1732  0.1717  0.2901
   91SAPE  H20R 8934   1.872   5.500   4.366 -0.8254  0.6381  0.1230
   91SAPE  H20S 8935   2.026   5.602   4.367  0.5648  2.8625  2.1015
   91SAPE  H20T 8936   1.877   5.666   4.307  0.0602 -0.2419  0.0015
   91SAPE   C33 8937   1.343   5.294   6.159  0.5219 -1.2792  0.2900
   91SAPE   H3X 8938   1.254   5.245   6.114 -0.8153 -0.3510  1.8045
   91SAPE   H3Y 8939   1.388   5.213   6.220  1.0677  0.9417  3.0608
   91SAPE   C34 8940   1.447   5.306   6.040 -0.5005 -0.5985  0.3067
   91SAPE   H4X 8941   1.479   5.206   6.003  1.5255 -0.1151  0.6521
   91SAPE   H4Y 8942   1.542   5.350   6.078 -2.3085  2.5964  1.4810
   91SAPE   C35 8943   1.400   5.388   5.929  0.4109 -0.3331 -0.8208
   91SAPE   H5X 8944   1.376   5.491   5.961  0.1829 -0.1577 -1.5428
   91SAPE   H5Y 8945   1.300   5.348   5.901 -0.7875  1.9325 -0.0461
   91SAPE   C36 8946   1.492   5.387   5.806 -0.0183  0.7026  0.3857
   91SAPE   H6X 8947   1.500   5.285   5.761  1.3638  0.7220  0.5388
   91SAPE   H6Y 8948   1.593   5.426   5.831 -0.8946  2.5561  1.1831
   91SAPE   C37 8949   1.451   5.487   5.704  0.6371 -0.0046 -0.1299
   91SAPE   H7X 8950   1.417   5.580   5.754 -0.0597  0.1197 -0.8070
   91SAPE   H7Y 8951   1.354   5.461   5.656  0.7960  0.7801 -0.9055
   91SAPE   C38 8952   1.551   5.517   5.599  0.5136 -0.2008 -0.0372
   91SAPE   H8X 8953   1.649   5.547   5.640  0.9326 -2.5702  0.8341
   91SAPE   H8Y 8954   1.507   5.600   5.538 -2.4871 -1.4190  0.2882
   91SAPE   C39 8955   1.581   5.406   5.503 -0.0946 -0.1729  0.4184
   91SAPE   H9X 8956   1.597   5.307   5.551 -2.3662 -1.0039 -0.3984
   91SAPE   H9Y 8957   1.680   5.433   5.461  0.2754 -2.5757 -0.4436
   91SAPE  C310 8958   1.489   5.398   5.382  0.4999  0.2178 -0.6172
   91SAPE  H10X 8959   1.498   5.491   5.321 -0.3245  0.7642  0.0658
   91SAPE  H10Y 8960   1.384   5.386   5.419  0.4365  1.9651 -0.1311
   91SAPE  C311 8961   1.536   5.277   5.299  0.6337  0.1930  0.7158
   91SAPE  H11X 8962   1.510   5.180   5.345  1.1289  0.0128  0.6239
   91SAPE  H11Y 8963   1.647   5.277   5.299  0.6813 -1.7011 -0.3997
   91SAPE  C312 8964   1.475   5.270   5.163 -0.0031 -0.1514  0.3328
   91SAPE  H12X 8965   1.502   5.360   5.104  1.6914  1.2040  2.9971
   91SAPE  H12Y 8966   1.364   5.274   5.155  0.0483  1.0721  0.1038
   91SAPE  C313 8967   1.513   5.141   5.091 -0.5738 -0.1071 -0.3657
   91SAPE  H13X 8968   1.468   5.054   5.145 -1.1484  0.1123 -0.4779
   91SAPE  H13Y 8969   1.623   5.132   5.089 -0.7182 -2.1725 -1.6057
   91SAPE  C314 8970   1.467   5.130   4.949 -0.5531  0.0336 -0.0534
   91SAPE  H14X 8971   1.543   5.062   4.906 -0.1472  0.2702  0.2712
   91SAPE  H14Y 8972   1.471   5.229   4.899 -0.3397  0.1674  0.2229
   91SAPE  C315 8973   1.330   5.069   4.933  0.7940  0.3405  0.7131
   91SAPE  H15X 8974   1.261   5.147   4.972  1.6130  1.2107  0.4643
   91SAPE  H15Y 8975   1.320   4.980   4.998  0.0693 -1.0129 -1.1454
   91SAPE  C316 8976   1.294   5.035   4.791  0.5991 -0.2915  0.0393
   91SAPE  H16X 8977   1.298   4.924   4.783  1.4266 -0.1598 -2.0502
   91SAPE  H16Y 8978   1.371   5.079   4.724 -0.0781 -0.6786 -1.0199
   91SAPE  C317 8979   1.159   5.094   4.742 -0.5515 -0.0209 -0.1481
   91SAPE  H17X 8980   1.075   5.062   4.807 -0.5202 -1.7707 -0.9299
   91SAPE  H17Y 8981   1.125   5.063   4.641 -1.9617  0.4064  0.1730
   91SAPE  C318 8982   1.167   5.247   4.728  0.7691 -0.1984  0.1647
   91SAPE  H18X 8983   1.197   5.303   4.819 -1.2354  0.8070  0.2539
   91SAPE  H18Y 8984   1.070   5.286   4.692  0.9969 -0.3883 -0.6870
   91SAPE  H18Z 8985   1.241   5.264   4.646 -0.4802 -0.2434 -1.0047
   92SAPE     N 8986   3.378   0.458   6.934 -0.6435 -0.2754 -0.1001
   92SAPE   HN1 8987   3.401   0.442   7.034 -3.0720 -0.7982  0.4275
   92SAPE   HN2 8988   3.459   0.422   6.879  0.2888  2.2381 -0.5060
   92SAPE   HN3 8989   3.377   0.562   6.929 -0.0250 -0.2486  0.2372
   92SAPE   C12 8990   3.251   0.391   6.891  0.7864 -0.2206  0.0123
   92SAPE  H12A 8991   3.159   0.438   6.932  1.2087 -0.1881  0.9522
   92SAPE  H12B 8992   3.269   0.286   6.922 -1.2979 -0.5484  0.2765
   92SAPE   C11 8993   3.229   0.394   6.736  0.5958  0.2257  0.2780
   92SAPE  H11A 8994   3.222   0.500   6.703  0.4091 -0.3550 -1.7186
   92SAPE  H11B 8995   3.132   0.341   6.723  0.8729 -0.6824  1.6755
   92SAPE     P 8996   3.323   0.196   6.586 -0.2941 -0.1552  0.5029
   92SAPE   O13 8997   3.459   0.126   6.578 -0.1069  0.0829  0.4561
   92SAPE   O14 8998   3.212   0.120   6.641  0.6653  0.8095 -0.4224
   92SAPE   O12 8999   3.339   0.334   6.664 -0.2807 -0.3150 -0.6174
   92SAPE   O11 9000   3.290   0.250   6.437 -0.1413  0.1747 -0.3525
   92SAPE    C1 9001   3.189   0.339   6.400 -0.5907  0.3532 -0.2567
   92SAPE    HA 9002   3.101   0.290   6.355 -0.7522  1.4511 -1.1807
   92SAPE    HB 9003   3.138   0.390   6.484 -0.3339 -1.1978  0.8941
   92SAPE    C2 9004   3.237   0.443   6.299 -0.1514  0.3869  0.2788
   92SAPE    HS 9005   3.150   0.500   6.261  0.1071  1.5312  1.3611
   92SAPE   O21 9006   3.313   0.393   6.193 -0.2235 -0.3677 -0.0633
   92SAPE   C21 9007   3.251   0.305   6.124 -0.3719  0.5539 -0.1978
   92SAPE   O22 9008   3.135   0.274   6.127  0.0904  0.0443 -0.0365
   92SAPE   C22 9009   3.356   0.218   6.049  0.1716  0.2620 -0.4301
   92SAPE   H2R 9010   3.422   0.169   6.124 -0.5458  0.9047  0.6441
   92SAPE   H2S 9011   3.292   0.135   6.010 -1.6059  1.1357  0.4989
   92SAPE    C3 9012   3.310   0.557   6.373 -0.1437  0.4921 -0.0248
   92SAPE    HX 9013   3.396   0.511   6.426  0.9731  0.6021 -1.6926
   92SAPE    HY 9014   3.245   0.596   6.455  0.3200 -1.1188  1.1501
   92SAPE   O31 9015   3.352   0.660   6.285 -0.0709  0.3933 -0.2660
   92SAPE   C31 9016   3.463   0.646   6.216  0.5487  1.0016  0.4012
   92SAPE   O32 9017   3.544   0.553   6.231  0.3151  0.0453  0.4006
   92SAPE   C32 9018   3.483   0.762   6.122  0.7296 -1.0978 -0.7295
   92SAPE   H2X 9019   3.589   0.744   6.092  1.1438 -2.3692  1.3493
   92SAPE   H2Y 9020   3.473   0.851   6.187  3.1662  0.3704 -2.1790
   92SAPE   C23 9021   3.432   0.283   5.934  0.3900 -0.2197  0.6772
   92SAPE   H3R 9022   3.506   0.363   5.956  2.4716 -1.2134 -2.0936
   92SAPE   H3S 9023   3.362   0.347   5.876  2.7166  1.3446 -0.5612
   92SAPE   C24 9024   3.509   0.177   5.845 -0.6091  0.2237 -0.4840
   92SAPE   H4R 9025   3.591   0.130   5.902  0.6133 -0.7026 -2.8970
   92SAPE   H4S 9026   3.553   0.232   5.759  0.6672 -3.7078 -2.5624
   92SAPE   C25 9027   3.429   0.059   5.787  0.7525 -0.3578 -0.2334
   92SAPE   H5R 9028   3.400  -0.026   5.850 -0.6139 -0.7976 -1.4080
   92SAPE   C26 9029   3.377   0.057   5.662 -0.2847 -0.7808 -1.5270
   92SAPE   H6R 9030   3.328  -0.038   5.636  0.9696 -2.8247  2.5947
   92SAPE   C27 9031   3.380   0.170   5.557  0.7854  0.3472 -0.2053
   92SAPE   H7R 9032   3.389   0.269   5.606  0.6905 -1.1578  3.1903
   92SAPE   H7S 9033   3.280   0.171   5.509  2.2257 -0.4476 -3.5081
   92SAPE   C28 9034   3.492   0.151   5.462  0.6194  0.1070  0.6143
   92SAPE   H8R 9035   3.595   0.163   5.500  0.7739  4.5457 -0.6925
   92SAPE   C29 9036   3.469   0.142   5.329 -0.6294 -0.3030  0.3634
   92SAPE   H9R 9037   3.560   0.121   5.270 -1.8687 -2.6858 -0.8210
   92SAPE  C210 9038   3.338   0.138   5.252  0.3693  0.1383  0.2304
   92SAPE  H10R 9039   3.283   0.060   5.309  3.1356 -1.8483  0.3609
   92SAPE  H10S 9040   3.354   0.090   5.154  1.6931 -0.7143  0.8287
   92SAPE  C211 9041   3.254   0.263   5.260  0.2337  0.0551  0.6954
   92SAPE  H11R 9042   3.246   0.324   5.351 -1.6901  1.6105 -0.4335
   92SAPE  C212 9043   3.189   0.314   5.145 -0.2283 -0.0544  0.0201
   92SAPE  H12R 9044   3.131   0.408   5.145 -1.3409 -0.6735 -2.0709
   92SAPE  C213 9045   3.187   0.240   5.013 -0.3598  0.3891 -0.2639
   92SAPE  H13R 9046   3.165   0.137   5.048  2.6856 -0.0406  0.6766
   92SAPE  H13S 9047   3.290   0.236   4.971 -0.6443  2.1065 -1.2123
   92SAPE  C214 9048   3.084   0.290   4.915  0.1215  0.1265 -0.6379
   92SAPE  H14R 9049   3.000   0.345   4.960  0.5545  1.3266 -1.2355
   92SAPE  C215 9050   3.104   0.301   4.776 -0.6660 -0.3182 -0.9020
   92SAPE  H15R 9051   3.022   0.343   4.717 -2.8291 -0.9732  1.4829
   92SAPE  C216 9052   3.231   0.274   4.698 -0.2282  0.5482 -0.4618
   92SAPE  H16R 9053   3.314   0.344   4.721 -1.5498  3.0113 -2.6987
   92SAPE  H16S 9054   3.218   0.312   4.595 -2.6434  2.9754  0.6010
   92SAPE  C217 9055   3.275   0.122   4.690  0.1683 -0.2546  0.0477
   92SAPE  H17R 9056   3.187   0.067   4.651  0.4380  0.4450 -1.5930
   92SAPE  H17S 9057   3.304   0.074   4.786  0.6580  2.0864  1.1410
   92SAPE  C218 9058   3.391   0.104   4.587  0.0555 -0.2002 -0.3076
   92SAPE  H18R 9059   3.371   0.153   4.490 -0.5869  0.2882  0.0575
   92SAPE  H18S 9060   3.408  -0.005   4.579 -0.1409 -0.3613  1.1044
   92SAPE  C219 9061   3.531   0.144   4.641 -0.4678 -0.3007 -0.6931
   92SAPE  H19R 9062   3.549   0.083   4.732 -0.8156  1.2515  0.4546
   92SAPE  H19S 9063   3.526   0.250   4.675 -1.2921 -0.6946  0.4927
   92SAPE  C220 9064   3.648   0.123   4.547  0.2518  0.3378 -0.3164
   92SAPE  H20R 9065   3.628   0.030   4.489 -1.4623  2.3286 -3.1491
   92SAPE  H20S 9066   3.739   0.103   4.607  1.2065  0.6383 -1.6084
   92SAPE  H20T 9067   3.667   0.197   4.467  1.4106  0.0538 -0.3317
   92SAPE   C33 9068   3.387   0.753   6.001  0.0794  0.3774 -0.2112
   92SAPE   H3X 9069   3.373   0.853   5.955  0.8775  0.2018 -0.8556
   92SAPE   H3Y 9070   3.288   0.721   6.040 -0.1161  1.2692  0.0522
   92SAPE   C34 9071   3.425   0.659   5.880 -0.7569  0.2369 -0.6651
   92SAPE   H4X 9072   3.428   0.553   5.914  0.1483  0.6875  0.7704
   92SAPE   H4Y 9073   3.530   0.685   5.854 -0.4121  0.3961  0.8093
   92SAPE   C35 9074   3.336   0.665   5.761  0.3309  0.0204  0.0321
   92SAPE   H5X 9075   3.314   0.773   5.744  1.0504  0.1035 -0.4262
   92SAPE   H5Y 9076   3.237   0.618   5.781  1.1609 -1.0504  1.7720
   92SAPE   C36 9077   3.392   0.590   5.641 -0.9932 -0.3542 -0.4474
   92SAPE   H6X 9078   3.441   0.497   5.678  1.7180  0.9568 -0.5522
   92SAPE   H6Y 9079   3.476   0.648   5.598 -1.9535  0.8951 -0.6885
   92SAPE   C37 9080   3.298   0.575   5.518 -0.3191 -0.1825  0.2398
   92SAPE   H7X 9081   3.202   0.530   5.551 -1.7303  0.8054 -2.1827
   92SAPE   H7Y 9082   3.352   0.510   5.447  1.2375  0.8001  0.4755
   92SAPE   C38 9083   3.276   0.711   5.449 -1.1304  0.4348 -0.3742
   92SAPE   H8X 9084   3.372   0.766   5.447 -1.2524  0.6158 -1.2255
   92SAPE   H8Y 9085   3.202   0.770   5.506 -0.2770  0.7152  0.4787
   92SAPE   C39 9086   3.223   0.712   5.304  0.7085  0.2288  0.1513
   92SAPE   H9X 9087   3.291   0.645   5.245  0.6058 -0.5493  0.8960
   92SAPE   H9Y 9088   3.229   0.814   5.260  2.2812  0.0367 -0.1589
   92SAPE  C310 9089   3.084   0.663   5.289  0.0857 -0.7227  0.7482
   92SAPE  H10X 9090   3.019   0.715   5.363  0.5884  0.5403  0.3264
   92SAPE  H10Y 9091   3.072   0.554   5.303  0.2595 -0.9410 -0.6290
   92SAPE  C311 9092   3.034   0.692   5.146 -0.0979 -0.1311 -0.3549
   92SAPE  H11X 9093   3.108   0.654   5.073  1.7733  1.8057  0.4340
   92SAPE  H11Y 9094   3.016   0.801   5.130 -1.6713 -0.4257 -0.8097
   92SAPE  C312 9095   2.903   0.621   5.115  0.1619 -0.5663  0.4419
   92SAPE  H12X 9096   2.818   0.657   5.178  0.2171 -1.0045  0.7759
   92SAPE  H12Y 9097   2.908   0.512   5.139  1.5045 -0.5086  0.4573
   92SAPE  C313 9098   2.860   0.619   4.963 -0.1568 -0.4104 -0.0856
   92SAPE  H13X 9099   2.951   0.600   4.902 -1.1352 -0.3380 -1.6301
   92SAPE  H13Y 9100   2.819   0.718   4.934  1.8340  0.5814  0.2726
   92SAPE  C314 9101   2.760   0.513   4.925  0.0182  0.3242 -0.3233
   92SAPE  H14X 9102   2.669   0.520   4.988 -1.6225  1.8063 -2.6834
   92SAPE  H14Y 9103   2.797   0.409   4.939 -3.3074 -0.6197  3.3416
   92SAPE  C315 9104   2.713   0.539   4.777 -0.2193 -0.4794 -0.4202
   92SAPE  H15X 9105   2.806   0.522   4.718 -0.5687 -2.3324 -0.5034
   92SAPE  H15Y 9106   2.689   0.647   4.781  2.9102  0.2817  1.9733
   92SAPE  C316 9107   2.591   0.459   4.746  0.6351 -0.5524  0.3711
   92SAPE  H16X 9108   2.519   0.476   4.829 -0.8060  1.5995 -1.2105
   92SAPE  H16Y 9109   2.605   0.349   4.755  0.0164 -0.6208  0.5039
   92SAPE  C317 9110   2.507   0.497   4.615  0.5286  0.3438  0.6672
   92SAPE  H17X 9111   2.494   0.607   4.619  1.4165  0.4946 -0.1919
   92SAPE  H17Y 9112   2.403   0.458   4.620  0.0494  1.6123  1.0178
   92SAPE  C318 9113   2.570   0.466   4.478 -0.3448 -0.0377 -0.1194
   92SAPE  H18X 9114   2.602   0.360   4.475  0.0839  0.0999 -0.5175
   92SAPE  H18Y 9115   2.666   0.521   4.474  0.0311 -0.6403  0.4229
   92SAPE  H18Z 9116   2.501   0.502   4.399 -1.5873  0.0550  0.9751
   93SAPE     N 9117   0.323   1.159   6.924 -0.1237 -0.3869  0.4329
   93SAPE   HN1 9118   0.386   1.154   6.841  0.6572 -0.8994  1.0469
   93SAPE   HN2 9119   0.318   1.256   6.963  1.4828 -0.6435  1.3851
   93SAPE   HN3 9120   0.372   1.096   6.991  1.5555 -0.5945 -0.9062
   93SAPE   C12 9121   0.181   1.113   6.895  0.0922 -0.8465  0.1690
   93SAPE  H12A 9122   0.118   1.141   6.983 -0.0064 -0.0948 -0.1300
   93SAPE  H12B 9123   0.178   1.003   6.878 -1.5965 -1.1003  1.7620
   93SAPE   C11 9124   0.130   1.189   6.774 -0.1980 -0.2342 -0.2476
   93SAPE  H11A 9125   0.028   1.153   6.746  0.1581 -1.0740 -0.5008
   93SAPE  H11B 9126   0.195   1.165   6.687  1.4158  1.5450  0.3991
   93SAPE     P 9127   0.021   1.415   6.874  0.2021  0.0814 -0.3707
   93SAPE   O13 9128  -0.095   1.330   6.918 -0.1598  0.1132  0.5891
   93SAPE   O14 9129   0.084   1.493   6.985  0.5424 -0.2868  0.1798
   93SAPE   O12 9130   0.133   1.336   6.793  0.0159  0.1634  0.0376
   93SAPE   O11 9131  -0.028   1.520   6.771 -0.3196 -0.1988 -0.0931
   93SAPE    C1 9132  -0.130   1.492   6.674  0.1292 -0.0114 -1.0488
   93SAPE    HA 9133  -0.210   1.423   6.709  2.5603 -3.0433 -0.9921
   93SAPE    HB 9134  -0.186   1.583   6.645  1.1792  0.7291 -0.7842
   93SAPE    C2 9135  -0.070   1.413   6.549 -0.2639 -0.5804  0.0566
   93SAPE    HS 9136  -0.032   1.316   6.588  1.4031 -0.0887 -0.2850
   93SAPE   O21 9137   0.037   1.492   6.492 -0.4117  0.4050 -0.0523
   93SAPE   C21 9138   0.141   1.435   6.438 -0.2595  0.9491 -0.4395
   93SAPE   O22 9139   0.160   1.313   6.425  0.0287 -0.2864  0.3142
   93SAPE   C22 9140   0.233   1.549   6.389 -0.3770 -0.3415 -0.0596
   93SAPE   H2R 9141   0.181   1.597   6.303 -0.1951  1.4780  0.7863
   93SAPE   H2S 9142   0.239   1.623   6.472  0.2355  0.5263 -0.8611
   93SAPE    C3 9143  -0.177   1.395   6.438 -0.9293 -0.5064 -0.4008
   93SAPE    HX 9144  -0.193   1.492   6.388  0.3178 -1.1961 -2.2581
   93SAPE    HY 9145  -0.271   1.366   6.489 -0.9373  1.4994  0.8394
   93SAPE   O31 9146  -0.139   1.304   6.335  0.0869 -0.3183 -0.4465
   93SAPE   C31 9147  -0.156   1.178   6.368 -0.6297  0.0311  0.3465
   93SAPE   O32 9148  -0.206   1.138   6.472 -0.1629  0.0562  0.4732
   93SAPE   C32 9149  -0.094   1.088   6.258 -0.1302 -0.6054  0.1668
   93SAPE   H2X 9150   0.013   1.078   6.287 -0.1374 -1.6255 -0.1216
   93SAPE   H2Y 9151  -0.100   1.152   6.168  1.9354 -2.0049 -1.0393
   93SAPE   C23 9152   0.371   1.501   6.346 -0.0730 -0.2812  0.0967
   93SAPE   H3R 9153   0.414   1.420   6.410  0.6669  0.3421  0.4083
   93SAPE   H3S 9154   0.439   1.589   6.351 -0.7504  0.2278  0.7177
   93SAPE   C24 9155   0.380   1.442   6.200  0.3263 -0.0683  0.3536
   93SAPE   H4R 9156   0.336   1.521   6.136  1.5719 -0.6778 -1.3320
   93SAPE   H4S 9157   0.309   1.357   6.206  0.8448 -0.4219  1.8385
   93SAPE   C25 9158   0.514   1.423   6.145  0.4419 -0.2384 -0.2387
   93SAPE   H5R 9159   0.594   1.477   6.197  0.7384  0.8202 -1.7315
   93SAPE   C26 9160   0.559   1.346   6.044  0.3873  0.4639  0.0423
   93SAPE   H6R 9161   0.666   1.332   6.023  0.3642 -0.7306  0.6180
   93SAPE   C27 9162   0.473   1.264   5.960 -0.3481  0.0499  0.7646
   93SAPE   H7R 9163   0.377   1.236   6.009 -0.3404 -0.8218  0.3120
   93SAPE   H7S 9164   0.520   1.163   5.952 -0.2545  0.1779 -0.3484
   93SAPE   C28 9165   0.443   1.322   5.822  0.1179 -0.0417 -0.2919
   93SAPE   H8R 9166   0.393   1.419   5.825  0.1967  0.0550 -1.7498
   93SAPE   C29 9167   0.466   1.265   5.706 -0.4686 -0.5716 -0.0979
   93SAPE   H9R 9168   0.426   1.319   5.619 -1.3460 -0.1964  0.5300
   93SAPE  C210 9169   0.525   1.130   5.672  0.0649 -0.4887 -0.2452
   93SAPE  H10R 9170   0.558   1.082   5.766  3.3737 -0.2449 -1.1690
   93SAPE  H10S 9171   0.614   1.140   5.606  0.2732 -1.0615 -0.0570
   93SAPE  C211 9172   0.421   1.053   5.594  0.1966  0.0220 -0.1742
   93SAPE  H11R 9173   0.359   0.991   5.661  0.6415  0.1346  0.3523
   93SAPE  C212 9174   0.404   1.046   5.460 -0.0255  0.4543 -0.4621
   93SAPE  H12R 9175   0.324   0.980   5.424 -0.1875 -1.7276  3.3828
   93SAPE  C213 9176   0.478   1.130   5.358 -0.8002  0.1210  0.0951
   93SAPE  H13R 9177   0.514   1.226   5.401 -0.4522 -0.7853  1.9478
   93SAPE  H13S 9178   0.404   1.152   5.278 -1.2189 -1.3021  0.0521
   93SAPE  C214 9179   0.600   1.064   5.298  0.0492 -0.3567 -0.4408
   93SAPE  H14R 9180   0.664   1.010   5.368  1.1548  0.8690 -0.4652
   93SAPE  C215 9181   0.639   1.055   5.172 -0.5608 -1.0219  0.2333
   93SAPE  H15R 9182   0.728   0.994   5.150  1.2539  1.9811 -1.5897
   93SAPE  C216 9183   0.570   1.101   5.047  0.8478 -0.0083  0.0128
   93SAPE  H16R 9184   0.639   1.138   4.968  0.5779 -0.2620 -0.3472
   93SAPE  H16S 9185   0.507   1.192   5.057  0.1945 -0.2970 -1.2910
   93SAPE  C217 9186   0.498   0.988   4.976 -0.1323  0.3342  0.0498
   93SAPE  H17R 9187   0.444   0.922   5.047  0.4587 -1.7150 -1.2897
   93SAPE  H17S 9188   0.573   0.923   4.925  0.3732  2.4602 -2.1340
   93SAPE  C218 9189   0.405   1.028   4.869 -0.7045 -0.0047  0.6189
   93SAPE  H18R 9190   0.474   1.072   4.793 -0.8410  0.0978  0.5542
   93SAPE  H18S 9191   0.344   1.114   4.902 -0.3703  0.7157 -0.5737
   93SAPE  C219 9192   0.327   0.915   4.810  0.5257 -0.4004  0.4422
   93SAPE  H19R 9193   0.267   0.862   4.887 -2.5062 -0.9194 -2.0924
   93SAPE  H19S 9194   0.398   0.840   4.771  0.8503  1.9807 -4.2594
   93SAPE  C220 9195   0.237   0.947   4.689 -0.7033 -0.6432 -0.5756
   93SAPE  H20R 9196   0.158   1.016   4.725  0.6477 -0.4903  2.3697
   93SAPE  H20S 9197   0.196   0.853   4.646 -1.6274  0.0849 -1.3088
   93SAPE  H20T 9198   0.305   0.993   4.614 -0.7026 -1.9189 -1.3834
   93SAPE   C33 9199  -0.150   0.942   6.256 -0.3884 -0.1811  0.3014
   93SAPE   H3X 9200  -0.179   0.912   6.359  2.1860  1.0286  1.4642
   93SAPE   H3Y 9201  -0.074   0.874   6.212  0.4941  0.2142  1.1897
   93SAPE   C34 9202  -0.277   0.929   6.168  0.7327 -0.4457  0.6564
   93SAPE   H4X 9203  -0.353   1.001   6.205 -0.1207 -1.5529  1.1161
   93SAPE   H4Y 9204  -0.319   0.828   6.190 -2.1741 -0.2895 -3.1109
   93SAPE   C35 9205  -0.268   0.940   6.014  0.3818  0.0617  0.0174
   93SAPE   H5X 9206  -0.173   0.887   5.993  0.0394 -0.7818  0.5512
   93SAPE   H5Y 9207  -0.254   1.048   5.993  0.0151 -0.0493 -0.8372
   93SAPE   C36 9208  -0.382   0.888   5.930  0.1140  0.2623 -0.2165
   93SAPE   H6X 9209  -0.483   0.912   5.971  0.5511  2.0057 -0.0883
   93SAPE   H6Y 9210  -0.374   0.777   5.936  0.0762  0.1298 -2.1243
   93SAPE   C37 9211  -0.371   0.936   5.788 -0.1447  0.3244  0.3914
   93SAPE   H7X 9212  -0.410   0.865   5.712  2.2622 -0.9293  0.2135
   93SAPE   H7Y 9213  -0.263   0.936   5.760 -0.4165 -0.2398 -0.6899
   93SAPE   C38 9214  -0.436   1.072   5.774  0.4949  0.4415 -0.1294
   93SAPE   H8X 9215  -0.402   1.164   5.827 -2.7513  2.0327 -0.4890
   93SAPE   H8Y 9216  -0.541   1.060   5.809  0.3481 -1.1135 -1.0174
   93SAPE   C39 9217  -0.436   1.106   5.620 -0.1572 -0.6236 -0.0670
   93SAPE   H9X 9218  -0.483   1.025   5.560 -1.0306  0.0866 -0.3677
   93SAPE   H9Y 9219  -0.333   1.112   5.578  0.6842 -0.7861  1.8714
   93SAPE  C310 9220  -0.511   1.247   5.592  0.0705  0.1849  0.3179
   93SAPE  H10X 9221  -0.457   1.333   5.637  0.9256 -0.7604  1.1525
   93SAPE  H10Y 9222  -0.610   1.232   5.639 -0.1468 -2.6384 -0.8753
   93SAPE  C311 9223  -0.515   1.261   5.435  0.0671  0.8344  0.1305
   93SAPE  H11X 9224  -0.559   1.170   5.389  1.7274  0.1647 -0.2245
   93SAPE  H11Y 9225  -0.409   1.255   5.402  0.8933 -0.7654  2.7063
   93SAPE  C312 9226  -0.590   1.378   5.376 -0.0061  0.2971  0.1677
   93SAPE  H12X 9227  -0.565   1.472   5.430 -0.6061 -1.0606  3.0129
   93SAPE  H12Y 9228  -0.699   1.364   5.397 -0.0056  0.5901  0.3860
   93SAPE  C313 9229  -0.570   1.390   5.227 -0.8184  0.2876 -0.0261
   93SAPE  H13X 9230  -0.463   1.404   5.202 -1.2284 -0.3867 -2.5037
   93SAPE  H13Y 9231  -0.621   1.478   5.183 -0.2320 -0.5974 -2.6374
   93SAPE  C314 9232  -0.616   1.265   5.150  0.2098  0.3353  0.3914
   93SAPE  H14X 9233  -0.711   1.224   5.190  1.6223 -0.6395  3.0158
   93SAPE  H14Y 9234  -0.539   1.188   5.171  0.5060  0.5600  0.1413
   93SAPE  C315 9235  -0.631   1.284   4.993  0.0310  0.3030 -0.0729
   93SAPE  H15X 9236  -0.650   1.180   4.960 -1.0034  0.6014 -0.4330
   93SAPE  H15Y 9237  -0.533   1.323   4.956  0.5812 -1.9411 -1.1081
   93SAPE  C316 9238  -0.745   1.379   4.951  0.2292 -0.6955  0.4150
   93SAPE  H16X 9239  -0.754   1.463   5.023 -0.4641 -0.3183 -0.0933
   93SAPE  H16Y 9240  -0.839   1.320   4.962 -1.6371  1.4068 -2.7119
   93SAPE  C317 9241  -0.743   1.429   4.805 -0.6873  0.5789 -0.2098
   93SAPE  H17X 9242  -0.675   1.517   4.805 -2.0601  1.6862  0.5623
   93SAPE  H17Y 9243  -0.844   1.472   4.788 -1.0994  0.9127  2.5272
   93SAPE  C318 9244  -0.731   1.330   4.693 -0.2282  0.0383  0.5119
   93SAPE  H18X 9245  -0.829   1.280   4.682 -1.4734  2.4572 -0.2368
   93SAPE  H18Y 9246  -0.647   1.261   4.716 -0.8883 -0.9949 -0.0956
   93SAPE  H18Z 9247  -0.709   1.379   4.595  2.2869 -4.0364 -1.2414
   94SAPE     N 9248   5.021   0.430   7.322 -0.2896  0.2314  0.0458
   94SAPE   HN1 9249   5.093   0.504   7.313  0.7802 -0.6518  1.1287
   94SAPE   HN2 9250   4.979   0.452   7.414 -0.3801  0.6721 -0.0957
   94SAPE   HN3 9251   5.078   0.343   7.324  1.4362  1.3240  0.5435
   94SAPE   C12 9252   4.930   0.427   7.207 -0.2082  0.0068  0.8453
   94SAPE  H12A 9253   4.876   0.523   7.214 -0.6014 -0.2766  1.9873
   94SAPE  H12B 9254   4.854   0.346   7.211  2.6207 -3.0260 -1.2850
   94SAPE   C11 9255   5.000   0.418   7.070 -0.7148 -0.3255  0.0285
   94SAPE  H11A 9256   4.933   0.452   6.988  0.2364 -1.5484 -1.3268
   94SAPE  H11B 9257   5.023   0.311   7.048 -0.3644 -0.1763 -0.3414
   94SAPE     P 9258   5.190   0.577   6.961  0.1753  0.0353 -0.0569
   94SAPE   O13 9259   5.122   0.708   6.961 -0.4510 -0.1900  0.6972
   94SAPE   O14 9260   5.335   0.588   6.989 -0.1332  0.0601  0.0791
   94SAPE   O12 9261   5.120   0.489   7.073  0.1141  0.1840  0.5752
   94SAPE   O11 9262   5.173   0.504   6.822 -0.6502 -0.4292 -0.3542
   94SAPE    C1 9263   5.258   0.401   6.773  0.4157  0.0853 -0.1920
   94SAPE    HA 9264   5.290   0.337   6.857  0.5427 -2.3780 -2.0230
   94SAPE    HB 9265   5.190   0.338   6.712 -0.6128  1.5488 -0.6242
   94SAPE    C2 9266   5.368   0.464   6.681 -0.5764 -0.2157  0.2893
   94SAPE    HS 9267   5.423   0.544   6.736  1.3243 -2.4316  1.8460
   94SAPE   O21 9268   5.312   0.496   6.549 -0.1902 -0.2586 -0.1579
   94SAPE   C21 9269   5.287   0.628   6.535  0.6186  0.9113  0.3786
   94SAPE   O22 9270   5.305   0.715   6.617  0.5144  0.1318  0.7031
   94SAPE   C22 9271   5.225   0.656   6.401  0.3081 -0.5359  0.5384
   94SAPE   H2R 9272   5.211   0.765   6.389 -0.5945 -0.7677 -0.7820
   94SAPE   H2S 9273   5.295   0.622   6.322  1.0960 -0.0979  1.0424
   94SAPE    C3 9274   5.478   0.355   6.658 -0.2644 -0.5947  0.4242
   94SAPE    HX 9275   5.430   0.269   6.607  0.1960 -0.3350 -0.4754
   94SAPE    HY 9276   5.520   0.324   6.756  1.9125  0.6474 -0.0374
   94SAPE   O31 9277   5.583   0.405   6.566 -0.0112  0.3198 -0.6238
   94SAPE   C31 9278   5.700   0.442   6.622  0.0738  0.5554 -0.6725
   94SAPE   O32 9279   5.727   0.445   6.742  0.4000  0.3025 -0.0497
   94SAPE   C32 9280   5.801   0.485   6.515  0.1361 -0.0396 -0.3937
   94SAPE   H2X 9281   5.905   0.459   6.544  1.3123 -0.6927 -4.5327
   94SAPE   H2Y 9282   5.801   0.596   6.526  2.0125 -0.0551  0.1275
   94SAPE   C23 9283   5.083   0.600   6.373  0.3324  0.3816  0.4878
   94SAPE   H3R 9284   5.077   0.655   6.277 -2.4863 -3.0328 -1.5684
   94SAPE   H3S 9285   5.013   0.638   6.450  0.3973  0.7112  0.3842
   94SAPE   C24 9286   5.073   0.447   6.350  0.3097  0.2440 -0.3059
   94SAPE   H4R 9287   5.084   0.390   6.446 -1.8306  0.9472  0.4139
   94SAPE   H4S 9288   5.148   0.414   6.275 -0.7174 -1.0234 -0.8285
   94SAPE   C25 9289   4.936   0.425   6.303  0.0827  1.0873  0.6189
   94SAPE   H5R 9290   4.871   0.413   6.391  2.5030 -0.2493  2.3214
   94SAPE   C26 9291   4.892   0.443   6.180  0.0713  0.5514  0.4218
   94SAPE   H6R 9292   4.786   0.417   6.162  0.3147 -1.0193  1.0535
   94SAPE   C27 9293   4.982   0.483   6.071 -0.2933  0.0177 -0.6134
   94SAPE   H7R 9294   5.022   0.385   6.037  1.7422  0.7071 -0.3172
   94SAPE   H7S 9295   5.070   0.536   6.113 -0.1546 -0.8119  0.1866
   94SAPE   C28 9296   4.922   0.571   5.964 -0.2046  1.2100 -0.2133
   94SAPE   H8R 9297   4.859   0.649   6.010 -0.2270  0.1818  1.6022
   94SAPE   C29 9298   4.929   0.555   5.832  0.2995  0.4662  0.2049
   94SAPE   H9R 9299   4.866   0.613   5.764 -0.5054 -2.7205 -2.0008
   94SAPE  C210 9300   4.994   0.440   5.753  0.1546 -0.2216 -0.5443
   94SAPE  H10R 9301   5.012   0.355   5.822 -1.6885  0.5631  1.0275
   94SAPE  H10S 9302   5.094   0.466   5.714 -0.3641  0.9068 -1.1605
   94SAPE  C211 9303   4.909   0.384   5.651 -0.2302 -0.4441  0.4190
   94SAPE  H11R 9304   4.848   0.304   5.695  1.4180 -1.8907  0.1450
   94SAPE  C212 9305   4.898   0.421   5.523 -0.1646  0.4033 -0.2377
   94SAPE  H12R 9306   4.821   0.366   5.466  0.7632 -0.8074 -0.3526
   94SAPE  C213 9307   4.969   0.530   5.443 -0.0734 -0.0486  0.5288
   94SAPE  H13R 9308   5.024   0.477   5.363 -2.4919 -0.2846 -1.0642
   94SAPE  H13S 9309   5.045   0.573   5.513 -0.1273 -1.0683  1.2404
   94SAPE  C214 9310   4.895   0.660   5.401  0.3346  0.1957  0.0932
   94SAPE  H14R 9311   4.860   0.732   5.475 -0.5476  0.7315 -0.8216
   94SAPE  C215 9312   4.849   0.679   5.277  0.1030 -0.5795 -0.3191
   94SAPE  H15R 9313   4.781   0.765   5.261 -1.0807 -1.5821 -0.8064
   94SAPE  C216 9314   4.863   0.593   5.155  0.4434 -0.1006  0.0312
   94SAPE  H16R 9315   4.783   0.607   5.079 -0.1396 -0.0466  0.6415
   94SAPE  H16S 9316   4.865   0.488   5.191  0.4921 -0.5513 -1.2264
   94SAPE  C217 9317   4.992   0.631   5.083 -0.4468  0.5698  0.0729
   94SAPE  H17R 9318   4.999   0.549   5.008  1.3858  0.0311  0.7859
   94SAPE  H17S 9319   5.077   0.632   5.154  0.4728 -0.1290 -0.9866
   94SAPE  C218 9320   4.976   0.762   5.000 -0.7582 -0.3956 -0.2667
   94SAPE  H18R 9321   5.004   0.849   5.063  1.5930 -0.8023 -0.6432
   94SAPE  H18S 9322   4.867   0.775   4.981 -0.3414  2.0424 -1.3557
   94SAPE  C219 9323   5.048   0.755   4.868  0.1338 -0.0598  0.7825
   94SAPE  H19R 9324   5.031   0.855   4.823  3.4085  1.1812  1.9691
   94SAPE  H19S 9325   4.985   0.682   4.813  0.8054 -0.5004  0.5772
   94SAPE  C220 9326   5.200   0.725   4.867  0.5503  0.3036 -0.0528
   94SAPE  H20R 9327   5.250   0.751   4.963  0.9965  1.1944 -0.5093
   94SAPE  H20S 9328   5.254   0.778   4.785  2.3786  1.9664  2.0970
   94SAPE  H20T 9329   5.217   0.617   4.845 -0.3495  0.3088 -0.8345
   94SAPE   C33 9330   5.785   0.446   6.360  0.0072  0.1110 -0.2818
   94SAPE   H3X 9331   5.675   0.461   6.348 -0.2369 -0.3298  1.2747
   94SAPE   H3Y 9332   5.800   0.340   6.330 -2.6510  0.0326 -1.6849
   94SAPE   C34 9333   5.873   0.540   6.270  0.0934  0.4667  0.5906
   94SAPE   H4X 9334   5.978   0.535   6.305 -0.4520  0.4189  2.2836
   94SAPE   H4Y 9335   5.824   0.639   6.258 -2.5324 -1.0392 -3.0164
   94SAPE   C35 9336   5.869   0.476   6.130  0.7418  0.2610  0.1097
   94SAPE   H5X 9337   5.763   0.471   6.097  0.2984  0.0943  1.4995
   94SAPE   H5Y 9338   5.902   0.370   6.125  2.1758  0.7529 -2.8455
   94SAPE   C36 9339   5.944   0.542   6.013  0.8821 -0.0197 -0.3174
   94SAPE   H6X 9340   6.052   0.541   6.040  0.6112  0.5760  0.8554
   94SAPE   H6Y 9341   5.914   0.647   5.993 -0.7759 -0.7045 -1.7187
   94SAPE   C37 9342   5.927   0.478   5.874  0.2617 -0.4927  1.6560
   94SAPE   H7X 9343   5.974   0.546   5.801  1.0629 -1.3846  1.3271
   94SAPE   H7Y 9344   5.816   0.476   5.867  0.3323  0.4293 -0.5806
   94SAPE   C38 9345   5.969   0.328   5.850 -0.6874  0.2581 -0.5587
   94SAPE   H8X 9346   5.890   0.269   5.901 -1.6808  0.3298 -1.9920
   94SAPE   H8Y 9347   6.069   0.316   5.897 -0.7146 -1.4859 -0.8838
   94SAPE   C39 9348   5.962   0.278   5.709 -0.9182  0.4041  0.0360
   94SAPE   H9X 9349   5.989   0.170   5.706 -0.9903  0.4040 -0.5712
   94SAPE   H9Y 9350   6.052   0.316   5.657 -0.1171 -1.8547 -0.3580
   94SAPE  C310 9351   5.833   0.311   5.642  0.4598 -0.2441 -0.2947
   94SAPE  H10X 9352   5.835   0.421   5.623 -0.2404 -0.6066 -2.9213
   94SAPE  H10Y 9353   5.734   0.305   5.691  0.3117  0.2143 -0.5271
   94SAPE  C311 9354   5.816   0.236   5.510 -0.7529 -0.4363  0.1385
   94SAPE  H11X 9355   5.910   0.245   5.452 -1.6172 -1.9493 -1.5995
   94SAPE  H11Y 9356   5.731   0.274   5.450 -0.3222 -0.2215 -0.3406
   94SAPE  C312 9357   5.787   0.090   5.532  0.2118 -0.0471  0.3285
   94SAPE  H12X 9358   5.687   0.074   5.577  0.2794 -1.0811  0.1366
   94SAPE  H12Y 9359   5.847   0.044   5.613 -1.3493 -2.2041  0.3200
   94SAPE  C313 9360   5.784   0.014   5.404 -0.7778 -0.3759 -0.6448
   94SAPE  H13X 9361   5.765  -0.093   5.430  0.0087  0.2877  3.3411
   94SAPE  H13Y 9362   5.885   0.025   5.358  0.4492  1.0229  2.1626
   94SAPE  C314 9363   5.674   0.045   5.302 -0.4714  0.3569  0.1071
   94SAPE  H14X 9364   5.706   0.135   5.244  0.4279 -1.2762 -2.0501
   94SAPE  H14Y 9365   5.576   0.042   5.354  0.2428 -0.3701  1.4475
   94SAPE  C315 9366   5.676  -0.054   5.184  0.2033  0.2872 -0.0493
   94SAPE  H15X 9367   5.686  -0.157   5.224  1.0309  0.3615 -0.0500
   94SAPE  H15Y 9368   5.766  -0.041   5.120 -0.0059  1.8059 -0.0710
   94SAPE  C316 9369   5.556  -0.032   5.088 -0.1344 -0.2543  0.2977
   94SAPE  H16X 9370   5.555   0.077   5.066 -2.5103  0.0185  1.4556
   94SAPE  H16Y 9371   5.459  -0.060   5.134  1.5674 -5.0953  1.6026
   94SAPE  C317 9372   5.552  -0.117   4.958  0.6336  0.1595 -0.1321
   94SAPE  H17X 9373   5.549  -0.222   4.993  0.8978 -0.0140 -0.6223
   94SAPE  H17Y 9374   5.643  -0.106   4.894  0.8695  3.0820  0.5774
   94SAPE  C318 9375   5.434  -0.079   4.868 -0.5362 -0.6291 -0.1758
   94SAPE  H18X 9376   5.340  -0.057   4.924  0.5675  1.4993  0.9845
   94SAPE  H18Y 9377   5.415  -0.156   4.791 -0.2913  0.1763 -1.0566
   94SAPE  H18Z 9378   5.453   0.022   4.826  1.6109 -0.9976 -0.2050
   95SAPE     N 9379   1.812   4.421   6.910  0.0138 -0.0669  0.1060
   95SAPE   HN1 9380   1.862   4.396   6.823  0.3938  1.3555 -0.1103
   95SAPE   HN2 9381   1.878   4.413   6.990  0.0011 -3.4779 -0.1044
   95SAPE   HN3 9382   1.738   4.351   6.927  0.1796 -0.2060  0.2555
   95SAPE   C12 9383   1.748   4.558   6.912 -0.0200 -0.3511  0.2842
   95SAPE  H12A 9384   1.689   4.577   7.004 -1.4987 -0.5008 -0.6110
   95SAPE  H12B 9385   1.673   4.566   6.831  0.5105 -0.1489 -0.1976
   95SAPE   C11 9386   1.855   4.671   6.884  0.8564 -0.9999 -0.1027
   95SAPE  H11A 9387   1.895   4.656   6.781 -3.7697  1.9716 -2.7275
   95SAPE  H11B 9388   1.939   4.671   6.956 -0.2222 -0.1181  1.1942
   95SAPE     P 9389   1.832   4.941   6.851  0.2635  0.4147 -0.3538
   95SAPE   O13 9390   1.718   5.034   6.861 -0.2786  0.2798 -0.1079
   95SAPE   O14 9391   1.954   4.974   6.935  0.1031 -0.8857 -0.5390
   95SAPE   O12 9392   1.784   4.794   6.897  0.0530 -0.1272 -0.7208
   95SAPE   O11 9393   1.861   4.920   6.699  0.6260 -0.6514 -0.1648
   95SAPE    C1 9394   1.770   4.856   6.618  0.0976 -0.3824 -0.7301
   95SAPE    HA 9395   1.780   4.746   6.631  1.8730 -0.1298  0.2523
   95SAPE    HB 9396   1.667   4.882   6.651  0.6518  0.0449  0.7048
   95SAPE    C2 9397   1.799   4.885   6.473 -0.4215 -0.4544 -0.6114
   95SAPE    HS 9398   1.903   4.852   6.454  0.1036  0.3873  0.6818
   95SAPE   O21 9399   1.783   5.024   6.463  0.1115  0.2195  0.2375
   95SAPE   C21 9400   1.865   5.091   6.382  1.1337  0.5092  0.7266
   95SAPE   O22 9401   1.963   5.048   6.323  0.1296  0.8139 -0.4206
   95SAPE   C22 9402   1.811   5.231   6.377  0.8666  0.0625  0.0120
   95SAPE   H2R 9403   1.730   5.231   6.301  2.4152  1.3305 -1.7629
   95SAPE   H2S 9404   1.770   5.261   6.475 -0.7314  1.6411 -1.0643
   95SAPE    C3 9405   1.713   4.812   6.367  0.6984  0.6065  0.9136
   95SAPE    HX 9406   1.607   4.844   6.377  0.1937 -0.7917  0.3683
   95SAPE    HY 9407   1.717   4.703   6.392 -2.1658 -0.1399 -1.2486
   95SAPE   O31 9408   1.761   4.819   6.233  0.0621  0.1750  0.4737
   95SAPE   C31 9409   1.698   4.904   6.151 -0.5189 -0.3507 -0.1941
   95SAPE   O32 9410   1.626   5.002   6.184 -0.4492  0.0399 -0.9257
   95SAPE   C32 9411   1.739   4.865   6.006 -0.0315 -0.3727  0.0845
   95SAPE   H2X 9412   1.695   4.769   5.971  2.4665 -1.2603 -0.8824
   95SAPE   H2Y 9413   1.849   4.852   6.012  0.1253  0.6846 -0.3187
   95SAPE   C23 9414   1.907   5.335   6.322  0.1506 -0.0876  0.0525
   95SAPE   H3R 9415   1.942   5.300   6.223  0.6533  1.6620 -0.4210
   95SAPE   H3S 9416   1.998   5.346   6.386  1.0419 -0.4117 -1.1266
   95SAPE   C24 9417   1.842   5.480   6.314  0.2137 -0.0738  0.1596
   95SAPE   H4R 9418   1.928   5.550   6.309  0.3341 -0.2407 -0.1383
   95SAPE   H4S 9419   1.792   5.499   6.411 -2.0322  0.6668 -1.0690
   95SAPE   C25 9420   1.740   5.496   6.201 -0.6387  0.2962 -0.3110
   95SAPE   H5R 9421   1.634   5.499   6.232 -0.3989 -1.1669  0.7070
   95SAPE   C26 9422   1.777   5.522   6.072  0.2324  0.2589 -0.3161
   95SAPE   H6R 9423   1.703   5.539   5.992 -2.5204 -0.3165  1.9314
   95SAPE   C27 9424   1.921   5.526   6.025 -0.5312 -1.5995 -0.9730
   95SAPE   H7R 9425   1.989   5.546   6.111 -0.6546 -1.5901 -0.8770
   95SAPE   H7S 9426   1.933   5.616   5.961 -0.2213 -0.3824  0.7126
   95SAPE   C28 9427   1.943   5.389   5.966  0.1412 -0.6048  0.5659
   95SAPE   H8R 9428   1.899   5.304   6.020 -1.7403  0.3421  0.5749
   95SAPE   C29 9429   1.998   5.360   5.840 -0.3420  1.0172 -0.4413
   95SAPE   H9R 9430   2.012   5.253   5.817 -0.5636  0.1527  2.8221
   95SAPE  C210 9431   2.059   5.452   5.738  0.2986 -0.1809 -0.3046
   95SAPE  H10R 9432   2.139   5.401   5.680 -1.2166 -0.8861 -1.8848
   95SAPE  H10S 9433   2.096   5.539   5.796 -1.4170 -0.4368  1.2567
   95SAPE  C211 9434   1.955   5.490   5.635  0.1256 -0.2067  0.0384
   95SAPE  H11R 9435   1.855   5.515   5.673 -0.8066 -1.5006 -1.4522
   95SAPE  C212 9436   1.986   5.521   5.501 -0.3449  0.4468 -0.3495
   95SAPE  H12R 9437   1.906   5.540   5.428 -1.1628 -2.2031 -0.2380
   95SAPE  C213 9438   2.118   5.507   5.434  0.4165  0.0481  0.3288
   95SAPE  H13R 9439   2.204   5.544   5.494  0.1153  1.6919 -0.2036
   95SAPE  H13S 9440   2.102   5.586   5.358  0.6497 -0.9444 -0.7798
   95SAPE  C214 9441   2.151   5.376   5.364  0.0118 -0.4022  0.5431
   95SAPE  H14R 9442   2.161   5.292   5.435 -0.6961 -2.3229 -1.4966
   95SAPE  C215 9443   2.165   5.349   5.232 -0.0570 -0.3228 -0.1963
   95SAPE  H15R 9444   2.179   5.244   5.206 -3.2782 -0.3573 -2.2468
   95SAPE  C216 9445   2.139   5.437   5.116  0.2623  0.1424  0.3519
   95SAPE  H16R 9446   2.234   5.470   5.068  0.5241  1.3071  1.6018
   95SAPE  H16S 9447   2.087   5.530   5.149  1.0264 -0.0268  2.1510
   95SAPE  C217 9448   2.062   5.344   5.017 -0.2044 -0.4301  0.6429
   95SAPE  H17R 9449   1.968   5.307   5.063  0.1246  0.9881  2.5989
   95SAPE  H17S 9450   2.129   5.259   4.990  0.6065 -0.0415  1.3917
   95SAPE  C218 9451   2.018   5.422   4.894  1.3792 -0.3271  0.1308
   95SAPE  H18R 9452   2.101   5.471   4.838  0.0619  0.4546 -1.2048
   95SAPE  H18S 9453   1.945   5.500   4.926  0.2324 -1.0397 -0.6954
   95SAPE  C219 9454   1.953   5.332   4.784  0.1068  0.3855  0.2324
   95SAPE  H19R 9455   2.033   5.269   4.741 -0.9500 -0.5844 -0.3734
   95SAPE  H19S 9456   1.911   5.393   4.701 -2.2194 -1.6823 -0.2193
   95SAPE  C220 9457   1.836   5.244   4.826 -0.7336 -0.0133  0.0219
   95SAPE  H20R 9458   1.872   5.150   4.872 -1.0111 -0.1586 -0.0565
   95SAPE  H20S 9459   1.773   5.215   4.739 -1.7519 -0.5820  0.9244
   95SAPE  H20T 9460   1.767   5.301   4.893  0.6953 -0.2652  1.7589
   95SAPE   C33 9461   1.740   4.983   5.900 -0.1115 -0.2083  0.2912
   95SAPE   H3X 9462   1.780   5.073   5.953 -0.2898 -0.1369  0.3071
   95SAPE   H3Y 9463   1.638   5.010   5.866 -0.3249  1.7676  2.2362
   95SAPE   C34 9464   1.822   4.967   5.769  0.4061 -0.0710 -0.3554
   95SAPE   H4X 9465   1.796   4.872   5.716 -1.0337 -1.9954  3.4478
   95SAPE   H4Y 9466   1.932   4.984   5.775  0.4492 -0.6985  0.8997
   95SAPE   C35 9467   1.778   5.081   5.665 -0.2830 -0.2518 -0.5907
   95SAPE   H5X 9468   1.793   5.173   5.726 -0.3240  0.2587 -1.3333
   95SAPE   H5Y 9469   1.673   5.064   5.634 -0.1834  2.0294 -2.4812
   95SAPE   C36 9470   1.849   5.096   5.536 -0.2366  0.7677  0.7717
   95SAPE   H6X 9471   1.959   5.110   5.550 -0.2677  1.6715  0.2031
   95SAPE   H6Y 9472   1.813   5.194   5.498  0.3169  0.7240  0.0986
   95SAPE   C37 9473   1.802   4.988   5.430  0.1929  0.4892  0.1432
   95SAPE   H7X 9474   1.702   5.019   5.392  0.1605 -0.3864 -0.5124
   95SAPE   H7Y 9475   1.783   4.891   5.481 -1.2105 -0.0129 -1.2229
   95SAPE   C38 9476   1.899   4.970   5.307  0.2481 -0.3468 -0.1966
   95SAPE   H8X 9477   1.994   4.923   5.340  0.4388  1.0852  1.4599
   95SAPE   H8Y 9478   1.912   5.075   5.275 -2.6605 -0.2361 -1.2646
   95SAPE   C39 9479   1.839   4.896   5.187  0.5405 -0.7052 -0.5018
   95SAPE   H9X 9480   1.749   4.950   5.149  0.3687  0.3107  1.2197
   95SAPE   H9Y 9481   1.804   4.794   5.212 -2.7577 -0.0993 -2.0565
   95SAPE  C310 9482   1.939   4.898   5.078  0.4505  0.6964  0.1301
   95SAPE  H10X 9483   2.044   4.887   5.111 -0.1528  1.0649  2.2871
   95SAPE  H10Y 9484   1.940   5.003   5.041 -0.0847  0.9254  0.7692
   95SAPE  C311 9485   1.906   4.793   4.967 -0.0069  0.2912  0.4176
   95SAPE  H11X 9486   1.804   4.807   4.926  0.5633  0.2149 -1.0883
   95SAPE  H11Y 9487   1.904   4.687   5.000 -0.5640 -0.4255 -1.7409
   95SAPE  C312 9488   1.996   4.811   4.846  0.0725 -0.0980  0.3616
   95SAPE  H12X 9489   2.098   4.794   4.886 -0.6255 -3.8987  0.9031
   95SAPE  H12Y 9490   1.995   4.914   4.803  2.8985 -0.8849 -1.8970
   95SAPE  C313 9491   1.946   4.710   4.732 -0.3490  0.1247 -0.7757
   95SAPE  H13X 9492   1.847   4.753   4.708  0.7654  3.8630  0.6314
   95SAPE  H13Y 9493   1.937   4.607   4.771 -0.0369 -0.2537 -1.6705
   95SAPE  C314 9494   2.038   4.704   4.608  0.0837 -0.2427 -0.2253
   95SAPE  H14X 9495   2.009   4.634   4.527  1.7788  0.4895 -1.5239
   95SAPE  H14Y 9496   2.137   4.671   4.645 -0.1711 -0.8153 -0.0525
   95SAPE  C315 9497   2.054   4.837   4.541 -0.7712  0.0416 -0.0570
   95SAPE  H15X 9498   2.076   4.919   4.613  1.7734  0.1757 -0.8846
   95SAPE  H15Y 9499   1.956   4.854   4.490 -0.8631 -1.2411 -0.3360
   95SAPE  C316 9500   2.153   4.857   4.421  0.3541  0.2132 -0.0340
   95SAPE  H16X 9501   2.150   4.770   4.352 -1.6595  1.2612 -1.3526
   95SAPE  H16Y 9502   2.252   4.842   4.469  0.1480 -0.4643  0.1924
   95SAPE  C317 9503   2.146   4.999   4.363 -0.0282  0.1565 -1.1645
   95SAPE  H17X 9504   2.148   5.066   4.452  0.7814  0.0866 -1.1230
   95SAPE  H17Y 9505   2.055   5.025   4.306 -0.8025 -0.4827 -0.2490
   95SAPE  C318 9506   2.267   5.042   4.276 -0.4263 -0.7482 -0.0401
   95SAPE  H18X 9507   2.359   5.055   4.337 -1.5894 -0.3014  1.7139
   95SAPE  H18Y 9508   2.243   5.139   4.228 -1.3347 -1.3013 -0.7460
   95SAPE  H18Z 9509   2.292   4.965   4.200  0.3496 -1.2971  0.7542
   96SAPE     N 9510   5.279   0.939   6.808 -0.0125 -0.3590  0.5634
   96SAPE   HN1 9511   5.234   0.920   6.900 -2.1428  0.7198 -0.2019
   96SAPE   HN2 9512   5.306   0.847   6.768 -1.1366 -1.0666  1.3660
   96SAPE   HN3 9513   5.372   0.984   6.816  0.2420 -0.5925 -0.8840
   96SAPE   C12 9514   5.190   1.024   6.725  0.6449 -0.1108  0.4649
   96SAPE  H12A 9515   5.229   1.007   6.622 -0.4412  1.1544 -0.1909
   96SAPE  H12B 9516   5.209   1.129   6.757 -0.3452  0.9158 -1.9963
   96SAPE   C11 9517   5.040   0.991   6.745  0.0268 -0.0218 -0.0720
   96SAPE  H11A 9518   5.019   0.886   6.716 -0.4498 -0.5127  1.8796
   96SAPE  H11B 9519   4.972   1.049   6.678  0.0480  2.0073  1.5492
   96SAPE     P 9520   4.922   1.152   6.918 -0.1225  0.2391 -0.2933
   96SAPE   O13 9521   4.859   1.139   7.045  0.1661  0.2998  0.9355
   96SAPE   O14 9522   5.017   1.266   6.906 -0.3261  0.2248 -0.6816
   96SAPE   O12 9523   4.997   1.022   6.886 -0.5389 -0.2575  0.4334
   96SAPE   O11 9524   4.817   1.155   6.795  0.0035  0.1720  0.1624
   96SAPE    C1 9525   4.734   1.272   6.777  0.1581  0.0665 -0.0788
   96SAPE    HA 9526   4.751   1.348   6.855 -0.5748 -0.3777  0.5212
   96SAPE    HB 9527   4.769   1.323   6.685  1.9639  0.5448  0.8313
   96SAPE    C2 9528   4.581   1.247   6.755  0.1475  0.7679 -0.4797
   96SAPE    HS 9529   4.551   1.181   6.840  0.7644 -0.0853 -0.9061
   96SAPE   O21 9530   4.554   1.164   6.640 -0.2785  0.1070  0.3603
   96SAPE   C21 9531   4.442   1.112   6.623 -0.1131 -0.3151  0.4888
   96SAPE   O22 9532   4.347   1.120   6.700 -0.2364  0.4133 -0.0136
   96SAPE   C22 9533   4.442   1.019   6.498  0.4305  0.6364  0.3287
   96SAPE   H2R 9534   4.550   1.012   6.473  1.6170  2.2154  4.2737
   96SAPE   H2S 9535   4.405   0.922   6.538  1.6194 -0.1760 -0.4762
   96SAPE    C3 9536   4.492   1.376   6.751  0.7465  0.5242 -0.7164
   96SAPE    HX 9537   4.494   1.424   6.851  0.3906 -1.3640  0.2478
   96SAPE    HY 9538   4.389   1.339   6.737  1.8814 -3.0644 -0.6604
   96SAPE   O31 9539   4.530   1.463   6.645  0.0606 -0.9609 -0.0431
   96SAPE   C31 9540   4.440   1.523   6.565  0.2823  0.3107 -0.3435
   96SAPE   O32 9541   4.321   1.520   6.592  0.4231  0.3181  0.0406
   96SAPE   C32 9542   4.509   1.586   6.447  0.2421 -1.0261 -0.4194
   96SAPE   H2X 9543   4.615   1.552   6.440  1.0914  1.6410 -2.2424
   96SAPE   H2Y 9544   4.530   1.688   6.487 -0.4948 -0.6569 -0.9556
   96SAPE   C23 9545   4.352   1.070   6.391 -0.5095  0.0280  0.1930
   96SAPE   H3R 9546   4.253   1.087   6.438 -1.2824 -3.5699  0.1442
   96SAPE   H3S 9547   4.330   1.008   6.301  3.3234 -1.4908  0.1166
   96SAPE   C24 9548   4.394   1.212   6.330 -0.1798 -0.3322  0.3597
   96SAPE   H4R 9549   4.394   1.284   6.414  2.4216  2.1954 -1.6249
   96SAPE   H4S 9550   4.315   1.246   6.259 -0.1407 -1.3267 -0.1807
   96SAPE   C25 9551   4.540   1.216   6.277  0.1107  0.2843 -0.1735
   96SAPE   H5R 9552   4.610   1.165   6.345 -2.8346 -2.5484  1.0303
   96SAPE   C26 9553   4.582   1.265   6.152 -0.1776  0.1281 -0.0567
   96SAPE   H6R 9554   4.687   1.247   6.125 -0.6463 -1.2756 -1.0829
   96SAPE   C27 9555   4.486   1.329   6.054  0.3092  0.2595 -0.0969
   96SAPE   H7R 9556   4.524   1.427   6.017 -0.4280 -0.8152 -4.2080
   96SAPE   H7S 9557   4.392   1.350   6.110  0.9824  1.4203  0.6396
   96SAPE   C28 9558   4.435   1.248   5.938  0.0760  0.2498  0.0475
   96SAPE   H8R 9559   4.452   1.142   5.959  0.9950  0.5300  0.7897
   96SAPE   C29 9560   4.394   1.287   5.816  0.1148  0.8257  0.1670
   96SAPE   H9R 9561   4.384   1.202   5.747 -0.2237 -0.7066  2.0214
   96SAPE  C210 9562   4.365   1.419   5.753  0.2951 -0.2869  0.1274
   96SAPE  H10R 9563   4.446   1.423   5.678  1.4803 -2.6045  1.1605
   96SAPE  H10S 9564   4.372   1.509   5.818 -0.8328  0.7509 -1.1267
   96SAPE  C211 9565   4.231   1.418   5.696 -0.6789  0.5021 -0.5545
   96SAPE  H11R 9566   4.156   1.456   5.767  0.4148 -0.6544  1.2779
   96SAPE  C212 9567   4.195   1.371   5.576 -0.1635  0.5588 -0.1134
   96SAPE  H12R 9568   4.097   1.389   5.529  0.2187  0.5583 -0.9166
   96SAPE  C213 9569   4.286   1.305   5.481 -0.2373 -0.3168 -0.7484
   96SAPE  H13R 9570   4.386   1.290   5.527 -0.1043  2.5947  0.1273
   96SAPE  H13S 9571   4.301   1.384   5.405 -1.0832 -0.0446 -0.6477
   96SAPE  C214 9572   4.233   1.179   5.427 -0.3950 -0.5694 -0.0178
   96SAPE  H14R 9573   4.203   1.103   5.501 -0.8969 -0.8833 -0.5360
   96SAPE  C215 9574   4.191   1.163   5.300 -0.2096 -0.1673 -0.6691
   96SAPE  H15R 9575   4.166   1.058   5.281  0.5371 -0.5375  0.3639
   96SAPE  C216 9576   4.201   1.256   5.182  0.2411 -0.1869  0.4544
   96SAPE  H16R 9577   4.280   1.214   5.117 -0.8235  0.4477 -1.3259
   96SAPE  H16S 9578   4.236   1.357   5.214  1.3139 -0.2966 -0.3283
   96SAPE  C217 9579   4.064   1.268   5.100  0.1033  0.2032 -0.2394
   96SAPE  H17R 9580   4.076   1.354   5.030  1.6185  1.1275  1.0881
   96SAPE  H17S 9581   3.983   1.286   5.175  0.1952 -3.1253  0.7928
   96SAPE  C218 9582   4.020   1.137   5.030 -0.6827 -0.1345  0.4121
   96SAPE  H18R 9583   3.926   1.147   4.972 -1.1626  0.1773  1.2200
   96SAPE  H18S 9584   3.996   1.057   5.104 -2.7182 -0.9145 -0.9998
   96SAPE  C219 9585   4.125   1.083   4.928 -0.2249  0.2291  0.3246
   96SAPE  H19R 9586   4.083   0.987   4.893 -1.1100  0.5856  0.3767
   96SAPE  H19S 9587   4.218   1.064   4.987  0.6437  1.5387 -0.5593
   96SAPE  C220 9588   4.151   1.168   4.802 -0.0644  0.2910 -0.0593
   96SAPE  H20R 9589   4.057   1.200   4.753  0.4154  2.1993  0.1827
   96SAPE  H20S 9590   4.216   1.114   4.729 -2.2904 -1.9005 -0.5392
   96SAPE  H20T 9591   4.198   1.267   4.820  0.2776  0.7799 -3.0989
   96SAPE   C33 9592   4.428   1.594   6.325  0.3370 -0.1764 -0.2205
   96SAPE   H3X 9593   4.340   1.528   6.337 -1.6349  2.5207  1.1936
   96SAPE   H3Y 9594   4.490   1.560   6.239  0.0262  1.0530 -0.9482
   96SAPE   C34 9595   4.379   1.739   6.305 -0.0068  1.0734 -0.0697
   96SAPE   H4X 9596   4.463   1.812   6.304  0.0927  0.9545 -0.6182
   96SAPE   H4Y 9597   4.308   1.770   6.385 -1.0740  1.9593 -1.3117
   96SAPE   C35 9598   4.305   1.756   6.170 -0.9117 -0.4416  0.8755
   96SAPE   H5X 9599   4.267   1.860   6.159  1.0290  0.0786 -2.3069
   96SAPE   H5Y 9600   4.219   1.686   6.160 -1.7051  0.6594 -0.3696
   96SAPE   C36 9601   4.401   1.740   6.046  0.8033  0.3021 -0.5605
   96SAPE   H6X 9602   4.418   1.633   6.022 -0.9047 -0.0596 -0.2737
   96SAPE   H6Y 9603   4.493   1.799   6.069  0.1457 -0.0189  3.5906
   96SAPE   C37 9604   4.336   1.786   5.922 -0.3690  0.1555  0.1213
   96SAPE   H7X 9605   4.309   1.894   5.932  1.2884  1.2046 -4.3234
   96SAPE   H7Y 9606   4.248   1.730   5.885  1.1491 -0.7030 -2.3934
   96SAPE   C38 9607   4.434   1.774   5.806 -0.2949  0.2706 -1.5132
   96SAPE   H8X 9608   4.489   1.678   5.797 -0.9221 -0.4016  1.0431
   96SAPE   H8Y 9609   4.526   1.834   5.823  1.2144 -2.2892 -0.1430
   96SAPE   C39 9610   4.364   1.793   5.680  0.1222 -0.7077 -0.4943
   96SAPE   H9X 9611   4.330   1.898   5.669 -0.4464 -0.9948 -1.7762
   96SAPE   H9Y 9612   4.277   1.725   5.668 -0.5663  0.1863 -0.7283
   96SAPE  C310 9613   4.447   1.752   5.561 -0.5004 -0.3002  0.2785
   96SAPE  H10X 9614   4.479   1.650   5.590 -2.6512 -0.7775  1.1612
   96SAPE  H10Y 9615   4.535   1.820   5.570 -0.3491 -0.6927  2.3655
   96SAPE  C311 9616   4.384   1.762   5.424  0.7620 -0.3863 -0.2417
   96SAPE  H11X 9617   4.362   1.869   5.404 -1.5174 -0.3864  1.7998
   96SAPE  H11Y 9618   4.287   1.708   5.422  1.0007 -1.0599  2.6122
   96SAPE  C312 9619   4.477   1.706   5.308  0.8618  0.1498 -0.5437
   96SAPE  H12X 9620   4.492   1.602   5.346 -2.1484 -0.2914 -0.2958
   96SAPE  H12Y 9621   4.570   1.765   5.321  0.9786 -0.2936  0.8286
   96SAPE  C313 9622   4.399   1.699   5.173 -0.1326 -0.3437 -0.2869
   96SAPE  H13X 9623   4.407   1.797   5.121  0.8577 -0.6474 -0.7087
   96SAPE  H13Y 9624   4.290   1.676   5.182  0.0277 -1.4409 -1.0136
   96SAPE  C314 9625   4.454   1.588   5.077 -0.2287  0.1617  0.5295
   96SAPE  H14X 9626   4.438   1.488   5.124 -2.4226 -0.0057 -0.4389
   96SAPE  H14Y 9627   4.562   1.607   5.062 -0.0469 -0.1152  1.4397
   96SAPE  C315 9628   4.382   1.577   4.953  0.6678  0.0810 -0.2150
   96SAPE  H15X 9629   4.324   1.670   4.937  0.3898 -0.0232  0.1692
   96SAPE  H15Y 9630   4.313   1.490   4.950 -0.3028  0.6889  2.0510
   96SAPE  C316 9631   4.476   1.570   4.824  0.6217 -0.9241  0.8264
   96SAPE  H16X 9632   4.531   1.476   4.847  0.8826 -0.5750  1.6630
   96SAPE  H16Y 9633   4.545   1.657   4.822  2.1663 -2.1136  0.8068
   96SAPE  C317 9634   4.410   1.563   4.687 -0.3081 -0.0744 -0.6465
   96SAPE  H17X 9635   4.365   1.663   4.668  1.6374  0.8360 -0.7094
   96SAPE  H17Y 9636   4.327   1.490   4.697 -0.4485  0.2955  1.1943
   96SAPE  C318 9637   4.490   1.531   4.555  0.7821  0.6418 -0.0056
   96SAPE  H18X 9638   4.565   1.613   4.547  0.4703  0.8032 -1.6489
   96SAPE  H18Y 9639   4.431   1.532   4.462 -0.2770 -3.1218  0.4899
   96SAPE  H18Z 9640   4.539   1.432   4.560  1.2456  0.9067  1.1103
   97SAPE     N 9641   3.820   3.418   6.716  0.2416 -0.1389 -0.2799
   97SAPE   HN1 9642   3.759   3.420   6.632  1.0706 -1.1611 -0.9295
   97SAPE   HN2 9643   3.890   3.495   6.709 -1.1099  1.1393 -0.3022
   97SAPE   HN3 9644   3.871   3.328   6.722 -0.8457 -0.7451  0.2012
   97SAPE   C12 9645   3.730   3.445   6.836  0.2741 -0.7520  0.7522
   97SAPE  H12A 9646   3.665   3.527   6.798  0.6224 -0.2300  1.2758
   97SAPE  H12B 9647   3.791   3.490   6.917  1.0836 -1.2573  0.4333
   97SAPE   C11 9648   3.657   3.315   6.879  0.0806  0.6256 -0.6931
   97SAPE  H11A 9649   3.576   3.294   6.806 -0.7049  1.3945 -0.0584
   97SAPE  H11B 9650   3.603   3.328   6.975  0.0597 -0.4240 -0.5441
   97SAPE     P 9651   3.725   3.059   6.882 -0.3146 -0.3868  0.5169
   97SAPE   O13 9652   3.849   2.993   6.829 -0.5322  0.0404 -0.0762
   97SAPE   O14 9653   3.672   2.996   7.001 -0.0599 -0.2435 -0.1928
   97SAPE   O12 9654   3.749   3.213   6.898  0.0852 -0.4026 -0.0515
   97SAPE   O11 9655   3.607   3.052   6.777  0.4361  0.1842  0.3120
   97SAPE    C1 9656   3.594   2.943   6.683 -0.1209 -0.5809 -0.0539
   97SAPE    HA 9657   3.686   2.881   6.675  1.8735  2.0311  1.0309
   97SAPE    HB 9658   3.511   2.880   6.722  0.2281 -0.6791  0.5483
   97SAPE    C2 9659   3.568   2.997   6.541  0.4681 -1.1400  0.1052
   97SAPE    HS 9660   3.648   3.065   6.504  0.1066 -1.3558 -1.1256
   97SAPE   O21 9661   3.440   3.069   6.551  0.2716  0.4010  0.0184
   97SAPE   C21 9662   3.414   3.156   6.462 -0.1418  0.1377 -0.1689
   97SAPE   O22 9663   3.493   3.207   6.386  0.3561  0.6646  0.8958
   97SAPE   C22 9664   3.261   3.194   6.473  0.2447 -0.8743  0.3075
   97SAPE   H2R 9665   3.194   3.106   6.481 -1.0150  0.1368  1.5041
   97SAPE   H2S 9666   3.251   3.234   6.577  4.0816 -0.4943  0.6806
   97SAPE    C3 9667   3.568   2.879   6.438 -0.5970 -0.1906 -0.0694
   97SAPE    HX 9668   3.497   2.799   6.465 -0.0504 -0.5009  0.4613
   97SAPE    HY 9669   3.671   2.837   6.442  0.6327  2.5071 -0.5127
   97SAPE   O31 9670   3.525   2.916   6.308  0.0004  0.0359 -0.3591
   97SAPE   C31 9671   3.613   2.960   6.218  0.0500  0.7774 -0.2068
   97SAPE   O32 9672   3.729   2.991   6.250  0.4236  0.2901 -0.2613
   97SAPE   C32 9673   3.561   2.978   6.075  0.3924  0.3836  0.4437
   97SAPE   H2X 9674   3.453   2.951   6.080  0.6517 -1.1651 -1.3661
   97SAPE   H2Y 9675   3.610   2.907   6.005  1.6729  2.1992 -0.5564
   97SAPE   C23 9676   3.204   3.298   6.371 -0.2116  0.2061 -0.0908
   97SAPE   H3R 9677   3.237   3.273   6.267 -1.7473 -1.8994 -0.1257
   97SAPE   H3S 9678   3.240   3.402   6.388  0.0364  0.3515 -1.3920
   97SAPE   C24 9679   3.051   3.294   6.382  0.3150 -0.1096  0.6165
   97SAPE   H4R 9680   3.027   3.316   6.489  0.9893  3.5163  0.1431
   97SAPE   H4S 9681   3.004   3.196   6.357 -0.7181  0.9523 -1.8439
   97SAPE   C25 9682   2.990   3.398   6.292 -0.5752 -0.7126 -0.1912
   97SAPE   H5R 9683   2.983   3.489   6.353  0.5607 -2.4274  2.7206
   97SAPE   C26 9684   2.948   3.391   6.167 -0.1236  0.0209  0.0483
   97SAPE   H6R 9685   2.926   3.485   6.114  0.3795  0.5688  0.7889
   97SAPE   C27 9686   2.946   3.267   6.079  0.2469  0.7876 -0.8487
   97SAPE   H7R 9687   2.858   3.288   6.014 -1.3154 -2.2971  0.0568
   97SAPE   H7S 9688   2.916   3.185   6.148  1.3874 -0.2934 -1.5991
   97SAPE   C28 9689   3.065   3.219   6.004 -0.7121 -0.3689 -0.2079
   97SAPE   H8R 9690   3.159   3.241   6.057 -0.7550  0.3343 -0.4046
   97SAPE   C29 9691   3.080   3.176   5.881  0.1130 -0.4301 -0.4685
   97SAPE   H9R 9692   3.183   3.145   5.858  0.5357  1.0536 -0.6826
   97SAPE  C210 9693   2.982   3.158   5.774 -0.0992  0.0675 -0.6946
   97SAPE  H10R 9694   2.991   3.249   5.710  1.0595 -0.0480 -0.7069
   97SAPE  H10S 9695   2.876   3.158   5.808 -0.2082 -1.4920 -0.9567
   97SAPE  C211 9696   3.003   3.025   5.711 -0.3581 -0.5890  0.5452
   97SAPE  H11R 9697   3.000   2.944   5.786 -1.9172  0.7950  2.0590
   97SAPE  C212 9698   3.027   3.001   5.582  0.3990 -0.5891  0.7602
   97SAPE  H12R 9699   3.036   2.897   5.546 -1.3939  0.5629 -3.6709
   97SAPE  C213 9700   3.022   3.100   5.465 -0.4826 -0.1157  0.0131
   97SAPE  H13R 9701   2.978   3.196   5.496  3.3759  2.0069 -0.4325
   97SAPE  H13S 9702   2.957   3.055   5.386 -0.2843  3.2008 -2.2265
   97SAPE  C214 9703   3.156   3.144   5.414  0.3372  0.1029 -0.5499
   97SAPE  H14R 9704   3.245   3.102   5.464 -0.0732 -0.2398 -0.1026
   97SAPE  C215 9705   3.178   3.193   5.290 -0.1764 -0.1935  0.1994
   97SAPE  H15R 9706   3.280   3.219   5.256 -0.2502 -1.9867 -1.5231
   97SAPE  C216 9707   3.074   3.233   5.182  0.4861 -0.1788  0.0200
   97SAPE  H16R 9708   3.103   3.331   5.139 -0.3374 -1.6776 -4.4298
   97SAPE  H16S 9709   2.973   3.247   5.225 -0.5919 -2.2934 -1.6343
   97SAPE  C217 9710   3.061   3.136   5.069 -0.0146  0.7054  0.6442
   97SAPE  H17R 9711   3.150   3.085   5.025 -0.2010  0.0954  0.9646
   97SAPE  H17S 9712   3.014   3.188   4.983 -2.1726 -0.2592  1.1921
   97SAPE  C218 9713   2.965   3.020   5.106  0.7299 -0.1316  0.4647
   97SAPE  H18R 9714   2.875   3.072   5.146  0.8742  1.9757 -1.7197
   97SAPE  H18S 9715   3.000   2.949   5.184  0.5648 -0.2566  0.4257
   97SAPE  C219 9716   2.935   2.946   4.973 -0.4337  0.5525 -0.0498
   97SAPE  H19R 9717   3.018   2.876   4.951  0.5198  1.8728 -0.7468
   97SAPE  H19S 9718   2.928   3.011   4.884  0.0923  0.0114 -0.4926
   97SAPE  C220 9719   2.809   2.861   4.995  0.3405 -0.3140  0.9203
   97SAPE  H20R 9720   2.717   2.921   4.982 -0.9290 -2.5043 -0.8638
   97SAPE  H20S 9721   2.785   2.820   5.095  0.3001 -1.1278  0.5800
   97SAPE  H20T 9722   2.810   2.781   4.919  0.4417  0.3985  0.1546
   97SAPE   C33 9723   3.572   3.122   6.022 -0.1025 -0.2902 -0.0276
   97SAPE   H3X 9724   3.676   3.160   6.015 -0.1085 -0.4096 -0.8494
   97SAPE   H3Y 9725   3.522   3.178   6.103  0.3715  1.4814 -0.9094
   97SAPE   C34 9726   3.488   3.131   5.897 -0.2739  0.3221 -0.3983
   97SAPE   H4X 9727   3.463   3.234   5.863 -2.6639 -0.2460 -0.5069
   97SAPE   H4Y 9728   3.386   3.090   5.910 -0.7090  1.3438 -0.4508
   97SAPE   C35 9729   3.565   3.073   5.769 -0.1889 -0.4259 -0.6214
   97SAPE   H5X 9730   3.591   2.965   5.776  1.8970  0.1028  0.5028
   97SAPE   H5Y 9731   3.661   3.125   5.754 -0.4699  0.0086 -0.9357
   97SAPE   C36 9732   3.499   3.099   5.640 -0.1326 -0.7686  0.1312
   97SAPE   H6X 9733   3.398   3.056   5.660 -0.4886 -0.2722 -0.5473
   97SAPE   H6Y 9734   3.538   3.043   5.552 -0.2228 -1.2793  0.4122
   97SAPE   C37 9735   3.471   3.245   5.591  0.5436  0.0361 -0.2591
   97SAPE   H7X 9736   3.439   3.296   5.684  1.1172 -1.9410  1.0797
   97SAPE   H7Y 9737   3.381   3.241   5.525  1.5582  0.6405 -1.7384
   97SAPE   C38 9738   3.587   3.314   5.521  0.3517  0.3147 -0.3148
   97SAPE   H8X 9739   3.682   3.268   5.557  0.2683  1.0594  0.8710
   97SAPE   H8Y 9740   3.576   3.419   5.554 -2.5503  0.0221 -0.1560
   97SAPE   C39 9741   3.583   3.304   5.371  0.2849  0.0679  0.1717
   97SAPE   H9X 9742   3.652   3.383   5.335  1.9503 -1.4929 -0.2498
   97SAPE   H9Y 9743   3.474   3.305   5.349 -0.0017 -0.2883  1.4619
   97SAPE  C310 9744   3.648   3.176   5.309  0.5042  0.0430 -0.5632
   97SAPE  H10X 9745   3.594   3.083   5.339  2.3329 -0.2953  2.0439
   97SAPE  H10Y 9746   3.752   3.173   5.347  0.2049  0.6849  0.3762
   97SAPE  C311 9747   3.661   3.184   5.154 -0.5936  0.1559  0.2707
   97SAPE  H11X 9748   3.697   3.088   5.112  1.6027  1.4539 -1.0622
   97SAPE  H11Y 9749   3.742   3.259   5.134  0.7954 -1.1233  0.8995
   97SAPE  C312 9750   3.535   3.214   5.078  0.5661 -1.1626  0.0087
   97SAPE  H12X 9751   3.490   3.313   5.099 -1.8139 -2.0814 -0.5129
   97SAPE  H12Y 9752   3.451   3.155   5.120 -0.1585  0.4069  0.7986
   97SAPE  C313 9753   3.533   3.185   4.930  0.3223  0.6820 -0.2021
   97SAPE  H13X 9754   3.540   3.076   4.907 -1.2668  0.3691  0.6165
   97SAPE  H13Y 9755   3.618   3.233   4.878  2.0011  0.5031  2.2031
   97SAPE  C314 9756   3.401   3.228   4.868  0.0817  0.0805  0.5742
   97SAPE  H14X 9757   3.382   3.337   4.881  0.2954  0.2383 -0.3916
   97SAPE  H14Y 9758   3.326   3.181   4.936  0.2383 -1.0314 -0.0055
   97SAPE  C315 9759   3.373   3.201   4.722 -0.1840 -0.3207  0.4558
   97SAPE  H15X 9760   3.404   3.098   4.694  2.5196  0.4928  0.0579
   97SAPE  H15Y 9761   3.446   3.263   4.664 -1.7156  0.1939 -1.0016
   97SAPE  C316 9762   3.236   3.241   4.680  0.3487 -0.2857 -0.2679
   97SAPE  H16X 9763   3.211   3.338   4.727  0.7288 -1.4195  2.5058
   97SAPE  H16Y 9764   3.155   3.170   4.708 -0.0677  0.6097  0.8959
   97SAPE  C317 9765   3.230   3.276   4.531  0.1485  0.3691  1.0383
   97SAPE  H17X 9766   3.131   3.291   4.482  0.3012 -1.6124  0.0216
   97SAPE  H17Y 9767   3.266   3.182   4.484 -2.2709  0.1669 -0.6243
   97SAPE  C318 9768   3.316   3.401   4.485  0.0725  1.0448  0.1994
   97SAPE  H18X 9769   3.299   3.425   4.378  0.8714 -0.9262 -0.4147
   97SAPE  H18Y 9770   3.425   3.390   4.506  0.3877  1.8529 -0.9007
   97SAPE  H18Z 9771   3.277   3.489   4.540  2.3538  1.1631  1.7581
   98SAPE     N 9772   4.777   3.280   6.950  0.0254  0.0985  0.0422
   98SAPE   HN1 9773   4.869   3.324   6.928  0.2732 -1.0414 -1.3078
   98SAPE   HN2 9774   4.728   3.283   6.859  0.1771  3.6894 -0.0774
   98SAPE   HN3 9775   4.723   3.344   7.012  0.0811 -2.0115  2.4284
   98SAPE   C12 9776   4.786   3.145   7.013 -0.4454  0.3788  0.1855
   98SAPE  H12A 9777   4.833   3.172   7.110  0.9109  0.5075 -0.4887
   98SAPE  H12B 9778   4.856   3.085   6.952 -1.1426 -1.7249  1.3548
   98SAPE   C11 9779   4.650   3.074   7.027 -0.1854 -0.2331  0.6685
   98SAPE  H11A 9780   4.578   3.136   7.084 -2.2014 -0.8435 -1.0877
   98SAPE  H11B 9781   4.655   2.972   7.072  1.8245 -1.5192 -2.1036
   98SAPE     P 9782   4.451   3.054   6.864 -0.0478  0.0766  0.0710
   98SAPE   O13 9783   4.405   2.930   6.932  0.1947  0.0920  0.2210
   98SAPE   O14 9784   4.381   3.178   6.903 -0.1115 -0.6068  0.4253
   98SAPE   O12 9785   4.603   3.063   6.897  0.2751  0.2530  0.9660
   98SAPE   O11 9786   4.449   3.041   6.711  0.8111  0.3703 -0.1756
   98SAPE    C1 9787   4.322   3.003   6.653 -0.2784  0.3461  0.4237
   98SAPE    HA 9788   4.290   2.903   6.689 -0.4603  0.6157  1.0129
   98SAPE    HB 9789   4.240   3.072   6.683 -0.7962 -0.2349  0.3802
   98SAPE    C2 9790   4.328   2.995   6.495 -0.2961 -0.0382  0.6984
   98SAPE    HS 9791   4.239   2.941   6.455  0.9044 -0.7298 -1.1302
   98SAPE   O21 9792   4.450   2.936   6.455 -0.4052  0.3388 -0.2904
   98SAPE   C21 9793   4.462   2.803   6.487 -0.1063  0.0180  0.5925
   98SAPE   O22 9794   4.369   2.736   6.524  0.0722  0.2192 -1.0046
   98SAPE   C22 9795   4.605   2.752   6.461  0.4013 -0.7492  0.1404
   98SAPE   H2R 9796   4.669   2.841   6.442 -0.7234 -0.1161 -0.8170
   98SAPE   H2S 9797   4.632   2.706   6.559 -1.2534 -0.2200  0.8659
   98SAPE    C3 9798   4.318   3.135   6.427 -0.5211 -1.0462  0.3667
   98SAPE    HX 9799   4.390   3.207   6.474 -1.4183  1.2220 -1.5277
   98SAPE    HY 9800   4.220   3.186   6.440  0.6363  2.0630 -1.7908
   98SAPE   O31 9801   4.361   3.127   6.285  0.0931 -0.2605 -0.0426
   98SAPE   C31 9802   4.272   3.060   6.205 -0.2569 -0.2617 -0.0815
   98SAPE   O32 9803   4.161   3.022   6.242  0.0160  0.0560 -0.2843
   98SAPE   C32 9804   4.328   3.029   6.067 -0.6423  1.1520 -0.5106
   98SAPE   H2X 9805   4.428   3.075   6.056 -1.0046  1.8682 -0.9034
   98SAPE   H2Y 9806   4.254   3.073   5.996 -0.6008  2.4047  0.1951
   98SAPE   C23 9807   4.614   2.650   6.345  0.5786 -0.3811 -0.3341
   98SAPE   H3R 9808   4.581   2.705   6.254 -0.3053  0.9396  0.7473
   98SAPE   H3S 9809   4.541   2.567   6.355 -0.2932  0.1378 -1.9287
   98SAPE   C24 9810   4.756   2.591   6.330 -0.5711  0.0230  0.2565
   98SAPE   H4R 9811   4.823   2.668   6.286 -0.8504  0.3277  0.3655
   98SAPE   H4S 9812   4.744   2.510   6.254 -0.7186 -1.0517  1.4015
   98SAPE   C25 9813   4.826   2.538   6.453  0.0448  0.0690  0.2644
   98SAPE   H5R 9814   4.823   2.601   6.544  1.2617 -1.5965  1.5160
   98SAPE   C26 9815   4.899   2.429   6.473  0.4126  0.6786 -0.4803
   98SAPE   H6R 9816   4.937   2.419   6.576  0.8459  1.6973 -0.5295
   98SAPE   C27 9817   4.935   2.335   6.356  0.4318 -0.4135 -0.5596
   98SAPE   H7R 9818   4.860   2.330   6.274  0.3729  1.5997 -0.6787
   98SAPE   H7S 9819   4.930   2.231   6.395 -0.5348 -0.4119 -0.6637
   98SAPE   C28 9820   5.078   2.344   6.308 -0.2246  0.2268  0.4404
   98SAPE   H8R 9821   5.144   2.282   6.371 -2.0523 -0.2790  1.9384
   98SAPE   C29 9822   5.120   2.435   6.216 -0.1009 -0.3389 -0.6312
   98SAPE   H9R 9823   5.228   2.453   6.204 -0.6432  2.1637 -2.5492
   98SAPE  C210 9824   5.042   2.538   6.144  0.0082  0.6768  0.1329
   98SAPE  H10R 9825   5.023   2.634   6.198  3.4425  2.4346 -1.4447
   98SAPE  H10S 9826   4.945   2.489   6.122  1.3071 -1.6378 -0.8054
   98SAPE  C211 9827   5.117   2.583   6.019 -0.1543  0.8510 -0.6437
   98SAPE  H11R 9828   5.227   2.572   6.023 -0.2231 -0.0166 -0.9618
   98SAPE  C212 9829   5.053   2.636   5.915  0.2405  1.1704  0.0724
   98SAPE  H12R 9830   5.103   2.685   5.830 -0.5187 -2.0773 -2.4206
   98SAPE  C213 9831   4.904   2.654   5.908 -0.6082  0.0043 -0.6910
   98SAPE  H13R 9832   4.844   2.666   6.000  0.7109  1.0490  0.0611
   98SAPE  H13S 9833   4.852   2.564   5.869 -1.9757  0.7653 -0.6624
   98SAPE  C214 9834   4.882   2.773   5.815  0.4091 -1.0511  0.1386
   98SAPE  H14R 9835   4.915   2.868   5.859  1.2107 -2.1623  2.0805
   98SAPE  C215 9836   4.841   2.767   5.684 -0.1328 -1.5563 -0.8833
   98SAPE  H15R 9837   4.815   2.860   5.631  0.2252 -0.6544  0.4842
   98SAPE  C216 9838   4.830   2.649   5.591  0.0844  0.0204  0.1736
   98SAPE  H16R 9839   4.731   2.650   5.540 -0.6415 -3.1848  1.3108
   98SAPE  H16S 9840   4.835   2.553   5.646  0.6892  0.6137  1.1782
   98SAPE  C217 9841   4.941   2.659   5.497 -0.3002 -0.1568 -0.6567
   98SAPE  H17R 9842   5.035   2.687   5.549 -0.9944 -0.8584  1.0447
   98SAPE  H17S 9843   4.918   2.729   5.413 -0.8904 -0.5926 -0.8613
   98SAPE  C218 9844   4.968   2.527   5.420 -0.2215  0.3704 -0.4944
   98SAPE  H18R 9845   4.971   2.442   5.491 -1.0729  0.6493 -0.1110
   98SAPE  H18S 9846   5.064   2.543   5.368  1.0895 -1.2550  1.2927
   98SAPE  C219 9847   4.854   2.495   5.324  0.3708 -0.8087 -0.2377
   98SAPE  H19R 9848   4.816   2.577   5.259 -0.0724 -0.4555  0.4478
   98SAPE  H19S 9849   4.761   2.472   5.381  1.0145 -1.7993  0.4253
   98SAPE  C220 9850   4.895   2.378   5.235  0.4338  0.2224 -0.0070
   98SAPE  H20R 9851   4.983   2.400   5.171  0.3034 -1.9541 -1.0469
   98SAPE  H20S 9852   4.807   2.341   5.178 -0.4120  3.0002 -0.6195
   98SAPE  H20T 9853   4.924   2.290   5.298 -1.4805 -0.3610  0.1139
   98SAPE   C33 9854   4.331   2.873   6.050  0.0536  0.6247  1.0160
   98SAPE   H3X 9855   4.230   2.834   6.076  0.6140 -0.5631  1.5000
   98SAPE   H3Y 9856   4.392   2.807   6.116 -3.5627 -2.6813  1.4106
   98SAPE   C34 9857   4.382   2.844   5.905 -0.1269 -0.4448 -0.2048
   98SAPE   H4X 9858   4.479   2.897   5.896  1.6446 -2.9833  2.2683
   98SAPE   H4Y 9859   4.309   2.886   5.832 -0.9847 -0.0870  0.8277
   98SAPE   C35 9860   4.419   2.694   5.866  0.1275 -0.6177 -0.3228
   98SAPE   H5X 9861   4.490   2.659   5.944  2.0583 -0.3881 -1.9048
   98SAPE   H5Y 9862   4.476   2.693   5.771 -1.2534 -2.5403 -1.1932
   98SAPE   C36 9863   4.296   2.605   5.849 -0.1296  0.0838  0.3678
   98SAPE   H6X 9864   4.228   2.635   5.767  1.4451 -0.5571 -1.2295
   98SAPE   H6Y 9865   4.240   2.622   5.943 -1.4813  2.1352 -0.7336
   98SAPE   C37 9866   4.323   2.456   5.838 -0.1440  0.2036 -0.5848
   98SAPE   H7X 9867   4.230   2.399   5.859  0.9409 -0.5482  2.7372
   98SAPE   H7Y 9868   4.402   2.419   5.908 -1.9096 -0.2066  1.2749
   98SAPE   C38 9869   4.376   2.405   5.698  1.0341  0.5499  0.3301
   98SAPE   H8X 9870   4.391   2.296   5.714 -1.4158  0.1822  0.5365
   98SAPE   H8Y 9871   4.466   2.462   5.667  0.4358  0.7788 -1.0850
   98SAPE   C39 9872   4.265   2.424   5.595  0.4950 -0.9520 -0.0169
   98SAPE   H9X 9873   4.255   2.529   5.560 -1.4656 -1.4851 -1.2554
   98SAPE   H9Y 9874   4.166   2.389   5.633 -0.5896 -1.5784 -3.1099
   98SAPE  C310 9875   4.283   2.353   5.458  0.3714 -0.2743 -0.2282
   98SAPE  H10X 9876   4.185   2.335   5.410  0.9032 -0.0104 -1.4598
   98SAPE  H10Y 9877   4.332   2.259   5.490 -1.8160 -2.2674 -2.3960
   98SAPE  C311 9878   4.375   2.436   5.370  0.1398 -0.1463  0.0858
   98SAPE  H11X 9879   4.478   2.437   5.411  0.0513 -1.5674  0.3852
   98SAPE  H11Y 9880   4.334   2.539   5.370 -3.1795 -1.3698 -0.0907
   98SAPE  C312 9881   4.386   2.385   5.228  0.7066 -0.4189  1.2170
   98SAPE  H12X 9882   4.467   2.441   5.176 -0.1606 -1.7030 -1.6650
   98SAPE  H12Y 9883   4.297   2.416   5.169  1.2813  1.1918  1.1310
   98SAPE  C313 9884   4.425   2.237   5.209 -0.1446  0.2005  0.3099
   98SAPE  H13X 9885   4.332   2.177   5.224 -1.5717  1.8444 -1.3486
   98SAPE  H13Y 9886   4.487   2.206   5.295 -0.2825  0.3084  0.4480
   98SAPE  C314 9887   4.506   2.204   5.077  0.2589  0.2958  0.0993
   98SAPE  H14X 9888   4.537   2.098   5.062  1.2606 -0.2369  4.4815
   98SAPE  H14Y 9889   4.596   2.268   5.062  1.5064 -1.3208  0.3349
   98SAPE  C315 9890   4.425   2.247   4.951 -0.7217  0.0954 -0.0493
   98SAPE  H15X 9891   4.373   2.342   4.974 -2.5160 -0.9162  0.3137
   98SAPE  H15Y 9892   4.338   2.177   4.951 -0.0225 -0.8035 -0.3138
   98SAPE  C316 9893   4.497   2.250   4.812 -0.3820 -0.0721 -0.2888
   98SAPE  H16X 9894   4.517   2.146   4.779 -0.5484 -0.3607  0.5019
   98SAPE  H16Y 9895   4.596   2.301   4.819  0.5056 -1.8732  1.1765
   98SAPE  C317 9896   4.408   2.322   4.705  0.0537  0.0279 -0.1778
   98SAPE  H17X 9897   4.386   2.420   4.753  2.2105 -0.9402  3.1217
   98SAPE  H17Y 9898   4.316   2.269   4.671  0.5100 -0.3911 -0.7847
   98SAPE  C318 9899   4.496   2.344   4.579  0.2238  0.4857  0.2735
   98SAPE  H18X 9900   4.505   2.244   4.531 -0.9573  0.2786  0.4299
   98SAPE  H18Y 9901   4.596   2.390   4.592 -0.0440  2.3899 -3.1840
   98SAPE  H18Z 9902   4.452   2.413   4.505 -0.4665 -2.4027 -2.2323
   99SAPE     N 9903   2.892   1.428   7.150 -0.0858  0.4012  0.2682
   99SAPE   HN1 9904   2.993   1.453   7.156 -0.2621  0.9394  1.2473
   99SAPE   HN2 9905   2.841   1.519   7.158  2.1886  2.0060 -1.7661
   99SAPE   HN3 9906   2.881   1.378   7.240  0.9810  0.5791  0.5079
   99SAPE   C12 9907   2.873   1.351   7.021 -0.1309  0.1614 -0.4727
   99SAPE  H12A 9908   2.780   1.291   7.032  0.3214 -0.3447  0.8294
   99SAPE  H12B 9909   2.951   1.272   7.011 -0.5972 -0.0728 -2.8001
   99SAPE   C11 9910   2.875   1.445   6.900 -0.0915 -0.8966 -0.0122
   99SAPE  H11A 9911   2.870   1.394   6.802  0.9678  0.5298 -0.8487
   99SAPE  H11B 9912   2.972   1.499   6.898 -1.5653  2.2474  2.3993
   99SAPE     P 9913   2.632   1.532   6.869  0.3966 -0.0237 -0.0039
   99SAPE   O13 9914   2.562   1.430   6.952  0.2631  0.3206  0.2682
   99SAPE   O14 9915   2.592   1.676   6.865 -0.6437 -0.7503  0.5223
   99SAPE   O12 9916   2.778   1.552   6.920 -0.2616  0.5113  0.2808
   99SAPE   O11 9917   2.651   1.479   6.716 -0.0707  0.2173  0.1398
   99SAPE    C1 9918   2.614   1.344   6.688  0.3102  0.4282 -0.3257
   99SAPE    HA 9919   2.646   1.272   6.767 -0.2599  1.2022  0.6314
   99SAPE    HB 9920   2.505   1.330   6.700  0.1309  1.2539 -0.9738
   99SAPE    C2 9921   2.650   1.294   6.543 -0.0645 -0.2836  0.6186
   99SAPE    HS 9922   2.759   1.275   6.540  0.2193  1.1469  1.0580
   99SAPE   O21 9923   2.616   1.398   6.446  0.0166  0.2775  0.1966
   99SAPE   C21 9924   2.702   1.499   6.424  0.1194 -0.8470 -0.2832
   99SAPE   O22 9925   2.811   1.506   6.473 -0.2262 -0.4246 -0.3379
   99SAPE   C22 9926   2.637   1.611   6.342 -0.0148 -0.1770 -0.3004
   99SAPE   H2R 9927   2.542   1.566   6.307 -0.9390 -0.0306  1.8931
   99SAPE   H2S 9928   2.605   1.693   6.410 -1.1740 -1.0522  0.2415
   99SAPE    C3 9929   2.578   1.161   6.520 -0.1292  0.2400 -0.7644
   99SAPE    HX 9930   2.468   1.166   6.535  0.1022 -0.1874  1.5397
   99SAPE    HY 9931   2.609   1.096   6.605  1.6728 -1.0260 -2.3070
   99SAPE   O31 9932   2.619   1.094   6.401  0.9394 -0.6310 -0.5583
   99SAPE   C31 9933   2.541   1.108   6.295  0.0575 -0.0951  0.0761
   99SAPE   O32 9934   2.442   1.178   6.283 -0.3617  0.3123 -0.2907
   99SAPE   C32 9935   2.613   1.022   6.182  0.1358  0.4730 -0.4093
   99SAPE   H2X 9936   2.600   0.916   6.213 -1.1017 -0.5155 -3.8691
   99SAPE   H2Y 9937   2.718   1.059   6.190  0.1650 -0.0250  2.9646
   99SAPE   C23 9938   2.723   1.674   6.232 -0.0521 -0.0873  0.5515
   99SAPE   H3R 9939   2.801   1.741   6.276  0.6276  0.7542 -1.7928
   99SAPE   H3S 9940   2.658   1.746   6.178 -2.4303 -1.8902  0.8635
   99SAPE   C24 9941   2.802   1.586   6.142 -0.1995  0.2542  0.1190
   99SAPE   H4R 9942   2.860   1.518   6.209 -0.2591 -0.3484 -0.4361
   99SAPE   H4S 9943   2.876   1.642   6.082 -0.1400  0.7572  0.6444
   99SAPE   C25 9944   2.710   1.502   6.059  0.2893  0.1308 -0.3413
   99SAPE   H5R 9945   2.630   1.447   6.110  0.4478 -1.1903 -1.4690
   99SAPE   C26 9946   2.715   1.480   5.922 -0.1453 -0.2855  0.2409
   99SAPE   H6R 9947   2.632   1.437   5.864  0.2923 -0.0448 -0.5865
   99SAPE   C27 9948   2.830   1.533   5.840  0.5609  0.2369 -0.0636
   99SAPE   H7R 9949   2.855   1.458   5.762  1.2171  1.2024 -0.8069
   99SAPE   H7S 9950   2.920   1.551   5.902  0.6978  0.1974 -0.2505
   99SAPE   C28 9951   2.800   1.665   5.772 -0.0004 -0.2081 -0.3200
   99SAPE   H8R 9952   2.761   1.741   5.841  0.5071  0.1653 -0.4318
   99SAPE   C29 9953   2.816   1.699   5.640  0.0495 -0.0662  0.1439
   99SAPE   H9R 9954   2.788   1.801   5.611 -0.4872 -0.6258 -1.4085
   99SAPE  C210 9955   2.876   1.607   5.526 -0.1424 -0.7009 -0.8267
   99SAPE  H10R 9956   2.817   1.513   5.527 -1.0246 -0.2307  2.3901
   99SAPE  H10S 9957   2.978   1.580   5.563  0.0374  1.2996  0.2889
   99SAPE  C211 9958   2.877   1.663   5.389  0.4829 -0.4262  0.5436
   99SAPE  H11R 9959   2.975   1.692   5.349  1.3880 -2.4437  1.1732
   99SAPE  C212 9960   2.770   1.664   5.304 -0.3205 -0.1847  0.1425
   99SAPE  H12R 9961   2.783   1.707   5.204 -1.1025  1.9049  0.8840
   99SAPE  C213 9962   2.627   1.614   5.336 -0.1717 -0.8037 -0.6352
   99SAPE  H13R 9963   2.553   1.696   5.333  1.2355  0.4927 -1.5646
   99SAPE  H13S 9964   2.629   1.594   5.445  0.4717  0.8084 -0.3213
   99SAPE  C214 9965   2.581   1.491   5.268  0.5397 -0.4398 -0.1865
   99SAPE  H14R 9966   2.599   1.393   5.315  4.0351 -0.5349 -1.4199
   99SAPE  C215 9967   2.514   1.487   5.151 -0.5703  0.2239  0.1054
   99SAPE  H15R 9968   2.489   1.390   5.106  1.2858  0.7467 -2.2394
   99SAPE  C216 9969   2.472   1.599   5.059  0.4083  0.2180 -0.3003
   99SAPE  H16R 9970   2.501   1.698   5.102  1.4202  0.7229 -2.0462
   99SAPE  H16S 9971   2.363   1.602   5.038  0.4187 -1.8466 -0.7643
   99SAPE  C217 9972   2.533   1.584   4.918 -0.4047  0.2606  0.7225
   99SAPE  H17R 9973   2.640   1.558   4.938 -0.3524  1.5619  2.4584
   99SAPE  H17S 9974   2.525   1.679   4.862  1.4859  0.3154  0.4546
   99SAPE  C218 9975   2.458   1.475   4.840  0.5927  0.1524  0.1766
   99SAPE  H18R 9976   2.441   1.384   4.901 -1.4080  1.0262  1.0253
   99SAPE  H18S 9977   2.524   1.453   4.753  1.7727 -0.7189  1.2660
   99SAPE  C219 9978   2.322   1.518   4.780 -0.5385  0.0783  0.2998
   99SAPE  H19R 9979   2.340   1.605   4.713 -0.7079 -1.2136 -1.5041
   99SAPE  H19S 9980   2.251   1.548   4.860 -0.3948 -0.0160  0.4645
   99SAPE  C220 9981   2.252   1.405   4.708  0.5771 -0.5649  0.1979
   99SAPE  H20R 9982   2.319   1.350   4.639 -1.8915 -1.6433 -1.4815
   99SAPE  H20S 9983   2.167   1.445   4.649  0.2989 -0.1878  0.8520
   99SAPE  H20T 9984   2.223   1.323   4.776  0.3498 -1.1978 -0.6548
   99SAPE   C33 9985   2.546   1.019   6.040 -0.3259 -0.6691  0.1019
   99SAPE   H3X 9986   2.438   0.995   6.051 -0.3773 -0.7060 -0.4523
   99SAPE   H3Y 9987   2.591   0.927   5.996 -1.4307 -1.7783  1.2085
   99SAPE   C34 9988   2.573   1.139   5.941  0.3059 -0.6894 -0.3962
   99SAPE   H4X 9989   2.677   1.170   5.963 -0.3459 -0.1757  2.3789
   99SAPE   H4Y 9990   2.495   1.217   5.959  0.5544  0.3579 -3.3629
   99SAPE   C35 9991   2.553   1.100   5.791 -0.1857  0.1484  0.6233
   99SAPE   H5X 9992   2.444   1.082   5.777  0.0817  0.7169 -3.2740
   99SAPE   H5Y 9993   2.603   1.002   5.779 -1.2447 -0.5091  1.3828
   99SAPE   C36 9994   2.593   1.209   5.691 -0.1518  0.5726 -0.0552
   99SAPE   H6X 9995   2.703   1.201   5.695 -0.1449  1.1401  2.6660
   99SAPE   H6Y 9996   2.554   1.304   5.734 -1.8312 -0.4100  0.7135
   99SAPE   C37 9997   2.566   1.175   5.546  0.9160 -0.1178 -0.1283
   99SAPE   H7X 9998   2.556   1.066   5.527 -1.5949 -0.0376  0.4507
   99SAPE   H7Y 9999   2.649   1.207   5.479  1.7766  0.0872  1.0124
   99SAPE   C3810000   2.429   1.245   5.499  0.0693  0.1861  0.5467
   99SAPE   H8X10001   2.431   1.355   5.485  1.0544 -0.0689 -2.0840
   99SAPE   H8Y10002   2.354   1.215   5.575 -0.4801 -0.1022 -0.0930
   99SAPE   C3910003   2.376   1.190   5.360  0.9842 -0.6254 -0.2643
   99SAPE   H9X10004   2.376   1.080   5.368 -0.3607 -0.5901  0.4656
   99SAPE   H9Y10005   2.441   1.223   5.276  0.2073 -0.6583 -0.8864
   99SAPE  C31010006   2.243   1.252   5.322 -0.0740  1.1728  0.2210
   99SAPE  H10X10007   2.249   1.357   5.288 -2.4303  1.8235  1.6403
   99SAPE  H10Y10008   2.169   1.246   5.404  0.5006 -1.6421  0.6570
   99SAPE  C31110009   2.210   1.187   5.183  0.2038  0.1521 -0.5567
   99SAPE  H11X10010   2.196   1.080   5.209  1.5041  0.4249  1.5202
   99SAPE  H11Y10011   2.291   1.200   5.109 -0.3599  1.1947 -1.0294
   99SAPE  C31210012   2.078   1.246   5.130  0.4940  0.0688  0.2576
   99SAPE  H12X10013   2.095   1.353   5.103  1.3402  0.2565  1.4785
   99SAPE  H12Y10014   1.997   1.243   5.205  1.4558  1.1692  1.3913
   99SAPE  C31310015   2.035   1.189   4.988  0.4586 -0.1347  0.4333
   99SAPE  H13X10016   2.003   1.083   4.999 -3.4936  0.8241 -0.1400
   99SAPE  H13Y10017   2.127   1.200   4.928  1.4407 -0.0907  1.9079
   99SAPE  C31410018   1.925   1.258   4.913 -0.7606 -0.7975 -0.2355
   99SAPE  H14X10019   1.947   1.366   4.902 -5.0162  0.3925  1.0798
   99SAPE  H14Y10020   1.830   1.259   4.969  0.4830  2.0306  2.1326
   99SAPE  C31510021   1.907   1.200   4.773  0.4110 -0.0365 -0.5847
   99SAPE  H15X10022   1.895   1.091   4.790  2.4718 -0.4876 -1.6554
   99SAPE  H15Y10023   2.002   1.205   4.716  0.7853  1.9130  0.1109
   99SAPE  C31610024   1.781   1.241   4.696  0.5759  0.4253 -0.6040
   99SAPE  H16X10025   1.687   1.213   4.747  1.3438 -1.2980 -0.0354
   99SAPE  H16Y10026   1.781   1.181   4.603 -0.1624  1.1216 -1.0570
   99SAPE  C31710027   1.766   1.389   4.664 -0.6331 -0.3693 -0.1368
   99SAPE  H17X10028   1.863   1.432   4.633 -1.4288 -0.7201 -3.4782
   99SAPE  H17Y10029   1.740   1.454   4.751  0.0641 -1.2945  0.7923
   99SAPE  C31810030   1.662   1.407   4.553  0.2940 -0.4529 -0.1358
   99SAPE  H18X10031   1.684   1.363   4.454 -0.6599 -1.5702  0.1301
   99SAPE  H18Y10032   1.644   1.516   4.539  1.3039 -0.4687 -1.7881
   99SAPE  H18Z10033   1.561   1.379   4.590  0.6154 -0.8439  0.4497
  100SAPE     N10034   6.953   3.533   6.859  0.3289 -1.1053  0.4774
  100SAPE   HN110035   6.860   3.523   6.903  0.8941 -0.4289  1.8943
  100SAPE   HN210036   6.955   3.610   6.789 -0.6951 -1.5184 -0.0237
  100SAPE   HN310037   6.979   3.443   6.813 -0.1107  0.6316 -3.6156
  100SAPE   C1210038   7.046   3.581   6.972 -0.3992 -0.1996  0.1550
  100SAPE  H12A10039   7.042   3.499   7.048 -2.4346 -2.1612 -1.8938
  100SAPE  H12B10040   6.998   3.667   7.023 -1.7939  0.6910 -2.5086
  100SAPE   C1110041   7.181   3.619   6.922 -0.5368  0.4082 -0.5763
  100SAPE  H11A10042   7.227   3.683   7.001  0.8541 -0.0121 -1.0184
  100SAPE  H11B10043   7.174   3.682   6.831  1.7028  1.7586  0.1026
  100SAPE     P10044   7.405   3.488   6.874 -0.3059  0.0047  0.0777
  100SAPE   O1310045   7.468   3.605   6.926 -0.6990 -0.3292  0.2175
  100SAPE   O1410046   7.447   3.355   6.933 -0.0413  0.0758 -0.4484
  100SAPE   O1210047   7.253   3.500   6.898 -0.0401  0.0182 -0.3741
  100SAPE   O1110048   7.419   3.490   6.719  0.1350 -0.4561  0.1769
  100SAPE    C110049   7.356   3.393   6.632  0.0228  0.8005  0.9733
  100SAPE    HA10050   7.351   3.291   6.675  0.6756 -0.0713 -0.9205
  100SAPE    HB10051   7.257   3.425   6.592  0.7029  1.6075 -0.1144
  100SAPE    C210052   7.451   3.357   6.518  0.2320  0.7027  0.6665
  100SAPE    HS10053   7.502   3.447   6.477  0.8098  0.5230  0.9829
  100SAPE   O2110054   7.386   3.298   6.405 -0.0611 -0.0890  0.8292
  100SAPE   C2110055   7.337   3.376   6.305  1.0232 -0.1576 -0.1154
  100SAPE   O2210056   7.351   3.496   6.296 -0.4705 -0.4177  0.2099
  100SAPE   C2210057   7.257   3.294   6.201 -0.4442 -0.7753 -1.4177
  100SAPE   H2R10058   7.302   3.192   6.198 -0.2050 -0.7542  0.1723
  100SAPE   H2S10059   7.157   3.277   6.245  0.4541 -0.1271  1.0596
  100SAPE    C310060   7.561   3.262   6.556 -0.2004  0.1199  0.0822
  100SAPE    HX10061   7.539   3.171   6.616 -0.1588 -0.9043 -1.3873
  100SAPE    HY10062   7.630   3.330   6.611 -0.2794 -1.0407  1.6929
  100SAPE   O3110063   7.636   3.224   6.443 -0.2749 -0.1262 -0.2867
  100SAPE   C3110064   7.616   3.106   6.393  0.5657  0.2975  0.7600
  100SAPE   O3210065   7.532   3.025   6.421 -0.5245  0.4313 -0.9087
  100SAPE   C3210066   7.717   3.084   6.278 -0.0750 -0.3134 -0.1099
  100SAPE   H2X10067   7.762   2.983   6.278 -0.0918 -0.3637 -2.4326
  100SAPE   H2Y10068   7.788   3.166   6.304 -2.0794  1.3291  0.5348
  100SAPE   C2310069   7.246   3.358   6.058 -0.5264 -0.2226 -0.2594
  100SAPE   H3R10070   7.196   3.286   5.990 -1.0772 -0.2821  0.2012
  100SAPE   H3S10071   7.343   3.395   6.018 -0.9791  0.8923 -0.3566
  100SAPE   C2410072   7.143   3.471   6.049  0.3599  0.3751 -0.4550
  100SAPE   H4R10073   7.164   3.539   6.134  1.7903 -1.2202  0.5342
  100SAPE   H4S10074   7.039   3.433   6.064  0.3799 -0.3727 -1.9952
  100SAPE   C2510075   7.168   3.551   5.925 -0.6887 -0.1276  0.3711
  100SAPE   H5R10076   7.270   3.590   5.915 -1.1790  0.8235 -1.5423
  100SAPE   C2610077   7.094   3.555   5.813 -0.0361  0.0457  0.1413
  100SAPE   H6R10078   7.123   3.627   5.734 -0.9006  2.9593  2.3179
  100SAPE   C2710079   6.959   3.483   5.806 -0.2221  0.5252  0.0101
  100SAPE   H7R10080   6.906   3.493   5.903 -2.2578  0.7857 -1.0684
  100SAPE   H7S10081   6.994   3.378   5.793  0.0618  0.4105  1.5998
  100SAPE   C2810082   6.863   3.535   5.700 -0.4056  0.0220 -1.1515
  100SAPE   H8R10083   6.848   3.643   5.687 -1.2221 -0.0440 -0.8612
  100SAPE   C2910084   6.792   3.452   5.621 -0.2046  0.4632 -0.2002
  100SAPE   H9R10085   6.715   3.509   5.567  0.0455 -0.5051 -1.6362
  100SAPE  C21010086   6.786   3.298   5.616  0.9732  0.4296 -0.7819
  100SAPE  H10R10087   6.869   3.248   5.669 -0.0113  0.8191  1.1953
  100SAPE  H10S10088   6.786   3.266   5.509  0.6411 -1.4921 -0.2464
  100SAPE  C21110089   6.659   3.235   5.671  0.1393 -0.3005  0.2696
  100SAPE  H11R10090   6.657   3.206   5.777 -1.0839  2.1731  1.0078
  100SAPE  C21210091   6.541   3.227   5.612 -1.1143  0.1697  0.1652
  100SAPE  H12R10092   6.459   3.174   5.662 -1.9360  0.8828 -0.4080
  100SAPE  C21310093   6.502   3.290   5.484  0.7930  0.4873  0.4643
  100SAPE  H13R10094   6.506   3.211   5.406  0.5163  0.2400  0.7016
  100SAPE  H13S10095   6.584   3.362   5.462  0.6707  0.1212 -1.3168
  100SAPE  C21410096   6.370   3.361   5.478 -0.1511  0.2886  0.1554
  100SAPE  H14R10097   6.326   3.397   5.573 -2.9039 -1.2791 -0.4051
  100SAPE  C21510098   6.291   3.373   5.370  0.5476  0.4262 -0.1432
  100SAPE  H15R10099   6.195   3.423   5.383 -0.9923 -2.3119 -0.1177
  100SAPE  C21610100   6.318   3.321   5.231  0.0264  0.7907  0.8008
  100SAPE  H16R10101   6.384   3.232   5.223 -0.8638  0.1697  0.1581
  100SAPE  H16S10102   6.358   3.407   5.174 -1.6786  0.7364 -0.5728
  100SAPE  C21710103   6.186   3.274   5.165  0.0415 -0.4323  0.3208
  100SAPE  H17R10104   6.113   3.358   5.160 -0.8977 -1.2884 -1.2522
  100SAPE  H17S10105   6.143   3.187   5.219 -2.5575 -0.9046 -2.2370
  100SAPE  C21810106   6.197   3.230   5.014 -0.8702  0.0098 -0.4033
  100SAPE  H18R10107   6.096   3.211   4.972 -1.3451 -1.3242  1.2027
  100SAPE  H18S10108   6.251   3.134   4.998 -2.0191 -0.7877  0.3618
  100SAPE  C21910109   6.252   3.344   4.928 -0.5708 -0.3902 -0.4300
  100SAPE  H19R10110   6.354   3.377   4.958 -0.4146 -0.1307 -1.2101
  100SAPE  H19S10111   6.181   3.429   4.940 -0.3348 -0.4242  1.5357
  100SAPE  C22010112   6.258   3.304   4.781 -0.0853 -0.3017  0.2265
  100SAPE  H20R10113   6.321   3.370   4.717  1.0294 -1.0703  0.4952
  100SAPE  H20S10114   6.162   3.306   4.724 -0.9222 -0.6731  1.5767
  100SAPE  H20T10115   6.302   3.202   4.779  1.1431  0.1626  1.6199
  100SAPE   C3310116   7.652   3.127   6.145 -0.1518 -0.2331 -0.4448
  100SAPE   H3X10117   7.609   3.229   6.151  1.5958  0.4225  2.6728
  100SAPE   H3Y10118   7.578   3.051   6.111  0.6170 -1.4766  0.5717
  100SAPE   C3410119   7.764   3.129   6.047 -0.2282 -0.2895  0.1830
  100SAPE   H4X10120   7.810   3.029   6.034 -0.8593 -0.7747  1.5088
  100SAPE   H4Y10121   7.844   3.201   6.074  2.2621 -2.5929 -0.5859
  100SAPE   C3510122   7.715   3.175   5.901 -0.5785 -0.2795 -0.2191
  100SAPE   H5X10123   7.802   3.225   5.853 -1.8425  1.4916 -0.7940
  100SAPE   H5Y10124   7.639   3.254   5.918 -2.4986 -2.3272  1.3019
  100SAPE   C3610125   7.661   3.064   5.816 -0.0038  0.6132 -1.1874
  100SAPE   H6X10126   7.595   3.004   5.882  1.3754  0.6558  0.2930
  100SAPE   H6Y10127   7.746   2.995   5.799  0.0858  0.8340 -1.6447
  100SAPE   C3710128   7.594   3.097   5.686 -0.0916 -0.1492  0.3698
  100SAPE   H7X10129   7.548   3.003   5.649 -1.4403  0.9168 -0.7882
  100SAPE   H7Y10130   7.669   3.120   5.608  1.5021 -2.0828  1.2548
  100SAPE   C3810131   7.490   3.209   5.684 -0.5605 -0.1129  0.4418
  100SAPE   H8X10132   7.523   3.303   5.733 -2.4271  0.1525  1.2540
  100SAPE   H8Y10133   7.402   3.187   5.747 -0.2986 -1.3510  0.4061
  100SAPE   C3910134   7.445   3.239   5.545 -0.5337 -0.3779  1.0090
  100SAPE   H9X10135   7.401   3.148   5.497 -0.8044  0.6671 -0.8090
  100SAPE   H9Y10136   7.526   3.287   5.486 -0.3063 -0.2697  1.4040
  100SAPE  C31010137   7.322   3.336   5.536 -0.0332  0.5513 -0.0768
  100SAPE  H10X10138   7.344   3.433   5.586 -1.6700  0.4547  0.9022
  100SAPE  H10Y10139   7.237   3.283   5.584 -1.8161  3.8248  0.7428
  100SAPE  C31110140   7.291   3.362   5.385  0.3768  0.0999 -0.2446
  100SAPE  H11X10141   7.279   3.266   5.331  1.9845 -0.3433  0.1528
  100SAPE  H11Y10142   7.385   3.410   5.350  0.4390 -0.7597 -1.3101
  100SAPE  C31210143   7.178   3.463   5.363  1.3575 -0.4918  0.8073
  100SAPE  H12X10144   7.207   3.557   5.415 -2.9035  0.9763  0.9194
  100SAPE  H12Y10145   7.089   3.422   5.416  0.3270  1.3201  0.5520
  100SAPE  C31310146   7.145   3.493   5.216  0.1828  0.4000 -0.4004
  100SAPE  H13X10147   7.232   3.517   5.151  0.9810 -2.0963 -0.3606
  100SAPE  H13Y10148   7.088   3.588   5.206 -0.0589  0.6317  2.3883
  100SAPE  C31410149   7.071   3.375   5.151 -0.0284  1.2590  0.2367
  100SAPE  H14X10150   7.132   3.283   5.168 -0.0765  0.8727 -1.4629
  100SAPE  H14Y10151   7.062   3.388   5.041 -1.4169 -0.8592  0.0346
  100SAPE  C31510152   6.927   3.349   5.209 -0.2764  0.2824 -0.2907
  100SAPE  H15X10153   6.885   3.447   5.241 -1.1285 -0.9275  2.6185
  100SAPE  H15Y10154   6.938   3.302   5.309 -4.0715  0.1269  0.2076
  100SAPE  C31610155   6.846   3.246   5.130 -0.7349 -0.2002 -0.1136
  100SAPE  H16X10156   6.910   3.159   5.102 -0.8151  0.3285 -2.0555
  100SAPE  H16Y10157   6.818   3.297   5.036 -1.5155  1.1073  0.7995
  100SAPE  C31710158   6.722   3.204   5.210  0.7212 -0.1864 -0.2374
  100SAPE  H17X10159   6.666   3.292   5.246 -1.7116 -1.0605 -1.6338
  100SAPE  H17Y10160   6.748   3.133   5.291 -0.6373 -1.8906 -1.2127
  100SAPE  C31810161   6.618   3.123   5.129  0.1577 -0.3947 -0.0923
  100SAPE  H18X10162   6.679   3.037   5.092  1.1568 -0.1154  0.8384
  100SAPE  H18Y10163   6.572   3.180   5.045 -1.8114  1.3598  2.0603
  100SAPE  H18Z10164   6.541   3.089   5.200  0.1737 -1.9034 -0.7530
  101SAPE     N10165   0.047   4.229   6.717 -0.7622  0.2560  0.2342
  101SAPE   HN110166  -0.021   4.221   6.638  0.4441 -1.1824 -0.6862
  101SAPE   HN210167   0.009   4.283   6.797  0.4668 -0.0992  1.0760
  101SAPE   HN310168   0.109   4.298   6.669 -2.4056 -0.0151 -2.5715
  101SAPE   C1210169   0.117   4.102   6.754  0.3677  0.5248  0.2994
  101SAPE  H12A10170   0.203   4.132   6.818 -0.6158  2.6458  0.7218
  101SAPE  H12B10171   0.154   4.051   6.662  0.9469 -0.6446  1.1552
  101SAPE   C1110172   0.012   4.009   6.808 -0.0095  0.7910 -0.9165
  101SAPE  H11A10173  -0.038   4.051   6.897 -0.7887  1.7195 -1.7657
  101SAPE  H11B10174   0.054   3.918   6.856 -2.1940  0.4750  0.5323
  101SAPE     P10175  -0.204   3.882   6.744 -0.6825  0.3129  0.2851
  101SAPE   O1310176  -0.214   3.875   6.888 -0.2581 -0.6598 -0.0335
  101SAPE   O1410177  -0.326   3.920   6.666 -0.2299 -0.0796 -0.3578
  101SAPE   O1210178  -0.086   3.979   6.706  0.3862 -0.0051  0.4608
  101SAPE   O1110179  -0.145   3.744   6.694  0.5244  0.2881  0.3671
  101SAPE    C110180  -0.045   3.728   6.591 -0.1970 -1.2604  0.7200
  101SAPE    HA10181   0.031   3.809   6.577 -0.9795 -0.9014 -2.0354
  101SAPE    HB10182   0.005   3.630   6.602 -1.2597 -1.9676 -0.5916
  101SAPE    C210183  -0.119   3.729   6.453 -0.8456  0.3874 -0.0056
  101SAPE    HS10184  -0.197   3.808   6.443 -1.5256  0.0116  1.8941
  101SAPE   O2110185  -0.169   3.597   6.430  0.5777  0.8519 -0.0036
  101SAPE   C2110186  -0.296   3.570   6.470 -0.6250 -0.3442  0.7615
  101SAPE   O2210187  -0.384   3.651   6.485  0.3235  0.1183  0.1102
  101SAPE   C2210188  -0.322   3.420   6.497  0.2972  0.6490 -1.2783
  101SAPE   H2R10189  -0.227   3.363   6.493 -0.5542 -1.0313  0.5344
  101SAPE   H2S10190  -0.358   3.413   6.602  2.6462  1.2312 -0.3661
  101SAPE    C310191  -0.012   3.757   6.345  0.7171  0.1248 -0.2230
  101SAPE    HX10192   0.066   3.678   6.341  2.9708  2.2821 -1.5082
  101SAPE    HY10193   0.041   3.852   6.368  0.7939 -0.0871  0.5024
  101SAPE   O3110194  -0.085   3.752   6.215 -0.1526 -0.2420  0.2769
  101SAPE   C3110195  -0.110   3.865   6.152  0.3985 -0.2089 -0.2942
  101SAPE   O3210196  -0.096   3.977   6.202  0.4549 -0.2462  0.0644
  101SAPE   C3210197  -0.153   3.838   5.996  0.5089 -0.1977 -0.5181
  101SAPE   H2X10198  -0.215   3.747   5.994  0.8559 -0.6627  3.2004
  101SAPE   H2Y10199  -0.054   3.817   5.950  1.4447  0.8163  0.9545
  101SAPE   C2310200  -0.416   3.349   6.402  0.2426  0.3780  0.1202
  101SAPE   H3R10201  -0.510   3.407   6.388 -0.7393 -1.5518 -1.8876
  101SAPE   H3S10202  -0.445   3.251   6.446  0.2069  0.7614  0.9779
  101SAPE   C2410203  -0.344   3.325   6.260  0.9709 -0.0737  0.0629
  101SAPE   H4R10204  -0.256   3.258   6.274  0.5172 -0.8613 -0.7451
  101SAPE   H4S10205  -0.321   3.425   6.217 -1.1285  1.0599  1.4195
  101SAPE   C2510206  -0.437   3.245   6.169 -0.3174  0.3388  0.0707
  101SAPE   H5R10207  -0.461   3.143   6.203  0.7619 -0.0590 -0.2963
  101SAPE   C2610208  -0.498   3.290   6.056 -0.7453 -0.0600  0.3975
  101SAPE   H6R10209  -0.559   3.222   5.995 -0.8341  1.3894 -1.1788
  101SAPE   C2710210  -0.467   3.421   5.989  0.4849 -0.5120  0.4265
  101SAPE   H7R10211  -0.509   3.420   5.886 -0.1454  4.0885  0.4654
  101SAPE   H7S10212  -0.356   3.425   5.978  0.3428  1.3906 -0.6747
  101SAPE   C2810213  -0.525   3.539   6.062  0.2011 -0.8435  0.1928
  101SAPE   H8R10214  -0.519   3.541   6.172  0.6573 -2.4377  0.2215
  101SAPE   C2910215  -0.561   3.661   6.008 -0.3297  0.5862  0.3457
  101SAPE   H9R10216  -0.611   3.733   6.074  0.8648  1.5959  0.1910
  101SAPE  C21010217  -0.542   3.688   5.859 -0.6892  0.1937 -0.5327
  101SAPE  H10R10218  -0.446   3.635   5.844 -0.7622  0.0429 -0.4737
  101SAPE  H10S10219  -0.518   3.792   5.826 -1.7727  0.6036 -0.0803
  101SAPE  C21110220  -0.631   3.642   5.749  0.4176 -0.3166  0.4692
  101SAPE  H11R10221  -0.692   3.553   5.771 -2.2150  1.4870  1.0501
  101SAPE  C21210222  -0.673   3.707   5.636 -0.0755 -1.0779  0.3742
  101SAPE  H12R10223  -0.728   3.653   5.557 -0.6831  1.5751 -1.1069
  101SAPE  C21310224  -0.631   3.845   5.590 -0.0835 -0.5250  0.5071
  101SAPE  H13R10225  -0.637   3.912   5.678 -0.6863  1.0029 -0.6581
  101SAPE  H13S10226  -0.717   3.879   5.528  1.5091  0.6903 -1.1380
  101SAPE  C21410227  -0.497   3.854   5.524  0.2270  0.3575  0.2186
  101SAPE  H14R10228  -0.411   3.834   5.589 -1.3583  1.4472  2.8183
  101SAPE  C21510229  -0.474   3.867   5.392 -0.4141  0.2786  0.0711
  101SAPE  H15R10230  -0.374   3.893   5.356  0.2020 -0.2514  1.3418
  101SAPE  C21610231  -0.567   3.883   5.278  0.4360 -0.5908  0.3039
  101SAPE  H16R10232  -0.596   3.986   5.249 -4.7571 -1.3904  1.6175
  101SAPE  H16S10233  -0.661   3.829   5.303  0.6102 -1.6144 -1.1156
  101SAPE  C21710234  -0.511   3.808   5.148  0.2758  0.1483 -0.2876
  101SAPE  H17R10235  -0.408   3.845   5.132  0.2523  0.6878  0.7778
  101SAPE  H17S10236  -0.567   3.830   5.054 -0.1440 -3.4476 -1.0181
  101SAPE  C21810237  -0.504   3.655   5.166 -0.8426  0.2739  0.2676
  101SAPE  H18R10238  -0.601   3.618   5.205 -1.4407  2.0178  0.5460
  101SAPE  H18S10239  -0.433   3.636   5.249 -1.0283 -1.0689  0.1378
  101SAPE  C21910240  -0.475   3.577   5.038 -0.4045  0.1031 -0.0273
  101SAPE  H19R10241  -0.477   3.469   5.062  1.5627  0.0718  0.1779
  101SAPE  H19S10242  -0.368   3.603   5.022 -0.4756  0.1702 -0.4042
  101SAPE  C22010243  -0.555   3.608   4.918 -0.2638 -0.2247  0.5345
  101SAPE  H20R10244  -0.553   3.716   4.892  0.0785 -0.0927  1.1023
  101SAPE  H20S10245  -0.660   3.598   4.954 -0.2596 -1.3289  0.2607
  101SAPE  H20T10246  -0.540   3.530   4.840 -1.0693 -0.9919  1.1254
  101SAPE   C3310247  -0.216   3.967   5.929  0.1391  0.0107 -0.0466
  101SAPE   H3X10248  -0.171   4.062   5.966  1.8575 -0.0217 -1.8333
  101SAPE   H3Y10249  -0.325   3.970   5.951  0.1794  0.5545  0.1063
  101SAPE   C3410250  -0.219   3.959   5.778 -0.4956  0.4139  0.1202
  101SAPE   H4X10251  -0.279   4.041   5.734 -1.8458  0.2457  1.5462
  101SAPE   H4Y10252  -0.285   3.880   5.735  0.2604 -0.9569  1.3909
  101SAPE   C3510253  -0.086   3.954   5.706  0.4849  0.0921  0.5284
  101SAPE   H5X10254  -0.021   3.865   5.718  0.0826 -0.4207 -0.8500
  101SAPE   H5Y10255  -0.026   4.039   5.746 -0.6316  1.0298  0.2831
  101SAPE   C3610256  -0.091   3.988   5.555 -0.2795 -0.5646 -0.1729
  101SAPE   H6X10257  -0.160   4.072   5.532  0.9192  0.1202 -1.4637
  101SAPE   H6Y10258  -0.136   3.900   5.504 -1.4855  0.1006 -0.2872
  101SAPE   C3710259   0.045   4.035   5.486  0.1966 -1.0013 -0.0297
  101SAPE   H7X10260   0.117   3.980   5.549 -2.1170 -3.0755  0.9744
  101SAPE   H7Y10261   0.058   4.145   5.496  0.5110 -1.0472  0.0756
  101SAPE   C3810262   0.054   3.997   5.338 -0.4958  0.1415 -0.8713
  101SAPE   H8X10263   0.018   3.892   5.345 -0.4094  0.2221  1.7737
  101SAPE   H8Y10264   0.159   4.003   5.301 -0.0860 -0.5169  0.1288
  101SAPE   C3910265  -0.033   4.078   5.240 -0.6389  0.2266  0.0131
  101SAPE   H9X10266  -0.007   4.185   5.254  2.0279 -0.5639  2.1028
  101SAPE   H9Y10267  -0.142   4.079   5.262 -0.3669 -1.2539  1.6740
  101SAPE  C31010268  -0.005   4.030   5.099 -0.2125 -0.4062 -0.2949
  101SAPE  H10X10269   0.083   3.963   5.089  0.7464  0.7222  0.2080
  101SAPE  H10Y10270   0.013   4.122   5.039  0.2077  0.9865  1.8572
  101SAPE  C31110271  -0.126   3.957   5.031 -0.3518  0.3363 -0.2773
  101SAPE  H11X10272  -0.224   4.009   5.041 -0.7680 -0.3221 -0.8753
  101SAPE  H11Y10273  -0.132   3.863   5.091  0.5926  1.2007  1.2503
  101SAPE  C31210274  -0.104   3.911   4.883  0.5080  0.2708  0.0501
  101SAPE  H12X10275   0.000   3.875   4.872  0.7164  1.2623 -1.5039
  101SAPE  H12Y10276  -0.119   3.997   4.814  2.0188  0.8556  0.4072
  101SAPE  C31310277  -0.203   3.796   4.841 -0.1736 -0.2202 -0.0153
  101SAPE  H13X10278  -0.303   3.844   4.843  0.3193  0.9759 -1.8909
  101SAPE  H13Y10279  -0.189   3.716   4.917 -1.6886  0.2161  0.7757
  101SAPE  C31410280  -0.185   3.737   4.699 -0.1601 -0.6240 -0.9100
  101SAPE  H14X10281  -0.192   3.825   4.631  2.1404  0.2602 -0.0988
  101SAPE  H14Y10282  -0.265   3.661   4.686 -0.1766 -1.0623  1.3872
  101SAPE  C31510283  -0.053   3.664   4.672  0.6120 -0.7584  0.2489
  101SAPE  H15X10284   0.028   3.741   4.668 -0.6730  0.6274 -0.2039
  101SAPE  H15Y10285  -0.052   3.625   4.568 -1.5828 -0.9346  0.2363
  101SAPE  C31610286   0.001   3.553   4.762  0.6009 -0.0992  0.5046
  101SAPE  H16X10287  -0.075   3.472   4.766  1.0785 -0.5739  0.0050
  101SAPE  H16Y10288   0.002   3.600   4.863 -1.7930  1.5928 -0.1470
  101SAPE  C31710289   0.145   3.499   4.724  0.1420 -0.1524 -0.7551
  101SAPE  H17X10290   0.206   3.588   4.696  0.0558 -0.0284 -0.5473
  101SAPE  H17Y10291   0.141   3.427   4.639  1.9286 -0.6483 -0.4750
  101SAPE  C31810292   0.197   3.428   4.848 -0.1496  0.0433 -0.0533
  101SAPE  H18X10293   0.305   3.409   4.827  0.2320  0.1841  1.6323
  101SAPE  H18Y10294   0.149   3.328   4.857  0.9204 -0.7291 -2.1482
  101SAPE  H18Z10295   0.187   3.497   4.934  0.0203 -0.6942  0.5658
  102SAPE     N10296   5.426   3.092   6.526  0.3092  0.3457 -0.1583
  102SAPE   HN110297   5.389   3.056   6.617  1.1479 -0.5074 -0.1346
  102SAPE   HN210298   5.453   3.190   6.547  0.4539 -0.0611  1.7495
  102SAPE   HN310299   5.349   3.094   6.456 -0.0599  2.7461  0.2530
  102SAPE   C1210300   5.533   3.005   6.471  1.0110  0.1085 -0.5533
  102SAPE  H12A10301   5.592   3.052   6.389  1.9629  0.9534  0.5943
  102SAPE  H12B10302   5.487   2.910   6.437 -0.1723  0.2979  0.4751
  102SAPE   C1110303   5.639   2.964   6.574  0.2112  0.0200  0.7840
  102SAPE  H11A10304   5.712   2.894   6.528  0.8766  0.4738  1.1426
  102SAPE  H11B10305   5.606   2.890   6.650  0.6604  0.5240  1.4757
  102SAPE     P10306   5.835   3.063   6.716  0.1393  0.2555 -0.0872
  102SAPE   O1310307   5.890   3.198   6.751  0.2758 -0.5668 -0.2323
  102SAPE   O1410308   5.793   2.980   6.829 -0.8838  0.1493  0.4432
  102SAPE   O1210309   5.713   3.075   6.619  0.5449  0.0218 -0.2954
  102SAPE   O1110310   5.937   2.987   6.631 -0.1720 -0.5900 -0.6262
  102SAPE    C110311   5.967   3.052   6.503 -0.3990  0.1857  0.6978
  102SAPE    HA10312   5.877   3.076   6.442  0.0646  0.5148  0.1232
  102SAPE    HB10313   6.028   3.142   6.526  0.0823 -0.2813  1.2913
  102SAPE    C210314   6.071   2.968   6.419  0.0166 -0.1836 -0.5802
  102SAPE    HS10315   6.158   2.940   6.482  0.3635 -1.3409 -1.5371
  102SAPE   O2110316   6.106   3.052   6.308  0.6670  0.5801 -0.3625
  102SAPE   C2110317   6.218   3.027   6.255  1.0118 -0.8081  0.0873
  102SAPE   O2210318   6.311   2.964   6.309  0.0487  0.3847  0.4050
  102SAPE   C2210319   6.218   3.083   6.115 -0.5265 -0.4755 -0.1847
  102SAPE   H2R10320   6.119   3.064   6.068 -0.3618 -1.3775 -0.1849
  102SAPE   H2S10321   6.240   3.191   6.117 -1.4763 -0.2710 -0.0228
  102SAPE    C310322   6.015   2.830   6.376 -0.3140  0.0212  0.1366
  102SAPE    HX10323   5.997   2.778   6.473 -0.5402 -0.2245 -0.0372
  102SAPE    HY10324   6.089   2.754   6.343 -0.9302 -1.5960  2.2338
  102SAPE   O3110325   5.894   2.835   6.299  0.0366  0.6481 -0.1324
  102SAPE   C3110326   5.925   2.829   6.163  0.5411  0.1102 -0.4667
  102SAPE   O3210327   6.033   2.793   6.121 -0.3799 -0.3261 -0.4656
  102SAPE   C3210328   5.799   2.861   6.087  0.2971  0.1985 -0.3991
  102SAPE   H2X10329   5.786   2.971   6.075  0.5684  0.1842 -0.8451
  102SAPE   H2Y10330   5.722   2.822   6.157  1.8266  0.3286  1.4429
  102SAPE   C2310331   6.324   3.026   6.029 -0.9091  0.2200  0.9489
  102SAPE   H3R10332   6.427   3.034   6.072  0.9970 -0.1191 -3.0907
  102SAPE   H3S10333   6.325   3.094   5.942 -1.3425  0.1953  0.9259
  102SAPE   C2410334   6.294   2.886   5.960  0.4033  0.5728  0.4801
  102SAPE   H4R10335   6.205   2.894   5.893  1.5993 -0.7766 -1.3916
  102SAPE   H4S10336   6.259   2.807   6.030  0.3924 -0.2976 -0.4720
  102SAPE   C2510337   6.418   2.832   5.882 -0.2096  0.9204 -0.4267
  102SAPE   H5R10338   6.506   2.831   5.948 -0.7663  0.0952  0.3245
  102SAPE   C2610339   6.438   2.799   5.747 -0.3541  0.0745 -0.2553
  102SAPE   H6R10340   6.532   2.761   5.704 -0.0931 -0.5435  0.8173
  102SAPE   C2710341   6.325   2.801   5.650  0.3315  0.6679 -0.8395
  102SAPE   H7R10342   6.222   2.800   5.691  0.0446  2.4138 -1.4268
  102SAPE   H7S10343   6.311   2.703   5.599  2.3693 -0.6082  0.8784
  102SAPE   C2810344   6.334   2.911   5.544  0.2861  0.0163 -0.2887
  102SAPE   H8R10345   6.342   3.008   5.596  2.6715 -0.6169  0.6603
  102SAPE   C2910346   6.353   2.912   5.415 -0.0285 -0.0744 -0.2671
  102SAPE   H9R10347   6.346   3.008   5.364 -1.2897 -0.1082 -0.1868
  102SAPE  C21010348   6.378   2.794   5.327 -0.5118  0.6712  0.6378
  102SAPE  H10R10349   6.300   2.786   5.248 -1.1779 -1.7758  1.4526
  102SAPE  H10S10350   6.386   2.698   5.383 -0.6273 -0.2119 -0.8137
  102SAPE  C21110351   6.502   2.805   5.242 -0.7597  0.7462 -0.2235
  102SAPE  H11R10352   6.580   2.850   5.305 -0.3594  2.7627 -2.0432
  102SAPE  C21210353   6.531   2.764   5.117  0.4576 -0.6610 -0.0355
  102SAPE  H12R10354   6.631   2.786   5.077 -0.5301  0.4766 -2.0440
  102SAPE  C21310355   6.443   2.702   5.020  0.1403  0.1740 -0.0187
  102SAPE  H13R10356   6.345   2.754   5.016 -1.0208 -1.9755 -0.8095
  102SAPE  H13S10357   6.407   2.602   5.053 -1.8138  0.8827  0.1379
  102SAPE  C21410358   6.488   2.674   4.876 -0.1216 -0.1311 -0.1281
  102SAPE  H14R10359   6.459   2.575   4.838 -2.7697  0.3286  0.4940
  102SAPE  C21510360   6.511   2.763   4.771  0.3410  0.1339  0.1117
  102SAPE  H15R10361   6.544   2.722   4.674 -1.5304  0.4193 -0.6748
  102SAPE  C21610362   6.547   2.907   4.775 -0.8700  0.6234 -0.5134
  102SAPE  H16R10363   6.532   2.947   4.877  0.4465 -0.3029  0.0697
  102SAPE  H16S10364   6.477   2.966   4.712 -3.1452 -0.6905  0.6506
  102SAPE  C21710365   6.698   2.927   4.741 -0.1515  0.2970 -0.4424
  102SAPE  H17R10366   6.724   2.913   4.634  0.3075  0.2418 -0.3230
  102SAPE  H17S10367   6.748   2.847   4.799 -1.6756 -0.9195 -0.7278
  102SAPE  C21810368   6.760   3.063   4.774  0.2651 -0.1775 -0.5549
  102SAPE  H18R10369   6.863   3.058   4.730  1.0992 -0.7195  1.3560
  102SAPE  H18S10370   6.777   3.086   4.881 -2.1661 -0.9856  0.0537
  102SAPE  C21910371   6.677   3.180   4.718  0.2643 -0.7832 -0.6170
  102SAPE  H19R10372   6.580   3.178   4.773  1.1626 -1.0196  1.0125
  102SAPE  H19S10373   6.647   3.169   4.612  0.3379 -2.3588 -0.4851
  102SAPE  C22010374   6.741   3.316   4.731 -0.1898  0.3431 -0.5217
  102SAPE  H20R10375   6.682   3.400   4.689 -2.0975 -0.8131 -0.2798
  102SAPE  H20S10376   6.844   3.312   4.687  0.1151  1.5299  0.0443
  102SAPE  H20T10377   6.748   3.332   4.840 -0.3728  1.7977 -0.6994
  102SAPE   C3310378   5.784   2.782   5.949  0.0909 -0.1935 -0.5423
  102SAPE   H3X10379   5.678   2.805   5.927  0.5406  0.2275 -2.4014
  102SAPE   H3Y10380   5.799   2.674   5.968  1.0249 -0.0299 -0.2882
  102SAPE   C3410381   5.874   2.835   5.837 -0.3884  0.2291  0.8426
  102SAPE   H4X10382   5.975   2.791   5.848 -0.2808  0.4302  0.6755
  102SAPE   H4Y10383   5.891   2.945   5.832  0.3164  0.1304 -3.7450
  102SAPE   C3510384   5.815   2.781   5.701  0.3450 -0.2326 -0.6970
  102SAPE   H5X10385   5.823   2.846   5.611 -0.5233  0.8772  0.0062
  102SAPE   H5Y10386   5.706   2.759   5.713  0.6913 -2.1295 -0.6764
  102SAPE   C3610387   5.878   2.645   5.662 -0.0936  0.0231  0.0113
  102SAPE   H6X10388   5.822   2.570   5.722 -0.6294  1.5136  1.4738
  102SAPE   H6Y10389   5.982   2.631   5.699 -0.1072 -0.5515 -0.1604
  102SAPE   C3710390   5.877   2.614   5.510 -0.9462  0.7196  0.0259
  102SAPE   H7X10391   5.931   2.517   5.502 -1.5497  0.2843  1.1304
  102SAPE   H7Y10392   5.932   2.693   5.453 -0.1019 -0.0582 -0.2614
  102SAPE   C3810393   5.736   2.581   5.453  0.0940 -0.2368  0.1872
  102SAPE   H8X10394   5.680   2.675   5.472 -1.8297 -1.1199 -0.8408
  102SAPE   H8Y10395   5.692   2.496   5.509 -0.7921 -0.5043 -0.8774
  102SAPE   C3910396   5.742   2.558   5.303  0.2201 -0.5020 -0.4600
  102SAPE   H9X10397   5.837   2.508   5.276  1.2667  0.8787  0.5314
  102SAPE   H9Y10398   5.754   2.660   5.260 -0.2565  0.3990  1.4335
  102SAPE  C31010399   5.621   2.494   5.232 -0.3064  0.3994 -0.4268
  102SAPE  H10X10400   5.591   2.398   5.280  1.8958  1.1169  2.6604
  102SAPE  H10Y10401   5.645   2.469   5.126 -0.3864  0.2697 -0.4140
  102SAPE  C31110402   5.499   2.584   5.222  0.2337  0.2114  0.0604
  102SAPE  H11X10403   5.529   2.682   5.181  0.8190 -0.8068 -2.1351
  102SAPE  H11Y10404   5.460   2.598   5.325  0.4966  0.0958  0.1770
  102SAPE  C31210405   5.395   2.520   5.123 -0.0909  0.5551  0.6442
  102SAPE  H12X10406   5.376   2.421   5.170  0.8010  0.8773  1.7266
  102SAPE  H12Y10407   5.451   2.495   5.030 -0.2706 -2.3523  1.2146
  102SAPE  C31310408   5.279   2.612   5.090 -0.1023 -0.0083 -0.1432
  102SAPE  H13X10409   5.325   2.710   5.066  2.5216 -0.6593  1.7323
  102SAPE  H13Y10410   5.220   2.606   5.184  0.6447 -0.1522  0.3276
  102SAPE  C31410411   5.178   2.563   4.989  0.0744 -0.2687  0.1056
  102SAPE  H14X10412   5.156   2.456   5.009  0.5875 -0.4917 -0.4852
  102SAPE  H14Y10413   5.210   2.566   4.883  0.7260  0.0501  0.3027
  102SAPE  C31510414   5.057   2.656   4.988 -1.1040 -0.4177 -0.4277
  102SAPE  H15X10415   5.083   2.759   4.956  1.0252 -1.2299 -1.4862
  102SAPE  H15Y10416   5.020   2.657   5.093 -0.6259 -0.2703 -0.2591
  102SAPE  C31610417   4.935   2.597   4.912 -0.3001 -0.5355 -0.4533
  102SAPE  H16X10418   4.846   2.655   4.946  0.9381  0.8682  0.5241
  102SAPE  H16Y10419   4.917   2.495   4.951  0.0897 -0.3996  0.1041
  102SAPE  C31710420   4.939   2.601   4.763 -0.4495 -0.1754  0.4276
  102SAPE  H17X10421   5.032   2.551   4.727  0.6492  1.3055  1.1100
  102SAPE  H17Y10422   4.960   2.705   4.732  0.1016 -0.6009 -0.7276
  102SAPE  C31810423   4.809   2.554   4.696  0.4993  0.0601 -0.9581
  102SAPE  H18X10424   4.739   2.638   4.675  1.4757  1.0120 -0.4499
  102SAPE  H18Y10425   4.762   2.483   4.768 -1.5692  0.9681 -1.3350
  102SAPE  H18Z10426   4.832   2.488   4.610  0.4162 -0.7661 -0.3651
  103SAPE     N10427   0.964   6.806   6.244 -0.3033  0.5880 -0.7218
  103SAPE   HN110428   0.941   6.872   6.322  0.5530 -0.8518  0.8009
  103SAPE   HN210429   0.930   6.850   6.156 -1.3219 -0.7178 -1.0098
  103SAPE   HN310430   0.902   6.724   6.259  1.1643 -0.5756 -0.9041
  103SAPE   C1210431   1.114   6.780   6.238  0.1605  0.3334 -0.5444
  103SAPE  H12A10432   1.128   6.718   6.329 -0.0292  0.2460 -0.5740
  103SAPE  H12B10433   1.170   6.876   6.246  1.8001 -0.5665 -0.8453
  103SAPE   C1110434   1.147   6.693   6.113  0.3463 -0.2471  0.4224
  103SAPE  H11A10435   1.104   6.741   6.023 -1.9087 -1.0174  1.0235
  103SAPE  H11B10436   1.089   6.599   6.128 -0.0780 -0.2130 -0.8988
  103SAPE     P10437   1.391   6.776   6.041  0.1832  0.2606  0.0051
  103SAPE   O1310438   1.315   6.892   5.994 -0.2257  1.3649 -0.5213
  103SAPE   O1410439   1.504   6.793   6.134  0.0140 -0.5599  0.5610
  103SAPE   O1210440   1.290   6.669   6.105  0.2532 -0.4627 -0.1147
  103SAPE   O1110441   1.453   6.710   5.908  0.1991 -0.2537  0.4866
  103SAPE    C110442   1.438   6.563   5.901  0.8334  0.3142 -0.6165
  103SAPE    HA10443   1.485   6.524   5.994 -1.8246 -0.5887  0.4466
  103SAPE    HB10444   1.334   6.524   5.901  0.1899  1.8551  1.3833
  103SAPE    C210445   1.524   6.505   5.777  0.2034 -0.2772  0.6796
  103SAPE    HS10446   1.499   6.399   5.756 -4.7486  0.7066  0.1701
  103SAPE   O2110447   1.663   6.526   5.798 -0.8051  0.7240 -0.8809
  103SAPE   C2110448   1.724   6.430   5.866  0.0182  1.2814 -0.0517
  103SAPE   O2210449   1.663   6.352   5.937 -0.5638 -0.2146 -0.3147
  103SAPE   C2210450   1.873   6.435   5.847 -0.1086 -0.5843 -0.7189
  103SAPE   H2R10451   1.894   6.449   5.739 -1.3739  1.0066 -0.7952
  103SAPE   H2S10452   1.922   6.524   5.894  0.6331 -0.1162 -2.3244
  103SAPE    C310453   1.489   6.581   5.646  0.1221  0.6896  0.2159
  103SAPE    HX10454   1.551   6.534   5.567 -0.7510  1.5597 -1.0150
  103SAPE    HY10455   1.510   6.688   5.663  1.0534  0.7473 -1.1771
  103SAPE   O3110456   1.353   6.558   5.610  0.5371  0.1591 -0.8214
  103SAPE   C3110457   1.272   6.665   5.582 -0.3111  0.7006 -0.0905
  103SAPE   O3210458   1.305   6.780   5.593  0.1250  0.4389  0.4460
  103SAPE   C3210459   1.134   6.612   5.549 -0.4169  0.5773 -0.0013
  103SAPE   H2X10460   1.070   6.695   5.587  0.7742  2.1599 -1.3007
  103SAPE   H2Y10461   1.122   6.519   5.609 -0.9436  0.8100  0.2681
  103SAPE   C2310462   1.950   6.315   5.890 -0.1278  0.3957  0.1756
  103SAPE   H3R10463   1.929   6.284   5.994  0.4195  0.0108  0.1767
  103SAPE   H3S10464   2.056   6.348   5.880 -0.4286  1.2623 -0.2907
  103SAPE   C2410465   1.931   6.199   5.790 -0.3718  0.1828 -0.2241
  103SAPE   H4R10466   1.946   6.251   5.693  0.2259  1.5266  0.5565
  103SAPE   H4S10467   1.825   6.166   5.789  0.3258 -2.3507  0.8795
  103SAPE   C2510468   2.024   6.091   5.830 -0.0534  0.1795  0.8851
  103SAPE   H5R10469   2.008   6.048   5.930  0.2604 -0.3538  0.7101
  103SAPE   C2610470   2.129   6.053   5.754 -0.8669  0.4980 -0.3631
  103SAPE   H6R10471   2.188   5.970   5.795 -1.4218 -0.1976 -0.9513
  103SAPE   C2710472   2.147   6.091   5.614 -0.5825  0.3303 -0.2171
  103SAPE   H7R10473   2.237   6.156   5.605  2.2116 -3.3706 -2.6613
  103SAPE   H7S10474   2.063   6.148   5.570 -0.6796 -0.5138 -1.1694
  103SAPE   C2810475   2.159   5.964   5.532 -0.2424 -0.1715  0.2358
  103SAPE   H8R10476   2.115   5.875   5.579 -1.2814  0.8728  1.3161
  103SAPE   C2910477   2.247   5.940   5.432 -0.0572 -0.3391 -0.6013
  103SAPE   H9R10478   2.256   5.838   5.392  3.7835 -0.0337 -0.8794
  103SAPE  C21010479   2.337   6.043   5.371 -0.3763  0.0718  0.5291
  103SAPE  H10R10480   2.383   6.106   5.450  0.5441 -1.0669  0.9272
  103SAPE  H10S10481   2.271   6.102   5.303  0.5251 -0.2935 -0.7134
  103SAPE  C21110482   2.448   5.992   5.287  0.2480 -0.3039 -0.0498
  103SAPE  H11R10483   2.543   5.974   5.338  0.4114  0.1053 -0.2111
  103SAPE  C21210484   2.446   5.960   5.159 -0.1089 -0.3298 -0.2847
  103SAPE  H12R10485   2.548   5.939   5.125 -0.6334 -0.1732 -2.0604
  103SAPE  C21310486   2.327   5.967   5.069 -0.5240  0.6310  0.8669
  103SAPE  H13R10487   2.357   5.985   4.963 -0.9095  2.7009  1.0770
  103SAPE  H13S10488   2.267   6.057   5.093  0.2472  1.6345 -0.7692
  103SAPE  C21410489   2.227   5.853   5.083  0.1999  0.4704 -0.5415
  103SAPE  H14R10490   2.241   5.800   5.178  0.7654  0.3530 -0.6864
  103SAPE  C21510491   2.135   5.809   4.994 -0.0891 -0.1177  0.2267
  103SAPE  H15R10492   2.059   5.735   5.021  0.4577 -0.2196  1.5461
  103SAPE  C21610493   2.097   5.876   4.862 -0.5550  1.0774  0.0700
  103SAPE  H16R10494   2.154   5.969   4.843  2.8348 -0.3672  2.1288
  103SAPE  H16S10495   1.990   5.905   4.866 -0.8083  0.2196 -0.3220
  103SAPE  C21710496   2.128   5.779   4.746 -0.1018 -0.0554 -0.8932
  103SAPE  H17R10497   2.063   5.820   4.665  2.6789  4.0720 -1.2932
  103SAPE  H17S10498   2.106   5.675   4.781 -0.6879  0.3009 -0.1846
  103SAPE  C21810499   2.274   5.793   4.705 -0.0090  0.1763 -0.7307
  103SAPE  H18R10500   2.328   5.756   4.796 -0.4134  2.2549  0.4208
  103SAPE  H18S10501   2.301   5.900   4.700 -1.3437  0.7059  1.5517
  103SAPE  C21910502   2.300   5.713   4.577 -0.9544 -0.2525 -0.3146
  103SAPE  H19R10503   2.264   5.763   4.485 -0.6178 -2.4910 -1.7336
  103SAPE  H19S10504   2.253   5.614   4.589  0.7890 -0.7680  4.1175
  103SAPE  C22010505   2.452   5.698   4.563 -0.3750  0.4454 -0.4250
  103SAPE  H20R10506   2.468   5.622   4.484 -1.5153 -1.6163  1.2006
  103SAPE  H20S10507   2.485   5.647   4.656  1.7039  2.4709  0.0367
  103SAPE  H20T10508   2.509   5.793   4.556  2.0092 -0.7185  1.5306
  103SAPE   C3310509   1.118   6.582   5.397 -0.6133 -0.1197  0.2856
  103SAPE   H3X10510   1.035   6.508   5.391  0.3544 -1.2393  0.3873
  103SAPE   H3Y10511   1.210   6.541   5.351  0.4559  2.0992  0.2845
  103SAPE   C3410512   1.085   6.714   5.324 -0.4739  0.8082 -0.5483
  103SAPE   H4X10513   1.171   6.769   5.281 -0.7830 -0.3442 -2.8015
  103SAPE   H4Y10514   1.011   6.772   5.383 -2.0095 -2.8163  1.4519
  103SAPE   C3510515   1.011   6.669   5.193 -0.1067  0.0483 -0.5607
  103SAPE   H5X10516   0.951   6.756   5.159  0.8154 -0.0281 -2.5461
  103SAPE   H5Y10517   0.928   6.602   5.224  0.6412  0.1464  1.8836
  103SAPE   C3610518   1.093   6.635   5.070  0.7172 -0.2657  0.2883
  103SAPE   H6X10519   1.186   6.577   5.089  1.0655  1.0124  2.9455
  103SAPE   H6Y10520   1.128   6.737   5.042  0.3624 -0.3521 -0.4821
  103SAPE   C3710521   1.002   6.579   4.953 -0.2688 -0.5268 -0.8212
  103SAPE   H7X10522   0.905   6.631   4.965 -1.2836 -2.4124 -0.5555
  103SAPE   H7Y10523   0.997   6.471   4.978 -2.1745  0.1728  2.3420
  103SAPE   C3810524   1.046   6.598   4.805  0.9462 -0.0242 -0.8159
  103SAPE   H8X10525   1.146   6.550   4.796  0.7628 -0.2736 -1.5623
  103SAPE   H8Y10526   1.051   6.705   4.775  1.9446 -0.1889 -1.2929
  103SAPE   C3910527   0.950   6.518   4.710  0.0258  0.4103 -0.2610
  103SAPE   H9X10528   0.849   6.561   4.696 -1.3009 -2.1127  0.7786
  103SAPE   H9Y10529   0.936   6.413   4.746  1.9022 -0.1136 -0.8973
  103SAPE  C31010530   0.998   6.494   4.564  0.1612 -0.2932  0.1152
  103SAPE  H10X10531   1.107   6.478   4.558  0.5357  1.7549  0.6754
  103SAPE  H10Y10532   0.978   6.591   4.513 -0.6381  0.2745  1.4517
  103SAPE  C31110533   0.921   6.372   4.505  0.2183 -0.5527 -0.4221
  103SAPE  H11X10534   0.815   6.404   4.507 -0.5220 -2.7323 -1.6074
  103SAPE  H11Y10535   0.925   6.280   4.566 -0.7705  1.3908  2.8376
  103SAPE  C31210536   0.968   6.334   4.360 -0.0732 -0.2764 -0.1713
  103SAPE  H12X10537   0.929   6.231   4.346  1.3641 -0.5973 -2.2903
  103SAPE  H12Y10538   1.079   6.330   4.355  0.0939  0.6715  1.8930
  103SAPE  C31310539   0.905   6.422   4.247 -0.0164 -0.1242  0.2850
  103SAPE  H13X10540   0.949   6.388   4.151 -1.9776  1.7910 -1.4063
  103SAPE  H13Y10541   0.924   6.531   4.260  2.0482 -0.0007 -2.7736
  103SAPE  C31410542   0.751   6.408   4.236 -0.3620 -0.4914  0.2751
  103SAPE  H14X10543   0.702   6.429   4.334 -1.4934  2.1569 -0.7674
  103SAPE  H14Y10544   0.725   6.307   4.199  0.0803 -0.6279  0.3312
  103SAPE  C31510545   0.692   6.499   4.129  0.3595 -0.8220 -0.1944
  103SAPE  H15X10546   0.585   6.469   4.117  0.2166 -1.3714  1.9939
  103SAPE  H15Y10547   0.749   6.466   4.040 -0.8536 -2.5682 -0.3705
  103SAPE  C31610548   0.696   6.652   4.143  1.0842 -0.2242 -0.1695
  103SAPE  H16X10549   0.652   6.706   4.057  2.7018 -0.6983 -1.3527
  103SAPE  H16Y10550   0.805   6.673   4.142  1.5113 -2.2174 -1.5570
  103SAPE  C31710551   0.643   6.690   4.282 -0.0614 -0.5436  0.5687
  103SAPE  H17X10552   0.693   6.643   4.370  1.8223 -0.6689 -0.5201
  103SAPE  H17Y10553   0.534   6.672   4.297 -0.4287  2.5813  2.7447
  103SAPE  C31810554   0.672   6.840   4.294  0.0155  0.2500 -0.0659
  103SAPE  H18X10555   0.621   6.877   4.385  2.5099  0.7017  1.2240
  103SAPE  H18Y10556   0.628   6.890   4.205  1.2950  0.7937 -0.4177
  103SAPE  H18Z10557   0.778   6.869   4.312 -0.3358  0.6535  1.4096
  104SAPE     N10558   1.430   1.092   2.119 -0.2960 -0.4548 -0.0540
  104SAPE   HN110559   1.344   1.054   2.165 -0.9481  0.6050 -0.3638
  104SAPE   HN210560   1.397   1.140   2.033  2.0070 -2.0468 -1.9489
  104SAPE   HN310561   1.496   1.015   2.096  0.7657  0.6518 -0.7865
  104SAPE   C1210562   1.498   1.184   2.216  0.2804  0.7919 -0.0750
  104SAPE  H12A10563   1.588   1.228   2.168 -0.3748  1.9708 -0.2766
  104SAPE  H12B10564   1.524   1.111   2.296 -1.1215 -0.3405 -0.6198
  104SAPE   C1110565   1.392   1.282   2.286  0.4200 -0.5105 -0.5287
  104SAPE  H11A10566   1.439   1.331   2.374  1.5900 -2.1344 -0.2122
  104SAPE  H11B10567   1.315   1.217   2.333  1.9147 -0.4105  2.2680
  104SAPE     P10568   1.228   1.480   2.213 -0.0966 -0.7666  0.4038
  104SAPE   O1310569   1.268   1.617   2.175 -0.2326  0.3655  0.6207
  104SAPE   O1410570   1.113   1.415   2.146 -0.2574  0.5820  0.2406
  104SAPE   O1210571   1.356   1.383   2.189 -0.1504 -0.5820  0.3807
  104SAPE   O1110572   1.211   1.481   2.364  0.0296  0.6019  0.1398
  104SAPE    C110573   1.093   1.520   2.427 -0.0792 -0.0042 -0.4399
  104SAPE    HA10574   1.077   1.629   2.412 -0.5949  0.0687  0.5716
  104SAPE    HB10575   1.003   1.479   2.378 -0.1118  1.4541 -1.6872
  104SAPE    C210576   1.100   1.468   2.577  0.1129  0.6253  0.5994
  104SAPE    HS10577   1.002   1.489   2.625 -0.5989  2.6291 -1.5543
  104SAPE   O2110578   1.210   1.531   2.637 -0.1184  0.1011 -0.5182
  104SAPE   C2110579   1.188   1.564   2.761  0.0186  1.7317  0.6571
  104SAPE   O2210580   1.087   1.535   2.822 -0.1125  0.7456 -0.6814
  104SAPE   C2210581   1.300   1.649   2.809 -0.5546  0.2370  0.4363
  104SAPE   H2R10582   1.386   1.624   2.743 -1.4513 -1.0503 -0.2916
  104SAPE   H2S10583   1.273   1.754   2.782 -1.1208 -0.1168 -0.4124
  104SAPE    C310584   1.120   1.312   2.579 -0.3065 -1.0584  0.2430
  104SAPE    HX10585   1.217   1.291   2.530  0.1398  3.5485 -1.3149
  104SAPE    HY10586   1.034   1.261   2.529 -0.4950  0.9752 -1.6386
  104SAPE   O3110587   1.124   1.265   2.717 -0.5653 -0.3688  0.0928
  104SAPE   C3110588   1.007   1.247   2.776  0.3297 -0.3042  0.4935
  104SAPE   O3210589   0.895   1.270   2.727 -0.3185  0.0822  0.1646
  104SAPE   C3210590   1.051   1.213   2.921  0.1824 -0.1360 -0.0914
  104SAPE   H2X10591   1.109   1.295   2.968  0.5112 -0.6768  0.4563
  104SAPE   H2Y10592   1.107   1.119   2.905 -1.3643 -0.9375 -1.1100
  104SAPE   C2310593   1.321   1.627   2.956 -0.3458 -0.5861  0.6392
  104SAPE   H3R10594   1.375   1.534   2.984  0.6242  0.2669  1.7633
  104SAPE   H3S10595   1.226   1.644   3.011 -0.9178  0.3813 -0.6030
  104SAPE   C2410596   1.403   1.742   3.024 -0.6334  0.2431 -0.3839
  104SAPE   H4R10597   1.386   1.716   3.131  1.4430  1.5813  0.3338
  104SAPE   H4S10598   1.364   1.845   3.010  0.5143  1.1974  2.6381
  104SAPE   C2510599   1.551   1.755   2.987  0.0502  0.2416 -0.6280
  104SAPE   H5R10600   1.596   1.678   2.922 -1.0774 -1.3995  0.4536
  104SAPE   C2610601   1.638   1.842   3.047  0.6504 -0.5377 -0.1707
  104SAPE   H6R10602   1.741   1.842   3.011  0.4553 -2.7470 -0.8573
  104SAPE   C2710603   1.611   1.926   3.164  0.2247 -0.4381  0.3393
  104SAPE   H7R10604   1.665   1.874   3.247 -1.0120 -0.9327  0.8567
  104SAPE   H7S10605   1.503   1.925   3.190  0.4519  2.1286  1.6376
  104SAPE   C2810606   1.631   2.068   3.161 -0.1196 -0.0503  0.2827
  104SAPE   H8R10607   1.657   2.117   3.066  0.4368  0.0105  0.4604
  104SAPE   C2910608   1.646   2.139   3.273  0.0336 -0.3874 -0.4566
  104SAPE   H9R10609   1.684   2.242   3.269  0.1093 -0.4258 -0.7781
  104SAPE  C21010610   1.631   2.081   3.412 -0.3449 -0.8076  0.4168
  104SAPE  H10R10611   1.695   1.992   3.430  1.9148  0.6191 -0.1549
  104SAPE  H10S10612   1.524   2.050   3.416 -1.0622  1.0012 -2.2650
  104SAPE  C21110613   1.647   2.174   3.531  0.0707  0.7698  0.0461
  104SAPE  H11R10614   1.558   2.183   3.595  0.6542  0.1217  0.9769
  104SAPE  C21210615   1.756   2.234   3.573  0.1723 -0.5480  0.5775
  104SAPE  H12R10616   1.747   2.292   3.666 -1.7004  0.1447  0.0016
  104SAPE  C21310617   1.895   2.215   3.523  0.1814  0.3524 -0.0165
  104SAPE  H13R10618   1.878   2.164   3.426 -1.3071  2.1797 -0.7850
  104SAPE  H13S10619   1.955   2.147   3.586  0.9885  1.6446  0.6544
  104SAPE  C21410620   1.965   2.349   3.501  0.6860  0.1068  0.0848
  104SAPE  H14R10621   1.900   2.427   3.459 -0.0146 -0.0482  0.8621
  104SAPE  C21510622   2.090   2.386   3.530 -0.0373 -0.0139  0.0685
  104SAPE  H15R10623   2.103   2.493   3.511 -0.2136  0.3089  1.5968
  104SAPE  C21610624   2.197   2.303   3.595 -0.0766 -0.3489 -0.3368
  104SAPE  H16R10625   2.297   2.341   3.566  0.1715 -1.2957 -0.7287
  104SAPE  H16S10626   2.196   2.196   3.568  3.2458 -0.0233 -2.3029
  104SAPE  C21710627   2.193   2.308   3.749  0.6799  1.1160  0.4137
  104SAPE  H17R10628   2.104   2.248   3.780  1.8454 -1.4062 -0.8245
  104SAPE  H17S10629   2.173   2.412   3.784  1.0189  1.2855  0.1042
  104SAPE  C21810630   2.311   2.236   3.802  0.0725  0.6066  0.1581
  104SAPE  H18R10631   2.403   2.268   3.748  0.0974 -1.0739 -0.8549
  104SAPE  H18S10632   2.292   2.133   3.763 -1.5402  1.3521 -1.1327
  104SAPE  C21910633   2.325   2.267   3.953  0.5002 -0.0321  0.4474
  104SAPE  H19R10634   2.422   2.222   3.982  0.0967 -0.5165  1.0808
  104SAPE  H19S10635   2.234   2.224   4.002 -1.9421  4.3384  0.2743
  104SAPE  C22010636   2.337   2.416   3.988  0.0145 -0.4017  0.4846
  104SAPE  H20R10637   2.243   2.471   3.970 -1.2298 -2.4266  0.5085
  104SAPE  H20S10638   2.423   2.470   3.942  1.2551 -1.0861  1.8850
  104SAPE  H20T10639   2.354   2.418   4.098 -0.7722 -1.8193  0.6683
  104SAPE   C3310640   0.922   1.182   3.010 -0.6494  0.2421 -0.0393
  104SAPE   H3X10641   0.855   1.104   2.968 -1.3280 -0.8379  2.8324
  104SAPE   H3Y10642   0.851   1.267   3.012 -1.7645 -0.6492 -0.4631
  104SAPE   C3410643   0.958   1.144   3.158 -0.4985  0.5431 -0.0869
  104SAPE   H4X10644   0.986   1.036   3.161  1.7801  0.9966 -2.1734
  104SAPE   H4Y10645   0.870   1.158   3.224  0.2246  1.0342  0.7977
  104SAPE   C3510646   1.068   1.223   3.227 -0.6942  0.3336  0.3269
  104SAPE   H5X10647   1.041   1.329   3.244 -0.7485  0.0172  2.4974
  104SAPE   H5Y10648   1.157   1.220   3.160 -0.5109  0.4111  0.5692
  104SAPE   C3610649   1.102   1.167   3.368  0.2161  0.7383  0.6015
  104SAPE   H6X10650   1.209   1.187   3.391  0.3585  2.6132 -1.4142
  104SAPE   H6Y10651   1.085   1.058   3.377 -0.5862  0.7371 -0.6521
  104SAPE   C3710652   1.005   1.226   3.473  0.4701 -0.6848 -0.0745
  104SAPE   H7X10653   0.903   1.184   3.460  1.0901 -1.5308 -2.8155
  104SAPE   H7Y10654   1.003   1.337   3.475  0.5062 -0.6886  0.4228
  104SAPE   C3810655   1.035   1.193   3.625  0.3138 -0.8111 -0.0019
  104SAPE   H8X10656   1.039   1.084   3.643  0.1829 -0.5962  1.4038
  104SAPE   H8Y10657   0.945   1.225   3.682 -0.5051 -1.5109 -0.8498
  104SAPE   C3910658   1.156   1.269   3.684 -0.4814 -0.0167 -0.1141
  104SAPE   H9X10659   1.146   1.380   3.680 -1.1181 -0.0765 -0.2989
  104SAPE   H9Y10660   1.248   1.239   3.630  2.6155  1.0887  4.0152
  104SAPE  C31010661   1.179   1.230   3.837  0.4095  0.2839 -0.3264
  104SAPE  H10X10662   1.155   1.122   3.851 -2.3448  0.5182 -2.2803
  104SAPE  H10Y10663   1.114   1.293   3.902  1.5503 -1.5051  2.7578
  104SAPE  C31110664   1.326   1.259   3.885 -0.0685  0.3797  0.6873
  104SAPE  H11X10665   1.403   1.196   3.837  1.7470  0.5876  3.1268
  104SAPE  H11Y10666   1.329   1.234   3.993 -0.3792  0.4299  0.7078
  104SAPE  C31210667   1.361   1.411   3.871  0.2017 -0.0076  0.0524
  104SAPE  H12X10668   1.275   1.480   3.886  1.0352  1.6677 -2.3058
  104SAPE  H12Y10669   1.393   1.416   3.765 -1.0024 -0.9375 -0.3822
  104SAPE  C31310670   1.480   1.458   3.968  0.2769 -0.3441  0.0616
  104SAPE  H13X10671   1.491   1.566   3.949 -0.9857  0.0758  1.5253
  104SAPE  H13Y10672   1.561   1.390   3.934 -0.1697 -1.5604  1.2909
  104SAPE  C31410673   1.459   1.446   4.119  0.2407 -0.0278  0.6318
  104SAPE  H14X10674   1.542   1.498   4.171  1.1334 -0.7875  0.0046
  104SAPE  H14Y10675   1.470   1.341   4.152  0.8662  0.2841  1.4441
  104SAPE  C31510676   1.327   1.520   4.157 -0.2038  0.6516 -0.1549
  104SAPE  H15X10677   1.238   1.482   4.102  0.4094  1.9277 -2.1229
  104SAPE  H15Y10678   1.326   1.628   4.131 -2.9208  0.7544  0.0762
  104SAPE  C31610679   1.298   1.498   4.308 -0.7090 -0.5510  0.4235
  104SAPE  H16X10680   1.257   1.591   4.353  0.3309 -0.2032  0.6670
  104SAPE  H16Y10681   1.400   1.479   4.347 -1.1179  0.0658  1.8728
  104SAPE  C31710682   1.215   1.375   4.331  0.4402 -0.8818  0.1301
  104SAPE  H17X10683   1.251   1.307   4.252  0.4932 -0.1423 -0.4976
  104SAPE  H17Y10684   1.111   1.404   4.306  0.8561 -0.8776 -1.6688
  104SAPE  C31810685   1.229   1.305   4.470  0.0242  0.5685  0.1018
  104SAPE  H18X10686   1.188   1.370   4.549  2.0638  1.5863  0.3825
  104SAPE  H18Y10687   1.336   1.305   4.499 -0.6851  1.0388  3.0901
  104SAPE  H18Z10688   1.180   1.205   4.474 -2.1617  1.4829 -1.4218
  105SAPE     N10689   5.455   3.015   2.646 -0.3437 -0.2250 -0.0960
  105SAPE   HN110690   5.544   3.068   2.654 -0.7147  0.7574 -1.9489
  105SAPE   HN210691   5.478   2.923   2.688  0.0253  0.3146  0.9093
  105SAPE   HN310692   5.423   2.993   2.549 -2.5292 -1.4024  0.8245
  105SAPE   C1210693   5.355   3.095   2.726  0.2057 -0.9179  0.2189
  105SAPE  H12A10694   5.334   3.190   2.671  1.7143 -0.6150  0.1185
  105SAPE  H12B10695   5.400   3.121   2.824 -0.6567 -0.1777  0.4320
  105SAPE   C1110696   5.221   3.012   2.738 -0.2493  0.1059  0.0092
  105SAPE  H11A10697   5.139   3.068   2.788 -1.5736 -1.7337  0.0050
  105SAPE  H11B10698   5.246   2.923   2.800 -0.5097 -0.4231 -0.6378
  105SAPE     P10699   5.094   3.055   2.517  0.6524  0.2950 -0.2608
  105SAPE   O1310700   5.186   3.156   2.459 -0.1941 -0.0501  0.2364
  105SAPE   O1410701   5.010   2.975   2.432 -0.0184  0.4812  0.0157
  105SAPE   O1210702   5.175   2.968   2.611 -0.5159  0.5243 -0.1066
  105SAPE   O1110703   4.985   3.116   2.607 -0.3620 -0.0666 -0.2651
  105SAPE    C110704   4.876   3.038   2.661  0.2696  0.9473 -0.5251
  105SAPE    HA10705   4.787   3.029   2.595 -0.0389  2.0146 -0.2629
  105SAPE    HB10706   4.911   2.936   2.688 -0.0890  0.9699  0.0264
  105SAPE    C210707   4.820   3.095   2.792 -0.1429  0.5620  0.4212
  105SAPE    HS10708   4.806   3.203   2.772 -1.1633  0.4866  0.7047
  105SAPE   O2110709   4.920   3.084   2.892 -0.5971  0.2039 -0.1625
  105SAPE   C2110710   4.923   3.172   2.991 -0.0425  0.2585 -0.1588
  105SAPE   O2210711   4.853   3.272   2.997  0.2574  0.1619  0.2010
  105SAPE   C2210712   5.016   3.121   3.107  0.3676  0.8782  0.1087
  105SAPE   H2R10713   5.023   3.010   3.104  1.2447  0.9172  0.4273
  105SAPE   H2S10714   5.116   3.165   3.086  1.3768 -0.7979  1.1280
  105SAPE    C310715   4.690   3.028   2.826  0.2150 -0.0391  0.3586
  105SAPE    HX10716   4.693   2.925   2.787 -0.4279 -0.5570  1.6161
  105SAPE    HY10717   4.623   3.090   2.764  1.4543 -0.1244 -1.1175
  105SAPE   O3110718   4.650   3.039   2.969 -0.2737  0.4768  0.1910
  105SAPE   C3110719   4.578   2.943   3.024  0.7861  0.2947  0.2708
  105SAPE   O3210720   4.537   2.844   2.957 -0.5146 -0.1863 -0.4617
  105SAPE   C3210721   4.545   2.979   3.167 -0.0601  0.0211 -0.5334
  105SAPE   H2X10722   4.456   2.918   3.192 -1.7174  2.6654  0.4541
  105SAPE   H2Y10723   4.515   3.086   3.173 -1.2600 -0.3055 -0.5635
  105SAPE   C2310724   4.976   3.185   3.239  0.6566 -0.0405  0.2972
  105SAPE   H3R10725   4.874   3.151   3.264  1.7147 -2.3471  1.7559
  105SAPE   H3S10726   4.966   3.295   3.226  0.5497 -0.1215 -0.3657
  105SAPE   C2410727   5.068   3.147   3.359 -0.2769 -0.4897  0.0290
  105SAPE   H4R10728   5.043   3.219   3.441 -0.7517  2.8844 -2.8201
  105SAPE   H4S10729   5.172   3.175   3.334  0.2056 -1.5868  0.7414
  105SAPE   C2510730   5.070   3.002   3.395  0.0401  0.4866 -0.1031
  105SAPE   H5R10731   5.091   2.929   3.315  1.3695 -0.3791  1.0001
  105SAPE   C2610732   5.043   2.952   3.515 -0.0599  0.5373  0.5214
  105SAPE   H6R10733   5.037   2.843   3.530 -2.1684  0.3167 -1.2706
  105SAPE   C2710734   5.028   3.038   3.639 -0.2288 -0.3876 -0.0408
  105SAPE   H7R10735   4.924   3.076   3.642 -0.2869 -0.2099 -2.2378
  105SAPE   H7S10736   5.097   3.125   3.634  0.1810 -0.7100 -0.1048
  105SAPE   C2810737   5.061   2.977   3.774  0.5578 -0.0210  0.4305
  105SAPE   H8R10738   5.167   2.947   3.776  0.5781 -0.2246 -1.7589
  105SAPE   C2910739   4.976   2.952   3.872  0.6574  0.7021 -0.2663
  105SAPE   H9R10740   5.011   2.906   3.966 -0.7618 -2.4802 -1.1717
  105SAPE  C21010741   4.830   2.984   3.889 -0.1653 -0.2147  0.2496
  105SAPE  H10R10742   4.799   3.029   3.793  2.6530  0.4374 -0.4505
  105SAPE  H10S10743   4.828   3.063   3.968  2.5829 -0.5667  0.7982
  105SAPE  C21110744   4.748   2.862   3.916  0.0623 -0.1434  0.2125
  105SAPE  H11R10745   4.696   2.835   3.823  1.5400 -3.5076  0.2332
  105SAPE  C21210746   4.749   2.788   4.031 -0.0094 -0.3257 -0.2974
  105SAPE  H12R10747   4.671   2.711   4.036 -0.5533  0.1158 -1.4802
  105SAPE  C21310748   4.817   2.818   4.164  0.6981 -0.0096  0.2415
  105SAPE  H13R10749   4.824   2.927   4.184  1.3372 -0.0073  0.0191
  105SAPE  H13S10750   4.926   2.797   4.157  0.4494 -1.1415 -0.3841
  105SAPE  C21410751   4.757   2.758   4.295  0.1292  0.0859  0.0368
  105SAPE  H14R10752   4.807   2.670   4.339  1.4234  1.5928  1.7396
  105SAPE  C21510753   4.631   2.786   4.335  0.2250 -0.0832 -0.2286
  105SAPE  H15R10754   4.594   2.740   4.428 -1.8231 -0.2498 -1.0868
  105SAPE  C21610755   4.531   2.899   4.282  0.1465  1.0183  0.0076
  105SAPE  H16R10756   4.551   2.927   4.176 -1.0548  2.3837  0.1223
  105SAPE  H16S10757   4.533   2.989   4.347 -0.6583 -0.1953  1.7994
  105SAPE  C21710758   4.390   2.834   4.295  0.6297 -0.1030  0.3724
  105SAPE  H17R10759   4.389   2.737   4.350  0.7638 -0.9555 -1.0755
  105SAPE  H17S10760   4.353   2.817   4.191  1.7768 -1.1517  0.1105
  105SAPE  C21810761   4.285   2.937   4.345 -0.1733 -0.0663 -0.7984
  105SAPE  H18R10762   4.289   3.018   4.269 -1.3231  1.9972  1.2046
  105SAPE  H18S10763   4.319   2.989   4.438 -1.4267 -0.8501  0.1392
  105SAPE  C21910764   4.138   2.890   4.347 -0.1868  0.0141  0.4620
  105SAPE  H19R10765   4.112   2.841   4.250  0.7100 -2.3887  1.3656
  105SAPE  H19S10766   4.085   2.987   4.359  1.4300  1.0734 -0.5686
  105SAPE  C22010767   4.093   2.787   4.450 -0.4301  0.1186 -0.1056
  105SAPE  H20R10768   3.982   2.787   4.457 -0.5843  3.2357 -0.7794
  105SAPE  H20S10769   4.132   2.816   4.550  3.4773  1.0503 -1.7160
  105SAPE  H20T10770   4.118   2.681   4.430  0.8198 -0.0438  2.0887
  105SAPE   C3310771   4.653   2.944   3.268  0.1109  0.1504 -0.3737
  105SAPE   H3X10772   4.748   2.997   3.242  1.8102 -1.5445  1.9218
  105SAPE   H3Y10773   4.668   2.834   3.272 -4.8907 -0.6988  1.3978
  105SAPE   C3410774   4.604   2.971   3.412 -0.6772 -0.6127 -0.2713
  105SAPE   H4X10775   4.682   2.928   3.479  0.3241 -1.5191 -1.9630
  105SAPE   H4Y10776   4.514   2.910   3.432 -0.8502  0.5313  2.9941
  105SAPE   C3510777   4.580   3.117   3.448  0.1804 -0.1311 -1.3452
  105SAPE   H5X10778   4.481   3.140   3.404 -0.5698  0.7833  0.7024
  105SAPE   H5Y10779   4.652   3.193   3.412 -0.1007  0.6052 -0.3829
  105SAPE   C3610780   4.574   3.138   3.605 -0.3849 -0.0293  0.0881
  105SAPE   H6X10781   4.674   3.131   3.655 -1.0615 -1.4113  1.3160
  105SAPE   H6Y10782   4.504   3.066   3.653  3.8551 -2.1090  4.0250
  105SAPE   C3710783   4.532   3.282   3.643 -0.4519 -0.5445 -0.2460
  105SAPE   H7X10784   4.428   3.317   3.624 -0.4411 -0.1457  0.3900
  105SAPE   H7Y10785   4.596   3.343   3.576  1.4593 -1.1375  0.9542
  105SAPE   C3810786   4.581   3.325   3.784 -0.0519 -0.0244  0.5290
  105SAPE   H8X10787   4.552   3.432   3.795  1.0885  0.2887  0.7135
  105SAPE   H8Y10788   4.692   3.322   3.795 -0.1789 -0.5898  1.9158
  105SAPE   C3910789   4.514   3.244   3.895  0.8050 -0.2469 -0.2655
  105SAPE   H9X10790   4.566   3.148   3.919  0.3417  0.2822  3.4246
  105SAPE   H9Y10791   4.411   3.217   3.860  1.7399 -0.7535 -2.8970
  105SAPE  C31010792   4.501   3.323   4.030 -1.0485  0.0192 -0.1641
  105SAPE  H10X10793   4.407   3.381   4.016 -0.8663 -0.1049 -2.2584
  105SAPE  H10Y10794   4.586   3.394   4.032 -0.9611  0.0219 -2.2006
  105SAPE  C31110795   4.510   3.228   4.149 -0.2922  0.2030  0.0911
  105SAPE  H11X10796   4.612   3.185   4.155 -0.1791  0.0990 -1.7894
  105SAPE  H11Y10797   4.439   3.149   4.114 -1.3167  1.3218 -0.4262
  105SAPE  C31210798   4.480   3.282   4.293  0.4207 -0.0875  0.7228
  105SAPE  H12X10799   4.467   3.201   4.368  2.3826 -0.7639  0.3839
  105SAPE  H12Y10800   4.386   3.340   4.279 -0.0111 -1.3363 -2.2476
  105SAPE  C31310801   4.594   3.372   4.350 -0.7011  0.3517 -0.0782
  105SAPE  H13X10802   4.628   3.448   4.276  1.8800 -1.4929 -0.9220
  105SAPE  H13Y10803   4.686   3.316   4.376 -0.1889  0.1988 -2.0253
  105SAPE  C31410804   4.548   3.434   4.484 -0.3519 -0.0235 -0.3813
  105SAPE  H14X10805   4.525   3.351   4.554 -1.3537  1.1783  0.7601
  105SAPE  H14Y10806   4.451   3.483   4.460  0.3577  0.6557 -2.0175
  105SAPE  C31510807   4.643   3.539   4.542 -0.6004 -0.0775 -0.4846
  105SAPE  H15X10808   4.583   3.616   4.595  0.8329 -0.0857  1.2334
  105SAPE  H15Y10809   4.692   3.595   4.459  0.3082 -0.7246 -0.3983
  105SAPE  C31610810   4.740   3.487   4.643  0.3100 -0.6015 -0.3383
  105SAPE  H16X10811   4.822   3.430   4.594  1.3774  0.6863 -0.1299
  105SAPE  H16Y10812   4.702   3.408   4.710  0.1667 -1.5518 -1.5094
  105SAPE  C31710813   4.784   3.587   4.739 -0.2416  0.2086 -0.6314
  105SAPE  H17X10814   4.704   3.655   4.775 -1.5439 -0.4733 -2.1296
  105SAPE  H17Y10815   4.867   3.649   4.699 -0.2172  0.9126  0.4596
  105SAPE  C31810816   4.839   3.515   4.860 -0.5034  0.0323  0.3123
  105SAPE  H18X10817   4.899   3.586   4.921  1.2564 -0.1464 -1.1356
  105SAPE  H18Y10818   4.902   3.433   4.820  2.0701  2.3887 -0.8242
  105SAPE  H18Z10819   4.763   3.469   4.927 -0.1453 -0.0085  0.6882
  106SAPE     N10820   4.008   1.395   2.612 -0.2914  0.4240  0.0731
  106SAPE   HN110821   3.963   1.433   2.698 -0.1657  0.3320  0.1800
  106SAPE   HN210822   4.084   1.461   2.587 -0.6239  1.0628  0.7125
  106SAPE   HN310823   3.937   1.390   2.536 -1.1040 -0.3696  0.8586
  106SAPE   C1210824   4.066   1.260   2.636  0.1317  0.0571 -0.3641
  106SAPE  H12A10825   3.993   1.201   2.695  2.0550 -2.7613 -0.6508
  106SAPE  H12B10826   4.160   1.257   2.694  0.9302 -0.9568 -1.6623
  106SAPE   C1110827   4.090   1.202   2.501  0.2240 -0.3342  0.1316
  106SAPE  H11A10828   4.016   1.224   2.422  0.8204 -2.0403 -0.9542
  106SAPE  H11B10829   4.083   1.092   2.507  1.3825 -0.3644  1.4927
  106SAPE     P10830   4.356   1.182   2.456  0.0616  0.3885 -0.1964
  106SAPE   O1310831   4.429   1.163   2.327 -0.0166 -0.3988 -0.7185
  106SAPE   O1410832   4.428   1.272   2.550 -0.4924 -0.1434  0.1929
  106SAPE   O1210833   4.211   1.247   2.442 -0.7868 -0.4448 -0.0304
  106SAPE   O1110834   4.324   1.048   2.523 -0.4591 -0.2328 -0.1093
  106SAPE    C110835   4.416   0.961   2.587  0.3340 -0.3699  0.2941
  106SAPE    HA10836   4.421   0.872   2.521  2.0773  1.9095 -2.9704
  106SAPE    HB10837   4.516   1.007   2.600 -0.9971  2.6304  0.8544
  106SAPE    C210838   4.366   0.930   2.741  0.2721  0.0238  0.5739
  106SAPE    HS10839   4.426   0.844   2.777 -2.0906 -0.7381  2.9878
  106SAPE   O2110840   4.225   0.893   2.736  0.2939  0.0823 -0.0638
  106SAPE   C2110841   4.179   0.790   2.667  0.4100 -0.2043  0.0422
  106SAPE   O2210842   4.240   0.696   2.619  0.6062 -0.3463  0.6241
  106SAPE   C2210843   4.026   0.788   2.676 -0.0258  0.2250 -0.2086
  106SAPE   H2R10844   3.984   0.884   2.637 -0.9765  0.5514  1.5066
  106SAPE   H2S10845   3.996   0.704   2.610 -1.8892  2.2929 -2.1886
  106SAPE    C310846   4.384   1.048   2.834 -0.0319  0.0834  0.0260
  106SAPE    HX10847   4.304   1.123   2.815  0.5814  0.6516 -0.3852
  106SAPE    HY10848   4.482   1.093   2.804  1.5153 -2.1935  1.3558
  106SAPE   O3110849   4.387   0.999   2.971 -0.0418 -0.3054 -0.1329
  106SAPE   C3110850   4.281   1.037   3.045  0.0897 -1.2079 -0.4541
  106SAPE   O3210851   4.186   1.104   3.008  0.1725 -0.0033  0.3744
  106SAPE   C3210852   4.307   1.012   3.189  0.1627  0.6707  0.5783
  106SAPE   H2X10853   4.402   0.959   3.209  0.8435  1.1411 -1.2226
  106SAPE   H2Y10854   4.215   0.965   3.231  1.3416 -1.9294  0.4207
  106SAPE   C2310855   3.974   0.761   2.818 -0.0216  0.2580  0.2878
  106SAPE   H3R10856   3.865   0.777   2.828  0.2098  1.3393  1.3153
  106SAPE   H3S10857   4.019   0.842   2.879  1.1085 -0.5134  0.5116
  106SAPE   C2410858   4.001   0.615   2.877 -0.0603 -0.4563 -0.1249
  106SAPE   H4R10859   4.101   0.630   2.923 -1.4231 -0.2731  3.0402
  106SAPE   H4S10860   4.007   0.550   2.787  3.5393 -0.5958  0.0745
  106SAPE   C2510861   3.891   0.588   2.987 -0.0130 -0.1467  1.2179
  106SAPE   H5R10862   3.793   0.562   2.943  0.8291 -0.6558 -0.4716
  106SAPE   C2610863   3.903   0.587   3.116  0.0973 -0.4518 -0.5501
  106SAPE   H6R10864   3.812   0.604   3.175 -0.4099 -0.8182 -1.2114
  106SAPE   C2710865   4.029   0.600   3.190  0.3449  0.0018 -0.4047
  106SAPE   H7R10866   4.012   0.702   3.232 -2.5936  0.2044 -1.8354
  106SAPE   H7S10867   4.117   0.605   3.122  0.6393 -4.8920 -0.6846
  106SAPE   C2810868   4.028   0.492   3.300  0.5030 -0.1619  0.2155
  106SAPE   H8R10869   3.973   0.400   3.279 -0.6643  0.2155  1.4484
  106SAPE   C2910870   4.082   0.504   3.422 -0.6126 -0.5485  1.0482
  106SAPE   H9R10871   4.079   0.418   3.489  4.6411 -2.4660 -0.6571
  106SAPE  C21010872   4.157   0.626   3.473 -0.4057  0.5267  0.5496
  106SAPE  H10R10873   4.172   0.696   3.388 -0.0957 -0.4103 -0.1899
  106SAPE  H10S10874   4.263   0.603   3.497  0.0286  4.2372  3.0012
  106SAPE  C21110875   4.091   0.674   3.604 -0.6700  0.0930  1.1373
  106SAPE  H11R10876   3.987   0.640   3.616 -0.7076 -0.5889 -0.8209
  106SAPE  C21210877   4.154   0.737   3.699  0.0577  0.2509  0.3634
  106SAPE  H12R10878   4.096   0.775   3.784 -1.0264 -0.0957 -0.2093
  106SAPE  C21310879   4.295   0.781   3.693  0.2103  0.9178 -0.5892
  106SAPE  H13R10880   4.318   0.808   3.587 -3.7350 -0.1953 -1.8919
  106SAPE  H13S10881   4.368   0.700   3.716 -0.6742  0.2338 -0.1243
  106SAPE  C21410882   4.331   0.905   3.765  0.1808  0.5646 -0.2218
  106SAPE  H14R10883   4.303   0.997   3.712  0.5330 -0.3071 -1.9992
  106SAPE  C21510884   4.386   0.901   3.892 -0.1067 -0.8021  0.4010
  106SAPE  H15R10885   4.410   1.003   3.926  0.0268 -0.0361 -1.8018
  106SAPE  C21610886   4.420   0.789   3.987  0.6201  0.4193 -0.3523
  106SAPE  H16R10887   4.422   0.698   3.923 -0.1865  1.0743 -1.3337
  106SAPE  H16S10888   4.336   0.775   4.058 -0.4057  2.6189 -1.0532
  106SAPE  C21710889   4.552   0.812   4.075 -0.4387  0.1548 -0.0888
  106SAPE  H17R10890   4.530   0.907   4.127 -0.5855 -0.2428  0.5909
  106SAPE  H17S10891   4.637   0.838   4.007 -1.5399  3.1951 -0.4265
  106SAPE  C21810892   4.578   0.712   4.184 -0.2206 -0.2969  0.1312
  106SAPE  H18R10893   4.578   0.616   4.130  2.2569  1.4054 -3.2677
  106SAPE  H18S10894   4.488   0.703   4.250 -0.9463 -1.3997 -0.9769
  106SAPE  C21910895   4.696   0.727   4.276 -0.8519 -0.6121  0.3885
  106SAPE  H19R10896   4.788   0.753   4.221  0.5021  0.1296  2.8496
  106SAPE  H19S10897   4.713   0.631   4.329  1.2070 -0.5194 -0.0341
  106SAPE  C22010898   4.676   0.841   4.378 -0.0212 -0.7490  0.1812
  106SAPE  H20R10899   4.667   0.940   4.329 -2.0818 -1.3898 -0.8636
  106SAPE  H20S10900   4.750   0.842   4.460 -0.3723  2.6467  0.6000
  106SAPE  H20T10901   4.577   0.825   4.427  0.4073 -1.9075  0.7138
  106SAPE   C3310902   4.329   1.150   3.258  0.4161 -0.0097  0.2474
  106SAPE   H3X10903   4.241   1.212   3.230 -1.3173 -2.1393  0.6731
  106SAPE   H3Y10904   4.423   1.206   3.239  0.2820  0.6473  1.4224
  106SAPE   C3410905   4.313   1.132   3.411 -0.8546  0.0967 -0.5905
  106SAPE   H4X10906   4.401   1.087   3.462 -2.4582 -0.6862  1.6106
  106SAPE   H4Y10907   4.227   1.069   3.440 -0.6519  0.5279  1.0687
  106SAPE   C3510908   4.302   1.270   3.480 -0.1893 -0.4742  0.5030
  106SAPE   H5X10909   4.229   1.329   3.422  1.3759  0.0161 -1.0671
  106SAPE   H5Y10910   4.393   1.329   3.454 -1.4718  1.7087  0.7143
  106SAPE   C3610911   4.279   1.272   3.628 -0.2408 -0.1638  0.5170
  106SAPE   H6X10912   4.346   1.198   3.677  1.6118  1.1586  0.0550
  106SAPE   H6Y10913   4.174   1.241   3.648  0.1467 -3.6384 -2.0217
  106SAPE   C3710914   4.306   1.418   3.686  0.0645 -0.3220  0.2434
  106SAPE   H7X10915   4.252   1.494   3.625  0.9945  0.0962 -0.0621
  106SAPE   H7Y10916   4.415   1.438   3.685  0.4304 -2.1298  0.3446
  106SAPE   C3810917   4.249   1.437   3.829 -0.8081  0.3201 -0.0171
  106SAPE   H8X10918   4.298   1.357   3.888 -2.0650  0.2315  0.9276
  106SAPE   H8Y10919   4.139   1.425   3.824 -0.9072  0.0889  2.1050
  106SAPE   C3910920   4.283   1.570   3.892 -0.1261 -0.5431 -0.1945
  106SAPE   H9X10921   4.226   1.642   3.830 -1.7163 -1.1971  0.4498
  106SAPE   H9Y10922   4.392   1.589   3.897 -0.4575  2.6901 -2.2208
  106SAPE  C31010923   4.233   1.569   4.033  0.7389  0.4262 -0.4284
  106SAPE  H10X10924   4.310   1.510   4.087  1.1531  0.4575 -0.9739
  106SAPE  H10Y10925   4.129   1.532   4.044  0.7119  0.6389  0.0407
  106SAPE  C31110926   4.208   1.717   4.076  0.2532  0.5086 -0.1964
  106SAPE  H11X10927   4.122   1.766   4.026  0.5956  0.5464 -0.7548
  106SAPE  H11Y10928   4.301   1.774   4.057  0.5626  0.3068  0.6720
  106SAPE  C31210929   4.178   1.726   4.227  0.5640 -0.2281 -0.0001
  106SAPE  H12X10930   4.157   1.833   4.252  0.6387 -0.4879  1.2291
  106SAPE  H12Y10931   4.264   1.696   4.289  4.2482  2.5239 -3.2282
  106SAPE  C31310932   4.048   1.651   4.276  0.1289 -0.5918  0.0352
  106SAPE  H13X10933   4.059   1.542   4.260  1.7123 -0.3272 -0.9723
  106SAPE  H13Y10934   3.964   1.688   4.213  1.1278  2.6301  0.4123
  106SAPE  C31410935   4.044   1.679   4.424 -0.2678 -0.2136 -0.0778
  106SAPE  H14X10936   3.998   1.778   4.446  0.0095 -0.0712 -0.1463
  106SAPE  H14Y10937   4.144   1.674   4.472 -0.3098  2.4924  0.4656
  106SAPE  C31510938   3.949   1.572   4.485 -0.2305  0.4848  0.2048
  106SAPE  H15X10939   3.974   1.472   4.444 -1.2147  1.1552 -2.2586
  106SAPE  H15Y10940   3.853   1.601   4.436  0.6758  0.1805 -1.8687
  106SAPE  C31610941   3.939   1.558   4.630  0.3474 -0.3318 -0.6740
  106SAPE  H16X10942   3.895   1.644   4.686  1.6584 -0.7517  1.0765
  106SAPE  H16Y10943   4.042   1.546   4.670 -0.8831 -1.0431  2.5963
  106SAPE  C31710944   3.860   1.437   4.674 -0.6991  0.6394 -0.5542
  106SAPE  H17X10945   3.911   1.342   4.650  2.2435  2.0061 -0.1233
  106SAPE  H17Y10946   3.767   1.433   4.614 -2.1026 -1.4273  1.5901
  106SAPE  C31810947   3.829   1.437   4.826 -0.6655 -0.1804  0.4039
  106SAPE  H18X10948   3.785   1.341   4.861  1.4723 -1.2465  0.3431
  106SAPE  H18Y10949   3.747   1.508   4.851  0.1298 -0.0752  3.0251
  106SAPE  H18Z10950   3.919   1.440   4.891  1.2854 -3.6644 -1.8150
  107SAPE     N10951   1.244   4.447   2.631 -0.1036  0.0646  0.0679
  107SAPE   HN110952   1.235   4.383   2.713  0.6372  1.0463  0.9400
  107SAPE   HN210953   1.232   4.403   2.538  3.6326 -0.7033 -0.2113
  107SAPE   HN310954   1.343   4.479   2.634  0.1378 -0.6945  0.6460
  107SAPE   C1210955   1.155   4.574   2.641 -0.1742  0.1089  0.2611
  107SAPE  H12A10956   1.154   4.614   2.537  1.1242 -0.0421  0.1728
  107SAPE  H12B10957   1.203   4.643   2.713 -1.7487 -0.8805  2.3875
  107SAPE   C1110958   1.009   4.532   2.693 -0.0033  0.2525 -0.0225
  107SAPE  H11A10959   0.950   4.479   2.615  0.5858 -0.5564  0.0586
  107SAPE  H11B10960   0.960   4.625   2.728 -0.8185  0.1008 -0.7376
  107SAPE     P10961   0.957   4.317   2.825  0.0372  0.3685 -0.0744
  107SAPE   O1310962   0.809   4.326   2.828 -0.1600  0.9190  0.2011
  107SAPE   O1410963   1.009   4.235   2.719 -0.1011  0.8556 -0.0999
  107SAPE   O1210964   1.020   4.457   2.809  0.1001  0.5077  0.4704
  107SAPE   O1110965   1.012   4.267   2.965 -0.6696  0.5598  0.3482
  107SAPE    C110966   1.136   4.303   3.022  0.5190  0.1191 -0.3887
  107SAPE    HA10967   1.213   4.224   3.010 -0.5677 -0.8531 -1.1779
  107SAPE    HB10968   1.175   4.390   2.965  0.1589  1.2627  1.0238
  107SAPE    C210969   1.123   4.346   3.166 -0.3091 -0.8171 -0.8685
  107SAPE    HS10970   1.214   4.400   3.197 -1.1718  1.5401 -2.1577
  107SAPE   O2110971   1.093   4.231   3.247 -0.0967  0.4008 -0.0042
  107SAPE   C2110972   1.189   4.189   3.323 -0.0957 -0.2029  0.2512
  107SAPE   O2210973   1.300   4.239   3.322 -0.4076 -0.1531 -0.3159
  107SAPE   C2210974   1.146   4.065   3.406 -0.2695 -0.2052 -0.1018
  107SAPE   H2R10975   1.090   4.094   3.497  3.7656 -1.5133  3.0866
  107SAPE   H2S10976   1.083   4.001   3.340 -1.3592  0.2882  0.4378
  107SAPE    C310977   0.994   4.438   3.174  0.5822  0.1016 -0.5321
  107SAPE    HX10978   0.904   4.378   3.149  1.0405 -0.4649 -0.8259
  107SAPE    HY10979   1.003   4.515   3.094  0.2298 -2.2009 -2.9217
  107SAPE   O3110980   0.984   4.498   3.306 -0.0978  0.0882  0.5835
  107SAPE   C3110981   0.864   4.553   3.328 -0.0465  0.1817  0.2358
  107SAPE   O3210982   0.766   4.538   3.256 -0.1538 -0.0854 -0.3781
  107SAPE   C3210983   0.860   4.634   3.462 -0.4822  0.5137  0.1172
  107SAPE   H2X10984   0.901   4.735   3.445 -0.9207  0.7150  0.2247
  107SAPE   H2Y10985   0.916   4.581   3.542  1.8642  0.3114 -1.5569
  107SAPE   C2310986   1.270   3.980   3.461 -0.4682 -0.3855  0.6805
  107SAPE   H3R10987   1.344   3.971   3.379 -1.8421 -2.3670 -0.4278
  107SAPE   H3S10988   1.231   3.879   3.485  0.4946 -0.9038  0.0735
  107SAPE   C2410989   1.348   4.062   3.571  0.0098  0.2517  0.3877
  107SAPE   H4R10990   1.277   4.122   3.632  0.3324  1.4283 -0.3442
  107SAPE   H4S10991   1.400   4.144   3.517  3.3755  0.1138  3.0684
  107SAPE   C2510992   1.450   3.983   3.649 -0.0785  0.4795  0.0689
  107SAPE   H5R10993   1.539   3.956   3.590 -0.0259 -1.2150  0.8755
  107SAPE   C2610994   1.426   3.932   3.769 -0.0477  0.1611  0.5823
  107SAPE   H6R10995   1.503   3.879   3.827 -0.8694 -1.8277 -0.0419
  107SAPE   C2710996   1.293   3.960   3.843 -0.0263 -0.2083  0.3082
  107SAPE   H7R10997   1.239   3.866   3.865 -2.7386  1.2022  0.1500
  107SAPE   H7S10998   1.220   4.027   3.791 -1.7518 -1.9063  0.4254
  107SAPE   C2810999   1.338   4.024   3.972 -0.2793 -0.5070  0.0024
  107SAPE   H8R11000   1.352   4.133   3.972 -1.4493 -0.2995 -2.1422
  107SAPE   C2911001   1.345   3.964   4.090  0.2669  0.2002 -0.5270
  107SAPE   H9R11002   1.385   4.029   4.169  0.1400  0.2183 -0.4764
  107SAPE  C21011003   1.332   3.828   4.133  0.5646  0.3011 -0.0039
  107SAPE  H10R11004   1.426   3.807   4.188  1.4240  1.7606 -0.8460
  107SAPE  H10S11005   1.319   3.766   4.041  1.3799  2.8911 -2.0026
  107SAPE  C21111006   1.224   3.782   4.226  0.4526 -0.2482  0.3208
  107SAPE  H11R11007   1.252   3.764   4.331 -1.2625 -0.0599  0.8411
  107SAPE  C21211008   1.097   3.753   4.199  0.0830  0.2000  0.2628
  107SAPE  H12R11009   1.033   3.720   4.282  0.1009 -1.2025 -0.2620
  107SAPE  C21311010   1.027   3.770   4.072 -0.5176  0.4663 -0.5091
  107SAPE  H13R11011   1.090   3.834   4.007  1.1794  1.0348  1.5795
  107SAPE  H13S11012   0.928   3.819   4.080  0.0142  1.3109  1.3035
  107SAPE  C21411013   1.003   3.637   4.008  0.0358  0.0806  0.2714
  107SAPE  H14R11014   1.063   3.551   4.044  0.7390  0.7589  0.7696
  107SAPE  C21511015   0.935   3.622   3.892 -0.5843 -0.6262  0.2394
  107SAPE  H15R11016   0.917   3.521   3.853  0.7649 -0.0910 -1.9202
  107SAPE  C21611017   0.861   3.728   3.819  0.1219 -0.1023 -0.0969
  107SAPE  H16R11018   0.856   3.826   3.871 -0.6173  1.8104 -3.4506
  107SAPE  H16S11019   0.759   3.686   3.813  0.5287 -1.3974  1.4169
  107SAPE  C21711020   0.915   3.758   3.678 -0.4052 -0.1911  1.1219
  107SAPE  H17R11021   1.017   3.801   3.685 -1.4831  2.7114  0.6865
  107SAPE  H17S11022   0.855   3.838   3.628  2.3923 -0.1492 -2.6263
  107SAPE  C21811023   0.916   3.638   3.580 -0.2124 -0.1462 -0.1685
  107SAPE  H18R11024   0.816   3.590   3.593  0.6828 -2.2234 -0.6373
  107SAPE  H18S11025   1.003   3.576   3.611  0.1223  1.1814  1.6940
  107SAPE  C21911026   0.946   3.695   3.441 -0.1785  1.0250 -0.3461
  107SAPE  H19R11027   1.038   3.756   3.454  1.1766 -0.6236 -1.6898
  107SAPE  H19S11028   0.867   3.767   3.412  0.3896  1.6090 -0.4764
  107SAPE  C22011029   0.981   3.584   3.338 -0.1843  0.5396 -0.2457
  107SAPE  H20R11030   0.894   3.537   3.286 -0.6567  0.0022  0.9999
  107SAPE  H20S11031   1.031   3.502   3.393 -2.4221 -0.6092  0.1807
  107SAPE  H20T11032   1.052   3.630   3.266 -1.4932 -0.7760 -2.4892
  107SAPE   C3311033   0.716   4.651   3.521  0.4849 -0.1981 -0.7498
  107SAPE   H3X11034   0.677   4.548   3.532  0.4416 -0.0865  0.2264
  107SAPE   H3Y11035   0.657   4.720   3.458  2.0854  1.9781 -0.0010
  107SAPE   C3411036   0.723   4.724   3.658 -0.9953 -0.8815  0.0232
  107SAPE   H4X11037   0.754   4.828   3.638 -0.1928 -1.1688 -0.2863
  107SAPE   H4Y11038   0.811   4.680   3.710 -0.6728 -1.7785 -1.2258
  107SAPE   C3511039   0.599   4.726   3.744 -0.3518 -0.0253 -0.3983
  107SAPE   H5X11040   0.581   4.618   3.760  0.6091  0.0797  1.7273
  107SAPE   H5Y11041   0.514   4.772   3.689 -0.6025  0.3828  0.3234
  107SAPE   C3611042   0.621   4.786   3.882 -0.5209  0.3490  0.0013
  107SAPE   H6X11043   0.613   4.896   3.869  0.4396  0.2043 -2.1256
  107SAPE   H6Y11044   0.725   4.769   3.919 -0.6278 -1.7947 -0.5355
  107SAPE   C3711045   0.530   4.741   3.998 -0.1360 -0.0232  0.8770
  107SAPE   H7X11046   0.540   4.630   3.997  1.4328  0.0473 -2.2296
  107SAPE   H7Y11047   0.421   4.759   3.984 -0.8870 -2.9140  2.1423
  107SAPE   C3811048   0.570   4.787   4.139  0.4323  0.2791 -0.0452
  107SAPE   H8X11049   0.503   4.742   4.215  0.1463  2.0198  0.7807
  107SAPE   H8Y11050   0.555   4.897   4.141  1.2610  0.3849  0.7554
  107SAPE   C3911051   0.717   4.754   4.182 -0.1438  0.1636  0.1526
  107SAPE   H9X11052   0.734   4.781   4.289 -0.5740  0.2243  0.2071
  107SAPE   H9Y11053   0.790   4.813   4.122  1.6697  0.1609  2.2001
  107SAPE  C31011054   0.746   4.609   4.163 -0.4314  0.1076 -0.4164
  107SAPE  H10X11055   0.745   4.572   4.059  1.1896  0.9298 -0.7575
  107SAPE  H10Y11056   0.667   4.558   4.222 -0.5143  0.6982 -0.0038
  107SAPE  C31111057   0.886   4.579   4.214 -0.8717  0.2027  0.9129
  107SAPE  H11X11058   0.963   4.644   4.166 -1.4422  0.3689  0.2167
  107SAPE  H11Y11059   0.918   4.475   4.192  3.4487  2.0150 -2.9466
  107SAPE  C31211060   0.920   4.600   4.360  0.1455  0.6015 -0.2489
  107SAPE  H12X11061   0.907   4.704   4.397  1.2863  0.5327  0.4044
  107SAPE  H12Y11062   1.027   4.571   4.369 -0.1740 -0.8406 -0.7547
  107SAPE  C31311063   0.838   4.511   4.448 -0.5825 -0.4778 -0.4080
  107SAPE  H13X11064   0.851   4.408   4.408 -1.3334 -1.3577  1.4588
  107SAPE  H13Y11065   0.731   4.539   4.443 -1.0456 -2.2700 -1.4285
  107SAPE  C31411066   0.887   4.520   4.594 -0.3124  0.7130 -0.2712
  107SAPE  H14X11067   0.991   4.483   4.588 -0.5622 -0.5747  2.1391
  107SAPE  H14Y11068   0.830   4.450   4.659  0.2369 -0.3631 -0.9342
  107SAPE  C31511069   0.890   4.656   4.659  0.1817  0.5191 -0.3185
  107SAPE  H15X11070   0.786   4.697   4.661  0.9840  2.6839 -0.7655
  107SAPE  H15Y11071   0.956   4.725   4.603  0.9446 -0.3579 -0.5196
  107SAPE  C31611072   0.951   4.649   4.805 -0.2594  0.3587  0.2006
  107SAPE  H16X11073   1.041   4.584   4.810 -0.3018  0.3315  0.5936
  107SAPE  H16Y11074   0.891   4.610   4.889  0.8484 -0.4233  0.6539
  107SAPE  C31711075   1.012   4.781   4.841 -0.5480 -0.0837 -0.8476
  107SAPE  H17X11076   0.929   4.855   4.849  0.9762  1.8612 -2.1543
  107SAPE  H17Y11077   1.077   4.824   4.762  0.8470 -1.3258 -0.4390
  107SAPE  C31811078   1.094   4.776   4.975  0.8386  0.6765  0.2610
  107SAPE  H18X11079   1.123   4.875   5.016  0.4204  0.9332 -0.0540
  107SAPE  H18Y11080   1.188   4.719   4.956 -0.1706 -0.7725 -0.6314
  107SAPE  H18Z11081   1.040   4.725   5.058  0.2414  3.0036  1.3849
  108SAPE     N11082   0.126   5.469   2.453  0.3113 -0.9485  0.4679
  108SAPE   HN111083   0.133   5.367   2.472  1.8120 -0.4553  2.9685
  108SAPE   HN211084   0.051   5.488   2.383 -0.5856 -2.3522  1.0050
  108SAPE   HN311085   0.219   5.504   2.425 -0.3904  2.3178  1.7801
  108SAPE   C1211086   0.078   5.528   2.588 -0.1872 -0.8923  0.7397
  108SAPE  H12A11087   0.136   5.482   2.672 -1.9305 -2.6351  1.0690
  108SAPE  H12B11088  -0.032   5.518   2.602 -0.3636  2.6979  3.3943
  108SAPE   C1111089   0.104   5.680   2.594  0.0975 -0.0858 -0.3362
  108SAPE  H11A11090   0.208   5.697   2.560 -0.7494 -0.3621 -3.3488
  108SAPE  H11B11091   0.078   5.711   2.698  2.4027 -0.1700  0.3242
  108SAPE     P11092   0.013   5.904   2.514  0.0384  0.0978  0.2371
  108SAPE   O1311093   0.141   5.960   2.473  0.0032 -0.1196  0.6997
  108SAPE   O1411094  -0.109   5.950   2.447  0.3125  0.0753 -0.3888
  108SAPE   O1211095   0.023   5.748   2.500  0.0711 -0.3144  0.6275
  108SAPE   O1111096  -0.008   5.925   2.667  0.3720 -0.3347  0.2647
  108SAPE    C111097   0.029   6.050   2.731 -0.2695 -0.5850  0.2413
  108SAPE    HA11098   0.059   6.124   2.653  0.8428 -0.0214  1.1702
  108SAPE    HB11099  -0.056   6.099   2.782 -0.2890 -0.5954  0.2187
  108SAPE    C211100   0.156   6.032   2.822 -0.6414 -0.0041 -0.7338
  108SAPE    HS11101   0.227   5.970   2.764 -0.7533 -0.8299 -0.0043
  108SAPE   O2111102   0.106   5.965   2.940 -0.3103  0.5888 -0.1185
  108SAPE   C2111103   0.206   5.903   3.003  0.1383  0.3378 -0.3204
  108SAPE   O2211104   0.320   5.911   2.965 -0.6633  0.5261  0.7398
  108SAPE   C2211105   0.156   5.818   3.120 -0.1476 -0.1537 -0.3731
  108SAPE   H2R11106   0.046   5.823   3.126 -0.0155  1.0976  2.5531
  108SAPE   H2S11107   0.194   5.716   3.101  2.7399  0.6741  0.4243
  108SAPE    C311108   0.222   6.169   2.861  0.8115 -0.4350 -0.2080
  108SAPE    HX11109   0.271   6.212   2.771 -2.2370  1.1610 -1.2352
  108SAPE    HY11110   0.294   6.145   2.943 -0.8670 -2.2474  0.8173
  108SAPE   O3111111   0.119   6.257   2.902 -0.0126 -0.0998  0.0913
  108SAPE   C3111112   0.065   6.243   3.028  0.0456 -0.6976  0.3181
  108SAPE   O3211113   0.114   6.181   3.119 -0.2270  0.0326 -0.0969
  108SAPE   C3211114  -0.052   6.342   3.029  0.1569  0.2317 -0.1498
  108SAPE   H2X11115  -0.143   6.284   3.006  0.7170 -0.8493  0.2877
  108SAPE   H2Y11116  -0.020   6.426   2.963  2.2411  0.4575  1.0455
  108SAPE   C2311117   0.225   5.849   3.262 -0.6982 -0.2968  0.5416
  108SAPE   H3R11118   0.152   5.825   3.342 -0.4916  2.2578  1.5871
  108SAPE   H3S11119   0.244   5.958   3.268 -0.8234 -0.2744  0.5352
  108SAPE   C2411120   0.358   5.780   3.302 -0.3822  0.7958 -0.3321
  108SAPE   H4R11121   0.399   5.820   3.396  1.1262  0.1289 -0.6761
  108SAPE   H4S11122   0.427   5.804   3.218  1.1211 -0.5491  0.4574
  108SAPE   C2511123   0.340   5.630   3.313  0.7468 -0.4128 -0.8622
  108SAPE   H5R11124   0.235   5.596   3.308  0.5969  0.0333 -0.7921
  108SAPE   C2611125   0.441   5.541   3.324 -0.0366 -0.0017  0.4450
  108SAPE   H6R11126   0.424   5.435   3.346  1.7630 -0.4678 -0.2215
  108SAPE   C2711127   0.585   5.589   3.337  0.2423 -0.1314  0.2294
  108SAPE   H7R11128   0.601   5.627   3.440  0.6155  2.0899 -0.6082
  108SAPE   H7S11129   0.608   5.680   3.278 -2.3555 -0.0792 -0.8328
  108SAPE   C2811130   0.695   5.489   3.297 -0.6502  0.0227 -0.0939
  108SAPE   H8R11131   0.739   5.485   3.197  0.6220  1.3718  0.3804
  108SAPE   C2911132   0.732   5.388   3.377 -0.8478  0.1701  0.2310
  108SAPE   H9R11133   0.810   5.322   3.336 -1.1755 -0.3599  0.4515
  108SAPE  C21011134   0.696   5.365   3.523 -0.3263  0.4680 -0.5794
  108SAPE  H10R11135   0.625   5.438   3.568  2.0605  3.1703 -0.9159
  108SAPE  H10S11136   0.796   5.373   3.571  0.2101  0.4679 -1.6559
  108SAPE  C21111137   0.659   5.217   3.554 -0.9090 -0.3789  0.2799
  108SAPE  H11R11138   0.675   5.148   3.470 -0.9705  0.1665 -0.1811
  108SAPE  C21211139   0.589   5.169   3.658  0.4646  0.1212  0.7201
  108SAPE  H12R11140   0.573   5.060   3.665 -1.6377  0.3036 -0.2992
  108SAPE  C21311141   0.540   5.259   3.770  0.5862  0.4399 -0.1195
  108SAPE  H13R11142   0.430   5.248   3.773  0.5492  0.0340 -1.7687
  108SAPE  H13S11143   0.568   5.366   3.766  2.5891  0.0045  0.5984
  108SAPE  C21411144   0.607   5.222   3.901 -0.4566  0.1125 -0.0104
  108SAPE  H14R11145   0.708   5.181   3.889 -0.8702 -0.9649  0.0473
  108SAPE  C21511146   0.549   5.230   4.026  0.4298  0.0254  0.1478
  108SAPE  H15R11147   0.608   5.191   4.110  2.0820  1.2356 -0.3894
  108SAPE  C21611148   0.419   5.297   4.065  0.1601 -0.4446 -0.0265
  108SAPE  H16R11149   0.358   5.226   4.124  0.5638 -1.1170 -0.4030
  108SAPE  H16S11150   0.351   5.304   3.977 -0.9737  1.1369  0.9370
  108SAPE  C21711151   0.438   5.429   4.141  0.6643 -0.3349 -0.3689
  108SAPE  H17R11152   0.480   5.503   4.070 -0.8404 -0.7033 -1.7039
  108SAPE  H17S11153   0.516   5.412   4.218 -1.0234 -1.6329  1.1398
  108SAPE  C21811154   0.312   5.489   4.205  0.0203  0.1134  0.2995
  108SAPE  H18R11155   0.329   5.594   4.237 -0.2001  0.5571 -0.9984
  108SAPE  H18S11156   0.289   5.429   4.295  0.5059  0.1561  0.4536
  108SAPE  C21911157   0.189   5.506   4.112 -0.0862 -0.0348 -0.0902
  108SAPE  H19R11158   0.161   5.423   4.045  0.4170 -2.0438  2.0677
  108SAPE  H19S11159   0.208   5.587   4.038 -0.1952 -0.9471 -1.1339
  108SAPE  C22011160   0.065   5.545   4.187 -0.0388  0.4899  0.0951
  108SAPE  H20R11161  -0.020   5.560   4.117  0.1757  2.0947  0.1436
  108SAPE  H20S11162   0.082   5.642   4.239 -1.5101  0.0341  1.5315
  108SAPE  H20T11163   0.041   5.467   4.263  0.1721  1.1306  0.8304
  108SAPE   C3311164  -0.070   6.405   3.164  0.2721 -0.0687 -0.3134
  108SAPE   H3X11165  -0.089   6.339   3.251  1.4309  2.9240  2.4180
  108SAPE   H3Y11166  -0.165   6.460   3.153  0.6514  0.1813 -3.0787
  108SAPE   C3411167   0.040   6.506   3.202  0.4612  1.2663 -0.0857
  108SAPE   H4X11168   0.062   6.566   3.111 -2.0194  2.1632 -0.1768
  108SAPE   H4Y11169   0.133   6.447   3.218 -0.7688 -0.5632  0.5540
  108SAPE   C3511170   0.029   6.592   3.321 -0.5176 -0.0067  0.1472
  108SAPE   H5X11171   0.127   6.642   3.339  0.2907 -2.2770  2.8526
  108SAPE   H5Y11172  -0.049   6.668   3.296  0.7255  1.3232  0.1751
  108SAPE   C3611173  -0.017   6.509   3.439 -0.2493 -0.3198  0.5374
  108SAPE   H6X11174   0.051   6.423   3.456  1.1423  0.9402  1.7041
  108SAPE   H6Y11175  -0.115   6.464   3.414 -0.0496 -0.6705  0.3887
  108SAPE   C3711176  -0.021   6.582   3.580  0.5135  0.8069 -0.1007
  108SAPE   H7X11177  -0.117   6.639   3.578  0.1681  0.3216  1.4827
  108SAPE   H7Y11178   0.066   6.651   3.589 -0.3415  2.0953 -1.1558
  108SAPE   C3811179  -0.027   6.481   3.698 -0.8544 -0.0582 -0.4269
  108SAPE   H8X11180   0.072   6.439   3.723 -0.2861  0.4565 -1.7091
  108SAPE   H8Y11181  -0.077   6.391   3.656  0.1021 -0.3576 -0.9608
  108SAPE   C3911182  -0.109   6.538   3.821 -0.0299 -0.2367  0.0533
  108SAPE   H9X11183  -0.210   6.575   3.796 -0.3916 -0.4525  1.1199
  108SAPE   H9Y11184  -0.056   6.621   3.872  0.4308  0.8979 -2.1539
  108SAPE  C31011185  -0.140   6.429   3.931 -0.6971  0.1347  0.4196
  108SAPE  H10X11186  -0.042   6.388   3.962 -0.1383  1.1354  0.0351
  108SAPE  H10Y11187  -0.187   6.338   3.889  0.9323 -1.1230  1.2016
  108SAPE  C31111188  -0.215   6.478   4.052 -0.0319 -0.1044  0.6013
  108SAPE  H11X11189  -0.300   6.536   4.009 -1.4311 -1.0790  1.9395
  108SAPE  H11Y11190  -0.155   6.553   4.108  0.5607  1.3150 -1.7629
  108SAPE  C31211191  -0.260   6.357   4.129 -1.1356  0.2694  0.1719
  108SAPE  H12X11192  -0.170   6.300   4.160 -0.2700  1.7969  0.5346
  108SAPE  H12Y11193  -0.321   6.284   4.071  1.0476 -0.4957 -1.2968
  108SAPE  C31311194  -0.342   6.407   4.244 -0.1756  0.0659 -0.2446
  108SAPE  H13X11195  -0.426   6.464   4.199 -1.3190 -0.3135  1.3172
  108SAPE  H13Y11196  -0.289   6.476   4.314 -1.3696 -0.1647  0.9134
  108SAPE  C31411197  -0.406   6.304   4.329  0.3714  0.9407 -0.2442
  108SAPE  H14X11198  -0.414   6.207   4.275 -1.8034 -0.7159  2.7313
  108SAPE  H14Y11199  -0.505   6.344   4.359 -0.3933 -0.4813 -0.7794
  108SAPE  C31511200  -0.312   6.259   4.443 -0.0755  0.0573 -0.2091
  108SAPE  H15X11201  -0.343   6.327   4.526 -1.3318  2.4187 -2.4724
  108SAPE  H15Y11202  -0.206   6.285   4.423 -0.0162 -0.9649 -1.3298
  108SAPE  C31611203  -0.334   6.113   4.499 -0.4909 -0.2945 -0.4384
  108SAPE  H16X11204  -0.262   6.105   4.583  0.0382  0.5911 -0.7881
  108SAPE  H16Y11205  -0.306   6.039   4.421 -0.1396 -1.0779  0.4195
  108SAPE  C31711206  -0.469   6.082   4.564 -0.0834 -0.0052 -0.5286
  108SAPE  H17X11207  -0.551   6.114   4.496 -0.1617  0.7724 -0.0734
  108SAPE  H17Y11208  -0.487   6.145   4.653 -0.8553  0.0445 -0.7083
  108SAPE  C31811209  -0.497   5.935   4.589 -0.2251 -0.1019 -0.1581
  108SAPE  H18X11210  -0.565   5.936   4.677  2.4044  3.1967  2.0711
  108SAPE  H18Y11211  -0.410   5.874   4.618 -0.6196  0.4491  2.4567
  108SAPE  H18Z11212  -0.544   5.887   4.500 -1.0367  0.2502  0.0715
  109SAPE     N11213   4.145   4.166   2.676 -0.2354  0.3238  0.3702
  109SAPE   HN111214   4.231   4.110   2.661 -1.8607 -1.7406 -1.8673
  109SAPE   HN211215   4.059   4.121   2.638 -0.0795  0.7081 -0.4636
  109SAPE   HN311216   4.161   4.261   2.636 -1.0272  0.1460 -0.3894
  109SAPE   C1211217   4.124   4.177   2.819  0.2426 -0.5576  0.0319
  109SAPE  H12A11218   4.200   4.247   2.858  0.0224  0.4134 -1.2089
  109SAPE  H12B11219   4.130   4.079   2.871 -0.2621 -1.1026 -0.9094
  109SAPE   C1111220   3.976   4.220   2.848 -0.1712 -0.0634  0.2337
  109SAPE  H11A11221   3.974   4.220   2.959  1.0408 -0.8820  0.2745
  109SAPE  H11B11222   3.906   4.139   2.816  0.3209 -1.3005  2.1475
  109SAPE     P11223   3.834   4.394   2.694  0.0645 -0.2825  0.4327
  109SAPE   O1311224   3.855   4.536   2.659 -0.3530  0.0538  0.0728
  109SAPE   O1411225   3.816   4.299   2.582  0.3021 -0.0901  0.1665
  109SAPE   O1211226   3.949   4.352   2.800  0.2514 -0.0618  0.1534
  109SAPE   O1111227   3.708   4.383   2.784  0.2935 -0.3180  0.1302
  109SAPE    C111228   3.684   4.473   2.890 -0.5143  0.3715  0.2313
  109SAPE    HA11229   3.776   4.514   2.936  1.7731 -1.3803 -2.4661
  109SAPE    HB11230   3.615   4.553   2.856  0.1903  0.3284 -1.3559
  109SAPE    C211231   3.612   4.403   3.012  1.3507  1.0908  0.4357
  109SAPE    HS11232   3.518   4.360   2.972 -0.2306  4.1225  0.5799
  109SAPE   O2111233   3.596   4.509   3.112  0.1252  0.2875  0.6564
  109SAPE   C2111234   3.476   4.516   3.152  0.0856  0.0100  0.4092
  109SAPE   O2211235   3.382   4.449   3.110  0.4542  0.0498 -0.3157
  109SAPE   C2211236   3.468   4.635   3.238 -0.3478 -0.3900 -0.3649
  109SAPE   H2R11237   3.566   4.679   3.266 -0.1954 -1.7732  1.4234
  109SAPE   H2S11238   3.413   4.716   3.186  0.7575 -0.5282 -1.7977
  109SAPE    C311239   3.705   4.298   3.061  0.8826 -0.2998 -0.1427
  109SAPE    HX11240   3.808   4.328   3.092  0.4051  0.2149  0.9882
  109SAPE    HY11241   3.712   4.230   2.974 -0.1210 -1.5241  0.7021
  109SAPE   O3111242   3.649   4.228   3.178 -0.0249  0.6757  0.1301
  109SAPE   C3111243   3.545   4.136   3.164 -0.7883  0.7188 -0.3958
  109SAPE   O3211244   3.512   4.085   3.058  0.2166  0.7562  0.3320
  109SAPE   C3211245   3.508   4.084   3.303  0.1722  0.0638  0.8554
  109SAPE   H2X11246   3.421   4.147   3.333  0.0043  0.7750 -0.9928
  109SAPE   H2Y11247   3.595   4.103   3.369  0.0628 -0.7339  1.2414
  109SAPE   C2311248   3.408   4.596   3.373  0.2068 -0.1804 -0.2037
  109SAPE   H3R11249   3.304   4.558   3.367  1.2336 -3.5541  1.0358
  109SAPE   H3S11250   3.410   4.692   3.430 -0.7414 -0.0386 -0.3863
  109SAPE   C2411251   3.480   4.481   3.451 -0.3648 -0.5919 -0.4661
  109SAPE   H4R11252   3.453   4.400   3.380 -0.3438 -0.7324 -0.3144
  109SAPE   H4S11253   3.439   4.477   3.554 -1.3646  1.5838 -0.7173
  109SAPE   C2511254   3.634   4.492   3.458 -0.2450  0.4115 -0.3255
  109SAPE   H5R11255   3.695   4.443   3.380 -0.1769 -0.5713  0.3223
  109SAPE   C2611256   3.706   4.556   3.550 -0.0987 -0.3926  0.4331
  109SAPE   H6R11257   3.815   4.543   3.548  0.1011  1.0696 -1.8529
  109SAPE   C2711258   3.643   4.639   3.661  0.2969 -0.7121 -0.0632
  109SAPE   H7R11259   3.555   4.687   3.613 -0.9924 -0.8860  1.9839
  109SAPE   H7S11260   3.713   4.720   3.690 -0.0107 -0.5360  0.1944
  109SAPE   C2811261   3.607   4.564   3.792  0.1866  0.0241  0.5651
  109SAPE   H8R11262   3.670   4.478   3.818 -0.2506 -0.8524 -1.1992
  109SAPE   C2911263   3.506   4.603   3.871 -0.1524 -0.1289  0.0952
  109SAPE   H9R11264   3.478   4.553   3.965  0.1048  1.7443  1.2272
  109SAPE  C21011265   3.419   4.733   3.855 -0.0042 -0.4029 -0.0384
  109SAPE  H10R11266   3.471   4.808   3.791  0.2492  0.8500  1.5709
  109SAPE  H10S11267   3.415   4.794   3.947 -0.0968 -2.0033  1.0556
  109SAPE  C21111268   3.275   4.717   3.811  0.0145 -0.2647  0.0324
  109SAPE  H11R11269   3.211   4.641   3.858  0.3101 -0.4194  0.1892
  109SAPE  C21211270   3.212   4.800   3.724 -0.2946  0.3311  0.3083
  109SAPE  H12R11271   3.105   4.782   3.712 -0.1749 -0.1898 -0.0100
  109SAPE  C21311272   3.261   4.924   3.643 -0.7854 -0.4578 -0.1372
  109SAPE  H13R11273   3.310   4.898   3.546 -2.7687 -0.4837 -1.1917
  109SAPE  H13S11274   3.338   4.980   3.700 -2.2183  1.7110 -0.1993
  109SAPE  C21411275   3.154   5.038   3.623 -0.9231  0.3946  0.2580
  109SAPE  H14R11276   3.132   5.052   3.517 -1.1251 -0.1202  0.2296
  109SAPE  C21511277   3.105   5.126   3.713  0.3684  0.4217 -0.2188
  109SAPE  H15R11278   3.029   5.196   3.674  1.0656  0.4450 -1.6159
  109SAPE  C21611279   3.139   5.123   3.858  0.1578  0.2497 -0.2828
  109SAPE  H16R11280   3.222   5.052   3.877 -1.7694 -2.5663 -1.5532
  109SAPE  H16S11281   3.054   5.077   3.913 -0.9378 -0.4066 -2.3842
  109SAPE  C21711282   3.156   5.264   3.904  0.3398  0.7719  0.1713
  109SAPE  H17R11283   3.066   5.323   3.877  1.5861  1.7405 -2.1877
  109SAPE  H17S11284   3.241   5.315   3.854  0.1293  0.6850 -0.2840
  109SAPE  C21811285   3.177   5.285   4.060 -0.8803  0.4691  0.1417
  109SAPE  H18R11286   3.205   5.392   4.066  2.4040 -0.2828  0.0152
  109SAPE  H18S11287   3.268   5.228   4.087 -0.5968 -0.4636 -2.4442
  109SAPE  C21911288   3.060   5.248   4.141  0.0779  0.1204  0.0786
  109SAPE  H19R11289   3.017   5.147   4.124 -0.0428  0.0996  0.4944
  109SAPE  H19S11290   2.972   5.315   4.130  0.9028  0.9285 -2.0362
  109SAPE  C22011291   3.103   5.251   4.288 -0.0959  0.3450 -0.6575
  109SAPE  H20R11292   3.016   5.233   4.355 -0.8363  1.4216 -1.2989
  109SAPE  H20S11293   3.147   5.352   4.308  0.3181  0.2531 -1.0974
  109SAPE  H20T11294   3.183   5.174   4.284 -1.2515 -0.9040 -4.8287
  109SAPE   C3311295   3.478   3.934   3.294  0.4744  0.4440  0.4695
  109SAPE   H3X11296   3.413   3.915   3.205  1.4650  1.1020 -0.4129
  109SAPE   H3Y11297   3.416   3.904   3.381 -0.5495  1.0267 -0.0415
  109SAPE   C3411298   3.602   3.848   3.258  0.2676 -0.0347  0.8072
  109SAPE   H4X11299   3.693   3.902   3.292  0.8648 -0.4594 -0.0762
  109SAPE   H4Y11300   3.610   3.846   3.147  1.7445 -0.0018  0.8903
  109SAPE   C3511301   3.587   3.694   3.295  0.5775 -0.8340 -0.0464
  109SAPE   H5X11302   3.652   3.638   3.226 -0.0879 -2.3883  0.5382
  109SAPE   H5Y11303   3.481   3.663   3.279 -0.0896 -0.0151  2.3015
  109SAPE   C3611304   3.632   3.669   3.442 -0.0561  0.4372  0.0001
  109SAPE   H6X11305   3.629   3.561   3.465  2.0733  0.9277  3.3282
  109SAPE   H6Y11306   3.561   3.727   3.505  0.3186  0.0086  0.8340
  109SAPE   C3711307   3.778   3.708   3.474 -0.3072 -0.1363 -0.3453
  109SAPE   H7X11308   3.805   3.799   3.416 -1.2844 -0.8395 -1.9780
  109SAPE   H7Y11309   3.837   3.623   3.433  0.7319  0.5531 -0.3199
  109SAPE   C3811310   3.820   3.720   3.626  0.0467  0.1961 -0.8106
  109SAPE   H8X11311   3.930   3.728   3.639 -0.1979  2.2499  0.3481
  109SAPE   H8Y11312   3.779   3.633   3.682  0.9628 -0.1609 -0.6754
  109SAPE   C3911313   3.762   3.842   3.697 -0.7042 -0.1339  0.2542
  109SAPE   H9X11314   3.653   3.833   3.678 -0.9694  1.2469  0.9794
  109SAPE   H9Y11315   3.798   3.939   3.656 -0.5393 -0.3580 -0.1337
  109SAPE  C31011316   3.796   3.854   3.843 -0.0076  0.0154 -0.2487
  109SAPE  H10X11317   3.906   3.846   3.857  0.2224  2.6432  0.0341
  109SAPE  H10Y11318   3.765   3.763   3.899  2.1559 -1.2136 -0.9137
  109SAPE  C31111319   3.737   3.973   3.908  0.0169 -0.6561  0.0042
  109SAPE  H11X11320   3.763   4.059   3.843 -0.3253 -0.7336 -0.2378
  109SAPE  H11Y11321   3.796   3.990   4.001  0.2308 -3.1345  0.3916
  109SAPE  C31211322   3.590   3.963   3.931  0.6261  0.1206  0.2599
  109SAPE  H12X11323   3.573   3.898   4.019 -0.8194 -0.6199 -0.5224
  109SAPE  H12Y11324   3.552   3.918   3.836  0.5359  0.3905  0.1663
  109SAPE  C31311325   3.526   4.097   3.947 -0.9190 -0.2606 -0.1483
  109SAPE  H13X11326   3.420   4.073   3.924 -0.2451 -2.6105 -1.0221
  109SAPE  H13Y11327   3.573   4.172   3.880 -1.4663  1.0187  0.8353
  109SAPE  C31411328   3.547   4.140   4.094 -0.5037  0.1800  0.0993
  109SAPE  H14X11329   3.655   4.162   4.109 -0.0044 -1.9249 -0.0907
  109SAPE  H14Y11330   3.524   4.058   4.166 -0.3282  1.6690  1.9317
  109SAPE  C31511331   3.471   4.265   4.142 -0.2408  0.0050  0.2287
  109SAPE  H15X11332   3.364   4.237   4.153 -0.6578  1.2717 -0.3189
  109SAPE  H15Y11333   3.474   4.356   4.077 -3.6996 -0.2780 -0.5055
  109SAPE  C31611334   3.520   4.317   4.273  0.0865  0.5256 -0.2597
  109SAPE  H16X11335   3.554   4.232   4.334  0.3616  0.0164 -1.1045
  109SAPE  H16Y11336   3.458   4.394   4.324  0.8243  0.2099  1.1614
  109SAPE  C31711337   3.646   4.407   4.251  0.1707 -0.3785 -0.1701
  109SAPE  H17X11338   3.614   4.480   4.174  1.7675 -0.5853 -1.0706
  109SAPE  H17Y11339   3.724   4.351   4.194 -0.5149 -0.5072 -0.9953
  109SAPE  C31811340   3.702   4.486   4.368  0.4843  0.0112  0.4746
  109SAPE  H18X11341   3.629   4.560   4.408 -0.5249 -0.0315 -1.1792
  109SAPE  H18Y11342   3.792   4.543   4.336  0.7372 -0.8602 -0.4278
  109SAPE  H18Z11343   3.738   4.417   4.447 -0.4839  1.4335  2.2365
  110SAPE     N11344   1.438   1.809   2.308  0.3020  0.0322 -0.0397
  110SAPE   HN111345   1.534   1.820   2.268  1.1247 -2.8855  0.9026
  110SAPE   HN211346   1.392   1.753   2.233  2.6084  2.3251 -3.5018
  110SAPE   HN311347   1.395   1.903   2.317 -0.2242 -0.1580 -0.4831
  110SAPE   C1211348   1.430   1.738   2.440 -0.1338 -1.1632 -0.3277
  110SAPE  H12A11349   1.328   1.695   2.452 -0.1209 -1.1278 -0.0860
  110SAPE  H12B11350   1.445   1.812   2.521  0.3612 -0.7279 -0.8136
  110SAPE   C1111351   1.536   1.632   2.444 -0.0825 -0.0427 -0.1709
  110SAPE  H11A11352   1.502   1.557   2.369 -1.2695 -0.2420  0.5343
  110SAPE  H11B11353   1.537   1.589   2.546  0.7638  1.0309  0.2827
  110SAPE     P11354   1.770   1.639   2.313 -0.0259 -0.3271 -0.4116
  110SAPE   O1311355   1.712   1.644   2.175 -0.0630 -0.6243 -0.6347
  110SAPE   O1411356   1.898   1.703   2.341 -0.4810  0.8281  0.1586
  110SAPE   O1211357   1.658   1.695   2.412 -0.2040 -0.4016  0.1985
  110SAPE   O1111358   1.778   1.482   2.359  0.0922 -0.3561  0.0466
  110SAPE    C111359   1.871   1.402   2.296  0.3693 -0.2336 -0.3913
  110SAPE    HA11360   1.812   1.323   2.245 -1.1114 -0.7881  1.9933
  110SAPE    HB11361   1.933   1.447   2.216 -0.0380  0.0723 -0.5357
  110SAPE    C211362   1.961   1.316   2.399 -0.4603 -1.2398 -0.6873
  110SAPE    HS11363   2.009   1.224   2.361  1.3829 -0.0021 -1.4830
  110SAPE   O2111364   1.902   1.280   2.525  0.1740 -0.1510  0.0229
  110SAPE   C2111365   1.796   1.193   2.510  0.3808 -0.4672 -0.2861
  110SAPE   O2211366   1.748   1.147   2.405  0.3581  0.3190 -0.1909
  110SAPE   C2211367   1.712   1.192   2.640 -0.1804 -0.5139 -0.6434
  110SAPE   H2R11368   1.632   1.118   2.618 -0.5897 -0.9361  1.9229
  110SAPE   H2S11369   1.776   1.156   2.724 -0.3986  0.3722 -0.0848
  110SAPE    C311370   2.095   1.394   2.431  0.4740  0.5587  0.3148
  110SAPE    HX11371   2.153   1.395   2.336 -1.7390  0.8698 -1.1182
  110SAPE    HY11372   2.064   1.495   2.465  1.7984  1.0642  0.0692
  110SAPE   O3111373   2.171   1.330   2.530  0.0466  0.8258  0.5259
  110SAPE   C3111374   2.286   1.389   2.553  0.5019 -0.0348  0.0507
  110SAPE   O3211375   2.329   1.485   2.491 -0.5992 -0.0133  0.3283
  110SAPE   C3211376   2.357   1.330   2.671 -0.0242  0.0047  0.2769
  110SAPE   H2X11377   2.433   1.251   2.652 -0.8509 -0.7166 -0.0722
  110SAPE   H2Y11378   2.278   1.289   2.737 -1.7915  0.8225 -1.2609
  110SAPE   C2311379   1.667   1.337   2.676 -0.0024  0.3503  0.3632
  110SAPE   H3R11380   1.598   1.373   2.597  0.9723  0.8689 -0.2699
  110SAPE   H3S11381   1.748   1.413   2.685  0.7775 -0.5262  0.8352
  110SAPE   C2411382   1.602   1.344   2.808  0.3730 -0.2357 -0.0232
  110SAPE   H4R11383   1.591   1.449   2.841 -1.1131 -0.1268 -0.7904
  110SAPE   H4S11384   1.671   1.297   2.882 -0.1118 -1.6918 -0.4520
  110SAPE   C2511385   1.461   1.287   2.824  0.8628  0.3006  0.1216
  110SAPE   H5R11386   1.377   1.351   2.794 -1.4079 -1.4799  2.2892
  110SAPE   C2611387   1.432   1.160   2.852  0.3592 -0.1526  0.4256
  110SAPE   H6R11388   1.328   1.127   2.855  0.4274 -0.6037 -1.2608
  110SAPE   C2711389   1.529   1.052   2.892 -0.2891  0.3851  0.4317
  110SAPE   H7R11390   1.631   1.087   2.921  0.4939 -1.5831  0.2809
  110SAPE   H7S11391   1.551   0.976   2.813  0.2145  0.9391  0.0316
  110SAPE   C2811392   1.477   0.982   3.017  0.4175 -0.1201  0.2129
  110SAPE   H8R11393   1.406   1.037   3.081 -2.3570 -2.5457 -0.5432
  110SAPE   C2911394   1.531   0.870   3.070 -0.1098  0.0765 -0.2722
  110SAPE   H9R11395   1.479   0.833   3.159  1.5633 -4.0944 -0.7705
  110SAPE  C21011396   1.642   0.780   3.019  0.3311 -0.3536  0.1090
  110SAPE  H10R11397   1.741   0.817   3.054  0.7409  1.0416 -2.2775
  110SAPE  H10S11398   1.644   0.778   2.908  1.3938 -1.9683  0.1328
  110SAPE  C21111399   1.621   0.631   3.037  0.6378  0.3233 -0.0213
  110SAPE  H11R11400   1.546   0.573   2.981  0.4877  0.6577 -0.1635
  110SAPE  C21211401   1.687   0.556   3.124 -0.6687  0.3111 -0.0801
  110SAPE  H12R11402   1.652   0.453   3.136  1.3110 -0.3511  0.4406
  110SAPE  C21311403   1.792   0.608   3.219 -0.6862 -0.3209  0.5076
  110SAPE  H13R11404   1.778   0.715   3.242  1.0005 -0.2051  1.1154
  110SAPE  H13S11405   1.894   0.594   3.176 -0.7714  1.1285 -0.2308
  110SAPE  C21411406   1.805   0.527   3.347  0.4782  0.0675  0.0329
  110SAPE  H14R11407   1.876   0.444   3.348  0.4295 -0.0699 -2.5220
  110SAPE  C21511408   1.723   0.535   3.455 -0.6296 -0.1659  0.7051
  110SAPE  H15R11409   1.748   0.480   3.547 -2.1441  1.6845  2.3033
  110SAPE  C21611410   1.618   0.647   3.465 -0.0030  0.6483  0.3479
  110SAPE  H16R11411   1.536   0.610   3.531  0.5780 -0.1544  0.6354
  110SAPE  H16S11412   1.574   0.666   3.365  3.8534 -0.5822 -1.7896
  110SAPE  C21711413   1.679   0.775   3.527 -0.1310  0.1726  0.0663
  110SAPE  H17R11414   1.782   0.797   3.493  0.2146  0.6308  1.3535
  110SAPE  H17S11415   1.707   0.749   3.631  1.4114 -1.2127 -0.6413
  110SAPE  C21811416   1.591   0.900   3.522  1.4624 -0.0734 -0.2186
  110SAPE  H18R11417   1.495   0.882   3.576 -0.2792  2.1073 -2.3612
  110SAPE  H18S11418   1.570   0.923   3.416 -1.9159  4.0526  1.0547
  110SAPE  C21911419   1.650   1.026   3.591  0.1727 -0.1548 -0.2599
  110SAPE  H19R11420   1.747   1.041   3.541  0.8243 -0.6337  0.8287
  110SAPE  H19S11421   1.673   0.991   3.694  3.7563  0.3288 -0.7823
  110SAPE  C22011422   1.563   1.153   3.585 -0.8472  0.1808 -0.3577
  110SAPE  H20R11423   1.475   1.128   3.648  1.3090 -1.9718  2.0207
  110SAPE  H20S11424   1.536   1.192   3.484 -0.3221 -0.0316 -0.5823
  110SAPE  H20T11425   1.607   1.240   3.638 -1.5498  0.2574  0.1070
  110SAPE   C3311426   2.427   1.441   2.759  0.2114  0.2560  0.3096
  110SAPE   H3X11427   2.362   1.529   2.777 -0.6588 -0.4674  0.7353
  110SAPE   H3Y11428   2.517   1.479   2.706  0.4244  0.2810  0.6803
  110SAPE   C3411429   2.463   1.390   2.898 -0.0083  0.5909  0.1808
  110SAPE   H4X11430   2.385   1.327   2.946  1.2207 -0.0538  1.4018
  110SAPE   H4Y11431   2.498   1.472   2.965  2.7538 -0.4030  0.0994
  110SAPE   C3511432   2.576   1.290   2.887  0.4100  0.2577  0.2095
  110SAPE   H5X11433   2.628   1.326   2.795  0.1048 -2.6769 -1.2240
  110SAPE   H5Y11434   2.535   1.188   2.874 -0.3716  0.5908 -0.0028
  110SAPE   C3611435   2.678   1.295   3.005 -0.7526 -1.1559 -0.2873
  110SAPE   H6X11436   2.709   1.397   3.035 -1.5623 -1.4129  1.5846
  110SAPE   H6Y11437   2.770   1.239   2.979  0.0764  0.8380 -1.9233
  110SAPE   C3711438   2.628   1.232   3.132  0.3405  0.2749 -0.2071
  110SAPE   H7X11439   2.558   1.149   3.111  0.7165 -0.7226  2.1821
  110SAPE   H7Y11440   2.562   1.313   3.171  1.7426 -0.0383  3.1831
  110SAPE   C3811441   2.736   1.193   3.235  0.7220  0.3441 -0.2470
  110SAPE   H8X11442   2.799   1.272   3.282  1.2898 -1.1502  1.6156
  110SAPE   H8Y11443   2.814   1.142   3.175 -2.0657 -2.2269 -1.9198
  110SAPE   C3911444   2.679   1.123   3.361 -0.2670  0.0658  0.4509
  110SAPE   H9X11445   2.655   1.022   3.322 -0.1443  0.5625 -0.9969
  110SAPE   H9Y11446   2.596   1.179   3.408 -1.8921  0.1825 -2.3169
  110SAPE  C31011447   2.787   1.075   3.454 -0.3572  0.7017  0.4338
  110SAPE  H10X11448   2.842   1.157   3.504  2.0547  0.9110 -2.2645
  110SAPE  H10Y11449   2.864   1.017   3.399 -0.5062  0.3760  0.5673
  110SAPE  C31111450   2.721   0.991   3.568  0.0642 -0.4886  0.0474
  110SAPE  H11X11451   2.799   0.914   3.587 -1.2454 -1.6080  1.0411
  110SAPE  H11Y11452   2.632   0.938   3.528  0.3395  0.9622 -2.7468
  110SAPE  C31211453   2.679   1.061   3.696 -0.0379  0.2391  0.0781
  110SAPE  H12X11454   2.590   1.124   3.676 -0.3144  0.2953  1.3932
  110SAPE  H12Y11455   2.762   1.117   3.742  0.4854  0.3026 -0.9128
  110SAPE  C31311456   2.630   0.948   3.790 -0.0414 -0.3649  0.0727
  110SAPE  H13X11457   2.725   0.897   3.819  0.0596  0.7789  1.9512
  110SAPE  H13Y11458   2.570   0.873   3.736 -0.9628 -0.4360  1.1615
  110SAPE  C31411459   2.560   0.993   3.926 -0.7535  0.6203 -0.0649
  110SAPE  H14X11460   2.527   0.907   3.988  1.6815 -1.1081 -1.0088
  110SAPE  H14Y11461   2.471   1.053   3.895 -0.8985 -0.3798 -1.6789
  110SAPE  C31511462   2.635   1.087   4.023 -0.3968 -0.0076  0.9064
  110SAPE  H15X11463   2.692   1.166   3.969 -0.4953 -1.0760 -0.8489
  110SAPE  H15Y11464   2.713   1.031   4.078  0.9161  0.0149 -0.8357
  110SAPE  C31611465   2.548   1.142   4.128  0.3138 -0.0522  0.0564
  110SAPE  H16X11466   2.467   1.076   4.167  1.0630 -1.5224 -0.7992
  110SAPE  H16Y11467   2.496   1.233   4.091  3.3125  1.3389 -1.0212
  110SAPE  C31711468   2.620   1.182   4.256  0.1290 -0.3985  0.3837
  110SAPE  H17X11469   2.676   1.277   4.239  1.7051 -1.3256  0.1342
  110SAPE  H17Y11470   2.693   1.105   4.289  0.1148 -0.1187  1.0876
  110SAPE  C31811471   2.530   1.227   4.377  0.0365  0.2274  0.9248
  110SAPE  H18X11472   2.466   1.305   4.330  0.1408  0.5976  1.3912
  110SAPE  H18Y11473   2.588   1.269   4.462  0.6755  0.2934  0.4550
  110SAPE  H18Z11474   2.480   1.136   4.417  2.7510 -0.5276  2.8870
  111SAPE     N11475   1.718   2.095   2.655  0.5155 -0.0795  0.2844
  111SAPE   HN111476   1.795   2.110   2.722  1.0161 -0.4407 -0.2076
  111SAPE   HN211477   1.704   1.995   2.631 -0.1919  0.7159 -3.2279
  111SAPE   HN311478   1.751   2.135   2.565 -1.6272  0.0878 -0.5088
  111SAPE   C1211479   1.600   2.163   2.717  0.7491 -0.2085 -0.2796
  111SAPE  H12A11480   1.591   2.267   2.682 -0.8802 -0.5887 -1.0812
  111SAPE  H12B11481   1.620   2.162   2.827  0.0709 -0.7045 -0.1556
  111SAPE   C1111482   1.468   2.095   2.678  0.3058  1.3336  0.3709
  111SAPE  H11A11483   1.389   2.144   2.738  1.0343 -1.1484  3.5977
  111SAPE  H11B11484   1.461   1.988   2.706 -2.5577  1.7808  1.6625
  111SAPE     P11485   1.293   2.091   2.483  0.5478 -0.0727  0.3861
  111SAPE   O1311486   1.224   2.220   2.503 -0.5414 -0.1355 -0.1301
  111SAPE   O1411487   1.289   2.033   2.349  0.0972 -0.2829 -0.6213
  111SAPE   O1211488   1.441   2.104   2.536 -0.2352 -0.6115  0.4814
  111SAPE   O1111489   1.242   1.980   2.588 -0.2283 -0.1652  0.4413
  111SAPE    C111490   1.119   1.923   2.567  0.1829  0.5299  0.2860
  111SAPE    HA11491   1.094   1.918   2.458  1.7598 -0.1519 -0.0772
  111SAPE    HB11492   1.122   1.817   2.597 -0.3549  0.5035  0.2427
  111SAPE    C211493   1.014   1.978   2.669 -0.1664  0.7080  0.2434
  111SAPE    HS11494   1.004   2.085   2.639 -0.1962  1.2604  2.1045
  111SAPE   O2111495   1.064   1.962   2.805  0.1410 -0.1835 -0.1731
  111SAPE   C2111496   1.016   2.050   2.890 -0.3622 -0.6482  0.0592
  111SAPE   O2211497   0.943   2.149   2.863 -0.4463 -0.3233 -0.1672
  111SAPE   C2211498   1.036   1.991   3.029 -0.4841 -0.5807 -0.4464
  111SAPE   H2R11499   0.939   1.992   3.084  0.1305 -0.1887  0.6572
  111SAPE   H2S11500   1.067   1.885   3.025 -2.4234 -1.3285  1.9081
  111SAPE    C311501   0.882   1.903   2.648  0.7825 -0.0585 -0.3636
  111SAPE    HX11502   0.916   1.800   2.671  1.2425  0.1555 -0.0657
  111SAPE    HY11503   0.855   1.910   2.540  2.1418  0.1565 -0.6994
  111SAPE   O3111504   0.771   1.931   2.739 -0.2342  0.2278  0.7621
  111SAPE   C3111505   0.691   2.029   2.695 -0.3317  0.3100  0.1995
  111SAPE   O3211506   0.720   2.100   2.600  0.1117 -0.6590 -0.0558
  111SAPE   C3211507   0.559   2.024   2.769  0.5822  0.3709 -0.1010
  111SAPE   H2X11508   0.478   2.000   2.697 -0.7150  3.2145  0.2839
  111SAPE   H2Y11509   0.533   2.129   2.797  0.7289  0.4160 -0.1310
  111SAPE   C2311510   1.127   2.095   3.112  0.5768 -0.0813 -0.1007
  111SAPE   H3R11511   1.079   2.195   3.110  2.0152  0.7327  2.0219
  111SAPE   H3S11512   1.220   2.094   3.052 -0.3625 -0.4139 -1.5887
  111SAPE   C2411513   1.168   2.050   3.256 -0.2777  0.5811  0.4723
  111SAPE   H4R11514   1.218   1.951   3.253 -1.8154 -0.2201  0.2276
  111SAPE   H4S11515   1.073   2.026   3.310  0.7019 -0.3336  1.8674
  111SAPE   C2511516   1.261   2.146   3.326 -0.2874 -0.0356 -0.2161
  111SAPE   H5R11517   1.354   2.163   3.272 -0.1413  1.0880  0.3525
  111SAPE   C2611518   1.243   2.213   3.448  0.2961 -0.4508  0.0260
  111SAPE   H6R11519   1.317   2.285   3.488 -1.6579  0.6630  1.8382
  111SAPE   C2711520   1.122   2.204   3.544 -0.4354  0.3715  0.2698
  111SAPE   H7R11521   1.034   2.150   3.503 -0.6635 -0.3819  1.6899
  111SAPE   H7S11522   1.085   2.304   3.573 -2.4918 -0.3239  0.2038
  111SAPE   C2811523   1.160   2.123   3.665 -0.0437 -0.5267 -0.7899
  111SAPE   H8R11524   1.183   2.019   3.637  0.1268 -0.2946 -1.5221
  111SAPE   C2911525   1.160   2.161   3.795  0.4097 -0.5191  0.9707
  111SAPE   H9R11526   1.185   2.091   3.875  0.0539 -1.9247 -0.0998
  111SAPE  C21011527   1.114   2.303   3.824  0.3746  0.3502  0.4636
  111SAPE  H10R11528   1.004   2.313   3.807  0.2451  0.9854  1.6204
  111SAPE  H10S11529   1.157   2.379   3.756 -0.1098  0.0141 -0.2339
  111SAPE  C21111530   1.144   2.346   3.966 -0.3062 -0.2187  0.0734
  111SAPE  H11R11531   1.063   2.389   4.026  0.1784  2.1650 -0.8367
  111SAPE  C21211532   1.265   2.356   4.025  0.0558  0.5980  0.2847
  111SAPE  H12R11533   1.267   2.389   4.130  1.1275  0.4207  0.3314
  111SAPE  C21311534   1.391   2.323   3.960 -0.5213  0.0679  0.2819
  111SAPE  H13R11535   1.386   2.343   3.851 -2.0289  0.8585  0.4785
  111SAPE  H13S11536   1.419   2.216   3.971 -1.5859 -0.3117 -0.5055
  111SAPE  C21411537   1.490   2.424   4.015 -0.3729 -0.2514  0.2927
  111SAPE  H14R11538   1.524   2.497   3.941  0.9364  0.0053  1.1252
  111SAPE  C21511539   1.567   2.415   4.122 -0.0145  0.7925 -1.0243
  111SAPE  H15R11540   1.651   2.485   4.136  1.6020 -0.8306 -2.0059
  111SAPE  C21611541   1.538   2.315   4.232 -0.1383 -0.7623  0.9604
  111SAPE  H16R11542   1.629   2.253   4.249  1.7412  1.2038 -1.2630
  111SAPE  H16S11543   1.442   2.261   4.220 -1.2417  1.0955  1.1899
  111SAPE  C21711544   1.526   2.407   4.351 -0.3540 -0.2862 -0.6074
  111SAPE  H17R11545   1.444   2.481   4.338 -1.2430 -0.8441  1.4934
  111SAPE  H17S11546   1.617   2.470   4.366 -1.1183  0.4631  1.1280
  111SAPE  C21811547   1.523   2.335   4.484 -0.0578 -0.3636  0.3661
  111SAPE  H18R11548   1.521   2.411   4.564  2.6888  1.2803 -0.9538
  111SAPE  H18S11549   1.623   2.286   4.487  1.7105  2.9716  0.9246
  111SAPE  C21911550   1.403   2.244   4.500 -0.5287  0.3790 -0.7354
  111SAPE  H19R11551   1.414   2.158   4.429  1.6833  1.1941 -1.4712
  111SAPE  H19S11552   1.311   2.300   4.473  0.0424  1.7172  0.0265
  111SAPE  C22011553   1.388   2.194   4.642  0.0459 -0.2790 -0.3530
  111SAPE  H20R11554   1.305   2.120   4.645  0.9657 -1.4274 -1.7178
  111SAPE  H20S11555   1.364   2.270   4.719  0.1771 -2.4534  1.9531
  111SAPE  H20T11556   1.478   2.133   4.666  0.1740  0.3812  0.9414
  111SAPE   C3311557   0.557   1.936   2.895  0.0428  0.0485  0.2071
  111SAPE   H3X11558   0.589   1.833   2.868  0.0223 -0.5967  2.3982
  111SAPE   H3Y11559   0.452   1.928   2.931 -0.9667  0.1007 -2.5232
  111SAPE   C3411560   0.647   1.993   3.003 -0.9924  0.6330  0.3835
  111SAPE   H4X11561   0.679   2.094   2.971 -2.1940  0.3794 -1.9040
  111SAPE   H4Y11562   0.739   1.933   3.018 -0.1258  1.8325 -0.0715
  111SAPE   C3511563   0.580   2.005   3.132  0.4498 -0.9082  0.3538
  111SAPE   H5X11564   0.539   1.914   3.181 -0.8618  1.2779  3.7533
  111SAPE   H5Y11565   0.485   2.059   3.109  1.8275  1.3263 -0.3721
  111SAPE   C3611566   0.663   2.073   3.239 -0.3787  0.2929 -0.1058
  111SAPE   H6X11567   0.701   2.174   3.213 -2.2496  1.2526  0.7559
  111SAPE   H6Y11568   0.745   2.002   3.263  0.3642  0.8647 -0.8978
  111SAPE   C3711569   0.583   2.090   3.378  0.4482 -0.2207  0.4825
  111SAPE   H7X11570   0.551   1.987   3.403  0.1201 -0.3419 -0.4273
  111SAPE   H7Y11571   0.496   2.158   3.367  0.6419 -0.2295 -1.3165
  111SAPE   C3811572   0.677   2.148   3.485 -0.0842 -0.4042 -0.6420
  111SAPE   H8X11573   0.671   2.259   3.484 -0.8652 -0.4267  0.1395
  111SAPE   H8Y11574   0.783   2.124   3.463  0.3734  1.4237 -0.6125
  111SAPE   C3911575   0.647   2.111   3.633 -0.5337 -0.6160 -0.0462
  111SAPE   H9X11576   0.683   2.005   3.639 -0.0455 -0.3911  1.4836
  111SAPE   H9Y11577   0.540   2.111   3.664 -0.1798 -1.7361  1.3271
  111SAPE  C31011578   0.734   2.191   3.732 -0.9253 -0.1808 -0.5432
  111SAPE  H10X11579   0.701   2.298   3.731 -1.6957 -0.3751  0.9222
  111SAPE  H10Y11580   0.840   2.188   3.700 -0.4016  1.6395  0.8439
  111SAPE  C31111581   0.716   2.129   3.876 -0.3664  0.0464  0.5110
  111SAPE  H11X11582   0.744   2.022   3.870 -0.5259  0.0702 -1.5776
  111SAPE  H11Y11583   0.606   2.143   3.889 -0.5415 -0.6423 -0.1987
  111SAPE  C31211584   0.791   2.197   3.990  0.4663 -0.2172 -0.2655
  111SAPE  H12X11585   0.774   2.306   3.979 -0.9782 -0.3744  0.1027
  111SAPE  H12Y11586   0.900   2.182   3.980  0.7267 -0.1235  1.8510
  111SAPE  C31311587   0.739   2.157   4.130  0.2757  0.1668 -0.4553
  111SAPE  H13X11588   0.745   2.047   4.145 -0.0582  0.3997  1.6881
  111SAPE  H13Y11589   0.631   2.183   4.128  0.6122  1.6156 -0.9413
  111SAPE  C31411590   0.813   2.242   4.239  0.7951 -0.5538  0.1020
  111SAPE  H14X11591   0.808   2.351   4.218  0.2062 -0.3294  1.2964
  111SAPE  H14Y11592   0.922   2.221   4.240  1.5984  2.8329 -1.6165
  111SAPE  C31511593   0.734   2.214   4.362 -0.8123  0.3265  0.2014
  111SAPE  H15X11594   0.724   2.104   4.377 -0.0435 -0.0955 -2.0142
  111SAPE  H15Y11595   0.631   2.255   4.371 -0.8205  0.5861 -0.9527
  111SAPE  C31611596   0.807   2.264   4.485 -0.2366  0.0804 -0.1494
  111SAPE  H16X11597   0.815   2.375   4.480 -2.0035  0.2095 -0.5302
  111SAPE  H16Y11598   0.911   2.226   4.500 -0.9861 -1.8883  0.3308
  111SAPE  C31711599   0.738   2.236   4.618  0.6918 -0.2904 -0.2474
  111SAPE  H17X11600   0.639   2.285   4.607  1.3804  0.7605 -2.2605
  111SAPE  H17Y11601   0.809   2.283   4.690 -0.2298 -1.0736  1.2206
  111SAPE  C31811602   0.719   2.089   4.656  0.3506 -0.3556 -0.5197
  111SAPE  H18X11603   0.811   2.034   4.682  0.0697 -1.2468 -1.3100
  111SAPE  H18Y11604   0.672   2.041   4.567 -0.5898 -1.6309  0.6110
  111SAPE  H18Z11605   0.650   2.075   4.742  1.5101 -2.9863  0.0822
  112SAPE     N11606   6.894   3.845   2.172 -0.7252  0.4661 -0.1393
  112SAPE   HN111607   6.944   3.883   2.089  0.2846 -3.2237 -1.4071
  112SAPE   HN211608   6.793   3.845   2.148 -0.4237  0.9651 -1.5482
  112SAPE   HN311609   6.904   3.909   2.253 -0.2287 -0.9681  0.9697
  112SAPE   C1211610   6.948   3.705   2.193 -0.2722  1.0033  0.5777
  112SAPE  H12A11611   7.059   3.711   2.202 -0.0625  0.6981 -1.3542
  112SAPE  H12B11612   6.920   3.648   2.102  1.1080  1.3367 -0.0743
  112SAPE   C1111613   6.903   3.640   2.320  0.6831 -0.0729  0.4532
  112SAPE  H11A11614   6.911   3.701   2.413 -1.5768 -0.1685  0.7609
  112SAPE  H11B11615   6.982   3.565   2.341  2.3317  1.5499  0.3645
  112SAPE     P11616   6.646   3.657   2.372 -0.1298  0.4340  0.2996
  112SAPE   O1311617   6.685   3.796   2.393 -0.2834 -0.3424  0.7632
  112SAPE   O1411618   6.520   3.626   2.304  0.0944  0.1261 -0.4689
  112SAPE   O1211619   6.775   3.580   2.312  0.3879 -0.3131 -0.2163
  112SAPE   O1111620   6.635   3.583   2.508 -0.1477 -0.6655  0.0673
  112SAPE    C111621   6.746   3.566   2.597  0.0902  0.0696  0.3998
  112SAPE    HA11622   6.805   3.476   2.567  0.5752  0.9369 -1.4111
  112SAPE    HB11623   6.814   3.654   2.599 -2.2316  1.9447  2.5409
  112SAPE    C211624   6.690   3.545   2.741 -0.3207  1.0348  0.2365
  112SAPE    HS11625   6.619   3.460   2.734 -0.7842  1.3151  1.3229
  112SAPE   O2111626   6.628   3.669   2.784  0.5179  0.2671 -0.2784
  112SAPE   C2111627   6.531   3.653   2.872  1.0672 -0.1132  0.1297
  112SAPE   O2211628   6.468   3.550   2.898 -0.3818 -0.5443 -0.8957
  112SAPE   C2211629   6.505   3.778   2.946 -0.0463  0.1998  0.6742
  112SAPE   H2R11630   6.484   3.855   2.869  1.2210  0.6036  0.7113
  112SAPE   H2S11631   6.421   3.745   3.011  0.4890 -1.5727  0.5289
  112SAPE    C311632   6.814   3.517   2.831 -0.7496  0.2728 -0.0755
  112SAPE    HX11633   6.862   3.617   2.825 -2.8794  1.2839 -1.2959
  112SAPE    HY11634   6.887   3.446   2.788 -0.3226 -0.1892  1.3547
  112SAPE   O3111635   6.779   3.482   2.967 -0.0530 -0.1084 -0.2153
  112SAPE   C3111636   6.735   3.357   2.988 -0.7589 -0.2247 -0.3486
  112SAPE   O3211637   6.720   3.277   2.900  0.2902 -0.0223 -0.2591
  112SAPE   C3211638   6.689   3.336   3.138 -0.1406 -0.5189  0.1298
  112SAPE   H2X11639   6.718   3.427   3.194  3.4727 -0.0429 -2.1816
  112SAPE   H2Y11640   6.753   3.252   3.174 -1.4014 -0.9141  1.5743
  112SAPE   C2311641   6.629   3.817   3.021  0.3733 -0.3705 -0.6465
  112SAPE   H3R11642   6.715   3.843   2.956 -0.0870  2.7019 -0.1712
  112SAPE   H3S11643   6.665   3.739   3.091 -1.0771 -0.1741  0.3548
  112SAPE   C2411644   6.603   3.938   3.115  0.2268 -0.4066  0.1809
  112SAPE   H4R11645   6.513   3.928   3.179 -0.3148  0.4445 -0.4151
  112SAPE   H4S11646   6.588   4.027   3.049  0.2990 -0.4209  0.1456
  112SAPE   C2511647   6.722   3.955   3.211  0.1628  0.2024  0.7931
  112SAPE   H5R11648   6.817   3.939   3.158 -0.5689 -2.2033  0.0673
  112SAPE   C2611649   6.723   3.972   3.343  0.2948 -0.0998 -0.1986
  112SAPE   H6R11650   6.824   3.984   3.386 -0.1817  1.8283  0.4849
  112SAPE   C2711651   6.601   4.003   3.432 -0.3808  1.0578  0.3364
  112SAPE   H7R11652   6.536   3.914   3.417  0.5496  0.6020 -1.2446
  112SAPE   H7S11653   6.534   4.078   3.384 -1.1123  0.5010  0.4703
  112SAPE   C2811654   6.620   4.059   3.576  0.4928 -0.3191  0.5578
  112SAPE   H8R11655   6.712   4.028   3.627  0.8044 -1.2613 -0.5282
  112SAPE   C2911656   6.538   4.134   3.651 -0.4554  1.0104 -0.3341
  112SAPE   H9R11657   6.579   4.176   3.744 -1.2040  0.7863  0.1030
  112SAPE  C21011658   6.405   4.189   3.610 -0.2989 -0.1853 -0.5580
  112SAPE  H10R11659   6.332   4.137   3.677 -0.2023  0.5472  0.1308
  112SAPE  H10S11660   6.384   4.156   3.506 -0.7892 -1.1914 -0.1569
  112SAPE  C21111661   6.409   4.342   3.614  0.0954  0.3126 -1.2345
  112SAPE  H11R11662   6.435   4.380   3.514 -0.8734 -0.6491 -1.8677
  112SAPE  C21211663   6.409   4.409   3.734  0.6666 -0.1775  0.8730
  112SAPE  H12R11664   6.417   4.518   3.738  1.6167 -0.2076  0.0788
  112SAPE  C21311665   6.375   4.351   3.868  0.3064 -0.4719 -0.1801
  112SAPE  H13R11666   6.421   4.254   3.897 -1.2871 -1.4633 -0.8302
  112SAPE  H13S11667   6.268   4.321   3.865 -0.3007  1.2971  1.8325
  112SAPE  C21411668   6.410   4.446   3.981  0.5071 -0.1077 -0.1687
  112SAPE  H14R11669   6.512   4.487   3.976  0.3732  0.1791 -0.6246
  112SAPE  C21511670   6.335   4.486   4.083  0.1094 -0.4309 -0.5338
  112SAPE  H15R11671   6.376   4.555   4.158 -0.6972 -1.8812  1.3236
  112SAPE  C21611672   6.191   4.456   4.109  0.1086 -0.2813 -1.1282
  112SAPE  H16R11673   6.194   4.386   4.195  1.5864  0.3521 -0.6337
  112SAPE  H16S11674   6.145   4.407   4.021 -3.2879  0.9595 -0.2177
  112SAPE  C21711675   6.077   4.562   4.141 -0.4227 -0.0215  0.6208
  112SAPE  H17R11676   5.992   4.511   4.191 -2.2283  0.8355 -1.4477
  112SAPE  H17S11677   6.042   4.603   4.044  0.3599 -0.7566  0.0034
  112SAPE  C21811678   6.124   4.675   4.239 -0.3728  1.0439  0.0959
  112SAPE  H18R11679   6.051   4.757   4.223 -2.6215 -1.2339 -2.3179
  112SAPE  H18S11680   6.227   4.705   4.214  1.9966 -4.4522  1.6885
  112SAPE  C21911681   6.112   4.619   4.384  0.3341 -0.0742  0.2292
  112SAPE  H19R11682   6.175   4.528   4.382  0.0300 -0.2750 -0.5465
  112SAPE  H19S11683   6.009   4.577   4.395 -0.4459  1.7076  0.1358
  112SAPE  C22011684   6.138   4.714   4.505 -0.9204 -0.4159 -0.3138
  112SAPE  H20R11685   6.066   4.798   4.516  1.4157  1.5025  1.2654
  112SAPE  H20S11686   6.237   4.761   4.490 -0.6259 -0.7099  0.6676
  112SAPE  H20T11687   6.137   4.658   4.601 -1.1663 -2.2587 -1.3263
  112SAPE   C3311688   6.537   3.302   3.142 -0.2629 -0.1163 -0.0929
  112SAPE   H3X11689   6.509   3.206   3.095 -1.9189  0.6065 -0.6386
  112SAPE   H3Y11690   6.476   3.377   3.087  1.2179 -0.8108 -2.8845
  112SAPE   C3411691   6.489   3.307   3.288  0.3976  0.3398 -0.9644
  112SAPE   H4X11692   6.483   3.410   3.330 -3.6539  0.1812 -0.7618
  112SAPE   H4Y11693   6.578   3.274   3.346 -0.1807 -0.7245 -0.6626
  112SAPE   C3511694   6.355   3.225   3.294 -0.4261  1.0565 -0.0134
  112SAPE   H5X11695   6.375   3.122   3.258 -1.5253  0.8684 -0.1198
  112SAPE   H5Y11696   6.283   3.278   3.228 -0.4142 -0.0658 -0.9696
  112SAPE   C3611697   6.303   3.206   3.437 -0.7552  0.1263 -0.2083
  112SAPE   H6X11698   6.306   3.309   3.477 -1.5993  0.7555 -1.6775
  112SAPE   H6Y11699   6.364   3.141   3.503 -0.6095  1.6678  1.2420
  112SAPE   C3711700   6.155   3.179   3.448  0.1553  0.0202  0.1816
  112SAPE   H7X11701   6.126   3.083   3.401  0.2192 -0.0335  0.2519
  112SAPE   H7Y11702   6.111   3.262   3.389 -1.7491 -0.7719  0.4069
  112SAPE   C3811703   6.103   3.179   3.599 -0.4900  0.9563  0.5416
  112SAPE   H8X11704   6.170   3.123   3.667  0.0548  1.8558  0.7674
  112SAPE   H8Y11705   6.009   3.120   3.588  0.9614 -1.1558 -1.3275
  112SAPE   C3911706   6.086   3.310   3.667 -0.2263  0.5369 -0.1403
  112SAPE   H9X11707   6.039   3.378   3.593  0.9531  1.0239 -0.4680
  112SAPE   H9Y11708   6.186   3.355   3.685 -1.1265  2.7826 -0.4184
  112SAPE  C31011709   5.999   3.300   3.793  0.0142 -0.1096 -0.0135
  112SAPE  H10X11710   6.050   3.232   3.865 -1.2450 -0.1616  0.8589
  112SAPE  H10Y11711   5.897   3.260   3.777  0.4654 -1.7543  0.8846
  112SAPE  C31111712   6.004   3.439   3.851  0.2652  0.3041  0.7382
  112SAPE  H11X11713   5.966   3.509   3.774  1.7859 -0.7332 -1.0502
  112SAPE  H11Y11714   6.107   3.472   3.878  1.4332 -0.6958 -2.1671
  112SAPE  C31211715   5.902   3.428   3.970  0.0210 -0.0263 -0.0336
  112SAPE  H12X11716   5.918   3.338   4.032  0.5843 -0.3849 -0.6798
  112SAPE  H12Y11717   5.797   3.430   3.934 -1.1401  0.4924  3.0612
  112SAPE  C31311718   5.922   3.545   4.066  0.8987 -0.5875  0.0074
  112SAPE  H13X11719   6.018   3.547   4.123  1.2295  0.9660 -0.5341
  112SAPE  H13Y11720   5.844   3.525   4.142 -0.0006  1.1059 -0.4159
  112SAPE  C31411721   5.881   3.687   4.012 -0.1015 -0.3869  0.3116
  112SAPE  H14X11722   5.953   3.714   3.933  0.0015  2.2132  1.2160
  112SAPE  H14Y11723   5.882   3.763   4.094 -4.1304  0.3920 -0.1768
  112SAPE  C31511724   5.740   3.689   3.953  0.3044 -0.1706 -0.4737
  112SAPE  H15X11725   5.683   3.650   4.040  2.0887  0.1856  0.9273
  112SAPE  H15Y11726   5.738   3.632   3.857  0.4747  0.1862 -0.6911
  112SAPE  C31611727   5.690   3.823   3.908 -0.0861  0.4649 -0.0151
  112SAPE  H16X11728   5.773   3.868   3.849  1.3439 -0.1852  1.4291
  112SAPE  H16Y11729   5.666   3.877   4.002 -1.9465 -2.0076  1.0320
  112SAPE  C31711730   5.560   3.816   3.830 -0.8286  0.8803  0.5512
  112SAPE  H17X11731   5.567   3.732   3.757  0.7732 -0.0347  1.6881
  112SAPE  H17Y11732   5.549   3.913   3.777 -2.6649  1.1436  1.3436
  112SAPE  C31811733   5.436   3.801   3.912  0.0587  0.0391 -0.2990
  112SAPE  H18X11734   5.423   3.888   3.979 -2.7006  0.6369 -1.4698
  112SAPE  H18Y11735   5.445   3.705   3.968 -2.4171  0.8627  1.7032
  112SAPE  H18Z11736   5.343   3.792   3.852  0.2501 -2.4974 -0.3482
  113SAPE     N11737   6.352   0.425   2.355 -0.6486 -0.0169  0.8413
  113SAPE   HN111738   6.412   0.340   2.343  0.1496  0.7852 -1.3404
  113SAPE   HN211739   6.250   0.419   2.372 -0.7289  1.3520  0.9588
  113SAPE   HN311740   6.378   0.499   2.287 -1.0103  0.7678  1.5468
  113SAPE   C1211741   6.411   0.487   2.479 -0.4251  0.0613  0.4645
  113SAPE  H12A11742   6.356   0.446   2.567 -0.2386 -0.6740  0.2412
  113SAPE  H12B11743   6.384   0.595   2.474  0.2236  0.2420  0.6988
  113SAPE   C1111744   6.569   0.466   2.485  0.4292  0.3959 -0.2103
  113SAPE  H11A11745   6.610   0.524   2.570  0.8228 -1.1483  0.6804
  113SAPE  H11B11746   6.601   0.506   2.386 -3.1746 -0.0218 -1.7002
  113SAPE     P11747   6.724   0.261   2.501 -0.1415 -0.3163 -0.1503
  113SAPE   O1311748   6.710   0.124   2.550  0.2992 -0.1244 -0.6649
  113SAPE   O1411749   6.781   0.271   2.365 -0.0700  0.7285 -0.2475
  113SAPE   O1211750   6.585   0.325   2.505  0.0666 -0.3884 -0.1988
  113SAPE   O1111751   6.816   0.342   2.599 -0.4142 -0.6319 -0.0063
  113SAPE    C111752   6.781   0.384   2.732 -0.6572 -0.0401  0.3167
  113SAPE    HA11753   6.816   0.487   2.758 -2.2346  0.1588  1.7895
  113SAPE    HB11754   6.672   0.380   2.752 -1.1859  3.8923 -0.7735
  113SAPE    C211755   6.849   0.284   2.824  0.7293  0.3425 -0.0408
  113SAPE    HS11756   6.813   0.180   2.806  1.1470  0.0235  0.8983
  113SAPE   O2111757   6.820   0.322   2.959  0.2756  0.9270  0.0676
  113SAPE   C2111758   6.701   0.278   3.004 -0.2555  0.1325  0.7211
  113SAPE   O2211759   6.602   0.246   2.942 -0.4260  0.4207  0.2826
  113SAPE   C2211760   6.702   0.275   3.162  1.3446  0.1801  1.0932
  113SAPE   H2R11761   6.597   0.273   3.197  0.0125  1.5354 -2.3647
  113SAPE   H2S11762   6.751   0.178   3.184  0.1508 -0.8098 -0.3954
  113SAPE    C311763   6.999   0.292   2.803 -0.0773  0.5021  0.4029
  113SAPE    HX11764   7.043   0.393   2.814  1.3703 -0.2752  2.4187
  113SAPE    HY11765   7.032   0.267   2.700  0.5168 -1.3085  0.9925
  113SAPE   O3111766   7.066   0.206   2.900 -0.0140  0.1089 -0.1354
  113SAPE   C3111767   7.092   0.087   2.846  0.0213 -0.3861  0.1654
  113SAPE   O3211768   7.045   0.046   2.740  0.5246  0.3952  0.6239
  113SAPE   C3211769   7.174   0.006   2.944  0.0207 -0.3021  0.9754
  113SAPE   H2X11770   7.237   0.074   3.006  0.7857 -0.5189  0.4600
  113SAPE   H2Y11771   7.241  -0.063   2.888  0.6632  1.2165 -0.1958
  113SAPE   C2311772   6.764   0.392   3.231  0.4514 -0.2542 -0.6365
  113SAPE   H3R11773   6.724   0.489   3.194  0.4230 -0.3302 -0.8086
  113SAPE   H3S11774   6.868   0.392   3.192  0.5447 -1.4276 -0.4338
  113SAPE   C2411775   6.747   0.386   3.391  0.7160  0.4266  0.0526
  113SAPE   H4R11776   6.643   0.371   3.427 -0.3391  4.1609 -0.9866
  113SAPE   H4S11777   6.766   0.487   3.433  0.0321  0.2177  0.8932
  113SAPE   C2511778   6.818   0.274   3.469 -0.1729 -0.0208 -0.0498
  113SAPE   H5R11779   6.880   0.207   3.409  2.5933  1.0629  1.3806
  113SAPE   C2611780   6.842   0.278   3.602  0.0936  0.2605  1.2247
  113SAPE   H6R11781   6.890   0.189   3.646  1.8743  0.7421  0.3428
  113SAPE   C2711782   6.777   0.371   3.699 -0.3063 -0.5313  0.1672
  113SAPE   H7R11783   6.720   0.310   3.773 -0.6332  1.8559  2.0149
  113SAPE   H7S11784   6.706   0.438   3.648  1.3199  2.1627  1.2233
  113SAPE   C2811785   6.880   0.454   3.773 -0.3062  0.5209 -0.2903
  113SAPE   H8R11786   6.966   0.491   3.714  1.4067 -2.0741  0.4032
  113SAPE   C2911787   6.885   0.462   3.911 -0.4883  0.1516 -0.1731
  113SAPE   H9R11788   6.968   0.508   3.967 -1.0860  0.7005  0.2790
  113SAPE  C21011789   6.778   0.413   4.001  0.3159 -0.1490  0.5238
  113SAPE  H10R11790   6.684   0.393   3.944  0.3794 -1.2872  0.7934
  113SAPE  H10S11791   6.749   0.492   4.073 -1.5091 -1.4270  1.2793
  113SAPE  C21111792   6.831   0.279   4.068 -0.0409 -0.2913  0.3839
  113SAPE  H11R11793   6.908   0.217   4.019 -1.6001 -3.0521  1.1907
  113SAPE  C21211794   6.790   0.241   4.190  0.0748  0.7188 -0.9203
  113SAPE  H12R11795   6.839   0.153   4.234  0.1149  2.7671  3.6856
  113SAPE  C21311796   6.688   0.303   4.279 -0.0053  0.4585  0.3659
  113SAPE  H13R11797   6.630   0.214   4.313  0.4531  0.6972  1.8803
  113SAPE  H13S11798   6.619   0.367   4.221 -0.1094 -0.3129 -0.3813
  113SAPE  C21411799   6.726   0.378   4.400  0.2369 -0.8606 -0.3072
  113SAPE  H14R11800   6.767   0.475   4.371 -2.4135  0.6133  0.5452
  113SAPE  C21511801   6.695   0.348   4.532  0.0140  0.1270  0.9280
  113SAPE  H15R11802   6.734   0.415   4.610 -0.4901  0.7838  0.6182
  113SAPE  C21611803   6.629   0.216   4.572  0.1121  0.0445  0.2684
  113SAPE  H16R11804   6.575   0.161   4.492 -1.9369  1.3620  0.6749
  113SAPE  H16S11805   6.545   0.227   4.644  0.8471  2.3110  0.8488
  113SAPE  C21711806   6.737   0.119   4.635 -0.2112 -0.0089 -0.0262
  113SAPE  H17R11807   6.785   0.167   4.723 -1.3395 -0.3047  0.7733
  113SAPE  H17S11808   6.818   0.106   4.560  0.1357  1.4355  0.0782
  113SAPE  C21811809   6.676  -0.024   4.667  0.0718 -0.3022  0.5201
  113SAPE  H18R11810   6.753  -0.099   4.694 -0.1650 -1.1628 -1.0472
  113SAPE  H18S11811   6.634  -0.063   4.571  0.5801  3.0119 -1.1887
  113SAPE  C21911812   6.561  -0.017   4.763  0.1505 -0.0946 -0.7008
  113SAPE  H19R11813   6.486   0.044   4.709 -0.4664 -0.7392 -0.5987
  113SAPE  H19S11814   6.594   0.029   4.859  0.0615 -1.4971  0.0323
  113SAPE  C22011815   6.505  -0.153   4.811 -0.1645 -0.5872  0.0731
  113SAPE  H20R11816   6.576  -0.222   4.862 -1.3453 -2.2747 -0.4867
  113SAPE  H20S11817   6.455  -0.199   4.724  1.7139 -1.0327 -0.8110
  113SAPE  H20T11818   6.432  -0.137   4.894 -0.4546 -1.7455  0.0593
  113SAPE   C3311819   7.096  -0.091   3.030 -0.1565  0.1188  0.1346
  113SAPE   H3X11820   7.161  -0.145   3.103 -0.4452  1.1703  1.2013
  113SAPE   H3Y11821   7.056  -0.165   2.958  0.1860  1.2402 -1.2516
  113SAPE   C3411822   6.981  -0.039   3.116 -0.3215 -1.5418 -0.3505
  113SAPE   H4X11823   6.893  -0.006   3.057 -2.0591 -0.6081  2.5940
  113SAPE   H4Y11824   7.006   0.053   3.173 -0.3407 -1.1041 -1.0373
  113SAPE   C3511825   6.921  -0.147   3.204  0.2909 -0.1254  0.0536
  113SAPE   H5X11826   7.005  -0.174   3.272  1.0873  0.8160 -0.5360
  113SAPE   H5Y11827   6.908  -0.234   3.137  0.7905  0.7694 -1.2423
  113SAPE   C3611828   6.776  -0.115   3.260  0.3407  0.0883  0.3284
  113SAPE   H6X11829   6.724  -0.118   3.162  0.2524 -2.0586  0.4073
  113SAPE   H6Y11830   6.768  -0.011   3.300 -1.2644  0.8826 -1.8565
  113SAPE   C3711831   6.717  -0.236   3.344  0.4204  0.1452 -0.6713
  113SAPE   H7X11832   6.755  -0.326   3.291  0.9611 -1.5705  2.3329
  113SAPE   H7Y11833   6.606  -0.228   3.347  0.4319  0.1860  1.1337
  113SAPE   C3811834   6.777  -0.250   3.481 -0.0085 -0.4043 -1.0651
  113SAPE   H8X11835   6.717  -0.316   3.547 -0.5345 -0.0055 -1.1415
  113SAPE   H8Y11836   6.883  -0.284   3.473  0.0222 -0.1863 -1.5779
  113SAPE   C3911837   6.783  -0.121   3.575 -0.1535  0.1905 -0.4923
  113SAPE   H9X11838   6.684  -0.070   3.577 -1.2625 -1.8821 -0.2888
  113SAPE   H9Y11839   6.874  -0.066   3.540  2.4048 -2.8459  0.8892
  113SAPE  C31011840   6.788  -0.166   3.723  0.4115 -0.3292  0.2128
  113SAPE  H10X11841   6.864  -0.247   3.732 -1.1976 -1.8292  0.9295
  113SAPE  H10Y11842   6.689  -0.206   3.754 -0.6772  2.0182 -0.0369
  113SAPE  C31111843   6.822  -0.066   3.822  0.0193  0.1680  0.4537
  113SAPE  H11X11844   6.753   0.020   3.805  0.4653  0.6920  1.2044
  113SAPE  H11Y11845   6.921  -0.020   3.802 -0.2078  0.1579 -0.7490
  113SAPE  C31211846   6.804  -0.095   3.973 -0.7962 -1.0550  0.2954
  113SAPE  H12X11847   6.695  -0.091   3.992 -1.0820  0.2093 -1.3686
  113SAPE  H12Y11848   6.856  -0.010   4.023 -0.5431 -0.6232 -0.6671
  113SAPE  C31311849   6.881  -0.219   4.014  0.0392  0.4311 -0.2130
  113SAPE  H13X11850   6.983  -0.204   3.973 -0.0434 -1.6755 -1.3475
  113SAPE  H13Y11851   6.841  -0.309   3.962 -0.9416  1.7952 -1.9249
  113SAPE  C31411852   6.879  -0.254   4.162  0.4331  0.0428  0.6194
  113SAPE  H14X11853   6.925  -0.167   4.215  2.1229  0.4690 -1.3842
  113SAPE  H14Y11854   6.955  -0.332   4.183  1.3057  0.8990  0.7599
  113SAPE  C31511855   6.738  -0.276   4.212 -0.0763  0.3688 -0.2910
  113SAPE  H15X11856   6.695  -0.362   4.156  0.1882 -0.2560  0.4324
  113SAPE  H15Y11857   6.673  -0.186   4.203 -0.3802  0.0527 -1.3411
  113SAPE  C31611858   6.743  -0.313   4.358  0.6166 -0.3488  0.0391
  113SAPE  H16X11859   6.785  -0.223   4.408  0.8422 -0.2538 -0.3178
  113SAPE  H16Y11860   6.813  -0.400   4.362  2.4351  1.0332 -0.3445
  113SAPE  C31711861   6.609  -0.352   4.418  0.1535  0.2514  0.5724
  113SAPE  H17X11862   6.571  -0.431   4.350  0.7655  1.2617 -0.9820
  113SAPE  H17Y11863   6.538  -0.266   4.418  1.0017  1.0008  2.0505
  113SAPE  C31811864   6.625  -0.400   4.564 -0.7425 -0.3266  0.3429
  113SAPE  H18X11865   6.706  -0.475   4.556  1.0792  1.7538 -4.0775
  113SAPE  H18Y11866   6.526  -0.441   4.594 -1.0259 -0.8490 -1.2103
  113SAPE  H18Z11867   6.657  -0.325   4.640  0.2262  0.3339 -0.6797
  114SAPE     N11868   3.030   4.031   2.565 -0.4145  0.2138  0.1267
  114SAPE   HN111869   2.999   4.000   2.470  3.0720 -2.3024 -0.3838
  114SAPE   HN211870   3.015   4.134   2.572 -0.1029  0.2237  0.6788
  114SAPE   HN311871   3.134   4.020   2.565 -0.2733  1.0285 -2.1155
  114SAPE   C1211872   2.961   3.953   2.674 -0.0301 -0.1287  0.6935
  114SAPE  H12A11873   2.856   3.987   2.680 -1.0806 -3.0895  0.5298
  114SAPE  H12B11874   3.013   3.973   2.770  0.3311 -0.8564  0.6548
  114SAPE   C1111875   2.966   3.796   2.649 -1.0759  0.3581  0.6076
  114SAPE  H11A11876   2.937   3.749   2.746  0.9112 -0.7849  0.6978
  114SAPE  H11B11877   3.071   3.761   2.642 -0.6570  1.5475  0.7324
  114SAPE     P11878   2.943   3.698   2.414 -0.4459  0.5268  0.1854
  114SAPE   O1311879   2.841   3.707   2.306 -0.7219 -0.0299 -0.4060
  114SAPE   O1411880   3.071   3.769   2.393 -0.2884 -0.7063 -0.1030
  114SAPE   O1211881   2.881   3.745   2.546  0.1749  0.4530 -0.4066
  114SAPE   O1111882   2.967   3.543   2.452 -0.9540 -0.0534 -0.3611
  114SAPE    C111883   2.858   3.465   2.500 -0.4197  0.4151  0.1746
  114SAPE    HA11884   2.763   3.520   2.515 -0.1573  0.9000  0.0786
  114SAPE    HB11885   2.833   3.388   2.424  1.7214 -0.1219 -0.0662
  114SAPE    C211886   2.893   3.406   2.644 -0.9754 -0.5346 -0.0156
  114SAPE    HS11887   2.917   3.497   2.703 -1.1154 -0.6157  0.1643
  114SAPE   O2111888   3.007   3.314   2.632  0.1578  0.0255  0.4538
  114SAPE   C2111889   3.084   3.316   2.739 -0.5279  0.5890 -0.0726
  114SAPE   O2211890   3.068   3.383   2.842  0.2221 -0.1883 -0.0366
  114SAPE   C2211891   3.209   3.226   2.720 -0.4559  0.0073  0.2968
  114SAPE   H2R11892   3.160   3.133   2.683 -0.6501 -0.1087  0.8449
  114SAPE   H2S11893   3.264   3.272   2.634  0.6940 -1.8922 -0.0376
  114SAPE    C311894   2.765   3.333   2.697  0.5251 -0.4542  0.4511
  114SAPE    HX11895   2.723   3.269   2.617 -1.8659  1.7719 -0.1941
  114SAPE    HY11896   2.686   3.409   2.716 -0.5607 -1.2217 -0.8356
  114SAPE   O3111897   2.773   3.259   2.820  0.1304 -0.7690  0.0915
  114SAPE   C3111898   2.797   3.336   2.921  0.8845 -0.6049  0.3282
  114SAPE   O3211899   2.783   3.460   2.919 -0.3785 -0.0520 -0.0955
  114SAPE   C3211900   2.852   3.260   3.048  0.4307  0.5240 -0.1083
  114SAPE   H2X11901   2.943   3.308   3.090 -1.2065  2.1101  1.8241
  114SAPE   H2Y11902   2.898   3.161   3.024  1.1848  0.7822  0.2325
  114SAPE   C2311903   3.311   3.218   2.832  0.2785 -0.4172 -0.1329
  114SAPE   H3R11904   3.265   3.265   2.922  0.5261 -0.3245 -0.0531
  114SAPE   H3S11905   3.413   3.253   2.806 -0.3224  0.6647 -1.1221
  114SAPE   C2411906   3.332   3.066   2.864 -0.6378  0.2443 -0.4181
  114SAPE   H4R11907   3.235   3.021   2.893 -0.0906  1.0268  3.0030
  114SAPE   H4S11908   3.413   3.056   2.939 -0.3013 -0.3311 -0.8546
  114SAPE   C2511909   3.386   2.992   2.749 -0.1524 -0.0887  0.1388
  114SAPE   H5R11910   3.484   3.031   2.718  1.1953 -0.6259  3.3179
  114SAPE   C2611911   3.329   2.884   2.689  0.1146 -0.4330  0.1190
  114SAPE   H6R11912   3.375   2.854   2.593  1.0419  0.9812  0.0897
  114SAPE   C2711913   3.210   2.814   2.741  0.4399  0.2719  0.6726
  114SAPE   H7R11914   3.194   2.819   2.850 -0.3524 -2.0171  0.6978
  114SAPE   H7S11915   3.222   2.705   2.725  1.2430  0.6532 -1.7441
  114SAPE   C2811916   3.080   2.838   2.666 -0.1751  0.5737  0.4068
  114SAPE   H8R11917   3.097   2.862   2.560 -0.1030 -0.2857  0.2181
  114SAPE   C2911918   2.949   2.823   2.703  0.3626  0.1339 -0.1644
  114SAPE   H9R11919   2.870   2.849   2.631 -2.0686 -0.9401  1.9637
  114SAPE  C21011920   2.903   2.798   2.846 -0.4524 -0.3979 -0.4339
  114SAPE  H10R11921   2.999   2.798   2.903 -0.7157 -1.8196  0.0487
  114SAPE  H10S11922   2.864   2.695   2.862  0.2728 -0.3924  1.6618
  114SAPE  C21111923   2.811   2.895   2.918  0.3777  0.6151 -0.4364
  114SAPE  H11R11924   2.837   2.997   2.885  0.1997  0.5082 -0.9096
  114SAPE  C21211925   2.713   2.876   3.016 -0.3385 -0.5668 -0.0118
  114SAPE  H12R11926   2.654   2.960   3.054  0.3340 -1.5769  3.6965
  114SAPE  C21311927   2.661   2.745   3.075  0.1766  0.5211 -0.1493
  114SAPE  H13R11928   2.740   2.708   3.143  1.0591  3.2718  0.4694
  114SAPE  H13S11929   2.682   2.660   3.008  1.4881  0.0995  0.7640
  114SAPE  C21411930   2.525   2.734   3.138 -0.0490  0.0386  0.7924
  114SAPE  H14R11931   2.451   2.710   3.061 -0.4388  0.9700  0.8562
  114SAPE  C21511932   2.490   2.744   3.268  0.3296  0.8032 -0.8077
  114SAPE  H15R11933   2.383   2.757   3.285  0.1783  0.2202 -1.2766
  114SAPE  C21611934   2.578   2.743   3.386 -0.2525 -0.3844  0.0869
  114SAPE  H16R11935   2.609   2.845   3.416 -0.3008  0.2085 -1.7432
  114SAPE  H16S11936   2.676   2.701   3.355  0.9030  1.5139  0.9905
  114SAPE  C21711937   2.538   2.659   3.510 -0.0532 -0.8170 -0.3823
  114SAPE  H17R11938   2.592   2.693   3.601 -0.5951  0.3327 -0.4737
  114SAPE  H17S11939   2.566   2.554   3.486 -0.5171 -0.2920 -3.7655
  114SAPE  C21811940   2.387   2.669   3.545 -0.5574 -0.3911  0.5818
  114SAPE  H18R11941   2.336   2.614   3.463  2.2747 -0.5427 -1.2022
  114SAPE  H18S11942   2.359   2.776   3.536  2.1175  0.4098  1.1446
  114SAPE  C21911943   2.352   2.616   3.683 -0.5909 -0.4920 -0.0554
  114SAPE  H19R11944   2.409   2.523   3.702  1.9855  1.3779  2.1663
  114SAPE  H19S11945   2.243   2.600   3.692 -0.6668  0.6686  1.5188
  114SAPE  C22011946   2.370   2.728   3.783  0.0719  0.6071  0.6328
  114SAPE  H20R11947   2.294   2.807   3.764 -0.7810 -0.5088 -0.7756
  114SAPE  H20S11948   2.476   2.763   3.785  0.8727 -1.3600 -1.8180
  114SAPE  H20T11949   2.361   2.691   3.887 -1.3860 -2.7256 -0.5377
  114SAPE   C3311950   2.742   3.251   3.154 -0.1541  0.9102 -0.9648
  114SAPE   H3X11951   2.674   3.171   3.119 -1.2820  1.9173 -1.1332
  114SAPE   H3Y11952   2.690   3.348   3.169  1.4315  1.3979  2.1892
  114SAPE   C3411953   2.798   3.199   3.287 -0.3504  0.0010 -0.0931
  114SAPE   H4X11954   2.883   3.263   3.322 -1.1394  0.5255  0.9067
  114SAPE   H4Y11955   2.840   3.096   3.279 -1.1980 -0.3139 -0.4972
  114SAPE   C3511956   2.693   3.183   3.390  0.5053  0.2934  0.1903
  114SAPE   H5X11957   2.610   3.114   3.363 -0.6828  1.1605  1.4559
  114SAPE   H5Y11958   2.653   3.284   3.412  3.9860  2.0715 -0.8500
  114SAPE   C3611959   2.757   3.122   3.517  0.6824 -0.3612 -0.1863
  114SAPE   H6X11960   2.847   3.179   3.548 -0.5911  0.6428  1.8817
  114SAPE   H6Y11961   2.790   3.020   3.486  0.7257  0.0649 -1.6092
  114SAPE   C3711962   2.669   3.124   3.647  0.0762 -0.1204  0.1262
  114SAPE   H7X11963   2.562   3.109   3.621  0.4453 -2.4154 -0.2804
  114SAPE   H7Y11964   2.677   3.227   3.687  1.9319 -0.1744  0.0185
  114SAPE   C3811965   2.704   3.016   3.754 -0.2554  0.4355 -0.3541
  114SAPE   H8X11966   2.812   3.000   3.772 -0.9285 -5.2181  0.4159
  114SAPE   H8Y11967   2.668   2.918   3.717  2.8996 -1.7580  1.8627
  114SAPE   C3911968   2.655   3.044   3.896  0.0757  0.0329 -0.0819
  114SAPE   H9X11969   2.548   3.072   3.894  0.4235  1.4661  0.1310
  114SAPE   H9Y11970   2.713   3.134   3.927  0.9468 -0.6510  0.3482
  114SAPE  C31011971   2.672   2.928   4.002 -0.1274  0.0733 -0.5236
  114SAPE  H10X11972   2.602   2.846   3.976 -0.5325 -0.5184  2.1429
  114SAPE  H10Y11973   2.634   2.971   4.097 -3.0552 -0.5496 -1.3209
  114SAPE  C31111974   2.813   2.873   4.023 -0.5601 -0.3205 -0.1055
  114SAPE  H11X11975   2.878   2.954   4.061  0.2164 -1.0798  0.2225
  114SAPE  H11Y11976   2.847   2.848   3.920 -0.8347  0.8592 -0.4922
  114SAPE  C31211977   2.819   2.752   4.111  0.2379 -0.4421 -0.5132
  114SAPE  H12X11978   2.743   2.682   4.070  0.3454  0.2234 -1.8962
  114SAPE  H12Y11979   2.775   2.774   4.211  0.5023 -1.5467 -0.1410
  114SAPE  C31311980   2.952   2.681   4.122  0.4627  0.6091  1.0087
  114SAPE  H13X11981   2.929   2.583   4.169 -0.6009 -0.1108 -0.9146
  114SAPE  H13Y11982   3.019   2.732   4.195  0.8319 -1.8246  2.4928
  114SAPE  C31411983   3.031   2.677   3.983  0.7635  0.2221  0.0914
  114SAPE  H14X11984   3.130   2.628   3.995 -1.0795 -3.3785  2.2823
  114SAPE  H14Y11985   3.046   2.776   3.936  2.6500 -1.2112 -2.6100
  114SAPE  C31511986   2.948   2.596   3.881  0.7939  0.2211  0.0872
  114SAPE  H15X11987   2.846   2.638   3.874  0.7577  0.0155 -0.6754
  114SAPE  H15Y11988   2.943   2.491   3.918  1.8957  0.2015  0.2310
  114SAPE  C31611989   3.006   2.591   3.737  0.0969  0.5563 -0.2255
  114SAPE  H16X11990   2.968   2.497   3.691  1.8601 -0.9656  1.2502
  114SAPE  H16Y11991   3.112   2.561   3.753 -0.4649 -0.1204  2.9182
  114SAPE  C31711992   2.978   2.715   3.652  0.1352  0.5131 -0.6743
  114SAPE  H17X11993   3.019   2.799   3.711 -1.5411 -0.6164  2.3190
  114SAPE  H17Y11994   2.871   2.730   3.626 -0.0736 -0.3326 -0.3566
  114SAPE  C31811995   3.057   2.688   3.518 -0.0394 -0.2584 -0.0290
  114SAPE  H18X11996   3.014   2.598   3.469  0.2912 -1.1293  1.2116
  114SAPE  H18Y11997   3.165   2.676   3.542 -0.2641 -2.5788  0.0690
  114SAPE  H18Z11998   3.036   2.780   3.460 -0.1106  0.2442  0.7690
  115SAPE     N11999   5.785   3.945   2.767 -0.0131 -0.6289  0.1650
  115SAPE   HN112000   5.709   3.887   2.726 -0.0797  1.2158 -2.5896
  115SAPE   HN212001   5.760   3.969   2.865  3.5659  0.6954  0.9328
  115SAPE   HN312002   5.783   4.036   2.718 -0.8774 -0.4994  0.4246
  115SAPE   C1212003   5.909   3.863   2.776  0.0538 -0.0335  0.0203
  115SAPE  H12A12004   5.993   3.932   2.795 -0.6661  1.5060 -1.9721
  115SAPE  H12B12005   5.934   3.818   2.677 -2.0036 -4.3817  1.2014
  115SAPE   C1112006   5.904   3.751   2.885  0.0798 -0.3560  0.0923
  115SAPE  H11A12007   5.875   3.794   2.982 -2.9429  0.1176 -0.9227
  115SAPE  H11B12008   6.006   3.707   2.887  0.7046  0.7004 -2.8466
  115SAPE     P12009   5.834   3.534   2.740  0.0628  0.5191 -0.0402
  115SAPE   O1312010   5.731   3.433   2.774  0.3231 -0.1094 -0.4235
  115SAPE   O1412011   5.825   3.582   2.602  0.1423 -0.4039  0.0349
  115SAPE   O1212012   5.820   3.651   2.848 -0.6085 -0.6313  0.1017
  115SAPE   O1112013   5.971   3.465   2.761  0.1778  0.4030  0.1200
  115SAPE    C112014   5.995   3.380   2.865  0.0045 -0.0187  0.3892
  115SAPE    HA12015   5.947   3.282   2.841  2.2485 -0.8431 -1.1331
  115SAPE    HB12016   6.103   3.355   2.871 -0.2067 -0.6292  2.0004
  115SAPE    C212017   5.957   3.425   3.007  0.2012  0.0054 -0.3706
  115SAPE    HS12018   5.856   3.472   3.000  0.9884  1.6936 -0.7732
  115SAPE   O2112019   6.054   3.526   3.039  0.3120  0.5498  0.1483
  115SAPE   C2112020   6.029   3.596   3.153 -0.0030 -0.3465  0.5452
  115SAPE   O2212021   5.930   3.589   3.215 -0.2950  0.3666 -0.1613
  115SAPE   C2212022   6.141   3.692   3.172  0.4430 -0.3107 -0.6567
  115SAPE   H2R12023   6.222   3.616   3.182 -1.4911 -2.6370 -1.7696
  115SAPE   H2S12024   6.149   3.750   3.077  0.2764  0.6764 -0.0846
  115SAPE    C312025   5.965   3.295   3.096  0.4432 -0.3231  0.2790
  115SAPE    HX12026   6.071   3.263   3.083  0.2268 -0.6158 -0.9507
  115SAPE    HY12027   5.910   3.217   3.039  2.1755 -1.0420 -0.4978
  115SAPE   O3112028   5.943   3.312   3.234  0.3224  0.5379  0.0053
  115SAPE   C3112029   5.819   3.308   3.267 -0.1566 -0.5612  0.9505
  115SAPE   O3212030   5.732   3.268   3.190 -0.0484  0.1095 -0.5581
  115SAPE   C3212031   5.807   3.359   3.404  0.0714 -0.6635  0.1463
  115SAPE   H2X12032   5.854   3.459   3.399 -1.6888  0.1885  0.0366
  115SAPE   H2Y12033   5.864   3.301   3.480 -0.4728 -1.3769  0.0196
  115SAPE   C2312034   6.126   3.787   3.293 -0.2181 -0.2214  0.6589
  115SAPE   H3R12035   6.041   3.749   3.353 -1.3204  0.6373 -0.3221
  115SAPE   H3S12036   6.098   3.889   3.261  0.9397 -0.7530 -2.4648
  115SAPE   C2412037   6.262   3.790   3.368  0.4955  0.5427 -0.4482
  115SAPE   H4R12038   6.258   3.885   3.426 -0.2348 -0.3340  0.9979
  115SAPE   H4S12039   6.353   3.783   3.305  2.4571 -1.3102  2.3239
  115SAPE   C2512040   6.281   3.670   3.465 -0.2600 -0.0443  0.4549
  115SAPE   H5R12041   6.310   3.575   3.417  1.1222  0.8964 -0.6719
  115SAPE   C2612042   6.294   3.673   3.597  0.2013  0.2218 -0.8483
  115SAPE   H6R12043   6.328   3.581   3.648 -0.2381  0.4162 -0.1870
  115SAPE   C2712044   6.300   3.794   3.682  0.1737 -0.2939  0.2825
  115SAPE   H7R12045   6.377   3.862   3.640  0.5931 -1.4040 -0.7932
  115SAPE   H7S12046   6.341   3.764   3.780 -1.5001 -1.1057  0.7682
  115SAPE   C2812047   6.162   3.860   3.715 -0.4188  0.2229  0.0811
  115SAPE   H8R12048   6.077   3.853   3.646 -0.1271 -0.2099 -0.2416
  115SAPE   C2912049   6.144   3.936   3.817 -0.7471  0.2489 -1.3503
  115SAPE   H9R12050   6.044   3.983   3.814 -0.7305  0.6073  1.5859
  115SAPE  C21012051   6.241   3.980   3.925 -0.3145  0.6544  0.3576
  115SAPE  H10R12052   6.255   4.090   3.934  0.2703  0.5276  1.1887
  115SAPE  H10S12053   6.343   3.938   3.907 -0.3661 -0.1142  1.6945
  115SAPE  C21112054   6.188   3.932   4.058 -0.6978 -0.6943 -0.0074
  115SAPE  H11R12055   6.129   3.839   4.056  1.2012 -1.9568  0.7021
  115SAPE  C21212056   6.211   3.993   4.180  0.6874 -0.2198 -0.8105
  115SAPE  H12R12057   6.181   3.947   4.275  0.4411 -0.0365 -0.8009
  115SAPE  C21312058   6.267   4.134   4.199  0.0421  0.1990  0.2897
  115SAPE  H13R12059   6.241   4.165   4.303  0.3914  2.2676 -0.1956
  115SAPE  H13S12060   6.215   4.205   4.131 -0.6091  0.5130  1.0926
  115SAPE  C21412061   6.421   4.141   4.185 -0.1200  0.0635 -0.0835
  115SAPE  H14R12062   6.461   4.097   4.092  0.3126  2.1571 -0.9473
  115SAPE  C21512063   6.509   4.192   4.276 -0.4523 -0.3409  0.5868
  115SAPE  H15R12064   6.618   4.188   4.262 -0.5273 -1.3213  0.1838
  115SAPE  C21612065   6.463   4.256   4.400 -0.1770 -0.3351 -0.2704
  115SAPE  H16R12066   6.364   4.304   4.386 -0.4308 -0.3090  1.3907
  115SAPE  H16S12067   6.536   4.336   4.421 -0.0457 -0.4389 -0.3301
  115SAPE  C21712068   6.479   4.162   4.525  0.9403 -0.1936  0.2606
  115SAPE  H17R12069   6.432   4.063   4.507 -0.5944  0.1834  1.9256
  115SAPE  H17S12070   6.426   4.217   4.606 -1.2311 -0.1942 -1.0709
  115SAPE  C21812071   6.632   4.154   4.571  0.8981  0.4917 -0.4048
  115SAPE  H18R12072   6.678   4.254   4.584  0.0232  0.8125  0.2867
  115SAPE  H18S12073   6.686   4.109   4.484  0.0666 -0.9387 -0.2131
  115SAPE  C21912074   6.650   4.080   4.705  0.6823  0.0923  0.2121
  115SAPE  H19R12075   6.628   4.158   4.780  0.3279  0.2814 -0.0847
  115SAPE  H19S12076   6.748   4.028   4.712 -1.0720 -3.6105 -0.0815
  115SAPE  C22012077   6.542   3.976   4.743 -0.0828 -0.3499  0.0261
  115SAPE  H20R12078   6.562   3.942   4.847 -0.0763 -1.8618 -0.4367
  115SAPE  H20S12079   6.555   3.887   4.678  1.3685 -1.2170  1.4256
  115SAPE  H20T12080   6.438   4.015   4.737 -0.8600 -2.0191  1.5671
  115SAPE   C3312081   5.664   3.366   3.453 -0.4181  0.0805 -0.0232
  115SAPE   H3X12082   5.616   3.266   3.445 -0.0523 -0.1028  0.0438
  115SAPE   H3Y12083   5.600   3.437   3.397  0.7633  0.3320 -1.1067
  115SAPE   C3412084   5.643   3.414   3.600  0.6958  0.2656 -0.1899
  115SAPE   H4X12085   5.693   3.512   3.606 -0.2875  0.7227  1.1079
  115SAPE   H4Y12086   5.685   3.336   3.667 -0.7291 -0.9149 -0.6030
  115SAPE   C3512087   5.493   3.434   3.637  0.7120  0.0062 -0.0601
  115SAPE   H5X12088   5.432   3.362   3.578 -0.6153 -0.0531  1.2902
  115SAPE   H5Y12089   5.464   3.535   3.602 -2.2397 -0.8017 -0.2798
  115SAPE   C3612090   5.465   3.428   3.786 -0.7071 -0.2829 -0.0528
  115SAPE   H6X12091   5.490   3.531   3.821  0.2460 -0.7518  0.7164
  115SAPE   H6Y12092   5.540   3.362   3.836  1.5632  1.5130 -0.8790
  115SAPE   C3712093   5.318   3.382   3.814 -0.1756 -0.0714  0.0344
  115SAPE   H7X12094   5.300   3.369   3.922 -0.6257 -1.2411 -0.1672
  115SAPE   H7Y12095   5.304   3.278   3.776 -0.0523 -0.0199 -0.1537
  115SAPE   C3812096   5.215   3.470   3.750 -0.1564 -0.0938  0.6817
  115SAPE   H8X12097   5.231   3.472   3.640  2.0261  0.4222  0.9468
  115SAPE   H8Y12098   5.224   3.568   3.800  2.2857  0.2435 -0.2727
  115SAPE   C3912099   5.072   3.421   3.790 -0.3694 -0.4940 -0.4839
  115SAPE   H9X12100   5.064   3.312   3.810  1.8698 -0.5452  0.4226
  115SAPE   H9Y12101   5.010   3.446   3.701  0.4600 -0.1641 -0.9898
  115SAPE  C31012102   5.005   3.491   3.908 -0.1610 -0.0376 -0.4909
  115SAPE  H10X12103   4.921   3.550   3.865 -0.4136 -0.3511 -0.4371
  115SAPE  H10Y12104   5.077   3.571   3.936  0.7628 -0.8723 -0.4271
  115SAPE  C31112105   4.961   3.403   4.024 -0.3292 -0.0132 -0.0363
  115SAPE  H11X12106   4.881   3.341   3.978  0.9539 -0.1442 -2.2457
  115SAPE  H11Y12107   4.914   3.463   4.105 -2.3671  0.6761 -1.6441
  115SAPE  C31212108   5.069   3.316   4.083 -0.1214 -0.2384 -0.5451
  115SAPE  H12X12109   5.154   3.382   4.109  1.5166 -0.9499 -3.5239
  115SAPE  H12Y12110   5.116   3.242   4.014 -1.6911 -1.9272  0.1074
  115SAPE  C31312111   5.030   3.234   4.205  0.2482 -0.7849 -0.2479
  115SAPE  H13X12112   4.928   3.191   4.198  0.0567 -0.6085  1.2288
  115SAPE  H13Y12113   5.031   3.298   4.296 -1.8362 -2.7187  1.2479
  115SAPE  C31412114   5.131   3.124   4.243  0.3298  0.9025 -0.1283
  115SAPE  H14X12115   5.237   3.155   4.245  0.9048 -0.9514  0.0973
  115SAPE  H14Y12116   5.113   3.041   4.171  1.2434 -0.4125  1.0964
  115SAPE  C31512117   5.099   3.058   4.380  0.7701  0.2693  0.1275
  115SAPE  H15X12118   4.989   3.044   4.386  0.7061 -1.3683 -2.7532
  115SAPE  H15Y12119   5.135   3.133   4.453 -0.9070  2.2473 -0.9598
  115SAPE  C31612120   5.176   2.933   4.408 -0.0418 -0.4983  0.6681
  115SAPE  H16X12121   5.286   2.937   4.397  0.2877 -0.0207  3.4396
  115SAPE  H16Y12122   5.157   2.864   4.323  0.8955  0.9121 -0.7525
  115SAPE  C31712123   5.132   2.866   4.539  0.0932 -0.7580  0.6215
  115SAPE  H17X12124   5.173   2.763   4.549  0.3134 -0.8466 -0.9533
  115SAPE  H17Y12125   5.023   2.844   4.536 -0.2648  0.8055  1.0589
  115SAPE  C31812126   5.159   2.936   4.677  0.8602  0.2739  0.6476
  115SAPE  H18X12127   5.269   2.940   4.695  0.8900 -2.3275  1.5503
  115SAPE  H18Y12128   5.102   2.876   4.751  2.8379 -1.5835  0.7788
  115SAPE  H18Z12129   5.109   3.035   4.677  1.3206  0.5467  2.3304
  116SAPE     N12130   5.772   6.104   2.399 -0.1060 -0.1525  0.1817
  116SAPE   HN112131   5.778   6.193   2.453 -0.7270 -0.0391  0.0664
  116SAPE   HN212132   5.871   6.073   2.391 -0.4483 -0.8881 -1.8125
  116SAPE   HN312133   5.734   6.136   2.308  1.5892  3.4650  0.5540
  116SAPE   C1212134   5.694   5.995   2.472 -0.4818  0.5125  0.2491
  116SAPE  H12A12135   5.607   6.050   2.515 -1.8610 -0.4208 -1.2520
  116SAPE  H12B12136   5.743   5.951   2.560 -1.0430 -1.3342 -0.3198
  116SAPE   C1112137   5.654   5.883   2.375 -0.6838  1.1479 -0.0209
  116SAPE  H11A12138   5.639   5.783   2.421  0.7440  0.1826 -1.5427
  116SAPE  H11B12139   5.749   5.861   2.321  0.9805  0.2698  3.0054
  116SAPE     P12140   5.407   5.897   2.309  0.0350 -0.1092 -0.0332
  116SAPE   O1312141   5.322   5.895   2.187 -0.3088 -0.5170 -0.3273
  116SAPE   O1412142   5.389   5.790   2.409  0.5082  0.0450 -0.3877
  116SAPE   O1212143   5.561   5.924   2.270 -0.4585 -0.0865 -0.2583
  116SAPE   O1112144   5.383   6.028   2.387 -0.3061 -0.2244  0.0955
  116SAPE    C112145   5.254   6.076   2.429 -0.2114 -0.5421 -0.4131
  116SAPE    HA12146   5.249   6.178   2.386  0.2323 -0.0129  0.7443
  116SAPE    HB12147   5.173   6.016   2.382  0.1296 -1.2719 -0.0944
  116SAPE    C212148   5.233   6.074   2.587 -0.4810  0.3874  0.2914
  116SAPE    HS12149   5.169   6.156   2.626  2.7976  3.0973  0.4857
  116SAPE   O2112150   5.370   6.089   2.635  0.0835 -0.4796  0.1346
  116SAPE   C2112151   5.384   6.143   2.755 -0.5015 -0.6763 -0.4601
  116SAPE   O2212152   5.294   6.186   2.824  0.6534  0.1207 -0.2969
  116SAPE   C2212153   5.538   6.167   2.795 -0.1814 -0.4485  0.2200
  116SAPE   H2R12154   5.593   6.111   2.717 -1.0367 -1.3605  0.2505
  116SAPE   H2S12155   5.550   6.276   2.777 -0.0610 -0.6500 -1.0056
  116SAPE    C312156   5.179   5.929   2.630 -0.0237  0.3049  0.1685
  116SAPE    HX12157   5.276   5.882   2.654 -0.5002 -0.6028  0.3732
  116SAPE    HY12158   5.141   5.877   2.539 -1.6179 -2.6780  2.3726
  116SAPE   O3112159   5.094   5.922   2.743 -0.1995 -0.2360  0.0475
  116SAPE   C3112160   4.963   5.923   2.717  0.3646 -0.1367 -0.3747
  116SAPE   O3212161   4.920   5.914   2.602  0.1553 -0.9223  0.1372
  116SAPE   C3212162   4.882   5.949   2.842 -0.4248 -0.2903  0.0439
  116SAPE   H2X12163   4.919   6.051   2.865 -0.9453  0.3094 -1.6294
  116SAPE   H2Y12164   4.919   5.888   2.927  2.1824 -0.9234 -1.4734
  116SAPE   C2312165   5.584   6.112   2.929 -0.3146 -0.5267 -0.1711
  116SAPE   H3R12166   5.512   6.044   2.980  0.1991  0.5019  2.0462
  116SAPE   H3S12167   5.597   6.200   2.996  1.3276 -0.5609 -0.4242
  116SAPE   C2412168   5.717   6.042   2.936  0.6019 -0.4998  0.5407
  116SAPE   H4R12169   5.711   5.954   2.867  0.8603  0.8168 -1.2273
  116SAPE   H4S12170   5.741   5.997   3.034  1.4001 -1.5624 -0.1075
  116SAPE   C2512171   5.825   6.134   2.885  0.0359  1.1953 -0.2831
  116SAPE   H5R12172   5.821   6.146   2.775 -0.3949 -0.6689 -0.4985
  116SAPE   C2612173   5.942   6.170   2.950  0.2915 -0.3678  0.0956
  116SAPE   H6R12174   6.018   6.232   2.899  0.6747  0.1578  1.2801
  116SAPE   C2712175   5.986   6.138   3.090  0.6448 -0.3205  0.1849
  116SAPE   H7R12176   6.097   6.143   3.096  0.7111 -0.8943 -0.5305
  116SAPE   H7S12177   5.980   6.030   3.117  0.5693 -0.1337  0.9462
  116SAPE   C2812178   5.936   6.231   3.202  0.2404 -0.4877 -0.3048
  116SAPE   H8R12179   5.914   6.333   3.166  3.2264 -0.4261 -2.2981
  116SAPE   C2912180   5.921   6.208   3.334  0.1677  0.4131 -0.5478
  116SAPE   H9R12181   5.874   6.288   3.393 -1.0654 -0.1132 -0.7810
  116SAPE  C21012182   5.947   6.081   3.422 -0.7951 -0.0300 -0.1143
  116SAPE  H10R12183   5.987   6.001   3.356  1.5509  0.7099  0.2933
  116SAPE  H10S12184   5.857   6.035   3.465 -0.9066  0.6768  0.4330
  116SAPE  C21112185   6.045   6.114   3.527  0.0706 -0.2687  0.0048
  116SAPE  H11R12186   6.004   6.136   3.626 -2.7781 -1.1708 -0.8779
  116SAPE  C21212187   6.180   6.110   3.523  0.7558  0.2767  0.1248
  116SAPE  H12R12188   6.234   6.142   3.614  0.5885  1.5930 -0.2200
  116SAPE  C21312189   6.261   6.072   3.405 -0.6336 -0.5246  0.3185
  116SAPE  H13R12190   6.312   6.167   3.380  0.3579 -0.9079  0.8465
  116SAPE  H13S12191   6.194   6.044   3.321 -0.3938  0.6263 -0.2828
  116SAPE  C21412192   6.375   5.971   3.420 -0.0529 -1.2731  0.3448
  116SAPE  H14R12193   6.443   5.993   3.337 -1.6840  1.8232 -0.3666
  116SAPE  C21512194   6.400   5.876   3.508 -0.9520  0.0694 -1.1612
  116SAPE  H15R12195   6.498   5.824   3.510 -0.6138  0.7376 -0.1435
  116SAPE  C21612196   6.326   5.850   3.632  0.0397  0.1863 -0.5393
  116SAPE  H16R12197   6.222   5.891   3.636  0.5469  1.5820 -0.9646
  116SAPE  H16S12198   6.381   5.890   3.719  1.8056 -0.7374 -1.1938
  116SAPE  C21712199   6.326   5.697   3.666 -0.6161 -0.4449  0.1936
  116SAPE  H17R12200   6.429   5.655   3.664 -0.2761  0.3213  1.2993
  116SAPE  H17S12201   6.268   5.646   3.585 -0.0632 -1.0971  0.1933
  116SAPE  C21812202   6.264   5.660   3.798  0.1520  0.0207  0.2828
  116SAPE  H18R12203   6.158   5.694   3.791  0.1835  0.2331  0.7942
  116SAPE  H18S12204   6.318   5.699   3.887  0.1106  2.4169 -0.6489
  116SAPE  C21912205   6.267   5.504   3.819  0.0402 -0.7432 -0.1501
  116SAPE  H19R12206   6.219   5.459   3.729 -1.5145  0.0318  0.2598
  116SAPE  H19S12207   6.200   5.486   3.905 -1.7406  4.0320 -0.2395
  116SAPE  C22012208   6.407   5.453   3.832  0.2256 -0.0055 -0.0930
  116SAPE  H20R12209   6.449   5.501   3.923 -2.2665 -0.6793  1.5315
  116SAPE  H20S12210   6.464   5.472   3.739  0.3514  0.1715  0.0195
  116SAPE  H20T12211   6.403   5.342   3.835 -0.0742 -0.2822 -4.5283
  116SAPE   C3312212   4.732   5.950   2.822  1.0539 -0.7537  0.1489
  116SAPE   H3X12213   4.694   5.864   2.763 -0.4150 -0.2256  0.2922
  116SAPE   H3Y12214   4.713   6.041   2.761  0.1132 -0.6866  0.5207
  116SAPE   C3412215   4.649   5.964   2.952 -0.1555  0.1387 -0.0206
  116SAPE   H4X12216   4.703   6.020   3.031  1.3914  1.3683 -1.8567
  116SAPE   H4Y12217   4.645   5.863   2.999 -1.8793  0.2716  0.1797
  116SAPE   C3512218   4.508   6.014   2.937 -0.2435 -0.0165  0.2159
  116SAPE   H5X12219   4.461   5.965   2.849 -0.2640  1.6272 -0.7265
  116SAPE   H5Y12220   4.512   6.121   2.909  1.1018 -0.2719 -0.6760
  116SAPE   C3612221   4.429   6.011   3.069  0.8891  0.0458  0.0276
  116SAPE   H6X12222   4.333   6.059   3.043  0.1987 -0.1756  1.9925
  116SAPE   H6Y12223   4.482   6.070   3.147  1.9981 -1.6035  0.5803
  116SAPE   C3712224   4.385   5.874   3.133 -0.7097  0.6338  0.6653
  116SAPE   H7X12225   4.478   5.834   3.179 -0.5009 -2.2955 -1.9766
  116SAPE   H7Y12226   4.361   5.800   3.054  1.7728 -0.6896  1.0226
  116SAPE   C3812227   4.278   5.883   3.245 -0.4146 -0.7214  0.4395
  116SAPE   H8X12228   4.219   5.790   3.255 -1.5494 -0.0173  0.4125
  116SAPE   H8Y12229   4.206   5.961   3.213  0.4471 -0.9335 -2.2732
  116SAPE   C3912230   4.341   5.936   3.373 -0.1056 -0.2956 -0.5437
  116SAPE   H9X12231   4.405   6.026   3.362  0.9003 -0.8888  0.2958
  116SAPE   H9Y12232   4.392   5.854   3.428  0.1728  0.2563  0.0359
  116SAPE  C31012233   4.229   5.982   3.470  0.1137 -0.1124  0.2611
  116SAPE  H10X12234   4.151   5.904   3.478 -0.7387  0.3702 -2.2603
  116SAPE  H10Y12235   4.181   6.073   3.428  1.3411  0.7197  0.6134
  116SAPE  C31112236   4.280   6.016   3.612  0.1504  0.1369 -0.0402
  116SAPE  H11X12237   4.202   6.063   3.674  0.5576 -2.2772  2.4734
  116SAPE  H11Y12238   4.358   6.093   3.594 -0.2223  0.5574  0.1369
  116SAPE  C31212239   4.321   5.899   3.703 -0.1920 -0.6056  0.9423
  116SAPE  H12X12240   4.422   5.874   3.664 -0.7224 -2.2298  0.5382
  116SAPE  H12Y12241   4.247   5.822   3.672 -0.6897  0.6269 -1.1062
  116SAPE  C31312242   4.318   5.926   3.855 -0.7241  0.1238 -0.0468
  116SAPE  H13X12243   4.220   5.946   3.904 -1.3027 -2.1206 -0.1592
  116SAPE  H13Y12244   4.380   6.017   3.871 -0.7751  0.3718 -1.1429
  116SAPE  C31412245   4.373   5.807   3.925 -0.2017 -0.2886 -0.6858
  116SAPE  H14X12246   4.462   5.762   3.876 -0.1995  1.1250 -2.0610
  116SAPE  H14Y12247   4.297   5.726   3.929 -0.6017  0.1317  0.3799
  116SAPE  C31512248   4.408   5.843   4.070  0.1103 -0.8183  0.1913
  116SAPE  H15X12249   4.315   5.887   4.110 -0.7150 -1.8724 -0.5142
  116SAPE  H15Y12250   4.487   5.921   4.069 -2.7601  2.3671  1.7863
  116SAPE  C31612251   4.456   5.726   4.165 -0.0031 -0.0567  0.1075
  116SAPE  H16X12252   4.557   5.688   4.140 -0.0130  0.3031 -0.5032
  116SAPE  H16Y12253   4.381   5.644   4.158  0.5885 -0.4898 -1.5476
  116SAPE  C31712254   4.449   5.769   4.314  0.0439 -0.0877 -0.6075
  116SAPE  H17X12255   4.348   5.794   4.352  1.0084 -0.4403  2.4646
  116SAPE  H17Y12256   4.507   5.863   4.320  2.0009 -1.2284 -0.8053
  116SAPE  C31812257   4.505   5.671   4.421  1.0599  0.1930 -0.2649
  116SAPE  H18X12258   4.514   5.722   4.519 -0.9534  1.6560 -0.7765
  116SAPE  H18Y12259   4.602   5.618   4.404 -0.4568 -2.2779 -1.8665
  116SAPE  H18Z12260   4.431   5.593   4.445  0.9411  0.6080  0.7719
  117SOPE     N12261   1.774   6.813   6.138 -0.1736 -0.6253  0.4471
  117SOPE   HN112262   1.671   6.799   6.139 -0.5922  1.8602 -0.9072
  117SOPE   HN212263   1.821   6.727   6.172 -0.6646 -0.7727  0.7657
  117SOPE   HN312264   1.800   6.888   6.205 -0.1219 -1.4275  1.3509
  117SOPE   C1212265   1.820   6.844   6.000  0.0230  0.3722  1.0430
  117SOPE  H12A12266   1.732   6.806   5.942  0.5585 -0.3982  0.7178
  117SOPE  H12B12267   1.902   6.771   5.989  0.8449  1.2765  1.0948
  117SOPE   C1112268   1.852   7.000   5.987 -1.0775  0.3073  0.4620
  117SOPE  H11A12269   1.765   7.066   5.966 -0.8121  0.5919  0.2438
  117SOPE  H11B12270   1.925   7.011   5.904 -0.4214 -0.2823  0.9474
  117SOPE     P12271   2.020   7.150   6.110  0.0667  0.1125 -0.1142
  117SOPE   O1312272   2.054   7.192   6.241 -0.0460 -0.0813 -0.5919
  117SOPE   O1412273   1.978   7.251   6.009  0.0324 -0.0265  0.6643
  117SOPE   O1212274   1.908   7.033   6.119  0.0647  0.6114 -0.2059
  117SOPE   O1112275   2.154   7.069   6.053 -0.8635  0.1343  0.0258
  117SOPE    C112276   2.205   6.967   6.145  0.7363  0.2778  0.7750
  117SOPE    HA12277   2.119   6.925   6.203  1.8584  0.0608  2.3630
  117SOPE    HB12278   2.292   7.002   6.204  1.7229  0.1607 -0.5610
  117SOPE    C212279   2.273   6.847   6.061  0.0792  0.6990  0.0411
  117SOPE    HS12280   2.379   6.876   6.041 -0.1281  1.5382  0.1343
  117SOPE   O2112281   2.200   6.821   5.935  0.0891  0.0206  0.4860
  117SOPE   C2112282   2.259   6.879   5.829 -0.3238  0.1401  0.1468
  117SOPE   O2212283   2.363   6.945   5.827  0.3031  0.7084  0.8021
  117SOPE   C2212284   2.184   6.848   5.698 -0.1416 -0.4759 -0.1986
  117SOPE   H2R12285   2.265   6.814   5.630  0.2894 -0.3579  0.2492
  117SOPE   H2S12286   2.148   6.947   5.661  3.9327  1.2991  0.0341
  117SOPE    C312287   2.278   6.720   6.139 -0.3754  0.3370 -0.5233
  117SOPE    HX12288   2.181   6.667   6.156  0.1886 -0.0091  1.9484
  117SOPE    HY12289   2.317   6.742   6.240  2.8734 -3.7696 -0.5903
  117SOPE   O3112290   2.376   6.633   6.072  0.0888  0.3958 -0.3932
  117SOPE   C3112291   2.340   6.510   6.036  0.1200 -0.7171 -0.0220
  117SOPE   O3212292   2.236   6.449   6.056  0.3047 -0.2359  0.0889
  117SOPE   C3212293   2.457   6.445   5.968  0.1552  0.3536 -0.0321
  117SOPE   H2X12294   2.435   6.337   5.969 -1.3522  0.6384  1.2080
  117SOPE   H2Y12295   2.539   6.457   6.041 -0.0248 -1.8209  0.5959
  117SOPE   C2312296   2.078   6.736   5.705 -0.3759  0.0333  0.0678
  117SOPE   H3R12297   2.007   6.773   5.782 -2.4938 -1.3583 -1.0997
  117SOPE   H3S12298   2.120   6.644   5.750 -3.4372 -0.9462  1.2203
  117SOPE   C2412299   2.002   6.710   5.580 -0.6224 -0.1686  0.4883
  117SOPE   H4R12300   2.055   6.764   5.498 -1.1898 -0.3760 -0.0157
  117SOPE   H4S12301   1.994   6.609   5.534 -1.7519  0.8280 -1.6660
  117SOPE   C2512302   1.860   6.770   5.584  0.2404 -0.0685 -0.4570
  117SOPE   H5R12303   1.804   6.711   5.659  1.1871 -2.4574 -1.5365
  117SOPE   H5S12304   1.860   6.876   5.619 -0.1008  0.0289 -0.7470
  117SOPE   C2612305   1.784   6.758   5.453  0.2433 -0.1925 -0.0954
  117SOPE   H6R12306   1.830   6.766   5.353 -2.8794  1.8236 -1.5042
  117SOPE   H6S12307   1.754   6.651   5.456  1.4308 -0.5842 -1.2874
  117SOPE   C2712308   1.660   6.843   5.464 -0.0088 -0.6108 -0.0172
  117SOPE   H7R12309   1.607   6.827   5.560  4.4949 -0.2356  2.8136
  117SOPE   H7S12310   1.693   6.949   5.464  4.1699 -1.7345  0.5596
  117SOPE   C2812311   1.549   6.831   5.362  0.5744  0.2524 -0.2660
  117SOPE   H8R12312   1.511   6.728   5.350  1.0507 -0.4010  2.8826
  117SOPE   H8S12313   1.454   6.884   5.390  0.6776  0.3890 -0.1710
  117SOPE   C2912314   1.597   6.884   5.231 -0.2618  0.5493  0.3961
  117SOPE   H9112315   1.689   6.941   5.252  0.2780 -0.4142  0.6891
  117SOPE  C21012316   1.559   6.846   5.109  0.3103  0.2079  0.4786
  117SOPE  H10112317   1.612   6.886   5.021  1.9346 -0.3222  1.1739
  117SOPE  C21112318   1.453   6.746   5.073 -0.8278 -0.5188  0.5334
  117SOPE  H11R12319   1.384   6.801   5.006 -0.2385 -0.0908  0.2665
  117SOPE  H11S12320   1.396   6.714   5.163 -0.1923  0.4986  1.3284
  117SOPE  C21212321   1.501   6.622   4.992 -0.3280 -0.1737  0.2809
  117SOPE  H12R12322   1.581   6.661   4.926  0.3163 -2.0222 -0.0917
  117SOPE  H12S12323   1.422   6.575   4.929  1.9864 -1.4465 -1.8812
  117SOPE  C21312324   1.553   6.504   5.073  0.0568  0.3664 -0.2853
  117SOPE  H13R12325   1.528   6.408   5.021 -1.7958  0.8704 -0.4019
  117SOPE  H13S12326   1.501   6.503   5.171  3.5378  2.1344  1.7520
  117SOPE  C21412327   1.699   6.505   5.096  0.0235 -0.3207  0.7400
  117SOPE  H14R12328   1.734   6.609   5.116 -1.3269 -0.0280  1.7626
  117SOPE  H14S12329   1.752   6.477   5.003  0.6651 -1.6534  1.4818
  117SOPE  C21512330   1.743   6.414   5.212  0.1035 -1.3127  0.3624
  117SOPE  H15R12331   1.684   6.321   5.207 -1.6494 -0.2387  0.3977
  117SOPE  H15S12332   1.718   6.462   5.309 -1.6122 -0.7984 -0.3025
  117SOPE  C21612333   1.886   6.374   5.200  0.0087  0.8968  0.1644
  117SOPE  H16R12334   1.953   6.448   5.249  1.8267  0.1365 -1.0585
  117SOPE  H16S12335   1.916   6.341   5.098 -1.1723 -0.7941  0.3367
  117SOPE  C21712336   1.931   6.248   5.276 -0.0736  0.5949 -0.6185
  117SOPE  H17R12337   1.841   6.188   5.299 -0.1606  0.3251 -1.6403
  117SOPE  H17S12338   1.970   6.278   5.376 -0.3934  0.4612 -0.4501
  117SOPE  C21812339   2.018   6.141   5.209  0.4634  0.2679 -0.7025
  117SOPE  H18R12340   2.101   6.173   5.143  0.0344 -1.8741 -2.4116
  117SOPE  H18S12341   1.961   6.075   5.141  1.0355 -2.0183  0.8825
  117SOPE  H18T12342   2.050   6.071   5.290 -0.5786  0.0651 -0.4496
  117SOPE   C3312343   2.491   6.498   5.829  0.4208 -0.1443 -0.0485
  117SOPE   H3X12344   2.586   6.447   5.800 -0.1148 -1.3437  0.2271
  117SOPE   H3Y12345   2.515   6.606   5.831 -1.4466  0.4317 -3.1889
  117SOPE   C3412346   2.387   6.463   5.728  0.7444  0.8541  0.3887
  117SOPE   H4X12347   2.287   6.495   5.764  0.0441  1.4079 -1.8637
  117SOPE   H4Y12348   2.373   6.353   5.733  0.7295  0.8257 -0.1684
  117SOPE   C3512349   2.411   6.512   5.585  0.6618  0.6518 -0.4231
  117SOPE   H5X12350   2.521   6.509   5.567  0.5791 -1.4759 -0.8692
  117SOPE   H5Y12351   2.379   6.618   5.580  1.1238  0.8616  0.7626
  117SOPE   C3612352   2.340   6.416   5.483 -0.3164 -0.0825  0.2952
  117SOPE   H6X12353   2.237   6.396   5.519 -0.3793 -0.6867 -0.2081
  117SOPE   H6Y12354   2.401   6.323   5.481  1.1175  0.8153  0.7309
  117SOPE   C3712355   2.335   6.480   5.344  0.0744  0.5995 -0.2343
  117SOPE   H7X12356   2.435   6.527   5.327  1.4993 -1.1106  2.6596
  117SOPE   H7Y12357   2.263   6.564   5.355 -2.6169 -1.6099  0.0568
  117SOPE   C3812358   2.299   6.384   5.229 -0.2703  0.0451  0.5294
  117SOPE   H8X12359   2.192   6.352   5.230  0.1564 -2.3186 -3.8667
  117SOPE   H8Y12360   2.364   6.294   5.236  0.0246  0.1159 -0.8757
  117SOPE   C3912361   2.326   6.459   5.096 -0.0719  1.0890  0.3557
  117SOPE   H9X12362   2.432   6.482   5.076  0.0686 -0.2679 -0.6167
  117SOPE   H9Y12363   2.286   6.562   5.110 -3.1663 -0.1068  1.1901
  117SOPE  C31012364   2.265   6.384   4.980  0.1990  0.0251  0.0015
  117SOPE  H10X12365   2.155   6.401   4.978 -0.1847 -1.7815  2.0300
  117SOPE  H10Y12366   2.277   6.277   5.008 -2.6257 -0.0291  1.3973
  117SOPE  C31112367   2.329   6.418   4.845 -0.4960  0.2621  0.0765
  117SOPE  H11X12368   2.439   6.427   4.859 -0.3196 -0.8252 -0.4793
  117SOPE  H11Y12369   2.286   6.515   4.812 -1.0499  0.7566  2.1386
  117SOPE  C31212370   2.284   6.309   4.749 -0.0775  0.1053  0.6941
  117SOPE  H12X12371   2.174   6.303   4.750 -0.1258  0.4882 -0.5679
  117SOPE  H12Y12372   2.320   6.208   4.779 -1.7341 -0.8524 -0.3835
  117SOPE  C31312373   2.338   6.343   4.604  0.4279 -0.4202  0.8441
  117SOPE  H13X12374   2.294   6.437   4.566  1.8863  0.3949  1.1006
  117SOPE  H13Y12375   2.300   6.264   4.536 -2.0639  0.6885  0.8141
  117SOPE  C31412376   2.494   6.351   4.606  0.1935  0.8371  0.5741
  117SOPE  H14X12377   2.540   6.276   4.674 -1.0021  0.7980  1.3731
  117SOPE  H14Y12378   2.521   6.448   4.655 -1.0099  1.0435  0.8615
  117SOPE  C31512379   2.553   6.327   4.467  0.1542 -0.3775  0.2845
  117SOPE  H15X12380   2.653   6.374   4.467  0.1925 -0.4278 -1.0785
  117SOPE  H15Y12381   2.497   6.379   4.386  1.5622 -0.1471 -0.5679
  117SOPE  C31612382   2.561   6.181   4.424 -0.0876 -0.1371  0.0904
  117SOPE  H16X12383   2.456   6.145   4.419 -0.4484  0.8327  0.4772
  117SOPE  H16Y12384   2.615   6.128   4.505 -0.0824  0.7762  0.6935
  117SOPE  C31712385   2.640   6.175   4.294  0.1980  0.4544  0.3868
  117SOPE  H17X12386   2.667   6.068   4.282 -1.7503 -0.2383  1.6373
  117SOPE  H17Y12387   2.730   6.237   4.312  0.8835  0.4567 -2.5814
  117SOPE  C31812388   2.575   6.237   4.171 -0.3425  0.2315 -0.0291
  117SOPE  H18X12389   2.581   6.348   4.176  1.3506  0.1186  1.4067
  117SOPE  H18Y12390   2.478   6.187   4.149 -0.2956 -0.5683  1.4951
  117SOPE  H18Z12391   2.634   6.226   4.077  1.7946  1.4950  1.1144
  118SOPE     N12392   2.893   0.159   6.203 -0.4322 -0.1335 -0.4257
  118SOPE   HN112393   2.907   0.064   6.243 -2.7681 -0.0862  0.6079
  118SOPE   HN212394   2.824   0.141   6.127 -0.7538 -3.0568  0.4029
  118SOPE   HN312395   2.974   0.192   6.146 -0.5006  0.3327 -0.2488
  118SOPE   C1212396   2.838   0.261   6.296 -0.2016 -0.6734 -0.4158
  118SOPE  H12A12397   2.901   0.267   6.387 -0.3834 -1.5409 -0.2183
  118SOPE  H12B12398   2.730   0.240   6.314 -0.4897  1.5241  0.8756
  118SOPE   C1112399   2.839   0.409   6.234  0.6641 -0.1087 -0.4683
  118SOPE  H11A12400   2.789   0.403   6.134  0.7040 -0.6806 -0.4544
  118SOPE  H11B12401   2.940   0.439   6.200 -0.4566 -0.2284 -4.5066
  118SOPE     P12402   2.828   0.597   6.416 -0.1662  0.1884 -0.1985
  118SOPE   O1312403   2.905   0.512   6.509  0.1730 -0.1594  0.0010
  118SOPE   O1412404   2.718   0.681   6.467 -0.6125 -0.2455  0.1249
  118SOPE   O1212405   2.764   0.509   6.300 -0.2596 -0.6109  0.5449
  118SOPE   O1112406   2.933   0.688   6.339 -0.2121 -0.1192 -0.0335
  118SOPE    C112407   2.888   0.816   6.308  0.2143 -0.4273  0.9403
  118SOPE    HA12408   2.870   0.868   6.404  2.2633 -0.7593  1.5462
  118SOPE    HB12409   2.792   0.818   6.252  1.0651 -0.7603 -0.5985
  118SOPE    C212410   2.985   0.907   6.223 -0.3993 -0.2414 -0.2786
  118SOPE    HS12411   2.944   1.006   6.197 -0.7547  0.1714  1.6903
  118SOPE   O2112412   3.036   0.841   6.102  0.7386  0.5093  0.1925
  118SOPE   C2112413   2.940   0.807   6.020  0.0443  0.4662  0.5506
  118SOPE   O2212414   2.827   0.851   6.019  0.8213 -0.0130 -0.1836
  118SOPE   C2212415   2.997   0.721   5.912 -0.5155 -0.2197  0.1659
  118SOPE   H2R12416   3.050   0.637   5.961 -1.2213 -0.7290  0.0631
  118SOPE   H2S12417   3.070   0.792   5.866 -2.1418  1.5810  0.2443
  118SOPE    C312418   3.103   0.945   6.322 -0.4950  0.9569 -0.3239
  118SOPE    HX12419   3.139   0.859   6.382 -0.9272  1.7437  1.1171
  118SOPE    HY12420   3.063   1.004   6.407 -0.3387  1.1838 -0.4078
  118SOPE   O3112421   3.214   1.000   6.252  0.1506  0.0850  0.2606
  118SOPE   C3112422   3.197   1.126   6.215  0.6515  0.0200  0.7734
  118SOPE   O3212423   3.106   1.193   6.257  0.0661 -0.7869  0.7772
  118SOPE   C3212424   3.303   1.182   6.120  0.7587 -0.0569 -0.2000
  118SOPE   H2X12425   3.376   1.101   6.099  3.2121  1.9286  0.2075
  118SOPE   H2Y12426   3.359   1.262   6.173  2.3980 -1.5300  0.4192
  118SOPE   C2312427   2.907   0.665   5.805  0.4514 -0.4025  0.2061
  118SOPE   H3R12428   2.827   0.600   5.847 -0.1067  0.1907  0.0737
  118SOPE   H3S12429   2.973   0.591   5.754  0.2061 -0.6160  0.1923
  118SOPE   C2412430   2.855   0.756   5.695  0.4129  0.0492  0.4265
  118SOPE   H4R12431   2.802   0.852   5.715 -0.1106  0.1321 -1.1605
  118SOPE   H4S12432   2.948   0.781   5.639 -1.0484 -0.2973 -2.3613
  118SOPE   C2512433   2.757   0.683   5.598  0.2396  0.6647 -0.6934
  118SOPE   H5R12434   2.814   0.596   5.562  0.0672  0.9995 -1.8173
  118SOPE   H5S12435   2.678   0.632   5.657  1.6177  0.1715  0.7834
  118SOPE   C2612436   2.704   0.773   5.492 -0.2173 -0.4640  0.0215
  118SOPE   H6R12437   2.651   0.865   5.526  0.6364  0.2671 -0.5910
  118SOPE   H6S12438   2.797   0.818   5.453 -1.0037  0.5471 -0.7507
  118SOPE   C2712439   2.617   0.706   5.385 -0.0917 -0.1008 -0.1483
  118SOPE   H7R12440   2.687   0.629   5.345 -2.4451 -1.7293 -1.3655
  118SOPE   H7S12441   2.528   0.643   5.407 -0.1797 -1.3412 -3.4540
  118SOPE   C2812442   2.579   0.814   5.285 -0.0547  0.0711  0.2268
  118SOPE   H8R12443   2.486   0.860   5.326  0.4015 -0.9288  2.5028
  118SOPE   H8S12444   2.653   0.892   5.257 -0.4043  0.0865 -0.7139
  118SOPE   C2912445   2.546   0.743   5.162 -0.1001 -0.2102  0.1635
  118SOPE   H9112446   2.591   0.643   5.158 -0.4714 -0.3522 -3.3910
  118SOPE  C21012447   2.457   0.782   5.070  0.2183  0.2222  0.5864
  118SOPE  H10112448   2.440   0.718   4.982  0.0561 -0.1267  0.8672
  118SOPE  C21112449   2.388   0.917   5.069  0.5987  0.2233 -0.0590
  118SOPE  H11R12450   2.444   0.996   5.125 -1.1042  1.6074 -0.2035
  118SOPE  H11S12451   2.293   0.914   5.127  1.4965  1.3936  1.5795
  118SOPE  C21212452   2.370   0.975   4.929 -0.1767 -0.6501  0.7131
  118SOPE  H12R12453   2.472   0.969   4.885  1.2642 -1.2372  3.8734
  118SOPE  H12S12454   2.329   1.078   4.937  1.0998 -0.1415  1.0418
  118SOPE  C21312455   2.269   0.899   4.843 -0.2828 -0.0444  0.2101
  118SOPE  H13R12456   2.176   0.868   4.896 -0.8096  1.3899  0.1781
  118SOPE  H13S12457   2.316   0.808   4.800  0.6428  0.3414  0.3912
  118SOPE  C21412458   2.231   0.992   4.731 -0.2447 -0.4449 -0.2641
  118SOPE  H14R12459   2.321   1.032   4.679  0.2690 -2.3944 -0.9722
  118SOPE  H14S12460   2.177   1.080   4.772  0.2112  0.4716 -1.5313
  118SOPE  C21512461   2.141   0.914   4.632 -0.0730  0.7383 -0.3806
  118SOPE  H15R12462   2.071   0.848   4.687  0.7335 -1.2204 -1.6119
  118SOPE  H15S12463   2.204   0.838   4.582 -1.7619 -1.8994  1.2729
  118SOPE  C21612464   2.088   1.006   4.521  0.7345  0.1260  0.4545
  118SOPE  H16R12465   2.166   1.086   4.519  2.0665 -1.0180  2.3516
  118SOPE  H16S12466   1.987   1.038   4.554 -0.4445  0.7421 -3.3160
  118SOPE  C21712467   2.078   0.939   4.382 -0.3437  0.2141  0.1038
  118SOPE  H17R12468   2.184   0.906   4.368 -0.3105  0.2791  0.2052
  118SOPE  H17S12469   2.043   1.006   4.300 -2.0300 -2.3351 -1.4128
  118SOPE  C21812470   1.995   0.809   4.382 -1.0588  0.0502  0.2917
  118SOPE  H18R12471   2.007   0.765   4.280  0.0106  0.4813  0.2225
  118SOPE  H18S12472   1.888   0.835   4.392 -0.9190  0.4672  0.7420
  118SOPE  H18T12473   2.039   0.745   4.461  2.5283  1.7482 -0.1002
  118SOPE   C3312474   3.234   1.240   5.991 -0.2560  0.8594 -0.6214
  118SOPE   H3X12475   3.306   1.271   5.912 -0.3809 -0.6083 -1.3532
  118SOPE   H3Y12476   3.182   1.336   6.008  0.3567  1.1392 -0.3052
  118SOPE   C3412477   3.138   1.144   5.915 -0.8630  0.0162  0.3258
  118SOPE   H4X12478   3.050   1.147   5.983 -0.9029 -1.0347  0.3250
  118SOPE   H4Y12479   3.160   1.035   5.916 -0.9420 -0.0348  2.5605
  118SOPE   C3512480   3.104   1.194   5.780  0.0196  0.6995  0.0005
  118SOPE   H5X12481   3.182   1.168   5.706 -1.3906  0.3851 -1.4468
  118SOPE   H5Y12482   3.102   1.305   5.791  1.8020  0.6548  1.3118
  118SOPE   C3612483   2.973   1.130   5.726  0.2694  0.9821 -0.7134
  118SOPE   H6X12484   2.890   1.180   5.781 -0.2490  0.4541 -1.0055
  118SOPE   H6Y12485   2.974   1.021   5.746  1.5428  1.0554 -0.2742
  118SOPE   C3712486   2.947   1.156   5.578 -0.1217  0.6172 -0.0879
  118SOPE   H7X12487   2.963   1.263   5.555 -0.4333  0.2916 -1.9414
  118SOPE   H7Y12488   2.844   1.125   5.550 -0.1420 -1.0817  1.5939
  118SOPE   C3812489   3.028   1.065   5.483  0.6595  0.0399  0.0817
  118SOPE   H8X12490   3.013   0.960   5.518  0.3806  0.5587  1.5470
  118SOPE   H8Y12491   3.137   1.088   5.483  0.4000  1.3804 -0.9561
  118SOPE   C3912492   2.989   1.076   5.338 -0.2565  0.5085  0.7597
  118SOPE   H9X12493   2.879   1.067   5.323 -0.2434  0.4908  0.6739
  118SOPE   H9Y12494   3.036   0.993   5.282 -1.3783  0.1229  0.3528
  118SOPE  C31012495   3.039   1.204   5.274 -0.2453  0.0403 -0.5483
  118SOPE  H10X12496   3.150   1.210   5.283 -0.1778 -0.6272 -0.9152
  118SOPE  H10Y12497   3.000   1.302   5.309  2.6287  1.1773 -0.2045
  118SOPE  C31112498   3.025   1.207   5.117  0.3080 -0.1811  0.1543
  118SOPE  H11X12499   3.047   1.106   5.077 -2.3249 -0.9410  0.4011
  118SOPE  H11Y12500   3.098   1.279   5.075 -0.4843  0.0176 -0.9362
  118SOPE  C31212501   2.876   1.241   5.081 -0.3962 -0.0669  0.3500
  118SOPE  H12X12502   2.838   1.323   5.145  1.5582  2.6770 -1.7371
  118SOPE  H12Y12503   2.821   1.149   5.112 -0.2754 -0.3868 -0.3587
  118SOPE  C31312504   2.845   1.280   4.939 -0.3774  1.0210  0.6899
  118SOPE  H13X12505   2.913   1.367   4.922 -0.2229  0.6878 -0.5344
  118SOPE  H13Y12506   2.739   1.309   4.921 -1.6614  0.0396  5.4168
  118SOPE  C31412507   2.869   1.167   4.837 -0.8995 -0.7522 -0.5048
  118SOPE  H14X12508   2.789   1.091   4.847 -1.1685 -0.4779 -0.5703
  118SOPE  H14Y12509   2.963   1.109   4.851  0.1136  0.5107 -1.7281
  118SOPE  C31512510   2.847   1.224   4.695  0.3207 -0.3804  0.2784
  118SOPE  H15X12511   2.886   1.328   4.685 -1.7236  0.3136 -1.0329
  118SOPE  H15Y12512   2.739   1.246   4.685  0.4553 -0.3576 -1.5638
  118SOPE  C31612513   2.889   1.123   4.587  0.5722 -0.5142 -0.1587
  118SOPE  H16X12514   2.993   1.088   4.601  0.2654 -1.1727  0.5433
  118SOPE  H16Y12515   2.875   1.168   4.486  1.2259 -1.6798 -0.7822
  118SOPE  C31712516   2.806   0.990   4.586 -0.1658 -0.1317  0.5233
  118SOPE  H17X12517   2.826   0.950   4.484  1.7430  0.3048  0.6882
  118SOPE  H17Y12518   2.704   1.025   4.610  0.2164  2.4758 -1.2101
  118SOPE  C31812519   2.855   0.881   4.683  0.4531 -0.5316  0.3297
  118SOPE  H18X12520   2.769   0.824   4.725 -1.8406  0.7629 -2.3081
  118SOPE  H18Y12521   2.915   0.915   4.770  0.2756 -0.5245  0.4493
  118SOPE  H18Z12522   2.928   0.817   4.629  1.9219  1.1134  0.2844
  119SOPE     N12523   5.630   2.246   6.975  0.3554 -0.2006 -0.1875
  119SOPE   HN112524   5.544   2.242   6.917 -1.0123  0.0084  1.7272
  119SOPE   HN212525   5.625   2.167   7.043 -0.1245 -1.5092 -1.6983
  119SOPE   HN312526   5.613   2.331   7.033 -2.6478 -0.6694 -0.2311
  119SOPE   C1212527   5.761   2.253   6.899  0.3609 -0.1539  0.0177
  119SOPE  H12A12528   5.846   2.259   6.970  0.8627  1.6091 -0.6663
  119SOPE  H12B12529   5.759   2.353   6.851  2.2713  0.1987  0.6020
  119SOPE   C1112530   5.783   2.137   6.806  0.0629 -0.3218  0.1086
  119SOPE  H11A12531   5.811   2.048   6.868  0.3270  0.3837  1.0201
  119SOPE  H11B12532   5.871   2.159   6.741  0.2417  1.2317  0.8501
  119SOPE     P12533   5.636   2.176   6.593  0.0890 -0.0830  0.3780
  119SOPE   O1312534   5.722   2.104   6.496 -0.1265 -0.2766  0.4083
  119SOPE   O1412535   5.657   2.324   6.595 -0.5505 -0.9520 -0.7519
  119SOPE   O1212536   5.663   2.111   6.730  0.0173  0.0802 -0.4175
  119SOPE   O1112537   5.483   2.136   6.566 -0.1931  0.1814 -0.4969
  119SOPE    C112538   5.425   2.006   6.582 -0.0494  0.0753 -0.7701
  119SOPE    HA12539   5.381   1.992   6.683 -1.0631 -1.4800 -1.3911
  119SOPE    HB12540   5.498   1.925   6.562 -0.6373 -1.1389  1.5994
  119SOPE    C212541   5.293   1.996   6.497 -0.1172  0.2838  0.1474
  119SOPE    HS12542   5.227   2.079   6.531  0.1248 -0.1692  1.8206
  119SOPE   O2112543   5.233   1.864   6.492  0.5196  0.1661 -0.1950
  119SOPE   C2112544   5.200   1.819   6.620 -0.0838 -0.5171  0.2183
  119SOPE   O2212545   5.187   1.888   6.719  0.1169  0.4503 -0.4438
  119SOPE   C2212546   5.169   1.671   6.608  0.3668  0.0110  0.4032
  119SOPE   H2R12547   5.155   1.632   6.711 -3.2451  1.4835  0.6433
  119SOPE   H2S12548   5.256   1.624   6.558 -2.7370 -2.4508 -3.2311
  119SOPE    C312549   5.331   2.034   6.351  0.3047 -0.0584  0.1656
  119SOPE    HX12550   5.382   1.948   6.304  0.0836  1.0548 -2.2865
  119SOPE    HY12551   5.405   2.117   6.354  0.8010 -0.5209  0.7893
  119SOPE   O3112552   5.206   2.073   6.278 -0.4388 -0.8589  0.3020
  119SOPE   C3112553   5.193   2.026   6.157 -0.2014  0.0084 -0.1847
  119SOPE   O3212554   5.264   1.937   6.107  0.1974 -0.1887 -0.1006
  119SOPE   C3212555   5.066   2.081   6.086 -0.7869  1.0554 -0.3239
  119SOPE   H2X12556   5.071   2.191   6.095 -1.5274  1.0149  0.9444
  119SOPE   H2Y12557   4.976   2.055   6.148  0.1486  1.3401  1.2148
  119SOPE   C2312558   5.044   1.630   6.524  0.2048  0.1349  0.4072
  119SOPE   H3R12559   5.054   1.671   6.422  0.4714 -1.1448 -0.1061
  119SOPE   H3S12560   4.946   1.673   6.552 -0.4069 -0.3089 -0.9607
  119SOPE   C2412561   5.032   1.474   6.514  0.2872 -0.8090  0.1539
  119SOPE   H4R12562   5.124   1.437   6.464  1.4883  0.6505  1.1980
  119SOPE   H4S12563   5.036   1.436   6.618  2.4159 -2.8441 -0.5762
  119SOPE   C2512564   4.909   1.414   6.441 -0.6885  0.3703  0.6556
  119SOPE   H5R12565   4.819   1.446   6.497 -0.7364 -0.7065  1.2246
  119SOPE   H5S12566   4.918   1.460   6.340  1.4013  1.6624  1.3615
  119SOPE   C2612567   4.907   1.260   6.426 -0.0545 -0.8984  0.3001
  119SOPE   H6R12568   4.924   1.212   6.525  0.2851  0.7002  1.0516
  119SOPE   H6S12569   4.802   1.238   6.397  0.4350 -1.3711 -1.2041
  119SOPE   C2712570   4.997   1.205   6.306 -0.0268  0.2324 -0.1529
  119SOPE   H7R12571   4.947   1.223   6.208 -2.2993 -2.1462  0.4481
  119SOPE   H7S12572   5.099   1.248   6.299  0.5191 -0.9017  0.6515
  119SOPE   C2812573   5.018   1.051   6.313  0.2311  0.2213 -0.2149
  119SOPE   H8R12574   5.070   1.024   6.219  1.3812 -0.7939  0.6879
  119SOPE   H8S12575   5.087   1.026   6.396 -1.2632  3.1299  2.1320
  119SOPE   C2912576   4.889   0.974   6.335 -0.1656 -1.0622 -0.1277
  119SOPE   H9112577   4.881   0.944   6.440 -0.7942  0.4446  0.2936
  119SOPE  C21012578   4.811   0.927   6.236  0.0713  0.3358  0.5608
  119SOPE  H10112579   4.725   0.865   6.265  0.5250 -0.9838 -0.7727
  119SOPE  C21112580   4.842   0.949   6.089 -0.8647 -1.0350 -0.2347
  119SOPE  H11R12581   4.919   0.876   6.057 -0.9373 -0.2631 -2.3193
  119SOPE  H11S12582   4.893   1.046   6.074  0.4044 -1.2140  2.3592
  119SOPE  C21212583   4.727   0.953   5.989 -0.3005 -0.1118 -0.2170
  119SOPE  H12R12584   4.672   1.047   6.010  1.0173  0.5054  0.6411
  119SOPE  H12S12585   4.671   0.857   6.000  0.6274 -0.6037  0.3290
  119SOPE  C21312586   4.775   0.959   5.841  0.3194 -0.2477 -0.4700
  119SOPE  H13R12587   4.850   0.881   5.815  1.7687  0.2955  1.7958
  119SOPE  H13S12588   4.833   1.053   5.833  2.0092 -0.6205  4.1079
  119SOPE  C21412589   4.666   0.950   5.737  0.7580 -0.2653  0.6575
  119SOPE  H14R12590   4.582   1.017   5.767  1.3946  2.1840 -2.5252
  119SOPE  H14S12591   4.640   0.842   5.741 -0.0905 -0.0718  0.5751
  119SOPE  C21512592   4.683   0.995   5.592  0.3995  0.7231 -0.8851
  119SOPE  H15R12593   4.777   0.941   5.567  0.8569  0.6364  0.9043
  119SOPE  H15S12594   4.695   1.105   5.594  0.1816  0.7762  2.1267
  119SOPE  C21612595   4.562   0.964   5.501  0.1844 -0.5379 -0.3548
  119SOPE  H16R12596   4.475   1.008   5.553  0.0381 -1.5221  0.2434
  119SOPE  H16S12597   4.558   0.853   5.502  0.3064 -0.5431  1.6190
  119SOPE  C21712598   4.580   1.018   5.358 -0.3693 -0.3229  0.2588
  119SOPE  H17R12599   4.687   0.997   5.336  0.0741  1.4530  0.5928
  119SOPE  H17S12600   4.580   1.129   5.364  1.8025 -0.0784 -2.3452
  119SOPE  C21812601   4.497   0.957   5.247 -0.5951  0.3014 -0.2323
  119SOPE  H18R12602   4.503   0.847   5.260 -1.8960  0.3386  0.8570
  119SOPE  H18S12603   4.516   0.992   5.143 -1.6296 -3.1990 -1.7643
  119SOPE  H18T12604   4.392   0.986   5.267 -0.3508  0.6017  0.6264
  119SOPE   C3312605   5.036   2.026   5.940 -0.3732  0.7783  0.4818
  119SOPE   H3X12606   4.930   2.044   5.913 -0.7350  0.0290  1.3408
  119SOPE   H3Y12607   5.045   1.916   5.948 -0.4838  0.7099 -0.3098
  119SOPE   C3412608   5.134   2.072   5.831 -0.0356  0.9733 -0.3956
  119SOPE   H4X12609   5.238   2.059   5.869  0.1137  0.2806 -1.0153
  119SOPE   H4Y12610   5.122   2.181   5.811 -1.1723  0.5005 -2.6320
  119SOPE   C3512611   5.126   1.997   5.699  0.7253 -0.5884 -0.2124
  119SOPE   H5X12612   5.185   2.057   5.625 -1.2947  0.4824 -1.0407
  119SOPE   H5Y12613   5.021   1.998   5.664  0.0857  0.4987  1.5777
  119SOPE   C3612614   5.180   1.852   5.709 -0.2734 -0.2500  0.2551
  119SOPE   H6X12615   5.117   1.788   5.774 -1.4754 -0.6137 -1.1968
  119SOPE   H6Y12616   5.279   1.865   5.757 -1.4659  0.3144  2.7376
  119SOPE   C3712617   5.212   1.794   5.572  0.2202 -0.6874 -0.1138
  119SOPE   H7X12618   5.246   1.881   5.513 -0.3720 -0.2952  0.1067
  119SOPE   H7Y12619   5.117   1.760   5.526 -0.1030 -2.7417  1.8841
  119SOPE   C3812620   5.321   1.687   5.570  0.0395 -0.0579 -0.8629
  119SOPE   H8X12621   5.299   1.612   5.649  0.5265 -0.1398 -0.8023
  119SOPE   H8Y12622   5.417   1.735   5.597 -0.3067  0.4262 -0.4665
  119SOPE   C3912623   5.321   1.601   5.442  0.3679  0.6858  0.7870
  119SOPE   H9X12624   5.227   1.544   5.427 -0.3762  1.7388  1.2793
  119SOPE   H9Y12625   5.398   1.522   5.453  1.2791  1.1243 -1.8251
  119SOPE  C31012626   5.372   1.685   5.322 -0.5508  0.1841  0.1469
  119SOPE  H10X12627   5.471   1.725   5.352 -0.6136  0.0206  0.5821
  119SOPE  H10Y12628   5.311   1.777   5.308 -0.3011  0.3421  0.0802
  119SOPE  C31112629   5.383   1.622   5.179 -0.0438  1.0356  0.4690
  119SOPE  H11X12630   5.443   1.530   5.198 -1.3036  0.2749  0.8392
  119SOPE  H11Y12631   5.439   1.682   5.105 -3.2844  2.6196 -0.8570
  119SOPE  C31212632   5.245   1.605   5.118  0.5149  0.1074 -0.7594
  119SOPE  H12X12633   5.194   1.704   5.112  1.6613  0.6954 -1.1108
  119SOPE  H12Y12634   5.195   1.539   5.192 -1.1837  0.4895 -1.5210
  119SOPE  C31312635   5.226   1.547   4.976  1.6595  0.1520  0.3639
  119SOPE  H13X12636   5.276   1.447   4.981  1.1014 -0.1104  0.8671
  119SOPE  H13Y12637   5.276   1.615   4.903  0.7419  1.9075  1.3192
  119SOPE  C31412638   5.076   1.524   4.943 -0.7563 -0.3474  0.2791
  119SOPE  H14X12639   5.035   1.626   4.926  2.9112  1.2439 -0.0362
  119SOPE  H14Y12640   5.025   1.469   5.025  0.7902 -0.2889  1.3281
  119SOPE  C31512641   5.050   1.456   4.805 -0.1946  0.0187  0.0725
  119SOPE  H15X12642   5.081   1.350   4.813  1.2129  0.3228 -0.8286
  119SOPE  H15Y12643   5.106   1.507   4.723  2.7609  0.3247  2.1013
  119SOPE  C31612644   4.910   1.481   4.771 -0.1404 -0.7878 -0.1191
  119SOPE  H16X12645   4.880   1.581   4.808 -0.2816 -2.1144  3.8944
  119SOPE  H16Y12646   4.834   1.423   4.828  1.0800 -2.1510  0.1752
  119SOPE  C31712647   4.877   1.458   4.624 -0.5758 -0.2218 -0.2808
  119SOPE  H17X12648   4.932   1.535   4.567 -2.3825  0.7769 -0.7512
  119SOPE  H17Y12649   4.767   1.460   4.605 -0.5667  0.5253 -0.2821
  119SOPE  C31812650   4.926   1.327   4.564  0.1348  0.0714 -0.2553
  119SOPE  H18X12651   4.881   1.304   4.465 -0.1310  0.0712 -0.1340
  119SOPE  H18Y12652   4.896   1.236   4.620  2.6413  0.4800  1.9767
  119SOPE  H18Z12653   5.036   1.329   4.579 -0.1169 -1.0658  2.3636
  120SOPE     N12654   5.667   4.201   6.713 -0.8659 -0.4131 -0.4525
  120SOPE   HN112655   5.618   4.113   6.688 -2.0606 -0.1046  0.6939
  120SOPE   HN212656   5.761   4.183   6.755 -1.2164  1.8867  1.5660
  120SOPE   HN312657   5.611   4.240   6.791 -0.7190 -1.0226 -0.0310
  120SOPE   C1212658   5.683   4.281   6.588 -0.8510 -0.4520  0.0171
  120SOPE  H12A12659   5.580   4.317   6.568 -1.3917 -1.8353  0.1567
  120SOPE  H12B12660   5.711   4.215   6.503  1.1404  0.2201  0.0934
  120SOPE   C1112661   5.805   4.380   6.599  0.0192  0.4364  0.0003
  120SOPE  H11A12662   5.797   4.443   6.508  0.6847 -0.4770 -0.7143
  120SOPE  H11B12663   5.899   4.325   6.579 -1.0294 -0.8671 -1.6112
  120SOPE     P12664   5.710   4.569   6.743 -0.1069 -0.0994 -0.3821
  120SOPE   O1312665   5.737   4.604   6.883  0.8935  0.2529 -0.2688
  120SOPE   O1412666   5.577   4.525   6.712 -0.2203 -0.5504  0.2690
  120SOPE   O1212667   5.804   4.449   6.719 -0.4859 -0.0902  0.2011
  120SOPE   O1112668   5.750   4.685   6.653 -0.1272  0.7692  0.1357
  120SOPE    C112669   5.688   4.719   6.530 -0.3516 -0.1163 -0.2840
  120SOPE    HA12670   5.613   4.800   6.544  2.8120  3.2833 -1.3272
  120SOPE    HB12671   5.656   4.628   6.475  0.0341  0.1266 -0.9212
  120SOPE    C212672   5.790   4.796   6.434  0.5393 -0.1723  0.0412
  120SOPE    HS12673   5.730   4.859   6.365  0.4663  0.0879  0.3384
  120SOPE   O2112674   5.875   4.714   6.358 -0.5287 -0.1355  0.4788
  120SOPE   C2112675   5.818   4.663   6.245 -0.2155 -0.1485 -0.0605
  120SOPE   O2212676   5.698   4.662   6.224 -0.0203 -0.1896 -0.1691
  120SOPE   C2212677   5.926   4.599   6.158  0.5154  0.7981  0.2068
  120SOPE   H2R12678   5.950   4.509   6.219 -1.4215 -0.4233 -0.7205
  120SOPE   H2S12679   6.014   4.661   6.129  0.6916 -0.2400 -1.5871
  120SOPE    C312680   5.883   4.890   6.519  0.3400  0.3300 -0.2962
  120SOPE    HX12681   5.959   4.822   6.562  0.8337  0.7699 -0.4589
  120SOPE    HY12682   5.823   4.934   6.602  0.4270  0.4388 -0.2899
  120SOPE   O3112683   5.947   4.985   6.433  0.6047  0.0877 -0.1750
  120SOPE   C3112684   5.889   5.102   6.416 -0.1278  0.1005  0.2726
  120SOPE   O3212685   5.781   5.132   6.463 -0.1173  0.8402  0.4335
  120SOPE   C3212686   5.993   5.187   6.336 -0.2507  0.0577  0.0988
  120SOPE   H2X12687   6.098   5.158   6.359  0.2640  0.6496 -1.3503
  120SOPE   H2Y12688   5.970   5.286   6.382 -3.1761 -0.0115 -1.0070
  120SOPE   C2312689   5.878   4.563   6.011 -0.1797 -0.9817  0.5812
  120SOPE   H3R12690   5.822   4.644   5.960  1.2128  0.1842  0.8579
  120SOPE   H3S12691   5.798   4.489   6.034 -2.0038  0.9573  0.6903
  120SOPE   C2412692   5.982   4.505   5.922  0.9009  0.3131 -0.5925
  120SOPE   H4R12693   6.037   4.588   5.874  1.8630 -1.1293 -2.0962
  120SOPE   H4S12694   6.050   4.439   5.980 -1.5163  0.2169  2.4457
  120SOPE   C2512695   5.917   4.426   5.808 -0.3151 -0.3652  0.1184
  120SOPE   H5R12696   5.853   4.494   5.748 -0.2481 -0.8616 -0.5255
  120SOPE   H5S12697   6.000   4.405   5.739  0.8259  3.1231  0.2187
  120SOPE   C2612698   5.816   4.319   5.845  0.3421 -0.5603  0.1781
  120SOPE   H6R12699   5.854   4.238   5.911 -1.7136 -1.4851  0.3047
  120SOPE   H6S12700   5.727   4.365   5.894  2.1476  0.6293  2.5213
  120SOPE   C2712701   5.759   4.242   5.720  0.1270 -0.4355 -0.7361
  120SOPE   H7R12702   5.843   4.237   5.647  1.1494 -1.9062  0.4467
  120SOPE   H7S12703   5.728   4.139   5.749 -1.1676 -0.3514 -1.7431
  120SOPE   C2812704   5.634   4.307   5.661  0.5661 -0.1097 -0.3110
  120SOPE   H8R12705   5.597   4.241   5.579  0.3447  1.4076 -1.4718
  120SOPE   H8S12706   5.568   4.306   5.750 -1.5416 -2.1392 -1.7724
  120SOPE   C2912707   5.652   4.442   5.607 -0.3727 -0.6056  1.0077
  120SOPE   H9112708   5.658   4.521   5.684  0.1414 -0.5399  0.9067
  120SOPE  C21012709   5.684   4.470   5.478 -0.4031 -0.5782  0.1611
  120SOPE  H10112710   5.719   4.570   5.448 -1.9828  0.8133  2.6408
  120SOPE  C21112711   5.657   4.376   5.362 -0.1063  0.3372 -0.1785
  120SOPE  H11R12712   5.621   4.438   5.277  1.3507  0.8774 -0.4412
  120SOPE  H11S12713   5.576   4.306   5.390  0.3169 -0.4821 -0.9369
  120SOPE  C21212714   5.779   4.294   5.326 -0.6972  0.3379  0.1625
  120SOPE  H12R12715   5.815   4.237   5.414  0.2231  0.9688  0.1961
  120SOPE  H12S12716   5.866   4.356   5.297  1.3561 -1.3994  2.2661
  120SOPE  C21312717   5.752   4.190   5.212  0.2470  0.2147  0.2650
  120SOPE  H13R12718   5.702   4.106   5.265  0.8489 -0.3887 -0.1062
  120SOPE  H13S12719   5.851   4.144   5.187  0.0386 -0.1453  0.0863
  120SOPE  C21412720   5.699   4.244   5.072 -0.1224  0.5804 -0.1709
  120SOPE  H14R12721   5.760   4.331   5.040  0.6215 -0.5195 -1.8627
  120SOPE  H14S12722   5.595   4.284   5.077  0.3582  1.8620  0.0028
  120SOPE  C21512723   5.704   4.139   4.966 -0.1161  0.4320  0.2531
  120SOPE  H15R12724   5.808   4.098   4.961 -0.4105 -0.1587 -2.8652
  120SOPE  H15S12725   5.681   4.201   4.877 -1.3202  0.7904  0.8018
  120SOPE  C21612726   5.615   4.020   4.996 -0.0219 -0.3787  0.2460
  120SOPE  H16R12727   5.509   4.052   4.995  0.8267  2.8702 -1.8156
  120SOPE  H16S12728   5.643   3.975   5.094  0.0510  0.7244  0.7510
  120SOPE  C21712729   5.626   3.916   4.882 -0.1151  0.2692 -0.4409
  120SOPE  H17R12730   5.730   3.879   4.889 -0.8509 -1.9134 -0.1754
  120SOPE  H17S12731   5.624   3.960   4.780  0.1702 -1.0159 -1.0250
  120SOPE  C21812732   5.528   3.796   4.879 -0.4456 -0.7111 -0.0344
  120SOPE  H18R12733   5.580   3.705   4.840  1.4474 -0.1178  0.9811
  120SOPE  H18S12734   5.437   3.821   4.820 -0.2464 -2.3595 -1.1257
  120SOPE  H18T12735   5.509   3.775   4.986  0.3641 -0.9734  0.0637
  120SOPE   C3312736   5.937   5.225   6.193 -0.3334  0.0418 -0.6839
  120SOPE   H3X12737   5.974   5.328   6.175 -1.0533  0.3288 -0.5080
  120SOPE   H3Y12738   5.827   5.240   6.190 -0.0500  3.5787  1.4625
  120SOPE   C3412739   5.980   5.144   6.071  0.3912  0.5358 -1.0775
  120SOPE   H4X12740   6.090   5.127   6.074  0.2806 -0.1246 -0.5089
  120SOPE   H4Y12741   5.950   5.200   5.980 -0.5706  1.3616 -0.2868
  120SOPE   C3512742   5.926   5.001   6.063  0.2239 -0.0388  0.2950
  120SOPE   H5X12743   5.932   4.967   6.169  2.4443  1.7826  0.8271
  120SOPE   H5Y12744   5.997   4.933   6.011  1.4053  0.8767  0.6511
  120SOPE   C3612745   5.776   4.988   6.009 -0.4382  0.5614  0.4434
  120SOPE   H6X12746   5.703   5.050   6.066  0.3352  2.9555 -1.0364
  120SOPE   H6Y12747   5.752   4.880   6.022  0.2996  0.2894 -0.4260
  120SOPE   C3712748   5.757   5.023   5.864  0.1045  0.2251 -0.1779
  120SOPE   H7X12749   5.758   5.134   5.856 -2.8502  0.2010 -4.1208
  120SOPE   H7Y12750   5.654   4.987   5.843  0.1098  0.2483 -0.2413
  120SOPE   C3812751   5.849   4.948   5.766  1.0744 -0.0612 -0.2414
  120SOPE   H8X12752   5.846   4.837   5.780 -0.8821 -0.1858 -1.2698
  120SOPE   H8Y12753   5.953   4.984   5.773  0.4021  1.7654  1.0763
  120SOPE   C3912754   5.796   4.966   5.624 -0.1423 -0.1734  0.3124
  120SOPE   H9X12755   5.821   5.073   5.608  0.5417 -0.5646 -1.5065
  120SOPE   H9Y12756   5.685   4.954   5.616 -0.0769 -0.5642 -0.1053
  120SOPE  C31012757   5.857   4.888   5.515 -0.1920 -0.9424  0.5712
  120SOPE  H10X12758   5.851   4.779   5.537 -2.0081 -1.4689 -1.9830
  120SOPE  H10Y12759   5.961   4.923   5.497 -0.6625  0.8332  1.1196
  120SOPE  C31112760   5.776   4.899   5.377  0.2093  0.4236 -0.0263
  120SOPE  H11X12761   5.753   5.006   5.356 -1.2430 -0.2260 -2.0129
  120SOPE  H11Y12762   5.680   4.845   5.389  1.1661 -0.9978  1.7148
  120SOPE  C31212763   5.864   4.836   5.270  0.3062  0.2334 -0.6835
  120SOPE  H12X12764   5.851   4.727   5.291 -1.7372  0.5826  0.1012
  120SOPE  H12Y12765   5.972   4.851   5.291  0.9942 -4.3604  0.2799
  120SOPE  C31312766   5.829   4.865   5.128 -0.3353  0.0543  0.5457
  120SOPE  H13X12767   5.833   4.975   5.115 -2.8059  0.1792  0.3411
  120SOPE  H13Y12768   5.726   4.829   5.105 -0.2404  1.1116 -1.8674
  120SOPE  C31412769   5.926   4.797   5.032 -0.7816  0.1446  0.1186
  120SOPE  H14X12770   5.938   4.691   5.061  1.6280 -0.3192 -2.2535
  120SOPE  H14Y12771   6.025   4.841   5.057 -0.3552 -0.5419 -0.3427
  120SOPE  C31512772   5.899   4.805   4.881  0.2576 -0.1668  0.5481
  120SOPE  H15X12773   5.985   4.762   4.825 -1.2938 -0.8618 -1.4480
  120SOPE  H15Y12774   5.892   4.913   4.860  1.1012 -0.3297 -0.6531
  120SOPE  C31612775   5.772   4.742   4.823  0.2034  0.9097 -0.0798
  120SOPE  H16X12776   5.688   4.781   4.884 -0.0079 -0.6029  0.6466
  120SOPE  H16Y12777   5.782   4.633   4.844 -1.1665  0.4121 -1.7646
  120SOPE  C31712778   5.740   4.746   4.671 -0.5286  0.3533 -0.5368
  120SOPE  H17X12779   5.674   4.662   4.640 -1.3793  0.7467  0.1741
  120SOPE  H17Y12780   5.838   4.719   4.626 -1.1075 -2.1101 -0.5052
  120SOPE  C31812781   5.679   4.880   4.620 -0.1834 -0.0715  1.1760
  120SOPE  H18X12782   5.573   4.889   4.652 -0.5792  0.4116 -0.1781
  120SOPE  H18Y12783   5.683   4.883   4.509  1.1917 -0.6704  1.1831
  120SOPE  H18Z12784   5.745   4.960   4.660  0.3797 -1.0386  2.2252
  121SOPE     N12785   4.785   2.557   6.929  0.0817 -0.4866 -0.2404
  121SOPE   HN112786   4.721   2.482   6.961 -0.0590 -0.7889 -1.1965
  121SOPE   HN212787   4.828   2.604   7.012  0.2032  2.4795 -1.8738
  121SOPE   HN312788   4.720   2.629   6.892  0.9431  0.8870  0.7911
  121SOPE   C1212789   4.880   2.504   6.831  0.1891  0.0673  0.2181
  121SOPE  H12A12790   4.819   2.489   6.739  0.0062  1.0098  0.1726
  121SOPE  H12B12791   4.921   2.407   6.865  0.6467 -0.2303 -1.1003
  121SOPE   C1112792   4.992   2.610   6.810 -0.4202  0.1613  0.2314
  121SOPE  H11A12793   4.952   2.712   6.788  0.2488  0.6158  1.0692
  121SOPE  H11B12794   5.038   2.574   6.715 -1.5853 -1.3668  0.2158
  121SOPE     P12795   5.202   2.695   6.942 -0.1004  0.3511 -0.2420
  121SOPE   O1312796   5.294   2.626   7.036 -0.7422  0.7693  0.0793
  121SOPE   O1412797   5.151   2.829   6.992  0.2163 -0.4618  0.6481
  121SOPE   O1212798   5.077   2.601   6.920 -0.2357 -0.5312  0.1322
  121SOPE   O1112799   5.262   2.705   6.804 -0.3556 -0.2020 -0.0507
  121SOPE    C112800   5.328   2.603   6.735  0.1181  0.4036 -0.4175
  121SOPE    HA12801   5.258   2.517   6.734 -0.5421  0.9363 -0.8228
  121SOPE    HB12802   5.426   2.573   6.779  0.4320  2.0397  0.0407
  121SOPE    C212803   5.337   2.635   6.579 -0.0250  0.2026 -0.0515
  121SOPE    HS12804   5.418   2.710   6.559  1.9950 -1.7436  0.4070
  121SOPE   O2112805   5.205   2.683   6.539 -0.0015  0.3965 -0.3192
  121SOPE   C2112806   5.204   2.778   6.445  0.0742 -0.0316 -0.3635
  121SOPE   O2212807   5.299   2.801   6.372 -0.1517  0.6285  0.1435
  121SOPE   C2212808   5.064   2.845   6.447  0.3937  0.7325  0.0482
  121SOPE   H2R12809   5.064   2.913   6.536  0.7993 -1.4688  1.8136
  121SOPE   H2S12810   4.983   2.776   6.478 -0.5259  1.0982 -1.4351
  121SOPE    C312811   5.372   2.507   6.507  0.5296  0.2999 -0.4749
  121SOPE    HX12812   5.295   2.432   6.536  1.2417 -0.1818  0.2148
  121SOPE    HY12813   5.466   2.471   6.555  1.3037  0.7000 -1.6394
  121SOPE   O3112814   5.383   2.521   6.368  0.5270  0.0056  0.2038
  121SOPE   C3112815   5.508   2.570   6.329  0.3115  0.2789  0.4637
  121SOPE   O3212816   5.597   2.600   6.399  0.0624 -0.0570 -0.3200
  121SOPE   C3212817   5.517   2.570   6.176  0.4857 -0.1210 -0.1037
  121SOPE   H2X12818   5.583   2.647   6.130 -0.9732  0.5970 -1.0876
  121SOPE   H2Y12819   5.418   2.598   6.136  0.6474  1.2327  0.3872
  121SOPE   C2312820   5.029   2.907   6.305 -1.1655  0.8251  0.0159
  121SOPE   H3R12821   5.035   2.829   6.227 -1.9283  1.1397 -0.3616
  121SOPE   H3S12822   5.103   2.986   6.283 -0.3800 -0.3331 -1.6828
  121SOPE   C2412823   4.888   2.967   6.295  1.0881  0.2343  0.0514
  121SOPE   H4R12824   4.814   2.890   6.325  0.7577  0.3795 -0.3907
  121SOPE   H4S12825   4.888   3.037   6.381  0.4889 -0.3688  0.5609
  121SOPE   C2512826   4.870   3.041   6.162  1.1895  0.0768  0.3662
  121SOPE   H5R12827   4.962   3.101   6.147 -0.2379  2.3690  0.3979
  121SOPE   H5S12828   4.873   2.962   6.084 -2.6104  0.0826  0.0546
  121SOPE   C2612829   4.736   3.121   6.148  0.4118  0.9846 -0.4894
  121SOPE   H6R12830   4.652   3.049   6.163  0.7636  0.5893 -0.3829
  121SOPE   H6S12831   4.709   3.188   6.233  1.6302  0.5316  0.2907
  121SOPE   C2712832   4.736   3.202   6.017  0.8180  0.4946 -0.7874
  121SOPE   H7R12833   4.630   3.233   6.011  0.5769 -0.5242 -2.2224
  121SOPE   H7S12834   4.812   3.282   6.031  0.3308  0.6612  1.2643
  121SOPE   C2812835   4.779   3.125   5.891  0.4281 -0.2468 -0.2469
  121SOPE   H8R12836   4.888   3.104   5.895  0.4741  0.1002  0.3631
  121SOPE   H8S12837   4.721   3.030   5.892  0.5877 -0.3581  1.5628
  121SOPE   C2912838   4.735   3.217   5.782 -0.0960 -0.0525  0.4529
  121SOPE   H9112839   4.782   3.317   5.789 -0.1941 -0.0019  0.3908
  121SOPE  C21012840   4.651   3.188   5.680 -0.1171  0.6903 -0.8469
  121SOPE  H10112841   4.631   3.266   5.605  2.8464  0.5288 -1.9718
  121SOPE  C21112842   4.564   3.063   5.667  0.1054 -0.4149  0.1760
  121SOPE  H11R12843   4.470   3.069   5.726  0.8591  0.8717  1.2860
  121SOPE  H11S12844   4.626   2.974   5.694 -0.9640 -0.7966  1.4653
  121SOPE  C21212845   4.517   3.038   5.525 -1.0732 -0.2385  0.1026
  121SOPE  H12R12846   4.606   3.022   5.460 -1.8982 -0.3478 -1.0392
  121SOPE  H12S12847   4.444   3.113   5.487  0.0704  0.5801 -0.5310
  121SOPE  C21312848   4.456   2.892   5.513  0.1694 -0.6921 -0.5916
  121SOPE  H13R12849   4.373   2.880   5.586 -0.8960 -1.4825 -1.8881
  121SOPE  H13S12850   4.544   2.829   5.538  1.5747  1.1240 -0.6844
  121SOPE  C21412851   4.407   2.856   5.370 -0.1101 -0.4347 -0.4755
  121SOPE  H14R12852   4.328   2.917   5.321  1.1943  2.6067  0.9602
  121SOPE  H14S12853   4.361   2.758   5.396 -0.9090 -0.4398 -1.8174
  121SOPE  C21512854   4.520   2.824   5.273  1.0766  0.4550  0.3646
  121SOPE  H15R12855   4.575   2.743   5.326 -1.0215 -0.8755  0.5953
  121SOPE  H15S12856   4.584   2.914   5.269  0.1089  1.3321  2.8981
  121SOPE  C21612857   4.462   2.783   5.145  0.7565  0.2023  0.3553
  121SOPE  H16R12858   4.403   2.865   5.098  1.3082 -0.2230 -1.1415
  121SOPE  H16S12859   4.389   2.703   5.169 -0.5321  1.0798 -0.5310
  121SOPE  C21712860   4.559   2.721   5.048  0.0571 -0.4023  0.2018
  121SOPE  H17R12861   4.616   2.643   5.103  0.7098 -1.6457 -2.1115
  121SOPE  H17S12862   4.625   2.801   5.010  0.8478 -1.3235 -0.4089
  121SOPE  C21812863   4.494   2.667   4.921  0.0246 -0.0822  0.2546
  121SOPE  H18R12864   4.407   2.602   4.947  0.4053 -0.4267  0.6854
  121SOPE  H18S12865   4.575   2.618   4.863  0.0937 -0.2113  0.4576
  121SOPE  H18T12866   4.463   2.760   4.869  1.3630  0.9180  1.1806
  121SOPE   C3312867   5.544   2.430   6.129 -0.1543  0.5044  0.3703
  121SOPE   H3X12868   5.507   2.353   6.200 -2.2804  0.3056 -0.8499
  121SOPE   H3Y12869   5.654   2.419   6.117 -0.5128 -3.0360 -0.9398
  121SOPE   C3412870   5.486   2.407   5.986  0.1295  1.0775 -0.5025
  121SOPE   H4X12871   5.376   2.394   5.998  0.4881 -3.4868 -0.3625
  121SOPE   H4Y12872   5.518   2.303   5.962 -1.5636  0.4393 -0.1253
  121SOPE   C3512873   5.542   2.514   5.887  0.0125 -0.7061 -0.0470
  121SOPE   H5X12874   5.651   2.526   5.901 -0.2638  2.2856  0.2365
  121SOPE   H5Y12875   5.490   2.610   5.906 -1.6957 -1.6646  0.3095
  121SOPE   C3612876   5.508   2.476   5.747 -0.2047  0.1470 -0.2112
  121SOPE   H6X12877   5.576   2.395   5.713  1.0251  0.9569  0.2459
  121SOPE   H6Y12878   5.542   2.560   5.683 -0.5974 -1.0566 -2.0754
  121SOPE   C3712879   5.366   2.450   5.718 -0.1283  1.1334  0.2905
  121SOPE   H7X12880   5.312   2.531   5.771 -0.2654  1.0771  0.2365
  121SOPE   H7Y12881   5.322   2.358   5.763 -0.2397  0.8296 -0.4209
  121SOPE   C3812882   5.332   2.448   5.573  0.2194  0.3189 -0.1467
  121SOPE   H8X12883   5.412   2.511   5.528  0.3874  2.0349  2.2973
  121SOPE   H8Y12884   5.232   2.496   5.563 -0.6308 -0.8976  1.8566
  121SOPE   C3912885   5.336   2.303   5.514  0.4404  0.4011  0.8079
  121SOPE   H9X12886   5.286   2.241   5.592  0.8109  0.5882  1.1992
  121SOPE   H9Y12887   5.437   2.264   5.487 -0.5318 -2.0043  0.3550
  121SOPE  C31012888   5.249   2.297   5.380  0.1150  0.0045 -0.2915
  121SOPE  H10X12889   5.238   2.386   5.315 -1.2646  0.3285  0.3568
  121SOPE  H10Y12890   5.142   2.276   5.399  0.5264 -0.7180  1.4078
  121SOPE  C31112891   5.296   2.174   5.306 -0.0224  0.6036  0.5006
  121SOPE  H11X12892   5.295   2.093   5.382 -1.1533  2.8788  3.0364
  121SOPE  H11Y12893   5.402   2.200   5.285 -0.2222  0.6974 -0.4431
  121SOPE  C31212894   5.218   2.135   5.179 -0.4139 -0.4895 -0.1647
  121SOPE  H12X12895   5.203   2.230   5.123  1.4144  0.1124  0.2928
  121SOPE  H12Y12896   5.116   2.097   5.200 -0.9527  1.2750  0.5397
  121SOPE  C31312897   5.308   2.033   5.101 -0.6611  0.3880 -0.1401
  121SOPE  H13X12898   5.332   1.942   5.159  0.5115 -1.0525 -2.7304
  121SOPE  H13Y12899   5.409   2.074   5.080 -0.8509 -0.2863 -2.7248
  121SOPE  C31412900   5.247   1.981   4.973 -0.1210 -0.2400  0.2206
  121SOPE  H14X12901   5.137   1.995   4.975 -0.0668  0.1052  1.0970
  121SOPE  H14Y12902   5.258   1.870   4.966 -0.3707 -0.3786  1.6749
  121SOPE  C31512903   5.295   2.064   4.850 -0.3867  0.2365  0.4405
  121SOPE  H15X12904   5.263   2.005   4.762  0.6195 -1.3287  1.0779
  121SOPE  H15Y12905   5.406   2.067   4.848 -0.3284  1.1724  2.4976
  121SOPE  C31612906   5.233   2.204   4.836 -0.1019  0.0178 -0.0758
  121SOPE  H16X12907   5.300   2.260   4.768  0.5927 -1.7744 -0.9205
  121SOPE  H16Y12908   5.248   2.268   4.926 -0.8221  1.0768 -0.6888
  121SOPE  C31712909   5.091   2.199   4.786  0.5755 -0.7583  0.1644
  121SOPE  H17X12910   5.062   2.307   4.783  1.9855 -0.3334  0.8420
  121SOPE  H17Y12911   5.029   2.142   4.857 -2.2079  0.2306 -1.3225
  121SOPE  C31812912   5.067   2.144   4.648 -0.1673  0.0915 -0.0429
  121SOPE  H18X12913   5.140   2.192   4.580 -0.1215 -0.3052 -0.2758
  121SOPE  H18Y12914   4.961   2.165   4.621 -0.4014 -1.2619 -0.2729
  121SOPE  H18Z12915   5.072   2.033   4.651 -2.4767 -0.0528  0.2705
  122SOPE     N12916   6.613   4.094   6.858 -0.0669 -0.3392 -0.1721
  122SOPE   HN112917   6.621   4.110   6.960 -0.5345  0.8128 -0.3015
  122SOPE   HN212918   6.514   4.066   6.845 -0.1121 -0.0197 -0.5154
  122SOPE   HN312919   6.676   4.023   6.816  2.3831  1.1103  0.8682
  122SOPE   C1212920   6.626   4.221   6.772 -0.2265 -0.4975  0.3781
  122SOPE  H12A12921   6.726   4.215   6.724 -1.3549 -1.7865 -1.9869
  122SOPE  H12B12922   6.617   4.303   6.846 -0.5524 -1.2286  1.1563
  122SOPE   C1112923   6.514   4.236   6.665 -0.8746 -0.3567  0.0766
  122SOPE  H11A12924   6.533   4.161   6.585  1.2838  0.6780 -0.4729
  122SOPE  H11B12925   6.530   4.330   6.607 -1.7041 -0.5748 -0.5258
  122SOPE     P12926   6.302   4.091   6.719 -0.2445 -0.3437 -0.3453
  122SOPE   O1312927   6.183   4.091   6.808  0.1968 -0.0494 -0.2340
  122SOPE   O1412928   6.401   3.983   6.752  0.6440 -0.0282  0.1549
  122SOPE   O1212929   6.384   4.237   6.717  0.2743  0.4381  0.1037
  122SOPE   O1112930   6.256   4.083   6.568 -0.5211  0.1731  0.1648
  122SOPE    C112931   6.201   4.204   6.511 -0.9033  0.5605 -0.2902
  122SOPE    HA12932   6.275   4.285   6.527  0.5410 -0.8872  0.6482
  122SOPE    HB12933   6.107   4.237   6.560 -0.6494  1.5749 -0.4634
  122SOPE    C212934   6.204   4.180   6.359  0.6871  0.2645 -0.4072
  122SOPE    HS12935   6.178   4.279   6.315 -0.7092 -0.1430 -0.5730
  122SOPE   O2112936   6.103   4.078   6.319  0.0180 -0.5667  0.3557
  122SOPE   C2112937   5.979   4.119   6.331 -0.1062 -0.3987  0.5924
  122SOPE   O2212938   5.947   4.234   6.365 -0.1828  0.0358 -0.0878
  122SOPE   C2212939   5.884   4.011   6.287 -0.3560 -0.2125 -0.1281
  122SOPE   H2R12940   5.798   4.006   6.357 -0.2083  0.2449  0.0882
  122SOPE   H2S12941   5.938   3.914   6.295  1.2074  0.1645 -3.8632
  122SOPE    C312942   6.344   4.129   6.304  1.0951 -0.3856 -0.6067
  122SOPE    HX12943   6.375   4.027   6.336  2.2215  0.0679 -0.2090
  122SOPE    HY12944   6.420   4.199   6.343  1.7133 -0.3257 -1.8520
  122SOPE   O3112945   6.350   4.127   6.152  0.4265 -0.4171  0.7137
  122SOPE   C3112946   6.471   4.124   6.101 -0.0355  0.5306  0.7667
  122SOPE   O3212947   6.575   4.133   6.166  0.4260  0.0095 -0.1529
  122SOPE   C3212948   6.465   4.087   5.960  0.7189 -0.1423  0.6165
  122SOPE   H2X12949   6.445   3.978   5.955 -0.0724  0.0409 -0.9774
  122SOPE   H2Y12950   6.567   4.107   5.921  0.5649  0.8485  0.6856
  122SOPE   C2312951   5.827   4.060   6.151 -0.2503  0.1048  0.3996
  122SOPE   H3R12952   5.915   4.048   6.085 -1.0458  0.9826 -0.8513
  122SOPE   H3S12953   5.795   4.167   6.155 -1.5710 -0.3049  1.3679
  122SOPE   C2412954   5.707   3.972   6.104  0.3714  0.0337  1.2403
  122SOPE   H4R12955   5.749   3.870   6.093 -0.4274 -0.3532  1.7030
  122SOPE   H4S12956   5.634   3.978   6.187 -2.7416  1.0297 -1.3774
  122SOPE   C2512957   5.648   4.009   5.961 -0.4880  1.1229 -0.2507
  122SOPE   H5R12958   5.611   4.114   5.971  0.3822  1.6705 -2.3087
  122SOPE   H5S12959   5.726   3.994   5.885  0.9768 -0.4787  1.4625
  122SOPE   C2612960   5.541   3.897   5.922  0.9201 -0.2145 -0.2489
  122SOPE   H6R12961   5.579   3.798   5.957 -0.9536 -1.0191 -0.3959
  122SOPE   H6S12962   5.437   3.909   5.959  1.0714 -1.9581  0.8563
  122SOPE   C2712963   5.520   3.879   5.766  1.7119  0.4381  0.0883
  122SOPE   H7R12964   5.471   3.966   5.718 -0.2959  0.4434  2.0078
  122SOPE   H7S12965   5.618   3.868   5.715  2.0193  1.6144  0.3965
  122SOPE   C2812966   5.428   3.756   5.734 -0.0027  0.0932 -0.6080
  122SOPE   H8R12967   5.336   3.777   5.793 -1.0125 -1.9026 -1.3567
  122SOPE   H8S12968   5.392   3.761   5.629 -0.1473  0.4993 -0.5418
  122SOPE   C2912969   5.485   3.621   5.771  0.3051 -0.1835 -0.2177
  122SOPE   H9112970   5.498   3.609   5.879  0.8672 -0.2740 -0.2912
  122SOPE  C21012971   5.496   3.511   5.693  0.4560  0.3725  0.5759
  122SOPE  H10112972   5.523   3.414   5.737  0.3415  0.5513  1.0487
  122SOPE  C21112973   5.457   3.498   5.545 -0.2494  0.1478 -0.5361
  122SOPE  H11R12974   5.380   3.570   5.512  0.2603  0.7887 -0.3620
  122SOPE  H11S12975   5.412   3.398   5.526 -1.0282  0.3931 -0.0051
  122SOPE  C21212976   5.572   3.520   5.452 -0.9083  0.5420  1.0198
  122SOPE  H12R12977   5.656   3.448   5.465  0.0902  0.7609 -2.9171
  122SOPE  H12S12978   5.617   3.620   5.471  1.2870  0.3658 -2.3656
  122SOPE  C21312979   5.539   3.520   5.299 -0.7359  0.4975  0.2945
  122SOPE  H13R12980   5.464   3.593   5.263  0.1726 -0.2773 -3.6502
  122SOPE  H13S12981   5.498   3.419   5.282  1.4561 -0.5168  0.6531
  122SOPE  C21412982   5.657   3.538   5.200 -0.3924 -0.2244 -0.1321
  122SOPE  H14R12983   5.754   3.530   5.255  0.3051  2.7209 -0.7835
  122SOPE  H14S12984   5.665   3.641   5.160 -2.5239 -0.0905 -0.3123
  122SOPE  C21512985   5.640   3.445   5.075  1.0886 -0.1854 -0.4783
  122SOPE  H15R12986   5.534   3.445   5.041  1.3520  1.1436 -1.3520
  122SOPE  H15S12987   5.643   3.345   5.123 -1.3755 -0.5735 -0.9892
  122SOPE  C21612988   5.753   3.470   4.981 -0.2904 -0.1414 -0.3981
  122SOPE  H16R12989   5.842   3.406   5.002  0.1814  0.5630 -0.2325
  122SOPE  H16S12990   5.787   3.575   4.971  0.2995 -0.0582  1.9354
  122SOPE  C21712991   5.713   3.445   4.831  0.2881 -0.6003 -1.0416
  122SOPE  H17R12992   5.641   3.523   4.798  0.8762  1.3139  1.8906
  122SOPE  H17S12993   5.674   3.340   4.828 -0.4556 -0.4310  1.2615
  122SOPE  C21812994   5.844   3.452   4.746  0.7707 -0.4589 -0.2266
  122SOPE  H18R12995   5.879   3.557   4.747 -1.3340  0.2909 -1.0849
  122SOPE  H18S12996   5.844   3.410   4.643  1.1997  1.0367 -0.8566
  122SOPE  H18T12997   5.919   3.388   4.799 -1.5727 -2.3907  0.9900
  122SOPE   C3312998   6.362   4.172   5.878 -0.6146  0.4609  0.4557
  122SOPE   H3X12999   6.403   4.275   5.877  2.9751 -0.7854 -1.6249
  122SOPE   H3Y13000   6.264   4.178   5.929 -2.2185  0.3990 -2.3985
  122SOPE   C3413001   6.327   4.122   5.734  0.1668  1.0075  0.1455
  122SOPE   H4X13002   6.282   4.021   5.741 -2.7406  2.1760 -0.2408
  122SOPE   H4Y13003   6.430   4.111   5.694 -0.5394 -1.9387 -1.1612
  122SOPE   C3513004   6.241   4.213   5.651 -0.9370 -0.3196  0.1956
  122SOPE   H5X13005   6.260   4.321   5.671 -0.7907 -0.2486 -0.2962
  122SOPE   H5Y13006   6.134   4.192   5.673 -0.6358 -1.3578  0.7298
  122SOPE   C3613007   6.254   4.197   5.502  0.4962 -0.8388 -0.5693
  122SOPE   H6X13008   6.213   4.099   5.471 -2.5512 -0.3178  1.3317
  122SOPE   H6Y13009   6.363   4.191   5.486  0.3257 -1.6506 -1.5195
  122SOPE   C3713010   6.181   4.306   5.424 -0.1912  0.7129 -0.0401
  122SOPE   H7X13011   6.229   4.403   5.452  1.1834 -0.2500  1.0564
  122SOPE   H7Y13012   6.073   4.322   5.446 -0.3391  0.5781 -0.6369
  122SOPE   C3813013   6.191   4.268   5.270  0.5779  0.4999  0.0695
  122SOPE   H8X13014   6.135   4.179   5.236  2.6974  0.1667 -2.9517
  122SOPE   H8Y13015   6.298   4.244   5.258  0.4236 -0.5209  0.6693
  122SOPE   C3913016   6.154   4.378   5.177  0.5109 -0.2040  0.6686
  122SOPE   H9X13017   6.247   4.438   5.165  0.5496 -0.3986 -0.0363
  122SOPE   H9Y13018   6.073   4.447   5.209 -0.5840 -1.5442  0.8920
  122SOPE  C31013019   6.105   4.328   5.044  0.4652  0.2352 -0.0164
  122SOPE  H10X13020   5.995   4.319   5.046  0.6225 -2.3268 -0.4423
  122SOPE  H10Y13021   6.151   4.231   5.018 -0.6312 -0.3439  0.1580
  122SOPE  C31113022   6.131   4.416   4.921  0.0639  0.4161 -0.9384
  122SOPE  H11X13023   6.237   4.450   4.926 -0.1413  0.9806 -0.2290
  122SOPE  H11Y13024   6.074   4.511   4.925 -0.9421 -0.2133  0.3661
  122SOPE  C31213025   6.106   4.342   4.788 -0.5345  0.2461 -0.1367
  122SOPE  H12X13026   6.190   4.271   4.771  0.0989  0.9931 -0.1438
  122SOPE  H12Y13027   6.114   4.422   4.711  3.6873  1.8679  1.7319
  122SOPE  C31313028   5.975   4.275   4.778 -0.3400 -0.2652 -0.2016
  122SOPE  H13X13029   5.892   4.344   4.804 -0.9940 -0.7199 -1.0257
  122SOPE  H13Y13030   5.964   4.195   4.854 -0.8168  0.6412  0.7000
  122SOPE  C31413031   5.949   4.233   4.637  0.5082  0.1364 -0.1582
  122SOPE  H14X13032   6.008   4.146   4.601  1.0268  0.0385  0.8610
  122SOPE  H14Y13033   5.966   4.318   4.568 -1.1025  2.3151  1.9664
  122SOPE  C31513034   5.801   4.193   4.607  0.0687 -0.1476  0.4362
  122SOPE  H15X13035   5.719   4.250   4.656  0.2473  0.0749  0.4782
  122SOPE  H15Y13036   5.789   4.086   4.635  0.4190 -0.6278 -1.1474
  122SOPE  C31613037   5.779   4.218   4.449 -0.1167  0.3689 -0.2789
  122SOPE  H16X13038   5.767   4.326   4.426 -2.2158  0.2296 -0.0842
  122SOPE  H16Y13039   5.676   4.176   4.438 -0.4641  1.3088 -0.7396
  122SOPE  C31713040   5.873   4.147   4.352 -0.4395  0.4845  0.3573
  122SOPE  H17X13041   5.864   4.037   4.366  0.6845 -0.0010 -2.2491
  122SOPE  H17Y13042   5.981   4.171   4.361  0.3100 -2.4863  0.3743
  122SOPE  C31813043   5.829   4.157   4.208  0.0963 -0.5632  0.7684
  122SOPE  H18X13044   5.820   4.266   4.186 -0.7675 -1.2937 -3.1135
  122SOPE  H18Y13045   5.720   4.137   4.198 -0.1188  1.5664 -2.4220
  122SOPE  H18Z13046   5.887   4.093   4.139 -0.4003 -0.0612 -0.1241
  123SOPE     N13047   4.177   5.815   2.248  0.4808 -0.4061  0.1491
  123SOPE   HN113048   4.200   5.729   2.195  0.8524  0.3025 -0.8814
  123SOPE   HN213049   4.078   5.803   2.278  0.3890 -1.5143 -0.5550
  123SOPE   HN313050   4.192   5.893   2.181  1.4748 -0.6024  0.1181
  123SOPE   C1213051   4.261   5.823   2.377  0.5492  0.4156  0.3054
  123SOPE  H12A13052   4.213   5.900   2.440  0.6985  0.8995 -0.1633
  123SOPE  H12B13053   4.364   5.849   2.345  0.9881 -0.0348  1.3016
  123SOPE   C1113054   4.252   5.684   2.449 -0.1626 -0.6371  0.4820
  123SOPE  H11A13055   4.316   5.696   2.539  2.7527  2.6182 -1.7669
  123SOPE  H11B13056   4.303   5.594   2.409  2.1725  0.6442  0.4310
  123SOPE     P13057   3.985   5.719   2.515 -0.0796 -0.3637  0.0798
  123SOPE   O1313058   3.883   5.616   2.545  0.4338 -0.1140  0.8922
  123SOPE   O1413059   3.953   5.820   2.415 -0.0163  0.1182 -0.1015
  123SOPE   O1213060   4.121   5.645   2.476  0.1322  0.4026 -0.1015
  123SOPE   O1113061   4.028   5.791   2.648 -0.0615 -0.4571 -1.1961
  123SOPE    C113062   4.122   5.749   2.741 -0.0262 -0.1822 -0.3109
  123SOPE    HA13063   4.222   5.783   2.705 -0.4735 -0.3165 -1.7268
  123SOPE    HB13064   4.120   5.639   2.755 -2.0026  0.0807  2.1567
  123SOPE    C213065   4.097   5.822   2.886  0.2864  0.3862  0.0417
  123SOPE    HS13066   4.178   5.796   2.958  1.3962 -0.1977 -1.3559
  123SOPE   O2113067   3.970   5.781   2.940  0.3119 -0.0026  0.5303
  123SOPE   C2113068   3.966   5.658   3.004  0.2024 -0.0723  1.0757
  123SOPE   O2213069   4.065   5.590   3.020 -0.6956  0.7915  0.1418
  123SOPE   C2213070   3.825   5.626   3.041  0.3883 -0.0465 -0.1742
  123SOPE   H2R13071   3.812   5.516   3.042  1.4870 -0.1842  0.8500
  123SOPE   H2S13072   3.755   5.675   2.970  0.1486  1.4209  1.0359
  123SOPE    C313073   4.114   5.977   2.871 -0.3608 -0.6063 -0.6995
  123SOPE    HX13074   4.037   6.007   2.796 -0.9865  1.1707  0.5694
  123SOPE    HY13075   4.222   5.989   2.846  0.2798  0.4223  2.2269
  123SOPE   O3113076   4.083   6.050   2.992 -0.1679  0.3127  0.7682
  123SOPE   C3113077   3.952   6.075   3.016  0.1833 -0.8995  0.5164
  123SOPE   O3213078   3.862   6.065   2.931 -0.1376 -0.0802  0.2625
  123SOPE   C3213079   3.951   6.142   3.156 -0.5078  0.0841 -0.0019
  123SOPE   H2X13080   3.987   6.247   3.147  0.9807 -0.5816 -3.5441
  123SOPE   H2Y13081   4.030   6.090   3.215 -0.9897  1.1545  1.6491
  123SOPE   C2313082   3.783   5.688   3.172 -0.5251 -0.4423 -0.3010
  123SOPE   H3R13083   3.675   5.665   3.186 -0.3192 -0.0241  2.4923
  123SOPE   H3S13084   3.790   5.799   3.162  0.4399 -0.5689 -1.2251
  123SOPE   C2413085   3.858   5.634   3.289 -0.4363 -0.5797 -0.2491
  123SOPE   H4R13086   3.834   5.528   3.310  0.6187 -0.6850  0.5176
  123SOPE   H4S13087   3.967   5.635   3.268 -0.2403  0.2851  0.6999
  123SOPE   C2513088   3.827   5.721   3.414  0.3770  0.9017 -0.5870
  123SOPE   H5R13089   3.888   5.814   3.415 -0.7956  1.7061 -1.5574
  123SOPE   H5S13090   3.721   5.753   3.401  0.1998  1.0353  0.9462
  123SOPE   C2613091   3.858   5.660   3.550 -0.2885 -0.5391 -0.6801
  123SOPE   H6R13092   3.796   5.568   3.554 -0.2490 -0.6965 -2.7283
  123SOPE   H6S13093   3.964   5.628   3.559 -0.9370 -2.2576  2.8304
  123SOPE   C2713094   3.825   5.753   3.663  0.3527 -0.8221  0.2107
  123SOPE   H7R13095   3.901   5.834   3.668 -2.2808  1.7888  0.2070
  123SOPE   H7S13096   3.731   5.806   3.641  1.0288 -0.1308 -1.1724
  123SOPE   C2813097   3.813   5.678   3.794  0.6989 -0.1375  0.4838
  123SOPE   H8R13098   3.761   5.740   3.870 -0.0747  0.4643 -0.5146
  123SOPE   H8S13099   3.754   5.584   3.792 -1.3042  1.0442  0.7981
  123SOPE   C2913100   3.942   5.643   3.857 -0.5550  1.0392 -0.6311
  123SOPE   H9113101   4.003   5.579   3.791 -0.4551  1.1614 -0.6564
  123SOPE  C21013102   3.992   5.680   3.977  0.4444  0.6163 -0.1919
  123SOPE  H10113103   4.094   5.645   3.999  0.0882  0.5808  1.5631
  123SOPE  C21113104   3.935   5.771   4.086 -0.1330 -0.4174  0.7344
  123SOPE  H11R13105   3.825   5.777   4.068  0.0722  1.2162 -0.2355
  123SOPE  H11S13106   3.972   5.874   4.067 -4.3503  0.8650 -2.0940
  123SOPE  C21213107   3.973   5.732   4.234 -0.3131  0.0337  0.3432
  123SOPE  H12R13108   3.933   5.816   4.295  0.2496 -0.2200  1.0731
  123SOPE  H12S13109   4.084   5.730   4.233 -0.1409  2.1882 -3.3730
  123SOPE  C21313110   3.913   5.597   4.276  0.3455 -0.3824  0.0289
  123SOPE  H13R13111   3.896   5.542   4.180  0.9750  0.4129 -0.5504
  123SOPE  H13S13112   3.809   5.609   4.314 -0.7047 -0.8424 -2.4340
  123SOPE  C21413113   3.990   5.521   4.383  0.0563  0.2151  0.7841
  123SOPE  H14R13114   3.988   5.592   4.468  1.0875  0.2595  0.7808
  123SOPE  H14S13115   4.099   5.508   4.363 -0.6870 -1.7535 -2.7818
  123SOPE  C21513116   3.928   5.383   4.428  0.1887 -0.1874 -0.0598
  123SOPE  H15R13117   3.817   5.393   4.433  0.1764 -0.9166  2.0521
  123SOPE  H15S13118   3.966   5.375   4.532 -1.3376  1.6094  0.6991
  123SOPE  C21613119   3.956   5.261   4.336 -0.2723  0.6487  0.1074
  123SOPE  H16R13120   4.064   5.247   4.315 -0.3325  0.5469 -0.1338
  123SOPE  H16S13121   3.927   5.294   4.234  0.6612 -3.4246 -1.6737
  123SOPE  C21713122   3.890   5.131   4.386 -0.1629 -0.8838 -0.7798
  123SOPE  H17R13123   3.934   5.050   4.324  1.7372 -0.1381 -0.4820
  123SOPE  H17S13124   3.783   5.153   4.367 -0.1484 -0.4768 -0.4019
  123SOPE  C21813125   3.921   5.097   4.529  0.5899 -0.0230 -0.1000
  123SOPE  H18R13126   4.031   5.099   4.547  0.4329 -1.1710  1.1196
  123SOPE  H18S13127   3.880   4.998   4.556  0.4390  0.3368  1.0397
  123SOPE  H18T13128   3.878   5.168   4.604  1.0327  0.0402  0.0981
  123SOPE   C3313129   3.825   6.145   3.237  0.6093 -0.7831  0.1539
  123SOPE   H3X13130   3.793   6.040   3.255  0.4495 -0.4191  2.3555
  123SOPE   H3Y13131   3.749   6.199   3.178  0.8755 -0.3376  0.2067
  123SOPE   C3413132   3.844   6.214   3.373  0.4524 -0.0665  0.3768
  123SOPE   H4X13133   3.856   6.321   3.344  0.2187 -0.5913 -1.9067
  123SOPE   H4Y13134   3.937   6.184   3.426 -0.4751 -0.4519  1.8313
  123SOPE   C3513135   3.723   6.196   3.463 -0.0550  0.2178 -0.1161
  123SOPE   H5X13136   3.632   6.222   3.404  0.1852  0.8079 -0.2277
  123SOPE   H5Y13137   3.726   6.265   3.550  2.4745 -0.9270  0.7703
  123SOPE   C3613138   3.705   6.059   3.533  0.0437  0.1769  0.3132
  123SOPE   H6X13139   3.794   6.043   3.598  1.9921  1.9449 -1.7649
  123SOPE   H6Y13140   3.714   5.977   3.458  2.0245  2.0485 -1.6551
  123SOPE   C3713141   3.576   6.054   3.609  0.1180  0.1626 -0.4261
  123SOPE   H7X13142   3.570   5.952   3.654  2.0303  0.4530  0.6217
  123SOPE   H7Y13143   3.492   6.060   3.537  1.3265 -0.3448 -1.9418
  123SOPE   C3813144   3.565   6.157   3.717 -0.4234 -0.1421 -0.5268
  123SOPE   H8X13145   3.465   6.149   3.765 -0.7370  0.5251 -1.0524
  123SOPE   H8Y13146   3.587   6.258   3.678  2.3515 -1.0583 -1.5975
  123SOPE   C3913147   3.672   6.120   3.830  0.2239 -0.3755  0.1013
  123SOPE   H9X13148   3.773   6.113   3.784  0.6409  2.6865  0.3207
  123SOPE   H9Y13149   3.632   6.021   3.862  1.2145 -0.1123  2.4071
  123SOPE  C31013150   3.674   6.208   3.954  0.2039  0.6500  0.8258
  123SOPE  H10X13151   3.578   6.198   4.009 -1.4635  1.5296 -1.7516
  123SOPE  H10Y13152   3.688   6.314   3.924 -0.1159  0.1358 -1.3243
  123SOPE  C31113153   3.787   6.182   4.058  0.7005  0.2152  0.2740
  123SOPE  H11X13154   3.885   6.198   4.008  0.5283  1.2342  0.2463
  123SOPE  H11Y13155   3.782   6.078   4.097  0.2258  0.6629  1.4639
  123SOPE  C31213156   3.767   6.276   4.180 -0.1325 -0.1378 -0.3959
  123SOPE  H12X13157   3.829   6.246   4.267 -1.4884  1.0869  1.0609
  123SOPE  H12Y13158   3.659   6.260   4.197 -0.2207  0.5791 -0.2313
  123SOPE  C31313159   3.785   6.422   4.154  0.4011  0.0520 -0.1976
  123SOPE  H13X13160   3.717   6.466   4.078 -1.2817 -0.5604  0.9035
  123SOPE  H13Y13161   3.889   6.441   4.119  0.1649  1.3536 -0.2552
  123SOPE  C31413162   3.736   6.510   4.276  0.4800  0.0060 -0.4326
  123SOPE  H14X13163   3.640   6.462   4.304  1.3871 -1.6232  0.0477
  123SOPE  H14Y13164   3.714   6.608   4.230  0.6441  0.1931 -0.1174
  123SOPE  C31513165   3.828   6.518   4.395 -0.3719 -0.0175 -0.4305
  123SOPE  H15X13166   3.925   6.561   4.364  0.2660  0.1550  1.6332
  123SOPE  H15Y13167   3.858   6.415   4.426  3.8882  0.9906 -0.6815
  123SOPE  C31613168   3.776   6.600   4.513  0.6769  0.4434  1.0191
  123SOPE  H16X13169   3.671   6.573   4.540  0.5592  0.2156  0.3563
  123SOPE  H16Y13170   3.773   6.709   4.493 -0.6377  0.2063 -0.2739
  123SOPE  C31713171   3.856   6.579   4.641 -1.0158  0.5321 -0.3952
  123SOPE  H17X13172   3.966   6.592   4.631 -1.1384  2.1480  0.0471
  123SOPE  H17Y13173   3.846   6.475   4.678  2.6054  0.9824  2.3779
  123SOPE  C31813174   3.821   6.673   4.747 -0.2838  0.0613 -0.7220
  123SOPE  H18X13175   3.827   6.782   4.726 -0.7826 -0.2605 -2.8015
  123SOPE  H18Y13176   3.889   6.656   4.833 -1.9012  1.4316  0.9202
  123SOPE  H18Z13177   3.714   6.666   4.778  0.0192 -1.2779  0.0776
  124SOPE     N13178   5.402   2.017   2.064  0.4614 -0.1120 -0.0077
  124SOPE   HN113179   5.407   2.035   1.962  0.9906 -0.0650  0.0214
  124SOPE   HN213180   5.477   1.952   2.094  0.1533  0.0238  1.1097
  124SOPE   HN313181   5.317   1.957   2.071  0.5314 -0.1959  0.1467
  124SOPE   C1213182   5.418   2.145   2.140 -0.8038  0.0693 -0.0294
  124SOPE  H12A13183   5.338   2.213   2.105 -1.4029 -1.3225 -1.4790
  124SOPE  H12B13184   5.516   2.181   2.102 -0.3333 -0.5244  0.5981
  124SOPE   C1113185   5.432   2.119   2.290 -1.2356 -0.1658 -0.0540
  124SOPE  H11A13186   5.333   2.096   2.337 -0.1493 -0.9769  1.9640
  124SOPE  H11B13187   5.475   2.215   2.323 -2.4014  0.1477  0.6154
  124SOPE     P13188   5.644   2.010   2.411 -0.0635 -0.0165  0.4337
  124SOPE   O1313189   5.748   2.095   2.344  0.1718 -0.2670  0.4360
  124SOPE   O1413190   5.676   1.873   2.445  0.6319 -0.0850  0.4850
  124SOPE   O1213191   5.511   2.002   2.314  0.9450 -0.2443 -0.8122
  124SOPE   O1113192   5.578   2.095   2.530 -0.0554 -0.0422  0.1402
  124SOPE    C113193   5.469   2.036   2.595 -0.2332 -0.2969  0.1656
  124SOPE    HA13194   5.397   1.981   2.530  0.1519  1.4715 -1.8427
  124SOPE    HB13195   5.403   2.113   2.641  1.0745  0.2108  1.2466
  124SOPE    C213196   5.523   1.951   2.707  0.0055  0.5758  0.0736
  124SOPE    HS13197   5.587   1.869   2.667  1.5644  1.8554 -0.1533
  124SOPE   O2113198   5.411   1.891   2.766  0.5665 -0.2447  0.5537
  124SOPE   C2113199   5.424   1.797   2.855  0.1857 -0.4346  0.5084
  124SOPE   O2213200   5.521   1.727   2.876 -0.4363  0.2589 -0.0499
  124SOPE   C2213201   5.289   1.764   2.915  0.2934 -0.1553 -1.1656
  124SOPE   H2R13202   5.309   1.672   2.973 -1.5946  0.0008 -0.1825
  124SOPE   H2S13203   5.234   1.713   2.833 -1.5966 -0.5280  0.2631
  124SOPE    C313204   5.615   2.028   2.810 -0.1267 -0.6207  0.4068
  124SOPE    HX13205   5.557   2.123   2.803 -0.3280 -0.8167 -0.9975
  124SOPE    HY13206   5.709   2.046   2.754  1.2670  0.9386  3.0516
  124SOPE   O3113207   5.636   1.970   2.942  0.0900 -0.6764 -0.1131
  124SOPE   C3113208   5.739   1.884   2.944  0.1876 -0.2730 -0.1102
  124SOPE   O3213209   5.812   1.857   2.851 -0.3681 -0.5501 -0.0602
  124SOPE   C3213210   5.739   1.805   3.078 -0.4767 -0.4826 -0.0672
  124SOPE   H2X13211   5.768   1.702   3.047 -2.2354 -2.2180  3.4555
  124SOPE   H2Y13212   5.641   1.791   3.128 -0.0528 -1.9350  0.4041
  124SOPE   C2313213   5.222   1.865   3.015 -0.3381 -0.2131 -0.2680
  124SOPE   H3R13214   5.112   1.848   3.022 -0.6201  1.5837  0.2193
  124SOPE   H3S13215   5.244   1.968   2.979  2.7809  0.4200  2.8579
  124SOPE   C2413216   5.281   1.858   3.151 -0.0378 -0.4487 -0.6217
  124SOPE   H4R13217   5.261   1.760   3.199 -2.8947 -0.8153 -2.2939
  124SOPE   H4S13218   5.391   1.869   3.145  0.0052  1.2047  1.9116
  124SOPE   C2513219   5.233   1.970   3.247  1.1760  0.5160 -0.0521
  124SOPE   H5R13220   5.255   2.061   3.187  0.8862 -1.5216 -3.5159
  124SOPE   H5S13221   5.123   1.964   3.265  1.1514 -1.9283 -0.6685
  124SOPE   C2613222   5.306   1.976   3.377 -0.6945  0.3376  0.3857
  124SOPE   H6R13223   5.301   1.874   3.421 -0.7368  0.1997  0.0652
  124SOPE   H6S13224   5.416   1.992   3.369 -0.5967  0.1834  1.2658
  124SOPE   C2713225   5.255   2.080   3.471  0.0817 -0.2170  0.9054
  124SOPE   H7R13226   5.312   2.175   3.463 -0.2431 -0.0205  0.9115
  124SOPE   H7S13227   5.152   2.113   3.449  0.7794  0.8864 -0.9323
  124SOPE   C2813228   5.261   2.056   3.628 -0.3185 -1.0070  0.0178
  124SOPE   H8R13229   5.198   1.965   3.627  0.1408 -1.3328  0.2795
  124SOPE   H8S13230   5.364   2.035   3.664  0.5551  0.0537 -1.6691
  124SOPE   C2913231   5.190   2.159   3.717 -0.0311  0.4287  0.5045
  124SOPE   H9113232   5.139   2.242   3.665 -0.1381  0.7713  1.1452
  124SOPE  C21013233   5.198   2.154   3.848  0.5050 -0.4369  0.3160
  124SOPE  H10113234   5.148   2.234   3.903 -0.7391 -0.7775 -0.2898
  124SOPE  C21113235   5.279   2.065   3.930 -0.5815  0.1751 -0.5595
  124SOPE  H11R13236   5.354   2.001   3.878 -0.1692 -0.8305  1.1722
  124SOPE  H11S13237   5.213   1.993   3.984  0.5743 -0.0303  0.6376
  124SOPE  C21213238   5.363   2.132   4.044 -0.1624 -0.1736  0.3066
  124SOPE  H12R13239   5.322   2.230   4.076 -1.2844  0.0514 -1.6506
  124SOPE  H12S13240   5.468   2.136   4.009  0.1751 -1.8906  1.0025
  124SOPE  C21313241   5.340   2.054   4.174  0.1026  0.4925  1.0489
  124SOPE  H13R13242   5.421   2.072   4.248  1.2579  1.3529 -0.3579
  124SOPE  H13S13243   5.353   1.948   4.144 -0.1069  1.1815 -1.7716
  124SOPE  C21413244   5.209   2.086   4.240  0.0546 -0.0035  0.1530
  124SOPE  H14R13245   5.118   2.075   4.177 -1.5269 -0.2731  2.3512
  124SOPE  H14S13246   5.211   2.192   4.274  1.0819  0.8357 -2.3480
  124SOPE  C21513247   5.189   1.999   4.362 -0.7500 -0.0389 -0.4467
  124SOPE  H15R13248   5.100   2.048   4.408 -0.0247 -0.0990  1.0759
  124SOPE  H15S13249   5.273   2.029   4.427 -0.3845 -0.4057 -0.7404
  124SOPE  C21613250   5.169   1.848   4.332 -0.1335 -0.2649 -0.4772
  124SOPE  H16R13251   5.254   1.802   4.277  1.8185  0.1461  2.0035
  124SOPE  H16S13252   5.070   1.837   4.282 -1.5497 -0.1808  2.1161
  124SOPE  C21713253   5.153   1.767   4.464 -0.2381 -0.2122 -0.5013
  124SOPE  H17R13254   5.058   1.803   4.508  0.5511  0.2103  0.9403
  124SOPE  H17S13255   5.232   1.781   4.541 -1.2569  1.7466  0.2319
  124SOPE  C21813256   5.138   1.619   4.433  0.6275  0.2470 -0.0952
  124SOPE  H18R13257   5.051   1.590   4.370  0.6324  0.3417 -0.1453
  124SOPE  H18S13258   5.137   1.564   4.529  0.4212 -1.5641 -1.0795
  124SOPE  H18T13259   5.230   1.580   4.384  0.8107  0.5095  0.0412
  124SOPE   C3313260   5.830   1.868   3.184  0.1925  0.3646 -0.3282
  124SOPE   H3X13261   5.794   1.973   3.193 -0.2377  0.3261 -1.3981
  124SOPE   H3Y13262   5.937   1.859   3.157  0.6427  2.0075  0.7502
  124SOPE   C3413263   5.813   1.786   3.319 -0.3642 -0.1916  0.0483
  124SOPE   H4X13264   5.892   1.824   3.388  1.2382 -1.8527 -0.7791
  124SOPE   H4Y13265   5.815   1.675   3.312 -0.8132 -0.0888 -2.8675
  124SOPE   C3513266   5.684   1.823   3.392 -0.6789 -0.2683 -0.3528
  124SOPE   H5X13267   5.592   1.797   3.336 -0.5523 -0.9799 -0.2330
  124SOPE   H5Y13268   5.680   1.933   3.409 -2.0865 -0.5145  1.1346
  124SOPE   C3613269   5.671   1.773   3.537  0.4163 -0.2312 -0.1266
  124SOPE   H6X13270   5.740   1.834   3.599 -1.3087  1.5632  0.1251
  124SOPE   H6Y13271   5.708   1.668   3.540  0.1208 -0.3185  0.7431
  124SOPE   C3713272   5.531   1.786   3.591 -0.4084  0.7174 -0.3305
  124SOPE   H7X13273   5.461   1.732   3.524  1.8593 -0.8096 -1.6246
  124SOPE   H7Y13274   5.502   1.893   3.591  1.3172  1.2266  0.1751
  124SOPE   C3813275   5.511   1.725   3.731  0.2562  0.8564  0.0598
  124SOPE   H8X13276   5.545   1.619   3.723 -1.5276  0.1067  1.6174
  124SOPE   H8Y13277   5.404   1.715   3.759  0.3255  1.4779  0.5555
  124SOPE   C3913278   5.587   1.790   3.838  0.5433  0.0109  0.2420
  124SOPE   H9X13279   5.559   1.897   3.848 -2.9393 -0.8509  0.8921
  124SOPE   H9Y13280   5.692   1.780   3.804 -0.2375 -2.6467 -1.6561
  124SOPE  C31013281   5.566   1.725   3.981  0.6218 -0.2525  0.0827
  124SOPE  H10X13282   5.559   1.615   3.974 -0.9417 -0.2775  1.4464
  124SOPE  H10Y13283   5.465   1.753   4.017 -0.4670  0.1413 -2.9931
  124SOPE  C31113284   5.674   1.774   4.078 -1.0995 -0.0556  0.1780
  124SOPE  H11X13285   5.680   1.883   4.057 -0.0714  0.2976  2.1233
  124SOPE  H11Y13286   5.775   1.740   4.047 -0.9408  1.0119 -0.5673
  124SOPE  C31213287   5.639   1.769   4.221 -0.1815 -0.0942 -0.8154
  124SOPE  H12X13288   5.649   1.665   4.260 -1.9547  0.6169  1.7368
  124SOPE  H12Y13289   5.532   1.795   4.230 -0.0219  0.3274 -0.0089
  124SOPE  C31313290   5.720   1.863   4.308  0.2275  0.4089  0.2413
  124SOPE  H13X13291   5.752   1.952   4.249 -2.6322  1.4004  0.0277
  124SOPE  H13Y13292   5.810   1.806   4.342  1.3507  1.4545 -0.8695
  124SOPE  C31413293   5.645   1.906   4.433  0.4358  0.0389 -0.0022
  124SOPE  H14X13294   5.558   1.972   4.408  1.3857  1.7806  1.0643
  124SOPE  H14Y13295   5.714   1.973   4.489  0.9799 -0.2034 -0.3776
  124SOPE  C31513296   5.616   1.790   4.533  0.1765  0.6332 -0.4594
  124SOPE  H15X13297   5.716   1.742   4.538  0.7134  1.7556  0.1757
  124SOPE  H15Y13298   5.545   1.720   4.485  1.4536 -2.1460  1.4689
  124SOPE  C31613299   5.563   1.849   4.672  0.2453 -0.9240  0.5857
  124SOPE  H16X13300   5.497   1.935   4.649  3.3647  1.8831  1.4208
  124SOPE  H16Y13301   5.645   1.893   4.732  0.5974  1.3794 -1.4349
  124SOPE  C31713302   5.483   1.749   4.756 -0.6158 -0.4929 -0.1259
  124SOPE  H17X13303   5.400   1.713   4.692  0.7158 -1.9420 -1.1019
  124SOPE  H17Y13304   5.445   1.794   4.850 -2.7643  2.4346 -2.2206
  124SOPE  C31813305   5.579   1.632   4.791  0.3022  0.7549 -1.3477
  124SOPE  H18X13306   5.637   1.594   4.704  0.4581 -0.6091 -0.6598
  124SOPE  H18Y13307   5.513   1.555   4.837  1.2049  0.3854 -0.6550
  124SOPE  H18Z13308   5.650   1.666   4.869  0.1834  0.0738 -0.9427
  125SOPE     N13309   6.859   1.422   2.254  0.0573  0.6617  0.5043
  125SOPE   HN113310   6.881   1.509   2.202 -0.0908  1.4601  1.7632
  125SOPE   HN213311   6.867   1.448   2.354 -0.1657  3.3709 -0.1143
  125SOPE   HN313312   6.935   1.354   2.233 -0.2719  0.6337 -0.6841
  125SOPE   C1213313   6.716   1.378   2.212  0.1402 -0.7122 -0.3348
  125SOPE  H12A13314   6.721   1.274   2.174  0.7943 -0.4800 -0.8884
  125SOPE  H12B13315   6.694   1.445   2.126  1.5380 -0.3501 -0.4323
  125SOPE   C1113316   6.615   1.394   2.329 -0.4539 -0.0247 -0.2471
  125SOPE  H11A13317   6.648   1.332   2.415  0.4955  0.6238 -0.1310
  125SOPE  H11B13318   6.515   1.358   2.297 -0.4231 -0.6793  0.3662
  125SOPE     P13319   6.576   1.586   2.500  0.4831 -0.1858  0.1464
  125SOPE   O1313320   6.443   1.531   2.545 -0.4218  0.3909  0.0958
  125SOPE   O1413321   6.589   1.736   2.504  0.3145  0.1835  0.1981
  125SOPE   O1213322   6.607   1.540   2.361 -0.1828  1.0707 -0.2676
  125SOPE   O1113323   6.687   1.515   2.586 -0.1254  0.3890 -0.0006
  125SOPE    C113324   6.712   1.555   2.719  0.5514 -0.3502 -0.2094
  125SOPE    HA13325   6.737   1.662   2.734 -2.3020  0.2231  1.0221
  125SOPE    HB13326   6.800   1.491   2.741  1.3250 -0.5493 -3.3709
  125SOPE    C213327   6.598   1.526   2.813  0.0533 -0.7728 -0.4232
  125SOPE    HS13328   6.508   1.581   2.776 -0.5780 -3.4621 -3.2284
  125SOPE   O2113329   6.646   1.568   2.939  0.3608 -0.2281  0.0924
  125SOPE   C2113330   6.561   1.626   3.020  0.6238  0.1226 -0.1065
  125SOPE   O2213331   6.449   1.655   2.994 -0.0137  0.3136 -0.1013
  125SOPE   C2213332   6.648   1.666   3.140  0.0621 -0.2371  0.0587
  125SOPE   H2R13333   6.741   1.705   3.094 -0.4526 -0.7164 -1.4503
  125SOPE   H2S13334   6.684   1.574   3.190  0.3874 -0.6637 -0.9416
  125SOPE    C313335   6.567   1.375   2.815 -0.0935  0.4447  0.8040
  125SOPE    HX13336   6.663   1.319   2.812 -1.1791 -1.4273 -0.1823
  125SOPE    HY13337   6.526   1.341   2.718 -0.4130  0.6053  0.8815
  125SOPE   O3113338   6.494   1.322   2.936 -0.3557 -0.0217  0.9135
  125SOPE   C3113339   6.362   1.327   2.926 -0.2526 -0.3657  0.2730
  125SOPE   O3213340   6.305   1.361   2.824  0.0307 -0.1613  0.6831
  125SOPE   C3213341   6.303   1.272   3.053 -0.9490 -0.5210 -0.6354
  125SOPE   H2X13342   6.306   1.160   3.053 -1.3296 -0.5589  1.3495
  125SOPE   H2Y13343   6.206   1.325   3.059 -0.5238  0.6134 -2.7060
  125SOPE   C2313344   6.588   1.780   3.231 -0.6806  0.7489 -0.3551
  125SOPE   H3R13345   6.493   1.738   3.271 -0.3291  0.2469 -0.0346
  125SOPE   H3S13346   6.566   1.866   3.164 -1.6016  1.0007  0.2536
  125SOPE   C2413347   6.686   1.803   3.348 -0.3544 -0.2501  0.2105
  125SOPE   H4R13348   6.704   1.706   3.400  1.5432 -0.3259 -0.5042
  125SOPE   H4S13349   6.783   1.834   3.304  0.0436 -0.2899  1.0507
  125SOPE   C2513350   6.654   1.917   3.449 -0.7364  0.1998  0.5537
  125SOPE   H5R13351   6.646   2.014   3.396 -0.7207 -0.3034 -0.3798
  125SOPE   H5S13352   6.551   1.906   3.490 -1.7786  1.9986 -1.3940
  125SOPE   C2613353   6.757   1.937   3.562 -0.2419 -0.4338  0.6168
  125SOPE   H6R13354   6.859   1.915   3.524  0.5040  2.7842  0.4887
  125SOPE   H6S13355   6.771   2.043   3.593  0.6728 -0.8238  1.5751
  125SOPE   C2713356   6.716   1.858   3.682 -0.2668  0.5197 -0.3343
  125SOPE   H7R13357   6.612   1.878   3.716 -0.0585 -1.2465  1.5538
  125SOPE   H7S13358   6.717   1.748   3.665  1.2338  0.8370 -2.7117
  125SOPE   C2813359   6.807   1.894   3.804  0.1281  0.1325 -0.2674
  125SOPE   H8R13360   6.908   1.851   3.792 -0.0098 -0.2610 -0.0144
  125SOPE   H8S13361   6.834   2.001   3.794  3.6630 -0.7283 -1.2797
  125SOPE   C2913362   6.755   1.844   3.942  0.2971 -0.8173  0.1513
  125SOPE   H9113363   6.757   1.734   3.951  4.1730 -1.2335 -3.0729
  125SOPE  C21013364   6.707   1.913   4.043 -0.0378  0.4150 -0.3167
  125SOPE  H10113365   6.656   1.857   4.123  1.3422 -1.1012 -0.4366
  125SOPE  C21113366   6.691   2.063   4.045  0.3373  0.6146 -0.4384
  125SOPE  H11R13367   6.595   2.104   4.006  0.0813  0.0400 -0.4210
  125SOPE  H11S13368   6.759   2.117   3.975 -0.9045  0.9058 -1.4697
  125SOPE  C21213369   6.715   2.118   4.186 -0.0745  0.4220 -0.2350
  125SOPE  H12R13370   6.619   2.098   4.239 -0.6812 -0.8768 -1.7589
  125SOPE  H12S13371   6.734   2.227   4.181 -1.9179  0.7238 -1.4751
  125SOPE  C21313372   6.830   2.065   4.268 -0.1836  0.4766 -0.7928
  125SOPE  H13R13373   6.841   1.955   4.281  0.1374  0.4465 -1.2906
  125SOPE  H13S13374   6.843   2.115   4.366 -0.2490  0.3922 -0.7400
  125SOPE  C21413375   6.963   2.102   4.198 -0.7167  0.4411 -0.3449
  125SOPE  H14R13376   6.965   2.211   4.178 -1.1815  0.2560 -1.4357
  125SOPE  H14S13377   6.956   2.040   4.106 -0.6706 -0.1371  0.0334
  125SOPE  C21513378   7.089   2.066   4.279 -0.2498  0.5613 -0.4630
  125SOPE  H15R13379   7.171   2.064   4.203 -0.3994  1.1968 -0.6469
  125SOPE  H15S13380   7.087   1.965   4.325 -2.2062  0.0271 -1.6181
  125SOPE  C21613381   7.116   2.167   4.390  0.1235  0.1903 -0.2803
  125SOPE  H16R13382   7.026   2.166   4.454  0.3085  0.4390 -0.0121
  125SOPE  H16S13383   7.136   2.268   4.346  0.1857 -1.7925 -5.5924
  125SOPE  C21713384   7.241   2.135   4.474 -0.8733 -0.2375  0.1486
  125SOPE  H17R13385   7.280   2.229   4.520 -0.9099  0.6802 -1.6068
  125SOPE  H17S13386   7.316   2.102   4.400 -1.3579 -2.5255  0.6011
  125SOPE  C21813387   7.226   2.025   4.585 -0.6324 -0.0706 -0.6992
  125SOPE  H18R13388   7.197   2.073   4.681 -1.6726  1.1734 -1.5911
  125SOPE  H18S13389   7.315   1.962   4.603 -1.2953 -0.6306  0.8001
  125SOPE  H18T13390   7.153   1.945   4.559 -1.9142  0.6941  0.4173
  125SOPE   C3313391   6.400   1.323   3.171  0.1868 -0.3550  0.8394
  125SOPE   H3X13392   6.402   1.433   3.154 -0.3850 -0.6776 -1.6856
  125SOPE   H3Y13393   6.496   1.267   3.164  0.9963  1.0291  0.5856
  125SOPE   C3413394   6.334   1.296   3.306 -0.0055  0.0811  0.2733
  125SOPE   H4X13395   6.352   1.192   3.341 -0.0639 -0.4641 -1.2328
  125SOPE   H4Y13396   6.226   1.306   3.280  0.3887  3.1238 -0.5841
  125SOPE   C3513397   6.373   1.402   3.415  0.0383  1.0463  0.4347
  125SOPE   H5X13398   6.292   1.412   3.491  0.3695  2.0326  0.6797
  125SOPE   H5Y13399   6.379   1.505   3.374  1.1475 -0.1487 -2.6552
  125SOPE   C3613400   6.507   1.369   3.483 -0.0105  0.4065 -0.1394
  125SOPE   H6X13401   6.586   1.364   3.405 -0.7630  2.5601 -1.1347
  125SOPE   H6Y13402   6.498   1.268   3.527 -0.0566  0.3996 -0.1646
  125SOPE   C3713403   6.557   1.471   3.587  0.1250  0.7450 -0.2437
  125SOPE   H7X13404   6.501   1.566   3.571 -1.4505 -0.4206 -2.0185
  125SOPE   H7Y13405   6.666   1.489   3.576  0.1844  0.6787  0.2337
  125SOPE   C3813406   6.532   1.428   3.734 -0.2737 -0.4310 -0.0054
  125SOPE   H8X13407   6.590   1.335   3.753  0.0391 -0.4403 -0.9631
  125SOPE   H8Y13408   6.424   1.420   3.760  0.1506 -0.9932  1.7645
  125SOPE   C3913409   6.592   1.529   3.830 -0.0146  0.5156 -0.7336
  125SOPE   H9X13410   6.552   1.629   3.802  0.8486  0.8566 -0.7599
  125SOPE   H9Y13411   6.696   1.539   3.795  0.5194  1.3581  1.0100
  125SOPE  C31013412   6.579   1.488   3.978  0.0729  0.5872 -0.0112
  125SOPE  H10X13413   6.470   1.478   3.996 -0.7292  4.1332 -1.9434
  125SOPE  H10Y13414   6.609   1.569   4.049 -1.2949  0.4046  0.8025
  125SOPE  C31113415   6.677   1.374   4.016  0.2114 -0.2599 -0.8841
  125SOPE  H11X13416   6.779   1.416   4.005 -0.2688  0.5379 -2.6024
  125SOPE  H11Y13417   6.667   1.296   3.937  2.0134 -0.8068 -0.6121
  125SOPE  C31213418   6.649   1.313   4.154 -0.1082  0.0184 -0.7599
  125SOPE  H12X13419   6.549   1.265   4.164  0.9219 -1.8570  2.0760
  125SOPE  H12Y13420   6.651   1.396   4.228 -0.9561  0.2155 -0.9467
  125SOPE  C31313421   6.770   1.218   4.186 -0.9827 -0.0623  0.3563
  125SOPE  H13X13422   6.861   1.281   4.196 -1.6323  0.6738  1.8389
  125SOPE  H13Y13423   6.784   1.147   4.101  3.2148 -1.3080  1.8269
  125SOPE  C31413424   6.764   1.151   4.324  0.0045  0.3245 -0.2941
  125SOPE  H14X13425   6.860   1.097   4.335  0.9338  1.5997 -1.7196
  125SOPE  H14Y13426   6.679   1.079   4.326  0.0305  0.2803 -0.7217
  125SOPE  C31513427   6.752   1.257   4.443 -0.0377  0.2820 -0.8950
  125SOPE  H15X13428   6.655   1.311   4.453 -0.5329 -1.0141  3.7900
  125SOPE  H15Y13429   6.837   1.326   4.429  0.8931  0.1329  2.9870
  125SOPE  C31613430   6.764   1.187   4.578  0.0328 -0.0317  0.0714
  125SOPE  H16X13431   6.867   1.146   4.575  1.0757  2.3619  0.4050
  125SOPE  H16Y13432   6.682   1.119   4.610 -0.4674  0.4953 -0.0753
  125SOPE  C31713433   6.764   1.296   4.689  0.3573  0.8805  0.2619
  125SOPE  H17X13434   6.668   1.350   4.680  1.2132  2.5425  0.6855
  125SOPE  H17Y13435   6.848   1.365   4.667  0.0312  1.7115  1.5228
  125SOPE  C31813436   6.798   1.236   4.823  0.2725 -0.4572 -0.3057
  125SOPE  H18X13437   6.808   1.312   4.903 -4.3070  0.2966 -0.1752
  125SOPE  H18Y13438   6.892   1.177   4.817  0.0919 -0.7828  0.0219
  125SOPE  H18Z13439   6.722   1.161   4.853 -0.4770  1.1143  2.0399
  126SOPE     N13440   1.635   4.113   2.592  0.6416  0.3273  0.2013
  126SOPE   HN113441   1.561   4.055   2.548  0.5635  0.5783 -0.0022
  126SOPE   HN213442   1.650   4.080   2.690  0.4737  2.6516  1.0751
  126SOPE   HN313443   1.613   4.215   2.591 -2.9973 -0.3343 -0.4417
  126SOPE   C1213444   1.758   4.076   2.514  0.4245 -0.3391  1.1533
  126SOPE  H12A13445   1.733   4.109   2.411 -0.3957 -0.1885  1.3939
  126SOPE  H12B13446   1.780   3.968   2.519  0.6292 -0.3349  0.4447
  126SOPE   C1113447   1.886   4.148   2.561  0.6073  0.0835 -0.4708
  126SOPE  H11A13448   1.953   4.170   2.475  1.4095  4.2134  0.9721
  126SOPE  H11B13449   1.937   4.071   2.623  1.2076  0.4544 -0.5004
  126SOPE     P13450   1.875   4.406   2.609  0.3616  0.2242  0.1061
  126SOPE   O1313451   1.764   4.454   2.531 -0.5970 -0.0649 -0.0367
  126SOPE   O1413452   2.014   4.416   2.551 -0.5412  0.0790 -0.0187
  126SOPE   O1213453   1.851   4.254   2.654  0.5011  0.0936 -0.0200
  126SOPE   O1113454   1.867   4.485   2.746  0.2286 -0.3247  0.2347
  126SOPE    C113455   1.768   4.444   2.841  0.5794 -0.6314  0.2595
  126SOPE    HA13456   1.702   4.357   2.820 -2.1526  1.1712  0.8418
  126SOPE    HB13457   1.699   4.527   2.868  0.1127 -1.1748  0.7681
  126SOPE    C213458   1.844   4.405   2.972 -0.1451 -0.0555  0.9479
  126SOPE    HS13459   1.776   4.344   3.035 -1.6418  0.8106  0.2311
  126SOPE   O2113460   1.885   4.526   3.038  0.2236 -0.1739 -0.4755
  126SOPE   C2113461   1.782   4.591   3.097 -1.0439 -0.1082 -0.4137
  126SOPE   O2213462   1.674   4.539   3.124 -1.0915 -0.0806 -0.4463
  126SOPE   C2213463   1.830   4.727   3.140 -0.3576  0.5402 -0.3790
  126SOPE   H2R13464   1.742   4.792   3.161 -0.7731 -0.4081  0.9081
  126SOPE   H2S13465   1.889   4.777   3.060 -0.0153  0.8238  0.0494
  126SOPE    C313466   1.968   4.316   2.942  0.3730  0.4334 -0.0996
  126SOPE    HX13467   2.032   4.368   2.867  2.1942  1.3366  1.9597
  126SOPE    HY13468   1.933   4.220   2.897  3.1048  0.7496 -3.2579
  126SOPE   O3113469   2.048   4.290   3.061 -0.0266 -0.2842 -0.1315
  126SOPE   C3113470   2.161   4.354   3.069 -0.0989  0.0088  0.2042
  126SOPE   O3213471   2.205   4.441   2.995  0.4830 -0.8072  0.4921
  126SOPE   C3213472   2.251   4.295   3.177  0.6021 -0.3645 -0.1436
  126SOPE   H2X13473   2.349   4.261   3.137  0.6195 -0.1961 -0.2431
  126SOPE   H2Y13474   2.205   4.201   3.213  0.0641  0.0369  0.2283
  126SOPE   C2313475   1.921   4.731   3.267  0.4221  0.2319  0.2129
  126SOPE   H3R13476   1.957   4.836   3.271  1.3436 -0.0664  3.6185
  126SOPE   H3S13477   2.006   4.659   3.272 -1.0504 -1.5150  1.4328
  126SOPE   C2413478   1.837   4.705   3.390  0.2468  0.2015 -1.1365
  126SOPE   H4R13479   1.760   4.785   3.397  1.7601  1.5646  1.9292
  126SOPE   H4S13480   1.775   4.614   3.376 -2.1448  1.6264 -0.4051
  126SOPE   C2513481   1.921   4.683   3.519  0.4311 -0.4005 -0.5695
  126SOPE   H5R13482   1.869   4.615   3.590  1.8015 -0.3887  0.4732
  126SOPE   H5S13483   2.015   4.637   3.481 -0.2628 -1.2169 -1.3476
  126SOPE   C2613484   1.971   4.816   3.591  0.1472 -0.2018 -0.2592
  126SOPE   H6R13485   2.036   4.861   3.514 -1.6579 -2.3101 -3.2219
  126SOPE   H6S13486   1.889   4.887   3.612 -0.2620 -0.5959 -0.5050
  126SOPE   C2713487   2.038   4.790   3.731  0.4805  0.9823  0.2992
  126SOPE   H7R13488   2.090   4.692   3.736 -2.3390 -0.6257  0.6215
  126SOPE   H7S13489   2.102   4.878   3.753  2.2590 -0.4563  1.0930
  126SOPE   C2813490   1.930   4.784   3.833  0.2133 -0.1436 -0.3653
  126SOPE   H8R13491   1.873   4.879   3.832  0.9938  0.3315 -0.6334
  126SOPE   H8S13492   1.856   4.701   3.821 -0.7731  0.9838 -2.7597
  126SOPE   C2913493   1.995   4.798   3.969  0.1857 -0.2256  0.2450
  126SOPE   H9113494   2.070   4.877   3.981 -0.3625  0.3174  0.1589
  126SOPE  C21013495   1.967   4.722   4.071  0.5066 -0.1193 -0.0936
  126SOPE  H10113496   1.996   4.747   4.175 -1.5631 -5.0727  1.9752
  126SOPE  C21113497   1.871   4.605   4.079 -0.1806  0.2170 -0.5579
  126SOPE  H11R13498   1.913   4.530   4.150  0.4306 -0.7293 -1.8663
  126SOPE  H11S13499   1.865   4.556   3.979 -0.0331 -2.5071  0.6593
  126SOPE  C21213500   1.725   4.639   4.122 -0.4446 -0.3078  0.2721
  126SOPE  H12R13501   1.656   4.566   4.075  0.2926 -0.4225 -0.6719
  126SOPE  H12S13502   1.707   4.745   4.094  1.1480  0.9552  3.5132
  126SOPE  C21313503   1.710   4.625   4.279 -0.3188 -0.4826  0.3128
  126SOPE  H13R13504   1.721   4.725   4.328  0.9172 -0.2244 -0.4482
  126SOPE  H13S13505   1.795   4.573   4.328 -0.2355  0.7226  1.5069
  126SOPE  C21413506   1.582   4.555   4.327 -0.4219 -0.2167 -0.4600
  126SOPE  H14R13507   1.585   4.534   4.436 -1.4275 -3.0117 -0.8820
  126SOPE  H14S13508   1.592   4.461   4.268  1.3073 -0.6415  0.4477
  126SOPE  C21513509   1.463   4.638   4.294  0.3065 -0.5994  0.8249
  126SOPE  H15R13510   1.465   4.688   4.195  1.1965 -0.2764  0.9993
  126SOPE  H15S13511   1.452   4.719   4.370 -0.6023 -0.7971  0.9159
  126SOPE  C21613512   1.341   4.555   4.319 -0.3094  0.4297  0.9967
  126SOPE  H16R13513   1.349   4.453   4.277  0.3228  0.3389  1.3203
  126SOPE  H16S13514   1.251   4.590   4.265 -0.6160  0.9106  1.7965
  126SOPE  C21713515   1.295   4.546   4.472  0.0687  0.5978  0.4159
  126SOPE  H17R13516   1.372   4.483   4.522  0.1873  0.7425  0.4165
  126SOPE  H17S13517   1.210   4.475   4.467  1.8971 -1.6261 -1.0145
  126SOPE  C21813518   1.268   4.672   4.553 -0.3723  0.7242 -0.0621
  126SOPE  H18R13519   1.177   4.724   4.516 -0.3284  0.4307 -0.6045
  126SOPE  H18S13520   1.359   4.735   4.544  0.6940 -0.5398  1.3815
  126SOPE  H18T13521   1.250   4.644   4.659  0.1158  0.7407  0.0289
  126SOPE   C3313522   2.268   4.387   3.299  0.0494  0.2203  0.5443
  126SOPE   H3X13523   2.172   4.442   3.310 -0.2661 -0.2765  0.2920
  126SOPE   H3Y13524   2.347   4.459   3.267  1.8878 -2.0836 -0.3549
  126SOPE   C3413525   2.297   4.314   3.432 -0.2969 -0.4274  0.0740
  126SOPE   H4X13526   2.395   4.261   3.429  0.1362  0.3609 -0.1939
  126SOPE   H4Y13527   2.221   4.233   3.432 -2.0681  1.1149 -1.6133
  126SOPE   C3513528   2.296   4.403   3.559  0.9326  0.7772  0.0758
  126SOPE   H5X13529   2.195   4.440   3.587  0.4608  1.0456 -1.8441
  126SOPE   H5Y13530   2.359   4.488   3.523  0.7131  0.8319 -0.1827
  126SOPE   C3613531   2.365   4.330   3.674 -0.4943 -0.5054 -0.4955
  126SOPE   H6X13532   2.468   4.314   3.638 -0.4217 -1.0117 -0.0720
  126SOPE   H6Y13533   2.328   4.229   3.702  0.3190 -0.1639  2.1264
  126SOPE   C3713534   2.386   4.415   3.809  0.8925  0.8810  0.4131
  126SOPE   H7X13535   2.285   4.451   3.838 -0.5122 -1.6635 -0.9563
  126SOPE   H7Y13536   2.458   4.497   3.784  1.5603  0.1782 -0.0106
  126SOPE   C3813537   2.435   4.326   3.927 -0.0413 -0.9133  0.5435
  126SOPE   H8X13538   2.538   4.293   3.901  0.7756  2.1636 -0.5201
  126SOPE   H8Y13539   2.367   4.239   3.934  0.7350 -1.8101 -1.8448
  126SOPE   C3913540   2.446   4.383   4.067 -0.0782 -0.4601  0.2725
  126SOPE   H9X13541   2.348   4.409   4.113 -0.4802  0.0283 -0.8426
  126SOPE   H9Y13542   2.510   4.472   4.053  2.0226 -2.0656 -0.9662
  126SOPE  C31013543   2.510   4.278   4.156 -0.0192 -0.0616  0.5432
  126SOPE  H10X13544   2.602   4.247   4.102 -0.2530  1.1458 -0.6154
  126SOPE  H10Y13545   2.441   4.191   4.166 -0.9428  0.6747  0.7431
  126SOPE  C31113546   2.565   4.327   4.289 -0.1986 -0.0475  0.0864
  126SOPE  H11X13547   2.475   4.374   4.335 -1.0872 -0.8126 -0.8063
  126SOPE  H11Y13548   2.641   4.402   4.257 -0.4814 -0.1640 -0.9223
  126SOPE  C31213549   2.621   4.220   4.380  0.0821  0.4181 -0.6769
  126SOPE  H12X13550   2.707   4.163   4.341  1.2549  0.2951  1.9214
  126SOPE  H12Y13551   2.536   4.151   4.396 -1.6402  2.7532  1.0307
  126SOPE  C31313552   2.672   4.275   4.514  0.4823  0.5241  0.0435
  126SOPE  H13X13553   2.583   4.318   4.564 -0.8226 -2.6890  0.7521
  126SOPE  H13Y13554   2.744   4.359   4.498  0.3344  0.9821  1.6359
  126SOPE  C31413555   2.734   4.170   4.606 -0.6414  0.3916  0.4544
  126SOPE  H14X13556   2.831   4.140   4.559  0.0047  2.2879  0.5054
  126SOPE  H14Y13557   2.670   4.080   4.618  1.8777 -1.8215 -1.4885
  126SOPE  C31513558   2.753   4.230   4.750  0.6248 -0.4966  0.1649
  126SOPE  H15X13559   2.650   4.252   4.785  0.4888  1.4240 -1.2744
  126SOPE  H15Y13560   2.807   4.327   4.756 -0.2697  0.3240 -2.9975
  126SOPE  C31613561   2.820   4.121   4.837 -0.4381 -0.6987 -0.1726
  126SOPE  H16X13562   2.927   4.115   4.806 -0.2302  1.5887 -0.0940
  126SOPE  H16Y13563   2.773   4.021   4.831  2.1016 -1.9904  0.2724
  126SOPE  C31713564   2.827   4.162   4.984  0.6252  0.0722 -0.3667
  126SOPE  H17X13565   2.876   4.261   4.998 -1.5996  0.9881  1.6684
  126SOPE  H17Y13566   2.904   4.091   5.022  1.1716  0.7977 -0.0887
  126SOPE  C31813567   2.692   4.151   5.059 -0.5059  0.2717 -0.3337
  126SOPE  H18X13568   2.622   4.073   5.022 -0.3743  0.5913 -1.2778
  126SOPE  H18Y13569   2.638   4.246   5.039 -1.1635  0.1927  0.9234
  126SOPE  H18Z13570   2.705   4.138   5.169 -0.1376  0.7412 -0.3178
  127SOPE     N13571   5.156   5.195   2.524  0.0848 -0.8245 -0.2327
  127SOPE   HN113572   5.064   5.173   2.481 -0.5450  1.5778 -0.2123
  127SOPE   HN213573   5.165   5.146   2.615  1.3068 -0.6122 -0.2246
  127SOPE   HN313574   5.154   5.298   2.537  0.9894 -0.7905 -0.2963
  127SOPE   C1213575   5.268   5.163   2.432 -0.5556  0.1111  0.2898
  127SOPE  H12A13576   5.265   5.231   2.344  0.8375 -0.5317 -0.2888
  127SOPE  H12B13577   5.277   5.057   2.402 -0.1568  0.5622 -1.3041
  127SOPE   C1113578   5.401   5.197   2.509  0.3362 -0.9911  0.4972
  127SOPE  H11A13579   5.393   5.304   2.538 -1.5155 -0.7090 -0.8642
  127SOPE  H11B13580   5.486   5.179   2.440  1.8710  0.8819  1.7761
  127SOPE     P13581   5.511   5.146   2.738 -0.1793  0.3134  0.2022
  127SOPE   O1313582   5.637   5.208   2.679  0.3566 -0.4880 -0.2461
  127SOPE   O1413583   5.525   5.030   2.837  0.6188 -0.3125  0.7722
  127SOPE   O1213584   5.414   5.103   2.619 -0.7563  0.1447  0.1488
  127SOPE   O1113585   5.426   5.258   2.792  0.2450 -0.7248 -0.4557
  127SOPE    C113586   5.338   5.263   2.904  0.0531 -0.4322 -0.0713
  127SOPE    HA13587   5.394   5.284   2.997 -2.0415  1.0588  0.9389
  127SOPE    HB13588   5.280   5.169   2.912 -1.1206  0.2822  0.0636
  127SOPE    C213589   5.239   5.383   2.887 -0.2397 -0.5024 -0.0179
  127SOPE    HS13590   5.207   5.382   2.780 -1.0623 -1.9134  0.2187
  127SOPE   O2113591   5.316   5.503   2.911  0.1019  0.2027  0.6863
  127SOPE   C2113592   5.260   5.624   2.873 -0.2261  0.0345 -0.4402
  127SOPE   O2213593   5.154   5.635   2.819 -0.1446 -0.1199  0.2373
  127SOPE   C2213594   5.357   5.739   2.926 -0.1345 -0.2048  0.1910
  127SOPE   H2R13595   5.331   5.833   2.872  3.4318  0.0094 -1.4341
  127SOPE   H2S13596   5.455   5.699   2.893 -0.6984 -0.5827 -1.1250
  127SOPE    C313597   5.122   5.363   2.981 -0.1152  0.4309 -0.0018
  127SOPE    HX13598   5.076   5.264   2.965 -1.3723  0.9413  0.3583
  127SOPE    HY13599   5.035   5.430   2.966  0.2432  0.9563  0.2197
  127SOPE   O3113600   5.152   5.367   3.119 -0.0189  0.2981 -0.3352
  127SOPE   C3113601   5.048   5.343   3.200  0.0013  0.5821  0.2925
  127SOPE   O3213602   4.941   5.303   3.155  0.1341  0.3663  1.0250
  127SOPE   C3213603   5.086   5.368   3.343  0.1953 -0.6935  0.8255
  127SOPE   H2X13604   5.077   5.479   3.353 -1.6010 -0.8832  1.7144
  127SOPE   H2Y13605   5.194   5.346   3.349  0.8994  1.8698 -1.0130
  127SOPE   C2313606   5.332   5.754   3.074  0.5437 -0.3513 -0.4771
  127SOPE   H3R13607   5.433   5.774   3.115  0.4512  0.2362 -0.5254
  127SOPE   H3S13608   5.308   5.662   3.131  1.7376 -1.5252 -1.7879
  127SOPE   C2413609   5.232   5.863   3.118  0.1024 -0.4340  0.6662
  127SOPE   H4R13610   5.258   5.893   3.222  0.0450  0.3006  0.4767
  127SOPE   H4S13611   5.234   5.955   3.057 -1.4425 -0.7041  0.1585
  127SOPE   C2513612   5.087   5.825   3.119 -0.4112  0.0302 -0.4458
  127SOPE   H5R13613   5.030   5.916   3.149  0.4606  0.7794 -0.9741
  127SOPE   H5S13614   5.048   5.789   3.022 -2.2530  0.5144  0.0852
  127SOPE   C2613615   5.041   5.722   3.219 -0.0645 -0.0449 -0.1023
  127SOPE   H6R13616   5.011   5.629   3.167 -3.3649  1.3014 -0.8470
  127SOPE   H6S13617   5.126   5.704   3.288  1.2094 -0.5264 -1.7204
  127SOPE   C2713618   4.917   5.775   3.297 -0.2082  0.9524 -0.0174
  127SOPE   H7R13619   4.929   5.872   3.349  4.2145  1.2252 -1.1281
  127SOPE   H7S13620   4.836   5.779   3.221 -1.1839  0.4357  0.9619
  127SOPE   C2813621   4.875   5.686   3.414  0.0825 -0.0110 -0.5578
  127SOPE   H8R13622   4.841   5.589   3.374  0.8381 -1.0631  1.2530
  127SOPE   H8S13623   4.966   5.666   3.474  0.9214  1.3728 -1.2967
  127SOPE   C2913624   4.751   5.740   3.491 -1.0786  0.9988  0.7221
  127SOPE   H9113625   4.682   5.787   3.419  0.8000 -0.3914 -2.2244
  127SOPE  C21013626   4.709   5.702   3.612 -0.3925 -0.0242  0.1235
  127SOPE  H10113627   4.614   5.743   3.651 -0.5510 -0.1844 -0.0970
  127SOPE  C21113628   4.776   5.623   3.720  0.5892 -0.2661  0.0393
  127SOPE  H11R13629   4.879   5.591   3.693  0.9343  1.3235 -0.6479
  127SOPE  H11S13630   4.721   5.527   3.728  0.4091 -0.0455  2.2580
  127SOPE  C21213631   4.783   5.703   3.849 -1.0483 -0.2555 -0.1278
  127SOPE  H12R13632   4.693   5.680   3.910  1.3653 -2.3927  2.9390
  127SOPE  H12S13633   4.803   5.810   3.829  0.5958 -0.6827 -1.0077
  127SOPE  C21313634   4.895   5.647   3.935 -1.3016  1.2475 -0.5912
  127SOPE  H13R13635   4.996   5.675   3.900  0.7724 -1.6862  2.4038
  127SOPE  H13S13636   4.891   5.536   3.934  1.6851  1.0199  0.8189
  127SOPE  C21413637   4.873   5.683   4.079 -0.0346  0.2173  0.0896
  127SOPE  H14R13638   4.769   5.656   4.107 -0.5112  2.8108  1.0413
  127SOPE  H14S13639   4.882   5.792   4.094  2.2586 -0.0981  1.5698
  127SOPE  C21513640   4.975   5.612   4.172 -0.1458  0.5168 -0.4297
  127SOPE  H15R13641   5.079   5.627   4.135 -0.0228  0.7627  0.0112
  127SOPE  H15S13642   4.963   5.502   4.180  2.1665  0.1582 -1.1048
  127SOPE  C21613643   4.951   5.655   4.317  0.2770  0.1819 -0.8249
  127SOPE  H16R13644   4.844   5.643   4.346 -0.3183  0.2496 -2.8473
  127SOPE  H16S13645   4.978   5.761   4.333 -1.5123  0.4000  1.2277
  127SOPE  C21713646   5.034   5.574   4.422  0.9520  0.4200  0.0442
  127SOPE  H17R13647   5.021   5.465   4.403 -1.4027  1.0321 -2.6585
  127SOPE  H17S13648   4.985   5.606   4.516  0.8450 -0.4185  0.2834
  127SOPE  C21813649   5.180   5.610   4.420 -0.0086 -0.2820  0.2078
  127SOPE  H18R13650   5.244   5.561   4.496  1.0040  1.2087  0.3483
  127SOPE  H18S13651   5.188   5.721   4.424  0.3939 -0.3515  1.6756
  127SOPE  H18T13652   5.212   5.566   4.323  1.8279 -1.0048  1.1026
  127SOPE   C3313653   5.029   5.280   3.451 -0.5248  0.5335 -0.0322
  127SOPE   H3X13654   5.065   5.176   3.435 -1.1230  0.4508 -0.9319
  127SOPE   H3Y13655   4.918   5.270   3.445 -0.5709  1.5980 -1.2965
  127SOPE   C3413656   5.067   5.329   3.591  0.6388  0.3303  0.2801
  127SOPE   H4X13657   5.013   5.425   3.597 -0.1279 -0.0698 -0.1132
  127SOPE   H4Y13658   5.178   5.324   3.596  0.5598 -0.3653  2.1272
  127SOPE   C3513659   5.013   5.229   3.688  0.3101  0.5322 -0.5090
  127SOPE   H5X13660   5.025   5.123   3.659 -2.1692 -0.2047  0.8213
  127SOPE   H5Y13661   4.905   5.254   3.677  0.4167  1.1447 -0.2376
  127SOPE   C3613662   5.049   5.259   3.834  0.8128  0.0981  1.1327
  127SOPE   H6X13663   4.995   5.350   3.871 -2.1170 -0.9399 -0.2778
  127SOPE   H6Y13664   5.159   5.258   3.852  0.8194  0.4422  1.1323
  127SOPE   C3713665   4.990   5.142   3.911 -0.2304  0.5109  0.3821
  127SOPE   H7X13666   5.058   5.054   3.905  2.3730  2.5115 -2.6356
  127SOPE   H7Y13667   4.896   5.110   3.862  1.4652 -0.3891 -2.5447
  127SOPE   C3813668   4.950   5.180   4.052  0.0984  0.1776 -0.9026
  127SOPE   H8X13669   4.873   5.106   4.083 -0.2917  1.4548  1.3987
  127SOPE   H8Y13670   4.917   5.286   4.051 -0.5651 -0.0168 -0.3889
  127SOPE   C3913671   5.078   5.175   4.143 -0.0392 -0.5859 -0.5699
  127SOPE   H9X13672   5.151   5.254   4.117  0.9780 -1.2252  0.2507
  127SOPE   H9Y13673   5.124   5.079   4.111  0.9786 -1.0407  2.0188
  127SOPE  C31013674   5.061   5.177   4.299  0.9565  0.2177 -0.1692
  127SOPE  H10X13675   4.965   5.124   4.319  0.8850  1.1958  2.4763
  127SOPE  H10Y13676   5.030   5.283   4.304  0.3051  0.0112  0.3206
  127SOPE  C31113677   5.184   5.140   4.373 -0.0074  0.1480 -0.7476
  127SOPE  H11X13678   5.262   5.204   4.328 -1.7191  1.1939 -2.3832
  127SOPE  H11Y13679   5.206   5.035   4.344 -2.8825 -1.1018  1.1267
  127SOPE  C31213680   5.170   5.152   4.522 -0.6127 -0.2398 -0.6352
  127SOPE  H12X13681   5.137   5.256   4.545 -2.0344 -0.9806  0.8955
  127SOPE  H12Y13682   5.271   5.144   4.567 -0.1979 -0.4112 -1.5684
  127SOPE  C31313683   5.088   5.040   4.583 -0.0504  0.0834  0.4179
  127SOPE  H13X13684   5.118   4.940   4.545 -4.1371 -0.2033 -2.7634
  127SOPE  H13Y13685   4.986   5.059   4.542  0.3672  2.4329  0.3210
  127SOPE  C31413686   5.099   5.040   4.731 -0.5110 -0.3376 -0.2487
  127SOPE  H14X13687   5.047   5.130   4.768 -3.0740 -1.8123  0.0052
  127SOPE  H14Y13688   5.206   5.037   4.763  0.2400 -2.0642 -2.5813
  127SOPE  C31513689   5.014   4.931   4.796  0.1498  0.0621 -0.1578
  127SOPE  H15X13690   5.062   4.840   4.753 -0.0869 -1.0380  1.7766
  127SOPE  H15Y13691   4.913   4.931   4.748 -0.0884  0.1122  0.3436
  127SOPE  C31613692   5.012   4.939   4.949 -0.5142 -0.2790 -0.6171
  127SOPE  H16X13693   5.102   4.974   5.005 -1.0741 -0.2232  0.2592
  127SOPE  H16Y13694   4.990   4.837   4.988 -1.4019 -0.0040 -0.3877
  127SOPE  C31713695   4.893   5.023   5.005  0.6457 -0.2879  0.3885
  127SOPE  H17X13696   4.796   4.976   4.979  0.6486 -0.6155  0.9466
  127SOPE  H17Y13697   4.892   5.123   4.956  1.4398 -1.0349 -1.2246
  127SOPE  C31813698   4.900   5.031   5.160 -0.2065 -0.1170  0.0466
  127SOPE  H18X13699   5.001   5.058   5.198  0.3556 -1.3020 -0.5313
  127SOPE  H18Y13700   4.863   4.935   5.202 -0.8047 -1.5575 -3.3821
  127SOPE  H18Z13701   4.830   5.110   5.193 -0.4779 -0.6638  0.7999
  128SOPE     N13702   0.633   6.120   2.600 -0.1849  0.0081  0.3751
  128SOPE   HN113703   0.594   6.039   2.654  0.0892 -1.5024 -1.5546
  128SOPE   HN213704   0.691   6.174   2.666  1.9005 -1.5310 -0.0944
  128SOPE   HN313705   0.548   6.166   2.562  0.2899 -0.9103 -1.9666
  128SOPE   C1213706   0.706   6.076   2.480 -0.2154  0.4456 -0.4280
  128SOPE  H12A13707   0.638   6.041   2.399  1.7503 -2.4907 -0.9940
  128SOPE  H12B13708   0.757   5.982   2.511 -0.1940  1.3420  2.5453
  128SOPE   C1113709   0.799   6.179   2.426 -0.0378 -0.3785 -0.4979
  128SOPE  H11A13710   0.742   6.269   2.395  0.6060  0.2829  0.2027
  128SOPE  H11B13711   0.847   6.137   2.335  1.3807  0.9490 -0.3904
  128SOPE     P13712   1.029   6.275   2.492  0.3416  0.0437  0.3599
  128SOPE   O1313713   1.051   6.400   2.566 -0.4949  0.3331  0.0135
  128SOPE   O1413714   1.031   6.285   2.340 -0.1542  0.0587 -0.6224
  128SOPE   O1213715   0.896   6.204   2.533 -1.0137  0.7971  0.1896
  128SOPE   O1113716   1.139   6.173   2.536 -0.2066 -0.0343  0.5530
  128SOPE    C113717   1.114   6.032   2.551  0.0079 -0.0157 -0.0028
  128SOPE    HA13718   1.201   5.972   2.518 -0.8619 -0.1188 -2.3028
  128SOPE    HB13719   1.042   5.995   2.475  2.0929 -0.9194 -1.6128
  128SOPE    C213720   1.078   5.987   2.698  0.1733 -0.4617 -0.6658
  128SOPE    HS13721   0.978   6.028   2.720  0.8399  0.2907  1.0967
  128SOPE   O2113722   1.180   6.025   2.802  1.0965  0.1561  0.6503
  128SOPE   C2113723   1.147   6.127   2.875 -0.4707  0.3075 -0.1960
  128SOPE   O2213724   1.039   6.182   2.869  0.2146 -0.4826  0.4461
  128SOPE   C2213725   1.254   6.168   2.977 -0.8203  0.1708  0.9542
  128SOPE   H2R13726   1.343   6.186   2.913 -1.1994 -0.6973  0.1522
  128SOPE   H2S13727   1.282   6.076   3.033 -2.0528 -1.0111 -0.3041
  128SOPE    C313728   1.046   5.827   2.693 -0.4298 -0.8598  0.7329
  128SOPE    HX13729   1.142   5.775   2.668  0.2232  0.3269  0.7004
  128SOPE    HY13730   0.982   5.813   2.604  0.6772 -0.9600 -0.0759
  128SOPE   O3113731   1.004   5.768   2.816 -0.3950 -0.1898  0.1156
  128SOPE   C3113732   0.874   5.789   2.830 -0.3748 -0.3924 -0.2545
  128SOPE   O3213733   0.801   5.846   2.750 -0.3124 -0.4216  0.0012
  128SOPE   C3213734   0.827   5.718   2.958 -0.0197  0.2740  0.1868
  128SOPE   H2X13735   0.916   5.662   2.995  0.9915  1.1635 -0.8388
  128SOPE   H2Y13736   0.750   5.649   2.918  0.0984  1.3221 -1.9949
  128SOPE   C2313737   1.213   6.283   3.073  0.1283 -1.3352 -0.2147
  128SOPE   H3R13738   1.157   6.365   3.022 -1.2197 -0.1225  2.9132
  128SOPE   H3S13739   1.309   6.324   3.111 -0.9693 -0.0588  1.3365
  128SOPE   C2413740   1.136   6.237   3.191  0.4580  0.0670 -0.2069
  128SOPE   H4R13741   1.078   6.322   3.232  2.9186  0.7829  2.1170
  128SOPE   H4S13742   1.055   6.169   3.157 -0.0632  0.3193  0.4988
  128SOPE   C2513743   1.221   6.170   3.302 -0.0636 -0.0986 -0.0529
  128SOPE   H5R13744   1.288   6.096   3.255  2.3140  2.6961 -1.4353
  128SOPE   H5S13745   1.296   6.248   3.329  2.4634 -1.4572 -2.5547
  128SOPE   C2613746   1.140   6.113   3.418 -0.2582 -1.0788 -0.1693
  128SOPE   H6R13747   1.055   6.057   3.374 -1.1909  0.4184 -0.3120
  128SOPE   H6S13748   1.199   6.037   3.475 -0.1035 -0.3561  0.6462
  128SOPE   C2713749   1.100   6.218   3.523  0.1255  0.1846  0.5038
  128SOPE   H7R13750   1.196   6.258   3.561 -0.6804  1.5320  1.1814
  128SOPE   H7S13751   1.035   6.291   3.471 -3.2007 -3.6530 -1.2556
  128SOPE   C2813752   1.011   6.167   3.641 -0.2881 -0.2702  0.0035
  128SOPE   H8R13753   0.924   6.124   3.586  0.0775 -0.0132 -0.7936
  128SOPE   H8S13754   1.071   6.086   3.687  0.5130 -0.8363 -1.9316
  128SOPE   C2913755   0.942   6.258   3.735  0.3910  0.4438  0.1544
  128SOPE   H9113756   0.890   6.344   3.689  0.2079 -0.6101 -1.7099
  128SOPE  C21013757   0.943   6.244   3.868  0.8645  0.3168 -0.0063
  128SOPE  H10113758   0.899   6.323   3.931 -0.7429  0.3510 -1.1038
  128SOPE  C21113759   1.004   6.133   3.940  0.1267  0.1798 -0.7503
  128SOPE  H11R13760   1.053   6.186   4.024 -0.5465 -1.2956  0.6312
  128SOPE  H11S13761   1.084   6.078   3.886  0.1987 -1.9076  1.2975
  128SOPE  C21213762   0.909   6.018   3.995 -0.3039 -0.6335 -0.7347
  128SOPE  H12R13763   0.856   5.974   3.908 -0.9553  1.0965 -1.2525
  128SOPE  H12S13764   0.831   6.065   4.058 -1.1091  0.6741 -2.6037
  128SOPE  C21313765   1.000   5.919   4.070  0.0275  0.0762  0.3841
  128SOPE  H13R13766   1.060   5.958   4.155  0.2211  1.8088 -0.4880
  128SOPE  H13S13767   1.079   5.882   4.002 -0.8148 -2.5037  0.7120
  128SOPE  C21413768   0.932   5.787   4.101  0.3685 -0.0305  0.2751
  128SOPE  H14R13769   1.011   5.711   4.120 -1.5234 -2.5496 -1.2916
  128SOPE  H14S13770   0.887   5.759   4.004  2.0765  0.7002 -0.7643
  128SOPE  C21513771   0.837   5.796   4.226  0.2804  0.6420  0.3957
  128SOPE  H15R13772   0.757   5.870   4.204  0.2114  0.5332  0.2740
  128SOPE  H15S13773   0.893   5.836   4.313  0.3631  1.6812 -0.1296
  128SOPE  C21613774   0.766   5.662   4.261  0.3527 -0.5479  0.0103
  128SOPE  H16R13775   0.832   5.582   4.303  2.8590  1.2813 -0.2054
  128SOPE  H16S13776   0.715   5.637   4.166 -0.4799 -0.3129  0.3901
  128SOPE  C21713777   0.652   5.689   4.359  0.0609  0.2072 -0.9779
  128SOPE  H17R13778   0.697   5.741   4.446  0.8881 -0.9516 -0.6805
  128SOPE  H17S13779   0.611   5.598   4.409  0.1200  0.8330  0.2497
  128SOPE  C21813780   0.534   5.769   4.301 -0.0465  0.1390 -0.0957
  128SOPE  H18R13781   0.448   5.756   4.370  0.6694 -1.9672  0.4973
  128SOPE  H18S13782   0.489   5.736   4.205  0.8336 -1.5015  0.0142
  128SOPE  H18T13783   0.554   5.878   4.293 -2.3170  0.6053 -0.0436
  128SOPE   C3313784   0.761   5.808   3.061  0.0489 -0.1520  0.3359
  128SOPE   H3X13785   0.729   5.744   3.146 -1.5185  1.1882  0.7985
  128SOPE   H3Y13786   0.684   5.875   3.019 -0.7874 -1.3184 -0.0548
  128SOPE   C3413787   0.869   5.900   3.128 -0.6511  0.0153 -0.9463
  128SOPE   H4X13788   0.816   5.966   3.200  1.9752  1.7710 -0.4757
  128SOPE   H4Y13789   0.921   5.959   3.050  2.3265 -2.1158 -0.7326
  128SOPE   C3513790   0.988   5.826   3.206 -0.8210  0.4380 -0.0848
  128SOPE   H5X13791   1.062   5.900   3.242  1.1769  0.1513 -3.2178
  128SOPE   H5Y13792   1.042   5.765   3.131 -1.2823 -0.1941  0.0861
  128SOPE   C3613793   0.930   5.754   3.330 -0.6561 -0.4221 -0.1090
  128SOPE   H6X13794   0.885   5.656   3.305 -0.8553  0.4788 -4.0520
  128SOPE   H6Y13795   0.848   5.812   3.378 -0.1063  0.4148 -0.1398
  128SOPE   C3713796   1.034   5.720   3.441 -0.6671 -0.0592  0.1293
  128SOPE   H7X13797   1.079   5.815   3.476 -1.2114 -0.0613  0.8569
  128SOPE   H7Y13798   1.116   5.660   3.395 -1.5056 -0.8279 -0.4112
  128SOPE   C3813799   0.971   5.658   3.568 -0.1925 -0.6156  0.5144
  128SOPE   H8X13800   0.914   5.565   3.543 -0.1378 -0.7751  0.9700
  128SOPE   H8Y13801   0.905   5.738   3.609 -0.7408 -1.3138  1.0306
  128SOPE   C3913802   1.065   5.618   3.680  0.1003 -0.2572 -0.3087
  128SOPE   H9X13803   1.098   5.713   3.727  0.1713 -0.1353 -0.5991
  128SOPE   H9Y13804   1.164   5.581   3.646  1.1247  0.4950  1.6913
  128SOPE  C31013805   1.000   5.520   3.786 -0.0893  0.0887  0.7173
  128SOPE  H10X13806   0.980   5.424   3.735  0.5499  0.3544 -0.0627
  128SOPE  H10Y13807   0.909   5.565   3.831 -0.8632 -2.2566  1.6543
  128SOPE  C31113808   1.097   5.497   3.906  0.4523  0.5220  0.0639
  128SOPE  H11X13809   1.125   5.600   3.939 -0.2345  0.5372  0.6205
  128SOPE  H11Y13810   1.185   5.441   3.869  3.1056  2.0414  3.4660
  128SOPE  C31213811   1.033   5.426   4.023  0.0371  0.3294 -0.7081
  128SOPE  H12X13812   1.008   5.326   3.981  2.2706 -2.4724  3.9074
  128SOPE  H12Y13813   0.936   5.478   4.037  0.6945  1.6909 -1.0005
  128SOPE  C31313814   1.119   5.401   4.143 -0.5748  0.0109 -0.1065
  128SOPE  H13X13815   1.170   5.493   4.179  1.3311 -0.6782 -0.9355
  128SOPE  H13Y13816   1.204   5.338   4.111  0.7326  1.8379 -0.3877
  128SOPE  C31413817   1.036   5.341   4.257  0.5900 -0.0738 -0.4814
  128SOPE  H14X13818   0.957   5.416   4.277  0.4031 -0.1686 -0.8498
  128SOPE  H14Y13819   1.106   5.333   4.342 -2.4807  0.4864  2.2913
  128SOPE  C31513820   0.986   5.204   4.213 -0.3229  0.0499  0.0563
  128SOPE  H15X13821   1.071   5.147   4.171 -0.8765 -1.3870  0.8495
  128SOPE  H15Y13822   0.911   5.209   4.132  1.0696 -3.2916 -1.6222
  128SOPE  C31613823   0.946   5.125   4.335 -0.1244 -0.2433 -0.0809
  128SOPE  H16X13824   1.031   5.100   4.403 -0.3515  1.8838  1.0873
  128SOPE  H16Y13825   0.909   5.026   4.303  0.4646 -0.2310 -0.8398
  128SOPE  C31713826   0.845   5.187   4.426 -0.3212  0.3859  0.7992
  128SOPE  H17X13827   0.881   5.282   4.472  1.1056 -0.6092  1.8143
  128SOPE  H17Y13828   0.829   5.117   4.510  1.1321 -0.5944  0.2953
  128SOPE  C31813829   0.705   5.227   4.371 -0.0601 -0.3150 -0.1865
  128SOPE  H18X13830   0.709   5.324   4.317  1.4113 -1.0673 -1.5042
  128SOPE  H18Y13831   0.633   5.242   4.454 -0.0081 -0.6037 -0.0897
  128SOPE  H18Z13832   0.669   5.146   4.305 -0.5868 -1.0802  0.9989
  129OSM      N13833   3.527   5.980   6.457  0.3297 -0.1777 -0.4992
  129OSM    C1513834   3.642   5.991   6.555 -0.6796 -0.6942  0.1215
  129OSM   H15A13835   3.659   5.901   6.614 -0.2472  1.1101  2.9554
  129OSM   H15B13836   3.622   6.067   6.629  0.6863 -0.0192 -0.1839
  129OSM   H15C13837   3.736   6.026   6.516 -0.3400 -0.0540  1.4429
  129OSM    C1413838   3.566   5.915   6.332 -0.9743 -0.4235  0.3203
  129OSM   H14A13839   3.482   5.917   6.264 -1.8105  1.3019  1.3429
  129OSM   H14B13840   3.615   5.819   6.342  0.1883  0.3991  3.4306
  129OSM   H14C13841   3.646   5.976   6.294 -0.2672 -0.7935  1.1765
  129OSM    C1313842   3.426   5.890   6.528 -0.5332 -0.4956  0.5360
  129OSM   H13A13843   3.482   5.810   6.574  1.6832  1.5204  1.5896
  129OSM   H13B13844   3.349   5.851   6.463  1.6649 -0.2385 -2.4444
  129OSM   H13C13845   3.372   5.945   6.604  1.3485 -0.7518  2.1189
  129OSM    C1213846   3.474   6.118   6.420  0.0262  0.9195 -0.1291
  129OSM   H12A13847   3.424   6.156   6.508 -0.1334 -1.1659  0.7366
  129OSM   H12B13848   3.398   6.108   6.344  0.0808  0.3819 -0.1150
  129OSM    C1113849   3.571   6.229   6.373  0.0390  0.6419  0.9286
  129OSM   H11A13850   3.511   6.309   6.326 -1.7158 -0.2546  1.5339
  129OSM   H11B13851   3.646   6.189   6.301  1.7142  2.1055  1.7591
  129OSM      P13852   3.563   6.376   6.588 -0.0234 -0.3339 -0.5211
  129OSM    O1313853   3.417   6.336   6.604 -0.3672  0.6125 -0.5433
  129OSM    O1413854   3.637   6.386   6.710 -0.2716  0.0194 -0.2078
  129OSM    O1113855   3.576   6.511   6.522  0.3839  0.5480  1.3263
  129OSM    O1213856   3.642   6.278   6.492 -0.0813  0.0204 -0.6420
  129OSM    C1S13857   3.697   6.549   6.456 -0.1598  0.2837 -0.3937
  129OSM    H1S13858   3.791   6.498   6.487  2.5661  4.2305 -1.3445
  129OSM    H1T13859   3.723   6.651   6.493 -1.1190  0.3151  0.2193
  129OSM     NF13860   3.806   6.622   6.251 -0.0624  0.2721 -0.4857
  129OSM    HNF13861   3.792   6.712   6.210  2.5004  0.4911 -1.0616
  129OSM    C2S13862   3.685   6.546   6.299 -0.6498 -0.0948  0.0874
  129OSM    H2S13863   3.694   6.441   6.262 -3.2813 -0.5489  0.4921
  129OSM    C3S13864   3.548   6.601   6.247  0.2922  0.3596 -0.2855
  129OSM    H3S13865   3.546   6.706   6.281 -1.3613  0.5216 -0.8014
  129OSM     O313866   3.430   6.542   6.309 -0.0484 -0.0461 -0.3404
  129OSM    HO313867   3.463   6.514   6.395 -0.6142  1.2850  0.3370
  129OSM    C4S13868   3.545   6.594   6.097 -0.3663  0.2008  0.0795
  129OSM    H4S13869   3.566   6.691   6.049 -1.4043 -0.2128 -1.2738
  129OSM    C5S13870   3.498   6.491   6.015 -0.3297  0.3027 -0.3536
  129OSM    H5S13871   3.445   6.408   6.064 -0.5035  1.1586  0.9532
  129OSM    C6S13872   3.494   6.490   5.871  0.1674  0.5001 -0.0125
  129OSM    H6S13873   3.398   6.447   5.834  1.2268 -1.7377 -0.3247
  129OSM    H6T13874   3.562   6.412   5.830 -1.0967 -1.2607  1.0826
  129OSM    C7S13875   3.517   6.626   5.798  0.0809 -0.1549  0.0014
  129OSM    H7S13876   3.626   6.646   5.796  0.1982 -0.7959 -0.1469
  129OSM    H7T13877   3.456   6.708   5.842 -1.7431 -1.8892  0.8390
  129OSM    C8S13878   3.455   6.623   5.653  0.0456 -0.5450  0.1657
  129OSM    H8S13879   3.345   6.618   5.669  0.2119  0.1242  1.6993
  129OSM    H8T13880   3.494   6.532   5.603  1.3488 -1.4182  2.6197
  129OSM    C9S13881   3.484   6.744   5.568  0.1175  0.5403 -0.0569
  129OSM    H9S13882   3.588   6.780   5.583 -0.1910  2.5442 -2.1539
  129OSM    H9T13883   3.410   6.820   5.600 -1.0851 -0.3919 -0.5662
  129OSM   C10S13884   3.443   6.712   5.420 -0.5194 -0.5894  0.1696
  129OSM   H10S13885   3.343   6.664   5.410 -1.7072  1.6025  0.8019
  129OSM   H10T13886   3.517   6.641   5.376  1.0664  2.1483 -1.9392
  129OSM   C11S13887   3.434   6.843   5.338 -0.0606  0.4879  0.0918
  129OSM   H11S13888   3.530   6.901   5.341  0.1963  0.0457  0.7061
  129OSM   H11T13889   3.358   6.905   5.390  0.7184  0.4838  1.2682
  129OSM   C12S13890   3.387   6.818   5.193 -0.8001 -0.2328 -0.8055
  129OSM   H12S13891   3.349   6.914   5.151  0.0807 -0.3842 -1.9746
  129OSM   H12T13892   3.308   6.741   5.206  1.2086 -2.0007  1.7617
  129OSM   C13S13893   3.492   6.758   5.101  0.3704 -0.4802 -0.3254
  129OSM   H13S13894   3.521   6.664   5.152  0.9632  0.6128  1.4560
  129OSM   H13T13895   3.584   6.821   5.092  1.2599 -1.8010 -0.7872
  129OSM   C14S13896   3.453   6.734   4.952 -0.2809  0.0837 -0.5412
  129OSM   H14S13897   3.370   6.660   4.952  1.1986 -1.7161  1.7410
  129OSM   H14T13898   3.542   6.686   4.904 -0.3230 -1.5711  0.9092
  129OSM   C15S13899   3.418   6.860   4.876 -0.0254  0.0222  0.3361
  129OSM   H15S13900   3.500   6.900   4.812 -0.3968 -0.1434 -0.2497
  129OSM   H15T13901   3.385   6.941   4.944 -0.3340  0.1382  0.0539
  129OSM   C16S13902   3.303   6.841   4.777 -0.3028 -0.0887  0.1656
  129OSM   H16S13903   3.298   6.934   4.717 -2.7398 -0.0422  0.3234
  129OSM   H16T13904   3.207   6.847   4.833  0.3847  1.0919  1.2749
  129OSM   C17S13905   3.327   6.733   4.671  0.3745 -0.2437 -0.1725
  129OSM   H17S13906   3.319   6.639   4.730 -2.5010 -1.5561 -2.3775
  129OSM   H17T13907   3.426   6.736   4.620  0.5633 -0.0276  0.2039
  129OSM   C18S13908   3.210   6.733   4.573 -0.0298 -0.2141  0.6765
  129OSM   H18S13909   3.114   6.756   4.624 -0.7049 -0.6798 -0.3408
  129OSM   H18T13910   3.201   6.641   4.512 -0.8248 -0.3823  1.0350
  129OSM   H18U13911   3.221   6.816   4.499  0.5491  0.3226  1.3497
  129OSM    C1F13912   3.927   6.580   6.269  0.0438  0.7690  0.1210
  129OSM     OF13913   3.950   6.461   6.294 -0.1665 -0.0753  0.1473
  129OSM    C2F13914   4.040   6.688   6.267  0.1154 -0.1151 -0.2460
  129OSM    H2F13915   4.089   6.689   6.367 -1.6979  1.7062  0.6943
  129OSM    H2G13916   3.990   6.787   6.259 -1.6909 -0.6391  2.9528
  129OSM    C3F13917   4.152   6.668   6.159  0.2064  0.8954  0.8064
  129OSM    H3F13918   4.229   6.746   6.171  4.2764 -2.9193  2.1676
  129OSM    H3G13919   4.107   6.689   6.059  1.3222 -0.9146 -0.1291
  129OSM    C4F13920   4.226   6.534   6.166  0.0045  0.4247 -0.4499
  129OSM    H4F13921   4.148   6.458   6.146  1.5949 -1.2743 -0.3680
  129OSM    H4G13922   4.267   6.511   6.267 -1.2038 -0.5085 -0.1597
  129OSM    C5F13923   4.348   6.529   6.074 -0.3156  0.7690  0.1085
  129OSM    H5F13924   4.400   6.436   6.105 -0.9771  0.1274 -0.6913
  129OSM    H5G13925   4.412   6.619   6.086 -1.1705  1.4198 -0.0849
  129OSM    C6F13926   4.307   6.528   5.926 -0.2014 -0.7863  0.4608
  129OSM    H6F13927   4.247   6.621   5.911 -0.0569 -0.9890 -1.6310
  129OSM    H6G13928   4.246   6.437   5.912  0.3425 -0.6741 -3.6599
  129OSM    C7F13929   4.427   6.536   5.839 -0.0811  0.1900  0.0364
  129OSM    H7F13930   4.483   6.441   5.852 -0.7957 -0.5453 -1.7949
  129OSM    H7G13931   4.511   6.607   5.859  0.0785  0.6289 -1.9142
  129OSM    C8F13932   4.373   6.548   5.692 -0.2240  0.0012  0.9424
  129OSM    H8F13933   4.453   6.581   5.622  0.7868 -1.7172  1.2301
  129OSM    H8G13934   4.292   6.623   5.697  0.3213  0.5550  1.7200
  129OSM    C9F13935   4.300   6.425   5.643  1.1091 -0.2477 -0.2935
  129OSM    H9F13936   4.234   6.384   5.721  1.2409 -1.6058 -0.8700
  129OSM   C10F13937   4.316   6.352   5.531 -0.5694  0.1451 -0.0989
  129OSM   H10F13938   4.242   6.272   5.515  0.4733 -1.3112  1.8907
  129OSM   C11F13939   4.405   6.382   5.411 -0.1910 -0.1475  0.5594
  129OSM   H11F13940   4.390   6.291   5.349 -2.9899  0.5711  0.0561
  129OSM   H11G13941   4.512   6.385   5.443  0.3161 -1.0458 -0.9452
  129OSM   C12F13942   4.355   6.500   5.327  0.1636  0.0541  0.3404
  129OSM   H12F13943   4.385   6.592   5.381  0.3834  1.6057 -2.2595
  129OSM   H12G13944   4.244   6.497   5.327  0.0602  0.3601 -2.9628
  129OSM   C13F13945   4.396   6.526   5.181 -0.8107  0.7080  0.1261
  129OSM   H13F13946   4.502   6.558   5.173 -0.3558 -0.4548  1.2182
  129OSM   H13G13947   4.331   6.608   5.142  0.6124  1.0371 -1.7239
  129OSM   C14F13948   4.384   6.400   5.094  0.2691 -0.2555  0.3537
  129OSM   H14F13949   4.283   6.358   5.111  0.8346 -2.3489 -0.9925
  129OSM   H14G13950   4.452   6.315   5.117 -0.8443 -0.7949  1.7313
  129OSM   C15F13951   4.370   6.443   4.942 -0.4056  0.3361  0.5118
  129OSM   H15F13952   4.471   6.435   4.896 -0.6140  0.3214  0.0556
  129OSM   H15G13953   4.334   6.548   4.941  1.0918  0.8788  0.6597
  129OSM   C16F13954   4.280   6.350   4.858 -0.6705  0.4882  0.9357
  129OSM   H16F13955   4.171   6.363   4.874 -0.8339  1.1180 -0.5795
  129OSM   H16G13956   4.298   6.245   4.887  1.2803  0.1589 -1.1736
  129OSM   C17F13957   4.300   6.382   4.708 -0.4167  0.0332 -0.0154
  129OSM   H17F13958   4.239   6.308   4.651 -0.3037  0.2824 -0.4619
  129OSM   H17G13959   4.400   6.369   4.662 -0.8184 -0.8690 -0.6910
  129OSM   C18F13960   4.244   6.514   4.667 -0.3023  0.1335  0.1684
  129OSM   H18F13961   4.305   6.604   4.690  1.4547 -0.4791 -1.7540
  129OSM   H18G13962   4.147   6.526   4.720 -0.9085 -0.5857 -0.7377
  129OSM   H18H13963   4.231   6.522   4.557  1.3894 -1.2988 -0.1832
  130OSM      N13964   5.364   7.015   7.112  0.2301  0.4747  0.3556
  130OSM    C1513965   5.350   6.965   7.247  0.4106 -0.6240  0.2765
  130OSM   H15A13966   5.440   6.908   7.263 -1.1013 -3.6938 -1.2629
  130OSM   H15B13967   5.261   6.906   7.266  1.4158 -2.6285 -0.8738
  130OSM   H15C13968   5.351   7.050   7.313 -0.8894 -1.4552  1.4053
  130OSM    C1413969   5.479   7.118   7.111 -0.0941  0.1417 -0.0945
  130OSM   H14A13970   5.570   7.073   7.147 -0.3960  0.6723  1.4153
  130OSM   H14B13971   5.461   7.208   7.168 -0.9057  0.4680 -0.8402
  130OSM   H14C13972   5.497   7.145   7.008 -0.2440  2.0502  0.3317
  130OSM    C1313973   5.400   6.902   7.019 -0.5043 -0.1866  0.2431
  130OSM   H13A13974   5.486   6.852   7.061 -1.2382  0.0708  2.1474
  130OSM   H13B13975   5.416   6.949   6.923  1.9066  1.1680  1.2031
  130OSM   H13C13976   5.322   6.827   7.013  0.6584 -1.4576  0.5732
  130OSM    C1213977   5.242   7.073   7.063 -0.4206  0.4255 -0.2307
  130OSM   H12A13978   5.201   7.140   7.138  0.2349  1.4009 -0.7201
  130OSM   H12B13979   5.166   6.997   7.057 -1.7886  1.5503  1.7359
  130OSM    C1113980   5.246   7.143   6.927 -0.0222 -0.1346 -0.3482
  130OSM   H11A13981   5.321   7.224   6.938  1.0532 -0.7504 -2.4529
  130OSM   H11B13982   5.149   7.195   6.911 -1.3731 -2.4227 -0.0892
  130OSM      P13983   5.157   6.963   6.758 -0.1400  0.0982  0.0607
  130OSM    O1313984   5.192   6.820   6.788 -0.0284 -0.4296 -0.1257
  130OSM    O1413985   5.021   7.012   6.804 -0.3425  0.2786  0.2914
  130OSM    O1113986   5.166   6.982   6.599  0.3101  0.3089 -0.2993
  130OSM    O1213987   5.270   7.063   6.813 -0.5769  0.0880 -0.2582
  130OSM    C1S13988   5.161   7.107   6.535  0.2500 -0.1695  0.6451
  130OSM    H1S13989   5.252   7.166   6.560  0.9636 -0.9837  0.0503
  130OSM    H1T13990   5.074   7.170   6.561  0.2952 -0.2402  0.9749
  130OSM     NF13991   5.231   7.215   6.324  0.0187  0.2043 -0.1911
  130OSM    HNF13992   5.169   7.289   6.299 -1.4028 -0.4401  1.2766
  130OSM    C2S13993   5.164   7.101   6.382 -0.6284 -0.3875 -0.1771
  130OSM    H2S13994   5.232   7.016   6.363 -0.2323 -0.9896  3.3437
  130OSM    C3S13995   5.025   7.078   6.326 -0.3272 -0.2047  0.4908
  130OSM    H3S13996   4.954   7.151   6.371  1.2707  1.8263 -0.1690
  130OSM     O313997   4.982   6.950   6.369 -0.2638 -0.0811  0.6988
  130OSM    HO313998   5.047   6.919   6.433 -0.9667 -1.1058  0.9439
  130OSM    C4S13999   5.013   7.081   6.172  0.4952  0.2844 -0.0913
  130OSM    H4S14000   5.031   6.986   6.118 -0.2163  0.6829 -1.0561
  130OSM    C5S14001   4.967   7.182   6.107  0.4526  0.5397 -0.3976
  130OSM    H5S14002   4.931   7.270   6.162 -0.0216  0.3471 -0.3906
  130OSM    C6S14003   4.953   7.186   5.960 -0.4501  0.0746 -0.1431
  130OSM    H6S14004   5.053   7.209   5.917  0.2900 -0.6721  1.0996
  130OSM    H6T14005   4.879   7.268   5.950 -0.6745  0.3346  2.7512
  130OSM    C7S14006   4.915   7.055   5.902 -0.5092 -0.1853 -0.1026
  130OSM    H7S14007   4.824   7.012   5.950  0.7932 -0.9259  1.8534
  130OSM    H7T14008   4.994   6.976   5.910  0.2201  0.5010 -0.4329
  130OSM    C8S14009   4.891   7.053   5.746 -0.2075 -0.0606 -0.5755
  130OSM    H8S14010   4.982   7.078   5.686 -1.3305 -0.4140 -2.5116
  130OSM    H8T14011   4.819   7.133   5.719  1.6842  1.7785 -0.5220
  130OSM    C9S14012   4.824   6.917   5.696 -0.7516 -0.5298  0.5313
  130OSM    H9S14013   4.731   6.895   5.753 -1.1472  0.1736  0.1691
  130OSM    H9T14014   4.897   6.835   5.716  1.0048  1.0236  0.7677
  130OSM   C10S14015   4.791   6.925   5.548  0.7024 -0.1770 -0.2315
  130OSM   H10S14016   4.846   6.846   5.492  0.1945  1.8490 -3.9087
  130OSM   H10T14017   4.818   7.023   5.502 -0.6869 -0.0362 -0.7834
  130OSM   C11S14018   4.646   6.897   5.516 -0.0395 -0.6784  0.7736
  130OSM   H11S14019   4.581   6.975   5.562 -0.4451 -0.9052  0.5904
  130OSM   H11T14020   4.625   6.799   5.564  0.6168 -1.3762 -0.3201
  130OSM   C12S14021   4.615   6.909   5.365 -0.2726  0.2792 -1.3861
  130OSM   H12S14022   4.662   7.006   5.338 -1.2092  1.1448 -0.0543
  130OSM   H12T14023   4.506   6.920   5.343 -0.6885 -0.1214  0.3199
  130OSM   C13S14024   4.676   6.810   5.271 -0.2380 -0.1986  0.2182
  130OSM   H13S14025   4.655   6.711   5.315  1.0020 -0.8675 -0.6369
  130OSM   H13T14026   4.786   6.824   5.276 -0.4956  1.8204  1.8524
  130OSM   C14S14027   4.614   6.812   5.127 -0.6580  0.0221 -0.3978
  130OSM   H14S14028   4.506   6.791   5.143 -0.2339 -1.9189  0.1112
  130OSM   H14T14029   4.660   6.729   5.069 -0.0703 -1.0551  1.5191
  130OSM   C15S14030   4.626   6.936   5.043 -0.6848 -0.1530  0.4545
  130OSM   H15S14031   4.730   6.973   5.049 -0.8423  0.2700  0.6110
  130OSM   H15T14032   4.567   7.020   5.085 -0.7157  0.0467  0.0231
  130OSM   C16S14033   4.587   6.923   4.893  0.2530 -0.5717 -0.0175
  130OSM   H16S14034   4.480   6.895   4.888 -0.5361  1.7086  2.1592
  130OSM   H16T14035   4.644   6.844   4.840 -1.5891 -2.2720  0.3885
  130OSM   C17S14036   4.601   7.048   4.807 -0.8674 -0.5159 -0.2528
  130OSM   H17S14037   4.702   7.094   4.817 -1.1276  0.2076 -0.8655
  130OSM   H17T14038   4.534   7.130   4.841 -2.2347 -2.2822  1.5182
  130OSM   C18S14039   4.562   7.031   4.660 -0.2363  0.1097  0.2364
  130OSM   H18S14040   4.451   7.028   4.655 -0.2942  2.2441 -0.4712
  130OSM   H18T14041   4.615   6.943   4.617 -2.9598 -0.6551 -1.8999
  130OSM   H18U14042   4.590   7.118   4.596 -3.8475  1.8730  0.8049
  130OSM    C1F14043   5.361   7.229   6.327 -0.9148 -0.8904  0.6943
  130OSM     OF14044   5.431   7.140   6.370 -0.3937  0.0532 -0.7449
  130OSM    C2F14045   5.417   7.362   6.282 -0.0938  0.3590 -0.3706
  130OSM    H2F14046   5.522   7.371   6.317 -0.1850  2.5300 -0.4941
  130OSM    H2G14047   5.357   7.438   6.337 -1.5772 -0.6857 -0.4832
  130OSM    C3F14048   5.413   7.389   6.123  0.0302 -0.4131 -0.2218
  130OSM    H3F14049   5.443   7.494   6.099 -0.4532  0.4837  2.6555
  130OSM    H3G14050   5.306   7.383   6.096 -0.2989 -0.7880  1.1235
  130OSM    C4F14051   5.496   7.300   6.032 -0.2012 -0.0880 -0.2816
  130OSM    H4F14052   5.470   7.193   6.046  1.2232 -0.2701  1.3318
  130OSM    H4G14053   5.599   7.320   6.067 -1.0388  1.4719  1.4798
  130OSM    C5F14054   5.483   7.333   5.886  0.5641  0.2638 -0.1765
  130OSM    H5F14055   5.553   7.270   5.827 -0.5548 -1.8680  0.6812
  130OSM    H5G14056   5.496   7.442   5.867 -0.5823  1.2006  3.5639
  130OSM    C6F14057   5.343   7.299   5.832 -0.2202 -0.5499  0.2351
  130OSM    H6F14058   5.270   7.381   5.845  1.9034  2.0438 -2.8381
  130OSM    H6G14059   5.316   7.205   5.884  1.4911 -1.2737 -0.1065
  130OSM    C7F14060   5.342   7.272   5.684 -0.2428  0.0086 -0.2549
  130OSM    H7F14061   5.418   7.192   5.673  0.3223  0.6323 -0.9850
  130OSM    H7G14062   5.390   7.356   5.630 -1.2753 -0.6813 -2.3597
  130OSM    C8F14063   5.215   7.229   5.609  0.1460  0.3529 -0.7435
  130OSM    H8F14064   5.142   7.311   5.594 -1.6250 -1.3033 -1.6357
  130OSM    H8G14065   5.170   7.145   5.666  1.1627  0.5735  0.4455
  130OSM    C9F14066   5.244   7.168   5.473 -0.4289  0.3181 -0.3705
  130OSM    H9F14067   5.241   7.059   5.487  1.8049  0.2056 -0.4184
  130OSM   C10F14068   5.288   7.226   5.362  0.3625 -0.4002  0.2218
  130OSM   H10F14069   5.308   7.164   5.274 -0.1194  0.1020 -0.2510
  130OSM   C11F14070   5.309   7.373   5.339 -0.0894  0.2156 -0.3043
  130OSM   H11F14071   5.419   7.386   5.327  0.1585 -2.0875 -0.9595
  130OSM   H11G14072   5.272   7.433   5.425  0.6326 -0.5361  0.5550
  130OSM   C12F14073   5.238   7.423   5.213  0.4498 -0.0929 -0.6438
  130OSM   H12F14074   5.224   7.534   5.214 -1.3892 -0.2744  1.6430
  130OSM   H12G14075   5.135   7.384   5.227  0.4521 -0.5922 -1.8511
  130OSM   C13F14076   5.299   7.368   5.088  0.3091 -0.3908 -0.1990
  130OSM   H13F14077   5.255   7.266   5.074 -1.7625  0.5128 -0.6183
  130OSM   H13G14078   5.410   7.362   5.094  0.3604  0.3069 -0.3907
  130OSM   C14F14079   5.259   7.451   4.962  0.1126  0.0149  0.2087
  130OSM   H14F14080   5.305   7.552   4.960  1.2394 -0.4920 -0.7187
  130OSM   H14G14081   5.149   7.464   4.969  0.0209 -1.5370  3.7440
  130OSM   C15F14082   5.281   7.379   4.824 -0.2069  0.6795 -0.0898
  130OSM   H15F14083   5.227   7.282   4.823  2.2578 -0.8108  1.1087
  130OSM   H15G14084   5.389   7.362   4.806 -0.7899 -0.6136 -2.9473
  130OSM   C16F14085   5.221   7.458   4.703 -0.7979 -0.5081 -0.7693
  130OSM   H16F14086   5.262   7.562   4.708 -0.3481 -0.4984 -3.4323
  130OSM   H16G14087   5.116   7.494   4.711 -0.5724 -0.0208  0.2612
  130OSM   C17F14088   5.258   7.410   4.563 -0.1178  0.3036 -0.3612
  130OSM   H17F14089   5.367   7.396   4.550  0.2320  1.4874  1.0957
  130OSM   H17G14090   5.224   7.492   4.496 -0.7127  1.1909  0.9741
  130OSM   C18F14091   5.187   7.275   4.543  0.2127  0.0560  0.2269
  130OSM   H18F14092   5.199   7.215   4.636  1.0935  1.1117  0.8148
  130OSM   H18G14093   5.229   7.219   4.456  1.3635  1.6018 -0.2570
  130OSM   H18H14094   5.081   7.296   4.520  0.3419  0.4179 -0.0580
  131OSM      N14095   4.414   3.756   7.184  0.9187  0.0455 -0.0386
  131OSM    C1514096   4.382   3.905   7.191  0.4764 -0.0273  0.1301
  131OSM   H15A14097   4.297   3.931   7.129  0.8960  0.0803 -0.4058
  131OSM   H15B14098   4.463   3.965   7.152 -0.2934  0.8676 -0.1066
  131OSM   H15C14099   4.361   3.948   7.288 -0.1883  1.6915 -0.7261
  131OSM    C1414100   4.562   3.737   7.212 -0.5788  0.0749 -0.3831
  131OSM   H14A14101   4.611   3.785   7.128 -2.6656 -0.2295 -1.8682
  131OSM   H14B14102   4.591   3.633   7.210  0.6889  0.4152 -1.0345
  131OSM   H14C14103   4.600   3.777   7.304 -0.0326 -1.4077  0.0680
  131OSM    C1314104   4.339   3.675   7.291 -0.4142  0.1132 -0.3220
  131OSM   H13A14105   4.349   3.567   7.282  2.6001  0.1525  1.1720
  131OSM   H13B14106   4.232   3.677   7.279 -0.2716 -2.2669 -3.4602
  131OSM   H13C14107   4.365   3.712   7.389  1.2938  0.2131 -0.7782
  131OSM    C1214108   4.379   3.707   7.039  0.1191 -0.4731 -0.5102
  131OSM   H12A14109   4.413   3.605   7.028  0.4166 -0.3598 -0.6475
  131OSM   H12B14110   4.433   3.778   6.979 -0.1174  1.2447  1.1916
  131OSM    C1114111   4.233   3.714   6.994 -0.2330 -0.0203 -0.0061
  131OSM   H11A14112   4.187   3.630   7.050  2.4181 -0.9593  0.9267
  131OSM   H11B14113   4.230   3.679   6.888  1.5640 -0.2961  0.0003
  131OSM      P14114   4.135   3.939   6.908 -0.1321  0.0464 -0.1596
  131OSM    O1314115   4.006   4.005   6.947 -0.3798 -0.1438 -0.0306
  131OSM    O1414116   4.262   4.021   6.894  0.3258  0.4704 -0.3402
  131OSM    O1114117   4.118   3.844   6.781  0.6219  0.0701  0.3466
  131OSM    O1214118   4.164   3.835   7.025 -0.1460 -0.3214 -0.4623
  131OSM    C1S14119   4.175   3.888   6.659  0.7872  0.3077  0.3321
  131OSM    H1S14120   4.278   3.926   6.677  0.2007  1.5945  1.0858
  131OSM    H1T14121   4.114   3.971   6.616 -1.1858 -0.2090  1.9692
  131OSM     NF14122   4.241   3.805   6.434 -0.2277  0.0065  0.5337
  131OSM    HNF14123   4.188   3.801   6.349 -1.6425 -0.2415  1.4003
  131OSM    C2S14124   4.176   3.760   6.556  0.6245 -0.3585 -0.0327
  131OSM    H2S14125   4.237   3.678   6.599  0.6290  0.0063  0.6664
  131OSM    C3S14126   4.036   3.690   6.544  0.1428 -0.1337  0.7170
  131OSM    H3S14127   3.973   3.765   6.492  1.8708  0.9597  0.1255
  131OSM     O314128   3.971   3.651   6.660  0.0259 -0.2948 -0.5813
  131OSM    HO314129   4.022   3.704   6.722  1.2050 -0.7031 -1.1710
  131OSM    C4S14130   4.045   3.572   6.453 -0.4679 -0.5619  0.1598
  131OSM    H4S14131   4.132   3.513   6.485  0.7535  0.8515 -0.4309
  131OSM    C5S14132   3.963   3.542   6.353 -0.1322  0.1374 -0.1581
  131OSM    H5S14133   3.868   3.597   6.353 -0.8357 -1.0566 -0.1185
  131OSM    C6S14134   3.961   3.410   6.272 -0.0947 -0.0430 -0.5033
  131OSM    H6S14135   3.862   3.366   6.297 -0.1436  0.3883  0.0880
  131OSM    H6T14136   4.041   3.342   6.306  0.2502  0.8494  0.5268
  131OSM    C7S14137   3.987   3.426   6.120  0.4955  0.0641  1.0356
  131OSM    H7S14138   4.091   3.462   6.102  0.5646 -0.2803  0.7256
  131OSM    H7T14139   3.910   3.504   6.098 -1.1872 -1.4676  1.2998
  131OSM    C8S14140   3.956   3.300   6.042 -0.3434  0.9145  0.0906
  131OSM    H8S14141   3.871   3.250   6.092  0.3851  1.5552  2.0652
  131OSM    H8T14142   4.041   3.228   6.048  0.0797  1.2383 -1.5322
  131OSM    C9S14143   3.926   3.317   5.894 -0.2512 -0.3398  0.4315
  131OSM    H9S14144   3.859   3.405   5.902  0.8661  0.3416  3.8836
  131OSM    H9T14145   3.881   3.221   5.863 -2.3157  0.6111  0.3463
  131OSM   C10S14146   4.044   3.341   5.805 -0.7539 -0.1484  0.0089
  131OSM   H10S14147   4.109   3.251   5.815  0.2121  0.6395  1.1774
  131OSM   H10T14148   4.091   3.434   5.846 -3.9205  0.5007  2.5884
  131OSM   C11S14149   4.010   3.366   5.659  0.7732 -0.2353 -0.5802
  131OSM   H11S14150   3.970   3.470   5.659 -0.0646 -0.5441 -1.0959
  131OSM   H11T14151   3.925   3.302   5.625 -1.5250  3.2134 -1.9007
  131OSM   C12S14152   4.135   3.365   5.567  0.3635  0.4330  0.0708
  131OSM   H12S14153   4.176   3.262   5.571  1.7426  0.8263 -2.3125
  131OSM   H12T14154   4.217   3.429   5.604 -0.7427  0.8169  2.0208
  131OSM   C13S14155   4.115   3.390   5.416 -0.3556 -0.4071 -0.6132
  131OSM   H13S14156   4.124   3.500   5.400  0.2319 -0.5886 -1.6272
  131OSM   H13T14157   4.016   3.352   5.386  0.3392 -1.1799 -2.0033
  131OSM   C14S14158   4.237   3.339   5.334 -0.1448  0.8615 -0.0946
  131OSM   H14S14159   4.245   3.228   5.338  0.9227  0.9487  0.7476
  131OSM   H14T14160   4.327   3.389   5.375  2.5480 -3.6153  0.2171
  131OSM   C15S14161   4.226   3.382   5.190  0.4859 -0.4085 -0.8259
  131OSM   H15S14162   4.213   3.492   5.182 -1.1481 -0.6215 -1.5484
  131OSM   H15T14163   4.129   3.337   5.158  0.5249  0.8622 -2.9032
  131OSM   C16S14164   4.341   3.341   5.107 -0.7767 -0.7917 -0.7506
  131OSM   H16S14165   4.430   3.355   5.172 -0.8911  1.3069 -0.9680
  131OSM   H16T14166   4.356   3.402   5.015  3.5029 -0.5807 -0.1040
  131OSM   C17S14167   4.341   3.194   5.068  0.8402  0.2035  0.3239
  131OSM   H17S14168   4.275   3.198   4.979 -2.2696  1.0101  2.4896
  131OSM   H17T14169   4.295   3.128   5.145 -1.8005  1.3298 -0.1747
  131OSM   C18S14170   4.481   3.148   5.033 -0.0568 -0.1794 -0.1517
  131OSM   H18S14171   4.546   3.218   4.976  2.6097  1.8661  4.6946
  131OSM   H18T14172   4.477   3.047   4.987  0.4902 -0.2850  0.0258
  131OSM   H18U14173   4.531   3.129   5.131  0.9017  2.3964 -0.0562
  131OSM    C1F14174   4.370   3.837   6.429 -0.3594 -0.1628 -0.7535
  131OSM     OF14175   4.445   3.819   6.527 -0.2298 -0.0465  0.7959
  131OSM    C2F14176   4.419   3.902   6.299  0.4098  0.3877 -0.4171
  131OSM    H2F14177   4.410   4.013   6.306  0.5507  0.3976 -0.3814
  131OSM    H2G14178   4.355   3.871   6.214 -1.5891  1.5314  0.5859
  131OSM    C3F14179   4.566   3.865   6.263  0.4584  0.2748 -0.4611
  131OSM    H3F14180   4.558   3.757   6.238  0.8500  0.1298  0.0414
  131OSM    H3G14181   4.634   3.855   6.350  0.7206 -0.2730 -0.7256
  131OSM    C4F14182   4.630   3.945   6.143  0.6972  0.1539 -0.4290
  131OSM    H4F14183   4.724   3.888   6.122  1.1015  0.0480  1.4787
  131OSM    H4G14184   4.669   4.040   6.185 -2.0202  0.9332  0.4866
  131OSM    C5F14185   4.535   3.977   6.027 -0.3115  0.6519 -0.1893
  131OSM    H5F14186   4.446   4.031   6.066  0.3572  1.1112  0.7535
  131OSM    H5G14187   4.498   3.888   5.974 -0.3378  0.7825 -0.3914
  131OSM    C6F14188   4.605   4.071   5.921 -0.1788 -0.3862  1.0055
  131OSM    H6F14189   4.651   4.158   5.974  0.3812 -1.1908  1.8803
  131OSM    H6G14190   4.529   4.110   5.851  0.5429  1.1461  1.0291
  131OSM    C7F14191   4.720   4.011   5.830  0.3413 -0.6830 -0.6995
  131OSM    H7F14192   4.660   3.954   5.756  1.2094 -3.3142  0.5092
  131OSM    H7G14193   4.772   3.942   5.900  2.1514  0.6507 -0.6497
  131OSM    C8F14194   4.808   4.116   5.769  0.0784 -0.1155 -0.2329
  131OSM    H8F14195   4.856   4.194   5.832 -1.1779  2.7849 -2.6279
  131OSM    H8G14196   4.745   4.178   5.701  2.1757  1.5140 -0.7781
  131OSM    C9F14197   4.913   4.053   5.685  0.2554 -0.0840  0.3228
  131OSM    H9F14198   5.009   4.024   5.731  1.3091  1.6319 -0.6924
  131OSM   C10F14199   4.916   4.040   5.550  0.0144  0.2560 -0.0844
  131OSM   H10F14200   5.002   3.988   5.507  0.8635  1.2791  0.3281
  131OSM   C11F14201   4.810   4.094   5.455  0.1997 -1.1475  0.1045
  131OSM   H11F14202   4.822   4.204   5.449 -2.0822 -0.8222  0.5833
  131OSM   H11G14203   4.710   4.072   5.499 -0.1425  1.4168  0.7802
  131OSM   C12F14204   4.821   4.047   5.310 -0.4096 -0.3809  0.7632
  131OSM   H12F14205   4.731   4.063   5.246  1.3300  1.1509 -1.4556
  131OSM   H12G14206   4.836   3.937   5.315  3.5928 -0.2910 -3.1052
  131OSM   C13F14207   4.947   4.100   5.238 -0.3452  0.8285 -0.0643
  131OSM   H13F14208   5.036   4.068   5.296  0.8691  1.5712 -1.4460
  131OSM   H13G14209   4.947   4.210   5.225 -0.4176  0.8095 -0.2393
  131OSM   C14F14210   4.954   4.052   5.098 -0.1728  0.0877  0.6910
  131OSM   H14F14211   4.860   4.083   5.047  0.5277  2.9207  0.9791
  131OSM   H14G14212   4.956   3.941   5.106 -1.4818 -0.1253 -1.2119
  131OSM   C15F14213   5.078   4.101   5.015  0.4321 -0.3929  0.3222
  131OSM   H15F14214   5.173   4.070   5.062  1.8550  1.2838 -1.2995
  131OSM   H15G14215   5.059   4.211   5.016  2.5884  0.0102  0.8350
  131OSM   C16F14216   5.087   4.038   4.872 -0.4630  0.0773 -0.1433
  131OSM   H16F14217   5.002   4.068   4.807  0.1221 -0.7515 -1.3275
  131OSM   H16G14218   5.084   3.928   4.889 -1.4900  0.1509  0.2501
  131OSM   C17F14219   5.214   4.091   4.804 -0.2671  0.7778 -0.1801
  131OSM   H17F14220   5.302   4.055   4.862  0.2353  2.6498  0.2883
  131OSM   H17G14221   5.214   4.201   4.792  1.2595  0.8690  0.3861
  131OSM   C18F14222   5.230   4.052   4.653 -0.0071  1.0167 -0.2852
  131OSM   H18F14223   5.128   4.023   4.618  0.7142 -0.9101 -0.9724
  131OSM   H18G14224   5.294   3.962   4.639  0.5100  0.9573  2.0527
  131OSM   H18H14225   5.269   4.138   4.594 -0.4254  0.4867 -1.3672
  132OSM      N14226   6.206   1.656   7.253  0.4188 -0.8517  0.0293
  132OSM    C1514227   6.140   1.523   7.245  0.6220 -0.9078 -0.3578
  132OSM   H15A14228   6.192   1.479   7.161  1.3226  0.0320 -0.4163
  132OSM   H15B14229   6.034   1.518   7.226  0.1118 -3.3597  2.3541
  132OSM   H15C14230   6.158   1.460   7.331 -1.3953  1.1938  1.7497
  132OSM    C1414231   6.134   1.748   7.358  0.0400  0.2583  0.4482
  132OSM   H14A14232   6.033   1.766   7.325  0.7793 -1.4384 -3.2402
  132OSM   H14B14233   6.184   1.844   7.366  0.2358  0.1565  0.4465
  132OSM   H14C14234   6.134   1.703   7.455 -2.1386  0.4730  0.6110
  132OSM    C1314235   6.346   1.639   7.292  0.1258  0.2188  0.2657
  132OSM   H13A14236   6.369   1.550   7.349 -2.7409  0.2686  1.6694
  132OSM   H13B14237   6.386   1.728   7.337  1.1398  0.5964 -1.3166
  132OSM   H13C14238   6.417   1.631   7.211 -1.0326 -2.4379 -0.5998
  132OSM    C1214239   6.192   1.734   7.115  0.3253 -0.4679 -0.1447
  132OSM   H12A14240   6.217   1.667   7.034 -2.4259  1.3622 -2.6913
  132OSM   H12B14241   6.244   1.829   7.124 -2.8243  1.3659  0.0160
  132OSM    C1114242   6.051   1.775   7.068 -0.4006 -0.2847  0.0367
  132OSM   H11A14243   6.063   1.838   6.977 -0.7158  0.3736  0.4390
  132OSM   H11B14244   6.013   1.841   7.149  1.6322  1.0837 -0.0686
  132OSM      P14245   5.815   1.663   7.057  0.6266  0.0866 -0.1923
  132OSM    O1314246   5.781   1.546   7.141  0.1779 -0.1527 -0.3807
  132OSM    O1414247   5.759   1.791   7.103 -0.7274 -0.0148  0.0751
  132OSM    O1114248   5.773   1.644   6.912 -0.4146 -0.1280 -0.6432
  132OSM    O1214249   5.969   1.658   7.043 -0.5272  0.1711  0.0371
  132OSM    C1S14250   5.835   1.705   6.796 -0.0523  0.1943  0.1424
  132OSM    H1S14251   5.946   1.697   6.791 -0.1086 -0.1400 -0.7182
  132OSM    H1T14252   5.828   1.816   6.797  2.8284  0.4578  1.1019
  132OSM     NF14253   5.851   1.669   6.563  0.1941 -0.3304  0.5159
  132OSM    HNF14254   5.808   1.733   6.500  0.8649  0.3073  0.6960
  132OSM    C2S14255   5.763   1.637   6.672 -0.2746 -0.3087 -0.4648
  132OSM    H2S14256   5.770   1.529   6.695 -0.0478  0.0402  1.2703
  132OSM    C3S14257   5.613   1.676   6.665 -0.1384  0.7921  0.2304
  132OSM    H3S14258   5.607   1.786   6.646  2.4607  0.9666  0.0682
  132OSM     O314259   5.551   1.665   6.785 -0.0366 -0.0873 -0.2893
  132OSM    HO314260   5.626   1.648   6.841 -0.4259 -2.0316 -0.2736
  132OSM    C4S14261   5.540   1.598   6.566  0.3934  0.1123 -0.8432
  132OSM    H4S14262   5.522   1.497   6.604  2.1150 -0.2475 -0.8902
  132OSM    C5S14263   5.490   1.630   6.442  0.5317 -0.2169 -0.9001
  132OSM    H5S14264   5.507   1.726   6.391 -0.5500  0.3345 -0.2657
  132OSM    C6S14265   5.411   1.532   6.356 -0.3991  0.5211  0.0169
  132OSM    H6S14266   5.335   1.471   6.410  1.8171 -0.0153  2.7730
  132OSM    H6T14267   5.479   1.452   6.320 -1.8334 -0.3380 -0.8577
  132OSM    C7S14268   5.350   1.602   6.231 -0.1944 -0.4856 -0.1608
  132OSM    H7S14269   5.434   1.657   6.182  0.6643 -2.6989 -1.3178
  132OSM    H7T14270   5.268   1.670   6.263 -0.0184  0.0094 -0.7399
  132OSM    C8S14271   5.292   1.495   6.128  0.0684  0.2989  0.2375
  132OSM    H8S14272   5.224   1.438   6.194  1.7615 -1.6234  0.4225
  132OSM    H8T14273   5.378   1.431   6.099 -0.1133 -0.4853  1.3514
  132OSM    C9S14274   5.219   1.558   6.018  0.5617  0.3039  0.4566
  132OSM    H9S14275   5.276   1.645   5.981 -0.2368  0.2930 -0.8864
  132OSM    H9T14276   5.127   1.609   6.054 -0.5300 -1.3321  0.1013
  132OSM   C10S14277   5.184   1.459   5.911  0.8826  0.3223 -0.0202
  132OSM   H10S14278   5.275   1.427   5.856  1.1477  0.5512  0.2863
  132OSM   H10T14279   5.129   1.508   5.828  0.0173 -0.1060  0.2827
  132OSM   C11S14280   5.113   1.334   5.971 -0.4012  0.3130  0.9760
  132OSM   H11S14281   5.016   1.372   6.010 -0.6025 -0.6263  1.4021
  132OSM   H11T14282   5.163   1.299   6.063 -0.5494  0.2596  1.0357
  132OSM   C12S14283   5.080   1.219   5.875 -0.0733  0.3632 -1.0086
  132OSM   H12S14284   5.019   1.137   5.920  0.1624 -0.0287 -1.4028
  132OSM   H12T14285   5.173   1.169   5.841 -0.1259 -0.6289  0.1853
  132OSM   C13S14286   5.000   1.274   5.760  0.5492  0.1270  0.7473
  132OSM   H13S14287   5.048   1.366   5.720  0.5717 -0.8139 -1.5721
  132OSM   H13T14288   4.901   1.313   5.792  0.2146  2.1574 -2.3213
  132OSM   C14S14289   4.982   1.190   5.632 -0.3375 -0.1599  0.2422
  132OSM   H14S14290   4.915   1.245   5.563 -2.0806 -1.6567  0.6712
  132OSM   H14T14291   4.931   1.099   5.670 -0.6481  0.2573  0.8420
  132OSM   C15S14292   5.117   1.167   5.561  0.0208 -0.0534 -0.0543
  132OSM   H15S14293   5.174   1.082   5.605  0.7543  0.6941  0.4738
  132OSM   H15T14294   5.185   1.255   5.563  0.4750 -0.3135  3.4178
  132OSM   C16S14295   5.088   1.141   5.409  0.1732  0.0732  0.0572
  132OSM   H16S14296   5.063   1.237   5.359 -1.7153 -0.9117 -0.9629
  132OSM   H16T14297   4.999   1.075   5.404 -0.4259  0.7163  1.6643
  132OSM   C17S14298   5.201   1.066   5.348  0.0424 -0.5581 -0.4728
  132OSM   H17S14299   5.216   0.970   5.403  3.0930  1.0370  1.7440
  132OSM   H17T14300   5.296   1.123   5.356 -0.7672  0.9107 -0.9642
  132OSM   C18S14301   5.175   1.047   5.201  0.2002 -0.2242 -0.0774
  132OSM   H18S14302   5.078   0.994   5.192  0.9145 -1.5274 -0.5165
  132OSM   H18T14303   5.255   0.984   5.155  0.3084  0.3993 -0.7629
  132OSM   H18U14304   5.166   1.135   5.135 -1.3180 -0.5972 -0.3932
  132OSM    C1F14305   5.968   1.604   6.540  0.0818  0.4451  0.9027
  132OSM     OF14306   6.015   1.513   6.612 -0.3443  0.2241 -0.2646
  132OSM    C2F14307   6.036   1.649   6.412 -0.4514  0.3545  0.3093
  132OSM    H2F14308   6.107   1.727   6.446 -0.3322 -0.5483  2.2404
  132OSM    H2G14309   5.972   1.693   6.332  1.6820  1.5358 -0.8447
  132OSM    C3F14310   6.115   1.543   6.331 -0.5039  0.3193 -0.7814
  132OSM    H3F14311   6.063   1.445   6.323 -1.6562  0.9035 -0.6248
  132OSM    H3G14312   6.206   1.510   6.384 -1.1753  1.1833  0.9918
  132OSM    C4F14313   6.165   1.577   6.191  0.6411  0.0257  0.4396
  132OSM    H4F14314   6.255   1.642   6.196  0.1791  0.6403  0.9160
  132OSM    H4G14315   6.088   1.631   6.133  2.0966  0.3415 -1.2733
  132OSM    C5F14316   6.190   1.455   6.106 -0.4715  0.2900 -0.5349
  132OSM    H5F14317   6.118   1.370   6.114  0.1891 -0.3586 -1.3120
  132OSM    H5G14318   6.288   1.408   6.131 -1.0296 -1.1592 -0.9834
  132OSM    C6F14319   6.204   1.491   5.958  0.8502  0.2850 -0.2067
  132OSM    H6F14320   6.277   1.421   5.911 -1.1684 -0.0766 -3.0165
  132OSM    H6G14321   6.258   1.587   5.944  1.7506 -0.4428 -2.0926
  132OSM    C7F14322   6.078   1.491   5.877  0.3745  0.0939 -1.0669
  132OSM    H7F14323   6.004   1.568   5.910 -1.6558 -1.2686 -2.2529
  132OSM    H7G14324   6.029   1.395   5.902 -1.4611  1.6532  1.9021
  132OSM    C8F14325   6.102   1.503   5.728 -0.3265 -0.5294  0.2711
  132OSM    H8F14326   6.162   1.414   5.699  0.4520  1.1188 -3.9796
  132OSM    H8G14327   6.147   1.602   5.705 -1.6809 -0.0301 -0.3387
  132OSM    C9F14328   5.964   1.489   5.669 -0.2203  0.3678  0.0663
  132OSM    H9F14329   5.883   1.448   5.731  0.9614 -1.6615  0.3621
  132OSM   C10F14330   5.925   1.510   5.543 -0.8683 -0.6554  0.6792
  132OSM   H10F14331   5.821   1.494   5.511 -0.2506 -2.2325 -0.7380
  132OSM   C11F14332   6.011   1.565   5.426  0.0206  0.0129 -0.5515
  132OSM   H11F14333   6.110   1.598   5.464 -0.7527  2.4334 -0.4425
  132OSM   H11G14334   5.968   1.656   5.379 -1.0968  0.4695  1.2637
  132OSM   C12F14335   6.018   1.457   5.315 -0.0347  0.3883 -0.1215
  132OSM   H12F14336   5.915   1.427   5.287 -0.8634  3.6034 -0.9448
  132OSM   H12G14337   6.077   1.367   5.343 -0.5560  0.3265  0.8043
  132OSM   C13F14338   6.084   1.499   5.179 -0.1814 -0.5864 -0.5797
  132OSM   H13F14339   6.070   1.405   5.122 -0.0297  0.0154 -1.6471
  132OSM   H13G14340   6.190   1.525   5.201 -0.5485 -0.9839  1.9304
  132OSM   C14F14341   6.012   1.611   5.099  0.2056 -0.1692 -0.3559
  132OSM   H14F14342   6.037   1.706   5.151  1.4933 -0.5123 -0.3164
  132OSM   H14G14343   5.903   1.591   5.089  0.5097 -2.5041  0.3343
  132OSM   C15F14344   6.066   1.619   4.955  0.1116 -0.8897  0.4973
  132OSM   H15F14345   6.016   1.536   4.900  2.4031 -1.1241 -1.3919
  132OSM   H15G14346   6.173   1.598   4.936 -0.1640 -1.7065 -0.2125
  132OSM   C16F14347   6.028   1.747   4.868 -0.3965  0.7829 -0.6631
  132OSM   H16F14348   6.094   1.821   4.918 -0.7103 -0.5924  1.9914
  132OSM   H16G14349   5.920   1.768   4.880 -1.3634 -3.3291 -0.3899
  132OSM   C17F14350   6.069   1.721   4.729  0.2421  0.2640 -0.5138
  132OSM   H17F14351   5.988   1.655   4.690  0.0752 -0.3289  0.7935
  132OSM   H17G14352   6.162   1.661   4.731  0.7356  0.8229 -2.9396
  132OSM   C18F14353   6.087   1.849   4.644 -0.1090  0.3612  0.1554
  132OSM   H18F14354   6.128   1.820   4.545  2.1137 -1.4118  1.4863
  132OSM   H18G14355   6.157   1.924   4.687  1.9630  0.0762 -2.4598
  132OSM   H18H14356   5.989   1.893   4.619 -0.9007 -0.8660  1.0020
  133OSM      N14357   1.781   1.095   6.571  0.3978 -0.0508  0.2546
  133OSM    C1514358   1.883   1.207   6.556  0.7758  0.6125 -0.6542
  133OSM   H15A14359   1.922   1.243   6.650 -2.8335 -0.6696  1.5110
  133OSM   H15B14360   1.852   1.291   6.496  2.1156  0.4003 -1.6895
  133OSM   H15C14361   1.967   1.165   6.502 -0.3965 -1.0275 -1.2930
  133OSM    C1414362   1.835   0.978   6.647 -0.1483 -0.1354 -0.4150
  133OSM   H14A14363   1.750   0.913   6.661 -0.1048 -0.2791 -0.7793
  133OSM   H14B14364   1.884   1.012   6.737  0.9055 -0.3735 -0.8821
  133OSM   H14C14365   1.909   0.920   6.593 -1.6697 -1.7726 -0.8563
  133OSM    C1314366   1.655   1.151   6.629 -0.0051  0.4794  0.1106
  133OSM   H13A14367   1.579   1.077   6.649 -0.9836  1.7268  1.1581
  133OSM   H13B14368   1.614   1.222   6.559  0.4825  0.8390  0.1888
  133OSM   H13C14369   1.676   1.187   6.729  0.3089 -1.8961  0.9853
  133OSM    C1214370   1.736   1.045   6.432 -0.7475  0.1164 -0.2666
  133OSM   H12A14371   1.673   1.116   6.382 -0.6380  0.4201  0.0253
  133OSM   H12B14372   1.662   0.969   6.455  1.4217 -1.2539  2.9031
  133OSM    C1114373   1.843   0.982   6.337 -0.5549 -1.1302 -0.3623
  133OSM   H11A14374   1.921   1.053   6.304 -1.0222 -0.4934 -0.1208
  133OSM   H11B14375   1.795   0.947   6.243  1.1038 -0.4030 -1.5321
  133OSM      P14376   2.047   0.817   6.357  0.1500  0.2154 -0.1958
  133OSM    O1314377   2.156   0.888   6.418  0.0418  0.4543  0.0116
  133OSM    O1414378   2.053   0.671   6.382  0.1289  0.2888  0.8094
  133OSM    O1114379   2.056   0.837   6.204  0.5597  0.7712  0.3663
  133OSM    O1214380   1.904   0.869   6.402 -0.5822 -0.8821 -0.0262
  133OSM    C1S14381   1.968   0.764   6.112  0.6283 -0.2326 -0.3983
  133OSM    H1S14382   1.866   0.753   6.155  0.2784 -1.0764 -1.4022
  133OSM    H1T14383   2.010   0.662   6.099 -0.4839 -0.6448 -0.8877
  133OSM     NF14384   1.862   0.785   5.881 -0.1004  0.2901  0.1319
  133OSM    HNF14385   1.885   0.735   5.798 -2.5924 -0.5057 -0.1344
  133OSM    C2S14386   1.962   0.837   5.974 -0.5663 -0.7338  0.4285
  133OSM    H2S14387   1.930   0.938   6.008  0.7734 -0.8432  2.1710
  133OSM    C3S14388   2.108   0.844   5.912 -0.0410 -0.5291  0.2735
  133OSM    H3S14389   2.137   0.738   5.898 -0.6130 -0.7113  0.4306
  133OSM     O314390   2.206   0.908   5.990  0.1185 -0.2373 -0.0036
  133OSM    HO314391   2.168   0.912   6.078 -0.2810 -2.1775 -0.0610
  133OSM    C4S14392   2.113   0.925   5.782  0.4764 -0.6320 -0.3189
  133OSM    H4S14393   2.120   1.032   5.808  2.0705 -1.1068  1.3797
  133OSM    C5S14394   2.113   0.881   5.652 -0.0576 -0.1285 -0.9163
  133OSM    H5S14395   2.123   0.774   5.630 -1.5844 -0.1789 -1.5484
  133OSM    C6S14396   2.096   0.966   5.528 -0.1689  0.6355 -0.1331
  133OSM    H6S14397   2.181   0.947   5.459 -0.6672  0.0754 -0.6090
  133OSM    H6T14398   2.096   1.076   5.540  2.0682  0.4697  2.1473
  133OSM    C7S14399   1.956   0.930   5.470 -0.0130  0.2807  0.0256
  133OSM    H7S14400   1.921   1.014   5.406 -1.4023 -1.2225 -1.2874
  133OSM    H7T14401   1.881   0.932   5.552  0.1082  0.5909  0.1282
  133OSM    C8S14402   1.950   0.797   5.406  0.2256 -0.2463 -0.5316
  133OSM    H8S14403   1.969   0.718   5.483 -0.6381  1.3511  1.4287
  133OSM    H8T14404   2.012   0.805   5.315  0.2592  0.0191 -0.4853
  133OSM    C9S14405   1.803   0.763   5.369 -0.3721  0.2429  0.5809
  133OSM    H9S14406   1.774   0.843   5.299 -1.8606  0.3015  1.2405
  133OSM    H9T14407   1.735   0.770   5.456 -0.2838  2.9231  0.5135
  133OSM   C10S14408   1.788   0.630   5.294 -0.1506 -0.4272 -0.8767
  133OSM   H10S14409   1.819   0.553   5.368 -0.4348  0.0263 -0.2765
  133OSM   H10T14410   1.865   0.614   5.216  0.8560  1.7717 -0.4174
  133OSM   C11S14411   1.645   0.609   5.253  0.1056 -0.1990 -0.4506
  133OSM   H11S14412   1.621   0.680   5.171  0.4532  1.2003  0.6168
  133OSM   H11T14413   1.572   0.627   5.335  0.1999  0.3008 -0.4757
  133OSM   C12S14414   1.619   0.459   5.217 -0.1202  0.7031  0.3157
  133OSM   H12S14415   1.517   0.476   5.176  0.7958  2.5653 -1.3738
  133OSM   H12T14416   1.639   0.391   5.302 -0.5266 -1.0741 -0.9412
  133OSM   C13S14417   1.689   0.397   5.094 -0.0914 -0.3093 -0.3137
  133OSM   H13S14418   1.800   0.396   5.109  0.0441 -1.8720 -1.2377
  133OSM   H13T14419   1.669   0.460   5.004  0.8052 -1.7012 -1.5415
  133OSM   C14S14420   1.649   0.251   5.065  0.5753 -0.3224  0.4197
  133OSM   H14S14421   1.539   0.237   5.073  0.3437  1.1176  0.0276
  133OSM   H14T14422   1.697   0.184   5.139  1.2314 -0.0939  0.2087
  133OSM   C15S14423   1.692   0.208   4.924 -0.3762 -0.8802  0.1443
  133OSM   H15S14424   1.801   0.226   4.920 -0.4208 -0.4618  0.7267
  133OSM   H15T14425   1.640   0.270   4.849 -1.1002  0.4591  1.6901
  133OSM   C16S14426   1.672   0.059   4.892  0.0058 -0.0894 -0.1478
  133OSM   H16S14427   1.566   0.035   4.868 -0.0315  1.1015 -1.3052
  133OSM   H16T14428   1.704   0.006   4.983  0.2974 -0.5826 -0.5356
  133OSM   C17S14429   1.757   0.005   4.780  0.1605  0.3610  0.1926
  133OSM   H17S14430   1.754  -0.106   4.786  2.3191  0.1268 -1.5303
  133OSM   H17T14431   1.862   0.034   4.802  0.6072 -0.9655 -0.1198
  133OSM   C18S14432   1.712   0.049   4.640 -0.6908  0.6100 -0.0863
  133OSM   H18S14433   1.721   0.159   4.630 -0.8161  0.5538 -0.8683
  133OSM   H18T14434   1.607   0.024   4.615 -0.5907 -0.0122  0.1011
  133OSM   H18U14435   1.785   0.009   4.566  0.8442  0.6845  1.3239
  133OSM    C1F14436   1.734   0.805   5.899  0.3816 -0.7965  0.6048
  133OSM     OF14437   1.680   0.866   5.995 -0.0800 -0.3399  0.0954
  133OSM    C2F14438   1.650   0.756   5.788  0.7104 -0.4625 -0.2154
  133OSM    H2F14439   1.589   0.668   5.819 -1.2890  1.2102  0.8707
  133OSM    H2G14440   1.714   0.726   5.702  1.1631  0.8179 -0.3448
  133OSM    C3F14441   1.545   0.858   5.743  0.3969  0.4861 -0.3757
  133OSM    H3F14442   1.606   0.945   5.709 -2.8086  2.1041 -2.5993
  133OSM    H3G14443   1.473   0.881   5.825  0.1244 -3.3835  0.6474
  133OSM    C4F14444   1.462   0.806   5.626  0.3070 -0.6385  0.0243
  133OSM    H4F14445   1.404   0.720   5.666  0.3925  0.0977  1.8253
  133OSM    H4G14446   1.531   0.770   5.547 -0.9066  3.0564 -3.0681
  133OSM    C5F14447   1.371   0.918   5.562 -0.1301 -0.0959 -0.6086
  133OSM    H5F14448   1.314   0.969   5.643 -1.1546  0.9084 -1.9123
  133OSM    H5G14449   1.302   0.869   5.490  0.2500 -0.2973 -0.8387
  133OSM    C6F14450   1.437   1.036   5.491 -0.1595  0.4620  0.0281
  133OSM    H6F14451   1.516   1.078   5.557  2.0268 -0.3674 -1.9427
  133OSM    H6G14452   1.351   1.105   5.477 -0.1061 -0.0394 -3.6341
  133OSM    C7F14453   1.499   1.002   5.359 -0.7337  0.3078  0.2023
  133OSM    H7F14454   1.432   0.931   5.307 -3.5046  2.3685  0.7277
  133OSM    H7G14455   1.596   0.950   5.374 -2.1897 -2.4550  0.6720
  133OSM    C8F14456   1.534   1.124   5.263  0.1591 -0.4106  0.1766
  133OSM    H8F14457   1.570   1.216   5.314  0.1849 -1.3483  1.9181
  133OSM    H8G14458   1.436   1.157   5.223  0.1202 -1.3609 -0.5503
  133OSM    C9F14459   1.638   1.087   5.154  0.6063  0.0931 -0.5678
  133OSM    H9F14460   1.742   1.090   5.189  0.5670 -0.5582 -0.3790
  133OSM   C10F14461   1.613   1.048   5.024  1.6189 -0.1522  0.2538
  133OSM   H10F14462   1.690   1.028   4.948  1.2739 -1.9322  0.3398
  133OSM   C11F14463   1.482   1.044   4.956 -0.0887 -0.8983  0.3933
  133OSM   H11F14464   1.450   1.144   4.920 -0.7499 -1.5499 -0.9071
  133OSM   H11G14465   1.409   1.000   5.027 -1.7361  1.1019  0.0232
  133OSM   C12F14466   1.463   0.944   4.849 -0.0500  0.0861  0.2454
  133OSM   H12F14467   1.544   0.972   4.779  0.9714  0.4208  1.5260
  133OSM   H12G14468   1.364   0.951   4.799 -0.2942 -1.0196  0.5419
  133OSM   C13F14469   1.478   0.793   4.883  0.9909  0.3995  0.3431
  133OSM   H13F14470   1.391   0.766   4.946 -0.7903  0.6234 -1.8877
  133OSM   H13G14471   1.567   0.768   4.944  1.1251  2.3543  1.0145
  133OSM   C14F14472   1.452   0.703   4.758 -0.0784  0.7382 -0.4382
  133OSM   H14F14473   1.386   0.744   4.678 -1.0436 -1.9701 -1.1423
  133OSM   H14G14474   1.398   0.610   4.787 -0.0170  1.0266  0.6502
  133OSM   C15F14475   1.583   0.657   4.688  0.5353 -0.0072 -0.8902
  133OSM   H15F14476   1.651   0.609   4.762  1.5315 -1.6812 -2.7932
  133OSM   H15G14477   1.638   0.750   4.664  0.8024  1.0532  3.0900
  133OSM   C16F14478   1.584   0.576   4.553  0.6803  0.3434 -0.0809
  133OSM   H16F14479   1.692   0.555   4.545  0.6930  0.7965 -1.2362
  133OSM   H16G14480   1.562   0.647   4.471 -0.9438 -0.7389 -0.6380
  133OSM   C17F14481   1.505   0.450   4.561 -0.5565 -0.6361 -0.7709
  133OSM   H17F14482   1.396   0.470   4.568 -0.4712 -0.3957  0.0051
  133OSM   H17G14483   1.520   0.384   4.650  0.1391  0.3071 -0.1645
  133OSM   C18F14484   1.536   0.360   4.442 -0.1362  0.1294 -0.2512
  133OSM   H18F14485   1.623   0.291   4.454 -0.3303 -0.1050 -0.1953
  133OSM   H18G14486   1.553   0.420   4.350 -0.7298 -2.9003 -2.5182
  133OSM   H18H14487   1.446   0.296   4.431  0.1400 -0.3747  0.3510
  134OSM      N14488   2.204   6.004   6.805  0.1001  0.0117  0.1131
  134OSM    C1514489   2.224   6.142   6.866 -0.0262  0.0879 -0.1804
  134OSM   H15A14490   2.221   6.126   6.973  0.1094 -1.8883 -0.4269
  134OSM   H15B14491   2.143   6.214   6.859 -1.9040 -2.0476 -2.5162
  134OSM   H15C14492   2.319   6.185   6.839 -0.1364 -0.2930 -1.2071
  134OSM    C1414493   2.083   5.941   6.867  0.2458 -0.1246  1.0260
  134OSM   H14A14494   2.055   5.847   6.823 -0.7863  0.6485 -0.0310
  134OSM   H14B14495   2.003   6.014   6.864  0.7975  0.4539  0.1933
  134OSM   H14C14496   2.096   5.926   6.974  0.0133 -1.1832  0.9171
  134OSM    C1314497   2.178   6.015   6.663 -0.5124  0.1443 -0.0713
  134OSM   H13A14498   2.195   5.917   6.620  0.7160  0.0121  0.6611
  134OSM   H13B14499   2.262   6.072   6.626 -0.4325  0.0661 -0.0131
  134OSM   H13C14500   2.080   6.040   6.625 -0.4152 -0.1240 -0.4995
  134OSM    C1214501   2.328   5.925   6.834  0.1597 -0.1669  0.3034
  134OSM   H12A14502   2.420   5.973   6.805  0.9330 -0.1477  2.5795
  134OSM   H12B14503   2.316   5.843   6.765  0.7272  0.5223 -0.6347
  134OSM    C1114504   2.352   5.855   6.974 -0.2517  0.2525 -0.2524
  134OSM   H11A14505   2.332   5.925   7.058 -1.3306  0.3005 -0.5355
  134OSM   H11B14506   2.462   5.842   6.983  0.4265  4.7240  0.2476
  134OSM      P14507   2.290   5.628   6.887 -0.1917 -0.0720 -0.1102
  134OSM    O1314508   2.284   5.502   6.952 -0.3002  0.5506 -0.2516
  134OSM    O1414509   2.198   5.647   6.776  0.2574 -0.8726 -0.5320
  134OSM    O1114510   2.439   5.649   6.821  0.6917 -0.6085  0.0862
  134OSM    O1214511   2.276   5.740   6.988 -0.8997  0.1080 -0.1952
  134OSM    C1S14512   2.507   5.548   6.750 -0.5652  0.2463 -0.0003
  134OSM    H1S14513   2.464   5.450   6.778 -2.8347  1.0229 -0.5213
  134OSM    H1T14514   2.611   5.541   6.787 -0.7919 -3.3337  0.2718
  134OSM     NF14515   2.559   5.473   6.509 -0.3382  0.2210 -0.9745
  134OSM    HNF14516   2.656   5.482   6.487  0.1036  1.2506  1.1904
  134OSM    C2S14517   2.512   5.576   6.596  0.2715  0.1056  0.5221
  134OSM    H2S14518   2.405   5.598   6.575 -0.4743 -1.1524  2.6833
  134OSM    C3S14519   2.577   5.714   6.567 -0.6575  1.0760  0.1773
  134OSM    H3S14520   2.685   5.716   6.592 -0.5139 -1.9051  0.1522
  134OSM     O314521   2.537   5.820   6.657 -0.2254  0.1770  0.2298
  134OSM    HO314522   2.485   5.772   6.722 -2.7826  1.5924 -0.6564
  134OSM    C4S14523   2.569   5.747   6.424  0.1953 -0.5210  0.1196
  134OSM    H4S14524   2.626   5.681   6.358  0.1812  1.2157 -1.7113
  134OSM    C5S14525   2.511   5.857   6.372  0.4101 -0.1432 -0.4499
  134OSM    H5S14526   2.472   5.930   6.445 -1.1298 -0.6314 -0.7511
  134OSM    C6S14527   2.507   5.888   6.227 -0.6955 -0.2189  0.0161
  134OSM    H6S14528   2.569   5.972   6.191  0.0272  0.0978  1.8981
  134OSM    H6T14529   2.407   5.933   6.210 -0.5408 -0.5530 -1.9394
  134OSM    C7S14530   2.542   5.783   6.120 -0.9806  0.2474  0.1923
  134OSM    H7S14531   2.634   5.731   6.154 -0.8461  0.5418  0.2861
  134OSM    H7T14532   2.570   5.829   6.022 -1.1905 -0.3898 -0.1688
  134OSM    C8S14533   2.428   5.681   6.098  0.2828 -0.3356  0.3935
  134OSM    H8S14534   2.356   5.713   6.020 -0.9350 -0.8058  1.2974
  134OSM    H8T14535   2.379   5.683   6.197 -1.6063  1.7478 -0.5065
  134OSM    C9S14536   2.471   5.544   6.064 -0.1753  0.5543  0.0932
  134OSM    H9S14537   2.384   5.479   6.088  1.1823 -1.2939  0.2411
  134OSM    H9T14538   2.544   5.500   6.135 -2.2842 -2.4552  0.6104
  134OSM   C10S14539   2.510   5.524   5.922 -0.0788 -0.1855  0.3831
  134OSM   H10S14540   2.566   5.428   5.917 -0.4710 -0.3611 -1.6617
  134OSM   H10T14541   2.580   5.604   5.891  0.1767 -1.3482 -2.2851
  134OSM   C11S14542   2.399   5.518   5.814 -0.1555  0.1865 -0.2623
  134OSM   H11S14543   2.362   5.621   5.794  0.6037  0.8801  1.6855
  134OSM   H11T14544   2.319   5.458   5.863 -0.4475 -0.1939 -1.1834
  134OSM   C12S14545   2.441   5.449   5.681  0.4385  0.3859 -0.2730
  134OSM   H12S14546   2.347   5.416   5.631  0.1278  0.1991  0.4137
  134OSM   H12T14547   2.509   5.361   5.686  0.9957  0.8147 -0.3193
  134OSM   C13S14548   2.497   5.557   5.588 -0.8950  0.5113  0.2180
  134OSM   H13S14549   2.598   5.581   5.627 -1.7101 -0.1869  2.9369
  134OSM   H13T14550   2.432   5.646   5.598 -1.4357  0.8220 -4.0494
  134OSM   C14S14551   2.517   5.505   5.438  0.4487  0.8302 -0.6600
  134OSM   H14S14552   2.422   5.484   5.385  0.3956 -0.1095 -0.2093
  134OSM   H14T14553   2.572   5.409   5.451  2.0548  1.7072 -0.6877
  134OSM   C15S14554   2.599   5.601   5.354  0.1990  0.2517  0.9489
  134OSM   H15S14555   2.695   5.624   5.406  0.6696  0.3921  0.0529
  134OSM   H15T14556   2.542   5.696   5.360  0.7047  0.7117 -0.8207
  134OSM   C16S14557   2.612   5.556   5.209 -0.0900 -0.3309 -0.5038
  134OSM   H16S14558   2.669   5.462   5.194 -0.1223 -0.0513 -2.6460
  134OSM   H16T14559   2.668   5.636   5.155 -0.7656  0.1405 -0.5191
  134OSM   C17S14560   2.482   5.535   5.129  0.3486  0.4556  0.3151
  134OSM   H17S14561   2.397   5.592   5.172 -1.1641 -0.7217 -0.9998
  134OSM   H17T14562   2.451   5.428   5.139  0.9852 -0.3333 -4.0046
  134OSM   C18S14563   2.484   5.563   4.977  0.5412 -0.7680  0.0653
  134OSM   H18S14564   2.525   5.665   4.966 -0.2722 -0.2096  1.7781
  134OSM   H18T14565   2.382   5.560   4.935  1.2289  2.5129 -2.2245
  134OSM   H18U14566   2.556   5.495   4.926  0.9798 -0.6288  0.4809
  134OSM    C1F14567   2.487   5.369   6.482  0.5190  0.2038 -0.9432
  134OSM     OF14568   2.369   5.378   6.504  0.2325 -0.2038  0.0051
  134OSM    C2F14569   2.551   5.250   6.429 -0.0174 -0.1340 -0.1546
  134OSM    H2F14570   2.598   5.183   6.504 -1.6102 -4.3288 -2.5241
  134OSM    H2G14571   2.629   5.292   6.362 -0.2534  3.2162  1.4536
  134OSM    C3F14572   2.442   5.159   6.362  0.0177  0.3473 -0.0161
  134OSM    H3F14573   2.362   5.138   6.437 -0.6694  0.8741 -0.5860
  134OSM    H3G14574   2.498   5.068   6.330 -0.6108 -0.0073 -0.1205
  134OSM    C4F14575   2.386   5.212   6.227 -0.8159  1.0376 -0.2313
  134OSM    H4F14576   2.468   5.272   6.183 -0.5723  1.3969  0.6941
  134OSM    H4G14577   2.300   5.282   6.241 -0.3084  1.7564 -0.6051
  134OSM    C5F14578   2.350   5.106   6.112  0.1706 -0.0508 -0.3086
  134OSM    H5F14579   2.258   5.047   6.133  0.6381 -0.1446  1.6476
  134OSM    H5G14580   2.430   5.030   6.103  2.5207  2.3919 -1.2897
  134OSM    C6F14581   2.338   5.188   5.984 -0.2610  0.4563  1.0630
  134OSM    H6F14582   2.439   5.222   5.950 -0.0734 -0.2795  0.8495
  134OSM    H6G14583   2.264   5.266   6.011 -2.2538 -1.2801  0.8883
  134OSM    C7F14584   2.262   5.120   5.864 -0.2877  0.0884 -0.0207
  134OSM    H7F14585   2.236   5.199   5.790 -0.0777  0.8050  0.6554
  134OSM    H7G14586   2.167   5.088   5.913 -1.3867  1.5614 -1.0781
  134OSM    C8F14587   2.342   5.007   5.788  0.3286 -0.1134  0.1221
  134OSM    H8F14588   2.354   4.921   5.858 -2.2555 -0.4342  0.3075
  134OSM    H8G14589   2.438   5.043   5.746 -0.8121  0.9487 -1.7425
  134OSM    C9F14590   2.253   4.941   5.677 -0.3691 -1.0669 -0.0660
  134OSM    H9F14591   2.201   4.850   5.710 -2.1443 -0.5494 -1.2993
  134OSM   C10F14592   2.246   4.975   5.548  0.2709 -0.0475 -0.0026
  134OSM   H10F14593   2.177   4.923   5.480  0.0619 -0.6208  0.6365
  134OSM   C11F14594   2.324   5.083   5.482 -0.3701  0.4237  0.4697
  134OSM   H11F14595   2.339   5.168   5.552  1.0333 -0.4474  1.2495
  134OSM   H11G14596   2.272   5.112   5.388 -0.0101 -2.0540 -0.5544
  134OSM   C12F14597   2.469   5.053   5.444 -0.9590  0.1780 -0.0629
  134OSM   H12F14598   2.527   5.018   5.533  0.2602  0.6097 -0.6667
  134OSM   H12G14599   2.518   5.149   5.416  0.3789 -0.0689  1.2589
  134OSM   C13F14600   2.498   4.946   5.341  0.5054 -0.3682  0.1371
  134OSM   H13F14601   2.492   4.844   5.383  0.1415 -0.1276  0.6808
  134OSM   H13G14602   2.600   4.971   5.305  0.5133  2.8363  2.0106
  134OSM   C14F14603   2.406   4.965   5.213 -0.2962  0.1077  0.5255
  134OSM   H14F14604   2.391   5.070   5.181  0.0005 -0.5651 -2.0589
  134OSM   H14G14605   2.309   4.917   5.240  0.6494 -0.6222  2.9037
  134OSM   C15F14606   2.468   4.891   5.089 -0.1567 -0.8034  0.1395
  134OSM   H15F14607   2.486   4.783   5.111 -0.3672 -0.6448  1.1296
  134OSM   H15G14608   2.569   4.936   5.077 -0.3224 -1.1706 -3.7943
  134OSM   C16F14609   2.394   4.904   4.961 -0.3905 -0.0162  0.1165
  134OSM   H16F14610   2.287   4.881   4.979  0.2745 -1.5801  2.7439
  134OSM   H16G14611   2.440   4.837   4.885  0.1171  0.9468 -0.4445
  134OSM   C17F14612   2.394   5.049   4.910 -0.8456 -0.3008  0.5256
  134OSM   H17F14613   2.498   5.087   4.908 -0.0173 -2.3233 -3.0524
  134OSM   H17G14614   2.337   5.103   4.989 -0.7669 -1.9634  1.7786
  134OSM   C18F14615   2.332   5.064   4.772  0.4526 -0.1371  0.1859
  134OSM   H18F14616   2.301   5.170   4.764  1.7151  0.4514  2.2804
  134OSM   H18G14617   2.246   4.994   4.763 -0.5074  0.6938  2.3362
  134OSM   H18H14618   2.402   5.041   4.688 -0.1023 -0.4404 -0.2017
  135OSM      N14619   2.229   3.060   6.839  0.0062 -0.4646  0.1825
  135OSM    C1514620   2.107   3.090   6.750  0.9101 -0.2705 -0.3347
  135OSM   H15A14621   2.085   3.191   6.782  1.1164 -0.0425 -0.9010
  135OSM   H15B14622   2.028   3.017   6.752 -1.6254  2.2897 -0.9439
  135OSM   H15C14623   2.152   3.101   6.653  0.0963 -0.4975 -0.7425
  135OSM    C1414624   2.180   3.053   6.981 -0.1739 -0.3359 -0.2335
  135OSM   H14A14625   2.131   3.146   7.003 -0.1637  0.4973 -3.2458
  135OSM   H14B14626   2.267   3.036   7.044  0.7385 -0.8527 -1.5883
  135OSM   H14C14627   2.113   2.971   7.005 -0.7268  0.5677  1.4956
  135OSM    C1314628   2.285   2.933   6.806  0.9904  0.4810 -0.4065
  135OSM   H13A14629   2.299   2.928   6.699 -2.6361 -0.0004 -0.9680
  135OSM   H13B14630   2.234   2.845   6.842  2.3567 -0.9187 -1.7210
  135OSM   H13C14631   2.377   2.910   6.859 -1.1690 -1.1915  3.0003
  135OSM    C1214632   2.339   3.165   6.828  0.7808  0.0292  0.0054
  135OSM   H12A14633   2.422   3.126   6.885 -0.1231 -0.6970  0.8437
  135OSM   H12B14634   2.304   3.251   6.884  2.2280  1.9950 -1.9510
  135OSM    C1114635   2.378   3.207   6.686  0.4887  1.0036 -0.2272
  135OSM   H11A14636   2.426   3.120   6.635  3.7610  2.8945 -0.6398
  135OSM   H11B14637   2.463   3.279   6.686  2.7651 -1.4574 -2.3534
  135OSM      P14638   2.212   3.391   6.630 -0.0872 -0.2511  0.4912
  135OSM    O1314639   2.139   3.434   6.508 -0.5438 -0.6136 -0.3220
  135OSM    O1414640   2.141   3.398   6.758 -0.2855 -0.5919 -0.0199
  135OSM    O1114641   2.325   3.499   6.649 -0.0988  0.7125  0.3732
  135OSM    O1214642   2.277   3.256   6.604  0.8453 -0.1178  0.6375
  135OSM    C1S14643   2.436   3.516   6.556 -0.2134  0.1233 -0.2375
  135OSM    H1S14644   2.445   3.428   6.488 -1.8004 -1.0964  1.0600
  135OSM    H1T14645   2.527   3.496   6.618 -0.3789 -2.5770 -0.7114
  135OSM     NF14646   2.550   3.674   6.404 -0.1811 -0.1743  0.4146
  135OSM    HNF14647   2.624   3.736   6.430  0.9723 -1.1088 -0.5039
  135OSM    C2S14648   2.437   3.661   6.491 -0.0880 -0.4171 -0.7658
  135OSM    H2S14649   2.341   3.675   6.436 -0.5595  1.9362  0.4938
  135OSM    C3S14650   2.427   3.779   6.596  1.0243  1.1656 -0.0188
  135OSM    H3S14651   2.516   3.772   6.662  1.5077 -1.4974 -0.8304
  135OSM     O314652   2.333   3.757   6.701  0.0680  0.2729 -0.1087
  135OSM    HO314653   2.314   3.663   6.693 -0.8017  0.5016 -1.1114
  135OSM    C4S14654   2.413   3.918   6.539  0.1524  1.0010  0.2765
  135OSM    H4S14655   2.509   3.971   6.548  1.4507 -0.9854 -1.2519
  135OSM    C5S14656   2.305   3.991   6.513  1.1624 -0.6463 -0.4602
  135OSM    H5S14657   2.203   3.949   6.513  1.0442 -0.3884  0.6107
  135OSM    C6S14658   2.313   4.134   6.483 -0.0577 -0.6084 -0.1015
  135OSM    H6S14659   2.321   4.188   6.580 -1.0815  1.8485 -1.2853
  135OSM    H6T14660   2.222   4.168   6.430  1.8903 -0.0308 -3.3468
  135OSM    C7S14661   2.434   4.154   6.381  0.3092 -0.4574  0.0728
  135OSM    H7S14662   2.396   4.107   6.288  0.3848  1.8209 -1.1670
  135OSM    H7T14663   2.532   4.111   6.412  0.1053 -1.0652 -0.0935
  135OSM    C8S14664   2.465   4.293   6.346  0.1329 -0.5482  0.6867
  135OSM    H8S14665   2.496   4.337   6.442  2.1753 -1.0672  0.3160
  135OSM    H8T14666   2.380   4.349   6.303  0.5198 -1.8143 -1.9443
  135OSM    C9S14667   2.593   4.316   6.252  0.9853 -0.1341 -0.1413
  135OSM    H9S14668   2.683   4.299   6.314  0.5272  0.6309  0.7760
  135OSM    H9T14669   2.592   4.420   6.213 -0.8472  0.2630  0.8504
  135OSM   C10S14670   2.596   4.223   6.126 -0.3627  0.4681 -0.0309
  135OSM   H10S14671   2.498   4.212   6.075 -0.5927  1.2377  0.2275
  135OSM   H10T14672   2.615   4.116   6.151 -1.9818  0.1976  0.1097
  135OSM   C11S14673   2.698   4.260   6.006 -0.2649 -0.1978 -0.0109
  135OSM   H11S14674   2.800   4.268   6.051 -1.3426  2.8904  2.2549
  135OSM   H11T14675   2.687   4.362   5.964 -0.2325  0.4440  1.4599
  135OSM   C12S14676   2.688   4.146   5.902  0.5952  0.5651 -0.5657
  135OSM   H12S14677   2.581   4.120   5.893  0.2267  0.8859  2.2106
  135OSM   H12T14678   2.743   4.058   5.941 -0.9070  0.3673  1.2303
  135OSM   C13S14679   2.746   4.207   5.777  0.6525 -0.2161 -0.5980
  135OSM   H13S14680   2.854   4.212   5.803  0.3006 -1.1663  1.1624
  135OSM   H13T14681   2.711   4.311   5.764  0.4992 -0.2634 -0.5667
  135OSM   C14S14682   2.729   4.131   5.645 -0.3773  0.7919  0.4588
  135OSM   H14S14683   2.773   4.030   5.659 -0.5680  0.3731 -1.5880
  135OSM   H14T14684   2.792   4.180   5.568 -2.0596  1.4360 -0.5718
  135OSM   C15S14685   2.588   4.110   5.605  0.6752  0.1024  0.4225
  135OSM   H15S14686   2.539   4.200   5.561  1.3530  0.8408  1.1487
  135OSM   H15T14687   2.523   4.087   5.693  0.2867 -1.7828 -0.3042
  135OSM   C16S14688   2.576   3.991   5.513  0.3010 -0.2451  0.2136
  135OSM   H16S14689   2.600   3.896   5.565 -3.8320 -2.6373 -1.7222
  135OSM   H16T14690   2.648   3.989   5.429  0.7645 -0.5204  0.6143
  135OSM   C17S14691   2.439   3.986   5.449  0.6828 -0.9802  0.5556
  135OSM   H17S14692   2.422   4.090   5.412  1.6312 -1.2336 -0.6769
  135OSM   H17T14693   2.357   3.971   5.522 -2.1758  1.1479 -1.9425
  135OSM   C18S14694   2.416   3.872   5.346  0.0191  0.2452  0.2260
  135OSM   H18S14695   2.373   3.786   5.402  0.3933  0.2163  0.4761
  135OSM   H18T14696   2.510   3.848   5.292 -0.1469 -1.6032  0.6876
  135OSM   H18U14697   2.341   3.910   5.274 -0.7872 -1.5032  0.0926
  135OSM    C1F14698   2.569   3.604   6.287  0.2271  0.0583  0.1657
  135OSM     OF14699   2.500   3.508   6.257 -0.1636 -0.1659 -0.2328
  135OSM    C2F14700   2.690   3.656   6.204 -0.0869  0.2106 -0.5147
  135OSM    H2F14701   2.778   3.599   6.242 -0.2915  0.0325 -0.3041
  135OSM    H2G14702   2.703   3.763   6.228 -0.9203  0.1741  0.1731
  135OSM    C3F14703   2.674   3.631   6.056 -0.2357  0.5205 -0.2284
  135OSM    H3F14704   2.575   3.670   6.026 -0.0924  1.5857  0.6414
  135OSM    H3G14705   2.685   3.521   6.042  0.3776  0.3984  1.0282
  135OSM    C4F14706   2.781   3.706   5.976 -0.4432 -0.5992  0.3236
  135OSM    H4F14707   2.754   3.814   5.980  0.8533 -0.1982 -0.8913
  135OSM    H4G14708   2.882   3.686   6.020 -0.4180  1.4011  1.3121
  135OSM    C5F14709   2.780   3.669   5.830  0.1311 -0.0817  0.0601
  135OSM    H5F14710   2.689   3.705   5.778  0.6427  2.0476  0.5286
  135OSM    H5G14711   2.773   3.558   5.829 -0.3192 -0.0793  1.3132
  135OSM    C6F14712   2.897   3.717   5.744 -0.4308  0.7276 -0.5349
  135OSM    H6F14713   2.992   3.710   5.801 -0.6390  3.1711  0.2469
  135OSM    H6G14714   2.882   3.826   5.728  1.4109  1.0822 -0.0493
  135OSM    C7F14715   2.889   3.640   5.606 -0.4684  0.5269  0.0200
  135OSM    H7F14716   2.786   3.613   5.574 -0.0542 -1.3842  0.1445
  135OSM    H7G14717   2.946   3.545   5.619 -1.1905  0.1062  0.1594
  135OSM    C8F14718   2.964   3.734   5.503  0.0934  0.3721  0.3343
  135OSM    H8F14719   3.010   3.660   5.435  2.5665  1.0046  1.2313
  135OSM    H8G14720   3.055   3.771   5.553  1.8816 -1.2472 -1.5460
  135OSM    C9F14721   2.882   3.844   5.441  0.4799 -0.7069  0.3427
  135OSM    H9F14722   2.876   3.944   5.487 -0.7106 -0.3569 -0.5400
  135OSM   C10F14723   2.835   3.826   5.314 -0.1273  0.5838 -0.2619
  135OSM   H10F14724   2.797   3.914   5.260 -2.0325 -0.1376 -0.1716
  135OSM   C11F14725   2.824   3.686   5.247 -0.0949  0.6633  0.1382
  135OSM   H11F14726   2.717   3.674   5.219  0.2342 -0.4422 -0.7401
  135OSM   H11G14727   2.851   3.608   5.321  1.8610  0.2011 -0.9891
  135OSM   C12F14728   2.903   3.660   5.112  0.0603 -0.4209  0.3670
  135OSM   H12F14729   3.008   3.638   5.141  0.4823 -0.5918 -1.2170
  135OSM   H12G14730   2.911   3.752   5.051 -2.7894 -1.4078 -1.6762
  135OSM   C13F14731   2.848   3.544   5.023 -0.1449  0.2431  0.0165
  135OSM   H13F14732   2.755   3.582   4.975 -1.0793 -0.7493  0.9884
  135OSM   H13G14733   2.802   3.464   5.084 -3.6832  1.7501 -0.4050
  135OSM   C14F14734   2.944   3.495   4.915 -0.1586 -0.4851 -0.0977
  135OSM   H14F14735   3.032   3.459   4.973  1.1555  1.4581 -0.7771
  135OSM   H14G14736   2.987   3.578   4.854 -1.0436 -1.7426 -2.5889
  135OSM   C15F14737   2.902   3.384   4.810  0.0213 -0.1278  1.0305
  135OSM   H15F14738   2.867   3.294   4.865 -1.9640 -0.7722 -1.1323
  135OSM   H15G14739   2.993   3.355   4.752 -0.5357  1.9830 -1.0713
  135OSM   C16F14740   2.794   3.426   4.713 -0.2178 -0.4892 -0.6094
  135OSM   H16F14741   2.827   3.506   4.643  0.3246 -1.6330 -1.7007
  135OSM   H16G14742   2.707   3.470   4.767  1.1535  1.7942 -0.1157
  135OSM   C17F14743   2.746   3.303   4.638  1.0136  0.8783 -0.3943
  135OSM   H17F14744   2.828   3.254   4.582  0.8078  0.9563 -0.7688
  135OSM   H17G14745   2.669   3.337   4.565 -0.1001  1.6689  1.0849
  135OSM   C18F14746   2.670   3.188   4.718 -0.2192  0.5422  0.3758
  135OSM   H18F14747   2.734   3.128   4.786 -1.3955 -1.0703  0.1340
  135OSM   H18G14748   2.619   3.114   4.653 -1.3394 -0.3895  2.2340
  135OSM   H18H14749   2.591   3.240   4.776 -0.1550  0.1852  0.7882
  136OSM      N14750   5.458   1.284   7.104 -0.1493 -0.1200 -0.0609
  136OSM    C1514751   5.516   1.155   7.168 -0.1442  0.3785  0.1298
  136OSM   H15A14752   5.469   1.069   7.124  0.9150 -0.2747  0.2555
  136OSM   H15B14753   5.504   1.149   7.275  0.3965 -0.4745  0.1439
  136OSM   H15C14754   5.622   1.148   7.152  0.0464 -2.3266  1.9723
  136OSM    C1414755   5.309   1.270   7.118  0.0996 -0.4021 -0.2991
  136OSM   H14A14756   5.272   1.171   7.098 -3.6398  0.1814  2.5609
  136OSM   H14B14757   5.250   1.332   7.052 -1.0454 -1.4224 -0.2721
  136OSM   H14C14758   5.284   1.293   7.220 -0.6580 -2.3936  0.0137
  136OSM    C1314759   5.504   1.406   7.182  0.6006  0.2605 -0.1088
  136OSM   H13A14760   5.459   1.401   7.280 -0.4405 -0.2646 -0.5934
  136OSM   H13B14761   5.485   1.498   7.129 -0.2641  0.4658  0.5329
  136OSM   H13C14762   5.612   1.403   7.188  0.7295 -1.7938 -2.0585
  136OSM    C1214763   5.493   1.290   6.955 -0.5214 -0.5659  0.6592
  136OSM   H12A14764   5.441   1.378   6.920  0.1967 -0.3324  0.1479
  136OSM   H12B14765   5.442   1.209   6.905  1.0094 -1.7518  0.9325
  136OSM    C1114766   5.645   1.302   6.909  0.2550  0.6213 -0.4817
  136OSM   H11A14767   5.686   1.384   6.972 -0.2489  0.4359  0.0943
  136OSM   H11B14768   5.645   1.329   6.801 -0.5990  0.9137 -0.4135
  136OSM      P14769   5.674   1.045   6.855 -0.0185 -0.1715  0.0521
  136OSM    O1314770   5.752   0.940   6.925 -0.2027  0.5536  0.9116
  136OSM    O1414771   5.529   1.031   6.848  0.1721 -0.0278  0.0458
  136OSM    O1114772   5.730   1.091   6.711 -0.1068  0.2387  0.1474
  136OSM    O1214773   5.709   1.174   6.937 -0.2342  0.4653  0.1500
  136OSM    C1S14774   5.858   1.149   6.697  0.4052 -0.1111 -0.1159
  136OSM    H1S14775   5.934   1.071   6.718  2.9497  1.4984 -2.5306
  136OSM    H1T14776   5.877   1.237   6.764  2.6835 -1.1562  0.7215
  136OSM     NF14777   6.020   1.226   6.530  0.1710  0.3246  0.7020
  136OSM    HNF14778   6.024   1.325   6.523 -1.9232  0.3743 -0.9397
  136OSM    C2S14779   5.882   1.174   6.552  0.3024 -0.9171 -0.4839
  136OSM    H2S14780   5.879   1.075   6.501 -1.2203 -1.9519  1.4444
  136OSM    C3S14781   5.763   1.265   6.490 -0.2335 -0.5443 -0.1774
  136OSM    H3S14782   5.776   1.367   6.532  0.1553 -0.0752 -1.4046
  136OSM     O314783   5.626   1.225   6.526  0.0065  0.0578  0.8094
  136OSM    HO314784   5.637   1.164   6.599 -0.5821 -0.2941  0.6124
  136OSM    C4S14785   5.781   1.286   6.347  1.0185  0.3917  1.2793
  136OSM    H4S14786   5.783   1.196   6.284 -1.0052  1.7433 -0.8769
  136OSM    C5S14787   5.796   1.399   6.274  0.6222  0.5656  0.2547
  136OSM    H5S14788   5.785   1.500   6.317 -3.2779  1.0152 -1.3510
  136OSM    C6S14789   5.809   1.400   6.123 -0.0899  0.0795  0.0577
  136OSM    H6S14790   5.872   1.316   6.087  1.3647  1.4197 -0.6670
  136OSM    H6T14791   5.867   1.489   6.090 -1.7137  0.4104 -2.1423
  136OSM    C7S14792   5.672   1.406   6.050  0.0345 -0.2529  0.4124
  136OSM    H7S14793   5.620   1.500   6.077  1.7307  2.2007 -3.9038
  136OSM    H7T14794   5.614   1.319   6.088  2.5677 -3.2679 -2.0421
  136OSM    C8S14795   5.694   1.396   5.899  0.3788 -0.3104  0.4215
  136OSM    H8S14796   5.749   1.303   5.873 -1.1355 -0.5445 -2.2935
  136OSM    H8T14797   5.742   1.488   5.859  1.3474 -0.6409  0.7810
  136OSM    C9S14798   5.555   1.384   5.831  0.1217  0.6093  0.0427
  136OSM    H9S14799   5.496   1.467   5.876  0.0414  0.4524  0.2341
  136OSM    H9T14800   5.502   1.291   5.862 -1.2705  0.3150 -2.9087
  136OSM   C10S14801   5.565   1.405   5.676 -0.6186 -0.4668 -0.8294
  136OSM   H10S14802   5.632   1.487   5.642  1.9727 -2.5148 -1.0102
  136OSM   H10T14803   5.459   1.416   5.643 -1.2718 -2.2447  0.5177
  136OSM   C11S14804   5.622   1.283   5.598  0.1645  0.3415 -0.6271
  136OSM   H11S14805   5.567   1.190   5.627 -0.7080  1.1974  0.5868
  136OSM   H11T14806   5.727   1.260   5.627 -0.1461 -0.9206 -0.4148
  136OSM   C12S14807   5.612   1.297   5.444  0.4718 -0.0423  0.8665
  136OSM   H12S14808   5.680   1.381   5.416  0.9301 -0.1459  1.6587
  136OSM   H12T14809   5.512   1.341   5.421  0.4109 -0.9324 -0.7254
  136OSM   C13S14810   5.620   1.173   5.356  0.0691  0.7044  0.8229
  136OSM   H13S14811   5.543   1.104   5.397 -0.2125 -0.8389 -2.0647
  136OSM   H13T14812   5.718   1.120   5.365  0.3759  0.8860 -1.0980
  136OSM   C14S14813   5.581   1.213   5.207 -0.3530  0.4262 -0.6915
  136OSM   H14S14814   5.641   1.300   5.173  1.0592 -1.4415 -3.3554
  136OSM   H14T14815   5.476   1.247   5.218 -0.1940  0.9871 -0.8403
  136OSM   C15S14816   5.602   1.096   5.113 -0.1633 -0.1846  0.4123
  136OSM   H15S14817   5.519   1.023   5.129 -1.9071  2.0201  2.0887
  136OSM   H15T14818   5.695   1.038   5.127  0.5414  1.1529  1.5563
  136OSM   C16S14819   5.580   1.140   4.970  0.1238  0.3167  0.0077
  136OSM   H16S14820   5.661   1.212   4.943 -0.8010  0.6714 -2.0429
  136OSM   H16T14821   5.487   1.200   4.964  0.4837  1.2192  2.3803
  136OSM   C17S14822   5.580   1.036   4.861  0.8935 -0.1613  0.0985
  136OSM   H17S14823   5.648   0.952   4.887 -0.1510 -0.7278  1.1153
  136OSM   H17T14824   5.615   1.061   4.759  1.9608 -0.8515  0.2741
  136OSM   C18S14825   5.437   0.982   4.839  0.4893  0.7044 -0.4845
  136OSM   H18S14826   5.362   1.046   4.789  0.7338  0.6921 -0.8758
  136OSM   H18T14827   5.402   0.953   4.940 -0.4703 -1.7390 -1.4383
  136OSM   H18U14828   5.435   0.894   4.771  1.6034  0.7480 -0.5973
  136OSM    C1F14829   6.130   1.148   6.562  1.0374  0.8792  0.4560
  136OSM     OF14830   6.115   1.029   6.589 -0.3429  0.2790  0.3743
  136OSM    C2F14831   6.253   1.221   6.579  0.2241  0.4914  0.4865
  136OSM    H2F14832   6.323   1.164   6.644  1.6232  0.7435 -0.7345
  136OSM    H2G14833   6.228   1.314   6.634 -1.0264  1.5571 -1.7688
  136OSM    C3F14834   6.323   1.246   6.445  0.3449  0.0182 -0.2855
  136OSM    H3F14835   6.406   1.317   6.465 -0.3550  0.9884 -0.7055
  136OSM    H3G14836   6.261   1.290   6.365 -1.1243 -1.7650 -0.1990
  136OSM    C4F14837   6.395   1.126   6.377  0.5262 -0.1972  0.0247
  136OSM    H4F14838   6.317   1.047   6.370  0.4393 -0.0968 -0.1337
  136OSM    H4G14839   6.475   1.081   6.440 -0.9495 -3.7677 -0.4050
  136OSM    C5F14840   6.445   1.141   6.230  0.5875  0.1523 -0.5602
  136OSM    H5F14841   6.357   1.177   6.173  1.1745 -0.8659 -2.1866
  136OSM    H5G14842   6.479   1.044   6.187  0.4995  0.9054 -2.4437
  136OSM    C6F14843   6.557   1.238   6.231  0.4333  0.0631 -0.3996
  136OSM    H6F14844   6.635   1.203   6.302  0.4476 -1.2264 -1.0141
  136OSM    H6G14845   6.513   1.333   6.268 -1.4329 -0.3784 -1.3189
  136OSM    C7F14846   6.607   1.274   6.091  0.2629 -0.3058 -0.7338
  136OSM    H7F14847   6.516   1.275   6.028 -1.1417 -2.6615  1.1046
  136OSM    H7G14848   6.673   1.194   6.051  2.8116  0.8303  0.9318
  136OSM    C8F14849   6.692   1.400   6.068  0.2929 -0.6339 -0.5839
  136OSM    H8F14850   6.747   1.404   5.972  0.8053 -0.3059 -0.2789
  136OSM    H8G14851   6.764   1.385   6.151 -0.6190 -2.0992  0.0093
  136OSM    C9F14852   6.617   1.532   6.105  1.2686 -0.2474  0.1306
  136OSM    H9F14853   6.615   1.550   6.213 -1.8009  0.8245 -0.0178
  136OSM   C10F14854   6.557   1.605   6.013 -0.5591 -0.2487  1.2916
  136OSM   H10F14855   6.518   1.705   6.036 -0.0228 -0.4306  3.0995
  136OSM   C11F14856   6.557   1.565   5.865 -0.3375 -0.4565  0.1125
  136OSM   H11F14857   6.456   1.571   5.820  0.4794  1.7282 -1.6595
  136OSM   H11G14858   6.592   1.461   5.847  0.6760 -0.2592  0.8198
  136OSM   C12F14859   6.658   1.661   5.798  0.8361 -0.9794  0.0182
  136OSM   H12F14860   6.762   1.635   5.826  0.9286 -0.8738 -0.2186
  136OSM   H12G14861   6.650   1.764   5.838 -0.3229 -1.2004  0.3809
  136OSM   C13F14862   6.653   1.653   5.640  0.8630  1.2073  0.2396
  136OSM   H13F14863   6.544   1.644   5.624  1.2648 -1.5181 -1.6487
  136OSM   H13G14864   6.693   1.550   5.623  0.6141  1.0916  0.3513
  136OSM   C14F14865   6.730   1.759   5.565 -0.1060  0.1647  0.0773
  136OSM   H14F14866   6.831   1.760   5.612  0.0911 -1.2933 -0.2559
  136OSM   H14G14867   6.689   1.861   5.579 -0.0215 -0.0774  2.5269
  136OSM   C15F14868   6.753   1.717   5.420  0.7785 -0.0494 -0.2209
  136OSM   H15F14869   6.649   1.698   5.385  1.2556 -1.9872 -0.6830
  136OSM   H15G14870   6.813   1.625   5.405 -1.0211 -1.3701  0.2279
  136OSM   C16F14871   6.830   1.827   5.349  0.7769 -0.0880  0.1251
  136OSM   H16F14872   6.799   1.930   5.375  2.3149  0.9753 -1.9051
  136OSM   H16G14873   6.828   1.805   5.240 -0.8178 -2.7635  0.6106
  136OSM   C17F14874   6.979   1.814   5.380  0.1008 -0.0517 -0.4068
  136OSM   H17F14875   7.008   1.710   5.356  0.0759  0.1773 -1.4944
  136OSM   H17G14876   6.992   1.839   5.487  0.6984  0.2779 -0.5538
  136OSM   C18F14877   7.067   1.903   5.287 -1.0491 -0.5622 -0.2482
  136OSM   H18F14878   7.172   1.887   5.320 -0.4113 -1.7707 -2.6640
  136OSM   H18G14879   7.038   2.009   5.301 -0.8578 -0.6779  1.2877
  136OSM   H18H14880   7.051   1.879   5.180 -1.2013  1.3392 -0.6820
  137OSM      N14881   0.576   4.663   7.062 -0.7980 -0.1810  0.2799
  137OSM    C1514882   0.657   4.531   7.059 -0.6452 -0.1647 -0.4225
  137OSM   H15A14883   0.695   4.512   7.159 -0.9179 -0.3753 -0.3590
  137OSM   H15B14884   0.742   4.535   6.994 -2.2408  2.4215 -2.5550
  137OSM   H15C14885   0.595   4.450   7.025  0.6577 -0.5361 -1.9718
  137OSM    C1414886   0.476   4.646   7.171 -0.0388  0.2815 -0.1242
  137OSM   H14A14887   0.456   4.743   7.214  2.4676  1.8930 -2.2352
  137OSM   H14B14888   0.526   4.581   7.241  2.1320  3.3246  1.3429
  137OSM   H14C14889   0.380   4.612   7.134 -1.2683  2.0411  1.2729
  137OSM    C1314890   0.678   4.771   7.081  0.3004 -0.7981 -0.6300
  137OSM   H13A14891   0.756   4.767   7.006  2.2461  2.8612  0.9644
  137OSM   H13B14892   0.720   4.765   7.181 -1.8673  2.4445  0.6375
  137OSM   H13C14893   0.628   4.866   7.079  0.2939 -0.6314  2.2287
  137OSM    C1214894   0.514   4.668   6.925  0.4050  0.4097  0.1621
  137OSM   H12A14895   0.460   4.576   6.909  1.3519 -0.4444  1.6141
  137OSM   H12B14896   0.592   4.678   6.851  1.1829  1.2305  1.0540
  137OSM    C1114897   0.413   4.787   6.905  0.0878 -0.0928  0.2549
  137OSM   H11A14898   0.336   4.771   6.983  2.1134 -1.7324  2.0392
  137OSM   H11B14899   0.359   4.779   6.808 -0.2629  0.3126  0.4137
  137OSM      P14900   0.529   4.991   6.806 -0.3833  0.2688 -0.0205
  137OSM    O1314901   0.414   5.049   6.732 -0.2885  0.1925  0.0570
  137OSM    O1414902   0.643   5.077   6.846  0.8253 -0.0306  0.1834
  137OSM    O1114903   0.597   4.882   6.709  0.0255 -0.4847 -0.0601
  137OSM    O1214904   0.464   4.914   6.928  0.4626  0.1377  0.7788
  137OSM    C1S14905   0.605   4.927   6.571  0.6426 -0.0414  0.1710
  137OSM    H1S14906   0.642   5.031   6.562  0.1699  0.0783 -0.4579
  137OSM    H1T14907   0.509   4.936   6.516 -1.5423  0.8784  3.7612
  137OSM     NF14908   0.721   4.908   6.358 -0.3260 -0.2474  0.6597
  137OSM    HNF14909   0.675   4.874   6.276  0.6853  0.1995 -0.1111
  137OSM    C2S14910   0.703   4.845   6.486 -0.5024 -0.0647  0.1682
  137OSM    H2S14911   0.797   4.856   6.545 -0.4117  1.2741 -0.1937
  137OSM    C3S14912   0.657   4.699   6.487  0.4871  0.9935 -0.1088
  137OSM    H3S14913   0.551   4.692   6.455  0.7289  0.3767 -0.7903
  137OSM     O314914   0.658   4.640   6.624  0.1188 -0.2341  0.5117
  137OSM    HO314915   0.704   4.702   6.680  0.6596 -0.8261  0.7387
  137OSM    C4S14916   0.752   4.612   6.402 -0.0227 -0.5989 -0.3383
  137OSM    H4S14917   0.857   4.637   6.426 -0.0731  2.5799 -2.7930
  137OSM    C5S14918   0.724   4.526   6.301  0.3456 -0.4819  0.2066
  137OSM    H5S14919   0.622   4.513   6.262 -0.1773  1.4633  0.8257
  137OSM    C6S14920   0.820   4.442   6.229 -0.4097  0.5998  1.4560
  137OSM    H6S14921   0.800   4.332   6.226  1.3182  0.2513 -1.2096
  137OSM    H6T14922   0.919   4.464   6.273  0.5734  2.9501 -1.5623
  137OSM    C7S14923   0.815   4.477   6.080  0.2642 -0.3259 -0.3598
  137OSM    H7S14924   0.710   4.455   6.052  0.2818 -0.0221 -0.6637
  137OSM    H7T14925   0.865   4.398   6.020 -0.5577 -1.8185  0.8500
  137OSM    C8S14926   0.828   4.631   6.041  0.3039  0.1613  0.5707
  137OSM    H8S14927   0.934   4.664   6.045 -0.6568  3.4570  1.2986
  137OSM    H8T14928   0.771   4.691   6.114 -1.0218  1.6171 -1.5413
  137OSM    C9S14929   0.772   4.673   5.902  0.3171  0.3118  0.1261
  137OSM    H9S14930   0.774   4.784   5.898  1.1089  0.2823 -0.7233
  137OSM    H9T14931   0.668   4.634   5.898  1.1148 -1.9172 -0.3814
  137OSM   C10S14932   0.859   4.623   5.787 -0.1824  0.3119  0.1576
  137OSM   H10S14933   0.844   4.515   5.769  3.2067  0.0421 -1.8321
  137OSM   H10T14934   0.967   4.635   5.811 -0.8928  0.1401  4.2121
  137OSM   C11S14935   0.819   4.694   5.656  0.2014  0.1656  0.1059
  137OSM   H11S14936   0.803   4.801   5.683 -0.1243  0.5123 -1.3656
  137OSM   H11T14937   0.736   4.643   5.603 -0.1007  0.0714  0.6648
  137OSM   C12S14938   0.939   4.690   5.549  0.1372 -0.3743  0.5369
  137OSM   H12S14939   0.959   4.599   5.489  0.9403  0.8071 -1.0684
  137OSM   H12T14940   1.030   4.725   5.603  2.2945 -1.8620 -1.9077
  137OSM   C13S14941   0.914   4.793   5.442 -0.3552  0.1833 -0.4413
  137OSM   H13S14942   1.004   4.818   5.383  0.5077 -0.4316  0.5934
  137OSM   H13T14943   0.891   4.892   5.486 -0.4823  1.1471 -2.5440
  137OSM   C14S14944   0.807   4.738   5.349 -0.5468 -0.3737  0.0989
  137OSM   H14S14945   0.713   4.724   5.406  0.0723 -1.2355  0.9505
  137OSM   H14T14946   0.840   4.644   5.299 -2.4183  0.1721 -2.3393
  137OSM   C15S14947   0.780   4.836   5.232 -0.0269  0.0030 -0.0491
  137OSM   H15S14948   0.876   4.836   5.175 -0.8417 -0.7361 -1.4877
  137OSM   H15T14949   0.763   4.940   5.266  2.1509 -0.0063  1.2628
  137OSM   C16S14950   0.671   4.773   5.150 -0.1406  0.7414 -0.3906
  137OSM   H16S14951   0.571   4.774   5.199  0.3178 -3.0058  0.9236
  137OSM   H16T14952   0.700   4.666   5.137  2.2866  1.0905  1.4311
  137OSM   C17S14953   0.664   4.838   5.011  0.7897 -0.3300 -0.2910
  137OSM   H17S14954   0.767   4.863   4.977  1.3332 -1.0685  0.7736
  137OSM   H17T14955   0.616   4.936   5.034 -0.6531 -1.1172  0.1545
  137OSM   C18S14956   0.571   4.765   4.907 -0.6525 -0.0780 -0.7536
  137OSM   H18S14957   0.610   4.665   4.877  1.3003  1.2685 -3.1127
  137OSM   H18T14958   0.577   4.824   4.813  0.4655  0.5693 -0.2939
  137OSM   H18U14959   0.466   4.747   4.937  0.5681 -2.9445  2.3810
  137OSM    C1F14960   0.775   5.027   6.330  0.5102 -0.8872  0.3001
  137OSM     OF14961   0.812   5.104   6.418 -0.3277  0.3928  0.3576
  137OSM    C2F14962   0.780   5.058   6.184 -0.6790  0.0711  0.4671
  137OSM    H2F14963   0.697   5.002   6.137  0.3430 -2.7387  1.8194
  137OSM    H2G14964   0.879   5.021   6.150 -1.3550  0.9845 -2.8615
  137OSM    C3F14965   0.770   5.209   6.158  0.0606 -0.0092 -1.3694
  137OSM    H3F14966   0.828   5.269   6.232 -0.4591 -1.3049  0.1612
  137OSM    H3G14967   0.670   5.248   6.188  1.8755  3.2287  1.2026
  137OSM    C4F14968   0.819   5.252   6.023 -0.6443  0.1909 -0.0524
  137OSM    H4F14969   0.788   5.358   6.012 -1.1939  0.1288  0.7662
  137OSM    H4G14970   0.757   5.196   5.951  0.2150  0.2446 -0.8529
  137OSM    C5F14971   0.969   5.234   5.999 -0.2720  0.1693 -0.3488
  137OSM    H5F14972   0.991   5.125   5.998  0.6037  0.3261  0.3553
  137OSM    H5G14973   1.026   5.267   6.088  0.2828 -0.2306 -0.5518
  137OSM    C6F14974   1.016   5.298   5.863 -0.4594 -0.3436 -0.8796
  137OSM    H6F14975   1.127   5.292   5.870 -0.4601  1.0773  0.7941
  137OSM    H6G14976   0.988   5.405   5.870 -0.2459 -0.2470 -1.4559
  137OSM    C7F14977   0.981   5.224   5.732  0.2768  0.7341 -0.1446
  137OSM    H7F14978   0.872   5.225   5.710  0.7674  1.4841 -2.9713
  137OSM    H7G14979   1.008   5.116   5.728 -2.5248 -0.0520 -0.2396
  137OSM    C8F14980   1.043   5.278   5.604  0.3882  0.0941 -0.1814
  137OSM    H8F14981   1.057   5.387   5.618  0.5961  0.1706 -0.9361
  137OSM    H8G14982   0.963   5.265   5.528  0.8603  0.0753 -0.6798
  137OSM    C9F14983   1.184   5.231   5.566  0.1330 -0.1590 -0.2701
  137OSM    H9F14984   1.266   5.256   5.635 -1.2435  2.1898  0.6604
  137OSM   C10F14985   1.203   5.156   5.459  0.2638  0.2345  0.0360
  137OSM   H10F14986   1.306   5.121   5.444  0.1226 -0.1969  0.0682
  137OSM   C11F14987   1.109   5.109   5.352 -0.5878  0.2699 -0.5171
  137OSM   H11F14988   1.019   5.063   5.396 -1.0083  0.3232 -1.3156
  137OSM   H11G14989   1.148   5.029   5.285 -2.9254  0.2841 -1.9867
  137OSM   C12F14990   1.066   5.226   5.264 -0.2631  0.0107 -0.1059
  137OSM   H12F14991   1.147   5.263   5.197 -1.4138 -1.1436 -2.2127
  137OSM   H12G14992   1.034   5.308   5.332  1.2292  1.0084 -0.5446
  137OSM   C13F14993   0.957   5.190   5.163 -0.6578 -0.3059  0.5899
  137OSM   H13F14994   0.862   5.180   5.219 -1.5912 -2.4263 -1.2205
  137OSM   H13G14995   0.985   5.102   5.103 -0.0463  1.3085 -1.6210
  137OSM   C14F14996   0.936   5.307   5.059 -0.0902  0.1157 -0.5291
  137OSM   H14F14997   1.037   5.333   5.020  2.2182 -1.2841  3.8634
  137OSM   H14G14998   0.902   5.393   5.120 -2.0735 -0.2721 -1.0280
  137OSM   C15F14999   0.842   5.275   4.946  0.7743  0.2058  0.1533
  137OSM   H15F15000   0.743   5.235   4.977  0.2880 -0.3866 -1.9789
  137OSM   H15G15001   0.890   5.190   4.892  0.9490 -0.1590  0.8723
  137OSM   C16F15002   0.823   5.394   4.851 -0.3013 -0.0583 -0.4653
  137OSM   H16F15003   0.915   5.394   4.788 -0.5673  1.3196 -0.8808
  137OSM   H16G15004   0.802   5.490   4.903 -0.0021 -1.3491  2.1617
  137OSM   C17F15005   0.712   5.370   4.754  0.0030 -0.4349  0.5260
  137OSM   H17F15006   0.625   5.339   4.815 -2.0598 -2.2478 -3.0531
  137OSM   H17G15007   0.733   5.281   4.690  0.7369  0.5308 -0.6220
  137OSM   C18F15008   0.686   5.492   4.666 -0.4981 -0.0850 -0.7022
  137OSM   H18F15009   0.611   5.475   4.586 -1.1916 -1.1639  0.1517
  137OSM   H18G15010   0.779   5.530   4.618 -0.2973  1.7669  1.0283
  137OSM   H18H15011   0.655   5.583   4.722  0.8053 -0.2307  0.3148
  138OSM      N15012   4.271   2.503   6.814 -0.0751 -0.3390  1.1274
  138OSM    C1515013   4.301   2.635   6.886  0.0944  0.1842 -0.2445
  138OSM   H15A15014   4.395   2.608   6.934  0.5695  0.6938 -0.8680
  138OSM   H15B15015   4.223   2.666   6.953  0.1971 -0.8705  0.3893
  138OSM   H15C15016   4.347   2.706   6.819 -1.2260  1.2316 -0.0555
  138OSM    C1415017   4.377   2.481   6.708  0.3097  0.3407  0.4488
  138OSM   H14A15018   4.477   2.451   6.739  0.4008 -0.0650 -0.2092
  138OSM   H14B15019   4.392   2.571   6.650 -2.2040  1.0988  0.8501
  138OSM   H14C15020   4.345   2.399   6.645 -1.8473  0.7828  0.8902
  138OSM    C1315021   4.264   2.386   6.905 -0.1201  0.0094 -0.3645
  138OSM   H13A15022   4.200   2.414   6.987 -0.3131  1.6185 -1.0104
  138OSM   H13B15023   4.359   2.342   6.933  0.6651  0.8910 -1.5010
  138OSM   H13C15024   4.202   2.310   6.860 -0.2819 -0.1177  0.0720
  138OSM    C1215025   4.131   2.516   6.751 -0.0270  0.4492  0.2513
  138OSM   H12A15026   4.135   2.599   6.682  0.5207  0.1328 -0.1033
  138OSM   H12B15027   4.051   2.544   6.818 -0.5122 -0.3096  0.0017
  138OSM    C1115028   4.069   2.393   6.668  0.2993 -0.1940  0.4506
  138OSM   H11A15029   4.142   2.373   6.587 -1.0034  2.1004 -1.4019
  138OSM   H11B15030   3.974   2.418   6.617 -0.1936  0.3836  1.6197
  138OSM      P15031   4.050   2.133   6.714  0.1317 -0.1432  0.1126
  138OSM    O1315032   4.188   2.095   6.740 -0.1889  0.3690  0.3217
  138OSM    O1415033   3.947   2.058   6.786  0.8731  0.3454  0.0778
  138OSM    O1115034   4.021   2.141   6.554 -0.2943 -0.3003  0.3709
  138OSM    O1215035   4.037   2.288   6.751 -0.7090  0.1434  0.3517
  138OSM    C1S15036   3.890   2.128   6.501 -0.9855  0.0702 -0.5033
  138OSM    H1S15037   3.828   2.213   6.535 -0.8907  0.8402 -2.1942
  138OSM    H1T15038   3.842   2.028   6.514  2.0002 -1.5693 -1.1242
  138OSM     NF15039   3.755   2.119   6.289 -0.4853 -0.3773  0.1728
  138OSM    HNF15040   3.739   2.038   6.233 -1.7952  0.4913 -0.7894
  138OSM    C2S15041   3.890   2.131   6.348 -0.5552 -0.0247  0.8084
  138OSM    H2S15042   3.928   2.235   6.330 -2.0193  0.4253  0.1745
  138OSM    C3S15043   4.004   2.032   6.291 -0.5480  0.0957  0.4352
  138OSM    H3S15044   3.963   1.931   6.310  0.1466  0.0963  2.0964
  138OSM     O315045   4.127   2.023   6.356 -0.7997  0.5855 -0.4530
  138OSM    HO315046   4.110   2.077   6.433 -1.0727  0.8576 -0.6984
  138OSM    C4S15047   4.012   2.055   6.139  0.1866  0.3382 -0.4045
  138OSM    H4S15048   3.946   1.990   6.079 -1.1477  0.6639  0.6825
  138OSM    C5S15049   4.104   2.129   6.078 -0.2222 -0.0390  0.5020
  138OSM    H5S15050   4.177   2.173   6.148 -1.0120  0.2797  1.1429
  138OSM    C6S15051   4.124   2.141   5.930 -1.1351 -0.2443 -0.1188
  138OSM    H6S15052   4.229   2.111   5.914 -1.1591 -1.4833  1.8237
  138OSM    H6T15053   4.121   2.250   5.904  4.1921  0.2202  0.1412
  138OSM    C7S15054   4.033   2.059   5.837 -0.7260  0.6093  0.3091
  138OSM    H7S15055   3.926   2.072   5.864 -0.6336 -1.6850  2.0854
  138OSM    H7T15056   4.062   1.953   5.847  2.4958  1.3398 -0.2341
  138OSM    C8S15057   4.058   2.098   5.687  0.3530  0.1848 -0.2254
  138OSM    H8S15058   4.161   2.133   5.665 -0.6764  1.7864 -2.9731
  138OSM    H8T15059   3.987   2.180   5.664 -0.6838 -0.8023 -0.6222
  138OSM    C9S15060   4.029   1.990   5.591 -0.1578  0.3513 -0.7903
  138OSM    H9S15061   3.936   1.938   5.623 -0.0156  0.9250  0.5769
  138OSM    H9T15062   4.108   1.911   5.596 -0.8260 -0.2389  1.2664
  138OSM   C10S15063   4.013   2.045   5.447 -0.0066 -0.0107  0.3289
  138OSM   H10S15064   4.108   2.098   5.426  0.1203 -0.1557  0.5299
  138OSM   H10T15065   3.930   2.118   5.434  0.2496  0.2091 -0.0775
  138OSM   C11S15066   3.999   1.940   5.342  0.5860  0.5083 -0.5268
  138OSM   H11S15067   3.911   1.875   5.359 -1.0090  2.4980 -0.8502
  138OSM   H11T15068   4.090   1.877   5.338 -0.4817 -1.2290  0.8884
  138OSM   C12S15069   3.980   2.012   5.204  0.4014  0.6094  0.1942
  138OSM   H12S15070   4.053   2.094   5.213 -1.7432  2.6873 -0.3573
  138OSM   H12T15071   3.883   2.067   5.209  0.8557  1.3448  2.4718
  138OSM   C13S15072   4.016   1.934   5.077  0.1336 -0.2185  0.4656
  138OSM   H13S15073   3.950   1.846   5.064 -1.1822  0.9342 -1.0445
  138OSM   H13T15074   4.112   1.884   5.101 -1.4943 -2.8927  1.8030
  138OSM   C14S15075   4.043   2.006   4.943 -0.0815 -0.1842 -0.2978
  138OSM   H14S15076   4.095   2.101   4.970 -2.1579  0.8463  0.2448
  138OSM   H14T15077   3.950   2.042   4.894  0.2732  1.2448  0.0287
  138OSM   C15S15078   4.128   1.921   4.839  0.5777 -0.0575 -0.5712
  138OSM   H15S15079   4.063   1.839   4.801 -1.1202  2.7526 -4.3620
  138OSM   H15T15080   4.216   1.881   4.895  0.5559 -0.9194 -1.1384
  138OSM   C16S15081   4.172   2.013   4.728  0.2352 -0.7888  0.1544
  138OSM   H16S15082   4.249   2.083   4.768  1.8631 -1.5848 -1.4366
  138OSM   H16T15083   4.088   2.070   4.683  0.0947 -1.2797 -0.2143
  138OSM   C17S15084   4.259   1.950   4.625 -0.1792 -0.3472  0.2959
  138OSM   H17S15085   4.236   1.844   4.601  1.8442 -0.7280 -0.1304
  138OSM   H17T15086   4.361   1.942   4.667 -0.3789  0.8342  1.0572
  138OSM   C18S15087   4.275   2.035   4.497  0.6389  0.4576  0.2368
  138OSM   H18S15088   4.258   2.145   4.506  2.9646  0.9214 -0.5074
  138OSM   H18T15089   4.196   1.995   4.430 -0.7314  2.2244  0.6970
  138OSM   H18U15090   4.377   2.017   4.459  0.4413 -1.2127  0.4405
  138OSM    C1F15091   3.657   2.209   6.293 -0.5245  1.0588 -1.2751
  138OSM     OF15092   3.679   2.329   6.304  0.1151 -0.3227  0.0255
  138OSM    C2F15093   3.513   2.154   6.290  0.5542 -0.4786 -0.1301
  138OSM    H2F15094   3.472   2.161   6.393 -2.6054 -0.6181 -1.2503
  138OSM    H2G15095   3.504   2.047   6.263 -3.5559 -0.4247  0.2889
  138OSM    C3F15096   3.418   2.221   6.183 -0.2149 -0.2831  0.4793
  138OSM    H3F15097   3.414   2.326   6.221 -0.9221 -0.8265  1.9664
  138OSM    H3G15098   3.318   2.175   6.175 -0.1524 -0.3525  0.0657
  138OSM    C4F15099   3.487   2.223   6.042  0.9918  0.2971 -0.2578
  138OSM    H4F15100   3.586   2.273   6.049  1.5203 -0.8863  1.3586
  138OSM    H4G15101   3.423   2.278   5.969  1.5725  1.2111 -0.0931
  138OSM    C5F15102   3.502   2.091   5.970 -0.1301  0.1133 -0.3884
  138OSM    H5F15103   3.412   2.028   5.986 -0.7523  0.8087 -1.0509
  138OSM    H5G15104   3.582   2.034   6.022 -0.3145  0.8565  0.7662
  138OSM    C6F15105   3.517   2.090   5.819  0.3793 -0.7003  0.0999
  138OSM    H6F15106   3.575   2.184   5.802 -0.6950  0.1354  0.8934
  138OSM    H6G15107   3.423   2.116   5.765  0.5822  3.8202  1.5206
  138OSM    C7F15108   3.582   1.971   5.760 -0.4353 -0.0025 -0.1338
  138OSM    H7F15109   3.509   1.887   5.759  0.0185 -0.4095  0.5663
  138OSM    H7G15110   3.671   1.935   5.814  0.6966  1.1843 -1.1291
  138OSM    C8F15111   3.640   1.988   5.618  0.6429 -0.5554  0.9429
  138OSM    H8F15112   3.699   1.897   5.592  1.4071  0.5855 -1.7621
  138OSM    H8G15113   3.709   2.075   5.620  0.1853 -0.2146  2.5276
  138OSM    C9F15114   3.540   1.990   5.510 -0.1133 -0.7218 -0.5527
  138OSM    H9F15115   3.508   1.889   5.482  1.4305 -1.5708  0.6076
  138OSM   C10F15116   3.493   2.102   5.450 -0.2918  0.1021 -0.6853
  138OSM   H10F15117   3.410   2.088   5.378 -1.5590 -2.5722  1.1502
  138OSM   C11F15118   3.535   2.241   5.486 -0.2120  0.1610  1.0532
  138OSM   H11F15119   3.572   2.242   5.591 -1.2654 -1.7532  1.4982
  138OSM   H11G15120   3.440   2.298   5.487  0.6115  1.5678  1.1447
  138OSM   C12F15121   3.628   2.300   5.385 -0.3656 -0.7094 -0.6592
  138OSM   H12F15122   3.721   2.242   5.365  1.0129  1.6755 -1.5590
  138OSM   H12G15123   3.666   2.400   5.413 -1.3151 -0.8669  1.3183
  138OSM   C13F15124   3.552   2.311   5.250 -0.2200  0.0742  0.3877
  138OSM   H13F15125   3.453   2.360   5.264 -0.8746 -0.5628 -1.6625
  138OSM   H13G15126   3.546   2.209   5.207 -2.6006  0.1504  0.4169
  138OSM   C14F15127   3.624   2.391   5.137  0.6231 -0.8459 -1.3121
  138OSM   H14F15128   3.611   2.498   5.162 -0.7549 -0.6654 -2.6538
  138OSM   H14G15129   3.570   2.363   5.044 -0.7395 -0.5434 -0.6386
  138OSM   C15F15130   3.766   2.363   5.123 -0.4134  0.5606 -0.2643
  138OSM   H15F15131   3.789   2.257   5.145  1.3609  1.1748  1.0396
  138OSM   H15G15132   3.826   2.419   5.198 -1.2593 -0.7281  1.4444
  138OSM   C16F15133   3.814   2.403   4.979 -0.7197 -1.1298 -0.2419
  138OSM   H16F15134   3.797   2.508   4.948  0.1687 -1.1317 -0.7857
  138OSM   H16G15135   3.759   2.340   4.906 -1.1350 -0.5261 -0.4536
  138OSM   C17F15136   3.968   2.392   4.959  0.1887 -0.1068 -0.4619
  138OSM   H17F15137   3.998   2.301   5.015  2.1050  0.5465 -0.3568
  138OSM   H17G15138   4.008   2.481   5.012 -1.2886  1.3910 -1.7325
  138OSM   C18F15139   4.019   2.374   4.822 -0.5228  0.7323 -0.7559
  138OSM   H18F15140   3.976   2.289   4.765 -0.6348  2.0210 -2.6849
  138OSM   H18G15141   4.129   2.362   4.833 -0.5279  0.5032 -0.9387
  138OSM   H18H15142   4.011   2.465   4.760 -1.0135  1.1844 -0.0444
  139OSM      N15143   0.669   0.134   6.670 -0.9061 -0.2125  0.0637
  139OSM    C1515144   0.781   0.062   6.745  0.7717  1.0052  0.6289
  139OSM   H15A15145   0.876   0.113   6.735  0.7452  0.7319 -1.5186
  139OSM   H15B15146   0.797  -0.035   6.701  1.9276  1.3839  0.1744
  139OSM   H15C15147   0.760   0.050   6.850  1.7841 -0.1008  0.7281
  139OSM    C1415148   0.659   0.274   6.716  0.1942 -0.0626  0.4479
  139OSM   H14A15149   0.626   0.275   6.819 -0.8326 -1.2650  0.1484
  139OSM   H14B15150   0.586   0.335   6.665 -2.0751 -2.1233  1.0425
  139OSM   H14C15151   0.759   0.316   6.715 -0.2753  1.1069  0.8521
  139OSM    C1315152   0.709   0.139   6.524  0.2250  0.4907  0.1656
  139OSM   H13A15153   0.630   0.195   6.476 -0.2896 -0.6651 -0.3841
  139OSM   H13B15154   0.704   0.042   6.476 -0.9680 -0.2160  1.6527
  139OSM   H13C15155   0.808   0.181   6.511  0.7998 -1.1013 -0.9153
  139OSM    C1215156   0.539   0.065   6.692  0.6654 -0.3160  0.2678
  139OSM   H12A15157   0.515   0.035   6.793 -1.8489 -1.7923 -0.6804
  139OSM   H12B15158   0.541  -0.025   6.634  3.1546 -1.2376  1.6582
  139OSM    C1115159   0.413   0.133   6.640  0.7116  0.0047  1.4452
  139OSM   H11A15160   0.385   0.234   6.677 -2.3203 -0.5284  0.9304
  139OSM   H11B15161   0.322   0.085   6.682  0.0879  1.4357  1.7902
  139OSM      P15162   0.395   0.002   6.412 -0.1018  0.1294 -0.0569
  139OSM    O1315163   0.513  -0.020   6.322 -0.6106 -0.4989  0.4322
  139OSM    O1415164   0.362  -0.107   6.506  0.8534  0.6850 -0.0342
  139OSM    O1115165   0.267   0.051   6.330 -0.2503 -0.0766  0.6048
  139OSM    O1215166   0.413   0.138   6.494  0.2017  0.0733 -0.3784
  139OSM    C1S15167   0.252   0.175   6.265  0.4372 -0.7387 -0.6266
  139OSM    H1S15168   0.346   0.235   6.258 -0.2323  0.2192 -1.6452
  139OSM    H1T15169   0.185   0.238   6.327 -3.0021 -1.0363 -3.7192
  139OSM     NF15170   0.195   0.283   6.054  0.4709  0.5415 -0.0369
  139OSM    HNF15171   0.128   0.355   6.072 -0.2357  0.4076 -1.8578
  139OSM    C2S15172   0.184   0.156   6.133  0.1266  0.2226  0.5362
  139OSM    H2S15173   0.244   0.082   6.076  1.2469  0.7706  0.9886
  139OSM    C3S15174   0.038   0.107   6.156  0.0416 -0.0031  0.2557
  139OSM    H3S15175  -0.021   0.181   6.214  0.1392  1.6669 -1.6992
  139OSM     O315176   0.025  -0.018   6.224 -0.0959 -0.3049  0.4527
  139OSM    HO315177   0.111  -0.028   6.265  0.9060 -0.0599 -1.4844
  139OSM    C4S15178  -0.027   0.084   6.015  0.2935 -0.2243  0.7260
  139OSM    H4S15179  -0.078   0.177   5.983  1.1103 -0.6090 -1.9148
  139OSM    C5S15180  -0.012  -0.024   5.935  0.7101 -0.2115  0.7560
  139OSM    H5S15181   0.054  -0.100   5.979  0.5692 -1.7583 -1.5488
  139OSM    C6S15182  -0.061  -0.052   5.798  0.3187 -0.8384  0.4440
  139OSM    H6S15183  -0.099  -0.155   5.783  0.0458 -0.9260  1.6370
  139OSM    H6T15184   0.031  -0.050   5.735  1.1990 -2.5560  1.5748
  139OSM    C7S15185  -0.172   0.046   5.748 -0.7090  0.2468 -0.0883
  139OSM    H7S15186  -0.150   0.154   5.757 -2.4081  0.9148 -2.8781
  139OSM    H7T15187  -0.267   0.029   5.804 -0.2687 -1.2413  0.2479
  139OSM    C8S15188  -0.215   0.006   5.605 -0.1893 -0.0780  0.3665
  139OSM    H8S15189  -0.274  -0.087   5.615  0.1654 -0.2296  1.1291
  139OSM    H8T15190  -0.133  -0.019   5.534 -0.0867 -2.0222  1.1228
  139OSM    C9S15191  -0.306   0.115   5.540  0.5754  0.4482  0.0768
  139OSM    H9S15192  -0.392   0.144   5.605 -0.0661  1.1476 -1.0401
  139OSM    H9T15193  -0.356   0.074   5.450  0.1505 -0.5590  0.7598
  139OSM   C10S15194  -0.231   0.233   5.477 -0.1961  0.1518 -0.0191
  139OSM   H10S15195  -0.151   0.199   5.408 -3.5373  0.1559 -4.3212
  139OSM   H10T15196  -0.186   0.288   5.562  0.5542 -1.2598  0.5437
  139OSM   C11S15197  -0.323   0.323   5.394  0.0708  0.6156 -0.1555
  139OSM   H11S15198  -0.422   0.328   5.445 -0.7383 -2.0642 -1.2648
  139OSM   H11T15199  -0.353   0.273   5.299 -0.4456 -0.0721  0.3535
  139OSM   C12S15200  -0.268   0.464   5.372  0.6896  0.5195  0.2977
  139OSM   H12S15201  -0.182   0.470   5.303 -0.5755 -1.1335 -1.5419
  139OSM   H12T15202  -0.224   0.493   5.470  1.1023 -0.5494  0.4504
  139OSM   C13S15203  -0.372   0.568   5.325  0.1812  0.1286 -0.6437
  139OSM   H13S15204  -0.455   0.567   5.398  0.9718  0.3202  0.2815
  139OSM   H13T15205  -0.418   0.535   5.229 -0.5571  0.9134 -0.5735
  139OSM   C14S15206  -0.310   0.698   5.295 -0.2921 -0.8054 -0.1628
  139OSM   H14S15207  -0.222   0.702   5.227 -0.7471  2.1541 -0.7109
  139OSM   H14T15208  -0.279   0.735   5.395  0.4231 -0.8603 -0.3629
  139OSM   C15S15209  -0.417   0.794   5.245  0.4685  0.7486 -0.0578
  139OSM   H15S15210  -0.375   0.897   5.247 -2.2191  1.9054  0.4801
  139OSM   H15T15211  -0.498   0.794   5.320 -0.3773  3.0990 -0.9100
  139OSM   C16S15212  -0.484   0.769   5.107 -0.1228  0.4777 -0.5829
  139OSM   H16S15213  -0.544   0.676   5.120  1.2092 -0.0532  2.9813
  139OSM   H16T15214  -0.413   0.754   5.023 -0.9441 -1.3037 -1.0179
  139OSM   C17S15215  -0.575   0.894   5.069 -0.1021  0.0600  0.4704
  139OSM   H17S15216  -0.512   0.975   5.025  1.3505 -0.5043  1.4659
  139OSM   H17T15217  -0.612   0.933   5.166 -0.1149 -0.1374  0.5438
  139OSM   C18S15218  -0.679   0.838   4.967 -0.3926 -0.7473  0.2750
  139OSM   H18S15219  -0.644   0.782   4.878 -0.2510 -2.3614  1.2990
  139OSM   H18T15220  -0.748   0.916   4.927 -0.9270 -1.7584 -0.8331
  139OSM   H18U15221  -0.734   0.766   5.031 -1.2740 -0.1294  0.2306
  139OSM    C1F15222   0.307   0.312   5.994 -0.0479 -0.6610 -0.0794
  139OSM     OF15223   0.406   0.242   6.009  0.7868  0.4517 -0.4189
  139OSM    C2F15224   0.313   0.446   5.928  0.6866 -0.1535  0.6604
  139OSM    H2F15225   0.320   0.531   6.000 -1.1434 -0.7521  1.6149
  139OSM    H2G15226   0.213   0.464   5.883 -0.1716  1.4126  3.0210
  139OSM    C3F15227   0.423   0.462   5.836 -0.2548 -0.2899  0.1236
  139OSM    H3F15228   0.524   0.455   5.882 -0.2138 -1.1865 -0.0833
  139OSM    H3G15229   0.424   0.563   5.790 -3.3846 -0.1706  0.1507
  139OSM    C4F15230   0.426   0.352   5.727 -0.5034 -0.2783 -0.5314
  139OSM    H4F15231   0.451   0.255   5.775 -2.2130 -0.5714 -0.1991
  139OSM    H4G15232   0.504   0.374   5.651 -1.0918  0.7941 -0.8573
  139OSM    C5F15233   0.290   0.339   5.659  0.3730  0.5951 -0.0265
  139OSM    H5F15234   0.241   0.436   5.634 -1.3166  0.0303  0.8765
  139OSM    H5G15235   0.220   0.283   5.725  2.4538  0.2363  1.9845
  139OSM    C6F15236   0.290   0.264   5.528 -0.0549 -0.1178  0.3537
  139OSM    H6F15237   0.346   0.171   5.551  0.8183  0.5480  0.9936
  139OSM    H6G15238   0.346   0.321   5.451  0.9232 -0.6854  0.6393
  139OSM    C7F15239   0.150   0.228   5.476 -0.1870  0.0431 -0.1101
  139OSM    H7F15240   0.100   0.324   5.452 -0.3156 -0.0357 -0.1557
  139OSM    H7G15241   0.094   0.176   5.557  1.6450 -0.7001  0.7444
  139OSM    C8F15242   0.146   0.123   5.362  0.1709  0.2580  0.0062
  139OSM    H8F15243   0.189   0.171   5.271  1.7587 -0.7425  0.1953
  139OSM    H8G15244   0.038   0.112   5.340  0.2436  1.4893 -1.1346
  139OSM    C9F15245   0.203  -0.019   5.387  0.7110  0.0368  0.6393
  139OSM    H9F15246   0.140  -0.071   5.461 -0.0999  0.9326  0.5875
  139OSM   C10F15247   0.304  -0.074   5.323  0.0875 -0.8631  1.2134
  139OSM   H10F15248   0.346  -0.172   5.350  1.0718 -1.2244 -1.3239
  139OSM   C11F15249   0.393   0.007   5.231 -0.3139  0.1668  0.4145
  139OSM   H11F15250   0.489  -0.046   5.215 -0.7666 -0.2146 -1.1368
  139OSM   H11G15251   0.412   0.101   5.288 -3.8950 -0.0515  2.2708
  139OSM   C12F15252   0.330   0.033   5.091  0.5450 -0.2794 -0.2654
  139OSM   H12F15253   0.386   0.121   5.051 -1.2717  0.5365 -1.1050
  139OSM   H12G15254   0.221   0.052   5.100  0.1801 -2.0929 -0.5122
  139OSM   C13F15255   0.354  -0.082   4.991  0.2494 -0.6117  0.1530
  139OSM   H13F15256   0.294  -0.173   5.015 -1.3461  0.7559  1.6061
  139OSM   H13G15257   0.461  -0.112   4.982 -0.3359 -4.2941  2.9905
  139OSM   C14F15258   0.306  -0.032   4.856  1.0417  0.2955  0.1825
  139OSM   H14F15259   0.355  -0.082   4.770 -0.2201 -1.4514  0.4002
  139OSM   H14G15260   0.308   0.079   4.863  1.3766  0.3197 -0.2833
  139OSM   C15F15261   0.154  -0.075   4.829  0.6930 -0.0381  0.4748
  139OSM   H15F15262   0.085  -0.030   4.904 -1.7804 -0.7152 -1.2443
  139OSM   H15G15263   0.147  -0.184   4.852  1.1071 -0.0499  0.5552
  139OSM   C16F15264   0.120  -0.054   4.678  0.3696 -0.1721 -0.7154
  139OSM   H16F15265   0.195  -0.115   4.624 -0.4728 -2.6982  0.8038
  139OSM   H16G15266   0.121   0.054   4.652 -2.2236 -0.3432 -1.7898
  139OSM   C17F15267  -0.016  -0.111   4.639 -0.0928 -0.2896  0.0285
  139OSM   H17F15268  -0.039  -0.102   4.531  0.5444  1.8735  0.0328
  139OSM   H17G15269  -0.093  -0.038   4.673 -0.7796 -0.0239 -1.9639
  139OSM   C18F15270  -0.074  -0.252   4.683  0.3899  0.0662  0.5704
  139OSM   H18F15271  -0.099  -0.247   4.791  0.0949  0.8617  0.4665
  139OSM   H18G15272  -0.001  -0.336   4.673 -0.5012 -0.7743  0.9184
  139OSM   H18H15273  -0.173  -0.268   4.635  0.2246  1.7732  0.3067
  140OSM      N15274   0.454   6.160   7.350  0.4836 -0.2033  0.0414
  140OSM    C1515275   0.382   6.057   7.424  0.1204 -0.6554  1.0405
  140OSM   H15A15276   0.327   6.109   7.501  3.3648  0.3753  2.8477
  140OSM   H15B15277   0.451   5.989   7.472 -0.9855 -3.3165 -0.8905
  140OSM   H15C15278   0.319   5.992   7.365  0.2080 -0.4636  0.7362
  140OSM    C1415279   0.352   6.269   7.324  0.8886  0.6359  0.5324
  140OSM   H14A15280   0.398   6.357   7.279  1.9206  1.3177  2.7544
  140OSM   H14B15281   0.299   6.301   7.412  2.3012  0.1168  1.6158
  140OSM   H14C15282   0.270   6.242   7.260 -1.4917  3.3224  2.2034
  140OSM    C1315283   0.562   6.220   7.438 -0.1171 -0.4226 -0.7650
  140OSM   H13A15284   0.611   6.302   7.386  0.6390  0.0617  0.6359
  140OSM   H13B15285   0.642   6.159   7.478 -0.3009  0.4835  1.0790
  140OSM   H13C15286   0.516   6.266   7.525  0.4420  0.5448 -0.9591
  140OSM    C1215287   0.515   6.105   7.223 -0.3317 -0.1270  0.1031
  140OSM   H12A15288   0.574   6.018   7.247 -0.5743 -0.0619  0.9813
  140OSM   H12B15289   0.584   6.181   7.189 -0.8775  0.4308  0.2084
  140OSM    C1115290   0.414   6.077   7.100 -0.0186  0.2163 -0.1612
  140OSM   H11A15291   0.477   6.056   7.011 -0.1792  0.7329 -0.4016
  140OSM   H11B15292   0.349   6.164   7.078 -1.6967 -0.8367  0.4188
  140OSM      P15293   0.396   5.815   7.114 -0.4519  0.0075 -0.3879
  140OSM    O1315294   0.528   5.807   7.188  0.5726 -0.2222 -0.5380
  140OSM    O1415295   0.282   5.715   7.130 -1.0610  0.5004 -0.2438
  140OSM    O1115296   0.429   5.819   6.962  0.2618 -0.3864 -0.3001
  140OSM    O1215297   0.333   5.963   7.131 -0.2379 -0.2752 -0.4951
  140OSM    C1S15298   0.340   5.811   6.853  1.1172 -0.3344 -0.0165
  140OSM    H1S15299   0.307   5.914   6.829 -0.9015 -0.8154  0.5508
  140OSM    H1T15300   0.247   5.756   6.880  0.5956  0.0898 -0.9058
  140OSM     NF15301   0.310   5.739   6.608  0.4393 -0.2064  0.3769
  140OSM    HNF15302   0.270   5.648   6.596  0.6166 -0.8599  3.6531
  140OSM    C2S15303   0.406   5.747   6.718 -0.2001  0.6234 -0.5510
  140OSM    H2S15304   0.481   5.824   6.689  0.5216  0.5044  0.9131
  140OSM    C3S15305   0.471   5.614   6.753  0.1870 -0.4995 -0.3590
  140OSM    H3S15306   0.386   5.561   6.803  0.5430 -2.3395 -1.6141
  140OSM     O315307   0.570   5.618   6.854 -0.9041 -0.2331 -0.4561
  140OSM    HO315308   0.569   5.705   6.893  2.7407 -0.8602  1.4527
  140OSM    C4S15309   0.520   5.542   6.628  0.3128 -0.0613 -0.2584
  140OSM    H4S15310   0.437   5.484   6.585  0.6886 -0.7875 -0.0121
  140OSM    C5S15311   0.633   5.563   6.560  0.7343  0.7204 -0.2372
  140OSM    H5S15312   0.708   5.640   6.584 -0.0615  1.9806 -1.6241
  140OSM    C6S15313   0.646   5.497   6.428 -0.2821  0.5435  0.3853
  140OSM    H6S15314   0.589   5.402   6.431 -0.8343  0.8873  1.2641
  140OSM    H6T15315   0.754   5.481   6.408 -1.0449 -1.2313 -3.0401
  140OSM    C7S15316   0.583   5.589   6.324  0.0392  0.5091  0.1052
  140OSM    H7S15317   0.636   5.685   6.311  0.9706 -0.2452 -1.9880
  140OSM    H7T15318   0.473   5.605   6.334 -0.6609 -2.9059 -0.7887
  140OSM    C8S15319   0.605   5.520   6.192  0.4416  0.3886 -1.3190
  140OSM    H8S15320   0.534   5.435   6.187 -0.7705  1.2968 -0.0133
  140OSM    H8T15321   0.712   5.489   6.178  0.7439  1.0522 -0.5361
  140OSM    C9S15322   0.576   5.615   6.077  0.8645 -0.5702  0.0427
  140OSM    H9S15323   0.609   5.719   6.097  0.8763 -0.5005 -0.3283
  140OSM    H9T15324   0.465   5.621   6.076  0.5664 -3.5214 -2.9118
  140OSM   C10S15325   0.625   5.578   5.939  0.3203 -0.3226  0.7920
  140OSM   H10S15326   0.728   5.535   5.939  0.6144  0.3671  1.2242
  140OSM   H10T15327   0.616   5.679   5.894  0.2855 -0.5203  0.3460
  140OSM   C11S15328   0.540   5.477   5.862 -0.2847 -0.5400 -0.5540
  140OSM   H11S15329   0.450   5.536   5.835 -0.0644 -0.1685 -0.4872
  140OSM   H11T15330   0.521   5.395   5.935  1.0536  0.8610  1.4792
  140OSM   C12S15331   0.594   5.433   5.723 -0.6912 -0.1366  0.2149
  140OSM   H12S15332   0.524   5.359   5.679 -0.4397 -0.2702  0.0443
  140OSM   H12T15333   0.679   5.366   5.747 -0.3275 -0.2051 -1.1795
  140OSM   C13S15334   0.639   5.552   5.642  0.4227 -0.7084  0.3995
  140OSM   H13S15335   0.735   5.590   5.683  0.1218  0.0647  0.4180
  140OSM   H13T15336   0.573   5.641   5.643 -0.0323 -1.0100  3.2109
  140OSM   C14S15337   0.674   5.502   5.505  0.3968  0.4099 -0.1194
  140OSM   H14S15338   0.578   5.468   5.461 -1.1517  2.7755  1.2477
  140OSM   H14T15339   0.741   5.414   5.514  2.1154  1.6875  0.1327
  140OSM   C15S15340   0.743   5.607   5.417  0.1212 -0.3555 -0.1391
  140OSM   H15S15341   0.840   5.639   5.461 -0.3185  0.4152  0.2792
  140OSM   H15T15342   0.682   5.700   5.411  1.6097  0.8073  1.5855
  140OSM   C16S15343   0.769   5.551   5.271  0.0528  0.0783 -0.0958
  140OSM   H16S15344   0.850   5.477   5.289  1.3733  1.8670  1.7191
  140OSM   H16T15345   0.816   5.633   5.213 -0.4586  1.3349  1.2101
  140OSM   C17S15346   0.660   5.483   5.188  0.4555  0.1880 -0.1123
  140OSM   H17S15347   0.607   5.406   5.249  0.5595  1.1337  1.2269
  140OSM   H17T15348   0.700   5.422   5.105 -0.7577 -1.1500  0.2416
  140OSM   C18S15349   0.565   5.586   5.122 -0.5439  0.3690  0.1739
  140OSM   H18S15350   0.605   5.646   5.038  0.0176  0.5101  0.5343
  140OSM   H18T15351   0.525   5.655   5.200 -1.6658  1.1673 -1.0502
  140OSM   H18U15352   0.477   5.535   5.076 -1.2316  1.0829  0.6790
  140OSM    C1F15353   0.262   5.837   6.544  0.6112 -0.0833 -0.0992
  140OSM     OF15354   0.294   5.950   6.575  0.6125 -0.2276  0.1949
  140OSM    C2F15355   0.183   5.795   6.423  0.0540 -0.0479 -1.2010
  140OSM    H2F15356   0.080   5.836   6.433 -1.1024 -2.5868 -1.8406
  140OSM    H2G15357   0.181   5.686   6.406 -0.1535  0.0958 -2.1432
  140OSM    C3F15358   0.242   5.843   6.290  0.4235 -0.5882 -0.4010
  140OSM    H3F15359   0.349   5.818   6.271  0.9384  1.7388 -0.8425
  140OSM    H3G15360   0.238   5.954   6.286 -2.3161 -0.6510 -1.8735
  140OSM    C4F15361   0.151   5.789   6.177 -0.2545 -0.5804  0.0768
  140OSM    H4F15362   0.043   5.799   6.201 -0.0255  0.1610  0.8579
  140OSM    H4G15363   0.153   5.679   6.161 -0.9894 -0.3818 -1.4863
  140OSM    C5F15364   0.175   5.857   6.042 -0.3360  0.1028 -0.4547
  140OSM    H5F15365   0.278   5.898   6.046  0.0315 -0.5831 -1.9690
  140OSM    H5G15366   0.127   5.956   6.029  1.8055  0.9740 -2.5163
  140OSM    C6F15367   0.177   5.760   5.927  0.0439 -0.1496  0.6144
  140OSM    H6F15368   0.086   5.698   5.911 -0.2275  0.1096  1.1556
  140OSM    H6G15369   0.262   5.692   5.951 -1.0486 -1.5840  0.5358
  140OSM    C7F15370   0.210   5.838   5.797 -0.2364  0.1782 -0.2444
  140OSM    H7F15371   0.262   5.933   5.825 -0.0312 -0.1778  0.6219
  140OSM    H7G15372   0.129   5.856   5.723  0.1281 -0.3933 -0.7888
  140OSM    C8F15373   0.318   5.764   5.721 -0.6484  0.2590 -0.3168
  140OSM    H8F15374   0.284   5.662   5.693  1.2179 -0.1333 -1.2947
  140OSM    H8G15375   0.411   5.751   5.780 -1.0788 -0.7573  0.1661
  140OSM    C9F15376   0.366   5.839   5.595 -0.1709  0.6918 -0.1469
  140OSM    H9F15377   0.416   5.935   5.611 -1.4675  1.1118  1.6143
  140OSM   C10F15378   0.346   5.803   5.472  1.0810 -0.0860  0.2208
  140OSM   H10F15379   0.399   5.864   5.397 -1.5096  1.1589 -0.7261
  140OSM   C11F15380   0.281   5.685   5.409  0.1902  0.2364 -0.2409
  140OSM   H11F15381   0.227   5.622   5.483 -0.8128 -0.8970 -1.8771
  140OSM   H11G15382   0.366   5.621   5.375  0.4110  0.3432  0.0949
  140OSM   C12F15383   0.196   5.702   5.282  0.1953  0.1928  0.0268
  140OSM   H12F15384   0.248   5.770   5.212  0.9674 -0.2405  0.1728
  140OSM   H12G15385   0.099   5.747   5.314 -0.2163 -0.2362 -0.5688
  140OSM   C13F15386   0.168   5.560   5.217  0.9427  0.5926 -0.2065
  140OSM   H13F15387   0.151   5.488   5.300  1.4491  0.5572 -0.1318
  140OSM   H13G15388   0.250   5.525   5.152 -0.1814  1.4917 -2.2185
  140OSM   C14F15389   0.040   5.551   5.129 -0.7125  0.4967 -0.2134
  140OSM   H14F15390  -0.052   5.577   5.184 -0.8768 -0.1065 -0.1945
  140OSM   H14G15391   0.031   5.444   5.098  0.7257 -0.4858  2.4718
  140OSM   C15F15392   0.040   5.642   4.996  0.3992 -0.0301 -0.4433
  140OSM   H15F15393   0.137   5.661   4.946  0.4488 -0.4347 -0.5049
  140OSM   H15G15394  -0.001   5.737   5.037 -0.6296 -0.5481 -0.2584
  140OSM   C16F15395  -0.070   5.602   4.893  0.5910 -0.2902  0.5395
  140OSM   H16F15396  -0.156   5.563   4.951  0.5984  1.2982  1.6520
  140OSM   H16G15397  -0.025   5.521   4.830 -0.1355 -0.2155 -0.0874
  140OSM   C17F15398  -0.115   5.716   4.804  0.0003 -0.4218 -1.0486
  140OSM   H17F15399  -0.166   5.670   4.716 -0.7697 -0.1431 -0.7580
  140OSM   H17G15400  -0.029   5.770   4.758  0.8557 -0.0221  0.9359
  140OSM   C18F15401  -0.220   5.817   4.870  0.0763 -0.1987 -0.7950
  140OSM   H18F15402  -0.298   5.763   4.929  3.9314 -3.7398  1.6068
  140OSM   H18G15403  -0.257   5.887   4.792  0.3808 -0.9663 -1.6345
  140OSM   H18H15404  -0.166   5.876   4.947 -1.9380 -0.8035  1.2174
  141OSM      N15405   6.212   5.584   6.727  0.0085 -0.6129  0.4001
  141OSM    C1515406   6.135   5.512   6.623  0.0128  0.6562  0.3822
  141OSM   H15A15407   6.170   5.410   6.615 -0.6340  0.5278 -1.0547
  141OSM   H15B15408   6.154   5.558   6.528  3.0470  2.1022  1.5600
  141OSM   H15C15409   6.030   5.519   6.649  0.3966  0.3369  2.1246
  141OSM    C1415410   6.193   5.735   6.714  0.2794  0.1061  0.2499
  141OSM   H14A15411   6.285   5.779   6.750 -0.4059  0.0793  2.1256
  141OSM   H14B15412   6.114   5.761   6.782 -0.1430 -0.1260 -0.1454
  141OSM   H14C15413   6.169   5.757   6.611  0.3753 -2.2914 -0.3589
  141OSM    C1315414   6.178   5.544   6.868  0.3928  0.2834  0.2514
  141OSM   H13A15415   6.179   5.436   6.877 -1.0515  0.0942 -1.5336
  141OSM   H13B15416   6.082   5.582   6.898  1.7601  2.4296  2.2721
  141OSM   H13C15417   6.249   5.588   6.937  1.1291 -1.6358  0.7883
  141OSM    C1215418   6.366   5.557   6.701  1.0173 -0.1746 -0.1443
  141OSM   H12A15419   6.374   5.449   6.708  0.8947 -0.3906 -2.4713
  141OSM   H12B15420   6.424   5.600   6.781 -0.9679  0.3839  1.0771
  141OSM    C1115421   6.413   5.600   6.563 -0.0155  0.9523 -0.2385
  141OSM   H11A15422   6.339   5.574   6.484 -1.4173  2.9679  0.3578
  141OSM   H11B15423   6.507   5.545   6.540 -1.6788 -1.6987 -1.2963
  141OSM      P15424   6.565   5.796   6.630  0.0518 -0.0205 -0.3299
  141OSM    O1315425   6.565   5.940   6.612  0.0198  0.2176 -0.1697
  141OSM    O1415426   6.563   5.745   6.772  0.0487 -0.0343 -0.2963
  141OSM    O1115427   6.696   5.736   6.566  0.7278  0.2938  0.2242
  141OSM    O1215428   6.439   5.739   6.557 -0.0386  0.1922 -0.1491
  141OSM    C1S15429   6.698   5.733   6.419 -0.6593  0.8353 -0.2491
  141OSM    H1S15430   6.599   5.698   6.384  0.5183 -3.6804  0.2829
  141OSM    H1T15431   6.774   5.658   6.389 -1.6895  0.4786 -2.0615
  141OSM     NF15432   6.713   5.877   6.222 -0.1109 -0.2002 -0.1107
  141OSM    HNF15433   6.787   5.862   6.157 -2.9024 -1.3663 -3.2831
  141OSM    C2S15434   6.742   5.871   6.363 -0.2635 -0.7043  0.2132
  141OSM    H2S15435   6.674   5.947   6.407 -0.8011  0.0169 -1.7485
  141OSM    C3S15436   6.885   5.912   6.404  0.0027 -0.3939  1.0136
  141OSM    H3S15437   6.958   5.846   6.353  0.0189 -1.9145  2.9022
  141OSM     O315438   6.916   5.901   6.540 -0.0364  0.1046 -0.2950
  141OSM    HO315439   6.844   5.846   6.571  0.0984 -2.2251 -3.5521
  141OSM    C4S15440   6.906   6.051   6.357 -0.5484 -0.2451  0.1677
  141OSM    H4S15441   6.854   6.129   6.414 -2.3482 -1.1940 -0.0941
  141OSM    C5S15442   6.986   6.076   6.248 -0.0913  0.0740 -0.0270
  141OSM    H5S15443   7.044   5.998   6.196  0.8154 -0.2585  1.4492
  141OSM    C6S15444   7.005   6.215   6.201  0.7040  0.1018 -0.2083
  141OSM    H6S15445   7.096   6.256   6.250  0.9958 -2.2626  1.4037
  141OSM    H6T15446   6.918   6.279   6.225  0.6107 -0.1849  0.2201
  141OSM    C7S15447   7.021   6.234   6.052 -0.0641  0.3240  0.4299
  141OSM    H7S15448   7.113   6.177   6.025  0.0367 -0.6167  2.5559
  141OSM    H7T15449   7.034   6.338   6.018  0.5453  0.4426  1.0092
  141OSM    C8S15450   6.897   6.181   5.975 -0.1953  0.0396 -0.3130
  141OSM    H8S15451   6.800   6.221   6.012 -2.0738 -1.8964 -2.7864
  141OSM    H8T15452   6.887   6.071   5.983 -1.6939  0.2172  0.6150
  141OSM    C9S15453   6.922   6.210   5.823  0.8440  0.5156  0.8406
  141OSM    H9S15454   7.029   6.196   5.800  0.3002  0.5514 -2.1199
  141OSM    H9T15455   6.904   6.317   5.799 -1.8834 -0.7118 -3.8448
  141OSM   C10S15456   6.817   6.141   5.733  0.2813  0.4201  0.3634
  141OSM   H10S15457   6.716   6.174   5.763  0.5557  0.7477  0.9297
  141OSM   H10T15458   6.837   6.032   5.747  0.6522  0.4339 -0.0152
  141OSM   C11S15459   6.850   6.168   5.584  0.5495 -0.2126 -0.2749
  141OSM   H11S15460   6.949   6.123   5.560 -0.4941 -2.4756 -0.5522
  141OSM   H11T15461   6.848   6.279   5.579  0.0870  0.0205  3.1149
  141OSM   C12S15462   6.751   6.107   5.490  0.1708 -0.4543  0.3665
  141OSM   H12S15463   6.647   6.145   5.497 -0.0427 -0.4320 -1.9861
  141OSM   H12T15464   6.739   5.997   5.492  1.1308 -0.5934 -0.5561
  141OSM   C13S15465   6.792   6.140   5.341 -0.6995  0.4245 -0.5990
  141OSM   H13S15466   6.719   6.097   5.268  1.6169 -2.4682 -1.4458
  141OSM   H13T15467   6.889   6.100   5.305 -0.3642  0.9278 -0.2545
  141OSM   C14S15468   6.799   6.291   5.308  0.2559  0.0802  0.1090
  141OSM   H14S15469   6.888   6.334   5.360 -0.3864  2.3230 -0.5624
  141OSM   H14T15470   6.720   6.340   5.368  1.1410  1.1462  0.4373
  141OSM   C15S15471   6.786   6.320   5.155  0.0523 -0.5882 -0.5452
  141OSM   H15S15472   6.709   6.251   5.113 -1.2693  0.6683 -0.2658
  141OSM   H15T15473   6.880   6.289   5.105 -1.0043 -2.3857 -1.5025
  141OSM   C16S15474   6.755   6.462   5.121  0.4406  0.3009  0.1769
  141OSM   H16S15475   6.821   6.532   5.177  0.2871  1.1220 -0.6372
  141OSM   H16T15476   6.652   6.495   5.142  0.5154  0.4880  0.2482
  141OSM   C17S15477   6.768   6.491   4.973 -0.6494 -0.5590 -0.1729
  141OSM   H17S15478   6.866   6.453   4.937 -0.8011  0.5281 -1.8318
  141OSM   H17T15479   6.764   6.601   4.959 -0.2305 -0.7115 -1.7490
  141OSM   C18S15480   6.663   6.447   4.873  0.1129  0.7604 -0.3637
  141OSM   H18S15481   6.661   6.337   4.858  1.3439  0.7358 -0.5010
  141OSM   H18T15482   6.666   6.489   4.771  0.4723  0.4611 -0.4802
  141OSM   H18U15483   6.564   6.484   4.909 -0.8165  1.3514 -3.2786
  141OSM    C1F15484   6.586   5.876   6.179 -0.3207 -0.5018  0.2924
  141OSM     OF15485   6.497   5.907   6.257  0.2147 -0.7436  0.1289
  141OSM    C2F15486   6.560   5.857   6.031  0.0486  0.1085 -0.2796
  141OSM    H2F15487   6.648   5.802   5.993  0.2556  0.8574 -0.9084
  141OSM    H2G15488   6.554   5.954   5.977  1.5135 -0.1268 -0.8915
  141OSM    C3F15489   6.457   5.743   5.993 -0.0272 -0.4334 -0.3626
  141OSM    H3F15490   6.493   5.657   6.053  4.0188 -0.1606 -2.0408
  141OSM    H3G15491   6.474   5.707   5.889  0.4901 -2.4229  0.3762
  141OSM    C4F15492   6.313   5.790   6.007 -0.3717 -0.4566 -0.2126
  141OSM    H4F15493   6.303   5.887   5.954  0.8266  0.5626  1.3613
  141OSM    H4G15494   6.297   5.826   6.111 -1.6620 -0.8612 -0.2550
  141OSM    C5F15495   6.208   5.687   5.965 -0.1981  0.4309 -0.0250
  141OSM    H5F15496   6.233   5.591   6.014 -0.2667  0.1773 -0.4780
  141OSM    H5G15497   6.223   5.668   5.856 -1.0696 -0.1723 -0.0497
  141OSM    C6F15498   6.066   5.726   5.977  0.2481  0.5461 -0.2702
  141OSM    H6F15499   6.057   5.829   5.937 -0.5738  0.3624 -0.5901
  141OSM    H6G15500   6.044   5.721   6.086 -1.2331  0.3668 -0.5541
  141OSM    C7F15501   5.974   5.621   5.919  0.1973 -0.5647 -0.5301
  141OSM    H7F15502   5.885   5.600   5.982  1.0695  1.6942  1.6088
  141OSM    H7G15503   6.020   5.523   5.894  0.1216 -0.5616 -0.6864
  141OSM    C8F15504   5.923   5.671   5.779  0.3423 -0.5066  0.0077
  141OSM    H8F15505   5.881   5.773   5.793  0.3836 -0.7107  1.8909
  141OSM    H8G15506   5.830   5.619   5.749 -2.2388  3.0876  0.9554
  141OSM    C9F15507   6.020   5.670   5.665 -0.3604 -0.7582  0.7743
  141OSM    H9F15508   6.096   5.750   5.654  0.4310 -1.5405  0.4539
  141OSM   C10F15509   6.023   5.579   5.563  0.3155 -0.1197 -0.0146
  141OSM   H10F15510   6.112   5.578   5.499  1.1513 -1.7249  1.1042
  141OSM   C11F15511   5.940   5.459   5.548  0.4920 -0.3892 -0.6090
  141OSM   H11F15512   5.871   5.477   5.464  0.7954  0.4498 -0.6829
  141OSM   H11G15513   5.888   5.427   5.642 -2.4643  0.8358 -1.7240
  141OSM   C12F15514   6.043   5.340   5.518  0.4243  0.4053 -0.0726
  141OSM   H12F15515   6.099   5.361   5.424 -0.9119  2.7666 -0.4295
  141OSM   H12G15516   5.986   5.245   5.505 -0.7405  0.9728  0.7085
  141OSM   C13F15517   6.147   5.309   5.627  0.1607 -0.2083 -0.6358
  141OSM   H13F15518   6.096   5.308   5.726  3.9929  1.2618  1.6074
  141OSM   H13G15519   6.227   5.386   5.635  0.8641 -1.0734  1.4073
  141OSM   C14F15520   6.212   5.170   5.609 -0.1529 -0.5784  0.1034
  141OSM   H14F15521   6.139   5.094   5.643  1.4600 -1.4677  1.7633
  141OSM   H14G15522   6.290   5.159   5.687 -1.1730 -2.6662  0.8911
  141OSM   C15F15523   6.278   5.135   5.474 -0.5781  0.5092 -0.4778
  141OSM   H15F15524   6.198   5.095   5.407  0.7464 -2.4508 -0.4627
  141OSM   H15G15525   6.334   5.041   5.493 -0.5896  0.7974  1.0926
  141OSM   C16F15526   6.368   5.236   5.404  0.3792 -0.4971 -0.5587
  141OSM   H16F15527   6.310   5.328   5.382 -0.7919 -1.2118 -0.5597
  141OSM   H16G15528   6.397   5.197   5.304  2.7059  1.0205 -0.5527
  141OSM   C17F15529   6.483   5.284   5.489  0.1914 -0.0450  0.9419
  141OSM   H17F15530   6.536   5.192   5.520 -1.4441 -1.2484  0.3115
  141OSM   H17G15531   6.455   5.335   5.584 -1.2707 -0.3911  0.7212
  141OSM   C18F15532   6.582   5.376   5.413 -0.1115  0.2920  0.3172
  141OSM   H18F15533   6.573   5.363   5.303  0.8303 -0.1514  0.2875
  141OSM   H18G15534   6.684   5.336   5.427  0.1733  0.7329 -0.4389
  141OSM   H18H15535   6.574   5.483   5.442 -0.0522  0.9010 -1.7385
  142OSM      N15536   5.425   4.649   7.126  0.1860  0.1702  0.0234
  142OSM    C1515537   5.506   4.762   7.188 -0.2059  0.0521  0.2909
  142OSM   H15A15538   5.476   4.854   7.139  1.9386 -0.2230 -1.7220
  142OSM   H15B15539   5.611   4.741   7.172 -0.1023  1.4808 -1.1302
  142OSM   H15C15540   5.476   4.774   7.291 -0.2007  3.8512 -0.0244
  142OSM    C1415541   5.470   4.517   7.180 -0.2496  0.1173  0.3289
  142OSM   H14A15542   5.446   4.440   7.108  0.8110 -0.6610  0.7871
  142OSM   H14B15543   5.426   4.491   7.275  1.0094 -2.2784  0.3207
  142OSM   H14C15544   5.578   4.515   7.182 -0.2661 -0.7789  0.7102
  142OSM    C1315545   5.285   4.663   7.167  0.3091  0.9976  0.1418
  142OSM   H13A15546   5.234   4.748   7.125  0.2772  0.0600 -1.8212
  142OSM   H13B15547   5.283   4.666   7.275  2.0204  0.0481  0.2252
  142OSM   H13C15548   5.224   4.582   7.130  2.3180  0.0356 -1.2516
  142OSM    C1215549   5.441   4.652   6.974 -0.2849 -0.4357  0.4244
  142OSM   H12A15550   5.367   4.586   6.931 -0.2447 -0.6934  0.7510
  142OSM   H12B15551   5.537   4.609   6.954 -0.6698 -1.0603 -0.1405
  142OSM    C1115552   5.418   4.784   6.891 -0.3077 -0.2728  0.1661
  142OSM   H11A15553   5.452   4.775   6.786  0.8028 -0.1807  0.5030
  142OSM   H11B15554   5.468   4.870   6.940 -1.5093  0.4097  0.2203
  142OSM      P15555   5.215   4.941   6.877  0.1201  0.0764 -0.2008
  142OSM    O1315556   5.070   4.927   6.860 -0.1911  0.1882 -0.1315
  142OSM    O1415557   5.272   5.038   6.976  0.8417  0.0713 -0.2888
  142OSM    O1115558   5.272   4.977   6.737  0.2024  0.1293 -0.1661
  142OSM    O1215559   5.280   4.802   6.898  0.1324  0.1709  0.1287
  142OSM    C1S15560   5.238   4.899   6.620  0.0384  0.2835  0.4143
  142OSM    H1S15561   5.135   4.859   6.629  0.5810 -1.0900  0.8913
  142OSM    H1T15562   5.312   4.816   6.614  0.2164  0.5129 -1.1358
  142OSM     NF15563   5.222   4.876   6.379 -0.2519 -0.0893  0.3960
  142OSM    HNF15564   5.307   4.834   6.348 -0.5795 -1.3644  1.1875
  142OSM    C2S15565   5.253   4.973   6.484  0.0976  0.5798  0.3587
  142OSM    H2S15566   5.179   5.056   6.483 -0.8972 -0.2845  0.3191
  142OSM    C3S15567   5.381   5.049   6.465 -0.4037 -0.5041 -0.1240
  142OSM    H3S15568   5.469   4.980   6.462 -0.2134 -0.2826  0.3081
  142OSM     O315569   5.413   5.138   6.572 -0.2284  0.5646  0.0708
  142OSM    HO315570   5.360   5.105   6.644 -0.5814 -1.2636 -0.9741
  142OSM    C4S15571   5.385   5.119   6.336  0.1463  1.2237  0.3550
  142OSM    H4S15572   5.329   5.214   6.335 -1.9857  0.0275  0.6123
  142OSM    C5S15573   5.428   5.055   6.225 -0.2907 -0.4630  0.4982
  142OSM    H5S15574   5.478   4.957   6.235  0.8916 -0.0233 -0.8294
  142OSM    C6S15575   5.432   5.127   6.091  0.6043 -0.0258  0.3624
  142OSM    H6S15576   5.326   5.128   6.056  0.2276  1.3631  1.4353
  142OSM    H6T15577   5.500   5.066   6.029  1.3751  1.7043 -0.5698
  142OSM    C7S15578   5.483   5.266   6.080 -0.4077 -0.0876  0.4145
  142OSM    H7S15579   5.579   5.281   6.134  0.8508 -0.5037 -1.6045
  142OSM    H7T15580   5.411   5.333   6.133  0.9156  1.1003  0.7635
  142OSM    C8S15581   5.507   5.306   5.930 -0.1671  0.3601 -0.7103
  142OSM    H8S15582   5.573   5.230   5.883 -0.6362 -0.2712 -0.3750
  142OSM    H8T15583   5.566   5.397   5.909  1.3145 -0.0575  1.3640
  142OSM    C9S15584   5.374   5.331   5.869 -0.3046 -0.3526  0.2322
  142OSM    H9S15585   5.312   5.406   5.921 -1.5238 -0.2392 -1.3057
  142OSM    H9T15586   5.325   5.232   5.853  1.5656 -1.3013 -0.0116
  142OSM   C10S15587   5.389   5.384   5.723  0.6039 -0.3761 -0.4344
  142OSM   H10S15588   5.462   5.468   5.725  1.9803 -1.5293  0.8757
  142OSM   H10T15589   5.286   5.407   5.689 -0.0322 -0.7441  1.1587
  142OSM   C11S15590   5.448   5.277   5.631 -0.4560 -0.4378  0.1004
  142OSM   H11S15591   5.373   5.203   5.594  1.3041 -2.4423  0.3798
  142OSM   H11T15592   5.533   5.229   5.685  0.3564  2.4586  1.5669
  142OSM   C12S15593   5.519   5.339   5.504 -0.5427  0.1091  0.0167
  142OSM   H12S15594   5.605   5.400   5.539 -0.8238  0.5051  0.0310
  142OSM   H12T15595   5.439   5.399   5.456 -1.5412 -1.9290 -0.9712
  142OSM   C13S15596   5.575   5.226   5.409  0.3381 -0.2118  0.0795
  142OSM   H13S15597   5.550   5.122   5.437  0.5420 -0.4656 -0.6799
  142OSM   H13T15598   5.683   5.239   5.436 -0.4005  2.7001  2.2270
  142OSM   C14S15599   5.544   5.266   5.261  0.3250 -0.2751  0.3529
  142OSM   H14S15600   5.592   5.365   5.249 -2.3973  1.1001  0.1934
  142OSM   H14T15601   5.434   5.274   5.247 -0.0864 -2.2823  1.8632
  142OSM   C15S15602   5.589   5.162   5.155 -1.3441  0.4298  0.5773
  142OSM   H15S15603   5.556   5.062   5.190  2.1960 -0.8395  0.7668
  142OSM   H15T15604   5.699   5.142   5.158 -1.5088 -0.4001  2.7687
  142OSM   C16S15605   5.523   5.202   5.017 -0.1818  0.5675 -0.1193
  142OSM   H16S15606   5.578   5.292   4.981 -1.0286  0.5748 -1.4481
  142OSM   H16T15607   5.415   5.223   5.025 -0.3162  0.3942 -1.3418
  142OSM   C17S15608   5.534   5.104   4.909  0.2895  0.6664  0.6079
  142OSM   H17S15609   5.464   5.020   4.930  1.0989 -0.4143 -0.7984
  142OSM   H17T15610   5.637   5.062   4.900  0.2186  0.3910  1.0984
  142OSM   C18S15611   5.488   5.165   4.774 -0.1491 -0.0360  0.1797
  142OSM   H18S15612   5.475   5.084   4.699 -2.3355  2.2090 -2.0726
  142OSM   H18T15613   5.572   5.229   4.737 -0.3817  0.5499  0.6630
  142OSM   H18U15614   5.393   5.220   4.791 -0.3485 -1.0495  2.6702
  142OSM    C1F15615   5.100   4.832   6.355 -0.1285 -0.0452  0.1175
  142OSM     OF15616   5.006   4.887   6.414  0.2333  0.0242 -0.3028
  142OSM    C2F15617   5.090   4.719   6.262 -0.5151 -0.0177 -0.3427
  142OSM    H2F15618   5.126   4.634   6.323  3.8506  0.0611 -2.4249
  142OSM    H2G15619   5.159   4.721   6.175  1.0750 -2.2519  0.7770
  142OSM    C3F15620   4.953   4.690   6.194  0.7973 -0.6540  0.6152
  142OSM    H3F15621   4.880   4.670   6.276  1.6169 -3.0148  0.8364
  142OSM    H3G15622   4.964   4.593   6.142  0.6239 -0.1818 -0.3261
  142OSM    C4F15623   4.908   4.817   6.107 -0.3313  0.2387  0.3936
  142OSM    H4F15624   4.890   4.913   6.160  0.4052  1.1761 -0.9860
  142OSM    H4G15625   4.805   4.799   6.069  0.0489 -0.3122 -0.3946
  142OSM    C5F15626   4.997   4.851   5.984  0.1089  0.3263 -0.5598
  142OSM    H5F15627   4.995   4.759   5.921 -1.0224 -1.2996  1.7268
  142OSM    H5G15628   5.099   4.879   6.015 -0.0708 -0.4788  0.8461
  142OSM    C6F15629   4.940   4.950   5.891  0.1007 -0.1411  0.3053
  142OSM    H6F15630   4.937   5.051   5.938  2.5828  1.1163 -1.9419
  142OSM    H6G15631   4.838   4.915   5.865 -0.1684 -0.5064  1.7458
  142OSM    C7F15632   5.022   4.958   5.761 -0.2577 -0.2800 -0.0096
  142OSM    H7F15633   5.023   4.863   5.703  1.2434  0.5510 -1.4402
  142OSM    H7G15634   5.125   4.993   5.785 -1.1022  1.2723  1.5556
  142OSM    C8F15635   4.967   5.066   5.666  0.3928 -0.4291 -0.2136
  142OSM    H8F15636   4.857   5.050   5.669  0.4849 -1.6350 -1.8604
  142OSM    H8G15637   5.001   5.039   5.564  2.9844  1.3147  0.1008
  142OSM    C9F15638   5.014   5.206   5.706 -0.4028 -0.2900 -0.7614
  142OSM    H9F15639   5.040   5.211   5.813 -0.5571  1.6895 -0.7697
  142OSM   C10F15640   5.022   5.314   5.626 -0.0793  0.1449 -0.0205
  142OSM   H10F15641   5.071   5.403   5.666  0.3908 -1.3234  2.9335
  142OSM   C11F15642   4.976   5.327   5.481 -0.7428  0.9667  0.8114
  142OSM   H11F15643   4.905   5.409   5.462  0.2615  1.4399 -1.1123
  142OSM   H11G15644   4.930   5.232   5.446  1.9187  0.6154 -2.2019
  142OSM   C12F15645   5.103   5.359   5.396 -0.6152 -0.6549 -1.2038
  142OSM   H12F15646   5.167   5.269   5.392  0.5731  0.1711 -1.0724
  142OSM   H12G15647   5.153   5.454   5.423 -1.8488  0.0856 -1.4138
  142OSM   C13F15648   5.063   5.376   5.255  0.1581 -0.6922  0.6188
  142OSM   H13F15649   4.992   5.459   5.240  1.1415  0.1769  0.6321
  142OSM   H13G15650   5.022   5.278   5.222  0.3000 -1.2522  2.0279
  142OSM   C14F15651   5.175   5.405   5.165 -0.4882  0.3433 -0.4377
  142OSM   H14F15652   5.256   5.333   5.187 -0.0378  0.0409 -2.8477
  142OSM   H14G15653   5.219   5.501   5.201 -1.8739  0.4473  1.1209
  142OSM   C15F15654   5.142   5.411   5.019  0.2160 -0.1824  0.8064
  142OSM   H15F15655   5.057   5.479   4.998 -0.3225 -0.0526  3.2155
  142OSM   H15G15656   5.111   5.309   4.987  2.9671 -0.8233 -0.1340
  142OSM   C16F15657   5.267   5.456   4.933 -0.2315  0.4457  0.4357
  142OSM   H16F15658   5.266   5.397   4.839 -1.8401  3.0651 -1.3249
  142OSM   H16G15659   5.358   5.444   4.996  0.4657 -1.8762 -0.8679
  142OSM   C17F15660   5.266   5.603   4.889 -0.2410 -0.1586 -0.3688
  142OSM   H17F15661   5.249   5.656   4.986  0.9010  1.9195 -1.2406
  142OSM   H17G15662   5.181   5.623   4.821  1.8698 -0.6991 -3.3574
  142OSM   C18F15663   5.390   5.664   4.818 -0.4457  0.0221  0.2504
  142OSM   H18F15664   5.398   5.773   4.836  0.6285  0.0585 -0.3684
  142OSM   H18G15665   5.376   5.661   4.708  1.1173  2.8074 -0.1089
  142OSM   H18H15666   5.475   5.614   4.870 -0.8613  1.2290  2.1605
  143OSM      N15667   0.388   1.743   6.878  0.1823 -0.2531  0.1854
  143OSM    C1515668   0.309   1.849   6.958 -0.7400 -0.1401 -0.1538
  143OSM   H15A15669   0.383   1.905   7.014  0.1918 -1.0147 -0.4829
  143OSM   H15B15670   0.247   1.813   7.038  2.2260 -1.0152  1.9613
  143OSM   H15C15671   0.257   1.908   6.884 -2.2460  0.2638  1.1741
  143OSM    C1415672   0.457   1.653   6.980 -0.1314 -0.1276  0.1707
  143OSM   H14A15673   0.511   1.573   6.929 -0.9711  0.4402 -1.7152
  143OSM   H14B15674   0.390   1.601   7.046 -0.1868 -1.1359 -0.6449
  143OSM   H14C15675   0.530   1.710   7.035 -0.8934  1.1115 -0.0769
  143OSM    C1315676   0.291   1.655   6.815  0.6086 -0.0525  0.2094
  143OSM   H13A15677   0.249   1.704   6.728  0.1844 -2.9597 -1.3460
  143OSM   H13B15678   0.208   1.631   6.879  0.3257  1.5726  0.4944
  143OSM   H13C15679   0.336   1.565   6.776 -1.7273 -1.0812 -0.2450
  143OSM    C1215680   0.480   1.809   6.781  0.2665 -0.9753 -0.1598
  143OSM   H12A15681   0.545   1.883   6.827 -2.4894  0.4159  1.8034
  143OSM   H12B15682   0.407   1.868   6.727 -2.1163 -0.2804  3.4077
  143OSM    C1115683   0.561   1.723   6.688  0.2661  0.5048  0.6904
  143OSM   H11A15684   0.616   1.798   6.627 -0.2800  0.1149 -0.3091
  143OSM   H11B15685   0.499   1.657   6.623  2.1074 -0.1502 -0.4827
  143OSM      P15686   0.786   1.662   6.815 -0.4479  0.0525  0.1107
  143OSM    O1315687   0.774   1.773   6.917  0.0085  0.5104  0.5661
  143OSM    O1415688   0.846   1.539   6.866 -0.1026 -0.5745 -0.4987
  143OSM    O1115689   0.872   1.707   6.696  0.1080 -0.2303  0.3195
  143OSM    O1215690   0.646   1.631   6.755 -0.0595 -0.1134  0.1521
  143OSM    C1S15691   0.900   1.626   6.583 -0.7571 -0.2774  0.3053
  143OSM    H1S15692   0.889   1.517   6.602 -4.8585 -0.4671 -1.9766
  143OSM    H1T15693   1.003   1.648   6.548 -1.0892  1.4198  0.3221
  143OSM     NF15694   0.847   1.578   6.350  0.0714 -0.5356 -0.1991
  143OSM    HNF15695   0.901   1.609   6.272  0.7957 -1.4539 -0.0810
  143OSM    C2S15696   0.814   1.666   6.458  0.2230 -0.3587 -0.2458
  143OSM    H2S15697   0.712   1.645   6.496 -0.1109  0.6007 -0.5974
  143OSM    C3S15698   0.813   1.815   6.425  0.5796 -0.1126  0.2341
  143OSM    H3S15699   0.913   1.842   6.385  1.0265  1.4932  2.2835
  143OSM     O315700   0.800   1.911   6.536 -0.2098 -0.2536  0.1179
  143OSM    HO315701   0.827   1.866   6.617 -0.9005 -2.2598 -0.7113
  143OSM    C4S15702   0.709   1.844   6.316 -1.0064 -0.0717  0.0989
  143OSM    H4S15703   0.740   1.808   6.217  0.9459  0.4649  0.4545
  143OSM    C5S15704   0.589   1.901   6.339  0.2643  0.0763 -0.8242
  143OSM    H5S15705   0.565   1.932   6.442 -0.9366  2.1122 -1.6616
  143OSM    C6S15706   0.479   1.926   6.233 -0.1271 -0.7572 -0.5602
  143OSM    H6S15707   0.472   2.030   6.192 -4.6549 -0.0283  1.3995
  143OSM    H6T15708   0.387   1.903   6.290  0.4036 -0.2657  0.5304
  143OSM    C7S15709   0.488   1.826   6.113  0.6755 -0.3324  0.0464
  143OSM    H7S15710   0.483   1.721   6.149 -3.1428 -0.0582  0.7248
  143OSM    H7T15711   0.583   1.829   6.056  0.8832  1.5752  0.4284
  143OSM    C8S15712   0.374   1.841   6.004 -0.5006  0.2461 -0.6918
  143OSM    H8S15713   0.368   1.947   5.971  0.1612 -0.4253 -3.1810
  143OSM    H8T15714   0.280   1.819   6.059 -0.8890  0.9290 -1.0679
  143OSM    C9S15715   0.397   1.749   5.887 -0.1126  0.3740  0.1680
  143OSM    H9S15716   0.390   1.640   5.908  1.9519 -0.1647 -1.5407
  143OSM    H9T15717   0.495   1.777   5.843  0.1554  1.0198  1.1522
  143OSM   C10S15718   0.311   1.795   5.767  0.1339  0.7218  0.3709
  143OSM   H10S15719   0.319   1.901   5.735  0.0398  0.9208  0.9773
  143OSM   H10T15720   0.203   1.795   5.795 -0.0000  0.1521 -0.1368
  143OSM   C11S15721   0.322   1.703   5.638 -0.3162 -0.5441 -0.2723
  143OSM   H11S15722   0.357   1.599   5.659  0.3344  0.1788  2.7347
  143OSM   H11T15723   0.410   1.740   5.581  0.1579  1.3687  1.5580
  143OSM   C12S15724   0.205   1.698   5.541  0.2320  0.1265  0.1024
  143OSM   H12S15725   0.196   1.799   5.496 -0.2634  0.3679  0.7199
  143OSM   H12T15726   0.110   1.689   5.599 -1.0308 -0.7096 -2.0046
  143OSM   C13S15727   0.240   1.598   5.427  0.6217 -0.4777 -0.0839
  143OSM   H13S15728   0.157   1.588   5.353  0.0535 -0.2276  0.5106
  143OSM   H13T15729   0.256   1.499   5.474  1.7890 -0.6356 -0.7785
  143OSM   C14S15730   0.378   1.607   5.353  0.9515 -0.1694 -0.7982
  143OSM   H14S15731   0.391   1.520   5.285  0.5302  0.5418 -1.8039
  143OSM   H14T15732   0.451   1.615   5.436 -2.4159 -0.8164  2.5135
  143OSM   C15S15733   0.403   1.737   5.275 -0.2586  0.5165 -0.6827
  143OSM   H15S15734   0.508   1.738   5.240  0.3467  0.7841  1.0169
  143OSM   H15T15735   0.380   1.821   5.345  0.9399  0.3929 -0.1107
  143OSM   C16S15736   0.301   1.748   5.162 -0.2702  0.0951 -0.0560
  143OSM   H16S15737   0.199   1.765   5.202  0.0811  2.2088  0.0662
  143OSM   H16T15738   0.296   1.652   5.106 -0.0550  0.2330 -0.3157
  143OSM   C17S15739   0.342   1.866   5.066 -0.0927  0.6206 -0.7071
  143OSM   H17S15740   0.440   1.844   5.020  2.0749  3.5115  2.1353
  143OSM   H17T15741   0.353   1.954   5.132 -4.3120  1.5146 -0.8947
  143OSM   C18S15742   0.222   1.892   4.979  0.1926  0.0928 -0.1529
  143OSM   H18S15743   0.129   1.902   5.040  0.4838  0.7882  0.1903
  143OSM   H18T15744   0.193   1.797   4.929  1.0029  1.2654 -3.0397
  143OSM   H18U15745   0.232   1.973   4.904  1.4858 -0.3700 -0.4919
  143OSM    C1F15746   0.830   1.443   6.359  0.2225 -0.4987 -0.7484
  143OSM     OF15747   0.757   1.396   6.447 -0.2222 -0.4173  0.4825
  143OSM    C2F15748   0.900   1.356   6.253 -0.4003 -0.5708  0.0501
  143OSM    H2F15749   0.898   1.401   6.151 -0.1725  0.8443  0.6469
  143OSM    H2G15750   0.849   1.257   6.253 -0.4825 -0.5471  1.4592
  143OSM    C3F15751   1.046   1.345   6.297 -0.1070  0.3897 -0.5869
  143OSM    H3F15752   1.044   1.320   6.405 -0.9766 -0.2849 -0.7554
  143OSM    H3G15753   1.099   1.442   6.284  1.3425 -0.4023 -0.7798
  143OSM    C4F15754   1.143   1.259   6.219 -0.1178  0.2881  0.3154
  143OSM    H4F15755   1.112   1.153   6.212 -0.7299  0.4259  0.8807
  143OSM    H4G15756   1.239   1.254   6.276 -0.6164 -2.3644  1.0767
  143OSM    C5F15757   1.172   1.306   6.070  0.0035  0.9395 -0.3082
  143OSM    H5F15758   1.189   1.415   6.060 -0.8024  0.9941 -1.1940
  143OSM    H5G15759   1.076   1.278   6.021  0.3089 -1.4280  0.3013
  143OSM    C6F15760   1.289   1.226   6.007 -0.2994  0.2866 -0.4665
  143OSM    H6F15761   1.273   1.118   6.029  2.4327 -0.0442  0.2438
  143OSM    H6G15762   1.373   1.263   6.068  0.3049 -1.3296 -0.2627
  143OSM    C7F15763   1.292   1.233   5.857  0.3705 -0.4552  0.0219
  143OSM    H7F15764   1.196   1.213   5.805  0.5124  0.3176 -0.5632
  143OSM    H7G15765   1.373   1.164   5.824 -1.5378 -1.3144 -3.3371
  143OSM    C8F15766   1.324   1.374   5.806 -0.0459 -0.5071 -0.3693
  143OSM    H8F15767   1.228   1.427   5.825  2.0683  2.8398  2.1570
  143OSM    H8G15768   1.335   1.370   5.696 -2.9636 -2.1556 -0.7174
  143OSM    C9F15769   1.432   1.438   5.879  0.6028  0.1054  0.7243
  143OSM    H9F15770   1.412   1.531   5.934  0.8198  0.3493  0.3995
  143OSM   C10F15771   1.563   1.401   5.876 -0.9306 -0.2122 -0.2753
  143OSM   H10F15772   1.621   1.457   5.951  0.1327 -1.0628 -0.4344
  143OSM   C11F15773   1.642   1.291   5.808  0.6292  0.2086 -0.0301
  143OSM   H11F15774   1.563   1.228   5.762 -2.7890  2.2614  2.5665
  143OSM   H11G15775   1.706   1.225   5.871  4.0480  1.6355 -1.7219
  143OSM   C12F15776   1.723   1.353   5.699 -0.5106 -0.0044  0.1036
  143OSM   H12F15777   1.813   1.408   5.736  1.1126 -1.6529 -1.2444
  143OSM   H12G15778   1.652   1.413   5.639  0.1545  1.9961  1.1976
  143OSM   C13F15779   1.780   1.246   5.594 -0.3672 -0.2327  0.5623
  143OSM   H13F15780   1.696   1.204   5.536  1.0287  0.2984 -1.9776
  143OSM   H13G15781   1.834   1.168   5.652  3.5384  0.4557 -1.7473
  143OSM   C14F15782   1.873   1.316   5.492  0.1979  0.7995  0.1862
  143OSM   H14F15783   1.900   1.241   5.414 -1.1007  0.0919  0.3973
  143OSM   H14G15784   1.966   1.338   5.549  1.2912  0.4377 -1.3878
  143OSM   C15F15785   1.816   1.445   5.439  0.6405  0.1234 -1.1037
  143OSM   H15F15786   1.839   1.516   5.521  1.6179 -2.0378  0.6116
  143OSM   H15G15787   1.705   1.439   5.434  0.4971  0.0116  1.1230
  143OSM   C16F15788   1.869   1.486   5.305 -0.9871 -0.2501 -0.4746
  143OSM   H16F15789   1.815   1.437   5.221  0.2372 -1.9012 -0.3513
  143OSM   H16G15790   1.980   1.473   5.312 -0.6915  1.6581 -1.2392
  143OSM   C17F15791   1.836   1.637   5.281  0.4325  0.2572 -0.6228
  143OSM   H17F15792   1.886   1.691   5.365 -0.3482  1.3165 -0.8208
  143OSM   H17G15793   1.727   1.646   5.300  0.6681 -1.0902  1.7733
  143OSM   C18F15794   1.874   1.692   5.145  0.2482 -0.4140 -0.2152
  143OSM   H18F15795   1.982   1.672   5.125  1.7823  4.1629  1.9415
  143OSM   H18G15796   1.852   1.800   5.136 -0.8771 -0.6318 -0.2480
  143OSM   H18H15797   1.814   1.643   5.066  1.0103  0.1988 -1.2047
  144OSM      N15798   1.628   0.363   6.244 -0.5679 -0.2856 -0.1276
  144OSM    C1515799   1.733   0.456   6.292 -0.3300 -0.6191  0.7466
  144OSM   H15A15800   1.787   0.431   6.382  0.1737 -0.0117  0.6235
  144OSM   H15B15801   1.694   0.555   6.311  3.4420  1.0423  0.7845
  144OSM   H15C15802   1.813   0.457   6.218 -1.1934  0.3087 -0.2044
  144OSM    C1415803   1.692   0.236   6.198 -0.4470 -0.5117 -0.6942
  144OSM   H14A15804   1.614   0.164   6.175 -3.2010  1.3482  2.0330
  144OSM   H14B15805   1.764   0.203   6.271 -0.8610  1.1366  0.5131
  144OSM   H14C15806   1.740   0.252   6.102 -2.3565  0.7537 -1.4900
  144OSM    C1315807   1.543   0.334   6.365 -0.3300  0.5418  0.5694
  144OSM   H13A15808   1.457   0.282   6.325 -0.1109  0.6248 -0.0165
  144OSM   H13B15809   1.517   0.424   6.420  1.4502  0.9435  0.7887
  144OSM   H13C15810   1.590   0.265   6.432  1.8578  1.0821 -0.3226
  144OSM    C1215811   1.548   0.425   6.137  0.2132 -0.2607 -0.3079
  144OSM   H12A15812   1.534   0.529   6.166  1.1038 -0.5889  1.4322
  144OSM   H12B15813   1.452   0.376   6.126 -0.1020  0.0700  0.7774
  144OSM    C1115814   1.614   0.434   5.992 -0.6421 -0.6703 -0.6021
  144OSM   H11A15815   1.707   0.490   6.019 -0.9871 -0.8452  1.0785
  144OSM   H11B15816   1.540   0.490   5.931 -2.2510 -3.0872 -1.0063
  144OSM      P15817   1.514   0.221   5.879  0.1276 -0.0676 -0.1098
  144OSM    O1315818   1.523   0.213   5.735 -0.3238  0.2622  0.2145
  144OSM    O1415819   1.502   0.091   5.944 -0.2336  0.3605  0.0827
  144OSM    O1115820   1.384   0.308   5.908 -0.3358 -0.0765 -0.2844
  144OSM    O1215821   1.644   0.314   5.926  0.1554  0.3136 -0.4843
  144OSM    C1S15822   1.322   0.409   5.831  0.7421  0.2275 -0.3249
  144OSM    H1S15823   1.397   0.459   5.766 -0.4761  1.2073 -0.9972
  144OSM    H1T15824   1.276   0.485   5.897 -2.2113 -0.8706 -0.9898
  144OSM     NF15825   1.177   0.437   5.640 -0.1316  0.1455 -0.2681
  144OSM    HNF15826   1.126   0.516   5.674  0.7405 -0.5067  2.8754
  144OSM    C2S15827   1.216   0.344   5.749  0.3423  0.6446 -0.4154
  144OSM    H2S15828   1.261   0.252   5.706  0.7981 -0.2065  1.7887
  144OSM    C3S15829   1.096   0.300   5.838  0.3496  0.4369 -0.4272
  144OSM    H3S15830   1.037   0.393   5.853  0.9119  0.6147  0.8712
  144OSM     O315831   1.124   0.276   5.974  0.4094  0.0470  0.1996
  144OSM    HO315832   1.214   0.306   5.987  1.1355 -2.5087  1.6084
  144OSM    C4S15833   1.003   0.196   5.774 -0.6826  0.6068 -0.3559
  144OSM    H4S15834   1.047   0.117   5.712  1.8888  0.6530  1.2584
  144OSM    C5S15835   0.868   0.202   5.791 -0.1801 -0.2041  0.2387
  144OSM    H5S15836   0.826   0.291   5.842 -1.5042 -0.7156  0.0985
  144OSM    C6S15837   0.770   0.103   5.741  0.2737 -0.4706  0.1298
  144OSM    H6S15838   0.699   0.147   5.667 -0.4554 -0.7273  0.6648
  144OSM    H6T15839   0.709   0.078   5.831 -1.4515  1.2511 -0.4896
  144OSM    C7S15840   0.822  -0.029   5.674  0.0185  0.2301 -0.0348
  144OSM    H7S15841   0.895  -0.075   5.744 -0.3367 -0.0938  0.1306
  144OSM    H7T15842   0.878  -0.004   5.582  0.5502  0.3685  0.3202
  144OSM    C8S15843   0.701  -0.122   5.642 -0.0277  0.4039  0.0927
  144OSM    H8S15844   0.636  -0.077   5.564 -1.2661  1.5280  1.6844
  144OSM    H8T15845   0.636  -0.138   5.731 -0.4972 -0.6300 -0.4253
  144OSM    C9S15846   0.756  -0.256   5.596 -0.5381 -0.0554 -0.6843
  144OSM    H9S15847   0.791  -0.302   5.691 -1.5756  2.5489  1.0551
  144OSM    H9T15848   0.844  -0.239   5.530 -0.1862  1.1504  0.0734
  144OSM   C10S15849   0.667  -0.360   5.520 -0.5345 -0.1252 -0.3112
  144OSM   H10S15850   0.577  -0.382   5.580  0.4240 -1.0272  0.8566
  144OSM   H10T15851   0.721  -0.455   5.496  0.4360  0.1828  0.5616
  144OSM   C11S15852   0.622  -0.311   5.380 -0.1264  0.1638 -0.1409
  144OSM   H11S15853   0.709  -0.266   5.328  0.7557  2.0272  2.7622
  144OSM   H11T15854   0.550  -0.229   5.398 -2.7885 -2.0482  0.0247
  144OSM   C12S15855   0.565  -0.413   5.275 -0.1435  0.8001  0.4498
  144OSM   H12S15856   0.472  -0.453   5.320 -1.7766  3.1398 -0.6717
  144OSM   H12T15857   0.632  -0.500   5.257 -1.0290  0.4003 -1.0253
  144OSM   C13S15858   0.537  -0.363   5.134 -0.0460 -0.1808 -0.0508
  144OSM   H13S15859   0.631  -0.314   5.103  1.0263  0.4499  3.6815
  144OSM   H13T15860   0.459  -0.284   5.131  1.9630  1.9138 -3.5795
  144OSM   C14S15861   0.494  -0.469   5.031 -0.0390 -0.6235  0.0886
  144OSM   H14S15862   0.401  -0.521   5.063 -0.6960 -0.3102 -1.2387
  144OSM   H14T15863   0.573  -0.546   5.023 -1.1830 -1.8773  0.5685
  144OSM   C15S15864   0.486  -0.399   4.893  0.0849 -0.3378  0.1596
  144OSM   H15S15865   0.572  -0.332   4.871 -0.2291 -0.3471 -1.1662
  144OSM   H15T15866   0.396  -0.335   4.890 -0.2038 -0.7269  0.4304
  144OSM   C16S15867   0.462  -0.509   4.792  0.1862  0.0105 -0.0008
  144OSM   H16S15868   0.375  -0.570   4.822 -0.5686  0.9654 -0.1757
  144OSM   H16T15869   0.548  -0.578   4.785 -0.2596 -0.4495 -1.3025
  144OSM   C17S15870   0.415  -0.470   4.652  0.1157 -0.4144  0.4433
  144OSM   H17S15871   0.305  -0.481   4.641  0.1935 -0.8072  0.0221
  144OSM   H17T15872   0.442  -0.555   4.584  0.7753  0.3294 -0.2409
  144OSM   C18S15873   0.477  -0.347   4.595  0.5909  0.5893 -0.1783
  144OSM   H18S15874   0.436  -0.259   4.648 -1.3570 -0.0535 -0.5310
  144OSM   H18T15875   0.452  -0.343   4.486  0.7478 -1.4230 -0.3393
  144OSM   H18U15876   0.587  -0.339   4.600  0.8261  1.2934 -3.6770
  144OSM    C1F15877   1.245   0.451   5.530  0.0634  0.0144 -0.2170
  144OSM     OF15878   1.340   0.375   5.502  0.2344 -0.2661 -0.4244
  144OSM    C2F15879   1.205   0.567   5.455  0.0628 -0.5684  0.5015
  144OSM    H2F15880   1.285   0.645   5.460  0.6466 -1.1136 -0.1246
  144OSM    H2G15881   1.102   0.607   5.469 -0.3299 -0.9561 -1.0922
  144OSM    C3F15882   1.201   0.533   5.305 -0.2214 -0.6918 -0.3188
  144OSM    H3F15883   1.119   0.461   5.284 -2.8768  2.1827 -0.6963
  144OSM    H3G15884   1.299   0.486   5.284  0.6605  0.1220  1.6806
  144OSM    C4F15885   1.155   0.658   5.221  0.4336 -0.2317 -0.1817
  144OSM    H4F15886   1.223   0.737   5.260 -0.0167 -0.5786  1.3731
  144OSM    H4G15887   1.050   0.682   5.246  0.9929  0.0454  2.0855
  144OSM    C5F15888   1.174   0.637   5.073 -0.0079 -0.1029 -0.3019
  144OSM    H5F15889   1.280   0.603   5.072  0.1626 -0.7091  5.4238
  144OSM    H5G15890   1.161   0.733   5.017  1.1896 -0.3582 -1.0537
  144OSM    C6F15891   1.077   0.530   5.015 -0.1404 -1.2357 -0.0294
  144OSM    H6F15892   0.978   0.577   5.030  1.0024  0.8409  1.5658
  144OSM    H6G15893   1.077   0.443   5.085  0.7670 -1.1478  0.0900
  144OSM    C7F15894   1.126   0.491   4.872  0.1752 -0.6528  0.0832
  144OSM    H7F15895   1.228   0.447   4.882  1.2291  1.4195 -0.7358
  144OSM    H7G15896   1.137   0.592   4.826 -0.4452  0.6784  2.6409
  144OSM    C8F15897   1.026   0.406   4.796 -0.1902 -0.5805 -0.1465
  144OSM    H8F15898   0.931   0.461   4.779  0.3472  0.7886  1.1291
  144OSM    H8G15899   0.999   0.315   4.854 -0.7701 -1.9304 -2.3710
  144OSM    C9F15900   1.099   0.359   4.670  0.7404  0.1104 -0.3111
  144OSM    H9F15901   1.196   0.403   4.644  1.1958 -1.4884 -1.4902
  144OSM   C10F15902   1.049   0.260   4.592  0.1577  0.5559  0.6288
  144OSM   H10F15903   1.105   0.235   4.501  0.2534  0.6521  0.6624
  144OSM   C11F15904   0.927   0.174   4.613  1.0873 -0.0216 -0.1947
  144OSM   H11F15905   0.839   0.198   4.550  0.6179  2.0882  1.1358
  144OSM   H11G15906   0.882   0.190   4.714 -1.4012  0.6609 -1.3239
  144OSM   C12F15907   0.953   0.028   4.606  0.4541 -0.7977  0.1610
  144OSM   H12F15908   1.046   0.003   4.662  0.6225 -2.1361 -0.6639
  144OSM   H12G15909   0.974   0.003   4.500 -2.2917 -0.8520 -0.4507
  144OSM   C13F15910   0.838  -0.066   4.651  0.1708  0.2845  0.0641
  144OSM   H13F15911   0.871  -0.171   4.641 -1.9969 -0.5593  1.1684
  144OSM   H13G15912   0.748  -0.051   4.587 -0.4027  0.2336  0.8434
  144OSM   C14F15913   0.795  -0.054   4.797  0.0453 -0.3701 -0.8945
  144OSM   H14F15914   0.740  -0.147   4.821 -2.2509  1.3685  1.1060
  144OSM   H14G15915   0.727   0.032   4.815  0.3980 -0.3518  0.4569
  144OSM   C15F15916   0.901  -0.034   4.899  0.0535  0.6001  0.2494
  144OSM   H15F15917   0.959   0.058   4.875  1.3553 -0.7290 -2.0791
  144OSM   H15G15918   0.966  -0.124   4.896 -0.6813  0.0691 -2.9075
  144OSM   C16F15919   0.846  -0.028   5.043 -0.0303  0.1186  0.0637
  144OSM   H16F15920   0.805  -0.126   5.077 -1.4817  0.3368 -1.0064
  144OSM   H16G15921   0.762   0.043   5.054 -0.5968 -0.7707  1.7951
  144OSM   C17F15922   0.951   0.018   5.143 -0.0554  0.9038  0.3452
  144OSM   H17F15923   0.977   0.119   5.104  1.6950  0.2440 -0.3436
  144OSM   H17G15924   1.047  -0.038   5.132 -0.2909  0.7582 -1.2559
  144OSM   C18F15925   0.906   0.029   5.289 -0.2513 -0.3312 -0.1995
  144OSM   H18F15926   0.900  -0.071   5.339  0.3646  0.1468  0.8617
  144OSM   H18G15927   0.812   0.088   5.290  0.8289  1.4620  0.9926
  144OSM   H18H15928   0.982   0.083   5.348 -1.1652 -0.1793  0.8621
  145OSM      N15929   1.284   4.954   6.909  0.9928 -0.6008  0.5053
  145OSM    C1515930   1.248   5.077   6.998 -0.8240  0.2184 -0.6500
  145OSM   H15A15931   1.241   5.059   7.104  0.7475 -1.2251 -0.7330
  145OSM   H15B15932   1.152   5.114   6.966 -2.0866 -0.3774  2.1975
  145OSM   H15C15933   1.316   5.158   6.976 -1.7618  0.6891 -1.9568
  145OSM    C1415934   1.430   4.925   6.936  0.4646 -0.6396  0.2417
  145OSM   H14A15935   1.450   4.837   6.876  2.3489  1.6638 -2.8156
  145OSM   H14B15936   1.451   4.894   7.037 -1.9321 -1.1046  0.6664
  145OSM   H14C15937   1.498   5.002   6.903 -0.6022 -0.1298 -0.8377
  145OSM    C1315938   1.207   4.842   6.955  0.4892  0.4278 -0.3696
  145OSM   H13A15939   1.102   4.865   6.949 -0.1778 -1.9003  1.0185
  145OSM   H13B15940   1.230   4.815   7.057  1.2251 -1.9040 -1.0826
  145OSM   H13C15941   1.234   4.762   6.888 -2.3517 -0.9013 -0.0617
  145OSM    C1215942   1.245   4.994   6.766 -0.2440  0.2629 -0.0678
  145OSM   H12A15943   1.294   5.087   6.739 -0.5384  0.4499  0.0458
  145OSM   H12B15944   1.138   5.007   6.763 -0.1919  1.7586  2.2521
  145OSM    C1115945   1.284   4.892   6.647  0.7874 -0.1537 -0.2174
  145OSM   H11A15946   1.394   4.904   6.638  0.8489 -0.8959 -0.5339
  145OSM   H11B15947   1.239   4.944   6.559  0.1205  1.0297  0.7947
  145OSM      P15948   1.100   4.719   6.625  0.8782 -0.3381 -0.4182
  145OSM    O1315949   1.084   4.576   6.663 -0.0145 -0.2153 -0.2815
  145OSM    O1415950   1.004   4.818   6.680  0.0207 -0.0055 -0.2621
  145OSM    O1115951   1.097   4.735   6.471 -0.1047  0.8194 -0.2704
  145OSM    O1215952   1.245   4.759   6.668 -0.2000  0.2543  0.1955
  145OSM    C1S15953   1.189   4.644   6.398  0.0084 -0.4780 -0.1760
  145OSM    H1S15954   1.156   4.539   6.415 -1.7562  0.0674 -0.0467
  145OSM    H1T15955   1.292   4.669   6.430 -0.1113 -0.3620  0.1233
  145OSM     NF15956   1.267   4.590   6.169 -0.6887 -0.1127  0.2750
  145OSM    HNF15957   1.351   4.625   6.127  0.1538 -1.6192  0.6091
  145OSM    C2S15958   1.179   4.675   6.251  0.1564 -0.6038 -0.1770
  145OSM    H2S15959   1.074   4.661   6.217 -0.2959  1.0499  0.4215
  145OSM    C3S15960   1.202   4.839   6.226  0.1954 -0.0498 -0.2283
  145OSM    H3S15961   1.301   4.868   6.266 -1.0445  2.8649  0.9686
  145OSM     O315962   1.108   4.924   6.283 -0.1640  0.1121 -0.0247
  145OSM    HO315963   1.060   4.872   6.347 -0.4962  0.2713 -0.1420
  145OSM    C4S15964   1.199   4.871   6.081  0.1135  0.4657  0.1774
  145OSM    H4S15965   1.133   4.800   6.029 -0.0920 -0.0465  1.1020
  145OSM    C5S15966   1.283   4.942   6.012  0.1671 -0.9550 -0.0810
  145OSM    H5S15967   1.375   4.979   6.060 -0.0082 -1.0087  0.2956
  145OSM    C6S15968   1.282   4.952   5.861 -0.0147  0.9070  0.1116
  145OSM    H6S15969   1.311   5.053   5.826  1.3098  0.5192  0.0060
  145OSM    H6T15970   1.181   4.930   5.821  0.2434  0.7106 -0.4389
  145OSM    C7S15971   1.381   4.853   5.800  0.2484 -0.4385  0.1528
  145OSM    H7S15972   1.357   4.747   5.822  3.1471 -0.4700  4.4556
  145OSM    H7T15973   1.480   4.881   5.842  1.2493 -1.4866 -1.3953
  145OSM    C8S15974   1.392   4.844   5.648 -0.4723  0.8422 -0.2787
  145OSM    H8S15975   1.399   4.945   5.601 -0.0749  1.0927  0.3091
  145OSM    H8T15976   1.306   4.789   5.606  1.5693 -0.9898 -2.2926
  145OSM    C9S15977   1.519   4.771   5.609 -0.1248 -0.0938  0.6327
  145OSM    H9S15978   1.537   4.699   5.692 -0.0369 -1.2428 -0.3610
  145OSM    H9T15979   1.603   4.844   5.616 -0.4459  0.4573 -0.9706
  145OSM   C10S15980   1.513   4.695   5.475  1.1821  0.0767  0.5520
  145OSM   H10S15981   1.432   4.619   5.482  0.2270  1.0852  0.7654
  145OSM   H10T15982   1.610   4.643   5.462  0.5786 -0.8734 -0.3571
  145OSM   C11S15983   1.482   4.788   5.361  0.3756  0.1744  0.3272
  145OSM   H11S15984   1.567   4.855   5.338  0.8621 -0.7101 -0.5372
  145OSM   H11T15985   1.398   4.858   5.384  0.3850  0.7252 -1.1877
  145OSM   C12S15986   1.439   4.729   5.224 -0.0180 -0.3279 -0.1730
  145OSM   H12S15987   1.446   4.821   5.162  0.4951 -0.6768 -0.6432
  145OSM   H12T15988   1.339   4.691   5.251  0.0314 -1.2493 -1.2317
  145OSM   C13S15989   1.522   4.611   5.173 -0.7309 -0.3668  0.4443
  145OSM   H13S15990   1.504   4.520   5.233  0.9547 -0.8798  0.2061
  145OSM   H13T15991   1.628   4.640   5.189 -0.8657  0.6199 -0.3171
  145OSM   C14S15992   1.494   4.591   5.028  0.5886  0.4164  0.1561
  145OSM   H14S15993   1.493   4.689   4.976 -0.1921  1.5554  2.2067
  145OSM   H14T15994   1.397   4.541   5.006  1.3310 -0.2359 -1.9009
  145OSM   C15S15995   1.592   4.491   4.953  0.3844 -0.0297  0.2616
  145OSM   H15S15996   1.554   4.390   4.979 -1.2936  0.5226  0.0697
  145OSM   H15T15997   1.694   4.519   4.985  0.4879  0.1963 -0.2603
  145OSM   C16S15998   1.567   4.500   4.806 -0.8820  0.8408  0.3208
  145OSM   H16S15999   1.586   4.607   4.781 -0.2082  0.6097 -0.1920
  145OSM   H16T16000   1.465   4.468   4.776  0.2011 -1.7194 -0.9288
  145OSM   C17S16001   1.662   4.409   4.725 -0.3233  0.1831 -0.2373
  145OSM   H17S16002   1.739   4.382   4.801 -2.6123 -1.9128  1.5052
  145OSM   H17T16003   1.713   4.469   4.647  1.4475 -0.3964  0.4428
  145OSM   C18S16004   1.596   4.285   4.670  0.3861 -0.6317  0.1476
  145OSM   H18S16005   1.661   4.223   4.604 -1.0663 -0.4172 -1.5696
  145OSM   H18T16006   1.512   4.315   4.604  1.4760  0.5694 -0.7632
  145OSM   H18U16007   1.558   4.219   4.750  2.7756 -2.2875  0.0203
  145OSM    C1F16008   1.247   4.462   6.150 -0.1461  0.4212  0.5901
  145OSM     OF16009   1.151   4.408   6.209  0.0578 -0.5013 -0.0277
  145OSM    C2F16010   1.337   4.389   6.054  0.4504  0.5566 -0.2466
  145OSM    H2F16011   1.422   4.341   6.108 -0.7788 -1.6576 -0.1892
  145OSM    H2G16012   1.368   4.457   5.972  0.3643 -1.0935 -1.6957
  145OSM    C3F16013   1.266   4.265   5.992  0.1937 -0.1567 -0.3607
  145OSM    H3F16014   1.232   4.195   6.071 -0.7598 -0.7423 -1.2620
  145OSM    H3G16015   1.346   4.216   5.933 -0.2441 -0.9642 -0.2916
  145OSM    C4F16016   1.148   4.297   5.904  0.0442  0.3673  0.3113
  145OSM    H4F16017   1.189   4.377   5.839 -0.1103 -0.2801 -0.6052
  145OSM    H4G16018   1.064   4.344   5.961 -0.0245 -1.4795  1.8236
  145OSM    C5F16019   1.089   4.177   5.826 -0.4626  0.0443  0.1313
  145OSM    H5F16020   1.057   4.103   5.903 -1.0506  1.7478  1.5872
  145OSM    H5G16021   1.176   4.142   5.766  0.0955 -1.1747  1.6011
  145OSM    C6F16022   0.973   4.205   5.729 -0.0955  0.1206 -0.1283
  145OSM    H6F16023   0.893   4.240   5.797  2.0154  2.4968  1.3378
  145OSM    H6G16024   0.951   4.112   5.672  1.6695  1.3540 -3.0774
  145OSM    C7F16025   0.984   4.310   5.620 -0.2154  0.1246  0.4032
  145OSM    H7F16026   1.018   4.405   5.667  1.3584  1.2317 -2.6514
  145OSM    H7G16027   0.894   4.326   5.558 -0.9111 -1.4765  0.9613
  145OSM    C8F16028   1.099   4.271   5.522  0.2469  1.0463  0.0121
  145OSM    H8F16029   1.061   4.187   5.460 -0.7243  1.1262  0.4849
  145OSM    H8G16030   1.188   4.234   5.578 -0.0372  0.5391  0.1358
  145OSM    C9F16031   1.143   4.391   5.439 -0.0315 -0.1363 -0.1350
  145OSM    H9F16032   1.137   4.493   5.481 -0.7320 -0.0965 -0.3104
  145OSM   C10F16033   1.182   4.392   5.308  0.3730 -0.2801  0.3480
  145OSM   H10F16034   1.204   4.489   5.260  1.1628 -0.4574  0.3261
  145OSM   C11F16035   1.188   4.274   5.218  0.7192 -0.0174 -0.0646
  145OSM   H11F16036   1.130   4.192   5.266 -0.4105  1.7379  1.7604
  145OSM   H11G16037   1.295   4.249   5.204  1.0937  1.4947 -0.0781
  145OSM   C12F16038   1.126   4.292   5.073 -0.0468 -0.3078 -0.4819
  145OSM   H12F16039   1.168   4.384   5.027  0.0566  1.3279  2.6305
  145OSM   H12G16040   1.015   4.294   5.071 -0.0314  0.7052 -1.3844
  145OSM   C13F16041   1.162   4.185   4.972 -0.1410  0.0117 -0.6184
  145OSM   H13F16042   1.173   4.080   5.007  0.4690 -0.1006 -1.1281
  145OSM   H13G16043   1.266   4.200   4.937  0.3658  0.6175  1.0442
  145OSM   C14F16044   1.072   4.186   4.851 -0.2042  0.3574 -0.9737
  145OSM   H14F16045   1.030   4.289   4.851  0.1317  0.4944 -0.9142
  145OSM   H14G16046   0.999   4.106   4.877 -1.1854  2.1442  2.4694
  145OSM   C15F16047   1.151   4.161   4.727 -0.6769 -0.5257 -0.1617
  145OSM   H15F16048   1.216   4.072   4.740 -1.6318 -1.0323  1.3281
  145OSM   H15G16049   1.211   4.255   4.717  1.0913 -1.6866 -0.9273
  145OSM   C16F16050   1.063   4.148   4.599 -0.9397  0.2774  0.4339
  145OSM   H16F16051   1.025   4.252   4.592 -0.6513  0.3936  0.5737
  145OSM   H16G16052   0.971   4.088   4.615 -0.0747 -0.8413  1.3687
  145OSM   C17F16053   1.138   4.094   4.469  0.0430 -0.6444 -0.3383
  145OSM   H17F16054   1.067   4.056   4.392 -1.2947  0.4637  0.3240
  145OSM   H17G16055   1.203   4.008   4.497 -0.3107 -0.0180  2.6930
  145OSM   C18F16056   1.224   4.197   4.401 -0.3282 -0.0938 -0.0373
  145OSM   H18F16057   1.307   4.225   4.470 -1.3158 -0.0646  1.1585
  145OSM   H18G16058   1.161   4.284   4.371  0.8447  0.2082 -1.8021
  145OSM   H18H16059   1.260   4.153   4.305 -3.1274 -0.6307 -0.9124
  146OSM      N16060   4.256   5.103   6.828  0.1571 -0.8938  0.3898
  146OSM    C1516061   4.399   5.059   6.806  0.0772  0.1920  0.1574
  146OSM   H15A16062   4.419   4.954   6.823  0.4684  0.2227 -0.0996
  146OSM   H15B16063   4.463   5.114   6.874  0.7719  0.8748 -1.0223
  146OSM   H15C16064   4.436   5.078   6.707 -0.4424  1.1169  0.1407
  146OSM    C1416065   4.166   5.034   6.732  0.4670 -0.1528  0.0489
  146OSM   H14A16066   4.207   5.033   6.632  0.2911 -0.7457 -0.0212
  146OSM   H14B16067   4.067   5.076   6.721  0.4402 -0.2357 -0.0262
  146OSM   H14C16068   4.152   4.931   6.760  0.9951 -0.5038 -0.9357
  146OSM    C1316069   4.211   5.084   6.968  0.4975 -0.0739 -0.4206
  146OSM   H13A16070   4.281   5.128   7.036 -1.3044  0.3977  1.2093
  146OSM   H13B16071   4.198   4.978   6.982 -1.6066  0.1842 -0.0759
  146OSM   H13C16072   4.116   5.125   6.998 -0.5579 -1.6925 -1.3959
  146OSM    C1216073   4.237   5.256   6.795  0.1140 -0.2584 -0.6205
  146OSM   H12A16074   4.136   5.285   6.820 -0.0073 -2.1209  1.4396
  146OSM   H12B16075   4.239   5.279   6.690 -0.5875  2.7633 -0.0737
  146OSM    C1116076   4.333   5.352   6.862  0.3877 -0.0343 -0.3528
  146OSM   H11A16077   4.319   5.351   6.972 -2.6950  1.6739 -0.5846
  146OSM   H11B16078   4.289   5.451   6.836  0.9795 -0.0889 -1.6594
  146OSM      P16079   4.547   5.462   6.758 -0.1636 -0.2856 -0.2077
  146OSM    O1316080   4.461   5.519   6.644 -0.2548  0.3020 -0.8531
  146OSM    O1416081   4.585   5.555   6.863  0.0669  0.2248 -0.2108
  146OSM    O1116082   4.674   5.384   6.696  0.2219 -0.2774  0.4842
  146OSM    O1216083   4.469   5.340   6.825 -0.9585 -0.1949 -0.5727
  146OSM    C1S16084   4.671   5.258   6.630 -0.0498  0.9542  0.0791
  146OSM    H1S16085   4.594   5.194   6.678  0.0856  2.0527  1.8841
  146OSM    H1T16086   4.763   5.198   6.646 -0.7933  0.3113  2.2740
  146OSM     NF16087   4.662   5.138   6.415 -0.1151  0.3009  0.4986
  146OSM    HNF16088   4.754   5.125   6.378 -0.5524 -2.0131  0.0618
  146OSM    C2S16089   4.642   5.270   6.477 -0.0222 -0.0792  0.0147
  146OSM    H2S16090   4.534   5.295   6.462  0.0363  0.8242  0.9720
  146OSM    C3S16091   4.726   5.385   6.413 -0.1194  0.0158 -1.1230
  146OSM    H3S16092   4.831   5.351   6.427 -0.9074 -1.9576  0.3752
  146OSM     O316093   4.721   5.521   6.469 -0.1732 -0.2632 -0.1914
  146OSM    HO316094   4.682   5.511   6.556  1.2518 -0.5737  0.4391
  146OSM    C4S16095   4.686   5.399   6.276 -0.3666 -0.3866 -0.0920
  146OSM    H4S16096   4.587   5.446   6.262  0.6664  1.3524 -2.2189
  146OSM    C5S16097   4.758   5.379   6.165  0.1263 -0.0587  0.5484
  146OSM    H5S16098   4.858   5.336   6.180 -1.1097 -2.5518  2.3199
  146OSM    C6S16099   4.728   5.410   6.022 -0.1378  0.1926 -0.1021
  146OSM    H6S16100   4.732   5.316   5.963  0.4933 -1.1435  1.9368
  146OSM    H6T16101   4.802   5.476   5.972 -0.9375 -0.5905 -2.4637
  146OSM    C7S16102   4.590   5.471   5.990 -0.2845  0.4076  0.3691
  146OSM    H7S16103   4.571   5.550   6.066 -2.8021  1.1575 -0.9343
  146OSM    H7T16104   4.510   5.394   5.999  0.4769 -0.5739 -1.0224
  146OSM    C8S16105   4.578   5.520   5.843 -0.3550  0.5856 -0.3677
  146OSM    H8S16106   4.637   5.611   5.819  0.8516 -0.1408 -0.2491
  146OSM    H8T16107   4.473   5.553   5.829  0.0976  1.5907 -1.5583
  146OSM    C9S16108   4.605   5.403   5.742 -0.5507  0.0706  0.3323
  146OSM    H9S16109   4.551   5.311   5.774 -1.7055  0.6653  0.1717
  146OSM    H9T16110   4.711   5.372   5.752 -0.1007  1.1888 -0.7773
  146OSM   C10S16111   4.584   5.445   5.600  0.3077  0.6270  0.2861
  146OSM   H10S16112   4.651   5.532   5.580  1.4638 -0.7599 -2.4240
  146OSM   H10T16113   4.478   5.473   5.582 -0.2861 -1.3728  0.4385
  146OSM   C11S16114   4.611   5.340   5.496 -0.8188  0.4806  0.2468
  146OSM   H11S16115   4.532   5.262   5.504  1.5761 -2.1236  0.2140
  146OSM   H11T16116   4.693   5.277   5.537 -0.8971 -0.9456 -1.6157
  146OSM   C12S16117   4.651   5.394   5.355 -0.5380  0.2418 -0.2750
  146OSM   H12S16118   4.719   5.320   5.308 -0.3887 -0.1445  0.5228
  146OSM   H12T16119   4.700   5.494   5.352  1.1227 -0.4144  2.0571
  146OSM   C13S16120   4.520   5.399   5.268  0.2269 -0.8322 -0.1811
  146OSM   H13S16121   4.451   5.478   5.306  0.8304 -1.0973  1.5317
  146OSM   H13T16122   4.470   5.302   5.287 -2.6777  0.3611 -1.1995
  146OSM   C14S16123   4.545   5.420   5.121  0.2657 -0.1149  0.6272
  146OSM   H14S16124   4.448   5.462   5.086  0.8346  1.9370  1.3703
  146OSM   H14T16125   4.578   5.327   5.071  0.5881  0.0681  0.4956
  146OSM   C15S16126   4.660   5.520   5.087  0.0101  0.0197  0.3508
  146OSM   H15S16127   4.760   5.482   5.116  0.6786  1.0360 -0.5331
  146OSM   H15T16128   4.638   5.616   5.139  2.0860  1.7817 -1.7920
  146OSM   C16S16129   4.672   5.570   4.942 -0.0796 -0.3644  0.3768
  146OSM   H16S16130   4.741   5.658   4.937 -1.4982  0.7626 -3.3833
  146OSM   H16T16131   4.574   5.616   4.920  0.1795 -0.0020 -0.0548
  146OSM   C17S16132   4.696   5.473   4.824 -0.2612 -0.4261 -0.1956
  146OSM   H17S16133   4.617   5.396   4.819 -0.8677  0.2216 -0.7109
  146OSM   H17T16134   4.791   5.416   4.836 -0.4300 -0.5751  0.5004
  146OSM   C18S16135   4.682   5.551   4.691  1.1020  0.3510  0.4768
  146OSM   H18S16136   4.660   5.477   4.611 -3.5668  2.0803 -0.1847
  146OSM   H18T16137   4.767   5.615   4.662 -1.6890  3.1523 -2.3193
  146OSM   H18U16138   4.591   5.614   4.685 -0.9730 -2.5814 -2.5073
  146OSM    C1F16139   4.580   5.033   6.443  0.3563 -0.3178  0.0723
  146OSM     OF16140   4.479   5.036   6.512  0.1170 -0.4230  0.2969
  146OSM    C2F16141   4.620   4.901   6.381 -0.2615  0.0390  0.2473
  146OSM    H2F16142   4.585   4.820   6.448 -0.8355  0.8242  0.9136
  146OSM    H2G16143   4.731   4.900   6.377 -0.2335  0.1581  0.9645
  146OSM    C3F16144   4.560   4.879   6.241  0.2796 -0.1073  0.8807
  146OSM    H3F16145   4.449   4.867   6.245  0.1103  0.5256 -0.9476
  146OSM    H3G16146   4.617   4.793   6.200 -0.1315  0.1623 -0.2996
  146OSM    C4F16147   4.585   4.995   6.137 -0.2472  0.0266  0.0354
  146OSM    H4F16148   4.689   5.034   6.144 -0.0933 -0.5064  0.9536
  146OSM    H4G16149   4.515   5.074   6.172  1.9584  1.3172  1.7626
  146OSM    C5F16150   4.531   4.954   5.996  0.4201  1.2124 -0.2776
  146OSM    H5F16151   4.432   4.906   6.015  2.1741 -1.8828  2.0118
  146OSM    H5G16152   4.594   4.869   5.962 -1.8592 -1.2096  1.1164
  146OSM    C6F16153   4.523   5.062   5.892  0.0673  0.5413  0.6502
  146OSM    H6F16154   4.622   5.100   5.859  0.5952 -0.9732  0.4370
  146OSM    H6G16155   4.462   5.149   5.925 -1.0469  0.9058 -2.0785
  146OSM    C7F16156   4.448   5.016   5.759 -0.1070  0.8068 -0.1005
  146OSM    H7F16157   4.455   5.105   5.693 -0.7705  0.5744 -0.4907
  146OSM    H7G16158   4.345   4.987   5.787  0.3288 -0.8853 -0.1127
  146OSM    C8F16159   4.513   4.884   5.702 -0.3352  0.1818 -0.8031
  146OSM    H8F16160   4.512   4.817   5.790  3.7486  2.6566  1.4418
  146OSM    H8G16161   4.620   4.903   5.679 -0.4911  1.1244 -0.7901
  146OSM    C9F16162   4.420   4.838   5.586 -0.5167  0.2668 -0.0356
  146OSM    H9F16163   4.341   4.769   5.618  1.9383 -2.0120  1.5464
  146OSM   C10F16164   4.432   4.871   5.460  0.0040 -0.2193  0.8145
  146OSM   H10F16165   4.364   4.828   5.385 -0.1132  3.0048 -1.1422
  146OSM   C11F16166   4.540   4.962   5.396 -0.6152 -0.3816 -0.1200
  146OSM   H11F16167   4.614   4.884   5.369 -1.2422 -0.6272 -1.1867
  146OSM   H11G16168   4.587   5.034   5.466 -2.4886  1.0665 -0.2497
  146OSM   C12F16169   4.514   5.045   5.264 -0.3231  0.3082  0.3012
  146OSM   H12F16170   4.585   5.130   5.254 -0.1695 -0.0031 -1.5067
  146OSM   H12G16171   4.418   5.101   5.269 -1.1072 -0.9581 -0.1428
  146OSM   C13F16172   4.510   4.954   5.135  0.2700 -0.4769 -0.0101
  146OSM   H13F16173   4.420   4.891   5.152  0.6065 -0.8526  0.4286
  146OSM   H13G16174   4.602   4.892   5.127  0.9501  0.2685  1.5890
  146OSM   C14F16175   4.475   5.039   5.010 -0.1892  0.1630 -0.4264
  146OSM   H14F16176   4.407   5.123   5.034  1.3522  1.1814  0.5363
  146OSM   H14G16177   4.562   5.101   4.978 -0.2469  0.0034 -0.9033
  146OSM   C15F16178   4.420   4.939   4.903  0.6697  0.3273  0.1553
  146OSM   H15F16179   4.389   4.982   4.806 -0.5766 -0.7066  0.0677
  146OSM   H15G16180   4.333   4.881   4.941  0.5394 -1.6912 -2.9078
  146OSM   C16F16181   4.536   4.836   4.868 -0.2861 -0.2446 -0.0391
  146OSM   H16F16182   4.544   4.766   4.954  3.7407  1.8121  1.5329
  146OSM   H16G16183   4.633   4.890   4.866  0.6834 -1.9037  0.6042
  146OSM   C17F16184   4.515   4.768   4.734  0.5379  0.1830 -0.5041
  146OSM   H17F16185   4.499   4.838   4.649  1.5189  0.7700 -0.2233
  146OSM   H17G16186   4.428   4.701   4.752 -0.6771  2.3175  2.6411
  146OSM   C18F16187   4.627   4.680   4.681  0.1390 -0.0475 -0.1359
  146OSM   H18F16188   4.717   4.739   4.656 -0.3582  0.8163  0.0944
  146OSM   H18G16189   4.584   4.630   4.591 -1.1645 -1.4052  1.1620
  146OSM   H18H16190   4.645   4.612   4.767 -0.9184  0.0991  0.2156
  147OSM      N16191   4.577   0.147   2.339 -0.2958  0.2842 -0.1099
  147OSM    C1516192   4.690   0.067   2.281 -0.5468 -0.3620  0.6238
  147OSM   H15A16193   4.653  -0.014   2.221  1.7190  0.4323 -2.0348
  147OSM   H15B16194   4.756   0.026   2.355  2.4521  0.9120 -1.1687
  147OSM   H15C16195   4.752   0.123   2.212 -0.3743 -1.1081  0.1719
  147OSM    C1416196   4.646   0.251   2.420 -0.3078 -0.1910 -0.1064
  147OSM   H14A16197   4.696   0.215   2.509 -0.4043 -0.5001 -0.1744
  147OSM   H14B16198   4.582   0.326   2.464  0.2172  1.4051 -1.9135
  147OSM   H14C16199   4.724   0.301   2.366 -0.6227  0.7661  0.2996
  147OSM    C1316200   4.486   0.210   2.243  0.2075  0.4780  0.4694
  147OSM   H13A16201   4.550   0.262   2.174  1.3935 -1.1267  0.2868
  147OSM   H13B16202   4.413   0.275   2.287 -1.0262 -0.8433  0.4668
  147OSM   H13C16203   4.426   0.135   2.192  3.0840 -1.6750 -0.0216
  147OSM    C1216204   4.497   0.065   2.439  0.2807 -0.8739  0.3330
  147OSM   H12A16205   4.422   0.124   2.489 -0.9318  0.4216 -2.7389
  147OSM   H12B16206   4.564   0.030   2.516  1.2294 -1.5438 -0.7599
  147OSM    C1116207   4.413  -0.055   2.386 -0.0962  0.6801 -0.1138
  147OSM   H11A16208   4.338  -0.014   2.314  0.1275 -1.0734 -1.4071
  147OSM   H11B16209   4.350  -0.095   2.468 -0.8547  1.1053 -0.4747
  147OSM      P16210   4.486  -0.295   2.335  0.2771 -0.2397  0.4185
  147OSM    O1316211   4.339  -0.326   2.337 -0.5546  0.4897 -0.8682
  147OSM    O1416212   4.572  -0.370   2.244 -0.1800 -0.5082  0.2472
  147OSM    O1116213   4.549  -0.286   2.480  0.1035  0.1387 -0.4682
  147OSM    O1216214   4.499  -0.139   2.299 -0.3637 -0.1349 -0.0687
  147OSM    C1S16215   4.666  -0.226   2.524  0.7433  0.2182 -0.6486
  147OSM    H1S16216   4.675  -0.122   2.485 -2.1776 -0.0571 -2.3137
  147OSM    H1T16217   4.759  -0.277   2.491  2.4017  0.9666  2.4610
  147OSM     NF16218   4.788  -0.133   2.723 -0.4317 -0.5075 -0.6599
  147OSM    HNF16219   4.873  -0.184   2.738 -1.3795 -2.0722 -0.3834
  147OSM    C2S16220   4.675  -0.216   2.681  0.3349  0.5136  0.1053
  147OSM    H2S16221   4.584  -0.162   2.716  0.8843  0.2539  2.0583
  147OSM    C3S16222   4.673  -0.366   2.741  0.6314  0.0023 -0.6746
  147OSM    H3S16223   4.750  -0.428   2.691  0.6635  0.6364 -1.4432
  147OSM     O316224   4.555  -0.439   2.712  1.0279 -0.1226  0.6504
  147OSM    HO316225   4.517  -0.385   2.642 -1.0945  0.4377  2.1505
  147OSM    C4S16226   4.692  -0.361   2.889  0.4388 -0.4425  0.6855
  147OSM    H4S16227   4.634  -0.285   2.942 -1.4172  0.2225 -2.0670
  147OSM    C5S16228   4.788  -0.418   2.967 -0.1198  0.6689 -0.0434
  147OSM    H5S16229   4.866  -0.474   2.913  1.7420  1.0215  2.1227
  147OSM    C6S16230   4.812  -0.391   3.121  0.3586  0.3504 -0.5184
  147OSM    H6S16231   4.757  -0.467   3.181  1.4825 -2.8522 -3.1809
  147OSM    H6T16232   4.779  -0.286   3.138  3.5665  1.2765  0.6206
  147OSM    C7S16233   4.957  -0.376   3.164  0.4821 -0.0110  0.0096
  147OSM    H7S16234   4.993  -0.293   3.099 -2.5755 -0.6761 -2.8507
  147OSM    H7T16235   5.010  -0.470   3.137 -0.6232 -0.4625 -0.6532
  147OSM    C8S16236   4.970  -0.337   3.313  0.3171  0.1341  0.7109
  147OSM    H8S16237   4.910  -0.247   3.341  1.0522  0.3637  1.5861
  147OSM    H8T16238   5.078  -0.314   3.328  0.6412 -0.6252 -0.3603
  147OSM    C9S16239   4.932  -0.449   3.405  0.1280  0.5134  0.0245
  147OSM    H9S16240   4.995  -0.537   3.379 -1.6826 -0.5460 -1.0650
  147OSM    H9T16241   4.825  -0.475   3.387  0.2468  1.4792 -2.5035
  147OSM   C10S16242   4.960  -0.418   3.556 -0.2371 -0.6891 -0.0996
  147OSM   H10S16243   4.866  -0.374   3.595 -0.8911 -0.4395 -1.8339
  147OSM   H10T16244   5.041  -0.342   3.562  0.7500 -1.4501 -2.5103
  147OSM   C11S16245   4.989  -0.534   3.645  0.1494  0.1364 -0.2023
  147OSM   H11S16246   5.053  -0.608   3.592 -0.4332 -0.8004  0.3760
  147OSM   H11T16247   4.899  -0.594   3.672  0.2750 -0.6801 -1.4791
  147OSM   C12S16248   5.070  -0.480   3.771 -0.1349 -0.6850  0.3491
  147OSM   H12S16249   5.004  -0.399   3.811  0.1536  0.2942 -1.0810
  147OSM   H12T16250   5.160  -0.433   3.725 -2.2422  2.1417 -1.2580
  147OSM   C13S16251   5.109  -0.587   3.868  0.7419  0.2395  0.4431
  147OSM   H13S16252   5.167  -0.667   3.817 -0.0173  0.4554 -0.8132
  147OSM   H13T16253   5.017  -0.639   3.903  1.0369  0.3312  1.3875
  147OSM   C14S16254   5.170  -0.531   3.995 -0.4024 -0.2030 -0.1360
  147OSM   H14S16255   5.164  -0.607   4.076 -2.6316  0.7898  0.6960
  147OSM   H14T16256   5.122  -0.437   4.027 -1.5249 -1.5218  2.3135
  147OSM   C15S16257   5.317  -0.481   3.960  0.0606 -0.3492 -0.6167
  147OSM   H15S16258   5.292  -0.410   3.878 -2.5527  0.8371  1.1096
  147OSM   H15T16259   5.377  -0.564   3.915  1.7424 -0.7530  2.1255
  147OSM   C16S16260   5.401  -0.426   4.077  0.4433  0.2648 -0.0724
  147OSM   H16S16261   5.497  -0.398   4.029  0.7477  0.2734  0.5296
  147OSM   H16T16262   5.407  -0.501   4.159 -2.2530  1.6514  1.5564
  147OSM   C17S16263   5.341  -0.301   4.147 -0.7373  0.3024  0.7273
  147OSM   H17S16264   5.249  -0.330   4.202  1.0360 -0.6255  3.4042
  147OSM   H17T16265   5.323  -0.219   4.074 -0.0677 -0.4295 -0.2831
  147OSM   C18S16266   5.439  -0.244   4.256 -0.3349 -0.6760  0.2371
  147OSM   H18S16267   5.536  -0.214   4.211 -0.6372  2.6595  1.4800
  147OSM   H18T16268   5.468  -0.325   4.326 -3.7667 -0.7316  1.8017
  147OSM   H18U16269   5.406  -0.156   4.316  1.3774 -1.3250  2.2733
  147OSM    C1F16270   4.787  -0.002   2.703 -0.3653  0.3961  0.2408
  147OSM     OF16271   4.687   0.056   2.666  0.1211 -0.2725 -0.6845
  147OSM    C2F16272   4.917   0.071   2.726 -0.0145  0.5561  0.0536
  147OSM    H2F16273   4.985   0.073   2.638 -0.4307 -0.5557 -0.3048
  147OSM    H2G16274   4.967  -0.005   2.789 -1.1868 -1.2247 -1.0873
  147OSM    C3F16275   4.905   0.213   2.785 -0.5480 -0.0423  0.7363
  147OSM    H3F16276   4.841   0.281   2.724  2.3018  0.3492 -2.0874
  147OSM    H3G16277   5.013   0.239   2.780 -0.3373 -1.0785 -0.6990
  147OSM    C4F16278   4.859   0.212   2.931  0.4075  0.1774 -0.1933
  147OSM    H4F16279   4.752   0.188   2.946 -0.0321  1.4312 -1.1202
  147OSM    H4G16280   4.864   0.321   2.954  0.6216 -0.6290  4.3978
  147OSM    C5F16281   4.955   0.136   3.021  0.0275 -0.3592 -0.0434
  147OSM    H5F16282   5.060   0.171   3.022 -0.4974  1.7593  4.2412
  147OSM    H5G16283   4.960   0.029   2.992  2.5777 -0.0413 -0.9552
  147OSM    C6F16284   4.915   0.156   3.167 -1.1277  0.4384  0.0973
  147OSM    H6F16285   4.813   0.115   3.181 -0.4556 -1.4431 -0.2893
  147OSM    H6G16286   4.909   0.265   3.190  0.7322  1.0955 -2.1743
  147OSM    C7F16287   5.020   0.109   3.270 -0.4952  0.1985 -0.0539
  147OSM    H7F16288   5.122   0.144   3.242 -0.6390 -0.5918 -1.6834
  147OSM    H7G16289   5.016  -0.001   3.286 -1.0283  0.1435 -0.5201
  147OSM    C8F16290   4.991   0.171   3.409  0.0264 -0.5473 -1.5926
  147OSM    H8F16291   4.890   0.140   3.443  1.3616  0.9052  5.2574
  147OSM    H8G16292   4.967   0.279   3.416 -2.3421 -1.1024  3.1884
  147OSM    C9F16293   5.101   0.135   3.513  0.3663 -0.0695  0.1459
  147OSM    H9F16294   5.188   0.202   3.509 -0.1212  0.5116 -1.1798
  147OSM   C10F16295   5.100   0.047   3.614  0.7872  0.2084 -0.0579
  147OSM   H10F16296   5.182   0.045   3.687 -1.4193 -1.2627  2.5378
  147OSM   C11F16297   4.993  -0.048   3.658 -0.7198 -0.1972  0.1056
  147OSM   H11F16298   5.031  -0.152   3.651 -2.1888 -0.7075 -0.3942
  147OSM   H11G16299   4.897  -0.045   3.603 -1.9212  2.0373  2.1329
  147OSM   C12F16300   4.943  -0.039   3.806 -0.1903  0.3598  0.9538
  147OSM   H12F16301   4.859  -0.112   3.804  0.8090 -0.8530  1.7284
  147OSM   H12G16302   4.893   0.059   3.816 -1.0013 -0.1391  2.0038
  147OSM   C13F16303   5.042  -0.064   3.927  1.0226  0.4803  0.1946
  147OSM   H13F16304   5.119   0.016   3.934  0.4702  0.9122  1.8491
  147OSM   H13G16305   5.102  -0.157   3.920  2.9573  1.5658  1.2760
  147OSM   C14F16306   4.945  -0.079   4.050  0.1629 -0.8343  0.0698
  147OSM   H14F16307   4.868  -0.150   4.014  0.9844 -0.5046 -2.5888
  147OSM   H14G16308   4.901   0.023   4.059  1.2372 -0.4249  1.0085
  147OSM   C15F16309   5.027  -0.117   4.173 -0.1448 -0.0645  0.0342
  147OSM   H15F16310   5.127  -0.070   4.175  1.4089 -3.1424  0.6957
  147OSM   H15G16311   5.053  -0.225   4.163  0.3508  0.0017  0.5639
  147OSM   C16F16312   4.960  -0.093   4.308 -0.3726 -0.2834 -0.4314
  147OSM   H16F16313   4.852  -0.121   4.299 -0.3752 -0.8528  1.1781
  147OSM   H16G16314   4.955   0.017   4.317 -2.9705 -0.3220 -0.6590
  147OSM   C17F16315   5.014  -0.168   4.434  0.1105 -0.3191 -0.1660
  147OSM   H17F16316   5.120  -0.138   4.449 -0.3806  1.0675  0.7419
  147OSM   H17G16317   5.011  -0.277   4.412  0.6717 -0.1463 -1.1718
  147OSM   C18F16318   4.918  -0.148   4.558 -1.1709 -0.1665 -0.3300
  147OSM   H18F16319   4.810  -0.148   4.531 -1.3498 -2.7625  0.1549
  147OSM   H18G16320   4.941  -0.055   4.614 -0.2881 -1.1195  0.9597
  147OSM   H18H16321   4.941  -0.225   4.635  0.0092  2.1650  1.7982
  148OSM      N16322   0.753   0.800   2.203  0.5677 -0.9350 -1.1458
  148OSM    C1516323   0.696   0.710   2.095  0.8350 -0.3343  0.0828
  148OSM   H15A16324   0.632   0.631   2.132 -0.5535  0.7111 -0.0061
  148OSM   H15B16325   0.770   0.661   2.033 -1.5573 -1.8355 -1.8121
  148OSM   H15C16326   0.640   0.779   2.034 -0.7517 -1.4382  0.2106
  148OSM    C1416327   0.832   0.907   2.129  0.0842 -0.0301 -0.6763
  148OSM   H14A16328   0.772   0.996   2.116  0.8993  0.3756 -1.8111
  148OSM   H14B16329   0.872   0.869   2.036  2.5998  1.1171 -0.1388
  148OSM   H14C16330   0.907   0.930   2.202 -1.8287 -2.1526  2.1923
  148OSM    C1316331   0.646   0.861   2.288 -0.3919 -0.4981 -0.3248
  148OSM   H13A16332   0.598   0.932   2.224  0.1600 -1.3790 -1.7605
  148OSM   H13B16333   0.693   0.912   2.371 -1.8221 -0.1050  0.2696
  148OSM   H13C16334   0.579   0.786   2.330  1.7863 -1.4618  1.6869
  148OSM    C1216335   0.849   0.704   2.287  0.8936 -0.3023 -0.3254
  148OSM   H12A16336   0.901   0.643   2.214 -0.2280 -3.4343  1.3107
  148OSM   H12B16337   0.790   0.633   2.344  2.6327 -0.6841  1.0907
  148OSM    C1116338   0.947   0.768   2.390  0.3249  0.5832  0.1446
  148OSM   H11A16339   0.986   0.684   2.451  0.7687  1.7267  1.4784
  148OSM   H11B16340   0.881   0.827   2.457  1.4639 -0.0851  1.9191
  148OSM      P16341   1.112   0.959   2.363 -0.4778 -0.1470 -0.2559
  148OSM    O1316342   1.219   1.001   2.265 -0.0441  0.3232 -0.3840
  148OSM    O1416343   1.003   1.057   2.384 -0.5788 -0.4160  0.3055
  148OSM    O1116344   1.188   0.930   2.500  0.1994  0.8301 -0.1671
  148OSM    O1216345   1.046   0.834   2.317  0.3104  0.2556  0.6572
  148OSM    C1S16346   1.274   0.814   2.514  0.4978 -0.3997  0.4287
  148OSM    H1S16347   1.367   0.811   2.454  1.2809 -2.6890  1.6364
  148OSM    H1T16348   1.227   0.718   2.483  0.4115 -0.1090 -0.3497
  148OSM     NF16349   1.380   0.665   2.677 -0.3781 -0.2333  0.0218
  148OSM    HNF16350   1.340   0.590   2.730  1.7482 -2.0268 -0.7713
  148OSM    C2S16351   1.301   0.784   2.660 -0.1024 -0.4044  0.5480
  148OSM    H2S16352   1.364   0.865   2.701  0.9552 -0.2687 -1.2628
  148OSM    C3S16353   1.173   0.785   2.751 -0.1317 -0.1703 -0.0960
  148OSM    H3S16354   1.114   0.699   2.714  0.0135  0.5946 -2.2729
  148OSM     O316355   1.094   0.900   2.741  0.0206 -0.0637 -0.1706
  148OSM    HO316356   1.121   0.928   2.653  1.0884 -0.6226 -0.0396
  148OSM    C4S16357   1.219   0.761   2.895 -0.6053  0.4742  0.5837
  148OSM    H4S16358   1.230   0.853   2.955  0.2793  0.9988 -0.3472
  148OSM    C5S16359   1.208   0.644   2.965 -0.1214  0.5708  0.7062
  148OSM    H5S16360   1.175   0.549   2.920  2.2965 -0.2342  0.5041
  148OSM    C6S16361   1.245   0.623   3.111  0.7865  0.4236  0.9196
  148OSM    H6S16362   1.355   0.614   3.128  0.9278  0.4482  0.0574
  148OSM    H6T16363   1.203   0.524   3.138  1.0146  0.6444  2.1188
  148OSM    C7S16364   1.190   0.717   3.210 -0.6387  0.6669  0.0466
  148OSM    H7S16365   1.080   0.725   3.200 -0.9042  2.6346  3.1220
  148OSM    H7T16366   1.225   0.821   3.198  0.2392  0.3773 -0.0209
  148OSM    C8S16367   1.225   0.671   3.352  0.5693  0.7129 -1.0639
  148OSM    H8S16368   1.335   0.658   3.361  0.4093  0.6743  1.3656
  148OSM    H8T16369   1.180   0.575   3.385  2.1926  0.8342  1.8280
  148OSM    C9S16370   1.191   0.772   3.459 -0.0837 -0.0233 -0.5648
  148OSM    H9S16371   1.080   0.777   3.455 -0.0875  0.8626  0.4236
  148OSM    H9T16372   1.244   0.857   3.413  1.8600 -2.0628 -2.3337
  148OSM   C10S16373   1.242   0.746   3.603  0.1665 -0.3300  0.1220
  148OSM   H10S16374   1.351   0.726   3.619  0.3143 -0.2683 -0.7579
  148OSM   H10T16375   1.188   0.656   3.638 -0.4322  0.0653  0.2394
  148OSM   C11S16376   1.225   0.870   3.684 -0.1774 -0.5732  0.2703
  148OSM   H11S16377   1.118   0.899   3.692 -0.0523  0.8815 -2.3222
  148OSM   H11T16378   1.287   0.950   3.640 -0.1121 -0.0187  1.3297
  148OSM   C12S16379   1.266   0.852   3.830 -0.3049  0.1374  0.1977
  148OSM   H12S16380   1.234   0.754   3.869  1.2388 -1.0334 -1.3213
  148OSM   H12T16381   1.212   0.926   3.893 -0.8527  1.9409 -2.2026
  148OSM   C13S16382   1.417   0.871   3.864  0.0844  0.5044  1.3170
  148OSM   H13S16383   1.444   0.974   3.832 -0.5226 -0.1771 -1.7771
  148OSM   H13T16384   1.481   0.801   3.806 -0.0706 -0.3989  2.2179
  148OSM   C14S16385   1.450   0.855   4.010  0.1357 -0.2874 -0.8833
  148OSM   H14S16386   1.454   0.754   4.057  1.0929 -0.1185 -0.5622
  148OSM   H14T16387   1.379   0.909   4.076  0.7485 -1.5562  0.9018
  148OSM   C15S16388   1.582   0.924   4.037  0.2218  0.3314 -0.2179
  148OSM   H15S16389   1.583   1.030   4.006 -0.6024  0.9446  1.6912
  148OSM   H15T16390   1.657   0.873   3.973  0.7093 -0.6983  1.1288
  148OSM   C16S16391   1.619   0.908   4.184 -0.7311 -0.5924 -0.5673
  148OSM   H16S16392   1.730   0.916   4.186 -0.8491  2.3380 -0.8496
  148OSM   H16T16393   1.583   0.808   4.213 -1.2385 -0.8342 -1.9568
  148OSM   C17S16394   1.556   1.022   4.266 -0.6106  0.3448 -0.6251
  148OSM   H17S16395   1.447   1.005   4.275 -0.2453 -1.9788  0.1016
  148OSM   H17T16396   1.579   1.120   4.219 -0.7301 -0.2084 -1.8932
  148OSM   C18S16397   1.601   1.020   4.413  0.3238  0.1565 -0.3157
  148OSM   H18S16398   1.710   1.007   4.430  0.6080 -1.3230 -2.7296
  148OSM   H18T16399   1.565   0.927   4.463  0.4985  0.4938  0.4548
  148OSM   H18U16400   1.557   1.107   4.465 -1.6566  0.5411 -2.4899
  148OSM    C1F16401   1.502   0.658   2.626 -0.0198  0.4415 -0.2585
  148OSM     OF16402   1.566   0.756   2.590  0.2966 -0.2197 -1.1596
  148OSM    C2F16403   1.567   0.523   2.606 -0.6052 -0.2435  0.1698
  148OSM    H2F16404   1.570   0.489   2.500  0.8384 -0.1011  0.1452
  148OSM    H2G16405   1.508   0.450   2.665  1.1107 -1.8690 -0.0244
  148OSM    C3F16406   1.712   0.538   2.662 -0.5264  0.5476 -0.2285
  148OSM    H3F16407   1.722   0.548   2.772 -1.4303 -0.6561 -0.0139
  148OSM    H3G16408   1.762   0.621   2.608 -1.8114  0.4352 -1.6568
  148OSM    C4F16409   1.811   0.418   2.640  0.0023  0.0144 -0.1478
  148OSM    H4F16410   1.800   0.404   2.530 -0.5725  0.3940 -0.1493
  148OSM    H4G16411   1.759   0.333   2.688  0.6393 -1.0898 -1.3529
  148OSM    C5F16412   1.956   0.436   2.685 -0.6494 -0.8773  0.0474
  148OSM    H5F16413   1.991   0.537   2.653 -0.5113 -1.3126 -1.2345
  148OSM    H5G16414   2.019   0.356   2.642  1.2918  0.4852  0.2189
  148OSM    C6F16415   1.962   0.437   2.840  0.1390 -0.5161  0.1658
  148OSM    H6F16416   1.919   0.342   2.877  1.3960 -1.3194 -0.3677
  148OSM    H6G16417   1.898   0.520   2.878 -1.8482 -1.2830 -1.3511
  148OSM    C7F16418   2.110   0.461   2.883 -0.3111 -0.5912 -0.2957
  148OSM    H7F16419   2.147   0.536   2.810 -0.3902  0.7619  1.0014
  148OSM    H7G16420   2.176   0.374   2.863  1.3130  0.3926  0.4588
  148OSM    C8F16421   2.126   0.511   3.028 -0.2268 -0.1666  0.0079
  148OSM    H8F16422   2.054   0.589   3.059 -0.4932 -0.6189  0.5384
  148OSM    H8G16423   2.224   0.562   3.034  1.1499 -2.2601 -2.2781
  148OSM    C9F16424   2.116   0.398   3.122  0.4815 -0.1868 -1.0561
  148OSM    H9F16425   2.030   0.332   3.103  1.2535 -1.6433  0.3285
  148OSM   C10F16426   2.167   0.391   3.247 -0.0973 -0.3174  0.4826
  148OSM   H10F16427   2.144   0.299   3.302  3.5529 -2.2095 -0.8298
  148OSM   C11F16428   2.261   0.492   3.310 -0.4832 -0.5861 -0.1348
  148OSM   H11F16429   2.319   0.558   3.243  0.5811  0.9228  2.1436
  148OSM   H11G16430   2.336   0.436   3.369  0.8607 -0.4197 -1.6378
  148OSM   C12F16431   2.200   0.600   3.396 -0.1606  0.7377  0.1592
  148OSM   H12F16432   2.129   0.660   3.335  0.8086  2.1943  0.4019
  148OSM   H12G16433   2.270   0.677   3.435 -1.3694  1.0947  1.7456
  148OSM   C13F16434   2.138   0.539   3.524  0.7987  0.3488 -0.4191
  148OSM   H13F16435   2.064   0.462   3.494 -0.5684  1.5200 -0.1138
  148OSM   H13G16436   2.074   0.620   3.565  0.8214 -0.6466  1.6721
  148OSM   C14F16437   2.237   0.505   3.636 -0.0336 -0.5103  0.7181
  148OSM   H14F16438   2.312   0.431   3.601 -0.5652 -1.0016  0.6117
  148OSM   H14G16439   2.191   0.457   3.725  0.0716 -0.2136  0.9320
  148OSM   C15F16440   2.314   0.621   3.695  0.7935  0.4278 -0.0703
  148OSM   H15F16441   2.242   0.702   3.718  1.1231  0.2689  1.6830
  148OSM   H15G16442   2.387   0.665   3.624 -0.2216  3.0628  0.3984
  148OSM   C16F16443   2.397   0.591   3.824 -0.3137  0.4734 -0.2549
  148OSM   H16F16444   2.470   0.675   3.830  2.5993 -1.7110 -2.3196
  148OSM   H16G16445   2.461   0.501   3.809 -1.7531 -0.3978 -1.4374
  148OSM   C17F16446   2.325   0.603   3.959 -0.3618  0.2409  0.1949
  148OSM   H17F16447   2.245   0.526   3.968 -2.7785  2.5607 -0.1477
  148OSM   H17G16448   2.284   0.706   3.965  1.5260  0.9734  1.3090
  148OSM   C18F16449   2.416   0.588   4.083 -0.3335  0.3635 -0.6638
  148OSM   H18F16450   2.498   0.662   4.096 -0.8274  0.6897  0.6965
  148OSM   H18G16451   2.464   0.487   4.080 -2.3049 -0.6629  0.6310
  148OSM   H18H16452   2.360   0.601   4.177 -0.9029  0.6308 -1.0349
  149OSM      N16453   5.216   6.431   2.003 -0.5556  0.1239  0.1094
  149OSM    C1516454   5.227   6.577   1.985 -0.2724  0.3089  0.6340
  149OSM   H15A16455   5.274   6.635   2.063 -1.6272  1.9495  0.3096
  149OSM   H15B16456   5.133   6.627   1.968 -0.0970  0.2951 -0.4301
  149OSM   H15C16457   5.283   6.590   1.894 -0.0408 -1.7708  0.4338
  149OSM    C1416458   5.148   6.364   1.889 -0.5810 -0.8249  0.3613
  149OSM   H14A16459   5.196   6.395   1.798  1.4086 -0.2508  1.5289
  149OSM   H14B16460   5.047   6.398   1.876  0.4774  2.3255 -0.5067
  149OSM   H14C16461   5.155   6.257   1.902 -1.4246 -0.8738  0.4584
  149OSM    C1316462   5.359   6.373   2.015  0.5051 -0.5796  0.1692
  149OSM   H13A16463   5.350   6.266   2.032 -0.5433 -0.1349  2.8781
  149OSM   H13B16464   5.406   6.418   2.102  0.2843 -4.4241  2.5197
  149OSM   H13C16465   5.413   6.398   1.925  1.5240 -0.7706  0.7048
  149OSM    C1216466   5.135   6.398   2.128 -0.3767  0.4785 -0.4711
  149OSM   H12A16467   5.111   6.293   2.133 -1.6076  0.6429 -2.1690
  149OSM   H12B16468   5.040   6.447   2.117  0.7937  2.8773 -0.5483
  149OSM    C1116469   5.190   6.445   2.264 -0.0556 -1.0105  0.2719
  149OSM   H11A16470   5.293   6.413   2.290 -0.0407 -0.7165  0.5888
  149OSM   H11B16471   5.136   6.397   2.348 -2.5585  2.5146  0.9300
  149OSM      P16472   5.045   6.667   2.310 -0.1619 -0.0428  0.1870
  149OSM    O1316473   5.087   6.810   2.326 -0.0062  0.6013  0.5887
  149OSM    O1416474   4.941   6.629   2.207  0.3973  0.1323  0.0315
  149OSM    O1116475   5.020   6.611   2.452 -0.0899  0.3641 -0.0221
  149OSM    O1216476   5.174   6.587   2.265 -0.2399 -0.6447 -0.4038
  149OSM    C1S16477   5.108   6.627   2.562 -0.6799  0.0413 -0.2914
  149OSM    H1S16478   5.141   6.731   2.581  1.6784 -0.9987  1.7717
  149OSM    H1T16479   5.201   6.570   2.543  0.7145  1.5937  1.6104
  149OSM     NF16480   5.132   6.636   2.810 -0.0423  0.0223 -0.1926
  149OSM    HNF16481   5.189   6.572   2.862  1.5814 -0.0378 -1.9565
  149OSM    C2S16482   5.059   6.575   2.701  0.8016 -0.1010 -0.1017
  149OSM    H2S16483   4.953   6.608   2.703  0.5741 -0.8931  1.4318
  149OSM    C3S16484   5.066   6.422   2.712  0.1715  0.0052 -0.3991
  149OSM    H3S16485   5.172   6.393   2.718  0.4284  1.2620  2.9669
  149OSM     O316486   5.018   6.351   2.598 -0.1013 -0.0784 -0.1665
  149OSM    HO316487   4.993   6.417   2.533 -0.7150 -2.1790 -2.1899
  149OSM    C4S16488   5.000   6.370   2.840  0.0511 -0.9724 -0.2524
  149OSM    H4S16489   5.076   6.352   2.918  3.4483 -1.4657 -3.4234
  149OSM    C5S16490   4.869   6.346   2.861  0.1062  0.6545 -0.3701
  149OSM    H5S16491   4.789   6.358   2.786 -1.4800 -1.1843  0.9191
  149OSM    C6S16492   4.799   6.315   2.994 -0.6319  0.2994 -0.1146
  149OSM    H6S16493   4.729   6.229   2.981 -3.5852  2.3969  0.7835
  149OSM    H6T16494   4.724   6.391   3.025 -0.2614 -0.0507  1.7374
  149OSM    C7S16495   4.891   6.283   3.113  0.6633  0.3142 -0.6962
  149OSM    H7S16496   4.966   6.365   3.124  0.2307  0.7944 -1.2549
  149OSM    H7T16497   4.944   6.190   3.082 -0.2672 -0.4760  0.0223
  149OSM    C8S16498   4.815   6.253   3.238 -0.3988 -0.6708  0.3915
  149OSM    H8S16499   4.711   6.218   3.217 -0.6480 -0.8842  1.8890
  149OSM    H8T16500   4.811   6.343   3.304  0.5316 -0.0128 -0.4237
  149OSM    C9S16501   4.880   6.148   3.329 -0.4337  0.6823  0.0432
  149OSM    H9S16502   4.931   6.067   3.272 -3.3203 -0.5167 -1.0441
  149OSM    H9T16503   4.801   6.095   3.386  1.2073 -1.5839  0.3580
  149OSM   C10S16504   4.979   6.212   3.432  0.1869  0.6414 -0.0303
  149OSM   H10S16505   4.924   6.263   3.514 -0.0711 -2.1146  1.6586
  149OSM   H10T16506   5.044   6.284   3.379 -1.9958  1.8164 -1.2637
  149OSM   C11S16507   5.082   6.120   3.509 -0.7501  0.1409  0.4130
  149OSM   H11S16508   5.164   6.184   3.548 -1.1115 -0.4800  2.2790
  149OSM   H11T16509   5.130   6.046   3.441  3.0362  1.9378  0.8214
  149OSM   C12S16510   5.026   6.053   3.638  0.3309 -0.5204  0.0956
  149OSM   H12S16511   5.096   5.969   3.661  0.5728 -0.2337  0.4194
  149OSM   H12T16512   4.928   6.007   3.614 -0.2921  0.1861  1.2164
  149OSM   C13S16513   5.013   6.150   3.758  0.0507  0.1237  0.1237
  149OSM   H13S16514   4.952   6.238   3.731  0.8130  1.2395  1.8634
  149OSM   H13T16515   5.118   6.178   3.783 -0.2525  1.6246 -0.1803
  149OSM   C14S16516   4.952   6.076   3.880  0.1316 -0.0692 -0.2077
  149OSM   H14S16517   4.996   5.975   3.893 -1.3644 -0.6361  0.6878
  149OSM   H14T16518   4.845   6.052   3.866 -0.1536 -0.1659  1.7948
  149OSM   C15S16519   4.947   6.160   4.008  0.3557  0.0020  0.5878
  149OSM   H15S16520   4.867   6.236   3.991  1.0308  0.9868  1.6867
  149OSM   H15T16521   5.048   6.203   4.020  0.2804  0.6402 -0.8324
  149OSM   C16S16522   4.908   6.076   4.128 -0.3880 -0.0351  0.1655
  149OSM   H16S16523   4.932   6.138   4.217  4.4378  0.6306 -1.3046
  149OSM   H16T16524   4.980   5.993   4.114  1.1146  1.2527 -0.0423
  149OSM   C17S16525   4.758   6.036   4.140 -0.9064 -0.3283  0.3070
  149OSM   H17S16526   4.740   5.986   4.238  0.1889  0.7102  1.0680
  149OSM   H17T16527   4.731   5.966   4.058  3.0435  0.0839 -1.5679
  149OSM   C18S16528   4.656   6.154   4.137 -0.0286  0.3138  0.0007
  149OSM   H18S16529   4.644   6.195   4.035  1.3857  2.2329  0.5374
  149OSM   H18T16530   4.699   6.232   4.204  1.3223 -0.9360  0.6316
  149OSM   H18U16531   4.561   6.113   4.180  1.9572 -1.1477  3.3948
  149OSM    C1F16532   5.128   6.763   2.837 -0.6231  0.8569  0.3898
  149OSM     OF16533   5.063   6.844   2.777  0.4249 -0.4283  0.0677
  149OSM    C2F16534   5.225   6.800   2.942 -0.7365  0.0334 -0.0962
  149OSM    H2F16535   5.328   6.775   2.911  0.8466  3.5335  1.8166
  149OSM    H2G16536   5.202   6.749   3.039 -0.5497  0.3889  0.1369
  149OSM    C3F16537   5.239   6.952   2.972  0.1260 -0.3450  0.0633
  149OSM    H3F16538   5.138   6.987   3.003  0.1930  0.9650 -1.1257
  149OSM    H3G16539   5.268   7.012   2.883 -2.5266  1.7718  0.4952
  149OSM    C4F16540   5.355   6.988   3.067 -0.2399  0.2661 -0.4983
  149OSM    H4F16541   5.376   7.097   3.074  0.2947  0.1380  0.0373
  149OSM    H4G16542   5.448   6.942   3.027  0.5930  2.9760 -1.9338
  149OSM    C5F16543   5.316   6.951   3.211  0.0001  0.5677 -0.9735
  149OSM    H5F16544   5.282   6.846   3.223 -0.2152  0.7935  0.5952
  149OSM    H5G16545   5.237   7.013   3.258 -0.2680 -1.1120  0.9475
  149OSM    C6F16546   5.434   6.965   3.307  0.5489  0.2433  0.3251
  149OSM    H6F16547   5.457   7.074   3.305  1.5353  0.0407 -1.1725
  149OSM    H6G16548   5.527   6.915   3.272 -0.6634 -2.0003  0.1100
  149OSM    C7F16549   5.408   6.927   3.452  0.0795 -0.4683 -0.8406
  149OSM    H7F16550   5.339   6.840   3.462  1.3736 -1.4290  0.0101
  149OSM    H7G16551   5.364   7.021   3.493 -1.0523 -1.5098  0.4375
  149OSM    C8F16552   5.534   6.906   3.537 -1.0605 -0.0514 -0.2398
  149OSM    H8F16553   5.609   6.982   3.509 -1.0168  0.4003  1.0519
  149OSM    H8G16554   5.569   6.809   3.495  1.5123  0.7877 -0.1878
  149OSM    C9F16555   5.529   6.875   3.689 -0.0533  0.0807  0.5583
  149OSM    H9F16556   5.523   6.770   3.722 -2.2988  0.1715  0.5788
  149OSM   C10F16557   5.524   6.973   3.781 -0.2651  0.9521 -0.2762
  149OSM   H10F16558   5.513   6.936   3.884  2.0164 -0.8895 -0.6127
  149OSM   C11F16559   5.510   7.125   3.767  0.0058  0.9563  0.4832
  149OSM   H11F16560   5.486   7.144   3.660 -1.0611  0.6581  0.6578
  149OSM   H11G16561   5.604   7.179   3.792  0.5291  0.1561  0.3145
  149OSM   C12F16562   5.404   7.201   3.850  0.6438  0.1060 -0.0718
  149OSM   H12F16563   5.322   7.130   3.874 -0.1515  1.1568  0.3867
  149OSM   H12G16564   5.357   7.286   3.796 -1.1454  0.6275  2.1740
  149OSM   C13F16565   5.467   7.241   3.982  0.3131 -0.0770  0.4447
  149OSM   H13F16566   5.559   7.300   3.963  0.4818  0.2371  2.0724
  149OSM   H13G16567   5.498   7.155   4.046 -0.4324 -0.7612 -0.1023
  149OSM   C14F16568   5.376   7.341   4.062 -0.9757  0.2112 -0.3537
  149OSM   H14F16569   5.272   7.308   4.043 -1.5798 -0.4239  3.3397
  149OSM   H14G16570   5.399   7.437   4.011  1.9556  0.3942  1.1053
  149OSM   C15F16571   5.406   7.367   4.216  0.6350  0.0903  0.1053
  149OSM   H15F16572   5.403   7.277   4.281  1.7261 -1.2443 -1.5960
  149OSM   H15G16573   5.329   7.434   4.261  2.2179  0.8034  1.8440
  149OSM   C16F16574   5.554   7.409   4.231  0.9758 -0.4574 -0.0983
  149OSM   H16F16575   5.619   7.334   4.182  0.6359 -1.3905  0.8247
  149OSM   H16G16576   5.573   7.412   4.341  0.0390  0.9910  0.0660
  149OSM   C17F16577   5.578   7.551   4.177  0.6679  0.4995 -0.1303
  149OSM   H17F16578   5.555   7.551   4.068  2.4013 -1.2989 -0.5383
  149OSM   H17G16579   5.685   7.560   4.202  0.3568  0.6676  1.2428
  149OSM   C18F16580   5.503   7.661   4.251  0.8925 -0.4634  0.1043
  149OSM   H18F16581   5.523   7.756   4.195 -0.8762 -0.7916 -1.1682
  149OSM   H18G16582   5.529   7.671   4.358 -3.1342  0.4998  1.1489
  149OSM   H18H16583   5.395   7.639   4.235  0.7513 -0.5020  1.0450
  150OSM      N16584   0.338   0.042   2.137  0.4259  0.1658 -0.2263
  150OSM    C1516585   0.329  -0.084   2.218 -0.2331 -0.4038 -0.0056
  150OSM   H15A16586   0.379  -0.163   2.164  1.1371 -0.1478  0.8181
  150OSM   H15B16587   0.228  -0.114   2.238 -1.0390  1.6136 -0.8044
  150OSM   H15C16588   0.386  -0.076   2.310 -1.2801 -0.0659  0.6340
  150OSM    C1416589   0.337   0.004   1.998  0.4943 -0.6384  0.1547
  150OSM   H14A16590   0.435  -0.033   1.971  0.1845 -1.2797 -0.0983
  150OSM   H14B16591   0.313   0.085   1.931  2.2732 -0.1961  0.0162
  150OSM   H14C16592   0.264  -0.073   1.980 -0.9648 -0.1423  3.1815
  150OSM    C1316593   0.223   0.122   2.164  0.2969  0.6772 -0.1134
  150OSM   H13A16594   0.221   0.203   2.092  0.0200 -0.1620 -1.0710
  150OSM   H13B16595   0.222   0.158   2.266 -0.1589 -0.9474  0.4819
  150OSM   H13C16596   0.129   0.069   2.158  1.2033 -1.0647  0.4927
  150OSM    C1216597   0.467   0.120   2.159 -0.5131  0.0402 -0.6919
  150OSM   H12A16598   0.474   0.206   2.094 -0.7305 -0.3709 -1.2790
  150OSM   H12B16599   0.542   0.045   2.135 -1.5427 -1.2207 -0.1049
  150OSM    C1116600   0.492   0.178   2.293  0.2950  0.7877  0.2020
  150OSM   H11A16601   0.602   0.177   2.308  0.3561 -0.4612 -0.1539
  150OSM   H11B16602   0.458   0.123   2.384  0.3571 -0.6086 -0.5802
  150OSM      P16603   0.516   0.431   2.233  0.2092 -0.5739  0.0106
  150OSM    O1316604   0.579   0.389   2.107  0.2746  0.1474  0.1348
  150OSM    O1416605   0.435   0.551   2.211  0.3098  0.2215  0.1003
  150OSM    O1116606   0.622   0.464   2.339  0.2364  0.3926  0.1380
  150OSM    O1216607   0.435   0.313   2.296  0.2306  0.5319  0.5549
  150OSM    C1S16608   0.593   0.498   2.472 -0.1581  0.0911  0.5254
  150OSM    H1S16609   0.485   0.508   2.492 -0.5398 -0.7780 -0.9445
  150OSM    H1T16610   0.640   0.595   2.498 -0.4782  0.4082 -0.0649
  150OSM     NF16611   0.589   0.426   2.687  0.4418  0.6842 -0.4226
  150OSM    HNF16612   0.631   0.492   2.749 -0.4242  0.0132  0.9205
  150OSM    C2S16613   0.654   0.389   2.571 -0.2583 -0.7531  0.4954
  150OSM    H2S16614   0.617   0.291   2.534 -0.0095 -0.7082  0.1215
  150OSM    C3S16615   0.804   0.407   2.578  1.0570  0.1467  0.8559
  150OSM    H3S16616   0.821   0.509   2.618  2.7154 -0.7791  2.6709
  150OSM     O316617   0.869   0.393   2.448 -0.3260  0.0185 -0.6919
  150OSM    HO316618   0.793   0.385   2.389 -0.3017 -2.4730 -0.4826
  150OSM    C4S16619   0.872   0.318   2.677  0.0603 -0.8099  0.6544
  150OSM    H4S16620   0.860   0.366   2.775  0.8077  3.3390 -1.0709
  150OSM    C5S16621   0.933   0.197   2.663 -0.0495  0.0265  0.6824
  150OSM    H5S16622   0.944   0.155   2.562 -2.2840 -0.7399  0.7015
  150OSM    C6S16623   0.969   0.099   2.776 -0.0132 -0.0243 -0.2234
  150OSM    H6S16624   1.075   0.071   2.758 -0.5259 -2.5067  0.1881
  150OSM    H6T16625   0.901   0.013   2.757 -1.2162  0.5355  1.3372
  150OSM    C7S16626   0.954   0.156   2.924  0.9194 -0.4176  0.4287
  150OSM    H7S16627   0.847   0.182   2.937  1.6445  2.9829  0.5637
  150OSM    H7T16628   1.013   0.247   2.948  2.0326 -0.4510 -1.9124
  150OSM    C8S16629   0.968   0.052   3.038  0.6801  0.1904  0.3780
  150OSM    H8S16630   1.079   0.040   3.045  1.1591 -0.1549 -4.4012
  150OSM    H8T16631   0.921  -0.044   3.009 -2.5400  1.9685 -0.8070
  150OSM    C9S16632   0.896   0.105   3.166 -0.1494 -0.0467  0.8507
  150OSM    H9S16633   0.786   0.119   3.153  0.0537 -0.5220 -2.4430
  150OSM    H9T16634   0.940   0.204   3.187  0.0644 -0.7940  4.6184
  150OSM   C10S16635   0.913   0.008   3.286  0.5262 -0.0110  0.5855
  150OSM   H10S16636   1.018  -0.008   3.316  0.5853 -0.5032  0.1285
  150OSM   H10T16637   0.871  -0.092   3.265  0.9097 -0.4666  1.9431
  150OSM   C11S16638   0.836   0.061   3.409 -0.3740 -0.1279  1.4713
  150OSM   H11S16639   0.743   0.113   3.377 -0.0539 -0.0802  0.5955
  150OSM   H11T16640   0.905   0.135   3.454  0.6685  1.0692 -1.7989
  150OSM   C12S16641   0.798  -0.055   3.507  0.3122  0.6247  0.3115
  150OSM   H12S16642   0.888  -0.121   3.510 -0.5958 -0.6850 -0.2957
  150OSM   H12T16643   0.718  -0.126   3.475 -2.3903  1.3989  4.5818
  150OSM   C13S16644   0.746   0.008   3.632  0.1789  0.3146 -0.0441
  150OSM   H13S16645   0.666   0.077   3.598 -0.1692 -0.2336 -0.3562
  150OSM   H13T16646   0.827   0.071   3.676  1.4410 -2.1357  1.3800
  150OSM   C14S16647   0.679  -0.093   3.731  0.1292  0.2988  0.0775
  150OSM   H14S16648   0.754  -0.162   3.775  0.6604  0.1400 -1.0609
  150OSM   H14T16649   0.623  -0.159   3.662  0.3424  0.3063 -0.1027
  150OSM   C15S16650   0.597  -0.025   3.844  0.2856 -0.1097  0.8753
  150OSM   H15S16651   0.545   0.059   3.794 -0.1199  0.2905  1.9323
  150OSM   H15T16652   0.658   0.023   3.924  1.0288 -0.5416  0.5831
  150OSM   C16S16653   0.501  -0.114   3.923 -0.0333  0.2750  0.7259
  150OSM   H16S16654   0.570  -0.197   3.951 -0.6190 -0.7814 -0.8381
  150OSM   H16T16655   0.411  -0.144   3.866  0.6019 -0.0228 -0.1499
  150OSM   C17S16656   0.464  -0.044   4.051 -0.7320 -0.0231  0.2020
  150OSM   H17S16657   0.421   0.054   4.020 -0.1084  0.9336  2.1612
  150OSM   H17T16658   0.556  -0.017   4.107 -1.9028  2.2681  1.1583
  150OSM   C18S16659   0.363  -0.104   4.143 -0.1396  0.2504  0.3988
  150OSM   H18S16660   0.393  -0.071   4.245  1.3338  1.0953 -0.2730
  150OSM   H18T16661   0.378  -0.214   4.131  0.3945  0.3611 -0.0109
  150OSM   H18U16662   0.257  -0.081   4.120 -0.3537  0.2296  1.3330
  150OSM    C1F16663   0.459   0.387   2.724  0.2646  0.8597  0.0806
  150OSM     OF16664   0.405   0.297   2.670  0.3573 -0.9110  0.1590
  150OSM    C2F16665   0.392   0.451   2.844  0.2542 -0.3056 -0.3586
  150OSM    H2F16666   0.380   0.560   2.824  1.1369 -0.0127  0.6095
  150OSM    H2G16667   0.465   0.434   2.926  0.2241 -1.4302 -0.5555
  150OSM    C3F16668   0.251   0.387   2.882 -0.0406 -0.2418  0.4521
  150OSM    H3F16669   0.269   0.278   2.889 -2.4948 -1.0596 -3.1232
  150OSM    H3G16670   0.178   0.399   2.799 -0.3574  0.0872  0.7729
  150OSM    C4F16671   0.190   0.446   3.003  0.1046 -0.7281 -0.7889
  150OSM    H4F16672   0.090   0.406   3.032  0.9943 -1.5670  1.2790
  150OSM    H4G16673   0.174   0.552   2.974  0.1571 -1.3286 -3.2348
  150OSM    C5F16674   0.288   0.439   3.122  0.2322  0.1781 -0.4859
  150OSM    H5F16675   0.388   0.487   3.111  0.1933  0.9496  1.8885
  150OSM    H5G16676   0.311   0.332   3.144  0.9497  0.6352  1.1157
  150OSM    C6F16677   0.220   0.504   3.244  1.0739  0.3797  0.1715
  150OSM    H6F16678   0.116   0.468   3.255  0.7561  0.8067 -1.2074
  150OSM    H6G16679   0.206   0.614   3.234  0.8383  0.2172 -1.5681
  150OSM    C7F16680   0.303   0.466   3.362 -0.4051  0.4857 -0.8867
  150OSM    H7F16681   0.405   0.497   3.331 -0.7585  2.2903 -0.3322
  150OSM    H7G16682   0.308   0.357   3.382 -2.2831 -0.3096 -4.0263
  150OSM    C8F16683   0.261   0.541   3.484  0.0095  0.4986 -0.3842
  150OSM    H8F16684   0.211   0.633   3.448 -3.8026 -1.3226 -0.3051
  150OSM    H8G16685   0.342   0.559   3.558  0.5681 -1.0864 -0.5629
  150OSM    C9F16686   0.154   0.460   3.548 -0.4164 -0.7970  0.5194
  150OSM    H9F16687   0.053   0.469   3.504 -0.0217 -1.9271 -0.6810
  150OSM   C10F16688   0.159   0.382   3.655 -0.6699  1.1134 -0.0591
  150OSM   H10F16689   0.062   0.330   3.667  1.3492 -3.1604 -0.3009
  150OSM   C11F16690   0.280   0.352   3.750  0.7040 -0.8237  0.0349
  150OSM   H11F16691   0.367   0.412   3.718 -0.5912  1.2129  0.1224
  150OSM   H11G16692   0.316   0.250   3.724  1.4684 -0.2789 -1.1259
  150OSM   C12F16693   0.242   0.375   3.896  0.0847 -0.3972 -0.6548
  150OSM   H12F16694   0.329   0.354   3.961 -1.4611  0.3329  1.7520
  150OSM   H12G16695   0.162   0.301   3.916 -0.2539 -0.1206 -0.9753
  150OSM   C13F16696   0.194   0.513   3.933  0.5651 -0.0437  0.3401
  150OSM   H13F16697   0.114   0.545   3.861  0.4243  0.6688  0.8098
  150OSM   H13G16698   0.281   0.580   3.916 -1.3698  2.2816 -1.2392
  150OSM   C14F16699   0.147   0.529   4.077 -0.1785 -0.7704  0.2061
  150OSM   H14F16700   0.231   0.510   4.147 -0.6782 -1.4388  0.6405
  150OSM   H14G16701   0.063   0.461   4.105 -0.6507  0.0500  0.8199
  150OSM   C15F16702   0.092   0.672   4.091 -0.1483  0.4453  0.6380
  150OSM   H15F16703   0.006   0.676   4.021  0.1459  0.9503  0.2977
  150OSM   H15G16704   0.167   0.744   4.053 -2.6263  3.7195  1.5240
  150OSM   C16F16705   0.050   0.724   4.230  0.2900  0.2651 -0.1060
  150OSM   H16F16706  -0.009   0.816   4.212 -0.8569 -0.0759  1.7775
  150OSM   H16G16707   0.136   0.743   4.298 -2.4627  1.6342  3.2914
  150OSM   C17F16708  -0.043   0.621   4.310  0.2742  0.0151  0.8652
  150OSM   H17F16709   0.019   0.533   4.338 -0.5737 -0.2921  1.8031
  150OSM   H17G16710  -0.124   0.587   4.243 -0.4465 -0.3189  1.8888
  150OSM   C18F16711  -0.105   0.688   4.432  0.0537  0.4412  0.5949
  150OSM   H18F16712  -0.166   0.778   4.408  0.8332  0.5337 -1.2380
  150OSM   H18G16713  -0.025   0.715   4.505  0.4530 -0.7075  0.5994
  150OSM   H18H16714  -0.165   0.612   4.485  0.0559  1.4632  2.1279
  151OSM      N16715   2.240   6.214   1.821  0.2554 -0.2967  0.4138
  151OSM    C1516716   2.119   6.150   1.752 -0.0831  0.3005  0.5012
  151OSM   H15A16717   2.129   6.043   1.739 -2.6994  0.1054 -0.4478
  151OSM   H15B16718   2.103   6.194   1.655 -0.9872 -2.3321 -0.6350
  151OSM   H15C16719   2.037   6.179   1.816  0.6478  2.1935  0.6385
  151OSM    C1416720   2.367   6.168   1.745  0.3317 -0.0041  0.5167
  151OSM   H14A16721   2.451   6.216   1.793  0.8248 -1.0460  0.7045
  151OSM   H14B16722   2.351   6.180   1.639  1.3864 -1.3161  0.1785
  151OSM   H14C16723   2.392   6.065   1.766  1.9301 -0.0238 -1.2040
  151OSM    C1316724   2.224   6.365   1.809  0.4706  0.0768 -0.4352
  151OSM   H13A16725   2.227   6.401   1.707  0.8048  1.5088  0.0636
  151OSM   H13B16726   2.301   6.409   1.871 -0.2655 -2.7208  2.7388
  151OSM   H13C16727   2.134   6.399   1.857  0.8278 -0.0260  0.3339
  151OSM    C1216728   2.241   6.165   1.962 -0.3167  0.4815 -0.4622
  151OSM   H12A16729   2.339   6.181   2.004 -0.1461 -0.4764 -0.4632
  151OSM   H12B16730   2.220   6.059   1.962 -0.1271  0.4422 -1.3160
  151OSM    C1116731   2.134   6.224   2.054 -0.7222 -0.4147 -0.5784
  151OSM   H11A16732   2.096   6.160   2.137 -0.4927  0.9354  0.5889
  151OSM   H11B16733   2.051   6.247   1.984  0.3118  0.6223 -1.4984
  151OSM      P16734   2.298   6.362   2.200  0.0634  0.7338  0.3522
  151OSM    O1316735   2.403   6.262   2.158  0.7811 -0.2140  0.6432
  151OSM    O1416736   2.343   6.500   2.213 -0.2695 -0.6055 -0.1653
  151OSM    O1116737   2.241   6.309   2.336 -0.4500  0.2171  0.3340
  151OSM    O1216738   2.172   6.351   2.102  0.0986  0.2340  0.2437
  151OSM    C1S16739   2.166   6.391   2.435  0.5048  0.6527  0.0503
  151OSM    H1S16740   2.062   6.400   2.395  1.6159 -1.0226 -3.7057
  151OSM    H1T16741   2.223   6.487   2.434  0.9437  0.4084 -1.9019
  151OSM     NF16742   2.121   6.422   2.672 -0.1423  0.3362  0.0262
  151OSM    HNF16743   2.190   6.454   2.736 -0.6767 -1.5009  1.6004
  151OSM    C2S16744   2.164   6.325   2.573  0.0907 -0.9570  0.2648
  151OSM    H2S16745   2.091   6.241   2.574  0.6851 -1.4921  0.2235
  151OSM    C3S16746   2.299   6.263   2.608 -0.8312 -0.0867 -0.0521
  151OSM    H3S16747   2.374   6.343   2.590 -1.9018  0.7662 -0.9139
  151OSM     O316748   2.338   6.156   2.523  0.3620  0.1492  0.0423
  151OSM    HO316749   2.302   6.189   2.440  0.1012  4.1435  1.5238
  151OSM    C4S16750   2.299   6.216   2.751 -0.2210  0.3441 -0.6120
  151OSM    H4S16751   2.361   6.271   2.823 -1.8541 -0.3673  1.4315
  151OSM    C5S16752   2.232   6.110   2.794 -0.5496  0.1673 -0.3848
  151OSM    H5S16753   2.168   6.060   2.720  0.2243 -0.2629 -0.7787
  151OSM    C6S16754   2.238   6.061   2.937  0.0227  0.6484  0.1804
  151OSM    H6S16755   2.306   5.973   2.946 -1.4855 -0.6897 -0.9591
  151OSM    H6T16756   2.139   6.020   2.967 -0.4069  0.4146 -1.4520
  151OSM    C7S16757   2.281   6.162   3.043  0.3995  0.0437  0.1438
  151OSM    H7S16758   2.213   6.249   3.032  1.0818  0.4638 -0.8880
  151OSM    H7T16759   2.386   6.196   3.037  0.7360 -1.0060 -0.1837
  151OSM    C8S16760   2.249   6.110   3.191 -0.6495 -0.2189 -0.5571
  151OSM    H8S16761   2.324   6.032   3.217 -0.3527 -0.1045 -1.0704
  151OSM    H8T16762   2.153   6.054   3.189  0.1527 -1.6058 -1.2993
  151OSM    C9S16763   2.255   6.229   3.291 -0.8089  0.1979  1.2154
  151OSM    H9S16764   2.189   6.318   3.284  0.8395  1.6780  3.3912
  151OSM    H9T16765   2.360   6.265   3.293 -1.2875  1.6347  1.6254
  151OSM   C10S16766   2.235   6.181   3.431 -0.7689  0.0536 -0.0177
  151OSM   H10S16767   2.307   6.100   3.454  0.0367  0.9313  0.5957
  151OSM   H10T16768   2.139   6.124   3.430 -0.2417 -0.8782  0.8495
  151OSM   C11S16769   2.217   6.294   3.531  0.1303  0.2888 -0.3566
  151OSM   H11S16770   2.140   6.363   3.492 -1.8540  0.3992  3.3496
  151OSM   H11T16771   2.313   6.349   3.535 -0.6700  1.9164 -2.1118
  151OSM   C12S16772   2.185   6.231   3.668 -0.1551 -0.6304 -1.0882
  151OSM   H12S16773   2.271   6.168   3.700 -0.8843 -0.6753  0.9808
  151OSM   H12T16774   2.104   6.155   3.662 -0.3339 -0.3201 -3.1861
  151OSM   C13S16775   2.145   6.342   3.768  1.0867 -0.5007  0.2449
  151OSM   H13S16776   2.035   6.358   3.759  1.1153  0.1886  1.0474
  151OSM   H13T16777   2.205   6.430   3.737 -0.4968  0.8938  0.9981
  151OSM   C14S16778   2.184   6.312   3.912 -0.1500 -0.3040 -0.0099
  151OSM   H14S16779   2.290   6.285   3.926 -0.0671  0.9759  2.3802
  151OSM   H14T16780   2.118   6.233   3.955 -0.8044  0.8423  1.1611
  151OSM   C15S16781   2.153   6.439   3.995 -0.2126  0.3050  0.4297
  151OSM   H15S16782   2.078   6.505   3.945  1.0947  2.5939  1.2985
  151OSM   H15T16783   2.251   6.490   4.001  1.0637 -1.9757 -0.3076
  151OSM   C16S16784   2.105   6.413   4.136 -0.0520  0.6736 -0.2987
  151OSM   H16S16785   2.179   6.347   4.186 -0.4994  0.2235 -0.2151
  151OSM   H16T16786   2.014   6.349   4.142 -1.6152  2.9119  2.6227
  151OSM   C17S16787   2.088   6.538   4.218  0.3974 -0.9080  1.1374
  151OSM   H17S16788   2.002   6.589   4.170  1.1683 -1.7958 -1.3595
  151OSM   H17T16789   2.168   6.614   4.202  0.8926 -1.2132  2.0974
  151OSM   C18S16790   2.071   6.525   4.369  0.0395  0.3364  0.4288
  151OSM   H18S16791   2.002   6.444   4.402 -0.3135  1.1431  1.7157
  151OSM   H18T16792   2.056   6.622   4.419 -0.8064  0.2434  0.3686
  151OSM   H18U16793   2.172   6.491   4.403  0.8151 -0.4278 -2.3490
  151OSM    C1F16794   2.005   6.484   2.677 -0.0426 -0.4356  0.7286
  151OSM     OF16795   1.923   6.476   2.588 -0.0480  0.1303 -0.2909
  151OSM    C2F16796   1.991   6.583   2.786 -0.7839  0.6394 -0.3632
  151OSM    H2F16797   1.901   6.644   2.763 -2.0085  0.1521  2.5970
  151OSM    H2G16798   2.081   6.647   2.775  0.9281 -1.2109  1.9142
  151OSM    C3F16799   1.989   6.527   2.930 -0.8500  0.3414 -0.1212
  151OSM    H3F16800   2.063   6.446   2.947 -0.1753  0.5072 -2.0345
  151OSM    H3G16801   1.887   6.489   2.952 -0.6619  1.1367  2.4535
  151OSM    C4F16802   2.017   6.623   3.042 -0.2106 -0.1192  0.1324
  151OSM    H4F16803   1.941   6.701   3.062  0.6374  0.7536  0.0443
  151OSM    H4G16804   2.114   6.673   3.021  0.6054 -1.9792 -0.7715
  151OSM    C5F16805   2.026   6.555   3.180 -0.4447 -0.0295 -0.6825
  151OSM    H5F16806   2.098   6.471   3.179 -1.1431 -0.6447 -0.3401
  151OSM    H5G16807   1.927   6.512   3.206 -0.9078  0.8843 -0.9015
  151OSM    C6F16808   2.081   6.648   3.296 -0.0357  0.3174 -0.8793
  151OSM    H6F16809   2.075   6.594   3.392  2.4190 -1.9170 -1.8746
  151OSM    H6G16810   2.010   6.734   3.293 -1.1319 -0.5941 -1.6048
  151OSM    C7F16811   2.227   6.683   3.283  0.4362 -0.3066  0.5426
  151OSM    H7F16812   2.245   6.721   3.180  0.0494 -1.2969  0.1033
  151OSM    H7G16813   2.289   6.592   3.298  2.1288  0.8503  0.9523
  151OSM    C8F16814   2.275   6.788   3.386 -0.2422  0.3116  0.0075
  151OSM    H8F16815   2.378   6.818   3.359 -0.1769 -1.3594 -1.7612
  151OSM    H8G16816   2.290   6.736   3.484  1.4665 -0.2768 -0.5337
  151OSM    C9F16817   2.189   6.908   3.400  0.9830 -0.2701  0.0884
  151OSM    H9F16818   2.148   6.949   3.306  3.0135  1.7777  0.0110
  151OSM   C10F16819   2.154   6.964   3.514 -0.4448 -0.5316  0.0717
  151OSM   H10F16820   2.073   7.038   3.510 -1.7545 -1.8672  1.3410
  151OSM   C11F16821   2.202   6.930   3.655  0.0242 -0.3756  0.0338
  151OSM   H11F16822   2.311   6.912   3.656 -0.0644 -0.8894  0.4529
  151OSM   H11G16823   2.149   6.835   3.676 -0.7139 -0.0946 -0.4693
  151OSM   C12F16824   2.168   7.025   3.767  0.0899  0.6042 -0.1597
  151OSM   H12F16825   2.191   6.988   3.869 -1.4891 -0.1917 -0.0640
  151OSM   H12G16826   2.060   7.050   3.767  0.0511  0.7777  2.6889
  151OSM   C13F16827   2.240   7.159   3.757  0.0946  0.6932  0.2943
  151OSM   H13F16828   2.212   7.201   3.658 -3.1407 -0.1331  0.7469
  151OSM   H13G16829   2.350   7.145   3.766 -0.1566 -1.4848  0.6703
  151OSM   C14F16830   2.205   7.271   3.862 -0.2854  0.0261 -0.9107
  151OSM   H14F16831   2.095   7.274   3.875  0.0021 -1.6681  3.4116
  151OSM   H14G16832   2.246   7.371   3.835  1.7743  0.3997  2.9254
  151OSM   C15F16833   2.262   7.230   3.997  0.1970  0.0646 -0.6426
  151OSM   H15F16834   2.370   7.215   3.975  0.3346 -1.3336  0.7630
  151OSM   H15G16835   2.240   7.128   4.037  2.2043 -0.9020 -1.8637
  151OSM   C16F16836   2.232   7.340   4.110  0.2013  0.2365 -0.2223
  151OSM   H16F16837   2.124   7.366   4.111  0.0053 -0.5198  1.4167
  151OSM   H16G16838   2.288   7.434   4.091  1.5449 -0.2774  1.0369
  151OSM   C17F16839   2.280   7.292   4.243 -0.4647 -0.1125 -0.5226
  151OSM   H17F16840   2.390   7.277   4.246 -0.4983 -0.6963 -1.7333
  151OSM   H17G16841   2.231   7.195   4.268 -1.6959  1.1237  2.2189
  151OSM   C18F16842   2.253   7.378   4.366 -0.0285  0.2539  0.1909
  151OSM   H18F16843   2.273   7.486   4.344  1.2967 -0.2179 -1.1139
  151OSM   H18G16844   2.311   7.338   4.451  2.8229 -0.6564 -2.0081
  151OSM   H18H16845   2.146   7.357   4.389 -0.1994 -0.2531 -1.0020
  152OSM      N16846   3.489   0.683   2.204  0.0310 -0.1193 -0.6847
  152OSM    C1516847   3.399   0.733   2.100 -0.2653 -0.5146 -1.2097
  152OSM   H15A16848   3.296   0.701   2.109 -0.1320 -0.5121  0.9162
  152OSM   H15B16849   3.437   0.727   1.999  2.0004  1.3764 -0.5393
  152OSM   H15C16850   3.384   0.839   2.114 -0.6717 -0.6926 -0.2071
  152OSM    C1416851   3.446   0.718   2.334  0.7067  0.5291 -0.4481
  152OSM   H14A16852   3.514   0.684   2.411  1.1499  1.2651 -0.5020
  152OSM   H14B16853   3.350   0.673   2.354  1.1348 -1.0234 -1.6993
  152OSM   H14C16854   3.438   0.826   2.335  2.2368  0.6708 -0.8831
  152OSM    C1316855   3.496   0.533   2.221  0.0686  0.8199 -0.1474
  152OSM   H13A16856   3.402   0.489   2.250 -1.6810  3.7800 -0.8892
  152OSM   H13B16857   3.572   0.516   2.296  0.7800  3.0519 -0.2746
  152OSM   H13C16858   3.529   0.486   2.129 -1.2664 -0.8294  0.1607
  152OSM    C1216859   3.634   0.738   2.169  0.1603 -0.3875 -0.0626
  152OSM   H12A16860   3.661   0.697   2.073  2.6871  0.2392  0.3001
  152OSM   H12B16861   3.701   0.683   2.233 -1.2003 -4.5152 -1.8308
  152OSM    C1116862   3.661   0.892   2.166  1.0373  0.4950 -0.6943
  152OSM   H11A16863   3.606   0.933   2.079 -0.2586 -1.4549 -0.8769
  152OSM   H11B16864   3.769   0.905   2.144  1.5757 -0.2791  1.2757
  152OSM      P16865   3.730   0.999   2.408 -0.3008  0.1100  0.4924
  152OSM    O1316866   3.791   0.878   2.457  0.0455 -0.5386  0.0415
  152OSM    O1416867   3.817   1.105   2.349  0.1692  0.5058 -0.1599
  152OSM    O1116868   3.637   1.059   2.523 -0.0565 -0.2330  0.0024
  152OSM    O1216869   3.626   0.962   2.295  0.1685 -0.6769  0.6401
  152OSM    C1S16870   3.547   0.981   2.599  0.9815 -0.9191 -0.7696
  152OSM    H1S16871   3.515   0.890   2.544 -1.8997 -1.9753  2.3227
  152OSM    H1T16872   3.450   1.034   2.600  0.4087 -1.9521 -0.3612
  152OSM     NF16873   3.491   0.888   2.834 -0.0090 -0.6715  0.9136
  152OSM    HNF16874   3.414   0.942   2.867 -0.0170 -0.6079  0.7891
  152OSM    C2S16875   3.592   0.961   2.751  0.3369  0.2890 -0.4803
  152OSM    H2S16876   3.681   0.895   2.753 -1.0307 -1.6166  0.4691
  152OSM    C3S16877   3.641   1.091   2.809 -0.2962  0.0134  0.1780
  152OSM    H3S16878   3.549   1.153   2.816  0.6476  1.3902  0.9714
  152OSM     O316879   3.723   1.176   2.729 -0.0263  0.1786 -0.7996
  152OSM    HO316880   3.695   1.156   2.639 -0.4104  2.3676 -1.2126
  152OSM    C4S16881   3.693   1.060   2.945 -0.4113 -0.6186 -0.0969
  152OSM    H4S16882   3.616   1.057   3.024 -0.2068 -0.9307  0.0946
  152OSM    C5S16883   3.821   1.028   2.980  0.2323  0.1323  0.1549
  152OSM    H5S16884   3.902   1.047   2.909  0.0365 -0.3941 -0.2133
  152OSM    C6S16885   3.872   1.002   3.118  0.5348  0.8902  0.6774
  152OSM    H6S16886   3.925   1.095   3.147  1.5421  0.5642 -0.0833
  152OSM    H6T16887   3.938   0.913   3.105 -0.3478  0.3902 -0.6674
  152OSM    C7S16888   3.768   0.958   3.218 -0.8927  0.0223 -0.3869
  152OSM    H7S16889   3.725   0.860   3.191  1.1887 -0.5983 -1.6548
  152OSM    H7T16890   3.680   1.026   3.219  0.6261  2.0877  0.5270
  152OSM    C8S16891   3.838   0.944   3.353  0.0830  0.3466 -0.6628
  152OSM    H8S16892   3.894   1.035   3.383  1.1129 -0.7736  0.9168
  152OSM    H8T16893   3.922   0.872   3.347 -0.5634 -0.7152  1.9014
  152OSM    C9S16894   3.744   0.900   3.468 -0.1391 -0.1247  0.2219
  152OSM    H9S16895   3.782   0.801   3.503 -0.1014 -0.1953 -0.0170
  152OSM    H9T16896   3.641   0.886   3.428 -0.2181 -1.6139  0.8449
  152OSM   C10S16897   3.736   0.993   3.588  0.2608  0.0532  0.2088
  152OSM   H10S16898   3.643   0.965   3.642 -0.8471  2.8484 -0.0361
  152OSM   H10T16899   3.720   1.098   3.554 -1.2745 -0.9072 -2.2998
  152OSM   C11S16900   3.863   0.978   3.670  0.4115 -0.0596 -0.0126
  152OSM   H11S16901   3.950   0.998   3.604  0.7309  2.6394  1.0804
  152OSM   H11T16902   3.864   0.877   3.717  0.8682  0.5682  1.3971
  152OSM   C12S16903   3.859   1.086   3.774  0.3509 -0.4620 -0.7301
  152OSM   H12S16904   3.777   1.069   3.847  0.0256  0.8203 -0.7709
  152OSM   H12T16905   3.841   1.184   3.724 -2.9334  0.0318  1.1005
  152OSM   C13S16906   3.992   1.090   3.860 -0.4911 -0.3480  0.2486
  152OSM   H13S16907   4.070   1.146   3.803 -2.1403 -0.3841 -2.2090
  152OSM   H13T16908   4.032   0.989   3.884  2.1216  0.5285 -0.1172
  152OSM   C14S16909   3.975   1.150   4.000 -0.3388 -0.4552  0.7073
  152OSM   H14S16910   3.908   1.081   4.057 -0.2936 -0.6256  0.5547
  152OSM   H14T16911   3.929   1.250   3.991 -0.3174 -0.6186 -1.9111
  152OSM   C15S16912   4.112   1.160   4.073 -0.3001 -0.2731  0.2103
  152OSM   H15S16913   4.187   1.219   4.016  0.1187 -1.3149 -0.3596
  152OSM   H15T16914   4.147   1.054   4.069 -1.4684 -0.6519 -1.9784
  152OSM   C16S16915   4.099   1.215   4.217 -0.1009 -0.0745 -0.5008
  152OSM   H16S16916   4.026   1.143   4.261  1.7298 -1.5066  0.3127
  152OSM   H16T16917   4.057   1.317   4.207  0.9101  0.2354 -1.9849
  152OSM   C17S16918   4.237   1.208   4.288 -0.1549 -0.7422  0.1872
  152OSM   H17S16919   4.310   1.249   4.215 -1.2572 -0.3922 -0.7365
  152OSM   H17T16920   4.271   1.104   4.305 -0.9907 -0.6734  2.8881
  152OSM   C18S16921   4.242   1.281   4.419 -0.7407 -0.4491  1.0023
  152OSM   H18S16922   4.220   1.389   4.410  1.8590 -0.0551 -3.2471
  152OSM   H18T16923   4.346   1.270   4.454 -0.2795  1.5167  0.3492
  152OSM   H18U16924   4.172   1.234   4.492 -0.7955  0.5624  1.6240
  152OSM    C1F16925   3.458   0.761   2.814 -0.0260 -0.0727  0.2266
  152OSM     OF16926   3.524   0.685   2.748 -0.5451  0.2428 -0.3875
  152OSM    C2F16927   3.334   0.716   2.881  0.2977  0.0622 -0.3459
  152OSM    H2F16928   3.250   0.697   2.810 -2.0405  0.5041  2.1083
  152OSM    H2G16929   3.296   0.801   2.942 -1.9434  0.5820 -2.2926
  152OSM    C3F16930   3.364   0.591   2.976  0.2125 -0.4855 -0.1567
  152OSM    H3F16931   3.402   0.511   2.910 -0.5887  0.7989 -2.2759
  152OSM    H3G16932   3.261   0.566   3.009  0.3609  0.2548  0.9580
  152OSM    C4F16933   3.451   0.631   3.096 -0.0391  0.1440 -0.0202
  152OSM    H4F16934   3.409   0.726   3.135 -2.3464 -0.2990 -1.2219
  152OSM    H4G16935   3.554   0.647   3.057 -0.2036  0.0931 -0.4776
  152OSM    C5F16936   3.458   0.532   3.219  0.0762 -0.4063  0.5717
  152OSM    H5F16937   3.492   0.434   3.180  2.2078  1.1240 -1.7660
  152OSM    H5G16938   3.350   0.518   3.237 -0.1483 -0.4407 -0.7299
  152OSM    C6F16939   3.548   0.583   3.341  0.3314 -0.7476  0.2253
  152OSM    H6F16940   3.501   0.680   3.369  0.8983 -0.1709 -0.7527
  152OSM    H6G16941   3.648   0.610   3.299  0.3252  1.1776  1.3315
  152OSM    C7F16942   3.557   0.489   3.457 -0.0434  0.0202  0.4205
  152OSM    H7F16943   3.593   0.388   3.432 -2.8337 -0.9319 -0.1368
  152OSM    H7G16944   3.456   0.485   3.505 -0.7252  0.0780 -0.9629
  152OSM    C8F16945   3.658   0.544   3.574  0.2486  0.5286  1.0120
  152OSM    H8F16946   3.647   0.653   3.593  2.2053  0.7111  1.2715
  152OSM    H8G16947   3.760   0.541   3.529  1.2118  2.2128  2.9283
  152OSM    C9F16948   3.652   0.452   3.695 -0.2446  0.4329  0.0055
  152OSM    H9F16949   3.667   0.347   3.667  0.0961  0.4873 -0.0186
  152OSM   C10F16950   3.648   0.490   3.824  0.1209  0.1838  1.1899
  152OSM   H10F16951   3.643   0.411   3.901 -1.3529  0.4768  1.4153
  152OSM   C11F16952   3.622   0.628   3.874  0.0958 -0.3953 -0.0947
  152OSM   H11F16953   3.559   0.623   3.965  1.1469 -0.4852  0.6460
  152OSM   H11G16954   3.563   0.683   3.798 -0.9563  0.5880  1.3744
  152OSM   C12F16955   3.743   0.712   3.939 -0.1647 -0.3357  0.3575
  152OSM   H12F16956   3.705   0.817   3.944 -0.1268 -0.0442 -3.0212
  152OSM   H12G16957   3.830   0.717   3.870 -0.5021 -0.5371 -0.0821
  152OSM   C13F16958   3.785   0.672   4.076  0.6055 -0.9273 -0.0271
  152OSM   H13F16959   3.849   0.582   4.074  1.9504  0.0117 -1.0808
  152OSM   H13G16960   3.693   0.645   4.132  1.6591 -2.1172  1.1948
  152OSM   C14F16961   3.852   0.790   4.148  0.6139 -0.2132  0.1206
  152OSM   H14F16962   3.782   0.872   4.176  0.4585 -0.4215  0.3532
  152OSM   H14G16963   3.929   0.834   4.082 -1.0157  2.0498 -0.3905
  152OSM   C15F16964   3.905   0.744   4.285 -0.4905  0.1264 -0.8850
  152OSM   H15F16965   3.930   0.636   4.272 -1.4302 -0.0739 -1.1208
  152OSM   H15G16966   3.821   0.746   4.358  1.4053  1.4306  1.4230
  152OSM   C16F16967   4.030   0.816   4.343  0.0496  0.2421  0.9734
  152OSM   H16F16968   4.025   0.926   4.331 -1.6300 -0.0535 -1.9378
  152OSM   H16G16969   4.120   0.771   4.295 -0.4037 -0.7472  1.0276
  152OSM   C17F16970   4.059   0.785   4.490  1.2045 -0.3175  0.3741
  152OSM   H17F16971   4.064   0.677   4.516  0.5767 -0.0345  1.7703
  152OSM   H17G16972   3.969   0.828   4.538  0.5554 -0.7207 -0.4494
  152OSM   C18F16973   4.184   0.858   4.538 -0.0329 -0.7719  0.4209
  152OSM   H18F16974   4.194   0.842   4.647 -0.4298  1.0394  0.7654
  152OSM   H18G16975   4.180   0.962   4.499  1.8437 -1.3529 -1.5328
  152OSM   H18H16976   4.272   0.813   4.488  0.0192  1.9098 -2.1891
  153OSM      N16977   0.296   1.050   1.945  0.1125  0.3458  0.0453
  153OSM    C1516978   0.442   1.092   1.947  0.0681  0.7763  0.3798
  153OSM   H15A16979   0.448   1.180   2.009 -0.9818 -1.2922  3.6604
  153OSM   H15B16980   0.479   1.114   1.848  2.4851 -0.4997  0.9486
  153OSM   H15C16981   0.506   1.017   1.988  0.6240  1.6207  1.0913
  153OSM    C1416982   0.204   1.164   1.925 -0.6586 -0.1211 -0.1006
  153OSM   H14A16983   0.216   1.202   1.824  0.0358  0.6257  0.2521
  153OSM   H14B16984   0.223   1.239   2.000 -1.2783 -0.6235  0.5662
  153OSM   H14C16985   0.104   1.126   1.938 -0.9404  1.2175  2.0519
  153OSM    C1316986   0.264   0.946   1.837  0.5497  0.0302 -0.0552
  153OSM   H13A16987   0.179   0.883   1.859 -0.3436  0.5770 -1.7028
  153OSM   H13B16988   0.343   0.877   1.813  0.6628 -0.1026  0.6834
  153OSM   H13C16989   0.220   0.999   1.754  0.1925  0.2547  0.2730
  153OSM    C1216990   0.260   0.987   2.080  0.2379  0.1229 -0.4135
  153OSM   H12A16991   0.300   0.887   2.084  0.6388  0.3148  1.3928
  153OSM   H12B16992   0.156   0.958   2.091  0.3587 -0.1661  0.0153
  153OSM    C1116993   0.289   1.068   2.211 -0.0625  0.0203 -0.2093
  153OSM   H11A16994   0.394   1.103   2.210  0.5991 -1.8894 -0.9097
  153OSM   H11B16995   0.279   0.989   2.289 -1.1532  0.1175 -0.2396
  153OSM      P16996   0.081   1.173   2.306 -0.1645  0.4052  0.1974
  153OSM    O1316997  -0.020   1.248   2.231  0.5481 -0.2528 -0.4300
  153OSM    O1416998   0.040   1.030   2.323 -0.5150 -0.0320 -0.1896
  153OSM    O1116999   0.104   1.240   2.447  0.0096  0.1327  0.5973
  153OSM    O1217000   0.211   1.187   2.224 -0.1269  0.0821 -0.1424
  153OSM    C1S17001   0.233   1.242   2.511 -0.4987 -0.6471  1.2700
  153OSM    H1S17002   0.300   1.323   2.474 -0.2482 -1.0454  0.8444
  153OSM    H1T17003   0.283   1.144   2.502 -0.4185 -0.4334 -3.6903
  153OSM     NF17004   0.330   1.330   2.714 -0.2047 -0.3386 -0.7099
  153OSM    HNF17005   0.382   1.251   2.744 -1.7883 -0.7755  1.0577
  153OSM    C2S17006   0.206   1.287   2.657 -0.3643  0.7395  0.4337
  153OSM    H2S17007   0.132   1.370   2.651  0.2155  1.3858  1.6772
  153OSM    C3S17008   0.129   1.168   2.731 -0.0726 -0.2326 -0.4201
  153OSM    H3S17009   0.209   1.098   2.763  0.4117  1.4699  2.5617
  153OSM     O317010   0.046   1.079   2.655  0.0521 -0.0635  0.0898
  153OSM    HO317011   0.056   1.118   2.568  1.7670  0.3095  0.4275
  153OSM    C4S17012   0.067   1.233   2.853 -0.1575 -0.1250  0.6901
  153OSM    H4S17013   0.137   1.253   2.936  1.0727  2.1993 -0.7951
  153OSM    C5S17014  -0.049   1.287   2.870  0.2121  0.0205 -0.3460
  153OSM    H5S17015  -0.122   1.274   2.789  1.8192 -2.7823 -1.5176
  153OSM    C6S17016  -0.097   1.368   2.987  0.2660  0.1046  0.5541
  153OSM    H6S17017  -0.205   1.350   3.006  0.0026  0.8642 -0.1932
  153OSM    H6T17018  -0.093   1.475   2.960 -3.8863  0.0056 -1.1045
  153OSM    C7S17019  -0.025   1.350   3.119  0.7913  0.2737 -0.2229
  153OSM    H7S17020   0.085   1.360   3.116  0.6856  3.3631  1.8514
  153OSM    H7T17021  -0.060   1.258   3.171 -1.9575  1.9559  1.1490
  153OSM    C8S17022  -0.062   1.457   3.217  0.0272 -0.1521 -0.7242
  153OSM    H8S17023  -0.172   1.461   3.233 -0.2479  1.9774 -2.6816
  153OSM    H8T17024  -0.043   1.556   3.169 -0.2065  0.3643  0.2290
  153OSM    C9S17025   0.010   1.441   3.350 -0.9754 -0.1852 -0.9083
  153OSM    H9S17026   0.106   1.495   3.335 -0.7047  0.2332  1.7829
  153OSM    H9T17027   0.044   1.336   3.351 -1.1633 -0.2462 -0.5675
  153OSM   C10S17028  -0.054   1.491   3.478 -0.4927  0.3302  0.4952
  153OSM   H10S17029  -0.158   1.455   3.492 -1.0544  0.6653 -2.2710
  153OSM   H10T17030  -0.072   1.600   3.462 -0.9798  0.3843  1.3295
  153OSM   C11S17031   0.034   1.472   3.600 -0.2060  0.3497 -0.7187
  153OSM   H11S17032   0.138   1.506   3.582  0.1443 -0.3618 -0.0803
  153OSM   H11T17033   0.044   1.365   3.628 -0.4860  0.3920 -0.4376
  153OSM   C12S17034  -0.029   1.542   3.723  0.1663  0.1721  0.1509
  153OSM   H12S17035  -0.133   1.510   3.743  0.9072 -1.8299  1.0586
  153OSM   H12T17036  -0.036   1.652   3.706 -0.4486  0.1930  0.5106
  153OSM   C13S17037   0.049   1.507   3.851  0.7301  0.1122 -0.1293
  153OSM   H13S17038   0.154   1.536   3.833  1.0033 -0.2757  0.8063
  153OSM   H13T17039   0.051   1.401   3.884  0.5498 -0.0695 -0.6756
  153OSM   C14S17040   0.011   1.604   3.962 -0.0545 -0.0040  0.4056
  153OSM   H14S17041  -0.086   1.651   3.936  0.7932  1.1693 -0.8154
  153OSM   H14T17042   0.088   1.685   3.969  0.1131 -0.0273 -0.9299
  153OSM   C15S17043   0.026   1.538   4.095  0.2604 -0.5194 -0.6464
  153OSM   H15S17044   0.127   1.505   4.128  0.3528 -0.1517 -0.5553
  153OSM   H15T17045  -0.034   1.444   4.096  0.7439 -0.8467  0.9776
  153OSM   C16S17046  -0.025   1.632   4.201  1.1316 -0.0894 -0.3054
  153OSM   H16S17047  -0.125   1.673   4.174 -0.1490 -2.0108  1.1987
  153OSM   H16T17048   0.038   1.723   4.197 -2.0716  2.4172  1.0730
  153OSM   C17S17049  -0.043   1.562   4.333  0.5366 -0.5786  0.1303
  153OSM   H17S17050   0.054   1.537   4.381  1.4569 -1.0655 -1.8640
  153OSM   H17T17051  -0.104   1.471   4.315 -0.0267  0.1264 -1.7866
  153OSM   C18S17052  -0.131   1.649   4.425 -0.4032  0.1579  0.0069
  153OSM   H18S17053  -0.134   1.593   4.521 -0.5418 -0.3578 -0.2936
  153OSM   H18T17054  -0.231   1.659   4.378  0.7104  0.8219 -2.3584
  153OSM   H18U17055  -0.095   1.754   4.422  0.2294 -0.0833 -1.5848
  153OSM    C1F17056   0.395   1.446   2.682  0.0319  0.5425 -0.4935
  153OSM     OF17057   0.329   1.531   2.622 -0.7083 -0.3246 -0.0753
  153OSM    C2F17058   0.536   1.453   2.748 -0.0784  0.2198 -0.0976
  153OSM    H2F17059   0.606   1.413   2.672  0.3512 -0.4305  0.6399
  153OSM    H2G17060   0.535   1.384   2.834  1.1612  1.3014  0.8244
  153OSM    C3F17061   0.595   1.592   2.786 -0.3269  0.3527  1.1433
  153OSM    H3F17062   0.530   1.639   2.863  0.2653  2.2386  0.5615
  153OSM    H3G17063   0.593   1.640   2.686 -0.8577 -1.3313  0.3142
  153OSM    C4F17064   0.733   1.582   2.845 -0.6671  0.4782  0.3565
  153OSM    H4F17065   0.788   1.679   2.841  1.2384 -0.4976  1.1193
  153OSM    H4G17066   0.812   1.532   2.784 -0.0410  0.7148  0.9506
  153OSM    C5F17067   0.737   1.531   2.995  0.6513  0.4803 -0.3483
  153OSM    H5F17068   0.839   1.489   3.013  0.3688  0.5220  1.6049
  153OSM    H5G17069   0.663   1.449   3.010 -0.5109  1.1196 -2.3061
  153OSM    C6F17070   0.705   1.648   3.097  0.1741 -0.0925  0.0601
  153OSM    H6F17071   0.609   1.696   3.067  0.0950  1.6320  2.7162
  153OSM    H6G17072   0.769   1.738   3.083  1.8955 -1.3951 -0.8746
  153OSM    C7F17073   0.697   1.624   3.246 -0.1873  0.8391 -0.3301
  153OSM    H7F17074   0.599   1.578   3.270  0.1971  0.5078  0.6319
  153OSM    H7G17075   0.709   1.725   3.290  1.1070 -0.1711  1.7812
  153OSM    C8F17076   0.820   1.544   3.301  0.4042  0.1451  0.6382
  153OSM    H8F17077   0.818   1.435   3.279 -5.4822  0.0306  0.0792
  153OSM    H8G17078   0.794   1.533   3.409 -3.3924  1.4480 -0.0015
  153OSM    C9F17079   0.960   1.598   3.287  0.5606  0.8962  0.2825
  153OSM    H9F17080   1.002   1.564   3.191 -1.6219 -0.0744 -0.3892
  153OSM   C10F17081   1.045   1.632   3.385 -0.3758 -0.2703 -0.1025
  153OSM   H10F17082   1.144   1.668   3.353 -0.2815  0.1064  0.6070
  153OSM   C11F17083   1.015   1.645   3.530  0.8208 -0.0568  0.3234
  153OSM   H11F17084   1.111   1.649   3.586 -0.1414  0.0557  2.0463
  153OSM   H11G17085   0.962   1.556   3.570  0.8799  0.3693  1.3740
  153OSM   C12F17086   0.941   1.782   3.576  0.2755  0.6777 -0.0528
  153OSM   H12F17087   0.848   1.781   3.515  0.3805  1.0279 -0.2187
  153OSM   H12G17088   1.005   1.867   3.547  1.0043  0.2549  0.2788
  153OSM   C13F17089   0.896   1.797   3.720  0.8048 -0.1371 -0.5464
  153OSM   H13F17090   0.837   1.708   3.752  0.9030  0.1934  0.5786
  153OSM   H13G17091   0.842   1.893   3.718  0.9379 -0.0673 -1.0122
  153OSM   C14F17092   1.031   1.794   3.799 -0.5796 -0.2120  0.2322
  153OSM   H14F17093   1.109   1.849   3.742  0.8673 -0.8001  1.5713
  153OSM   H14G17094   1.051   1.688   3.822  1.7259  0.2618  0.6392
  153OSM   C15F17095   1.022   1.867   3.935 -0.7455 -0.6541 -0.0972
  153OSM   H15F17096   0.922   1.840   3.976  0.2352 -2.0537  1.4321
  153OSM   H15G17097   1.013   1.976   3.911  2.1075 -0.5290 -0.9271
  153OSM   C16F17098   1.133   1.847   4.041 -0.6103 -0.4225  0.5476
  153OSM   H16F17099   1.234   1.849   3.996 -1.2175 -0.9897 -0.9157
  153OSM   H16G17100   1.117   1.742   4.075 -1.8057 -0.0016  1.3367
  153OSM   C17F17101   1.124   1.952   4.151  0.7169  0.4327  0.5152
  153OSM   H17F17102   1.038   1.923   4.216  0.6733  1.6730  1.0278
  153OSM   H17G17103   1.100   2.050   4.105 -0.2284  0.3987  0.8989
  153OSM   C18F17104   1.249   1.967   4.244  0.6794  0.1848  0.7916
  153OSM   H18F17105   1.214   2.018   4.337  1.0902  2.5727 -0.2782
  153OSM   H18G17106   1.330   2.027   4.197  1.2590 -0.5857  0.7888
  153OSM   H18H17107   1.279   1.865   4.273  0.2345  0.0554  0.8107
  154OSM      N17108   1.136   6.627   1.869  0.8332  0.2713  0.1267
  154OSM    C1517109   1.156   6.765   1.819  0.7075 -0.8448 -0.3373
  154OSM   H15A17110   1.262   6.783   1.822  0.4033  1.1871 -0.9206
  154OSM   H15B17111   1.122   6.835   1.894  3.0577  2.0591 -1.7850
  154OSM   H15C17112   1.115   6.778   1.720 -0.7464 -0.6997  0.2479
  154OSM    C1417113   0.998   6.590   1.844  0.2294 -0.3942 -0.5824
  154OSM   H14A17114   0.926   6.657   1.890  0.8041 -1.5664  2.2896
  154OSM   H14B17115   0.971   6.498   1.894 -0.1380  0.2224  0.3901
  154OSM   H14C17116   0.976   6.585   1.739 -2.4130  0.2824 -0.1351
  154OSM    C1317117   1.226   6.534   1.790  0.7895  0.3272 -1.1753
  154OSM   H13A17118   1.332   6.551   1.801  0.6872  0.5761 -0.4773
  154OSM   H13B17119   1.201   6.538   1.685 -0.2976 -0.2732 -0.9581
  154OSM   H13C17120   1.200   6.437   1.831  0.8984  1.5054  2.0434
  154OSM    C1217121   1.172   6.609   2.017  0.6373  0.5274  0.8351
  154OSM   H12A17122   1.276   6.639   2.024  1.8433 -3.0166  0.1392
  154OSM   H12B17123   1.163   6.505   2.043  1.5400 -0.1534 -1.3194
  154OSM    C1117124   1.104   6.689   2.130 -0.0768 -0.0149  0.0265
  154OSM   H11A17125   1.142   6.667   2.232 -0.3552 -0.2112  0.0894
  154OSM   H11B17126   0.997   6.661   2.133 -0.1324  0.2595  0.9573
  154OSM      P17127   1.215   6.924   2.162 -0.1328 -0.2120 -0.3468
  154OSM    O1317128   1.347   6.912   2.104 -0.1782 -0.2051 -0.4005
  154OSM    O1417129   1.148   7.052   2.149 -0.0245 -0.6533 -0.1454
  154OSM    O1117130   1.211   6.885   2.319 -0.6081 -0.0505  0.1285
  154OSM    O1217131   1.110   6.825   2.097 -0.1580  0.1506 -0.5932
  154OSM    C1S17132   1.318   6.816   2.379 -0.0001 -0.5584 -1.0179
  154OSM    H1S17133   1.409   6.879   2.372  0.1596 -0.6802 -0.2054
  154OSM    H1T17134   1.348   6.717   2.336 -1.0627 -1.7761  0.9029
  154OSM     NF17135   1.390   6.712   2.594 -0.1759  0.9106  0.0724
  154OSM    HNF17136   1.375   6.614   2.602  0.2924  0.9795  2.6940
  154OSM    C2S17137   1.290   6.799   2.535 -0.9136  0.4990  0.1257
  154OSM    H2S17138   1.303   6.901   2.577 -2.5093  0.2492  1.3189
  154OSM    C3S17139   1.144   6.765   2.575  0.2764 -0.0661  1.0828
  154OSM    H3S17140   1.113   6.669   2.528 -1.1668  0.0717  1.7277
  154OSM     O317141   1.044   6.859   2.528  0.2939 -0.4533 -0.0150
  154OSM    HO317142   1.091   6.915   2.466  1.1190 -1.3600 -0.2196
  154OSM    C4S17143   1.140   6.739   2.728 -0.0462  0.3564  0.8759
  154OSM    H4S17144   1.168   6.636   2.756 -3.5995 -0.8644  0.4038
  154OSM    C5S17145   1.094   6.821   2.828 -0.1596 -0.3224  0.0020
  154OSM    H5S17146   1.062   6.923   2.802  0.5808 -0.4252 -1.4204
  154OSM    C6S17147   1.077   6.789   2.973 -0.3317  0.2819 -0.0462
  154OSM    H6S17148   0.981   6.838   3.002 -0.0114  0.5585  0.5754
  154OSM    H6T17149   1.157   6.841   3.030  0.1620  0.5422 -0.9563
  154OSM    C7S17150   1.081   6.638   3.012 -0.2823 -0.0234  0.0906
  154OSM    H7S17151   1.188   6.612   2.998  0.5743  2.3198  1.6922
  154OSM    H7T17152   1.014   6.587   2.939  0.0748 -2.7420  1.5313
  154OSM    C8S17153   1.027   6.606   3.155  0.0778  0.1588  1.2401
  154OSM    H8S17154   1.041   6.497   3.162  1.2277  0.0648 -1.5802
  154OSM    H8T17155   0.921   6.640   3.157 -0.7843 -1.6842 -3.0223
  154OSM    C9S17156   1.095   6.680   3.264 -0.1413  0.3697  0.0724
  154OSM    H9S17157   1.066   6.787   3.260 -1.6309 -0.0378 -1.1471
  154OSM    H9T17158   1.204   6.661   3.271 -0.3294 -0.0268  3.5705
  154OSM   C10S17159   1.047   6.626   3.399 -0.0344 -0.6157  0.2492
  154OSM   H10S17160   1.089   6.523   3.405  1.0061 -0.1315  3.1559
  154OSM   H10T17161   0.937   6.610   3.402 -0.1816  0.1358 -0.7318
  154OSM   C11S17162   1.087   6.717   3.516 -0.6619 -0.2516 -1.0918
  154OSM   H11S17163   1.052   6.817   3.485  0.5923 -0.4820 -3.4772
  154OSM   H11T17164   1.198   6.722   3.526 -0.9030  0.5167  2.3911
  154OSM   C12S17165   1.030   6.668   3.645  0.0732 -0.2877  0.5866
  154OSM   H12S17166   1.072   6.569   3.675 -1.2823 -1.0976 -0.0730
  154OSM   H12T17167   0.920   6.655   3.641 -0.0096 -0.1383  1.9381
  154OSM   C13S17168   1.049   6.772   3.758 -0.3356  0.4868 -1.0468
  154OSM   H13S17169   0.982   6.858   3.734 -0.1808  0.2483 -2.4355
  154OSM   H13T17170   1.152   6.811   3.762  0.1063 -0.6712 -0.6446
  154OSM   C14S17171   1.017   6.713   3.891 -0.0500  0.1396 -0.5595
  154OSM   H14S17172   1.069   6.615   3.903  1.1492  0.8298  0.0728
  154OSM   H14T17173   0.907   6.703   3.903 -0.2235  1.5947 -0.7388
  154OSM   C15S17174   1.054   6.801   4.013 -0.9215 -0.6686 -0.1260
  154OSM   H15S17175   1.156   6.845   4.022 -1.0898 -0.4215  0.6508
  154OSM   H15T17176   1.027   6.758   4.112  3.1526 -1.4273  0.8709
  154OSM   C16S17177   0.971   6.929   4.009  0.1935  0.1795 -1.1401
  154OSM   H16S17178   0.865   6.896   4.011  0.2085  0.0573  2.4194
  154OSM   H16T17179   0.999   6.989   3.919 -0.8499  0.5122 -1.2600
  154OSM   C17S17180   0.992   7.016   4.136  0.2273  0.0007  0.2817
  154OSM   H17S17181   1.096   7.056   4.131 -0.3760  1.7225  0.8603
  154OSM   H17T17182   0.982   6.954   4.228 -1.3772 -2.7950 -1.6454
  154OSM   C18S17183   0.905   7.141   4.146 -1.0204  0.1434 -0.0143
  154OSM   H18S17184   0.798   7.111   4.145 -0.1957 -3.1120 -0.7492
  154OSM   H18T17185   0.929   7.207   4.060 -1.1339 -1.0298 -0.9578
  154OSM   H18U17186   0.930   7.192   4.242 -0.3783  0.0239 -0.1158
  154OSM    C1F17187   1.521   6.742   2.611 -0.5448 -0.1174 -0.5151
  154OSM     OF17188   1.566   6.855   2.601  0.4562  0.0706  0.1781
  154OSM    C2F17189   1.613   6.622   2.650 -0.0335 -0.4477 -0.4598
  154OSM    H2F17190   1.716   6.661   2.662 -0.5858  1.5273 -1.5979
  154OSM    H2G17191   1.607   6.555   2.561 -0.4567 -0.0939 -0.7052
  154OSM    C3F17192   1.568   6.545   2.779  0.7731  0.1050 -0.4694
  154OSM    H3F17193   1.626   6.451   2.794  0.4159 -0.0446 -0.0012
  154OSM    H3G17194   1.463   6.508   2.772  1.5290 -2.7840  1.6842
  154OSM    C4F17195   1.591   6.630   2.910 -0.5011 -0.0847 -0.0892
  154OSM    H4F17196   1.533   6.725   2.905 -2.0578 -1.0669 -2.2517
  154OSM    H4G17197   1.698   6.653   2.929 -0.1259 -1.1096 -0.8793
  154OSM    C5F17198   1.543   6.561   3.043 -0.1462  0.1575  0.3192
  154OSM    H5F17199   1.583   6.459   3.060 -0.8872  0.1375  2.0841
  154OSM    H5G17200   1.434   6.551   3.029 -0.1805 -0.9835  1.3015
  154OSM    C6F17201   1.558   6.649   3.174  0.4016 -0.3262 -1.0773
  154OSM    H6F17202   1.490   6.736   3.165  1.5525  0.7242 -0.0449
  154OSM    H6G17203   1.663   6.687   3.173  0.9524 -1.6708  0.8249
  154OSM    C7F17204   1.541   6.582   3.313  0.0917  0.2814 -0.5200
  154OSM    H7F17205   1.629   6.517   3.327  1.5930  2.4123  0.4169
  154OSM    H7G17206   1.457   6.509   3.313 -0.4001  0.8182  0.8824
  154OSM    C8F17207   1.536   6.682   3.426  0.3482  0.3025 -0.2160
  154OSM    H8F17208   1.507   6.621   3.515  0.2186  0.1035 -0.3925
  154OSM    H8G17209   1.454   6.757   3.415 -0.6305 -0.6254  0.4804
  154OSM    C9F17210   1.664   6.758   3.449 -0.1573  0.2303  0.0044
  154OSM    H9F17211   1.664   6.854   3.395  1.0878 -0.6390 -1.6355
  154OSM   C10F17212   1.777   6.725   3.522  0.5865 -0.0397 -0.8214
  154OSM   H10F17213   1.863   6.793   3.513  0.3396  0.5954  1.1064
  154OSM   C11F17214   1.789   6.609   3.619  0.4610  0.4966  0.9346
  154OSM   H11F17215   1.829   6.524   3.561  1.1029  1.7190 -0.4894
  154OSM   H11G17216   1.690   6.578   3.658 -0.0020 -1.4586 -1.5919
  154OSM   C12F17217   1.883   6.638   3.738  0.7324 -0.1148 -0.1984
  154OSM   H12F17218   1.987   6.659   3.704  0.6250  0.7997  0.0219
  154OSM   H12G17219   1.886   6.546   3.801  2.6881  0.1263  0.1164
  154OSM   C13F17220   1.841   6.761   3.822 -0.3157  0.8426  0.0737
  154OSM   H13F17221   1.732   6.762   3.841 -0.2626  0.2129  0.4368
  154OSM   H13G17222   1.878   6.848   3.763  0.4074 -0.3183 -1.2808
  154OSM   C14F17223   1.920   6.755   3.954 -0.1904  0.2518  0.8150
  154OSM   H14F17224   2.025   6.739   3.923 -0.6348  1.0589 -1.2912
  154OSM   H14G17225   1.889   6.668   4.016 -1.0672 -1.4364 -1.8028
  154OSM   C15F17226   1.909   6.890   4.024  0.4202  0.4610 -0.5116
  154OSM   H15F17227   1.802   6.912   4.040  0.7990  2.6806 -0.7929
  154OSM   H15G17228   1.944   6.972   3.958 -1.8153  0.6663 -1.5254
  154OSM   C16F17229   2.002   6.891   4.147  0.0452  0.5075  0.3895
  154OSM   H16F17230   2.105   6.886   4.105 -1.1088  3.1019 -3.2669
  154OSM   H16G17231   1.967   6.801   4.201 -3.0917  1.3109 -0.0828
  154OSM   C17F17232   1.990   7.022   4.232  0.4533  0.4204  0.5642
  154OSM   H17F17233   2.010   7.111   4.169  1.7026  1.2115  2.0362
  154OSM   H17G17234   2.073   7.019   4.306  0.5582 -0.1422  0.4282
  154OSM   C18F17235   1.860   7.041   4.308  0.2542  0.6370 -0.6659
  154OSM   H18F17236   1.769   7.019   4.249  0.1290  1.8173 -0.9327
  154OSM   H18G17237   1.853   7.147   4.341  2.3957  0.4546  0.5853
  154OSM   H18H17238   1.858   6.982   4.403  0.2960  1.7840  0.0692
  155OSM      N17239   3.366   5.349   2.279  0.0685  0.4208 -0.2838
  155OSM    C1517240   3.303   5.371   2.148 -0.4319 -0.0595  0.4546
  155OSM   H15A17241   3.211   5.425   2.164 -1.1296 -1.1453  0.2475
  155OSM   H15B17242   3.279   5.274   2.106 -0.0939  0.1336 -0.1951
  155OSM   H15C17243   3.367   5.417   2.075 -0.4577  0.3682  0.6986
  155OSM    C1417244   3.505   5.300   2.271 -0.9815  0.3626 -0.2841
  155OSM   H14A17245   3.513   5.195   2.248  3.1261 -0.1620  2.4704
  155OSM   H14B17246   3.559   5.314   2.363 -0.4792  0.7574 -0.6308
  155OSM   H14C17247   3.564   5.349   2.195 -1.9583  0.7118 -0.8367
  155OSM    C1317248   3.376   5.485   2.346 -0.1841 -1.3999  0.6740
  155OSM   H13A17249   3.283   5.540   2.337  0.7218  0.0251 -0.3386
  155OSM   H13B17250   3.456   5.540   2.299 -1.0181  1.0799  1.9372
  155OSM   H13C17251   3.393   5.473   2.452 -2.1477  0.3614  1.2646
  155OSM    C1217252   3.271   5.259   2.355  0.4392 -0.3521 -0.6641
  155OSM   H12A17253   3.276   5.157   2.322  0.0516 -0.4192 -0.5109
  155OSM   H12B17254   3.171   5.291   2.331  0.5615 -0.3886 -1.2415
  155OSM    C1117255   3.294   5.266   2.510 -0.0503  0.3330 -0.0294
  155OSM   H11A17256   3.217   5.198   2.554  0.3445  1.8045  3.1917
  155OSM   H11B17257   3.260   5.365   2.547 -1.3234 -0.7225  1.8004
  155OSM      P17258   3.520   5.304   2.646 -0.2281  0.1781  0.0539
  155OSM    O1317259   3.660   5.280   2.602 -0.4133 -1.1960 -0.2336
  155OSM    O1417260   3.481   5.448   2.671 -0.3150  0.1569 -0.0141
  155OSM    O1117261   3.507   5.233   2.784 -0.4085  0.1938 -0.3749
  155OSM    O1217262   3.423   5.224   2.561 -0.1289 -0.1165  0.0157
  155OSM    C1S17263   3.387   5.205   2.859 -0.3523  0.2467 -0.6279
  155OSM    H1S17264   3.339   5.125   2.799  2.5942  0.0744 -3.0095
  155OSM    H1T17265   3.323   5.294   2.874 -2.6993 -1.6140  1.1811
  155OSM     NF17266   3.306   5.122   3.085 -0.1154  0.3293 -0.1748
  155OSM    HNF17267   3.276   5.205   3.131 -0.9373 -0.7571  1.3470
  155OSM    C2S17268   3.428   5.148   3.006 -0.1292 -0.5655  0.5070
  155OSM    H2S17269   3.479   5.053   2.979  1.9300  0.4778  0.5109
  155OSM    C3S17270   3.536   5.243   3.071  0.2309 -0.0522  0.3460
  155OSM    H3S17271   3.491   5.343   3.086  0.0996  0.0106 -0.4452
  155OSM     O317272   3.665   5.263   2.999  0.6022  0.5734 -0.7353
  155OSM    HO317273   3.648   5.247   2.906  0.9912 -0.4203 -0.6407
  155OSM    C4S17274   3.563   5.185   3.204 -0.7416 -0.6417  0.2574
  155OSM    H4S17275   3.541   5.255   3.287 -0.6614 -0.6091  0.2514
  155OSM    C5S17276   3.633   5.076   3.237  0.0468  1.0468  0.1448
  155OSM    H5S17277   3.683   5.017   3.159  0.1938  0.3703  0.7482
  155OSM    C6S17278   3.676   5.027   3.374  0.1964  0.2789 -0.2410
  155OSM    H6S17279   3.784   5.045   3.391  0.8343 -1.7374 -1.7029
  155OSM    H6T17280   3.671   4.917   3.391 -0.7290  0.3823  0.2334
  155OSM    C7S17281   3.594   5.095   3.490  0.1963  0.0916  0.3057
  155OSM    H7S17282   3.487   5.070   3.473  0.0521  0.8105  0.1297
  155OSM    H7T17283   3.611   5.205   3.489  0.7704  0.0070  0.4164
  155OSM    C8S17284   3.641   5.048   3.626  0.0642 -0.2906 -0.5044
  155OSM    H8S17285   3.747   5.015   3.617 -0.0436 -0.8745  0.2502
  155OSM    H8T17286   3.589   4.956   3.661  2.0906 -1.2951  0.0209
  155OSM    C9S17287   3.632   5.153   3.743 -0.1258  1.1792  0.0383
  155OSM    H9S17288   3.522   5.166   3.753 -0.1088  0.8451  0.7258
  155OSM    H9T17289   3.678   5.244   3.700 -1.2967  0.8577 -2.0066
  155OSM   C10S17290   3.693   5.101   3.867  0.1646 -0.5878  0.1589
  155OSM   H10S17291   3.803   5.087   3.873  0.4366  1.6708  1.4038
  155OSM   H10T17292   3.639   5.006   3.890 -2.1143  0.5682 -0.0909
  155OSM   C11S17293   3.672   5.196   3.982 -0.5179 -0.4077 -0.3904
  155OSM   H11S17294   3.565   5.224   3.983 -0.4606 -0.1522 -1.1392
  155OSM   H11T17295   3.735   5.286   3.962 -0.6160 -0.1948  0.2111
  155OSM   C12S17296   3.699   5.136   4.118 -0.0583  0.4375  0.4089
  155OSM   H12S17297   3.732   5.223   4.179  0.9004  0.9294 -0.7753
  155OSM   H12T17298   3.778   5.057   4.115  1.5567  1.9629 -3.5498
  155OSM   C13S17299   3.565   5.069   4.154  0.4706  0.8154  0.2429
  155OSM   H13S17300   3.558   4.977   4.092  1.0027  0.5938  0.5038
  155OSM   H13T17301   3.476   5.134   4.140 -0.9670 -1.2983 -0.8466
  155OSM   C14S17302   3.563   5.017   4.299 -0.9520  0.3561 -0.0374
  155OSM   H14S17303   3.552   5.098   4.375 -0.9794 -0.8674  1.3142
  155OSM   H14T17304   3.660   4.964   4.303 -1.0053  0.0869 -1.7315
  155OSM   C15S17305   3.459   4.907   4.323 -0.2900 -0.3507 -0.3682
  155OSM   H15S17306   3.502   4.815   4.278 -0.6195 -0.5093 -0.3612
  155OSM   H15T17307   3.374   4.955   4.271  0.0637  0.5839 -0.1069
  155OSM   C16S17308   3.451   4.899   4.470  0.0921  0.6801 -0.8053
  155OSM   H16S17309   3.424   4.998   4.513 -1.2634 -0.1724  0.4167
  155OSM   H16T17310   3.544   4.866   4.520 -1.6068  0.8381  2.8226
  155OSM   C17S17311   3.342   4.797   4.504 -0.0497 -0.2622  0.0021
  155OSM   H17S17312   3.247   4.818   4.452  0.4590 -1.8306 -1.6991
  155OSM   H17T17313   3.326   4.808   4.614  3.0109  0.0654  0.5068
  155OSM   C18S17314   3.378   4.652   4.468 -0.8387 -0.3270 -0.7485
  155OSM   H18S17315   3.291   4.591   4.500 -2.0327 -0.2208 -3.5731
  155OSM   H18T17316   3.465   4.616   4.528 -1.7919 -2.4081 -0.5252
  155OSM   H18U17317   3.405   4.631   4.363  0.1901  1.4872 -0.8854
  155OSM    C1F17318   3.230   5.010   3.081 -0.2350 -0.0788  0.0313
  155OSM     OF17319   3.270   4.910   3.017  0.0085  0.1147 -0.0376
  155OSM    C2F17320   3.098   5.007   3.154 -1.1303 -0.6518  0.2336
  155OSM    H2F17321   3.013   4.993   3.084 -0.0293  1.3256 -1.6233
  155OSM    H2G17322   3.095   5.094   3.223  0.1403 -1.5369  1.4619
  155OSM    C3F17323   3.105   4.888   3.252  0.2139  0.6489  0.4921
  155OSM    H3F17324   3.195   4.881   3.316  1.4794 -1.2671 -1.3472
  155OSM    H3G17325   3.097   4.794   3.193 -1.2583  1.6836 -1.0673
  155OSM    C4F17326   2.976   4.879   3.332 -0.1237  0.0478 -0.3271
  155OSM    H4F17327   2.890   4.882   3.263  0.4742  1.2563 -1.0455
  155OSM    H4G17328   2.962   4.970   3.394  1.0237  0.1994 -0.2700
  155OSM    C5F17329   2.968   4.749   3.417 -0.1897 -0.0745  0.1473
  155OSM    H5F17330   2.884   4.762   3.488 -1.1934  0.2081 -1.0727
  155OSM    H5G17331   3.057   4.752   3.484 -1.2310 -1.3980  1.6885
  155OSM    C6F17332   2.953   4.615   3.335  0.3338 -0.3181 -0.6190
  155OSM    H6F17333   2.950   4.534   3.411  0.6207  0.7213  0.5370
  155OSM    H6G17334   3.046   4.607   3.274  1.2118  1.1468  0.4494
  155OSM    C7F17335   2.821   4.591   3.256 -0.6562  0.3031  0.5431
  155OSM    H7F17336   2.806   4.502   3.191 -0.7992  1.4105 -0.9799
  155OSM    H7G17337   2.807   4.673   3.183  1.4969  1.4244  1.3329
  155OSM    C8F17338   2.700   4.602   3.355 -0.2086  0.2933  0.1445
  155OSM    H8F17339   2.611   4.619   3.291 -0.1627  2.0402  0.4833
  155OSM    H8G17340   2.704   4.685   3.429 -1.8725 -0.3149  0.9655
  155OSM    C9F17341   2.682   4.481   3.430  0.1676  0.6600  0.1844
  155OSM    H9F17342   2.662   4.403   3.355  0.6051  1.0977 -0.3960
  155OSM   C10F17343   2.699   4.454   3.558 -0.3477  0.4135 -0.2600
  155OSM   H10F17344   2.694   4.352   3.598 -0.6703  0.9646  1.2011
  155OSM   C11F17345   2.746   4.558   3.664  0.5809  0.0072  0.0444
  155OSM   H11F17346   2.664   4.553   3.739  0.1247  2.0818 -0.2593
  155OSM   H11G17347   2.746   4.662   3.625 -0.7939 -0.1160 -0.3472
  155OSM   C12F17348   2.871   4.520   3.741 -0.0439 -0.4749 -0.2800
  155OSM   H12F17349   2.915   4.601   3.803 -1.2943  0.2338 -0.3025
  155OSM   H12G17350   2.943   4.516   3.656  0.7248  1.6795  0.2142
  155OSM   C13F17351   2.863   4.391   3.824 -0.5141 -0.1255 -0.2500
  155OSM   H13F17352   2.811   4.308   3.770 -1.1921 -0.6041  1.0828
  155OSM   H13G17353   2.792   4.415   3.906  0.7412 -1.4535  1.2854
  155OSM   C14F17354   2.999   4.329   3.857  0.2609  0.5560  0.0049
  155OSM   H14F17355   2.974   4.248   3.929 -0.1588  1.7252  1.1993
  155OSM   H14G17356   3.057   4.411   3.905  2.0879 -2.9840  4.6180
  155OSM   C15F17357   3.073   4.269   3.737  0.5824  0.1050 -0.2383
  155OSM   H15F17358   3.051   4.321   3.642 -2.0525  0.0363  0.2603
  155OSM   H15G17359   3.046   4.161   3.729  0.2931  0.1565  0.0156
  155OSM   C16F17360   3.218   4.271   3.758  0.2994  0.3194 -0.7899
  155OSM   H16F17361   3.249   4.211   3.847  0.0155  0.8185 -0.3481
  155OSM   H16G17362   3.243   4.377   3.780  0.2656  0.5244 -1.7169
  155OSM   C17F17363   3.296   4.222   3.635 -0.6050  0.8043  0.0894
  155OSM   H17F17364   3.394   4.274   3.624  0.6373 -1.2133  1.0947
  155OSM   H17G17365   3.247   4.260   3.543  1.2948  0.1849 -1.2294
  155OSM   C18F17366   3.324   4.071   3.625 -0.4710 -0.2760 -0.9659
  155OSM   H18F17367   3.327   4.041   3.518 -0.7426 -1.6048 -0.6170
  155OSM   H18G17368   3.256   3.996   3.671 -0.5943 -0.4457 -1.4109
  155OSM   H18H17369   3.426   4.051   3.665 -0.0991 -0.0466 -1.7613
  156OSM      N17370   3.588   1.980   2.027 -0.3007  0.7698 -0.0809
  156OSM    C1517371   3.656   1.976   1.896 -0.0032  0.2334  0.3927
  156OSM   H15A17372   3.746   1.917   1.891  1.8764  2.6184  2.6330
  156OSM   H15B17373   3.675   2.080   1.873  1.2748  0.3476  1.8170
  156OSM   H15C17374   3.589   1.942   1.819 -0.3631  2.6502 -0.4529
  156OSM    C1417375   3.666   2.078   2.107  0.1559 -0.5756  0.4615
  156OSM   H14A17376   3.663   2.179   2.068 -0.1085 -1.2667 -1.3761
  156OSM   H14B17377   3.766   2.040   2.123 -0.0520 -0.8174  1.2629
  156OSM   H14C17378   3.629   2.082   2.209  0.3331 -1.6425  0.5794
  156OSM    C1317379   3.454   2.035   2.013 -0.1909  0.2141  0.1833
  156OSM   H13A17380   3.399   2.061   2.102  0.0148  0.6669  0.1797
  156OSM   H13B17381   3.382   1.966   1.971 -0.4933  0.8947 -0.4325
  156OSM   H13C17382   3.460   2.125   1.953 -0.1184 -0.0949 -0.2819
  156OSM    C1217383   3.582   1.843   2.089 -0.7407 -0.4519 -0.6734
  156OSM   H12A17384   3.679   1.812   2.127 -1.1965 -1.3387 -0.2048
  156OSM   H12B17385   3.557   1.767   2.016 -0.6809 -0.7171 -0.4240
  156OSM    C1117386   3.496   1.833   2.218  0.0258 -1.2630  0.0932
  156OSM   H11A17387   3.499   1.725   2.241  0.4592 -0.9969  1.4201
  156OSM   H11B17388   3.391   1.862   2.200 -0.0448  0.8016  2.9694
  156OSM      P17389   3.650   1.861   2.418 -0.1281 -0.0971  0.1816
  156OSM    O1317390   3.730   1.751   2.353  0.1543 -0.0733 -0.0699
  156OSM    O1417391   3.727   1.979   2.469  0.4674  0.5285 -0.4100
  156OSM    O1117392   3.562   1.800   2.529 -0.1981  0.3484 -0.3828
  156OSM    O1217393   3.539   1.912   2.326  0.0614 -0.4697  0.2716
  156OSM    C1S17394   3.478   1.872   2.616 -0.0753 -0.2202 -0.3224
  156OSM    H1S17395   3.374   1.877   2.577 -0.2046  2.9555  0.1944
  156OSM    H1T17396   3.511   1.977   2.631  0.7282 -0.6770  1.3850
  156OSM     NF17397   3.363   1.887   2.831  0.6125 -0.0991 -0.4812
  156OSM    HNF17398   3.389   1.954   2.900  0.0151 -1.5862  1.2556
  156OSM    C2S17399   3.472   1.818   2.763  0.2436  0.0513  0.7002
  156OSM    H2S17400   3.433   1.715   2.747 -1.7883  0.9392 -0.5440
  156OSM    C3S17401   3.604   1.803   2.841  0.0681 -0.5705  0.0771
  156OSM    H3S17402   3.658   1.899   2.855 -2.0101  0.4953  1.1276
  156OSM     O317403   3.694   1.712   2.777 -0.2998  0.0937  0.0176
  156OSM    HO317404   3.679   1.745   2.688 -2.1025  2.2385  0.9790
  156OSM    C4S17405   3.573   1.751   2.982  0.3677 -0.2358  0.1099
  156OSM    H4S17406   3.607   1.818   3.062 -0.2291  0.9687 -0.6081
  156OSM    C5S17407   3.502   1.638   3.014  0.0197  0.4409 -0.5870
  156OSM    H5S17408   3.464   1.574   2.933 -0.5115 -2.5708  1.8835
  156OSM    C6S17409   3.462   1.597   3.155  0.2729  0.7528  0.0666
  156OSM    H6S17410   3.546   1.545   3.206 -0.2728 -1.5789 -1.2298
  156OSM    H6T17411   3.389   1.513   3.150 -0.4668  1.4079 -0.5355
  156OSM    C7S17412   3.402   1.697   3.252  0.5076  0.7051 -0.3666
  156OSM    H7S17413   3.296   1.711   3.222 -0.1438  1.8152  2.1943
  156OSM    H7T17414   3.453   1.796   3.249 -1.2464  1.6489 -0.1473
  156OSM    C8S17415   3.403   1.642   3.391 -0.2215  0.4293 -0.2105
  156OSM    H8S17416   3.502   1.595   3.413  1.0245  2.4810 -1.1797
  156OSM    H8T17417   3.334   1.555   3.389  1.0731 -0.6811  0.6846
  156OSM    C9S17418   3.383   1.748   3.497 -0.3057 -0.2616 -0.2529
  156OSM    H9S17419   3.298   1.812   3.465  1.4956  2.5177  0.0893
  156OSM    H9T17420   3.467   1.821   3.508  0.0355 -0.8460  1.2623
  156OSM   C10S17421   3.356   1.682   3.631 -0.0894  0.0988  0.0780
  156OSM   H10S17422   3.447   1.642   3.680 -1.7486 -1.6231  1.9008
  156OSM   H10T17423   3.283   1.599   3.627 -0.0024 -0.1500  2.5171
  156OSM   C11S17424   3.296   1.784   3.735 -0.0510 -0.2840 -0.5438
  156OSM   H11S17425   3.189   1.810   3.716  0.8347  3.0940 -1.5032
  156OSM   H11T17426   3.334   1.886   3.711 -0.3230  0.1255  0.7107
  156OSM   C12S17427   3.332   1.743   3.880  0.2424 -0.4011 -1.2791
  156OSM   H12S17428   3.442   1.758   3.887  0.2642 -0.5719 -1.2590
  156OSM   H12T17429   3.306   1.637   3.901 -3.0863  0.7439  1.3066
  156OSM   C13S17430   3.267   1.837   3.989  0.5561 -0.0245  0.9090
  156OSM   H13S17431   3.313   1.938   3.982  0.4845  0.2340  3.1777
  156OSM   H13T17432   3.298   1.801   4.090  0.0061  0.8011  1.3891
  156OSM   C14S17433   3.111   1.849   3.969  0.1354 -0.2440 -1.1296
  156OSM   H14S17434   3.071   1.761   3.915 -0.4074  0.1282 -1.3397
  156OSM   H14T17435   3.102   1.939   3.905 -1.9860  0.1235 -0.3666
  156OSM   C15S17436   3.035   1.865   4.098 -0.4246 -0.3332  0.0617
  156OSM   H15S17437   3.050   1.779   4.167  1.3533  1.2186  1.7648
  156OSM   H15T17438   2.927   1.879   4.077 -0.4865  0.2889  0.7487
  156OSM   C16S17439   3.085   1.972   4.193 -0.0587 -0.4031  0.1154
  156OSM   H16S17440   3.075   2.075   4.153  2.5182  0.4250  1.4299
  156OSM   H16T17441   3.194   1.961   4.210  0.0259  3.5206  3.6888
  156OSM   C17S17442   3.011   1.956   4.328  0.1261  0.2655  0.2147
  156OSM   H17S17443   3.005   1.849   4.360  1.0987 -0.6062 -2.2603
  156OSM   H17T17444   2.909   1.996   4.309  0.7102  2.3280  1.1596
  156OSM   C18S17445   3.073   2.043   4.438  0.7144 -0.0797  0.1186
  156OSM   H18S17446   3.009   2.062   4.526 -0.4385 -1.1193 -0.4524
  156OSM   H18T17447   3.107   2.139   4.394 -0.9575  1.1609  1.4334
  156OSM   H18U17448   3.170   1.997   4.467  2.0883  1.6414 -1.4754
  156OSM    C1F17449   3.229   1.876   2.808 -0.6387  0.2087  0.2694
  156OSM     OF17450   3.183   1.786   2.741  0.2738 -0.4038  0.0601
  156OSM    C2F17451   3.145   1.982   2.874 -0.5781  0.6189 -0.1972
  156OSM    H2F17452   3.089   2.019   2.786 -1.9980 -0.9485 -0.0025
  156OSM    H2G17453   3.210   2.054   2.928 -1.1444  0.5529  0.5764
  156OSM    C3F17454   3.039   1.915   2.962  0.4945 -0.5663  0.3046
  156OSM    H3F17455   2.971   1.857   2.896  1.3345 -0.2796 -0.8284
  156OSM    H3G17456   2.981   1.998   3.007 -1.9898 -1.0419 -1.7623
  156OSM    C4F17457   3.086   1.816   3.079 -0.1440  0.3333  0.0610
  156OSM    H4F17458   3.159   1.872   3.141  0.8452  0.0248 -0.7999
  156OSM    H4G17459   3.140   1.727   3.040  0.7912  1.5818 -1.5926
  156OSM    C5F17460   2.965   1.785   3.168 -0.4863  0.6243 -0.2771
  156OSM    H5F17461   2.883   1.745   3.104  0.5524 -0.8898 -0.7318
  156OSM    H5G17462   2.933   1.875   3.225  1.2797  0.5218  0.9759
  156OSM    C6F17463   3.003   1.684   3.277  0.0925  0.2098 -0.3920
  156OSM    H6F17464   3.080   1.738   3.336  0.1304 -0.7271  0.4321
  156OSM    H6G17465   3.052   1.596   3.230 -1.9267 -0.7238 -0.8332
  156OSM    C7F17466   2.883   1.621   3.354  0.3550  0.2560  0.3454
  156OSM    H7F17467   2.814   1.587   3.274 -2.3219  2.2456  1.6651
  156OSM    H7G17468   2.831   1.699   3.414 -0.2008  1.0441 -1.1252
  156OSM    C8F17469   2.919   1.512   3.453 -0.0003  0.2372 -0.5367
  156OSM    H8F17470   2.994   1.439   3.419  3.1077  2.5581  0.8620
  156OSM    H8G17471   2.829   1.457   3.488 -0.9170  0.5505 -2.2918
  156OSM    C9F17472   2.986   1.569   3.572  0.5842 -0.0587  0.2671
  156OSM    H9F17473   3.034   1.668   3.563 -0.7919  0.6537  0.5256
  156OSM   C10F17474   2.993   1.518   3.695 -0.3855  0.1969  0.5119
  156OSM   H10F17475   3.052   1.569   3.772  1.8089 -0.4181 -0.6661
  156OSM   C11F17476   2.944   1.384   3.750 -0.1940 -0.2604  0.2368
  156OSM   H11F17477   3.022   1.308   3.728  0.7327  0.7706 -0.1364
  156OSM   H11G17478   2.856   1.355   3.689 -0.1560  1.4051 -0.6870
  156OSM   C12F17479   2.906   1.375   3.898 -0.1734 -0.0875  0.0738
  156OSM   H12F17480   2.872   1.273   3.926  0.8592 -0.2575  0.7429
  156OSM   H12G17481   2.817   1.440   3.910 -0.1884  0.4232 -2.2534
  156OSM   C13F17482   3.028   1.415   3.992  0.6543 -0.6607  0.5934
  156OSM   H13F17483   3.045   1.525   3.989  1.2317 -0.7637 -0.4632
  156OSM   H13G17484   3.109   1.351   3.954  1.9770 -1.0637  3.8189
  156OSM   C14F17485   3.007   1.386   4.139 -0.7824  0.2491  0.1372
  156OSM   H14F17486   2.980   1.278   4.141 -0.3505  0.0998 -1.1827
  156OSM   H14G17487   2.921   1.448   4.172 -2.8896 -2.1212 -0.5565
  156OSM   C15F17488   3.137   1.428   4.211 -0.6478 -0.1878 -0.1395
  156OSM   H15F17489   3.208   1.489   4.150  2.2271 -0.1903  2.9362
  156OSM   H15G17490   3.180   1.326   4.212 -2.1039 -0.8795 -1.8333
  156OSM   C16F17491   3.106   1.491   4.342  0.7146 -0.6883  0.1917
  156OSM   H16F17492   3.026   1.435   4.395  2.1320 -1.2561  1.8392
  156OSM   H16G17493   3.082   1.599   4.334  0.8793 -0.4803  1.9815
  156OSM   C17F17494   3.224   1.481   4.445 -0.3631 -0.2423 -0.0191
  156OSM   H17F17495   3.201   1.544   4.534  1.0363 -0.6771  0.6763
  156OSM   H17G17496   3.319   1.514   4.399  1.3144 -1.5524  2.2948
  156OSM   C18F17497   3.241   1.341   4.492 -1.7537  0.5306 -0.5846
  156OSM   H18F17498   3.319   1.278   4.444  0.0140  1.4096  1.0256
  156OSM   H18G17499   3.154   1.272   4.497  0.1305 -1.8934  2.4403
  156OSM   H18H17500   3.285   1.354   4.593  0.7293  0.3879 -1.5937
  157OSM      N17501   3.122   2.499   2.347  0.1902 -0.4085  0.4378
  157OSM    C1517502   3.029   2.607   2.390 -0.3009  0.1758 -0.3422
  157OSM   H15A17503   2.944   2.563   2.440 -1.1957  1.4555 -0.7116
  157OSM   H15B17504   2.994   2.662   2.305 -2.6715  0.0632  0.4984
  157OSM   H15C17505   3.075   2.682   2.452 -1.3899  1.1018 -0.6339
  157OSM    C1417506   3.127   2.396   2.462  0.2365 -0.5988  0.9471
  157OSM   H14A17507   3.207   2.327   2.437  0.2599 -0.3541  0.3437
  157OSM   H14B17508   3.031   2.348   2.474  0.4830 -1.8910 -1.6316
  157OSM   H14C17509   3.145   2.446   2.556 -0.1422 -0.5606  0.9973
  157OSM    C1317510   3.061   2.434   2.230  0.4474  0.3817  0.3842
  157OSM   H13A17511   3.116   2.344   2.206 -0.4957  0.1623 -1.1332
  157OSM   H13B17512   3.075   2.498   2.144 -1.7652  0.6064  0.1334
  157OSM   H13C17513   2.957   2.406   2.241  0.2917 -1.4273 -3.8945
  157OSM    C1217514   3.259   2.551   2.312  0.4963 -0.3454 -0.5257
  157OSM   H12A17515   3.240   2.633   2.244 -0.7393  1.8029  2.1826
  157OSM   H12B17516   3.314   2.472   2.263  1.2663  0.9303 -1.8084
  157OSM    C1117517   3.349   2.599   2.429 -0.3575  0.0412 -0.2561
  157OSM   H11A17518   3.282   2.663   2.491 -0.4466 -0.8725  0.6193
  157OSM   H11B17519   3.434   2.659   2.389 -0.5094 -1.1826 -2.5015
  157OSM      P17520   3.517   2.403   2.487  0.2662 -0.0149 -0.2214
  157OSM    O1317521   3.542   2.316   2.604  0.5723  0.7881  0.3348
  157OSM    O1417522   3.508   2.334   2.355  0.4526 -0.4553  0.0870
  157OSM    O1117523   3.629   2.512   2.485 -0.1912  0.1145  0.2906
  157OSM    O1217524   3.389   2.496   2.522 -0.3717  0.2734 -0.1381
  157OSM    C1S17525   3.632   2.602   2.595 -0.6712  0.1792  0.1009
  157OSM    H1S17526   3.535   2.640   2.634  1.0970  3.2588  1.9177
  157OSM    H1T17527   3.686   2.692   2.559 -0.0751  0.0300  0.5882
  157OSM     NF17528   3.722   2.653   2.830 -0.2795  0.0001 -0.2351
  157OSM    HNF17529   3.794   2.721   2.824  2.5013 -2.7624 -1.6047
  157OSM    C2S17530   3.733   2.562   2.712 -0.3933  0.0001  0.6220
  157OSM    H2S17531   3.679   2.471   2.745 -0.8089 -0.0690 -0.2424
  157OSM    C3S17532   3.878   2.545   2.650 -0.8800 -0.1071  0.2332
  157OSM    H3S17533   3.923   2.646   2.639  3.3169 -1.7442  0.5014
  157OSM     O317534   3.891   2.487   2.516 -0.2490 -0.0082  0.0743
  157OSM    HO317535   3.798   2.487   2.493 -0.4869  2.0051  0.8903
  157OSM    C4S17536   3.959   2.472   2.755 -0.2159  0.6318  0.6650
  157OSM    H4S17537   3.919   2.373   2.782 -2.1007  0.7958 -1.2863
  157OSM    C5S17538   4.067   2.524   2.814 -0.0768  0.1375 -0.0374
  157OSM    H5S17539   4.109   2.615   2.768  0.8698 -0.0577  0.4186
  157OSM    C6S17540   4.162   2.462   2.916 -0.2620  0.4757  0.0130
  157OSM    H6S17541   4.169   2.520   3.011  2.8199 -0.0048  0.1872
  157OSM    H6T17542   4.261   2.463   2.866 -1.1669  0.3017 -1.8892
  157OSM    C7S17543   4.128   2.309   2.967  0.1835 -0.2488 -0.1702
  157OSM    H7S17544   4.217   2.291   3.030  0.3938  0.8755 -0.1253
  157OSM    H7T17545   4.117   2.237   2.883  3.0969  1.1090 -1.8591
  157OSM    C8S17546   4.000   2.290   3.060 -0.5178 -0.9310  0.3525
  157OSM    H8S17547   3.968   2.184   3.056 -0.0387 -1.0667 -0.1173
  157OSM    H8T17548   3.927   2.354   3.006  0.0230  1.2245  2.0387
  157OSM    C9S17549   4.018   2.340   3.197  0.8031 -0.1188 -0.4532
  157OSM    H9S17550   4.050   2.445   3.180  0.5255 -0.2150 -1.6994
  157OSM    H9T17551   4.097   2.281   3.249 -1.0102 -0.5663  1.9830
  157OSM   C10S17552   3.886   2.341   3.273  0.1463  0.1562 -0.3085
  157OSM   H10S17553   3.836   2.242   3.261 -1.1725  0.6010  1.1420
  157OSM   H10T17554   3.813   2.419   3.244 -2.6791 -1.8834  0.7955
  157OSM   C11S17555   3.915   2.337   3.424 -0.1754  0.6699  0.1712
  157OSM   H11S17556   3.994   2.269   3.464  0.2039  1.5830  1.0322
  157OSM   H11T17557   3.821   2.306   3.476 -1.6086  0.4381 -2.4083
  157OSM   C12S17558   3.938   2.477   3.484 -0.0568  0.8441  0.4682
  157OSM   H12S17559   3.874   2.558   3.444 -0.5295 -0.0229 -0.5874
  157OSM   H12T17560   4.034   2.515   3.442  0.2639 -1.5137 -1.0977
  157OSM   C13S17561   3.927   2.472   3.630 -0.3375  0.5440  0.6410
  157OSM   H13S17562   3.995   2.391   3.665  2.6802  1.0967 -3.2407
  157OSM   H13T17563   3.823   2.449   3.658 -1.2802  2.3557 -1.1174
  157OSM   C14S17564   3.957   2.615   3.689  0.2768  0.1248 -0.9033
  157OSM   H14S17565   3.871   2.685   3.673  0.0239  0.0581  0.0768
  157OSM   H14T17566   4.031   2.655   3.617 -0.0292 -0.8574 -1.7774
  157OSM   C15S17567   4.004   2.608   3.831 -0.1997  0.4985  0.1282
  157OSM   H15S17568   4.066   2.697   3.853  1.3455  0.1141 -2.3797
  157OSM   H15T17569   4.065   2.517   3.848 -1.7480 -0.6008  0.0069
  157OSM   C16S17570   3.893   2.627   3.931  0.0684  0.0368  0.0191
  157OSM   H16S17571   3.829   2.536   3.926 -0.7549  0.6767 -2.0183
  157OSM   H16T17572   3.824   2.710   3.904  1.4862  1.4957  0.7035
  157OSM   C17S17573   3.945   2.661   4.075  0.1667  0.7858 -0.3592
  157OSM   H17S17574   3.854   2.669   4.138  0.8028 -0.1999  0.7271
  157OSM   H17T17575   3.986   2.764   4.085 -0.1274  0.9078 -0.4274
  157OSM   C18S17576   4.034   2.560   4.131  0.6867 -0.1647  0.2827
  157OSM   H18S17577   4.127   2.553   4.069  1.7034  2.6560  1.3175
  157OSM   H18T17578   3.985   2.460   4.124 -0.7827  0.5628 -0.2072
  157OSM   H18U17579   4.058   2.577   4.238  0.3621 -1.9000  0.6622
  157OSM    C1F17580   3.631   2.651   2.918  0.4542  0.1654  0.0634
  157OSM     OF17581   3.536   2.570   2.915 -0.3600 -0.1832 -0.2952
  157OSM    C2F17582   3.639   2.769   3.013 -0.1892 -0.6094  0.9304
  157OSM    H2F17583   3.577   2.859   2.988  0.1835 -0.2712  1.2201
  157OSM    H2G17584   3.745   2.800   3.002 -0.1766 -0.5877  1.1182
  157OSM    C3F17585   3.617   2.723   3.159  0.0213  0.0805 -0.3976
  157OSM    H3F17586   3.674   2.627   3.166 -1.1425 -0.8206 -2.2822
  157OSM    H3G17587   3.513   2.687   3.174  0.3517 -1.1907 -0.9627
  157OSM    C4F17588   3.650   2.826   3.262 -0.6798  0.0929  0.2536
  157OSM    H4F17589   3.602   2.926   3.253 -0.7825  0.0653  0.4787
  157OSM    H4G17590   3.760   2.835   3.253 -0.3813  0.7577  3.4901
  157OSM    C5F17591   3.628   2.777   3.401  0.7671 -0.5701 -0.1964
  157OSM    H5F17592   3.693   2.842   3.464 -0.0244 -0.4966  0.5715
  157OSM    H5G17593   3.664   2.673   3.416 -1.9480 -1.4342  0.9911
  157OSM    C6F17594   3.482   2.802   3.442  0.0367 -0.4295 -0.0847
  157OSM    H6F17595   3.404   2.761   3.374 -1.7790  1.5036  0.7322
  157OSM    H6G17596   3.458   2.910   3.432 -2.0562 -0.8860 -0.3818
  157OSM    C7F17597   3.452   2.753   3.585  0.3013  0.0792 -0.1210
  157OSM    H7F17598   3.430   2.644   3.579  1.7423 -0.2940  0.7367
  157OSM    H7G17599   3.358   2.807   3.610 -0.3082 -0.7770 -0.5102
  157OSM    C8F17600   3.556   2.780   3.697 -0.4259  0.1584 -0.4482
  157OSM    H8F17601   3.652   2.745   3.653  0.4224  1.8335 -0.0013
  157OSM    H8G17602   3.535   2.715   3.785 -2.6431 -0.6886 -1.5224
  157OSM    C9F17603   3.578   2.920   3.754 -0.2629  0.6671 -0.2493
  157OSM    H9F17604   3.628   2.992   3.688  0.4909  0.9619  0.6275
  157OSM   C10F17605   3.557   2.959   3.882  0.4184  0.0535 -0.0633
  157OSM   H10F17606   3.585   3.060   3.915 -0.7104 -0.0732  1.4183
  157OSM   C11F17607   3.490   2.881   3.992 -0.7305  0.5870 -0.7575
  157OSM   H11F17608   3.430   2.797   3.951  1.4674 -1.7542  0.6117
  157OSM   H11G17609   3.416   2.949   4.040 -0.1510  0.3994  0.4265
  157OSM   C12F17610   3.568   2.816   4.110  0.9646 -0.2030 -0.2376
  157OSM   H12F17611   3.633   2.895   4.153 -0.1932  2.0024 -2.2856
  157OSM   H12G17612   3.628   2.726   4.085  2.1970  0.8761 -1.2758
  157OSM   C13F17613   3.466   2.765   4.218  0.1050 -0.2241 -0.8752
  157OSM   H13F17614   3.524   2.715   4.298 -1.7745 -0.5049  0.3737
  157OSM   H13G17615   3.402   2.690   4.167 -0.9065  0.3213 -0.4370
  157OSM   C14F17616   3.383   2.876   4.289  0.3969  0.3677  0.0104
  157OSM   H14F17617   3.320   2.940   4.223 -3.1682 -0.0924  2.6794
  157OSM   H14G17618   3.448   2.953   4.336  0.8165 -0.0045  0.0542
  157OSM   C15F17619   3.280   2.817   4.381  0.3136 -0.3941 -0.2825
  157OSM   H15F17620   3.348   2.789   4.464  0.8532  1.2868 -0.1351
  157OSM   H15G17621   3.224   2.731   4.338  0.4299 -1.1057  0.9274
  157OSM   C16F17622   3.177   2.912   4.437 -0.1344  0.0070 -1.0615
  157OSM   H16F17623   3.126   2.975   4.360  0.2224  0.0883 -1.2323
  157OSM   H16G17624   3.232   2.974   4.510 -1.8546 -0.0534  0.3420
  157OSM   C17F17625   3.073   2.833   4.520  0.4360 -0.7395  0.2011
  157OSM   H17F17626   3.118   2.759   4.590  0.4049  0.0413  1.0611
  157OSM   H17G17627   3.003   2.786   4.448 -0.6714 -1.0193  1.4130
  157OSM   C18F17628   2.979   2.935   4.595 -0.2086  0.2914 -0.2655
  157OSM   H18F17629   2.890   2.887   4.642 -2.1071  0.5049 -3.3378
  157OSM   H18G17630   2.931   3.014   4.533  1.0489  1.5080  0.2583
  157OSM   H18H17631   3.046   2.989   4.666  0.8901 -1.7091  0.2952
  158OSM      N17632   0.312   1.836   2.148 -0.3582 -0.0173  0.3461
  158OSM    C1517633   0.399   1.724   2.194  0.0580 -0.7394 -0.6915
  158OSM   H15A17634   0.417   1.742   2.299  0.0017  1.2286 -0.9730
  158OSM   H15B17635   0.488   1.717   2.133  0.7097 -0.9998  0.2684
  158OSM   H15C17636   0.343   1.632   2.191 -0.2651 -0.5599 -0.3048
  158OSM    C1417637   0.388   1.963   2.170  0.4341  0.1480 -0.4898
  158OSM   H14A17638   0.488   1.965   2.128 -0.4544 -1.6058 -2.9926
  158OSM   H14B17639   0.391   1.988   2.275  0.5232  0.8796 -0.6621
  158OSM   H14C17640   0.330   2.034   2.114 -1.6873 -1.7860 -0.9123
  158OSM    C1317641   0.300   1.822   1.996  0.0937 -0.2235 -0.4832
  158OSM   H13A17642   0.399   1.821   1.954  0.4383  0.2482  0.2933
  158OSM   H13B17643   0.249   1.909   1.957  2.4861  1.6615  0.3644
  158OSM   H13C17644   0.236   1.738   1.972 -0.2801  0.3357 -1.4944
  158OSM    C1217645   0.174   1.844   2.211  0.3415 -0.5033  0.3165
  158OSM   H12A17646   0.194   1.873   2.314 -0.0041 -5.0348  1.8656
  158OSM   H12B17647   0.133   1.744   2.208 -0.0394 -0.3566 -2.8471
  158OSM    C1117648   0.071   1.943   2.148 -0.9225 -0.6250 -0.0445
  158OSM   H11A17649  -0.027   1.931   2.200 -2.0851  0.3800 -1.9006
  158OSM   H11B17650   0.046   1.907   2.046  1.3044  1.1696 -1.3122
  158OSM      P17651   0.106   2.175   2.266 -0.0385  0.2768 -0.6498
  158OSM    O1317652   0.239   2.234   2.272  0.8797  0.5672  0.5659
  158OSM    O1417653  -0.006   2.273   2.255 -0.0144 -0.1061  0.6663
  158OSM    O1117654   0.088   2.078   2.402  0.1418  0.2155  0.1407
  158OSM    O1217655   0.112   2.074   2.142 -0.1906 -0.3484 -0.2670
  158OSM    C1S17656   0.016   2.131   2.514 -0.1754 -0.2554  0.7825
  158OSM    H1S17657  -0.088   2.153   2.484  0.2350  0.9228  0.2005
  158OSM    H1T17658   0.058   2.227   2.550  0.3950 -0.5938  1.0313
  158OSM     NF17659  -0.072   2.079   2.734  0.0846  0.5577 -0.3765
  158OSM    HNF17660  -0.019   2.123   2.806 -0.9859  0.4305  0.5237
  158OSM    C2S17661   0.004   2.024   2.625 -0.3528  0.3153  1.2637
  158OSM    H2S17662  -0.045   1.930   2.593 -2.4695  1.3657  1.2786
  158OSM    C3S17663   0.153   1.988   2.674  0.7235  0.1227  0.6837
  158OSM    H3S17664   0.180   2.074   2.739 -1.7136  0.6719  1.0847
  158OSM     O317665   0.252   1.975   2.574 -0.0072 -0.6130 -0.0867
  158OSM    HO317666   0.225   2.030   2.500 -1.2075  0.5127  1.1457
  158OSM    C4S17667   0.149   1.862   2.754  0.4223 -0.0048 -0.8899
  158OSM    H4S17668   0.103   1.772   2.710  3.0108 -1.3719 -0.9582
  158OSM    C5S17669   0.190   1.849   2.882  0.0847 -0.3712 -0.3819
  158OSM    H5S17670   0.220   1.937   2.942 -2.1128  0.3685 -0.2996
  158OSM    C6S17671   0.179   1.716   2.948 -0.3386 -0.0852 -0.2534
  158OSM    H6S17672   0.213   1.646   2.868 -1.0171  0.1110 -0.7244
  158OSM    H6T17673   0.074   1.684   2.962  0.4196 -2.9955 -0.5801
  158OSM    C7S17674   0.267   1.707   3.073  0.2266  0.1806  0.2821
  158OSM    H7S17675   0.372   1.725   3.042 -0.3265 -2.6815 -4.1091
  158OSM    H7T17676   0.274   1.603   3.110  0.2526  0.6084  1.5030
  158OSM    C8S17677   0.224   1.786   3.195  1.0214  0.2836 -0.3863
  158OSM    H8S17678   0.126   1.747   3.229  1.6293 -0.0152  1.1266
  158OSM    H8T17679   0.220   1.895   3.173  1.3620  0.1479 -1.1488
  158OSM    C9S17680   0.323   1.752   3.315 -0.1455 -0.0090  0.8895
  158OSM    H9S17681   0.429   1.757   3.280 -0.7783 -1.0348 -1.3862
  158OSM    H9T17682   0.308   1.647   3.347  1.8996 -0.2196  1.3249
  158OSM   C10S17683   0.299   1.831   3.446 -0.7565  0.1105 -0.1876
  158OSM   H10S17684   0.191   1.823   3.469 -0.7330 -0.4016 -0.2584
  158OSM   H10T17685   0.318   1.940   3.432 -0.7732 -0.1251 -2.3845
  158OSM   C11S17686   0.398   1.789   3.561  0.6660 -0.2282  0.2901
  158OSM   H11S17687   0.497   1.823   3.523  0.4796  0.6298  0.5385
  158OSM   H11T17688   0.387   1.681   3.583  0.0623 -0.1207  0.5473
  158OSM   C12S17689   0.368   1.865   3.691  0.2334  0.1264 -0.4272
  158OSM   H12S17690   0.274   1.830   3.740  1.5325 -0.9749  1.3969
  158OSM   H12T17691   0.374   1.975   3.678  2.1736  0.4217  2.1491
  158OSM   C13S17692   0.468   1.840   3.807  0.0585 -0.3895 -0.4087
  158OSM   H13S17693   0.564   1.895   3.794 -0.0594  0.1369  0.8338
  158OSM   H13T17694   0.495   1.732   3.813 -0.3868 -0.5043 -0.4182
  158OSM   C14S17695   0.395   1.865   3.943 -0.3520  0.0726  1.1453
  158OSM   H14S17696   0.318   1.786   3.959 -2.0146  1.4225  0.0813
  158OSM   H14T17697   0.348   1.965   3.939 -0.1870  0.2222  2.4620
  158OSM   C15S17698   0.495   1.875   4.056 -0.1220  0.1334  0.5011
  158OSM   H15S17699   0.529   1.981   4.051  0.8005 -0.1907 -2.5779
  158OSM   H15T17700   0.580   1.812   4.020  0.4361  0.4759  1.1962
  158OSM   C16S17701   0.454   1.828   4.195 -0.6485  0.4118  0.3455
  158OSM   H16S17702   0.383   1.903   4.238 -1.5468  0.0888 -0.5153
  158OSM   H16T17703   0.545   1.819   4.257 -0.0607  1.3799 -0.3505
  158OSM   C17S17704   0.392   1.687   4.205  0.3023  0.2705 -0.5782
  158OSM   H17S17705   0.458   1.609   4.162  2.3125  0.8841  1.2056
  158OSM   H17T17706   0.291   1.692   4.158 -0.6930  0.2510  1.4452
  158OSM   C18S17707   0.365   1.643   4.352 -0.4325 -0.2239 -0.1744
  158OSM   H18S17708   0.278   1.575   4.362 -0.5595  0.2272  2.2746
  158OSM   H18T17709   0.324   1.731   4.406  0.1865  0.0200 -0.0970
  158OSM   H18U17710   0.455   1.600   4.401  0.0858  0.3983 -0.5652
  158OSM    C1F17711  -0.205   2.067   2.752  0.2876  0.1862  0.8819
  158OSM     OF17712  -0.281   2.019   2.662 -1.0908  0.4808  0.0757
  158OSM    C2F17713  -0.258   2.099   2.892  0.0659  0.3629 -0.0436
  158OSM    H2F17714  -0.167   2.105   2.955 -2.2521  1.4495  3.4635
  158OSM    H2G17715  -0.331   2.026   2.934 -0.3093  2.9333  4.3792
  158OSM    C3F17716  -0.325   2.235   2.893 -0.1675 -0.3474 -0.1762
  158OSM    H3F17717  -0.395   2.235   2.807 -1.8563  2.3937  1.0858
  158OSM    H3G17718  -0.256   2.319   2.870 -0.5083  0.2331  0.8693
  158OSM    C4F17719  -0.403   2.263   3.019  0.3549 -0.2560 -0.1481
  158OSM    H4F17720  -0.448   2.165   3.048  1.2369 -0.1659  1.6413
  158OSM    H4G17721  -0.489   2.334   3.017 -1.4430 -2.2669  1.2932
  158OSM    C5F17722  -0.305   2.306   3.125 -0.0359  0.8146  0.2877
  158OSM    H5F17723  -0.244   2.391   3.089  1.4732 -0.7823 -1.0554
  158OSM    H5G17724  -0.245   2.215   3.142 -1.1947 -0.3125 -1.3909
  158OSM    C6F17725  -0.386   2.347   3.247 -0.0959  0.1587 -0.7906
  158OSM    H6F17726  -0.442   2.256   3.276  1.4725 -0.6036 -0.0400
  158OSM    H6G17727  -0.457   2.428   3.217 -0.9043  0.9570  2.7743
  158OSM    C7F17728  -0.285   2.403   3.347 -0.4172 -0.1981  0.4962
  158OSM    H7F17729  -0.231   2.487   3.298 -1.6107 -0.3272 -1.1066
  158OSM    H7G17730  -0.201   2.330   3.352 -0.1335  0.1902  1.7577
  158OSM    C8F17731  -0.351   2.451   3.477  0.2065  0.5840  0.3322
  158OSM    H8F17732  -0.444   2.501   3.443 -0.3395 -0.9216 -0.5079
  158OSM    H8G17733  -0.291   2.531   3.525  0.0250 -0.2002  1.9515
  158OSM    C9F17734  -0.385   2.339   3.578 -0.0855 -0.3978  0.5868
  158OSM    H9F17735  -0.466   2.278   3.537  0.0053 -0.3390  0.3146
  158OSM   C10F17736  -0.344   2.328   3.704  0.1876 -0.1970  0.3215
  158OSM   H10F17737  -0.382   2.243   3.762  0.1940  0.9464  2.0696
  158OSM   C11F17738  -0.247   2.414   3.779 -0.4950  0.3772 -0.3948
  158OSM   H11F17739  -0.195   2.488   3.714  0.3944 -0.1575 -0.3163
  158OSM   H11G17740  -0.168   2.349   3.823 -3.2439 -2.8855  0.1146
  158OSM   C12F17741  -0.302   2.498   3.893 -0.2215 -0.3430  0.5281
  158OSM   H12F17742  -0.374   2.435   3.949  1.3727 -3.7047 -0.9363
  158OSM   H12G17743  -0.363   2.579   3.847  0.1620  0.6411  1.6845
  158OSM   C13F17744  -0.213   2.570   3.998  0.2884 -0.1698 -0.3468
  158OSM   H13F17745  -0.264   2.656   4.046  1.2572  1.3375 -1.9121
  158OSM   H13G17746  -0.138   2.624   3.937  1.1466 -0.0610  0.7700
  158OSM   C14F17747  -0.158   2.486   4.113  0.5649 -0.3376 -0.0544
  158OSM   H14F17748  -0.104   2.397   4.077  1.0574  0.0502 -0.2807
  158OSM   H14G17749  -0.238   2.460   4.186 -0.0774 -2.1707 -1.3332
  158OSM   C15F17750  -0.043   2.571   4.178  0.2073 -0.0384 -1.0033
  158OSM   H15F17751   0.005   2.631   4.097 -3.0010  0.0452 -3.0360
  158OSM   H15G17752   0.032   2.504   4.224 -2.2461 -2.0865  0.2278
  158OSM   C16F17753  -0.083   2.683   4.276  0.0653 -0.1390  0.7447
  158OSM   H16F17754  -0.174   2.727   4.228 -0.8292 -1.0776  1.5245
  158OSM   H16G17755  -0.006   2.763   4.285  0.0310  0.5627 -3.2870
  158OSM   C17F17756  -0.130   2.628   4.407 -0.0118  0.8685 -0.1568
  158OSM   H17F17757  -0.045   2.585   4.465 -0.9722  0.0207  0.6730
  158OSM   H17G17758  -0.202   2.543   4.396  2.5463 -1.4113 -0.3826
  158OSM   C18F17759  -0.192   2.742   4.493  0.3693 -0.3497  0.4793
  158OSM   H18F17760  -0.266   2.805   4.440  0.7216  0.1827  0.6197
  158OSM   H18G17761  -0.116   2.818   4.519 -0.6907  1.3220 -1.0423
  158OSM   H18H17762  -0.243   2.703   4.584  0.3160  0.5791  0.8533
  159OSM      N17763   3.045   1.705   2.363 -0.2344 -0.2428 -0.1774
  159OSM    C1517764   3.153   1.615   2.415  0.0955 -0.1565  0.4451
  159OSM   H15A17765   3.245   1.669   2.426  0.6881 -1.1912  0.6976
  159OSM   H15B17766   3.176   1.536   2.345  0.6884  1.7863 -1.6777
  159OSM   H15C17767   3.123   1.567   2.507  1.6010 -1.1573  0.4327
  159OSM    C1417768   3.015   1.803   2.471 -0.3810  0.3594 -0.0193
  159OSM   H14A17769   2.958   1.889   2.439 -0.5281  2.2623  4.6647
  159OSM   H14B17770   3.097   1.844   2.527 -0.6493  0.2415  0.4662
  159OSM   H14C17771   2.966   1.756   2.555 -1.2274 -0.1399 -0.7738
  159OSM    C1317772   3.104   1.769   2.244  0.6490  0.6027 -0.0454
  159OSM   H13A17773   3.129   1.697   2.168  0.2578 -0.8992  1.1877
  159OSM   H13B17774   3.188   1.832   2.270 -1.5497  2.8147  2.2590
  159OSM   H13C17775   3.034   1.836   2.199 -0.8417 -0.6969  0.2491
  159OSM    C1217776   2.932   1.614   2.326 -0.1062  1.0355 -0.4766
  159OSM   H12A17777   2.889   1.573   2.416  1.6762  1.1116  0.4631
  159OSM   H12B17778   2.972   1.523   2.283  1.5810  0.3590  2.2545
  159OSM    C1117779   2.820   1.669   2.239 -0.9952 -0.1046  0.3011
  159OSM   H11A17780   2.764   1.577   2.210  1.4276 -1.6833  0.3532
  159OSM   H11B17781   2.866   1.702   2.143 -0.2958 -3.1376 -0.5203
  159OSM      P17782   2.730   1.915   2.262 -0.1346  0.5042 -0.3513
  159OSM    O1317783   2.827   1.945   2.155 -0.2152  0.6318 -0.4212
  159OSM    O1417784   2.591   1.945   2.249  0.4152  0.4185  0.5037
  159OSM    O1117785   2.779   1.985   2.389 -0.6257 -0.1288 -0.0476
  159OSM    O1217786   2.736   1.765   2.303 -0.1562  0.5499 -0.1957
  159OSM    C1S17787   2.710   1.959   2.511 -0.9303 -0.0981  0.1399
  159OSM    H1S17788   2.733   1.858   2.551  0.1156 -0.2967 -0.8983
  159OSM    H1T17789   2.600   1.975   2.503 -0.9337  0.6617  1.4815
  159OSM     NF17790   2.679   2.026   2.741  0.0669 -0.1119 -0.0909
  159OSM    HNF17791   2.603   2.090   2.751  0.1425 -0.2624  1.7408
  159OSM    C2S17792   2.759   2.052   2.628 -0.5368 -0.1511 -0.1004
  159OSM    H2S17793   2.862   2.019   2.651 -0.2808 -0.7000 -1.8658
  159OSM    C3S17794   2.755   2.206   2.586 -0.0172 -0.8516  0.2962
  159OSM    H3S17795   2.649   2.223   2.558  0.0649 -1.1194 -0.1831
  159OSM     O317796   2.825   2.234   2.468 -0.1589 -0.0768 -0.4055
  159OSM    HO317797   2.828   2.142   2.443 -1.8547 -1.1266  2.7129
  159OSM    C4S17798   2.797   2.300   2.699 -0.1674 -0.1886 -0.1627
  159OSM    H4S17799   2.726   2.378   2.729  2.5902  2.0711  1.0547
  159OSM    C5S17800   2.923   2.309   2.747  0.0670 -0.0718 -0.1220
  159OSM    H5S17801   3.010   2.260   2.701 -0.6377 -0.8474 -0.6613
  159OSM    C6S17802   2.963   2.411   2.847 -0.1829  0.6859  0.0402
  159OSM    H6S17803   2.870   2.444   2.899  0.8144  0.8503  1.7986
  159OSM    H6T17804   3.033   2.480   2.797  0.3624  1.1709  1.4209
  159OSM    C7S17805   3.048   2.364   2.968 -0.1795 -0.5302 -0.5546
  159OSM    H7S17806   3.154   2.339   2.943 -0.2075 -0.3644 -0.8446
  159OSM    H7T17807   2.992   2.283   3.019 -0.1743  0.0285  0.3484
  159OSM    C8S17808   3.058   2.476   3.082  0.0782  0.2514 -0.1832
  159OSM    H8S17809   3.079   2.432   3.182  1.7070  1.9254  0.2669
  159OSM    H8T17810   2.956   2.518   3.095  0.6741  2.2033 -1.4504
  159OSM    C9S17811   3.146   2.596   3.053 -0.2439 -0.9228  0.1699
  159OSM    H9S17812   3.121   2.640   2.955 -0.5908 -1.9508 -0.2217
  159OSM    H9T17813   3.255   2.576   3.048  0.1286  1.2446 -1.7215
  159OSM   C10S17814   3.133   2.693   3.168  0.0792 -0.3590  0.2569
  159OSM   H10S17815   3.152   2.653   3.269 -0.2203 -1.5651 -0.1523
  159OSM   H10T17816   3.032   2.741   3.164 -0.1646 -0.9438 -1.4241
  159OSM   C11S17817   3.224   2.818   3.152 -0.0032 -0.6159 -0.2493
  159OSM   H11S17818   3.203   2.856   3.050 -0.8005 -1.8761 -0.5780
  159OSM   H11T17819   3.334   2.803   3.160  0.3068  0.4033 -2.2586
  159OSM   C12S17820   3.190   2.922   3.263 -0.2127 -0.4783  0.5934
  159OSM   H12S17821   3.195   2.874   3.362 -1.1867 -5.2536 -1.4222
  159OSM   H12T17822   3.084   2.951   3.246 -0.1527  0.5562  1.7801
  159OSM   C13S17823   3.273   3.048   3.246 -0.1222 -0.3581 -0.1684
  159OSM   H13S17824   3.260   3.086   3.142  1.1806 -0.0386 -0.2339
  159OSM   H13T17825   3.376   3.010   3.267 -0.4047 -1.4114 -0.5862
  159OSM   C14S17826   3.225   3.158   3.337 -0.2213  0.2886  0.0031
  159OSM   H14S17827   3.142   3.213   3.288 -0.5478 -2.2235 -2.5258
  159OSM   H14T17828   3.296   3.239   3.365  0.8865 -0.5016 -0.4300
  159OSM   C15S17829   3.181   3.100   3.479 -0.2746 -0.7439  0.9260
  159OSM   H15S17830   3.251   3.027   3.524 -0.4823 -0.1685  2.2266
  159OSM   H15T17831   3.085   3.044   3.475 -0.8493  0.2708 -0.0287
  159OSM   C16S17832   3.154   3.217   3.576 -0.7170  0.6031 -0.5762
  159OSM   H16S17833   3.069   3.281   3.543 -1.9192  0.0110  1.2160
  159OSM   H16T17834   3.241   3.285   3.577 -2.3102  2.7265 -0.1345
  159OSM   C17S17835   3.128   3.172   3.718  0.0774  0.7909  0.1148
  159OSM   H17S17836   3.046   3.097   3.727  1.0541 -0.1346  1.7987
  159OSM   H17T17837   3.080   3.256   3.773 -0.9419 -0.1053  0.6320
  159OSM   C18S17838   3.255   3.118   3.789  0.0567 -0.4544  0.4708
  159OSM   H18S17839   3.316   3.053   3.722  2.5758  0.5024  1.6933
  159OSM   H18T17840   3.233   3.068   3.886  0.7527  1.6111  1.7751
  159OSM   H18U17841   3.325   3.203   3.807  0.0602  0.0319 -1.6345
  159OSM    C1F17842   2.666   1.904   2.795 -0.1944 -0.2595  0.7826
  159OSM     OF17843   2.759   1.822   2.780  0.2662  0.0471 -0.4872
  159OSM    C2F17844   2.540   1.877   2.873  0.2336 -0.3838 -0.6485
  159OSM    H2F17845   2.456   1.871   2.801  0.7127  1.5786 -1.4419
  159OSM    H2G17846   2.528   1.954   2.953 -1.7259 -0.5820 -0.6868
  159OSM    C3F17847   2.555   1.744   2.949 -0.6709 -0.2981 -0.0260
  159OSM    H3F17848   2.655   1.741   2.997  0.7924 -1.0988 -2.8629
  159OSM    H3G17849   2.559   1.657   2.880  1.6246 -0.9205  0.8203
  159OSM    C4F17850   2.459   1.722   3.064  0.1064 -0.5124 -0.3416
  159OSM    H4F17851   2.372   1.664   3.026 -0.0711 -0.5696  0.1424
  159OSM    H4G17852   2.407   1.820   3.074 -0.5974 -0.9264  0.1107
  159OSM    C5F17853   2.525   1.655   3.184 -0.4919 -0.4275 -0.1666
  159OSM    H5F17854   2.582   1.726   3.248  1.3363 -1.4944 -0.5296
  159OSM    H5G17855   2.601   1.578   3.157  0.2348  1.1431 -3.0007
  159OSM    C6F17856   2.425   1.571   3.276  0.1958 -0.2857 -0.2901
  159OSM    H6F17857   2.410   1.475   3.222  0.4946  0.1061 -1.0800
  159OSM    H6G17858   2.331   1.630   3.275  0.4298  0.0913 -0.5290
  159OSM    C7F17859   2.472   1.540   3.422 -0.0806 -0.2257  0.8944
  159OSM    H7F17860   2.449   1.624   3.492 -1.9130 -1.5744  2.0002
  159OSM    H7G17861   2.582   1.531   3.431  0.0298  1.3488  1.4882
  159OSM    C8F17862   2.414   1.419   3.488  0.2978  0.3960 -0.6430
  159OSM    H8F17863   2.484   1.378   3.564  0.4621  0.6802 -0.6393
  159OSM    H8G17864   2.397   1.339   3.412 -0.7023 -1.6285  1.5981
  159OSM    C9F17865   2.283   1.449   3.552  0.0176 -0.2681  0.5188
  159OSM    H9F17866   2.220   1.519   3.496 -0.8990 -0.5845  1.1306
  159OSM   C10F17867   2.248   1.418   3.675  0.1910 -0.4143 -0.5250
  159OSM   H10F17868   2.152   1.460   3.708  0.2154  0.1133 -1.1092
  159OSM   C11F17869   2.328   1.326   3.767 -0.2153  0.0198 -0.4829
  159OSM   H11F17870   2.407   1.267   3.716  0.3184 -0.2198  0.6141
  159OSM   H11G17871   2.264   1.252   3.818  2.4905 -1.3457  1.1203
  159OSM   C12F17872   2.400   1.413   3.867  0.6537  0.2741  0.5107
  159OSM   H12F17873   2.455   1.488   3.806 -1.3177 -0.2386 -2.1126
  159OSM   H12G17874   2.469   1.358   3.934  0.1804 -1.8002 -0.6219
  159OSM   C13F17875   2.295   1.488   3.960  0.3129 -0.2614 -0.3468
  159OSM   H13F17876   2.230   1.557   3.901 -0.5711  0.1087  0.9863
  159OSM   H13G17877   2.358   1.547   4.030  1.3506  0.3530 -1.7480
  159OSM   C14F17878   2.204   1.396   4.034  0.1989  0.3990 -0.0699
  159OSM   H14F17879   2.272   1.315   4.067  1.0288  0.8163 -0.6940
  159OSM   H14G17880   2.122   1.358   3.970  1.0413  0.4859 -1.2429
  159OSM   C15F17881   2.149   1.457   4.166  0.1569 -0.2846  0.6471
  159OSM   H15F17882   2.093   1.551   4.147 -2.2309 -1.6630  0.4065
  159OSM   H15G17883   2.242   1.478   4.223  2.2544  0.0728 -2.6320
  159OSM   C16F17884   2.066   1.357   4.234 -0.0937 -0.5416 -0.3595
  159OSM   H16F17885   2.081   1.377   4.342  0.8509  0.5205 -0.6593
  159OSM   H16G17886   2.097   1.250   4.224 -0.0019 -0.4650 -0.9195
  159OSM   C17F17887   1.921   1.372   4.197  0.0978  0.5286  0.5869
  159OSM   H17F17888   1.908   1.364   4.087  1.9029  1.5652  0.2687
  159OSM   H17G17889   1.881   1.473   4.218  2.2837  1.7761 -0.9264
  159OSM   C18F17890   1.856   1.252   4.257  0.1960  0.2586  0.2263
  159OSM   H18F17891   1.893   1.157   4.211 -4.2512 -1.3057 -0.6725
  159OSM   H18G17892   1.746   1.247   4.245  0.3063 -1.3133 -0.3746
  159OSM   H18H17893   1.864   1.265   4.367 -1.6277  0.5340  0.3550
  160OSM      N17894   1.531   3.433   2.221 -0.2924 -0.5916  0.9292
  160OSM    C1517895   1.459   3.340   2.132 -0.3081  0.4922  0.2914
  160OSM   H15A17896   1.505   3.340   2.034 -0.0678 -0.3528  0.3939
  160OSM   H15B17897   1.354   3.364   2.133 -0.2229  0.8544  0.6999
  160OSM   H15C17898   1.474   3.237   2.163 -1.0311  0.2958  0.0058
  160OSM    C1417899   1.498   3.393   2.366  0.4507 -0.0638 -0.2179
  160OSM   H14A17900   1.543   3.301   2.398  1.1427  0.6741  1.0077
  160OSM   H14B17901   1.392   3.381   2.387  0.3865  1.1011  0.1900
  160OSM   H14C17902   1.548   3.467   2.427 -0.3660  0.6232 -0.3616
  160OSM    C1317903   1.677   3.424   2.190  0.0384 -0.1259  0.7207
  160OSM   H13A17904   1.724   3.509   2.239 -0.7508  0.8337 -0.1318
  160OSM   H13B17905   1.691   3.450   2.086 -0.9974  1.6897  0.9818
  160OSM   H13C17906   1.716   3.328   2.218  0.8015  0.2290  0.9202
  160OSM    C1217907   1.477   3.574   2.186 -0.2432 -0.2190 -0.1604
  160OSM   H12A17908   1.374   3.580   2.218 -0.7377  0.5377 -1.8154
  160OSM   H12B17909   1.479   3.583   2.079 -1.5293 -1.2332 -0.2945
  160OSM    C1117910   1.543   3.698   2.265  0.0153 -0.1387  0.0463
  160OSM   H11A17911   1.513   3.793   2.216  0.0740 -1.2437 -2.3069
  160OSM   H11B17912   1.653   3.696   2.248  0.2909 -2.6509  1.4878
  160OSM      P17913   1.432   3.793   2.478  0.3265  0.3007 -0.0557
  160OSM    O1317914   1.486   3.929   2.461 -0.4754  0.5409 -0.2523
  160OSM    O1417915   1.297   3.772   2.417 -0.4069  0.3862 -0.3511
  160OSM    O1117916   1.427   3.760   2.632 -0.4128  0.2195  0.2282
  160OSM    O1217917   1.527   3.685   2.416 -0.4543  0.4355 -0.7275
  160OSM    C1S17918   1.557   3.725   2.689  0.3423  0.0211  0.6562
  160OSM    H1S17919   1.639   3.788   2.648 -1.9818  3.3780  0.6648
  160OSM    H1T17920   1.585   3.619   2.675 -0.3805  0.1635 -2.9366
  160OSM     NF17921   1.688   3.749   2.887 -0.4475 -0.0909 -0.5448
  160OSM    HNF17922   1.732   3.663   2.912  0.5941  0.6072  0.1129
  160OSM    C2S17923   1.552   3.750   2.842 -0.1083 -0.6127 -0.2848
  160OSM    H2S17924   1.507   3.846   2.871  0.6306 -0.0450 -0.9617
  160OSM    C3S17925   1.459   3.641   2.906 -0.5635 -0.6429  0.0278
  160OSM    H3S17926   1.481   3.549   2.848  0.3867  0.2676 -1.1075
  160OSM     O317927   1.323   3.653   2.872  0.4411 -0.0783 -0.2819
  160OSM    HO317928   1.326   3.710   2.795 -0.1926 -1.1766 -1.1415
  160OSM    C4S17929   1.482   3.616   3.058  1.0004  0.8813  0.1259
  160OSM    H4S17930   1.552   3.532   3.074  0.9916  0.8573  0.0386
  160OSM    C5S17931   1.418   3.682   3.158 -0.4316 -0.5554 -0.4515
  160OSM    H5S17932   1.339   3.753   3.128 -1.2397 -1.1488  0.2435
  160OSM    C6S17933   1.415   3.637   3.302  0.0862  0.2289 -0.0882
  160OSM    H6S17934   1.391   3.529   3.299  1.9809 -0.2636  0.8148
  160OSM    H6T17935   1.341   3.707   3.346  2.2958  3.7841 -1.5379
  160OSM    C7S17936   1.543   3.668   3.381  0.0704 -0.3494  0.4779
  160OSM    H7S17937   1.600   3.760   3.357  2.1926 -2.1203 -1.9651
  160OSM    H7T17938   1.618   3.589   3.358  0.2802  0.3229 -1.3163
  160OSM    C8S17939   1.527   3.650   3.530 -0.2392 -0.3253 -0.2180
  160OSM    H8S17940   1.466   3.559   3.549 -4.4235  2.0654 -0.9100
  160OSM    H8T17941   1.472   3.741   3.561 -1.6638 -0.9280 -0.8901
  160OSM    C9S17942   1.665   3.656   3.605  0.9883 -0.1062  0.2182
  160OSM    H9S17943   1.725   3.749   3.598  1.2212  0.0199  2.8910
  160OSM    H9T17944   1.714   3.576   3.546 -0.6525 -0.5234 -0.6704
  160OSM   C10S17945   1.655   3.619   3.757 -0.0661  0.0248  0.3116
  160OSM   H10S17946   1.603   3.520   3.761 -3.0172  1.4615 -0.0550
  160OSM   H10T17947   1.577   3.686   3.800 -1.7861  0.7331 -3.5166
  160OSM   C11S17948   1.788   3.612   3.823 -0.2070  0.2276 -0.5434
  160OSM   H11S17949   1.850   3.704   3.814 -0.0602  0.0494 -1.4395
  160OSM   H11T17950   1.858   3.538   3.780  0.1535 -0.1791  0.6911
  160OSM   C12S17951   1.771   3.588   3.971 -0.8109 -0.0694 -0.0133
  160OSM   H12S17952   1.715   3.497   4.002  0.6791 -1.2383 -0.6005
  160OSM   H12T17953   1.724   3.684   4.003  1.8757  1.6404 -0.8469
  160OSM   C13S17954   1.899   3.576   4.046  0.6277 -0.0782 -0.5280
  160OSM   H13S17955   1.945   3.670   4.010 -0.2528  0.0184 -1.4654
  160OSM   H13T17956   1.970   3.494   4.023 -1.2595 -2.1115  0.4832
  160OSM   C14S17957   1.883   3.586   4.202  0.3032  0.1808 -0.0623
  160OSM   H14S17958   1.807   3.511   4.233 -0.2091 -1.4872 -4.6131
  160OSM   H14T17959   1.853   3.691   4.226 -1.1003 -0.4740  1.2314
  160OSM   C15S17960   2.014   3.562   4.279  1.0381  0.1621 -0.1829
  160OSM   H15S17961   2.092   3.629   4.237  1.9183  0.4263  1.7722
  160OSM   H15T17962   2.039   3.454   4.271 -1.6580 -0.7388  2.0009
  160OSM   C16S17963   1.999   3.598   4.431  0.6748 -0.4085  0.1196
  160OSM   H16S17964   1.931   3.532   4.490 -1.4324  3.2268  2.0985
  160OSM   H16T17965   1.964   3.701   4.452  1.4341 -0.4315  1.6654
  160OSM   C17S17966   2.140   3.590   4.490 -0.1782  0.1182  0.4523
  160OSM   H17S17967   2.141   3.648   4.585  4.0844 -0.0095  0.7140
  160OSM   H17T17968   2.203   3.651   4.422 -1.5942  1.6559  0.4592
  160OSM   C18S17969   2.186   3.450   4.512 -0.4217  0.4640  0.4511
  160OSM   H18S17970   2.286   3.451   4.560 -0.2821  1.8993  0.1730
  160OSM   H18T17971   2.195   3.379   4.427 -0.4758 -2.3576  2.6191
  160OSM   H18U17972   2.114   3.409   4.587 -0.8271  2.1262  1.0193
  160OSM    C1F17973   1.773   3.848   2.866 -0.2690  0.1278 -0.4846
  160OSM     OF17974   1.732   3.955   2.825  0.3574  0.0989  0.1764
  160OSM    C2F17975   1.917   3.820   2.884  0.2377  0.0487  0.0057
  160OSM    H2F17976   1.968   3.911   2.846 -0.4973  0.5481  0.1801
  160OSM    H2G17977   1.948   3.740   2.814  1.3604  0.4419  0.0434
  160OSM    C3F17978   1.966   3.790   3.024 -0.2244 -0.1747 -0.1553
  160OSM    H3F17979   2.066   3.743   3.014  0.4770  0.9175  1.2647
  160OSM    H3G17980   1.902   3.708   3.063 -1.0818 -0.7264 -2.5614
  160OSM    C4F17981   1.979   3.915   3.108  0.2238 -0.6916 -0.6882
  160OSM    H4F17982   2.031   4.001   3.060  0.0976  0.0722  0.4823
  160OSM    H4G17983   2.032   3.878   3.198  0.2764  0.6658 -0.1307
  160OSM    C5F17984   1.837   3.968   3.161 -0.3127  0.0112  0.2220
  160OSM    H5F17985   1.774   3.883   3.195 -2.1378  1.5334  0.8506
  160OSM    H5G17986   1.784   4.016   3.076 -2.6479 -1.4773  0.7432
  160OSM    C6F17987   1.843   4.078   3.265 -0.8149  0.5235 -0.1166
  160OSM    H6F17988   1.854   4.172   3.207  0.4177  1.7106  1.9531
  160OSM    H6G17989   1.927   4.061   3.335 -2.1762 -0.4996  1.3619
  160OSM    C7F17990   1.723   4.084   3.353 -0.1941 -0.0634  0.5275
  160OSM    H7F17991   1.722   4.028   3.449 -2.5379  1.7925  1.6953
  160OSM    H7G17992   1.628   4.049   3.307  1.1552 -0.5801 -2.0010
  160OSM    C8F17993   1.704   4.228   3.408  0.1821  0.5075 -0.2021
  160OSM    H8F17994   1.631   4.211   3.491 -0.9436  1.9925 -0.8396
  160OSM    H8G17995   1.650   4.289   3.332 -3.0770 -0.4166  1.1956
  160OSM    C9F17996   1.830   4.298   3.465 -0.0362 -0.1332 -0.0990
  160OSM    H9F17997   1.900   4.341   3.393 -0.7351  3.0991  0.9801
  160OSM   C10F17998   1.863   4.317   3.594 -0.0626 -0.1181 -0.3571
  160OSM   H10F17999   1.959   4.369   3.609  0.6663 -0.7815 -2.3638
  160OSM   C11F18000   1.779   4.271   3.714  0.0653 -0.0853  0.1056
  160OSM   H11F18001   1.671   4.277   3.691 -0.3057 -1.3253  1.4407
  160OSM   H11G18002   1.777   4.344   3.798 -1.5270  0.4151 -0.3362
  160OSM   C12F18003   1.797   4.129   3.774  0.0962  0.1096 -0.2046
  160OSM   H12F18004   1.906   4.114   3.785 -0.1612 -2.3932 -0.4714
  160OSM   H12G18005   1.763   4.052   3.702 -0.4001 -1.2689  1.4246
  160OSM   C13F18006   1.714   4.104   3.898 -0.4285 -0.0232 -0.7073
  160OSM   H13F18007   1.716   4.001   3.940  0.6412  0.2794  0.0260
  160OSM   H13G18008   1.611   4.133   3.868 -0.6267  0.1430  0.1049
  160OSM   C14F18009   1.761   4.191   4.019  0.3270 -0.0608 -0.1859
  160OSM   H14F18010   1.758   4.298   3.988  1.0409 -0.1557 -0.5968
  160OSM   H14G18011   1.865   4.164   4.047 -0.1609  0.5925  2.5214
  160OSM   C15F18012   1.674   4.187   4.149 -0.6610 -1.0326  0.2895
  160OSM   H15F18013   1.576   4.224   4.111 -0.1244 -0.0349 -0.1765
  160OSM   H15G18014   1.727   4.259   4.215 -0.7650  0.4040 -1.1216
  160OSM   C16F18015   1.677   4.048   4.218 -0.4973 -0.0915 -0.7042
  160OSM   H16F18016   1.779   4.004   4.226 -0.3768  0.3937  0.7533
  160OSM   H16G18017   1.615   3.986   4.150 -2.3010  1.2273 -0.3311
  160OSM   C17F18018   1.629   4.053   4.365 -0.2776 -0.0804 -0.1780
  160OSM   H17F18019   1.530   4.102   4.367 -2.6218 -4.2828 -0.4866
  160OSM   H17G18020   1.695   4.107   4.437  0.1588 -3.0019  1.8333
  160OSM   C18F18021   1.616   3.912   4.431  0.5170 -0.6476  0.4121
  160OSM   H18F18022   1.601   3.919   4.541  0.6998 -4.8853  0.8423
  160OSM   H18G18023   1.708   3.851   4.420 -0.9360 -2.4922 -2.5654
  160OSM   H18H18024   1.522   3.865   4.397  0.3123  0.1924 -0.2217
  161OSM      N18025   4.611   2.394   2.148  0.3572 -0.0171 -0.4097
  161OSM    C1518026   4.695   2.339   2.031  0.6983 -0.2713 -0.0991
  161OSM   H15A18027   4.634   2.278   1.966  2.3214  0.6170 -2.6227
  161OSM   H15B18028   4.778   2.282   2.071  1.1408  0.8721  0.6729
  161OSM   H15C18029   4.732   2.418   1.967  0.8686 -1.1238 -1.0738
  161OSM    C1418030   4.511   2.489   2.088  0.4852  0.2068  0.0108
  161OSM   H14A18031   4.453   2.425   2.024  1.2866  0.0981 -0.6289
  161OSM   H14B18032   4.542   2.578   2.035 -0.8657  0.7577  0.1048
  161OSM   H14C18033   4.456   2.530   2.171 -0.6490 -1.0204 -0.1167
  161OSM    C1318034   4.547   2.275   2.219  0.9394 -0.5149 -0.4375
  161OSM   H13A18035   4.502   2.210   2.145 -0.1211  1.0492 -1.2170
  161OSM   H13B18036   4.475   2.312   2.290 -0.0119 -1.6422 -0.7943
  161OSM   H13C18037   4.634   2.232   2.267  1.5478 -0.9325 -1.8459
  161OSM    C1218038   4.706   2.468   2.238  1.0021  0.2016  0.0333
  161OSM   H12A18039   4.654   2.539   2.300 -0.8883  1.4592 -2.7550
  161OSM   H12B18040   4.767   2.528   2.172  1.9792  0.9720  1.5918
  161OSM    C1118041   4.807   2.383   2.321  0.6076  0.5348 -0.8903
  161OSM   H11A18042   4.748   2.358   2.412  2.8203  1.7896  0.9979
  161OSM   H11B18043   4.886   2.455   2.351  0.6753  1.0980 -2.3409
  161OSM      P18044   4.995   2.217   2.228 -0.2601 -0.3829 -0.3970
  161OSM    O1318045   4.996   2.109   2.135  0.1245  0.9609  0.2785
  161OSM    O1418046   5.062   2.344   2.186  0.0647  0.1390 -0.1618
  161OSM    O1118047   5.047   2.177   2.369  0.4157  0.0601  0.4872
  161OSM    O1218048   4.848   2.258   2.263  0.2269 -0.8209  0.4248
  161OSM    C1S18049   5.125   2.270   2.448  0.6800  0.6645  0.7299
  161OSM    H1S18050   5.141   2.373   2.409  2.5332  0.1904  0.1331
  161OSM    H1T18051   5.225   2.221   2.453 -0.2734 -1.3457  0.8178
  161OSM     NF18052   5.125   2.394   2.669 -0.5395 -0.4247  0.5234
  161OSM    HNF18053   5.183   2.372   2.747 -0.0673 -2.6274 -0.3767
  161OSM    C2S18054   5.078   2.274   2.601 -0.1389  0.6824  0.1520
  161OSM    H2S18055   4.968   2.285   2.586 -0.7653  1.2464  4.1907
  161OSM    C3S18056   5.096   2.138   2.674 -0.1575 -0.1834  0.4257
  161OSM    H3S18057   5.202   2.114   2.694 -0.2047 -1.4131 -0.6034
  161OSM     O318058   5.058   2.022   2.593 -0.2308 -0.1788 -0.3455
  161OSM    HO318059   5.056   2.067   2.508  3.9112  0.3237 -0.3520
  161OSM    C4S18060   5.021   2.146   2.806 -0.5323  0.4028  0.0440
  161OSM    H4S18061   5.088   2.154   2.893  0.6060 -2.1955 -0.5126
  161OSM    C5S18062   4.894   2.123   2.814 -0.6799  0.0914  0.2696
  161OSM    H5S18063   4.838   2.119   2.719  2.1704  2.3898 -1.6748
  161OSM    C6S18064   4.821   2.106   2.940  0.5409 -0.2613  0.0576
  161OSM    H6S18065   4.768   2.009   2.935  0.9106 -0.5117  0.8296
  161OSM    H6T18066   4.751   2.192   2.937 -0.3345 -0.9852 -0.6244
  161OSM    C7S18067   4.895   2.116   3.076  0.3928 -0.0419  0.0146
  161OSM    H7S18068   4.926   2.223   3.082 -1.6955  0.6170 -0.0030
  161OSM    H7T18069   4.984   2.050   3.076  0.3632 -0.1561  2.3619
  161OSM    C8S18070   4.808   2.063   3.200 -0.7001 -0.4836  0.0256
  161OSM    H8S18071   4.798   1.953   3.188 -1.5112 -0.3689 -0.3663
  161OSM    H8T18072   4.710   2.114   3.191 -0.6086  0.7286  3.8551
  161OSM    C9S18073   4.859   2.091   3.338  0.1502  0.0431 -0.2464
  161OSM    H9S18074   4.872   2.201   3.347 -0.4180  0.0284  0.8798
  161OSM    H9T18075   4.961   2.057   3.368  0.5768  0.0364 -1.6418
  161OSM   C10S18076   4.762   2.038   3.448 -0.3308  0.1610  0.0876
  161OSM   H10S18077   4.756   1.927   3.447  0.3554  0.1107  0.8512
  161OSM   H10T18078   4.660   2.081   3.433 -0.0215  0.3849 -1.6126
  161OSM   C11S18079   4.796   2.096   3.583  0.2926  0.0289 -0.0481
  161OSM   H11S18080   4.847   2.193   3.569 -2.1535  1.3708 -0.1400
  161OSM   H11T18081   4.877   2.030   3.622  0.7173 -0.2492 -1.3555
  161OSM   C12S18082   4.678   2.101   3.683 -0.6104  0.4030 -0.2779
  161OSM   H12S18083   4.648   1.996   3.700  2.4357 -0.7336 -1.1686
  161OSM   H12T18084   4.598   2.151   3.624 -1.2347 -3.5925 -3.2236
  161OSM   C13S18085   4.714   2.189   3.803  0.7989  0.1954 -0.5389
  161OSM   H13S18086   4.815   2.169   3.843 -0.0782 -0.7709  1.3032
  161OSM   H13T18087   4.643   2.156   3.881  1.1670 -1.7187 -0.9687
  161OSM   C14S18088   4.690   2.341   3.784 -0.1307  0.4056  0.1010
  161OSM   H14S18089   4.579   2.349   3.786 -0.2427 -0.9163 -0.2509
  161OSM   H14T18090   4.732   2.382   3.690 -0.6652  0.6601 -0.0371
  161OSM   C15S18091   4.747   2.423   3.903  0.3251 -0.0321 -0.5372
  161OSM   H15S18092   4.735   2.529   3.873  0.9420  0.3391  0.4703
  161OSM   H15T18093   4.855   2.405   3.917  0.3973  0.7333 -0.0624
  161OSM   C16S18094   4.679   2.391   4.037 -0.0659 -0.3610 -0.4854
  161OSM   H16S18095   4.718   2.450   4.123  2.4114  0.1095 -1.8244
  161OSM   H16T18096   4.688   2.285   4.068 -1.1290 -0.1950  0.4442
  161OSM   C17S18097   4.532   2.423   4.042 -0.3021 -0.5852 -0.2769
  161OSM   H17S18098   4.474   2.374   3.960 -0.4592 -3.1637  1.2601
  161OSM   H17T18099   4.528   2.531   4.014 -2.6435 -0.7327 -0.7063
  161OSM   C18S18100   4.463   2.405   4.182  0.1581  0.2949 -0.6945
  161OSM   H18S18101   4.516   2.466   4.258 -1.5169  1.2741 -0.2598
  161OSM   H18T18102   4.466   2.298   4.211  2.1848  0.0284 -1.7376
  161OSM   H18U18103   4.359   2.444   4.180  0.1364  0.2258 -1.6462
  161OSM    C1F18104   5.083   2.522   2.641 -0.2647 -0.1238  0.2748
  161OSM     OF18105   5.001   2.529   2.555 -0.4991  0.2232  0.6893
  161OSM    C2F18106   5.122   2.634   2.723  0.3028 -0.7713 -0.9688
  161OSM    H2F18107   5.117   2.718   2.651  2.8919  1.0574  0.8077
  161OSM    H2G18108   5.226   2.629   2.762  0.2856 -1.2105 -0.9770
  161OSM    C3F18109   5.021   2.676   2.835  0.5581  0.8523  0.2335
  161OSM    H3F18110   4.916   2.679   2.799  0.4421  2.9132  0.6122
  161OSM    H3G18111   5.040   2.782   2.861  0.2353  1.3816 -1.5338
  161OSM    C4F18112   5.014   2.594   2.959  0.6222 -0.2837  0.2835
  161OSM    H4F18113   5.112   2.596   3.012  1.1911 -0.1489 -0.7558
  161OSM    H4G18114   4.979   2.489   2.947  2.0701 -0.9983  1.7870
  161OSM    C5F18115   4.915   2.659   3.062  0.1206 -0.3430  0.6188
  161OSM    H5F18116   4.824   2.686   3.004  0.1761  0.1777  0.7686
  161OSM    H5G18117   4.960   2.752   3.102 -0.6851  0.5418 -0.4986
  161OSM    C6F18118   4.875   2.571   3.182  0.8118  0.5662 -0.8469
  161OSM    H6F18119   4.829   2.480   3.139 -0.7021  0.7517  0.2700
  161OSM    H6G18120   4.788   2.619   3.232 -0.5062  1.5097 -3.8406
  161OSM    C7F18121   4.990   2.535   3.280 -0.9167 -0.4636  0.4816
  161OSM    H7F18122   5.038   2.629   3.312 -0.3075 -0.0118 -1.6553
  161OSM    H7G18123   5.062   2.465   3.233 -2.7710 -2.8285  0.9399
  161OSM    C8F18124   4.940   2.467   3.416  0.1310 -0.4017  0.3427
  161OSM    H8F18125   5.019   2.402   3.459 -0.4264 -1.4886 -0.2133
  161OSM    H8G18126   4.853   2.400   3.397 -1.9474  2.8562 -2.8928
  161OSM    C9F18127   4.876   2.556   3.521 -0.3283  0.4216 -0.0475
  161OSM    H9F18128   4.780   2.600   3.493  0.2276  1.5088 -0.3265
  161OSM   C10F18129   4.923   2.581   3.644 -0.6731  0.6319 -0.2712
  161OSM   H10F18130   4.871   2.655   3.707  0.2344 -0.3002  1.6407
  161OSM   C11F18131   5.054   2.527   3.700  0.4208  0.5748 -0.1473
  161OSM   H11F18132   5.125   2.494   3.621  1.8953  1.8145  0.6059
  161OSM   H11G18133   5.024   2.438   3.760  2.2682 -1.0377 -1.4497
  161OSM   C12F18134   5.119   2.628   3.794  0.1906  0.3672 -0.7495
  161OSM   H12F18135   5.085   2.724   3.749  1.9642  1.3578 -0.0620
  161OSM   H12G18136   5.229   2.615   3.782  0.2983  0.0376  0.4910
  161OSM   C13F18137   5.082   2.619   3.946  0.5687 -0.0945  0.0653
  161OSM   H13F18138   4.972   2.612   3.959  0.7335 -0.7058  1.1678
  161OSM   H13G18139   5.117   2.714   3.991  1.9525 -1.4992  2.1301
  161OSM   C14F18140   5.148   2.498   4.006 -0.0081 -0.7618 -0.3010
  161OSM   H14F18141   5.257   2.485   3.988  0.5377  0.8006  1.5459
  161OSM   H14G18142   5.103   2.403   3.970 -1.8153 -0.0779  0.0544
  161OSM   C15F18143   5.133   2.502   4.158  0.0506  0.4353 -0.3536
  161OSM   H15F18144   5.163   2.601   4.199  0.7833  0.1202 -0.1010
  161OSM   H15G18145   5.206   2.424   4.190  0.4579  1.6451  1.8395
  161OSM   C16F18146   4.998   2.459   4.203  0.1884  0.3365 -0.3036
  161OSM   H16F18147   4.967   2.375   4.137  1.5032  1.1783 -2.0657
  161OSM   H16G18148   4.923   2.539   4.184  0.5958  0.4184 -1.6805
  161OSM   C17F18149   4.986   2.399   4.345  0.6394 -0.5642  0.1447
  161OSM   H17F18150   5.019   2.472   4.422 -2.0392 -0.3199  1.1617
  161OSM   H17G18151   5.049   2.308   4.351 -0.9442 -1.7416 -0.1826
  161OSM   C18F18152   4.841   2.360   4.379 -0.6703 -0.2319  0.3773
  161OSM   H18F18153   4.822   2.265   4.326  1.7665 -0.2650 -0.6070
  161OSM   H18G18154   4.768   2.437   4.347 -1.3048 -1.2871 -0.7900
  161OSM   H18H18155   4.833   2.343   4.489 -0.9474  0.2189  0.4297
  162OSM      N18156   0.299   3.057   2.562 -0.1522  0.3093  0.0078
  162OSM    C1518157   0.324   3.132   2.436 -0.5896 -0.1808 -0.5515
  162OSM   H15A18158   0.258   3.218   2.437 -1.5387 -0.8292  2.6114
  162OSM   H15B18159   0.290   3.073   2.353  0.1867  0.0886 -1.0780
  162OSM   H15C18160   0.426   3.166   2.423  0.3362 -2.6914 -0.3396
  162OSM    C1418161   0.160   3.026   2.574 -0.2511 -0.3012  0.5466
  162OSM   H14A18162   0.143   2.962   2.660 -0.4354 -0.5495  0.3280
  162OSM   H14B18163   0.122   2.977   2.485  1.4635  1.1990 -1.0868
  162OSM   H14C18164   0.100   3.114   2.588 -2.4805 -1.5299 -0.6422
  162OSM    C1318165   0.365   2.925   2.564 -0.0552 -0.4162 -0.0963
  162OSM   H13A18166   0.357   2.878   2.661 -0.1259  1.2721  0.7447
  162OSM   H13B18167   0.469   2.932   2.536  0.0925 -4.1835 -0.9940
  162OSM   H13C18168   0.321   2.861   2.489 -0.8508 -0.2016  0.1749
  162OSM    C1218169   0.339   3.142   2.682 -0.3174 -0.3886 -0.1096
  162OSM   H12A18170   0.437   3.179   2.654  0.4131 -0.2850  2.3175
  162OSM   H12B18171   0.353   3.075   2.766 -1.6325  0.2384  0.6334
  162OSM    C1118172   0.245   3.253   2.742 -0.2492 -0.4867  0.4354
  162OSM   H11A18173   0.299   3.289   2.832  2.8362 -1.4536 -0.8608
  162OSM   H11B18174   0.155   3.197   2.775  0.1645 -3.7408 -3.1980
  162OSM      P18175   0.072   3.397   2.612 -0.4093 -0.2375 -0.0455
  162OSM    O1318176   0.072   3.497   2.503 -0.2119 -0.7728 -0.1097
  162OSM    O1418177  -0.009   3.278   2.582 -0.1507 -0.2179  0.5288
  162OSM    O1118178   0.042   3.477   2.747 -0.6973 -0.2547 -0.1144
  162OSM    O1218179   0.227   3.355   2.642  0.3849  0.5310  0.1573
  162OSM    C1S18180   0.135   3.569   2.800 -0.6235  0.6387  0.1092
  162OSM    H1S18181   0.134   3.659   2.735  0.8894  1.5356  1.2574
  162OSM    H1T18182   0.238   3.528   2.797 -1.0005 -0.3388  0.1259
  162OSM     NF18183   0.169   3.714   3.001  0.6327 -0.1313 -0.5717
  162OSM    HNF18184   0.238   3.703   3.072 -0.6613  0.4743  0.8450
  162OSM    C2S18185   0.102   3.600   2.947 -0.1119  0.0564 -0.3897
  162OSM    H2S18186  -0.008   3.617   2.946  0.0258  0.9282 -1.4046
  162OSM    C3S18187   0.118   3.480   3.044 -0.0695 -0.3783  0.2462
  162OSM    H3S18188   0.224   3.448   3.052  0.1434  0.0941 -0.5666
  162OSM     O318189   0.061   3.362   2.979 -0.1610 -0.4093 -0.3146
  162OSM    HO318190   0.038   3.388   2.889 -2.2857 -1.6612 -0.2122
  162OSM    C4S18191   0.052   3.501   3.168  0.7846  0.3340 -0.0310
  162OSM    H4S18192  -0.056   3.495   3.148  0.4231  2.1791  1.1140
  162OSM    C5S18193   0.096   3.508   3.292 -0.2261 -0.0356 -1.1435
  162OSM    H5S18194   0.205   3.507   3.310 -0.4398  1.4124  0.3990
  162OSM    C6S18195   0.011   3.519   3.415 -0.2532  0.0386 -0.2987
  162OSM    H6S18196   0.029   3.618   3.463  0.9525  0.6013 -1.8245
  162OSM    H6T18197   0.028   3.440   3.491  0.2677  1.0816  0.7030
  162OSM    C7S18198  -0.140   3.524   3.383  0.0497  0.9407  0.9990
  162OSM    H7S18199  -0.171   3.424   3.345  0.1585  1.0407  0.6379
  162OSM    H7T18200  -0.175   3.598   3.308 -0.6870 -0.6515 -0.2994
  162OSM    C8S18201  -0.227   3.547   3.507  0.5502 -1.1891 -0.0574
  162OSM    H8S18202  -0.227   3.652   3.542 -2.2149 -0.3275 -2.2309
  162OSM    H8T18203  -0.187   3.495   3.597 -0.9138 -3.2257 -0.5084
  162OSM    C9S18204  -0.376   3.496   3.491  1.0815 -0.2146  0.1763
  162OSM    H9S18205  -0.377   3.386   3.507 -2.5250 -0.1780  1.1241
  162OSM    H9T18206  -0.419   3.511   3.390  0.2498  0.3208  0.5959
  162OSM   C10S18207  -0.468   3.550   3.608 -0.3323  0.0280  0.3080
  162OSM   H10S18208  -0.575   3.534   3.581 -0.1060 -0.4740 -0.2957
  162OSM   H10T18209  -0.463   3.660   3.626  0.2273 -0.0426  0.6056
  162OSM   C11S18210  -0.435   3.473   3.738 -1.1568  0.8758 -0.0369
  162OSM   H11S18211  -0.334   3.493   3.780 -0.9666 -2.0165  1.0943
  162OSM   H11T18212  -0.435   3.363   3.724  1.5975  0.6065  1.2230
  162OSM   C12S18213  -0.535   3.512   3.849 -0.1204 -0.4968  0.1274
  162OSM   H12S18214  -0.637   3.529   3.807 -0.7833 -2.2274  0.9699
  162OSM   H12T18215  -0.513   3.608   3.901  0.4385 -0.2423 -0.5657
  162OSM   C13S18216  -0.525   3.412   3.958 -0.2882 -0.4361  0.3308
  162OSM   H13S18217  -0.416   3.413   3.983 -0.4318  0.4466  0.9589
  162OSM   H13T18218  -0.567   3.312   3.935 -0.1943 -0.1340 -1.3063
  162OSM   C14S18219  -0.607   3.448   4.088 -0.3946 -0.1155  0.2881
  162OSM   H14S18220  -0.634   3.556   4.092 -0.3849 -0.0674 -0.6065
  162OSM   H14T18221  -0.537   3.440   4.173  0.8857 -1.2070 -0.8241
  162OSM   C15S18222  -0.738   3.364   4.110 -0.9251 -0.0755  0.2258
  162OSM   H15S18223  -0.713   3.256   4.098 -0.9051  0.1670 -2.3995
  162OSM   H15T18224  -0.806   3.391   4.027 -1.0006 -0.8978  0.0106
  162OSM   C16S18225  -0.799   3.381   4.251  0.1671  0.3140 -0.0586
  162OSM   H16S18226  -0.836   3.485   4.265 -2.1168 -0.1647 -1.9055
  162OSM   H16T18227  -0.741   3.346   4.339 -0.8114  0.3616  0.6183
  162OSM   C17S18228  -0.922   3.292   4.260  0.9260  0.0763 -0.4533
  162OSM   H17S18229  -0.891   3.189   4.230 -0.5862 -0.0000 -1.9321
  162OSM   H17T18230  -1.003   3.314   4.187  1.5564 -1.2764 -1.6089
  162OSM   C18S18231  -0.987   3.294   4.408 -0.2412  0.2133  0.1130
  162OSM   H18S18232  -1.010   3.398   4.441  0.3126  0.3643  0.0409
  162OSM   H18T18233  -0.917   3.239   4.474  2.0367  1.5599 -1.0730
  162OSM   H18U18234  -1.078   3.231   4.409  0.5615 -1.0359  2.6136
  162OSM    C1F18235   0.140   3.841   2.964 -0.1682 -0.3527 -0.1519
  162OSM     OF18236   0.029   3.868   2.915 -0.2881  0.0218 -0.0417
  162OSM    C2F18237   0.248   3.945   2.978  0.3508 -0.3133  0.3400
  162OSM    H2F18238   0.258   3.987   2.875  0.8772 -1.6304 -0.1615
  162OSM    H2G18239   0.342   3.893   3.006  0.3943 -0.5113 -0.1642
  162OSM    C3F18240   0.205   4.052   3.075  0.0338  1.0061 -0.3358
  162OSM    H3F18241   0.101   4.083   3.050  0.5257  3.8612  0.6814
  162OSM    H3G18242   0.255   4.151   3.063 -1.2381  1.7430  0.2248
  162OSM    C4F18243   0.222   4.009   3.219 -0.0910  0.6884 -0.7206
  162OSM    H4F18244   0.325   4.039   3.251  0.0797  0.2075 -0.8072
  162OSM    H4G18245   0.217   3.899   3.239  0.4795  0.2410 -2.8439
  162OSM    C5F18246   0.126   4.085   3.304  0.4103  0.1935  0.2703
  162OSM    H5F18247   0.024   4.064   3.266  0.8308 -2.2066  0.3419
  162OSM    H5G18248   0.150   4.193   3.293  1.9762  0.0254  1.6315
  162OSM    C6F18249   0.134   4.054   3.453 -0.1087  0.2707 -0.1052
  162OSM    H6F18250   0.232   4.088   3.492 -0.0264  1.2660 -1.1529
  162OSM    H6G18251   0.116   3.946   3.476  1.0266  0.3553  1.3815
  162OSM    C7F18252   0.025   4.128   3.532 -0.5579 -0.1490 -0.1601
  162OSM    H7F18253  -0.073   4.092   3.493 -0.6945 -0.8869  0.8294
  162OSM    H7G18254   0.034   4.237   3.517 -1.8155  0.2963  1.9678
  162OSM    C8F18255   0.034   4.093   3.683  0.6950 -0.6042  0.0398
  162OSM    H8F18256  -0.061   4.130   3.727  1.3372 -0.0815  1.0343
  162OSM    H8G18257   0.115   4.159   3.721 -0.2678  0.8331 -0.3324
  162OSM    C9F18258   0.052   3.946   3.718  0.2741 -0.2009  0.2039
  162OSM    H9F18259   0.156   3.923   3.689 -0.0295 -0.5523 -0.6076
  162OSM   C10F18260  -0.025   3.848   3.774  0.4826  0.2435  0.6780
  162OSM   H10F18261   0.021   3.749   3.782 -0.6196 -0.3077  0.4928
  162OSM   C11F18262  -0.168   3.851   3.818  0.1783  0.6148 -0.7627
  162OSM   H11F18263  -0.235   3.770   3.781  0.0408 -0.1127  1.0034
  162OSM   H11G18264  -0.212   3.944   3.777 -1.4116 -1.2221 -3.5552
  162OSM   C12F18265  -0.183   3.844   3.970 -1.1465  0.3453  0.0253
  162OSM   H12F18266  -0.284   3.887   3.986 -0.2079  1.9474  2.0136
  162OSM   H12G18267  -0.120   3.903   4.038 -0.8633 -0.8256  0.8080
  162OSM   C13F18268  -0.185   3.698   4.015 -1.3329 -0.6645 -0.3518
  162OSM   H13F18269  -0.084   3.654   4.002 -0.5019  1.4193 -1.3657
  162OSM   H13G18270  -0.255   3.640   3.951  0.3725 -1.8188 -1.2467
  162OSM   C14F18271  -0.234   3.671   4.159  0.5764 -0.3014 -0.2735
  162OSM   H14F18272  -0.166   3.710   4.237 -1.0637 -1.0092  1.5834
  162OSM   H14G18273  -0.228   3.562   4.181 -2.1224 -0.9069 -2.0821
  162OSM   C15F18274  -0.377   3.721   4.198 -0.3467 -0.6026 -0.3820
  162OSM   H15F18275  -0.440   3.671   4.122 -0.4529 -4.0373  1.7625
  162OSM   H15G18276  -0.374   3.832   4.189  1.3300 -0.6547 -0.7517
  162OSM   C16F18277  -0.421   3.677   4.339 -0.0957  0.0034 -0.2626
  162OSM   H16F18278  -0.350   3.720   4.413 -1.2691  0.5568  0.5735
  162OSM   H16G18279  -0.424   3.566   4.331  1.8992 -0.2144  1.1871
  162OSM   C17F18280  -0.569   3.714   4.372 -0.6316 -0.0320 -0.4889
  162OSM   H17F18281  -0.640   3.686   4.292 -1.7388  0.9375  0.1260
  162OSM   H17G18282  -0.572   3.825   4.372  0.8624  0.0397 -1.1516
  162OSM   C18F18283  -0.620   3.648   4.505  0.1508  0.5560  0.1768
  162OSM   H18F18284  -0.623   3.537   4.494 -0.3467  0.3719  1.8119
  162OSM   H18G18285  -0.717   3.683   4.545 -0.2303  0.8027 -0.9432
  162OSM   H18H18286  -0.551   3.656   4.592 -1.6976 -1.2532  1.9410
  163OSM      N18287   4.631   1.519   2.325  0.5181 -1.0377 -0.8295
  163OSM    C1518288   4.665   1.588   2.196  0.5745  0.4101 -0.7052
  163OSM   H15A18289   4.671   1.693   2.216 -0.7247 -0.0616  2.8776
  163OSM   H15B18290   4.597   1.564   2.115  0.5171 -0.5912 -0.3752
  163OSM   H15C18291   4.766   1.559   2.170  1.9307  3.3332  0.8700
  163OSM    C1418292   4.664   1.372   2.321  0.2448  0.1795 -0.1569
  163OSM   H14A18293   4.625   1.325   2.410  0.8894 -3.3114 -1.5631
  163OSM   H14B18294   4.770   1.351   2.322  0.2956  0.4387 -0.1009
  163OSM   H14C18295   4.602   1.323   2.247 -0.5833 -1.0630  1.2966
  163OSM    C1318296   4.702   1.586   2.436  0.2127 -0.4508  0.5372
  163OSM   H13A18297   4.806   1.581   2.408 -0.1866 -1.2704 -0.8849
  163OSM   H13B18298   4.684   1.532   2.528  1.9280  0.8979  1.7338
  163OSM   H13C18299   4.676   1.689   2.458  0.1967 -0.3992  0.2829
  163OSM    C1218300   4.480   1.536   2.360  0.1127  0.6481  0.0398
  163OSM   H12A18301   4.452   1.474   2.444  1.2481  1.1647  0.8211
  163OSM   H12B18302   4.421   1.494   2.280  0.5370 -0.9108  0.5128
  163OSM    C1118303   4.430   1.676   2.397  0.2584 -0.1853 -0.0057
  163OSM   H11A18304   4.480   1.711   2.491 -2.3205  0.5572  1.1726
  163OSM   H11B18305   4.322   1.666   2.421  0.3205 -1.1181 -0.1028
  163OSM      P18306   4.460   1.917   2.305  0.0269 -0.1348 -0.1267
  163OSM    O1318307   4.584   1.937   2.380 -0.2932  0.8156  0.4638
  163OSM    O1418308   4.444   1.986   2.179 -0.9204 -0.6412 -0.2565
  163OSM    O1118309   4.333   1.970   2.387 -0.2880  1.0319  0.0916
  163OSM    O1218310   4.446   1.763   2.281 -0.2930  0.2226  0.0414
  163OSM    C1S18311   4.316   1.957   2.526  0.1728  0.4047 -0.1657
  163OSM    H1S18312   4.380   1.877   2.569  0.6121 -0.2945 -2.0223
  163OSM    H1T18313   4.211   1.928   2.545  0.2725 -1.0456 -1.6060
  163OSM     NF18314   4.333   2.071   2.740  0.1209  0.0597  0.4219
  163OSM    HNF18315   4.240   2.076   2.774 -0.4121 -2.0333 -0.5214
  163OSM    C2S18316   4.359   2.093   2.600  0.4691  0.0265  0.2535
  163OSM    H2S18317   4.469   2.097   2.580  0.6724 -0.3159  1.2460
  163OSM    C3S18318   4.290   2.220   2.543  0.1211  0.0891 -0.3197
  163OSM    H3S18319   4.184   2.221   2.575 -0.1640 -2.4337 -1.0006
  163OSM     O318320   4.303   2.236   2.405 -0.0832 -0.8569 -0.2758
  163OSM    HO318321   4.287   2.148   2.370  0.0934 -0.6897 -0.7690
  163OSM    C4S18322   4.357   2.339   2.618  0.2698  0.2428 -0.4936
  163OSM    H4S18323   4.301   2.376   2.705 -0.3384 -1.3101 -0.1887
  163OSM    C5S18324   4.470   2.406   2.585 -0.3429  0.4622  0.2570
  163OSM    H5S18325   4.520   2.381   2.491  0.4149  1.5279  0.3524
  163OSM    C6S18326   4.528   2.532   2.637  0.0190 -0.3292 -1.0249
  163OSM    H6S18327   4.457   2.565   2.715 -1.0968  0.1345 -2.1961
  163OSM    H6T18328   4.534   2.608   2.555  3.5479  0.3493 -0.3054
  163OSM    C7S18329   4.670   2.515   2.710  0.3366  0.0743  0.6773
  163OSM    H7S18330   4.695   2.619   2.743  1.8325  0.8598 -2.4956
  163OSM    H7T18331   4.742   2.484   2.632 -1.6024  0.4337 -1.3778
  163OSM    C8S18332   4.668   2.419   2.827 -0.4190 -0.0001  0.0110
  163OSM    H8S18333   4.770   2.411   2.872 -0.6735  2.9542  1.3107
  163OSM    H8T18334   4.640   2.316   2.795  2.2718 -1.2118  1.1792
  163OSM    C9S18335   4.586   2.479   2.942  0.7440 -0.5534  0.3679
  163OSM    H9S18336   4.485   2.512   2.911  1.3278  1.8522  0.8182
  163OSM    H9T18337   4.648   2.566   2.975  0.4988 -0.1016 -0.3589
  163OSM   C10S18338   4.558   2.392   3.070  0.1814 -0.5950 -0.1601
  163OSM   H10S18339   4.661   2.359   3.094 -0.5561 -3.8912 -1.0993
  163OSM   H10T18340   4.488   2.309   3.046 -1.5994 -0.0461  2.6860
  163OSM   C11S18341   4.516   2.476   3.200  0.2042 -0.3983  0.9522
  163OSM   H11S18342   4.405   2.483   3.204  0.2064 -0.6474  1.4556
  163OSM   H11T18343   4.561   2.577   3.190  1.5972 -0.9876  1.1594
  163OSM   C12S18344   4.557   2.400   3.326  0.0986  0.3641  0.4423
  163OSM   H12S18345   4.655   2.424   3.373  0.9440 -4.0379  1.4365
  163OSM   H12T18346   4.557   2.291   3.301  1.2233  0.9174 -2.3463
  163OSM   C13S18347   4.457   2.420   3.440  0.2174 -0.1463 -0.7432
  163OSM   H13S18348   4.488   2.360   3.529  0.1881  1.5796  0.4795
  163OSM   H13T18349   4.356   2.384   3.413 -0.3359  0.8309 -0.0253
  163OSM   C14S18350   4.431   2.562   3.478 -0.0819 -0.1077 -0.0243
  163OSM   H14S18351   4.323   2.589   3.477 -0.1082 -0.2221 -1.1759
  163OSM   H14T18352   4.489   2.623   3.406  1.2670 -0.6450  0.5797
  163OSM   C15S18353   4.488   2.584   3.618  0.4848  0.1071 -0.6595
  163OSM   H15S18354   4.597   2.563   3.610  0.2358 -1.0992 -1.1252
  163OSM   H15T18355   4.441   2.513   3.690  0.8232 -0.3289 -0.8642
  163OSM   C16S18356   4.461   2.730   3.675  0.6692  1.3298 -0.4488
  163OSM   H16S18357   4.375   2.764   3.614  1.6987  2.0069 -1.5548
  163OSM   H16T18358   4.544   2.792   3.635 -0.2242  1.8278 -1.5792
  163OSM   C17S18359   4.425   2.741   3.821  0.2965  0.1392  0.1323
  163OSM   H17S18360   4.506   2.693   3.880  2.3525  1.1882 -1.6937
  163OSM   H17T18361   4.332   2.683   3.837  0.0333  0.6514  0.4684
  163OSM   C18S18362   4.394   2.881   3.860  0.3246 -0.1872  0.5598
  163OSM   H18S18363   4.485   2.943   3.873  3.1563 -4.3722  3.4099
  163OSM   H18T18364   4.339   2.886   3.956 -1.1915 -1.6877 -0.1654
  163OSM   H18U18365   4.325   2.933   3.789  2.8084  1.5660 -0.7108
  163OSM    C1F18366   4.414   2.007   2.820  0.3229  0.0635 -0.2327
  163OSM     OF18367   4.529   1.979   2.787 -0.0746  0.1250 -0.3544
  163OSM    C2F18368   4.350   1.960   2.958  0.4594 -0.3959  0.1643
  163OSM    H2F18369   4.316   1.855   2.942  0.6215 -0.4424  0.1277
  163OSM    H2G18370   4.261   2.022   2.982  0.7757  0.1031  0.0625
  163OSM    C3F18371   4.456   1.953   3.066 -0.5827  0.1570 -0.0933
  163OSM    H3F18372   4.497   2.056   3.079 -1.9195  0.5862  0.9407
  163OSM    H3G18373   4.532   1.880   3.032  0.3239  1.6853 -1.4819
  163OSM    C4F18374   4.397   1.920   3.206 -0.5598 -0.0750  0.1780
  163OSM    H4F18375   4.474   1.911   3.285  0.4449  1.8843 -0.5094
  163OSM    H4G18376   4.327   1.836   3.188 -0.4051 -0.0078 -0.8255
  163OSM    C5F18377   4.309   2.029   3.268 -0.1966 -0.0426  0.1191
  163OSM    H5F18378   4.222   2.041   3.199 -1.2474  0.5743  1.5021
  163OSM    H5G18379   4.366   2.124   3.276  0.0556 -0.3318  2.3381
  163OSM    C6F18380   4.254   1.992   3.405  0.1309  0.5224  0.5450
  163OSM    H6F18381   4.196   1.898   3.395  1.3259 -0.1429 -0.3722
  163OSM    H6G18382   4.183   2.074   3.431  1.5512  1.9782  0.0232
  163OSM    C7F18383   4.354   1.970   3.521  0.2672 -0.3324 -0.1743
  163OSM    H7F18384   4.405   2.068   3.532  2.0980 -1.3889  1.4487
  163OSM    H7G18385   4.426   1.891   3.491  0.6613  0.0904 -0.3470
  163OSM    C8F18386   4.284   1.924   3.650  0.1502  0.4092  0.3838
  163OSM    H8F18387   4.270   1.814   3.650  0.1972  0.2065 -4.5840
  163OSM    H8G18388   4.176   1.949   3.648 -0.3962 -1.7224  0.7092
  163OSM    C9F18389   4.354   1.973   3.772  0.1786  0.5452  0.0403
  163OSM    H9F18390   4.429   1.903   3.813 -0.2641 -0.7864 -1.3170
  163OSM   C10F18391   4.331   2.081   3.838 -0.1401 -0.1110  0.4562
  163OSM   H10F18392   4.393   2.108   3.925  2.2725  0.0348 -1.2131
  163OSM   C11F18393   4.235   2.192   3.802  0.3420 -0.3345 -0.5765
  163OSM   H11F18394   4.173   2.174   3.711 -0.6287  0.8497 -0.1679
  163OSM   H11G18395   4.289   2.289   3.793  2.9652 -1.3993  2.1469
  163OSM   C12F18396   4.136   2.223   3.911  0.0259 -0.0549 -0.4478
  163OSM   H12F18397   4.085   2.320   3.889  1.1599  0.8638  0.8165
  163OSM   H12G18398   4.205   2.243   3.996  0.5900 -1.7053 -0.4982
  163OSM   C13F18399   4.042   2.111   3.942 -0.3048  0.2047 -1.1534
  163OSM   H13F18400   4.093   2.012   3.945 -0.8928 -0.0841  1.1107
  163OSM   H13G18401   3.974   2.111   3.854  0.7076 -1.1648 -1.9867
  163OSM   C14F18402   3.961   2.138   4.069 -0.2840  0.4988  0.6095
  163OSM   H14F18403   3.852   2.129   4.048 -0.6351  0.6084  2.2156
  163OSM   H14G18404   3.980   2.242   4.104  1.4519  0.6782 -0.7680
  163OSM   C15F18405   3.996   2.046   4.184 -0.6237  0.0672 -0.1004
  163OSM   H15F18406   4.100   2.069   4.217  0.0532  2.0354 -3.1365
  163OSM   H15G18407   3.973   1.946   4.142  0.7830  0.0276 -0.8333
  163OSM   C16F18408   3.910   2.074   4.311  0.0223  0.3250  1.3146
  163OSM   H16F18409   3.949   2.018   4.398 -2.3013 -2.0686  0.9206
  163OSM   H16G18410   3.811   2.031   4.287  0.4686 -0.0711  0.0847
  163OSM   C17F18411   3.889   2.218   4.349  0.1467 -0.8393 -0.4814
  163OSM   H17F18412   3.825   2.216   4.440  0.5662 -2.3129 -0.2027
  163OSM   H17G18413   3.840   2.284   4.274  1.5817  0.6786 -0.1589
  163OSM   C18F18414   4.016   2.296   4.380  0.1958 -0.0652  0.0547
  163OSM   H18F18415   3.991   2.404   4.389  2.2375  0.3747  1.4042
  163OSM   H18G18416   4.084   2.280   4.293 -0.8652  2.6240 -1.3684
  163OSM   H18H18417   4.055   2.255   4.476 -2.9115 -0.1718  1.3760
  164OSM      N18418   0.926   3.819   2.666  0.1439 -0.4206 -0.1668
  164OSM    C1518419   0.868   3.913   2.759  0.1443 -0.2739  0.1448
  164OSM   H15A18420   0.866   3.880   2.861 -0.6607  0.7766  0.4857
  164OSM   H15B18421   0.767   3.935   2.727  0.0666 -1.5552 -0.5445
  164OSM   H15C18422   0.910   4.012   2.751 -0.3049  0.0405  1.5494
  164OSM    C1418423   0.936   3.875   2.532  0.3734  0.1119 -0.1097
  164OSM   H14A18424   0.991   3.968   2.527 -1.4623  1.3153  0.5688
  164OSM   H14B18425   0.844   3.896   2.479  0.6245  2.2777  0.2080
  164OSM   H14C18426   0.975   3.797   2.469  2.5073 -1.2942  2.7467
  164OSM    C1318427   1.060   3.799   2.712 -0.0821  0.1709  0.3234
  164OSM   H13A18428   1.062   3.766   2.815  1.2662 -0.7796  0.0280
  164OSM   H13B18429   1.111   3.891   2.689 -0.3255 -0.1407 -1.7028
  164OSM   H13C18430   1.107   3.717   2.659 -0.2464 -0.5460  1.2564
  164OSM    C1218431   0.850   3.692   2.654 -0.2941  0.5196  0.6941
  164OSM   H12A18432   0.819   3.666   2.754 -0.9338 -0.3410  0.2825
  164OSM   H12B18433   0.918   3.611   2.630  1.0045  1.2156  1.8620
  164OSM    C1118434   0.724   3.694   2.569  0.3499  0.1947  0.3614
  164OSM   H11A18435   0.684   3.591   2.580  1.8506 -0.4467  0.0179
  164OSM   H11B18436   0.752   3.701   2.461 -0.1553 -0.0164  0.2130
  164OSM      P18437   0.483   3.759   2.637  0.0884 -0.3572 -0.0047
  164OSM    O1318438   0.413   3.864   2.706 -0.0593 -0.1944  0.7516
  164OSM    O1418439   0.428   3.721   2.507 -0.6209  0.3287 -0.0290
  164OSM    O1118440   0.503   3.634   2.734  0.5033  0.3376  0.4411
  164OSM    O1218441   0.631   3.795   2.606  0.0568  0.1417 -0.0893
  164OSM    C1S18442   0.524   3.646   2.878  0.3852 -1.1981  0.7442
  164OSM    H1S18443   0.430   3.675   2.928  0.7237 -1.6679  1.6829
  164OSM    H1T18444   0.588   3.731   2.909 -0.5571 -0.1280 -0.1891
  164OSM     NF18445   0.600   3.542   3.094  0.2284 -0.6112  0.1393
  164OSM    HNF18446   0.698   3.537   3.109  0.5403 -3.6940 -2.0124
  164OSM    C2S18447   0.564   3.516   2.958 -0.1078 -0.2584 -0.1094
  164OSM    H2S18448   0.471   3.456   2.964 -0.4287  0.2120 -0.2722
  164OSM    C3S18449   0.677   3.433   2.879 -0.0230 -0.1240  0.1379
  164OSM    H3S18450   0.760   3.507   2.874 -0.5960  0.4711 -0.8299
  164OSM     O318451   0.645   3.401   2.747  0.4323 -0.0297 -0.1499
  164OSM    HO318452   0.578   3.464   2.720  0.1388 -1.3960 -2.9591
  164OSM    C4S18453   0.717   3.318   2.953  0.4403  0.9131  0.2196
  164OSM    H4S18454   0.636   3.244   2.948  0.4576  0.9932 -2.2734
  164OSM    C5S18455   0.834   3.286   3.013 -0.2536  0.4564 -0.4326
  164OSM    H5S18456   0.917   3.357   2.999  0.4940 -0.5092 -0.9289
  164OSM    C6S18457   0.857   3.162   3.090  0.3013 -0.6895  0.2588
  164OSM    H6S18458   0.956   3.125   3.054 -0.0896 -0.1788 -1.3744
  164OSM    H6T18459   0.787   3.077   3.074  0.7821 -1.3367  1.4106
  164OSM    C7S18460   0.868   3.194   3.242  0.7584 -0.1924 -0.0172
  164OSM    H7S18461   0.957   3.257   3.262  1.2092 -1.0360  0.7372
  164OSM    H7T18462   0.899   3.104   3.299  0.9133  0.6760  1.3145
  164OSM    C8S18463   0.732   3.246   3.301  0.2530  0.2608 -0.0890
  164OSM    H8S18464   0.640   3.205   3.256 -0.0248 -0.4066  1.0479
  164OSM    H8T18465   0.740   3.356   3.290  3.2246  0.6329  3.6539
  164OSM    C9S18466   0.737   3.204   3.453  0.3083  0.5346 -0.1566
  164OSM    H9S18467   0.840   3.196   3.494 -0.2532 -0.2778  1.1625
  164OSM    H9T18468   0.712   3.096   3.458  1.6547  0.2169  0.1248
  164OSM   C10S18469   0.654   3.289   3.547  0.0649  0.0697 -0.6057
  164OSM   H10S18470   0.550   3.277   3.511 -0.4098  1.3925  0.2311
  164OSM   H10T18471   0.680   3.397   3.540  5.2954 -0.7924  0.7211
  164OSM   C11S18472   0.679   3.253   3.695  0.6212  0.5900  0.2891
  164OSM   H11S18473   0.788   3.268   3.706  0.2733  3.1042  0.8852
  164OSM   H11T18474   0.655   3.148   3.724  1.7533  0.2861  0.1794
  164OSM   C12S18475   0.603   3.342   3.798  0.0687  0.7319  0.1098
  164OSM   H12S18476   0.504   3.366   3.755 -0.5275 -0.9709  0.4512
  164OSM   H12T18477   0.655   3.439   3.782 -1.1100  1.2708 -0.5496
  164OSM   C13S18478   0.600   3.303   3.943  0.0887 -0.6369 -0.6135
  164OSM   H13S18479   0.573   3.195   3.946  0.2153 -0.6766 -0.8396
  164OSM   H13T18480   0.522   3.358   3.999 -1.4588 -3.2016 -0.1035
  164OSM   C14S18481   0.737   3.320   4.009 -0.6864 -0.7057 -0.4382
  164OSM   H14S18482   0.743   3.429   4.028 -3.5299 -0.6200  0.4270
  164OSM   H14T18483   0.819   3.302   3.937  0.3637  1.2802  0.1908
  164OSM   C15S18484   0.751   3.258   4.148 -0.2372 -0.6562  0.5253
  164OSM   H15S18485   0.724   3.150   4.146 -0.9689 -0.6206 -4.7819
  164OSM   H15T18486   0.681   3.319   4.209 -0.8919 -1.2108  0.3418
  164OSM   C16S18487   0.894   3.270   4.191 -0.2553  0.7742  0.0641
  164OSM   H16S18488   0.924   3.376   4.210 -0.4739  0.9439 -0.5110
  164OSM   H16T18489   0.960   3.240   4.107 -1.2259 -0.7819 -0.1785
  164OSM   C17S18490   0.909   3.208   4.326 -0.0763  0.1974  0.3215
  164OSM   H17S18491   0.894   3.099   4.314  0.2390  0.4258 -3.1335
  164OSM   H17T18492   0.840   3.261   4.395  2.0034  2.2323  0.9575
  164OSM   C18S18493   1.053   3.231   4.381  0.0352 -0.1491  0.2594
  164OSM   H18S18494   1.125   3.173   4.319 -0.5904 -1.0890  0.3991
  164OSM   H18T18495   1.061   3.195   4.485 -0.4024  1.3012  0.8225
  164OSM   H18U18496   1.085   3.338   4.380 -0.6438  0.0712 -1.1501
  164OSM    C1F18497   0.516   3.593   3.186  0.0632 -0.6011  0.1951
  164OSM     OF18498   0.401   3.609   3.152  0.0862 -0.5717  0.2416
  164OSM    C2F18499   0.566   3.631   3.321  0.1845 -0.2372 -0.3513
  164OSM    H2F18500   0.631   3.721   3.323  1.0511 -0.8685  2.1018
  164OSM    H2G18501   0.634   3.548   3.349 -0.9389 -2.3396 -3.3159
  164OSM    C3F18502   0.450   3.662   3.424 -0.8277  0.1534 -0.0094
  164OSM    H3F18503   0.372   3.584   3.417 -0.2593 -0.4224 -0.0127
  164OSM    H3G18504   0.412   3.763   3.396  0.8790  0.2061 -2.4383
  164OSM    C4F18505   0.505   3.677   3.563 -0.2435  0.4512 -0.0778
  164OSM    H4F18506   0.575   3.763   3.569  0.9509 -0.5973  1.4345
  164OSM    H4G18507   0.559   3.588   3.601 -1.0306  0.3650  0.8829
  164OSM    C5F18508   0.395   3.708   3.664  0.1104  0.1806 -0.1369
  164OSM    H5F18509   0.323   3.624   3.659 -1.1365  0.9088  2.8333
  164OSM    H5G18510   0.344   3.801   3.633 -0.9875  0.1777  1.5117
  164OSM    C6F18511   0.434   3.722   3.813  0.0859 -0.4707  0.4706
  164OSM    H6F18512   0.498   3.812   3.814 -0.1208 -0.2409 -2.1389
  164OSM    H6G18513   0.506   3.648   3.853 -0.3202  0.4875  3.1975
  164OSM    C7F18514   0.318   3.743   3.908  0.0413 -0.6282 -0.6138
  164OSM    H7F18515   0.249   3.659   3.887 -2.5561  1.1724  0.1616
  164OSM    H7G18516   0.252   3.831   3.893 -1.3499 -1.7089 -1.0033
  164OSM    C8F18517   0.364   3.735   4.053  0.5945  0.3125  0.1202
  164OSM    H8F18518   0.409   3.835   4.073  1.1246 -0.2014  1.6371
  164OSM    H8G18519   0.439   3.658   4.084 -0.1105 -0.4844 -0.1106
  164OSM    C9F18520   0.245   3.724   4.144  0.5373  0.3944  0.0327
  164OSM    H9F18521   0.177   3.810   4.149 -0.7566 -0.6700  1.7477
  164OSM   C10F18522   0.200   3.612   4.219 -0.5247 -0.2460  0.2136
  164OSM   H10F18523   0.122   3.638   4.293  1.0257  2.6597  1.0089
  164OSM   C11F18524   0.254   3.473   4.228 -0.2542 -0.3860 -0.6054
  164OSM   H11F18525   0.314   3.444   4.139 -0.7653 -2.7507 -0.2605
  164OSM   H11G18526   0.170   3.402   4.245  0.8897 -1.8972 -1.0615
  164OSM   C12F18527   0.355   3.465   4.340  0.4738  0.3654  0.2342
  164OSM   H12F18528   0.304   3.484   4.437  0.4283 -1.1360  0.5299
  164OSM   H12G18529   0.433   3.544   4.327  0.7641  0.0748  0.1948
  164OSM   C13F18530   0.417   3.322   4.348  0.5234  0.0257 -0.7370
  164OSM   H13F18531   0.465   3.301   4.250  0.9268  1.1856 -0.8080
  164OSM   H13G18532   0.334   3.248   4.353 -1.6013  2.2405 -1.1004
  164OSM   C14F18533   0.513   3.300   4.461  0.0786 -0.2209 -0.1633
  164OSM   H14F18534   0.456   3.320   4.554 -1.3709  0.2459 -1.0978
  164OSM   H14G18535   0.585   3.384   4.455  0.4288 -0.6007 -2.2532
  164OSM   C15F18536   0.573   3.149   4.472 -0.1114 -0.1247  0.7418
  164OSM   H15F18537   0.631   3.118   4.383 -0.4011  0.1377  0.4559
  164OSM   H15G18538   0.492   3.074   4.487 -0.6719  0.4272  0.5351
  164OSM   C16F18539   0.669   3.134   4.588 -0.9295  0.0031  0.1532
  164OSM   H16F18540   0.620   3.178   4.678  0.2243  0.7087  0.4521
  164OSM   H16G18541   0.763   3.192   4.587 -0.9836  0.0914 -0.9929
  164OSM   C17F18542   0.717   2.992   4.632 -0.0344  0.1775 -0.0027
  164OSM   H17F18543   0.775   2.949   4.548 -0.0664  0.3318 -0.1026
  164OSM   H17G18544   0.627   2.930   4.650 -1.3714  1.5480 -1.6922
  164OSM   C18F18545   0.802   2.992   4.760 -0.6064 -0.9407 -0.3043
  164OSM   H18F18546   0.754   3.036   4.850  1.3790 -1.7165  1.2267
  164OSM   H18G18547   0.889   3.052   4.725 -1.1263 -0.0767 -0.1629
  164OSM   H18H18548   0.842   2.892   4.789  1.7640  0.0243  0.0147
  165SAPS     N18549   6.234   0.762   6.981  0.2775 -0.4156  0.5537
  165SAPS   HN118550   6.168   0.685   6.956  0.5910 -1.4409  2.6299
  165SAPS   HN218551   6.170   0.842   6.993  0.6174 -0.3225  1.8793
  165SAPS   HN318552   6.297   0.779   6.900 -0.1878 -0.3645  0.1955
  165SAPS   C1218553   6.314   0.741   7.098  0.2080 -0.3351  0.0231
  165SAPS  H12A18554   6.373   0.831   7.110 -2.4738  1.2821  2.3038
  165SAPS   C1318555   6.243   0.723   7.228 -0.0314  0.6536 -0.4560
  165SAPS  O13A18556   6.117   0.717   7.224 -0.3031  0.2240 -0.1079
  165SAPS  O13B18557   6.307   0.725   7.333 -0.0782  0.4141  0.1361
  165SAPS   C1118558   6.402   0.621   7.058 -0.0051  0.0520  0.4340
  165SAPS  H11A18559   6.330   0.539   7.037 -0.0753 -0.1900  1.5427
  165SAPS  H11B18560   6.474   0.596   7.139 -0.3623  2.4487  1.5785
  165SAPS     P18561   6.587   0.559   6.870 -0.2854 -0.1463 -0.0378
  165SAPS   O1318562   6.710   0.643   6.848 -0.2352  0.7468 -0.6189
  165SAPS   O1418563   6.604   0.429   6.938 -0.1019  0.1521  0.0060
  165SAPS   O1218564   6.482   0.652   6.941  0.1649 -0.9847  0.0843
  165SAPS   O1118565   6.512   0.538   6.734 -0.0931  0.3545 -0.0422
  165SAPS    C118566   6.377   0.484   6.727  0.1250 -0.5712 -0.0751
  165SAPS    HA18567   6.368   0.383   6.773 -0.0025 -0.6700 -0.3125
  165SAPS    HB18568   6.309   0.555   6.778  0.1337 -1.6247  1.4886
  165SAPS    C218569   6.329   0.457   6.581 -0.7153  0.0149  0.0849
  165SAPS    HS18570   6.379   0.362   6.552  0.8607  0.2405  1.8673
  165SAPS   O2118571   6.348   0.567   6.491 -0.4672  0.1257  0.1189
  165SAPS   C2118572   6.465   0.559   6.432  0.6608 -0.5939 -0.3655
  165SAPS   O2218573   6.546   0.465   6.428 -0.0805  0.1414 -0.1939
  165SAPS   C2218574   6.484   0.695   6.369  0.3599  0.4013  0.2404
  165SAPS   H2R18575   6.435   0.776   6.428 -3.1652  0.7990 -2.8242
  165SAPS   H2S18576   6.594   0.706   6.364  0.5981  1.0535  3.9757
  165SAPS    C318577   6.180   0.410   6.578 -0.5254 -0.0635 -0.5683
  165SAPS    HX18578   6.115   0.500   6.588  0.0155  0.2377  0.4491
  165SAPS    HY18579   6.164   0.353   6.672  0.0544  0.9695  0.1770
  165SAPS   O3118580   6.156   0.347   6.455 -0.3998 -0.4345 -0.1824
  165SAPS   C3118581   6.196   0.219   6.437  0.6966  0.1224 -0.0471
  165SAPS   O3218582   6.237   0.142   6.521 -0.3436 -0.4996 -0.3638
  165SAPS   C3218583   6.173   0.188   6.290 -0.6701 -0.6836 -0.1308
  165SAPS   H2X18584   6.223   0.265   6.228 -1.3987  0.5533  0.7877
  165SAPS   H2Y18585   6.064   0.180   6.272 -0.1947 -2.9143 -2.8616
  165SAPS   C2318586   6.414   0.698   6.231 -0.1311 -0.1530  0.4412
  165SAPS   H3R18587   6.456   0.613   6.173 -1.1000 -0.0225 -0.4861
  165SAPS   H3S18588   6.435   0.797   6.183  1.6606 -0.4698  0.5181
  165SAPS   C2418589   6.259   0.685   6.219 -0.0396 -0.1011 -0.5004
  165SAPS   H4R18590   6.245   0.582   6.258  1.8528 -0.5886 -0.9960
  165SAPS   H4S18591   6.237   0.679   6.110  1.1464  1.2683 -0.8469
  165SAPS   C2518592   6.184   0.788   6.297 -0.0328 -0.4082  0.4525
  165SAPS   H5R18593   6.204   0.790   6.405  0.2270 -1.4003  0.4286
  165SAPS   C2618594   6.108   0.875   6.242  0.3786  0.3445  0.4224
  165SAPS   H6R18595   6.063   0.947   6.312  1.4963  1.0881  0.4027
  165SAPS   C2718596   6.073   0.897   6.100 -0.2106 -0.1925 -0.5130
  165SAPS   H7R18597   6.032   0.799   6.067 -2.2219 -0.3766  2.1310
  165SAPS   H7S18598   6.155   0.927   6.032  0.2226 -0.4219 -0.0925
  165SAPS   C2818599   5.948   0.978   6.062  0.2190 -0.1151 -0.9015
  165SAPS   H8R18600   5.871   0.975   6.140 -0.5570 -0.3412 -1.6711
  165SAPS   C2918601   5.936   1.040   5.940  0.3817  0.1582  0.7407
  165SAPS   H9R18602   5.840   1.091   5.924  0.2596  0.1502  1.3996
  165SAPS  C21018603   6.023   1.042   5.819  0.1667  0.0643  0.0544
  165SAPS  H10R18604   6.119   0.989   5.837 -1.6351 -3.0104  1.2563
  165SAPS  H10S18605   6.039   1.149   5.791 -1.4547  0.1027 -0.8191
  165SAPS  C21118606   5.963   0.961   5.707  0.3347 -0.0077 -0.5877
  165SAPS  H11R18607   5.944   0.857   5.739 -0.7681  0.1583 -0.6702
  165SAPS  C21218608   5.959   0.990   5.571 -0.1572 -0.2705  0.1954
  165SAPS  H12R18609   5.904   0.934   5.494  0.2795  1.6893 -1.6273
  165SAPS  C21318610   6.014   1.116   5.498 -0.7320 -0.0188 -0.3574
  165SAPS  H13R18611   6.063   1.189   5.566 -0.9119 -0.8698  0.7095
  165SAPS  H13S18612   5.924   1.160   5.450 -0.7168 -0.8976 -1.2083
  165SAPS  C21418613   6.125   1.092   5.394  0.0563 -0.5039 -0.0887
  165SAPS  H14R18614   6.229   1.090   5.429  0.2446  0.3782 -0.5788
  165SAPS  C21518615   6.111   1.100   5.260 -0.1029  0.4010  0.1140
  165SAPS  H15R18616   6.194   1.064   5.198 -0.4467  0.3219 -0.3075
  165SAPS  C21618617   5.974   1.115   5.198 -0.5297 -0.1706  0.6378
  165SAPS  H16R18618   5.943   1.220   5.214  1.0042  0.2450  1.0457
  165SAPS  H16S18619   5.898   1.048   5.243  0.1162 -1.2589  0.1607
  165SAPS  C21718620   5.983   1.091   5.050 -0.0602 -0.8896  0.4604
  165SAPS  H17R18621   6.066   1.137   4.992 -1.4786 -0.8368 -1.6137
  165SAPS  H17S18622   5.891   1.128   5.001 -0.8555 -2.8133  0.4286
  165SAPS  C21818623   5.979   0.948   5.002  0.6645  0.3324  0.3397
  165SAPS  H18R18624   5.909   0.882   5.057  1.3710 -0.7125  0.0230
  165SAPS  H18S18625   6.067   0.885   5.030 -0.7664 -2.2444 -0.6237
  165SAPS  C21918626   5.963   0.935   4.845 -0.9521  0.2509  0.0476
  165SAPS  H19R18627   6.045   0.985   4.788 -2.7613  1.7440 -1.3927
  165SAPS  H19S18628   5.871   0.981   4.805 -0.2456 -0.4826 -2.6348
  165SAPS  C22018629   5.969   0.783   4.820 -0.0351  0.6353  0.1817
  165SAPS  H20R18630   5.962   0.761   4.712 -0.9957  0.8408  0.1994
  165SAPS  H20S18631   5.890   0.731   4.878  0.6886  0.7016  1.2687
  165SAPS  H20T18632   6.064   0.735   4.853  0.7103  1.5652 -0.5512
  165SAPS   C3318633   6.230   0.053   6.241 -0.1338  0.6991 -0.0564
  165SAPS   H3X18634   6.161  -0.031   6.266 -0.3239  0.5208 -1.1297
  165SAPS   H3Y18635   6.325   0.027   6.291  0.0114 -0.5463 -0.9277
  165SAPS   C3418636   6.272   0.058   6.095 -0.1773  0.1939  0.6902
  165SAPS   H4X18637   6.350   0.137   6.083  0.3183 -0.7107 -4.1513
  165SAPS   H4Y18638   6.177   0.088   6.045 -1.1886 -1.0821  1.7783
  165SAPS   C3518639   6.312  -0.076   6.038 -0.1165 -0.1752 -0.5245
  165SAPS   H5X18640   6.217  -0.133   6.028  0.2911 -0.7617 -1.0859
  165SAPS   H5Y18641   6.372  -0.132   6.112 -0.4563 -0.2932 -0.3368
  165SAPS   C3618642   6.379  -0.068   5.904 -0.3897  0.5525 -0.8991
  165SAPS   H6X18643   6.366  -0.169   5.859  0.7796 -1.0285  2.0021
  165SAPS   H6Y18644   6.487  -0.042   5.912 -0.5170  0.6114  1.9676
  165SAPS   C3718645   6.322   0.036   5.806  0.1536 -0.2075  0.4826
  165SAPS   H7X18646   6.361   0.134   5.842 -0.6251 -0.8334  3.3429
  165SAPS   H7Y18647   6.212   0.042   5.820  0.2187  2.6760  0.2885
  165SAPS   C3818648   6.371   0.010   5.668  0.0190 -0.1124 -0.1193
  165SAPS   H8X18649   6.348  -0.082   5.610 -0.9499  1.0705 -1.6967
  165SAPS   H8Y18650   6.481   0.027   5.673  0.2992 -1.8387  0.4664
  165SAPS   C3918651   6.328   0.126   5.569  0.2568 -0.1405 -0.1242
  165SAPS   H9X18652   6.374   0.222   5.599  2.7978 -1.3378  0.0057
  165SAPS   H9Y18653   6.217   0.133   5.574  0.3690  1.8881  0.3933
  165SAPS  C31018654   6.359   0.116   5.417 -0.1541  0.2151  0.2019
  165SAPS  H10X18655   6.469   0.111   5.406 -0.1837  1.6393 -1.1119
  165SAPS  H10Y18656   6.332   0.216   5.376 -1.4594  1.3903  3.5938
  165SAPS  C31118657   6.284   0.009   5.333 -0.4003 -0.5708 -0.6943
  165SAPS  H11X18658   6.180   0.041   5.357  0.6365  3.3451 -0.6798
  165SAPS  H11Y18659   6.304  -0.092   5.375  2.8803  1.1624  2.4928
  165SAPS  C31218660   6.317   0.024   5.185  0.1983  0.5879 -0.2093
  165SAPS  H12X18661   6.413  -0.024   5.158 -0.0486  0.4506 -0.8476
  165SAPS  H12Y18662   6.330   0.132   5.163  1.1339  0.6494  0.6012
  165SAPS  C31318663   6.212  -0.031   5.086  1.0583  0.7965 -0.1195
  165SAPS  H13X18664   6.186  -0.135   5.114 -3.6962  1.9090  0.5568
  165SAPS  H13Y18665   6.251  -0.036   4.982 -0.8598 -0.1856 -0.8433
  165SAPS  C31418666   6.084   0.060   5.075 -1.3340 -0.4788 -0.3440
  165SAPS  H14X18667   6.126   0.161   5.058  1.2650 -1.5781 -0.9546
  165SAPS  H14Y18668   6.034   0.066   5.174  1.0205 -0.7597  0.9342
  165SAPS  C31518669   5.991   0.028   4.956 -0.2203 -0.1023 -0.4131
  165SAPS  H15X18670   5.889   0.066   4.978  0.2748  2.2010 -1.8247
  165SAPS  H15Y18671   5.974  -0.082   4.960 -0.3053 -0.1066 -0.9534
  165SAPS  C31618672   6.043   0.084   4.823  0.6615  0.8195 -0.3463
  165SAPS  H16X18673   6.145   0.049   4.799  1.2914  1.4746  1.2705
  165SAPS  H16Y18674   6.048   0.195   4.825 -0.7320  0.9662 -2.1923
  165SAPS  C31718675   5.967   0.053   4.702 -0.3668 -0.2434 -0.1210
  165SAPS  H17X18676   6.032   0.083   4.617 -1.7054  0.1969 -1.0150
  165SAPS  H17Y18677   5.871   0.110   4.702 -0.1243  0.2027 -1.7833
  165SAPS  C31818678   5.927  -0.089   4.688  0.6315  0.3836 -0.3662
  165SAPS  H18X18679   5.858  -0.095   4.601 -4.7710  0.5271  3.4032
  165SAPS  H18Y18680   5.855  -0.111   4.769 -0.6029  1.9983 -0.9575
  165SAPS  H18Z18681   6.012  -0.160   4.692 -0.7416 -1.2382  1.5624
  166SAPS     N18682   0.710   2.343   7.185 -0.2144  0.1297 -0.0777
  166SAPS   HN118683   0.657   2.306   7.104 -2.9696  0.3363  1.5112
  166SAPS   HN218684   0.649   2.358   7.268 -0.1158  2.6450 -0.3909
  166SAPS   HN318685   0.752   2.436   7.167 -1.3155  0.5667 -0.4621
  166SAPS   C1218686   0.816   2.244   7.222 -0.6505  0.7326  0.1915
  166SAPS  H12A18687   0.851   2.273   7.320 -0.2910  0.4746  0.1412
  166SAPS   C1318688   0.784   2.097   7.252 -0.1539 -0.5233 -0.1741
  166SAPS  O13A18689   0.683   2.043   7.196 -0.0591 -0.5596  0.8785
  166SAPS  O13B18690   0.864   2.023   7.318 -0.0669 -0.3254  0.3520
  166SAPS   C1118691   0.927   2.248   7.120  0.0284 -0.4220 -0.1352
  166SAPS  H11A18692   0.912   2.185   7.029  1.3692 -0.0990 -0.6021
  166SAPS  H11B18693   1.015   2.204   7.172  0.3039 -0.0690 -0.2991
  166SAPS     P18694   1.058   2.400   6.958 -0.0247  0.0027  0.6123
  166SAPS   O1318695   1.095   2.544   6.942 -0.8486  0.5095 -0.1951
  166SAPS   O1418696   1.168   2.304   6.979  0.0658  0.0345  0.1907
  166SAPS   O1218697   0.955   2.384   7.085 -0.2741 -0.4099  0.4030
  166SAPS   O1118698   0.965   2.354   6.834 -0.5194  0.4539  0.4884
  166SAPS    C118699   0.835   2.414   6.804  0.0436  0.2194  0.6536
  166SAPS    HA18700   0.760   2.333   6.793 -2.2618  2.3737 -0.3609
  166SAPS    HB18701   0.799   2.482   6.884  2.0216  1.7987  0.2884
  166SAPS    C218702   0.815   2.487   6.660 -0.6051 -0.0264  0.1327
  166SAPS    HS18703   0.821   2.401   6.590  0.7060 -3.4141  4.0216
  166SAPS   O2118704   0.925   2.579   6.642  1.3397 -0.2241  0.2392
  166SAPS   C2118705   0.965   2.595   6.512 -0.2281  0.9625 -0.0593
  166SAPS   O2218706   0.923   2.530   6.420 -0.0485  0.4449 -0.2903
  166SAPS   C2218707   1.065   2.710   6.502  0.9189  0.2647 -0.3135
  166SAPS   H2R18708   1.016   2.807   6.526  0.2115  0.7319 -3.1603
  166SAPS   H2S18709   1.151   2.699   6.571  0.5663  1.1399  0.2834
  166SAPS    C318710   0.682   2.564   6.647  1.4683 -0.0010  0.3999
  166SAPS    HX18711   0.676   2.639   6.729  1.9150  2.3242 -1.5724
  166SAPS    HY18712   0.598   2.491   6.649  1.5699 -0.1453 -0.3660
  166SAPS   O3118713   0.667   2.647   6.527 -0.1393 -0.4237 -0.1419
  166SAPS   C3118714   0.609   2.587   6.421  0.6150  0.4428 -0.3739
  166SAPS   O3218715   0.575   2.469   6.427  1.1538 -0.2645 -0.7149
  166SAPS   C3218716   0.592   2.682   6.305  0.2512  0.6061  0.2888
  166SAPS   H2X18717   0.684   2.678   6.244  0.0986  0.5448  0.0626
  166SAPS   H2Y18718   0.584   2.785   6.346  2.7394  0.6142  0.9342
  166SAPS   C2318719   1.134   2.719   6.360 -0.8098 -0.0827  0.3720
  166SAPS   H3R18720   1.184   2.621   6.343 -2.1490 -1.4979  3.7381
  166SAPS   H3S18721   1.215   2.794   6.375  0.1350 -1.0105  0.0588
  166SAPS   C2418722   1.050   2.769   6.236 -0.3963 -0.4058 -0.2980
  166SAPS   H4R18723   0.967   2.831   6.277  0.2276 -0.4372  1.0867
  166SAPS   H4S18724   1.003   2.673   6.206 -1.8048 -0.7463  2.5958
  166SAPS   C2518725   1.125   2.845   6.133 -0.4267 -0.0945 -0.7424
  166SAPS   H5R18726   1.215   2.889   6.179  0.2791  0.2733 -2.4039
  166SAPS   C2618727   1.102   2.846   6.002  0.0507 -0.1229 -0.3298
  166SAPS   H6R18728   1.162   2.915   5.941 -0.8138 -0.0028 -1.0548
  166SAPS   C2718729   0.997   2.780   5.918  0.3999  0.1106  0.4361
  166SAPS   H7R18730   0.923   2.723   5.978 -0.2972 -0.7912 -1.1947
  166SAPS   H7S18731   1.038   2.711   5.841  1.9704  0.1130  1.2355
  166SAPS   C2818732   0.922   2.898   5.854 -0.5544 -0.2635  0.0967
  166SAPS   H8R18733   0.885   2.973   5.925  0.8328 -1.2675  1.9409
  166SAPS   C2918734   0.914   2.926   5.723 -0.2892  0.2579 -0.5877
  166SAPS   H9R18735   0.861   3.019   5.697  0.4051  0.9681  0.4255
  166SAPS  C21018736   0.969   2.841   5.612 -0.2638 -0.4804  0.2423
  166SAPS  H10R18737   0.896   2.857   5.530 -1.6686 -1.3197  1.2688
  166SAPS  H10S18738   0.958   2.733   5.633  1.0148 -1.3414 -3.0012
  166SAPS  C21118739   1.111   2.868   5.569 -0.0196 -0.4327 -0.4376
  166SAPS  H11R18740   1.178   2.894   5.652 -0.0393 -0.7059 -0.3366
  166SAPS  C21218741   1.157   2.877   5.440  0.7949  0.4611 -0.3852
  166SAPS  H12R18742   1.264   2.897   5.423  0.6275  1.5304 -0.2601
  166SAPS  C21318743   1.083   2.879   5.308 -0.1849  0.0122 -0.2959
  166SAPS  H13R18744   1.145   2.936   5.236 -1.9659  1.4961 -0.7602
  166SAPS  H13S18745   0.999   2.952   5.315 -0.9293 -0.6856 -1.5072
  166SAPS  C21418746   1.030   2.760   5.243  0.5742  0.4886 -0.8793
  166SAPS  H14R18747   0.984   2.698   5.322  1.0924  0.8645 -0.2619
  166SAPS  C21518748   1.020   2.714   5.118 -1.2263 -0.5070  0.5204
  166SAPS  H15R18749   0.981   2.611   5.110 -0.9894 -0.4636 -2.6859
  166SAPS  C21618750   1.065   2.794   4.994 -0.0537  0.3767  0.3777
  166SAPS  H16R18751   1.046   2.903   5.005  2.8088  0.8723  1.0260
  166SAPS  H16S18752   1.016   2.752   4.903 -0.5378  4.2037 -1.3395
  166SAPS  C21718753   1.217   2.785   4.979  0.0471  0.2081  0.8321
  166SAPS  H17R18754   1.281   2.820   5.063  0.6768 -0.6817  0.7361
  166SAPS  H17S18755   1.236   2.861   4.899  1.0808  0.5093  1.3437
  166SAPS  C21818756   1.262   2.649   4.924 -0.1732  0.0103  0.4146
  166SAPS  H18R18757   1.188   2.614   4.848 -0.5647  1.2985  0.1821
  166SAPS  H18S18758   1.264   2.586   5.015  0.1284  0.2136  0.5488
  166SAPS  C21918759   1.403   2.647   4.857  0.3379 -0.3187 -0.3535
  166SAPS  H19R18760   1.454   2.558   4.898  0.3395  0.1954  0.8127
  166SAPS  H19S18761   1.456   2.739   4.892  0.8560 -0.3111 -1.1213
  166SAPS  C22018762   1.398   2.646   4.708  0.6795 -0.2253 -0.6030
  166SAPS  H20R18763   1.336   2.561   4.672  0.5680  0.2303 -1.5003
  166SAPS  H20S18764   1.504   2.637   4.676  1.2685 -0.5288  1.2729
  166SAPS  H20T18765   1.349   2.737   4.668 -0.1792  0.1816  1.2415
  166SAPS   C3318766   0.470   2.645   6.208 -0.3089 -0.3570 -0.0052
  166SAPS   H3X18767   0.380   2.671   6.268  0.2691  0.0391  0.7012
  166SAPS   H3Y18768   0.469   2.534   6.205  1.0954 -0.4119  0.8311
  166SAPS   C3418769   0.477   2.719   6.072 -0.1055  0.3838 -0.8400
  166SAPS   H4X18770   0.522   2.820   6.086  0.2852 -0.0671  1.5039
  166SAPS   H4Y18771   0.370   2.727   6.040 -0.0448 -0.0022 -1.1486
  166SAPS   C3518772   0.538   2.635   5.966 -0.3497  0.3304  0.0080
  166SAPS   H5X18773   0.515   2.526   5.971 -0.4522  0.3127 -0.7277
  166SAPS   H5Y18774   0.648   2.637   5.980 -0.0180 -1.3600 -1.8325
  166SAPS   C3618775   0.501   2.688   5.824  0.3519  0.2290  0.4856
  166SAPS   H6X18776   0.507   2.797   5.844  0.8471  0.0781  1.2084
  166SAPS   H6Y18777   0.398   2.652   5.804  0.7512 -0.7994  0.2007
  166SAPS   C3718778   0.591   2.632   5.711  0.6793 -0.2972 -0.6088
  166SAPS   H7X18779   0.579   2.522   5.720  2.2945 -0.3762  1.2756
  166SAPS   H7Y18780   0.699   2.658   5.724  0.0112  2.0354  1.1182
  166SAPS   C3818781   0.555   2.684   5.573 -0.5546  0.0866  0.1398
  166SAPS   H8X18782   0.563   2.794   5.578 -0.1999  0.0038  2.1599
  166SAPS   H8Y18783   0.448   2.658   5.553  0.1779 -4.8849  1.2728
  166SAPS   C3918784   0.646   2.655   5.457 -0.7111 -0.0004  0.4840
  166SAPS   H9X18785   0.600   2.564   5.413 -4.8932  1.1655  1.9880
  166SAPS   H9Y18786   0.753   2.644   5.486 -0.5282  0.5897  0.0421
  166SAPS  C31018787   0.649   2.764   5.345  0.2493  0.1386  0.6796
  166SAPS  H10X18788   0.721   2.751   5.261  1.1266  1.9319  1.1059
  166SAPS  H10Y18789   0.691   2.857   5.390 -0.5634 -0.1980  2.1576
  166SAPS  C31118790   0.515   2.797   5.272  1.0586  0.0086  0.3696
  166SAPS  H11X18791   0.439   2.815   5.352  0.8169  0.0729  0.1279
  166SAPS  H11Y18792   0.474   2.714   5.211 -1.1158  0.7222  0.7435
  166SAPS  C31218793   0.523   2.928   5.185  0.0206 -0.4633 -0.3577
  166SAPS  H12X18794   0.440   2.923   5.112  1.3088 -0.4045 -1.8885
  166SAPS  H12Y18795   0.618   2.939   5.129 -0.1695  0.6755 -0.4848
  166SAPS  C31318796   0.520   3.056   5.277 -0.3902 -0.2541  0.5974
  166SAPS  H13X18797   0.594   3.051   5.360  0.0967  0.1989  0.2021
  166SAPS  H13Y18798   0.424   3.054   5.332  0.0120 -1.9514  1.3032
  166SAPS  C31418799   0.544   3.194   5.205  0.6502  0.3947 -0.4322
  166SAPS  H14X18800   0.524   3.278   5.274 -1.1740 -1.6866  1.7334
  166SAPS  H14Y18801   0.491   3.193   5.107 -0.4655  0.2308  0.1681
  166SAPS  C31518802   0.694   3.205   5.172 -0.2079  0.3744 -0.0955
  166SAPS  H15X18803   0.701   3.150   5.076  0.5552 -0.1724  0.2667
  166SAPS  H15Y18804   0.752   3.158   5.254 -1.3144 -1.1252 -0.1481
  166SAPS  C31618805   0.745   3.342   5.145 -0.0735  0.0904 -0.4122
  166SAPS  H16X18806   0.842   3.331   5.093 -0.0674  0.6831 -0.5322
  166SAPS  H16Y18807   0.770   3.390   5.242  0.3495 -0.3173 -0.3150
  166SAPS  C31718808   0.655   3.423   5.049  0.3746 -0.7221 -0.0423
  166SAPS  H17X18809   0.698   3.524   5.033 -1.6422 -0.1691 -2.6576
  166SAPS  H17Y18810   0.549   3.431   5.082  0.6789 -3.0061  1.7328
  166SAPS  C31818811   0.640   3.377   4.895 -0.0664  0.3464 -0.5978
  166SAPS  H18X18812   0.591   3.451   4.829  1.8385  3.1018  0.8705
  166SAPS  H18Y18813   0.584   3.281   4.893 -1.6738  1.2347  0.0171
  166SAPS  H18Z18814   0.737   3.353   4.848 -0.3109 -0.9951 -0.4723
  167SAPS     N18815   4.303   1.987   7.237 -0.1945  0.2301  0.3470
  167SAPS   HN118816   4.212   1.940   7.220 -0.9548  0.5769  3.0124
  167SAPS   HN218817   4.375   1.925   7.279 -0.5315 -0.3259  0.1112
  167SAPS   HN318818   4.286   2.060   7.309  1.4472  1.4572 -0.4580
  167SAPS   C1218819   4.344   2.061   7.115 -0.1834 -0.2657 -0.0333
  167SAPS  H12A18820   4.255   2.106   7.074  1.0224  2.5059  0.2063
  167SAPS   C1318821   4.446   2.177   7.142 -0.3017 -0.8435 -0.2661
  167SAPS  O13A18822   4.495   2.201   7.258  0.2588  0.2674  0.1257
  167SAPS  O13B18823   4.476   2.251   7.045  1.1095 -0.2449  0.4596
  167SAPS   C1118824   4.403   1.955   7.015  0.4367  0.3610  0.4108
  167SAPS  H11A18825   4.438   2.006   6.922  1.6773  1.9395  1.7032
  167SAPS  H11B18826   4.322   1.886   6.983  0.3613 -0.0174  1.3981
  167SAPS     P18827   4.567   1.753   7.012 -0.0088 -0.0262 -0.0183
  167SAPS   O1318828   4.714   1.733   7.032  0.1319 -0.2738  0.1143
  167SAPS   O1418829   4.474   1.652   7.062 -0.0937  0.3820 -0.0093
  167SAPS   O1218830   4.517   1.888   7.064  0.4215 -0.1594  0.0519
  167SAPS   O1118831   4.544   1.770   6.863  0.6966  0.2234  0.0407
  167SAPS    C118832   4.641   1.771   6.759 -0.0798  0.6337 -0.2305
  167SAPS    HA18833   4.742   1.746   6.797 -0.7661  0.7533  1.7771
  167SAPS    HB18834   4.607   1.696   6.684  0.2242 -0.0576  0.3055
  167SAPS    C218835   4.661   1.911   6.689 -0.7139  0.6358 -0.4830
  167SAPS    HS18836   4.682   1.973   6.778  2.0845 -2.7459  1.4382
  167SAPS   O2118837   4.543   1.950   6.622 -0.7028  0.1317  0.9017
  167SAPS   C2118838   4.546   2.078   6.603  0.6117 -0.0697 -0.0118
  167SAPS   O2218839   4.622   2.161   6.650 -0.0328  0.7076  0.5577
  167SAPS   C2218840   4.426   2.123   6.517 -0.2635  0.3006  0.2350
  167SAPS   H2R18841   4.397   2.036   6.454  3.2573 -0.8650 -0.0089
  167SAPS   H2S18842   4.343   2.158   6.583 -0.7096 -0.5978  0.1700
  167SAPS    C318843   4.777   1.900   6.584 -0.7239  0.3029 -0.4463
  167SAPS    HX18844   4.873   1.874   6.634 -0.7236 -2.9553 -1.9056
  167SAPS    HY18845   4.799   2.004   6.550  1.5281 -0.2928 -0.9757
  167SAPS   O3118846   4.747   1.801   6.474 -0.2495  0.4024 -0.2752
  167SAPS   C3118847   4.827   1.827   6.368 -0.0820  0.7816  0.3304
  167SAPS   O3218848   4.913   1.910   6.358  0.4479 -0.1426 -0.5347
  167SAPS   C3218849   4.788   1.725   6.254 -0.5367  0.3029  0.3731
  167SAPS   H2X18850   4.678   1.715   6.267 -0.5435  0.9091  0.7977
  167SAPS   H2Y18851   4.841   1.628   6.269  2.1899  1.1273 -2.8369
  167SAPS   C2318852   4.458   2.240   6.420 -0.2655 -0.5266  0.0182
  167SAPS   H3R18853   4.539   2.308   6.454 -0.3085  0.5061 -1.7806
  167SAPS   H3S18854   4.378   2.307   6.383  0.2150 -1.2888 -2.6208
  167SAPS   C2418855   4.532   2.172   6.299  0.2165  0.0281 -0.1721
  167SAPS   H4R18856   4.467   2.086   6.272 -0.1034 -0.4587  1.9322
  167SAPS   H4S18857   4.629   2.134   6.337 -0.0082 -1.1477 -0.7297
  167SAPS   C2518858   4.552   2.271   6.188 -0.0367  1.2776 -0.4023
  167SAPS   H5R18859   4.512   2.372   6.210  0.9993  1.7193 -0.5080
  167SAPS   C2618860   4.576   2.241   6.056  0.3715  0.0078  0.3503
  167SAPS   H6R18861   4.601   2.323   5.987  2.8267 -1.0601 -0.1420
  167SAPS   C2718862   4.633   2.116   6.003 -0.0857  0.3013  0.0738
  167SAPS   H7R18863   4.633   2.039   6.084  0.3351 -0.1297 -0.3318
  167SAPS   H7S18864   4.739   2.127   5.972 -0.3200  2.0032 -0.1752
  167SAPS   C2818865   4.554   2.073   5.882 -0.2508  0.2982  0.0914
  167SAPS   H8R18866   4.452   2.032   5.888 -0.1800 -0.1523 -1.4393
  167SAPS   C2918867   4.604   2.071   5.754  0.1391  0.2563 -0.1362
  167SAPS   H9R18868   4.540   2.035   5.673 -0.4867  1.2709 -0.1149
  167SAPS  C21018869   4.743   2.111   5.697  0.3690  0.1964 -0.2594
  167SAPS  H10R18870   4.812   2.024   5.689 -0.0928 -0.4916  2.2298
  167SAPS  H10S18871   4.791   2.174   5.775  0.5537  0.1743 -0.3552
  167SAPS  C21118872   4.720   2.199   5.570 -0.3712  0.8365 -0.9774
  167SAPS  H11R18873   4.711   2.307   5.591 -0.8701  0.3445  1.7378
  167SAPS  C21218874   4.713   2.158   5.441  0.4887  0.3275  0.3918
  167SAPS  H12R18875   4.704   2.231   5.358 -3.2919  0.4983  0.7926
  167SAPS  C21318876   4.736   2.019   5.389  0.2722 -0.6807  0.8068
  167SAPS  H13R18877   4.664   2.010   5.305  2.1444 -1.9006 -0.7547
  167SAPS  H13S18878   4.702   1.946   5.465  0.5324 -2.5977 -0.8221
  167SAPS  C21418879   4.871   1.974   5.353  0.3041 -0.6265  0.6580
  167SAPS  H14R18880   4.951   1.996   5.425  1.1534 -3.0330  0.5309
  167SAPS  C21518881   4.901   1.908   5.239 -0.6860  0.5593  1.0254
  167SAPS  H15R18882   5.005   1.876   5.226 -0.9225 -0.1559  0.8012
  167SAPS  C21618883   4.813   1.859   5.124 -0.4887  0.2604  0.3644
  167SAPS  H16R18884   4.705   1.860   5.154 -0.7092  0.6548 -0.4283
  167SAPS  H16S18885   4.831   1.753   5.098  1.5225  0.1827  1.8465
  167SAPS  C21718886   4.810   1.947   5.005 -0.8048  0.4949  0.2158
  167SAPS  H17R18887   4.910   1.948   4.956 -0.2774  1.3017  1.2653
  167SAPS  H17S18888   4.787   2.054   5.027  1.3714  1.2503 -0.8846
  167SAPS  C21818889   4.712   1.903   4.895 -0.6428  0.1625  0.0268
  167SAPS  H18R18890   4.605   1.921   4.919 -0.0316  1.6883  1.8755
  167SAPS  H18S18891   4.713   1.793   4.879 -3.1365  0.2257 -1.1181
  167SAPS  C21918892   4.744   1.972   4.766  0.0889 -0.3892  0.2025
  167SAPS  H19R18893   4.853   1.964   4.742 -0.0874 -0.3563 -0.6376
  167SAPS  H19S18894   4.743   2.080   4.792  0.3462 -0.3526  0.0695
  167SAPS  C22018895   4.663   1.918   4.642  0.8295 -0.5331 -0.5107
  167SAPS  H20R18896   4.556   1.944   4.651  1.6655  3.3703  0.0250
  167SAPS  H20S18897   4.687   1.813   4.616  0.5610 -0.6189 -0.4035
  167SAPS  H20T18898   4.700   1.977   4.555  0.9347 -0.3817 -0.3638
  167SAPS   C3318899   4.820   1.776   6.116  0.0067 -0.0272  0.9716
  167SAPS   H3X18900   4.923   1.818   6.110 -0.0059 -0.1804 -0.7568
  167SAPS   H3Y18901   4.763   1.869   6.094  1.7241  0.5136 -1.5482
  167SAPS   C3418902   4.794   1.672   6.006 -0.3605  0.0626 -0.5928
  167SAPS   H4X18903   4.687   1.641   6.003 -0.5500  0.1161  2.2389
  167SAPS   H4Y18904   4.840   1.574   6.033 -1.9358 -0.1830  1.5071
  167SAPS   C3518905   4.847   1.711   5.869 -0.5975  0.7264 -0.1050
  167SAPS   H5X18906   4.958   1.711   5.864 -0.5286  0.2914  0.9847
  167SAPS   H5Y18907   4.815   1.813   5.840 -1.7815 -0.0026 -1.4770
  167SAPS   C3618908   4.799   1.599   5.774  0.3634  0.0681  0.2894
  167SAPS   H6X18909   4.689   1.617   5.769  0.0875 -1.2690  1.1021
  167SAPS   H6Y18910   4.818   1.495   5.807 -0.1828 -0.6903 -1.6645
  167SAPS   C3718911   4.852   1.618   5.627 -0.2081 -0.2044  0.0875
  167SAPS   H7X18912   4.962   1.601   5.629 -0.2305 -0.2827  1.3640
  167SAPS   H7Y18913   4.840   1.726   5.603  1.2071  0.6247  2.7249
  167SAPS   C3818914   4.786   1.527   5.521  0.4411 -0.3291 -0.5908
  167SAPS   H8X18915   4.676   1.537   5.520  0.5915  1.6018 -1.1678
  167SAPS   H8Y18916   4.806   1.420   5.544  0.4241 -0.2091 -0.0013
  167SAPS   C3918917   4.827   1.577   5.381 -1.1609 -0.2611  0.7475
  167SAPS   H9X18918   4.938   1.581   5.374 -1.1109 -2.5611 -1.3799
  167SAPS   H9Y18919   4.797   1.684   5.377 -2.8290 -0.6506  1.8848
  167SAPS  C31018920   4.769   1.493   5.270  0.1864  0.3716 -0.1788
  167SAPS  H10X18921   4.783   1.547   5.174 -0.9592 -0.7959 -1.0489
  167SAPS  H10Y18922   4.659   1.480   5.274  0.2357  0.0768  3.6967
  167SAPS  C31118923   4.848   1.361   5.245 -0.4056  0.0935  0.5755
  167SAPS  H11X18924   4.850   1.289   5.329  0.8259  1.5757  1.8771
  167SAPS  H11Y18925   4.950   1.395   5.217 -0.0597 -0.7331  0.7913
  167SAPS  C31218926   4.791   1.285   5.117  0.3419 -0.2652 -0.3509
  167SAPS  H12X18927   4.776   1.366   5.042  2.9098  1.1447  0.5553
  167SAPS  H12Y18928   4.694   1.236   5.140 -0.9685  2.0922 -0.4695
  167SAPS  C31318929   4.879   1.183   5.058 -0.2711  0.6077  0.5529
  167SAPS  H13X18930   4.892   1.102   5.132  1.1719 -1.2639 -1.6085
  167SAPS  H13Y18931   4.979   1.230   5.050 -0.5378  1.1714  0.4947
  167SAPS  C31418932   4.835   1.117   4.922  0.0991  0.3392  0.0384
  167SAPS  H14X18933   4.920   1.055   4.888  0.3910  0.3046  0.8284
  167SAPS  H14Y18934   4.832   1.194   4.841  2.2115 -0.0781 -0.4925
  167SAPS  C31518935   4.705   1.027   4.920 -0.1730 -0.1747 -0.5049
  167SAPS  H15X18936   4.622   1.096   4.946  0.2318  0.1653 -0.0866
  167SAPS  H15Y18937   4.714   0.952   5.002  1.0233  0.1679 -0.3035
  167SAPS  C31618938   4.672   0.957   4.792 -0.2149 -0.5078  0.4990
  167SAPS  H16X18939   4.721   0.858   4.793  2.0028  0.5110 -0.5328
  167SAPS  H16Y18940   4.727   1.009   4.710  0.4728 -2.5210 -0.3988
  167SAPS  C31718941   4.525   0.932   4.757  0.7265  0.6017 -0.2329
  167SAPS  H17X18942   4.513   0.896   4.652 -1.1808  0.7474 -0.1002
  167SAPS  H17Y18943   4.473   1.030   4.752 -1.4378 -0.3674  1.3231
  167SAPS  C31818944   4.444   0.859   4.867 -0.8443 -0.8480  0.9179
  167SAPS  H18X18945   4.491   0.767   4.907 -0.4314 -2.4444 -2.8293
  167SAPS  H18Y18946   4.342   0.839   4.826 -0.2834 -0.2473 -0.8791
  167SAPS  H18Z18947   4.443   0.928   4.954 -1.2859 -1.5217  1.4606
  168SAPS     N18948   3.967   0.213   6.940 -0.1763  0.6596  0.4540
  168SAPS   HN118949   4.045   0.215   6.871 -0.2820  0.8744  0.3381
  168SAPS   HN218950   4.006   0.251   7.029  1.0789  0.4602  0.0168
  168SAPS   HN318951   3.951   0.112   6.960  0.5510  0.4037 -0.1680
  168SAPS   C1218952   3.847   0.284   6.887 -0.0338 -0.1310 -0.1111
  168SAPS  H12A18953   3.831   0.226   6.798  0.8670 -1.7246  0.7105
  168SAPS   C1318954   3.719   0.276   6.971  0.8986 -0.0479 -0.2829
  168SAPS  O13A18955   3.714   0.189   7.062 -0.3935  0.2139 -0.2429
  168SAPS  O13B18956   3.613   0.316   6.911  0.0877 -0.3589  0.0338
  168SAPS   C1118957   3.873   0.426   6.844  0.2232 -0.3056  0.1711
  168SAPS  H11A18958   3.792   0.458   6.776 -0.2653  1.4950  1.5285
  168SAPS  H11B18959   3.964   0.423   6.780  0.2524  0.6418  0.1604
  168SAPS     P18960   3.891   0.663   6.947  0.4307 -0.2827  0.0221
  168SAPS   O1318961   3.769   0.722   6.896  0.6798  0.1067 -0.3358
  168SAPS   O1418962   3.934   0.714   7.077  0.0586  0.5549 -0.8315
  168SAPS   O1218963   3.885   0.507   6.964  0.2300  0.4628  0.0725
  168SAPS   O1118964   4.001   0.671   6.837 -0.0816  0.8132 -0.0943
  168SAPS    C118965   4.139   0.655   6.863 -0.0974  0.3069 -0.2348
  168SAPS    HA18966   4.177   0.744   6.917 -1.3534  0.8204 -0.1733
  168SAPS    HB18967   4.151   0.562   6.922 -2.9549 -1.0650 -1.6381
  168SAPS    C218968   4.219   0.647   6.729 -0.0978 -0.1211 -0.2383
  168SAPS    HS18969   4.241   0.748   6.688  1.3829 -0.5408 -0.5338
  168SAPS   O2118970   4.155   0.550   6.640 -0.3315 -0.6064 -0.5140
  168SAPS   C2118971   4.086   0.600   6.547  0.1166  0.4200  0.0623
  168SAPS   O2218972   4.058   0.721   6.527  0.1994 -0.2364  0.5469
  168SAPS   C2218973   4.040   0.490   6.454  0.1198  0.1894  0.0499
  168SAPS   H2R18974   4.132   0.460   6.399  0.0785  0.8643 -0.3924
  168SAPS   H2S18975   4.001   0.412   6.523  0.7170 -0.8868 -0.7936
  168SAPS    C318976   4.359   0.583   6.763 -0.7997  0.2607 -0.3778
  168SAPS    HX18977   4.342   0.485   6.812 -1.4875  1.6813  2.4662
  168SAPS    HY18978   4.403   0.642   6.847  1.1764 -0.4987 -0.8190
  168SAPS   O3118979   4.452   0.578   6.653  0.7191 -0.0651 -0.5417
  168SAPS   C3118980   4.439   0.470   6.578  0.4209 -0.2649  0.0864
  168SAPS   O3218981   4.361   0.381   6.591 -0.1417 -0.4436 -0.3665
  168SAPS   C3218982   4.536   0.492   6.458  0.0223 -0.6832 -0.3765
  168SAPS   H2X18983   4.534   0.405   6.388 -0.2138 -1.1524  0.2033
  168SAPS   H2Y18984   4.637   0.494   6.505  0.1189  0.7736 -0.6183
  168SAPS   C2318985   3.916   0.529   6.364  0.1219 -0.3574 -0.3461
  168SAPS   H3R18986   3.843   0.596   6.414  1.6136  2.5157 -1.8197
  168SAPS   H3S18987   3.853   0.438   6.351 -0.5867  0.2903 -1.5583
  168SAPS   C2418988   3.952   0.584   6.222  0.5005  0.7714 -0.3216
  168SAPS   H4R18989   4.009   0.680   6.225 -2.7783  2.8338  1.0752
  168SAPS   H4S18990   3.856   0.628   6.189 -0.7812 -0.7896  1.0975
  168SAPS   C2518991   4.006   0.473   6.134  0.2760 -0.0928 -0.2144
  168SAPS   H5R18992   4.089   0.415   6.176 -0.2283  0.5041  1.7340
  168SAPS   C2618993   3.944   0.431   6.020 -0.1292  0.5683 -0.0906
  168SAPS   H6R18994   3.980   0.343   5.963 -0.1438 -0.1993  1.0449
  168SAPS   C2718995   3.811   0.472   5.965 -0.3620 -0.4068  0.0072
  168SAPS   H7R18996   3.744   0.517   6.041 -0.9544  2.5610 -2.0882
  168SAPS   H7S18997   3.761   0.384   5.918  2.6243 -0.9026 -2.5832
  168SAPS   C2818998   3.841   0.575   5.865  0.2118 -0.4901 -0.1391
  168SAPS   H8R18999   3.882   0.669   5.904 -0.0901  0.2739 -1.5808
  168SAPS   C2919000   3.835   0.558   5.733  0.0848 -0.4898 -0.4930
  168SAPS   H9R19001   3.861   0.644   5.669  3.1881 -1.5925 -0.8754
  168SAPS  C21019002   3.794   0.431   5.665 -0.3843 -0.7031 -0.8209
  168SAPS  H10R19003   3.690   0.449   5.630 -0.0921  0.1048 -1.2743
  168SAPS  H10S19004   3.783   0.342   5.732 -1.5951 -0.2062 -0.3309
  168SAPS  C21119005   3.896   0.395   5.556  0.8887  0.2749 -0.1097
  168SAPS  H11R19006   3.996   0.375   5.596  0.0480 -2.4797  0.8932
  168SAPS  C21219007   3.865   0.388   5.424 -0.2329 -0.7632  0.2797
  168SAPS  H12R19008   3.931   0.348   5.345 -1.3831 -0.9421 -0.6216
  168SAPS  C21319009   3.731   0.405   5.365 -0.2130  0.0858  0.2811
  168SAPS  H13R19010   3.659   0.376   5.445  0.8703  0.8302  1.5795
  168SAPS  H13S19011   3.719   0.328   5.286  2.8551 -1.2928  1.0043
  168SAPS  C21419012   3.697   0.549   5.329  0.4084 -0.2973  0.2702
  168SAPS  H14R19013   3.727   0.614   5.414 -1.9813  3.2066 -1.3231
  168SAPS  C21519014   3.627   0.598   5.223 -0.5441  1.1026  0.2196
  168SAPS  H15R19015   3.612   0.707   5.222  0.9944  1.3673 -2.1169
  168SAPS  C21619016   3.556   0.517   5.109 -0.5234 -0.3751 -0.0313
  168SAPS  H16R19017   3.446   0.519   5.128 -1.2189 -3.0338 -2.8533
  168SAPS  H16S19018   3.587   0.410   5.099 -0.1242 -0.1650 -1.2976
  168SAPS  C21719019   3.592   0.584   4.975 -0.1630  0.6456 -0.3749
  168SAPS  H17R19020   3.700   0.591   4.951 -0.2444  0.2862 -0.8738
  168SAPS  H17S19021   3.546   0.685   4.966  1.4531  1.6239  1.5848
  168SAPS  C21819022   3.543   0.497   4.855 -0.8962 -0.5433 -0.5579
  168SAPS  H18R19023   3.437   0.470   4.875 -0.4114 -2.4933 -0.3312
  168SAPS  H18S19024   3.598   0.400   4.862  0.1222  0.0428 -0.2637
  168SAPS  C21919025   3.568   0.568   4.722 -0.1517  0.0729  0.3201
  168SAPS  H19R19026   3.509   0.661   4.733 -0.2027  0.2344 -1.1470
  168SAPS  H19S19027   3.517   0.505   4.646  0.6211 -0.7121  0.4316
  168SAPS  C22019028   3.706   0.573   4.657 -0.1737 -0.3227 -0.2216
  168SAPS  H20R19029   3.696   0.639   4.569 -0.1249  0.2044  0.1623
  168SAPS  H20S19030   3.740   0.473   4.623 -1.1214 -1.2321  1.3632
  168SAPS  H20T19031   3.782   0.612   4.728 -0.1873  0.1004 -0.4389
  168SAPS   C3319032   4.525   0.625   6.372  0.3241  1.0195  0.0881
  168SAPS   H3X19033   4.615   0.617   6.308  0.0365  0.7844 -0.2879
  168SAPS   H3Y19034   4.534   0.713   6.439 -0.3062  0.4593  0.9394
  168SAPS   C3419035   4.401   0.633   6.283  0.3575 -0.6166 -0.2953
  168SAPS   H4X19036   4.317   0.671   6.346  2.0709  1.5681  0.7974
  168SAPS   H4Y19037   4.378   0.529   6.250  1.9091 -1.1544  0.2509
  168SAPS   C3519038   4.405   0.729   6.167 -0.6830 -0.5436 -0.4556
  168SAPS   H5X19039   4.500   0.708   6.113 -0.0916  0.5774  0.1318
  168SAPS   H5Y19040   4.401   0.833   6.204  0.4731 -0.6703  0.0584
  168SAPS   C3619041   4.294   0.706   6.065 -0.3228  0.1135  1.2663
  168SAPS   H6X19042   4.187   0.716   6.095 -1.2664 -2.3089 -0.9248
  168SAPS   H6Y19043   4.298   0.601   6.028 -0.3040  0.8055 -0.8016
  168SAPS   C3719044   4.318   0.787   5.933  0.1349  0.1520 -0.7018
  168SAPS   H7X19045   4.414   0.746   5.893 -1.3899 -3.1384 -1.3072
  168SAPS   H7Y19046   4.300   0.894   5.954 -2.2573 -0.1426 -0.9662
  168SAPS   C3819047   4.222   0.745   5.829  0.1462 -0.1562 -0.0774
  168SAPS   H8X19048   4.117   0.778   5.848  0.4985  0.7997  0.2219
  168SAPS   H8Y19049   4.223   0.634   5.830  1.6917 -0.1715  1.9712
  168SAPS   C3919050   4.261   0.788   5.689  0.5405 -0.1680  0.2442
  168SAPS   H9X19051   4.367   0.761   5.671  1.4722  1.9479  2.1541
  168SAPS   H9Y19052   4.250   0.899   5.688 -0.8959 -0.2834  0.0988
  168SAPS  C31019053   4.169   0.723   5.583 -0.4684 -0.2946 -0.0030
  168SAPS  H10X19054   4.065   0.753   5.611  0.1789  2.5852 -0.3978
  168SAPS  H10Y19055   4.176   0.612   5.577  1.2426 -0.5130  3.6393
  168SAPS  C31119056   4.197   0.783   5.444  0.2079 -0.7417  0.9906
  168SAPS  H11X19057   4.299   0.770   5.402 -0.9311  0.6434 -2.5669
  168SAPS  H11Y19058   4.194   0.894   5.457  0.6632 -0.7217  0.9576
  168SAPS  C31219059   4.091   0.726   5.345 -0.3048  0.5451  0.2622
  168SAPS  H12X19060   3.992   0.758   5.384  0.7057  1.1367  2.4996
  168SAPS  H12Y19061   4.086   0.615   5.346 -0.3350  0.5422 -0.1189
  168SAPS  C31319062   4.107   0.785   5.206 -0.5899 -0.0541 -0.3369
  168SAPS  H13X19063   4.213   0.786   5.172  0.3492 -1.2308  2.2583
  168SAPS  H13Y19064   4.079   0.893   5.210 -1.0365 -0.0880 -1.9527
  168SAPS  C31419065   4.017   0.719   5.097 -0.0228 -0.3692  0.2823
  168SAPS  H14X19066   4.015   0.785   5.008 -1.8211 -0.9710 -0.1849
  168SAPS  H14Y19067   3.909   0.720   5.125 -0.3320  2.1542 -0.7778
  168SAPS  C31519068   4.065   0.582   5.052  0.1999  0.7145 -0.5403
  168SAPS  H15X19069   4.087   0.522   5.143 -0.3981  2.3611  0.7290
  168SAPS  H15Y19070   4.154   0.600   4.989  0.1527 -1.2748 -1.2497
  168SAPS  C31619071   3.977   0.516   4.952 -0.5498  0.3337 -0.2955
  168SAPS  H16X19072   3.965   0.570   4.856 -0.5228  0.6070 -0.1461
  168SAPS  H16Y19073   3.873   0.521   4.991 -0.3287  0.0957  0.3302
  168SAPS  C31719074   4.030   0.372   4.921 -0.0236 -0.5606  0.1838
  168SAPS  H17X19075   4.092   0.331   5.003  0.8178  1.1414  0.4482
  168SAPS  H17Y19076   4.097   0.390   4.834  0.8763  0.5339  1.0681
  168SAPS  C31819077   3.919   0.279   4.877 -0.3281 -0.2912 -0.3840
  168SAPS  H18X19078   3.844   0.259   4.956 -0.7403  2.0460 -0.1316
  168SAPS  H18Y19079   3.960   0.179   4.852 -0.0935 -0.9307  2.2423
  168SAPS  H18Z19080   3.866   0.320   4.788  2.2477  0.3020 -1.7701
  169SAPS     N19081   5.271   3.521   6.926 -0.1673 -0.0919  0.0818
  169SAPS   HN119082   5.271   3.509   7.029 -2.5519  0.0595  0.1428
  169SAPS   HN219083   5.369   3.540   6.897 -0.5562 -0.8949 -1.9332
  169SAPS   HN319084   5.204   3.601   6.920 -0.3655 -0.0642  2.0264
  169SAPS   C1219085   5.227   3.402   6.863  0.0657  0.4149 -0.1030
  169SAPS  H12A19086   5.296   3.321   6.884 -0.5147 -0.5023 -1.6285
  169SAPS   C1319087   5.094   3.352   6.919  0.0975 -0.3416 -0.6388
  169SAPS  O13A19088   5.048   3.417   7.013 -0.2673  0.2768 -0.5523
  169SAPS  O13B19089   5.032   3.267   6.854 -0.2055  0.5941  0.3715
  169SAPS   C1119090   5.211   3.444   6.702 -0.7054 -0.1107 -0.0992
  169SAPS  H11A19091   5.118   3.504   6.691 -0.2032  0.6207 -0.4487
  169SAPS  H11B19092   5.187   3.353   6.643  1.9405 -0.1899 -1.2262
  169SAPS     P19093   5.429   3.460   6.546 -0.1893 -0.0577 -0.1560
  169SAPS   O1319094   5.524   3.569   6.502  0.1564  0.1732  0.7449
  169SAPS   O1419095   5.491   3.338   6.607 -0.0892  0.7921  1.0962
  169SAPS   O1219096   5.323   3.522   6.650 -0.0930 -0.3978  0.0671
  169SAPS   O1119097   5.330   3.417   6.429  0.0275 -0.2299  0.2103
  169SAPS    C119098   5.289   3.503   6.316  0.2886 -0.6275 -0.0887
  169SAPS    HA19099   5.362   3.583   6.292 -0.2820 -0.1233 -0.1787
  169SAPS    HB19100   5.288   3.437   6.227 -2.0843 -0.4259 -0.2805
  169SAPS    C219101   5.158   3.585   6.347  0.0300  0.5452 -0.0285
  169SAPS    HS19102   5.166   3.616   6.453 -1.1227 -2.2408  0.9821
  169SAPS   O2119103   5.049   3.493   6.322 -0.1260 -0.0155 -0.0202
  169SAPS   C2119104   4.936   3.530   6.373 -0.6668 -0.7487  0.0690
  169SAPS   O2219105   4.921   3.628   6.446  0.4099 -0.1242  0.1249
  169SAPS   C2219106   4.824   3.430   6.316  0.2783  0.5574 -0.5088
  169SAPS   H2R19107   4.818   3.434   6.205  0.6130 -3.3075 -0.8012
  169SAPS   H2S19108   4.835   3.325   6.351 -3.1176  0.2669  0.0665
  169SAPS    C319109   5.151   3.713   6.264  0.1872  0.3786 -0.1246
  169SAPS    HX19110   5.242   3.764   6.301  0.9587 -1.2290  0.2786
  169SAPS    HY19111   5.053   3.762   6.285 -1.1682 -1.7161 -1.1005
  169SAPS   O3119112   5.166   3.688   6.126  0.1134 -0.2199  0.4186
  169SAPS   C3119113   5.054   3.661   6.053 -0.8652  0.4687  0.1027
  169SAPS   O3219114   4.943   3.686   6.081  0.3434 -0.8360  0.0728
  169SAPS   C3219115   5.102   3.603   5.919  0.5424  0.7336  0.9509
  169SAPS   H2X19116   5.127   3.496   5.935 -0.1178  0.3591 -0.3221
  169SAPS   H2Y19117   5.195   3.655   5.889 -0.7332  2.3469 -0.4491
  169SAPS   C2319118   4.689   3.489   6.375 -0.5186  0.3420  0.1841
  169SAPS   H3R19119   4.675   3.596   6.349  0.3921  0.6012  0.7191
  169SAPS   H3S19120   4.698   3.479   6.485 -1.0120 -1.8754  0.0707
  169SAPS   C2419121   4.566   3.404   6.338 -0.5828  0.1030  0.2508
  169SAPS   H4R19122   4.562   3.306   6.392  1.6129  0.4661  1.1539
  169SAPS   H4S19123   4.591   3.380   6.232 -2.9967  3.4529 -1.2585
  169SAPS   C2519124   4.434   3.471   6.360 -0.0686  0.5504  0.1401
  169SAPS   H5R19125   4.389   3.479   6.460 -0.3048 -0.1312  0.0954
  169SAPS   C2619126   4.366   3.517   6.260  0.0549 -0.2230  0.2388
  169SAPS   H6R19127   4.275   3.573   6.288  0.1515 -1.6432  3.9126
  169SAPS   C2719128   4.402   3.534   6.114 -0.6090  0.3888 -0.0983
  169SAPS   H7R19129   4.510   3.560   6.111 -0.0732 -1.3105  1.8774
  169SAPS   H7S19130   4.353   3.626   6.077  1.8475  2.0080  0.3990
  169SAPS   C2819131   4.386   3.429   6.009  0.7375 -0.0523 -0.0144
  169SAPS   H8R19132   4.337   3.338   6.047 -3.6117  2.8256  2.1347
  169SAPS   C2919133   4.425   3.429   5.883 -0.7024 -0.6541  0.0393
  169SAPS   H9R19134   4.406   3.347   5.813  0.2179  1.8888 -3.4511
  169SAPS  C21019135   4.484   3.548   5.811 -0.3488  0.2097 -0.0119
  169SAPS  H10R19136   4.585   3.544   5.858  0.9124  3.3350 -2.1524
  169SAPS  H10S19137   4.433   3.642   5.842 -0.2994  0.2060  0.0833
  169SAPS  C21119138   4.525   3.528   5.663 -0.4382 -0.0198 -0.6832
  169SAPS  H11R19139   4.615   3.470   5.639  1.2166  2.9942 -2.3533
  169SAPS  C21219140   4.464   3.605   5.572 -0.6499  0.4297 -0.8935
  169SAPS  H12R19141   4.493   3.599   5.466  0.1128 -0.2716 -0.6580
  169SAPS  C21319142   4.346   3.696   5.592 -0.0342 -0.5835  0.1655
  169SAPS  H13R19143   4.293   3.667   5.685 -1.3427  0.4160 -0.2420
  169SAPS  H13S19144   4.273   3.677   5.511  1.4492 -0.7959 -1.1810
  169SAPS  C21419145   4.382   3.842   5.589  0.5796 -0.4073 -0.1329
  169SAPS  H14R19146   4.428   3.874   5.683 -1.2986  1.9008  0.0923
  169SAPS  C21519147   4.358   3.936   5.496  0.3178 -0.4592 -0.4907
  169SAPS  H15R19148   4.396   4.037   5.518  1.0270 -0.7179 -0.5010
  169SAPS  C21619149   4.283   3.924   5.362 -0.1871  0.0953  0.0599
  169SAPS  H16R19150   4.210   4.007   5.356 -1.5501 -1.0971 -0.2264
  169SAPS  H16S19151   4.228   3.828   5.357 -2.2447  1.0912  2.0504
  169SAPS  C21719152   4.368   3.938   5.225  0.4245 -0.0450 -0.1021
  169SAPS  H17R19153   4.411   4.041   5.219 -1.0832  0.6096 -0.0683
  169SAPS  H17S19154   4.303   3.918   5.137  1.3083 -0.0051 -0.7759
  169SAPS  C21819155   4.475   3.833   5.217 -0.2725 -0.2739  0.1339
  169SAPS  H18R19156   4.427   3.733   5.213  0.8527 -0.8589  0.6362
  169SAPS  H18S19157   4.547   3.839   5.301  2.8201  0.8763 -2.3935
  169SAPS  C21919158   4.572   3.844   5.093 -0.3326  0.4423 -0.0206
  169SAPS  H19R19159   4.648   3.925   5.086  0.3924 -0.2178  0.0785
  169SAPS  H19S19160   4.523   3.860   4.994  2.0579  0.2965 -1.2969
  169SAPS  C22019161   4.656   3.713   5.070  0.3761  0.1826 -0.3751
  169SAPS  H20R19162   4.727   3.719   4.985 -0.7795  0.1191 -1.3568
  169SAPS  H20S19163   4.581   3.632   5.059  1.7876 -1.1310 -0.8165
  169SAPS  H20T19164   4.715   3.685   5.161  1.8111 -0.0629 -1.3421
  169SAPS   C3319165   4.996   3.605   5.795  0.1481  0.7349 -0.4767
  169SAPS   H3X19166   4.942   3.702   5.809 -0.0656  0.5306  0.1179
  169SAPS   H3Y19167   4.906   3.540   5.797 -0.0744  1.0345 -0.6212
  169SAPS   C3419168   5.061   3.607   5.657 -1.1402  0.0974  0.5068
  169SAPS   H4X19169   5.132   3.523   5.667 -1.3766  0.0613  2.0359
  169SAPS   H4Y19170   5.107   3.709   5.651  3.1409 -1.5729  1.3401
  169SAPS   C3519171   4.964   3.593   5.536 -0.0260 -0.0982 -0.0199
  169SAPS   H5X19172   4.887   3.671   5.551 -0.9198 -1.0046  0.1699
  169SAPS   H5Y19173   4.910   3.496   5.539  2.0620 -1.3004  2.2354
  169SAPS   C3619174   5.037   3.611   5.403 -0.1677  0.1337 -0.6391
  169SAPS   H6X19175   5.106   3.525   5.386 -0.3134  0.3796 -2.7441
  169SAPS   H6Y19176   5.096   3.705   5.412 -1.4286  0.9478 -0.5585
  169SAPS   C3719177   4.949   3.624   5.285  0.3220  0.1016  0.0953
  169SAPS   H7X19178   4.865   3.689   5.317  0.1236 -1.0696  2.1693
  169SAPS   H7Y19179   4.912   3.520   5.269 -0.6160  0.0405  2.2256
  169SAPS   C3819180   5.019   3.685   5.163 -1.1385 -0.4643  0.5958
  169SAPS   H8X19181   5.066   3.784   5.181 -2.4549  0.3445 -0.2497
  169SAPS   H8Y19182   4.945   3.708   5.083  1.0745 -1.6411 -1.9829
  169SAPS   C3919183   5.110   3.580   5.095 -0.3619  0.8662  0.2478
  169SAPS   H9X19184   5.054   3.490   5.059  1.2552  1.0427 -3.0128
  169SAPS   H9Y19185   5.191   3.551   5.165 -0.3664  0.9851  0.3022
  169SAPS  C31019186   5.164   3.639   4.972  0.1916  0.1150  0.1663
  169SAPS  H10X19187   5.246   3.711   4.995  0.2661  1.1082 -2.7574
  169SAPS  H10Y19188   5.086   3.693   4.914  2.4744  2.6730 -0.7396
  169SAPS  C31119189   5.224   3.525   4.892  0.2625  0.5463  0.6322
  169SAPS  H11X19190   5.175   3.428   4.917  0.8417  0.5958  2.0612
  169SAPS  H11Y19191   5.329   3.503   4.920  0.1106 -1.4446 -0.1479
  169SAPS  C31219192   5.220   3.548   4.739  0.5946  0.1710  0.6847
  169SAPS  H12X19193   5.276   3.640   4.714 -1.7376  1.1229 -1.4590
  169SAPS  H12Y19194   5.115   3.557   4.705  1.2506 -1.6553 -2.1802
  169SAPS  C31319195   5.265   3.428   4.647  1.0045  0.0092  0.0023
  169SAPS  H13X19196   5.253   3.460   4.541  0.2482 -1.3300 -0.3356
  169SAPS  H13Y19197   5.187   3.350   4.662 -1.2979  2.2178  0.1667
  169SAPS  C31419198   5.410   3.384   4.665  0.3825  0.0759 -0.2693
  169SAPS  H14X19199   5.424   3.336   4.764 -0.3232  1.3530  0.4697
  169SAPS  H14Y19200   5.480   3.471   4.662 -1.1279  1.2929 -1.9628
  169SAPS  C31519201   5.451   3.283   4.558 -0.0679  0.5603  0.3687
  169SAPS  H15X19202   5.366   3.217   4.531 -0.2695 -0.2720  2.7469
  169SAPS  H15Y19203   5.533   3.220   4.601 -0.6842 -0.2032  0.4432
  169SAPS  C31619204   5.508   3.351   4.429 -0.2235 -0.6590 -0.2045
  169SAPS  H16X19205   5.585   3.425   4.461 -0.2123 -1.8118  2.8058
  169SAPS  H16Y19206   5.425   3.407   4.381 -1.2608  0.6266  2.8361
  169SAPS  C31719207   5.559   3.250   4.325 -0.0240 -0.2763 -0.0425
  169SAPS  H17X19208   5.598   3.308   4.238 -0.0827  0.8079  0.6358
  169SAPS  H17Y19209   5.481   3.179   4.291 -0.1781  0.0167 -0.3095
  169SAPS  C31819210   5.683   3.159   4.368  0.7040 -0.1970 -0.1367
  169SAPS  H18X19211   5.727   3.109   4.280  0.3632  1.4334 -1.2695
  169SAPS  H18Y19212   5.631   3.092   4.440  0.2461 -0.0032 -0.2834
  169SAPS  H18Z19213   5.749   3.232   4.420 -0.1891  0.6594 -0.1838
  170SAPS     N19214   6.491   2.375   7.255  0.1328  0.1691  0.0423
  170SAPS   HN119215   6.542   2.296   7.299  1.0302 -0.0815 -1.3993
  170SAPS   HN219216   6.555   2.427   7.191  0.7587  1.6080  1.7517
  170SAPS   HN319217   6.471   2.443   7.331 -0.7528  1.1926 -1.0701
  170SAPS   C1219218   6.367   2.317   7.194  1.0533  0.5241  0.2771
  170SAPS  H12A19219   6.392   2.230   7.135 -0.5615 -1.2214  2.0013
  170SAPS   C1319220   6.276   2.249   7.294  0.0476 -0.5162 -0.0300
  170SAPS  O13A19221   6.310   2.222   7.415  0.0157 -0.1143  0.2217
  170SAPS  O13B19222   6.165   2.211   7.251  0.5802 -0.0216  0.0259
  170SAPS   C1119223   6.298   2.431   7.122 -0.0700 -0.4045  0.1390
  170SAPS  H11A19224   6.257   2.510   7.188 -0.8485  0.3910 -1.2453
  170SAPS  H11B19225   6.209   2.395   7.066 -0.7330  0.8373  0.3519
  170SAPS     P19226   6.350   2.567   6.909  0.1795  0.1665 -0.3540
  170SAPS   O1319227   6.202   2.583   6.901 -0.5575 -0.5471  0.1723
  170SAPS   O1419228   6.436   2.682   6.874 -0.3109  0.2187 -0.9179
  170SAPS   O1219229   6.389   2.492   7.042  0.2186  0.2374  0.2461
  170SAPS   O1119230   6.391   2.455   6.801  0.4685 -0.0979 -0.2957
  170SAPS    C119231   6.350   2.319   6.798  0.2465  0.0551 -0.1678
  170SAPS    HA19232   6.440   2.254   6.803  0.3710  0.2758  0.7033
  170SAPS    HB19233   6.286   2.285   6.883  0.1445 -0.8887 -0.6114
  170SAPS    C219234   6.265   2.285   6.672 -0.1155  0.2935  0.5587
  170SAPS    HS19235   6.275   2.177   6.648  1.2530  0.9218 -2.0355
  170SAPS   O2119236   6.313   2.365   6.565 -0.1548 -0.2543  0.2840
  170SAPS   C2119237   6.434   2.337   6.525 -0.0484 -0.1697 -0.2207
  170SAPS   O2219238   6.499   2.242   6.558  0.5797 -0.4255  0.0001
  170SAPS   C2219239   6.477   2.450   6.425 -0.2338  0.0555  0.1708
  170SAPS   H2R19240   6.389   2.453   6.357  0.7412  0.8845 -1.1030
  170SAPS   H2S19241   6.509   2.540   6.481 -0.5195 -0.0406  0.4951
  170SAPS    C319242   6.119   2.322   6.699 -0.9349  0.1988  0.1150
  170SAPS    HX19243   6.107   2.427   6.734 -0.8122  0.4646 -0.6400
  170SAPS    HY19244   6.090   2.258   6.785  1.3967 -1.0575  0.0504
  170SAPS   O3119245   6.040   2.284   6.582 -0.2036 -0.4458 -0.1104
  170SAPS   C3119246   6.027   2.385   6.495 -0.0131 -0.3073  0.1721
  170SAPS   O3219247   6.058   2.504   6.517 -0.0559  0.3790  0.5082
  170SAPS   C3219248   5.946   2.346   6.371  0.5036  0.4168 -0.5574
  170SAPS   H2X19249   5.865   2.415   6.340 -0.7566 -0.5393  0.4908
  170SAPS   H2Y19250   5.877   2.264   6.402 -1.9605  2.0547 -1.3967
  170SAPS   C2319251   6.598   2.406   6.336  0.0294 -0.1183 -0.0681
  170SAPS   H3R19252   6.580   2.308   6.287 -0.3301 -0.1546  0.1377
  170SAPS   H3S19253   6.686   2.392   6.402 -0.0840 -0.5179  0.0021
  170SAPS   C2419254   6.642   2.515   6.230 -0.6357  0.8986 -0.3942
  170SAPS   H4R19255   6.736   2.478   6.183  0.6582  2.9140  0.4891
  170SAPS   H4S19256   6.679   2.598   6.294 -0.9999 -0.5107  1.7621
  170SAPS   C2519257   6.535   2.549   6.137 -0.3633  0.2920  0.1299
  170SAPS   H5R19258   6.443   2.591   6.181  1.0652  1.1948  2.4726
  170SAPS   C2619259   6.534   2.523   6.003 -0.3729  0.3094 -0.1824
  170SAPS   H6R19260   6.442   2.549   5.948 -1.5038 -1.3733  0.7999
  170SAPS   C2719261   6.642   2.455   5.922 -0.4373  0.4174 -0.3985
  170SAPS   H7R19262   6.741   2.475   5.967 -1.2433  2.8403  0.4255
  170SAPS   H7S19263   6.633   2.493   5.818  0.5102  0.3838 -0.4979
  170SAPS   C2819264   6.627   2.307   5.936  0.2399  0.1045  0.2520
  170SAPS   H8R19265   6.604   2.265   6.035  1.2849  1.6313  1.1922
  170SAPS   C2919266   6.669   2.214   5.847  0.3209  0.0032  1.0663
  170SAPS   H9R19267   6.630   2.112   5.864 -2.5526  0.5444 -1.5445
  170SAPS  C21019268   6.712   2.249   5.711  0.7289  0.0907  0.3093
  170SAPS  H10R19269   6.814   2.206   5.698  0.6527  0.2785 -1.1902
  170SAPS  H10S19270   6.717   2.357   5.686  1.3269 -0.1550 -0.7259
  170SAPS  C21119271   6.622   2.187   5.601 -0.6300  0.2826  0.1592
  170SAPS  H11R19272   6.573   2.093   5.630  1.5697 -0.8495  0.4620
  170SAPS  C21219273   6.595   2.249   5.490 -0.4657  0.1951  0.1074
  170SAPS  H12R19274   6.524   2.199   5.422 -0.7583 -0.1987  0.6954
  170SAPS  C21319275   6.660   2.384   5.449 -0.1412 -0.2707 -0.1331
  170SAPS  H13R19276   6.769   2.388   5.473 -0.4629  1.8649  1.1926
  170SAPS  H13S19277   6.607   2.470   5.493 -0.2179 -0.3815 -0.0081
  170SAPS  C21419278   6.657   2.415   5.295 -0.2468 -0.8575  0.1245
  170SAPS  H14R19279   6.592   2.500   5.270 -1.1041 -1.4114  0.3945
  170SAPS  C21519280   6.734   2.370   5.196 -0.2337 -0.0656 -0.3695
  170SAPS  H15R19281   6.718   2.417   5.098  0.3676  1.6598  0.3263
  170SAPS  C21619282   6.835   2.253   5.208  0.1721 -0.1064 -0.5427
  170SAPS  H16R19283   6.771   2.166   5.233  0.3979 -0.2552 -0.4821
  170SAPS  H16S19284   6.897   2.268   5.299  0.1333 -0.3281 -0.4789
  170SAPS  C21719285   6.933   2.235   5.089  0.1878 -0.0821 -0.1175
  170SAPS  H17R19286   7.006   2.152   5.103  0.0340 -0.0553  0.9884
  170SAPS  H17S19287   6.985   2.332   5.078 -1.7747  0.9276 -0.8873
  170SAPS  C21819288   6.857   2.209   4.960  0.0173  0.4017 -0.2589
  170SAPS  H18R19289   6.782   2.290   4.954  0.1492  0.5640  0.2195
  170SAPS  H18S19290   6.795   2.117   4.960 -1.2586  1.2355 -0.9869
  170SAPS  C21919291   6.932   2.213   4.827  0.8039  0.9070 -0.7026
  170SAPS  H19R19292   6.999   2.124   4.821  0.9943  0.9679  0.2939
  170SAPS  H19S19293   6.994   2.305   4.833  0.6376  1.0695 -1.4647
  170SAPS  C22019294   6.833   2.232   4.715 -0.1218  0.5517  0.2230
  170SAPS  H20R19295   6.876   2.223   4.613  0.1809 -0.5145  0.4317
  170SAPS  H20S19296   6.782   2.330   4.707 -0.2591  0.4676  0.0612
  170SAPS  H20T19297   6.754   2.154   4.717  1.5221 -1.2132 -0.6040
  170SAPS   C3319298   6.029   2.316   6.240  0.2239  0.3829 -0.4328
  170SAPS   H3X19299   5.974   2.255   6.165 -1.1958  1.1743 -0.0787
  170SAPS   H3Y19300   6.110   2.245   6.264 -0.6910 -1.4288 -2.3768
  170SAPS   C3419301   6.107   2.438   6.172  0.0146 -0.2048  0.4827
  170SAPS   H4X19302   6.143   2.502   6.256  3.1600 -0.3469 -0.6391
  170SAPS   H4Y19303   6.017   2.493   6.137 -0.7679 -1.7639 -0.0273
  170SAPS   C3519304   6.200   2.421   6.052 -0.4448 -0.0071  0.6651
  170SAPS   H5X19305   6.276   2.343   6.072  0.6249  0.2993 -1.8107
  170SAPS   H5Y19306   6.259   2.515   6.044 -0.5102 -0.0284 -0.0856
  170SAPS   C3619307   6.124   2.379   5.932  0.0671 -1.0852  0.8130
  170SAPS   H6X19308   6.033   2.440   5.912  0.2890 -0.4229  1.7664
  170SAPS   H6Y19309   6.076   2.280   5.944 -1.3248 -0.1612  3.9897
  170SAPS   C3719310   6.219   2.372   5.813 -0.1600  0.0155  1.0052
  170SAPS   H7X19311   6.307   2.305   5.825 -0.7146 -1.0447 -0.5806
  170SAPS   H7Y19312   6.258   2.473   5.788 -2.3446  0.5895 -0.3802
  170SAPS   C3819313   6.143   2.336   5.683 -0.0107  0.4032 -0.3483
  170SAPS   H8X19314   6.047   2.391   5.692 -0.3301 -0.0428 -0.9753
  170SAPS   H8Y19315   6.114   2.229   5.690  1.8719 -0.0473  1.7242
  170SAPS   C3919316   6.242   2.359   5.569 -0.0297 -0.0995  0.7392
  170SAPS   H9X19317   6.327   2.289   5.580  1.2441  1.3208  0.3133
  170SAPS   H9Y19318   6.283   2.462   5.569  1.2851 -0.6116  0.8294
  170SAPS  C31019319   6.175   2.329   5.432 -0.1926  0.1721 -0.5637
  170SAPS  H10X19320   6.096   2.405   5.413 -0.0275  0.2894 -0.7930
  170SAPS  H10Y19321   6.125   2.230   5.436 -2.2629  1.2039  0.5014
  170SAPS  C31119322   6.271   2.350   5.305 -0.6393  0.3460  0.1845
  170SAPS  H11X19323   6.358   2.281   5.311 -1.3437 -0.5575  0.2154
  170SAPS  H11Y19324   6.316   2.450   5.317  0.2581 -0.2178  1.7968
  170SAPS  C31219325   6.193   2.318   5.176  0.3007 -0.4876  0.1202
  170SAPS  H12X19326   6.116   2.397   5.177 -0.8298 -1.4932 -1.5187
  170SAPS  H12Y19327   6.140   2.221   5.189  0.8072 -0.6869  0.7293
  170SAPS  C31319328   6.272   2.325   5.043  0.3022  0.7712 -1.2028
  170SAPS  H13X19329   6.334   2.416   5.052 -0.1340  1.1118 -1.5998
  170SAPS  H13Y19330   6.194   2.352   4.969  0.6920 -0.2721 -2.0231
  170SAPS  C31419331   6.353   2.195   5.003  0.6083  1.1918 -1.6879
  170SAPS  H14X19332   6.273   2.120   4.983 -0.9905  1.9860  1.0541
  170SAPS  H14Y19333   6.404   2.158   5.095 -1.7703 -1.2076 -1.1862
  170SAPS  C31519334   6.437   2.194   4.871  0.1726 -0.2333  0.1403
  170SAPS  H15X19335   6.485   2.094   4.863  0.0973 -0.2021 -0.8520
  170SAPS  H15Y19336   6.514   2.273   4.886 -1.0586  1.0655 -0.0969
  170SAPS  C31619337   6.352   2.229   4.750  0.4845  0.7382  0.1406
  170SAPS  H16X19338   6.314   2.334   4.747  0.8444  0.9090  1.2357
  170SAPS  H16Y19339   6.262   2.164   4.751  1.3715 -0.5490 -0.3779
  170SAPS  C31719340   6.411   2.198   4.608  0.5801  0.0613  0.5423
  170SAPS  H17X19341   6.323   2.171   4.546  0.8202 -0.0114  0.2280
  170SAPS  H17Y19342   6.471   2.105   4.601  0.7743  0.3213 -2.2175
  170SAPS  C31819343   6.491   2.303   4.531  0.4763 -0.0522  0.5162
  170SAPS  H18X19344   6.425   2.392   4.518 -1.5863 -1.1153  2.7867
  170SAPS  H18Y19345   6.532   2.260   4.437  0.5046 -3.4199  1.9339
  170SAPS  H18Z19346   6.583   2.330   4.587  0.7756  0.1571 -0.0717
  171SAPS     N19347   4.803   4.570   7.179  0.5237 -0.3945 -0.1201
  171SAPS   HN119348   4.760   4.482   7.143 -0.2267  0.3769 -1.1979
  171SAPS   HN219349   4.721   4.614   7.224 -0.0195 -1.8921  0.4154
  171SAPS   HN319350   4.847   4.629   7.105  0.7112 -0.0178  0.2911
  171SAPS   C1219351   4.912   4.533   7.279 -0.8883 -0.7849 -0.7726
  171SAPS  H12A19352   4.977   4.618   7.288 -2.0495  0.0287  0.5189
  171SAPS   C1319353   4.865   4.506   7.421 -1.2859 -0.0631 -0.1198
  171SAPS  O13A19354   4.750   4.538   7.450  0.0495 -0.3584 -0.1090
  171SAPS  O13B19355   4.945   4.472   7.510 -0.6693 -0.0634  0.4964
  171SAPS   C1119356   5.014   4.426   7.230  0.1916  0.8516  0.7691
  171SAPS  H11A19357   4.965   4.327   7.220  3.6721 -0.9264  0.0255
  171SAPS  H11B19358   5.103   4.417   7.295  0.2343 -1.8260  0.4180
  171SAPS     P19359   5.139   4.362   7.015  0.0395  0.0332 -0.1494
  171SAPS   O1319360   5.254   4.302   7.088  0.3884  0.5894  0.0361
  171SAPS   O1419361   5.039   4.263   6.959  0.1312 -0.2580 -0.0714
  171SAPS   O1219362   5.060   4.469   7.098 -1.0678 -0.5292  0.3300
  171SAPS   O1119363   5.204   4.438   6.895 -0.1151 -1.1103  0.0470
  171SAPS    C119364   5.125   4.529   6.816  0.3276  1.3933  0.4326
  171SAPS    HA19365   5.071   4.598   6.884 -2.2925 -0.1007 -0.0001
  171SAPS    HB19366   5.202   4.587   6.760  0.1208  1.2605  0.0035
  171SAPS    C219367   5.036   4.465   6.713 -1.1969 -0.0462  0.1542
  171SAPS    HS19368   4.966   4.396   6.765 -0.6220 -0.2034  0.7406
  171SAPS   O2119369   5.124   4.396   6.612  0.2197  0.0312  0.7399
  171SAPS   C2119370   5.093   4.273   6.576  0.5127  0.6439 -1.0056
  171SAPS   O2219371   5.001   4.208   6.623  0.9008 -0.4404 -0.2190
  171SAPS   C2219372   5.193   4.226   6.477  0.8207 -0.9958  0.2933
  171SAPS   H2R19373   5.231   4.306   6.409  0.6754 -1.1764 -0.0056
  171SAPS   H2S19374   5.282   4.188   6.532  0.3042 -0.6219  1.4088
  171SAPS    C319375   4.951   4.573   6.645  0.0933 -0.0889 -0.4017
  171SAPS    HX19376   5.024   4.654   6.622  1.2028 -1.0131 -0.2663
  171SAPS    HY19377   4.879   4.621   6.714  0.4731  0.2838 -0.2591
  171SAPS   O3119378   4.892   4.521   6.525 -0.3312  0.6005 -0.2034
  171SAPS   C3119379   4.772   4.469   6.540  0.1866  0.4053 -0.3832
  171SAPS   O3219380   4.713   4.464   6.646  0.2164  0.2962  0.1515
  171SAPS   C3219381   4.714   4.424   6.412 -0.6498 -0.0087  0.0399
  171SAPS   H2X19382   4.664   4.326   6.422  0.7076 -0.5670  1.9353
  171SAPS   H2Y19383   4.795   4.387   6.345 -0.9022 -2.4200  0.9694
  171SAPS   C2319384   5.133   4.120   6.379  0.3783  0.2688 -0.5711
  171SAPS   H3R19385   5.110   4.025   6.431 -1.7395 -0.5947 -2.8775
  171SAPS   H3S19386   5.214   4.100   6.304  0.4465  2.4197 -1.1317
  171SAPS   C2419387   5.009   4.168   6.301 -1.0378 -0.4459 -0.1933
  171SAPS   H4R19388   5.024   4.264   6.248 -1.2461  0.7430  1.8324
  171SAPS   H4S19389   4.919   4.183   6.364 -1.3155 -0.6041 -0.5421
  171SAPS   C2519390   4.961   4.071   6.194  0.1377  0.5074  0.0751
  171SAPS   H5R19391   4.893   3.993   6.231  0.3641  0.5933  0.6805
  171SAPS   C2619392   5.001   4.071   6.070 -0.3232  0.1671 -0.1486
  171SAPS   H6R19393   4.968   3.998   5.995  2.8351  1.2673 -2.8773
  171SAPS   C2719394   5.108   4.164   6.021 -0.2260 -0.2999 -0.3269
  171SAPS   H7R19395   5.149   4.224   6.105 -1.4360 -1.1761  0.9566
  171SAPS   H7S19396   5.052   4.236   5.957 -0.4765 -1.8270 -1.9003
  171SAPS   C2819397   5.222   4.108   5.950 -0.3173 -0.5495  0.5898
  171SAPS   H8R19398   5.258   4.005   5.964  0.4597 -0.5396 -1.1158
  171SAPS   C2919399   5.307   4.186   5.884  0.5507 -0.0449  0.7989
  171SAPS   H9R19400   5.389   4.137   5.830  0.5171 -0.0437  0.7473
  171SAPS  C21019401   5.301   4.340   5.857  0.2042  0.5025  0.4085
  171SAPS  H10R19402   5.194   4.365   5.842 -0.5343 -2.6612 -0.4204
  171SAPS  H10S19403   5.358   4.369   5.766  0.7659  0.3141  0.6959
  171SAPS  C21119404   5.361   4.417   5.973 -0.0449  0.2332  0.4245
  171SAPS  H11R19405   5.397   4.370   6.065 -0.7062  1.6461  1.4513
  171SAPS  C21219406   5.350   4.546   5.971 -0.1705 -1.0962  0.2495
  171SAPS  H12R19407   5.394   4.602   6.055 -2.5476  0.3116  0.6315
  171SAPS  C21319408   5.302   4.621   5.853 -0.0651 -0.1681  0.1665
  171SAPS  H13R19409   5.195   4.643   5.876 -0.3641 -0.3839 -0.9385
  171SAPS  H13S19410   5.305   4.570   5.754 -2.3023  0.5103 -0.3289
  171SAPS  C21419411   5.358   4.755   5.844 -0.1687  0.3151  0.8189
  171SAPS  H14R19412   5.332   4.817   5.931 -2.9431 -0.0785  0.3643
  171SAPS  C21519413   5.423   4.820   5.741 -1.0162  0.8757  0.1439
  171SAPS  H15R19414   5.458   4.922   5.761  1.7704 -0.0496  0.4075
  171SAPS  C21619415   5.467   4.755   5.613  0.8387  0.0349  0.6377
  171SAPS  H16R19416   5.485   4.648   5.636  0.4494 -0.3785 -0.8870
  171SAPS  H16S19417   5.559   4.805   5.575  0.9994 -3.3953 -4.4554
  171SAPS  C21719418   5.353   4.775   5.505 -0.4037  0.9389  0.3005
  171SAPS  H17R19419   5.279   4.702   5.544  0.9682 -0.8150 -0.2505
  171SAPS  H17S19420   5.390   4.744   5.406 -0.9841  0.0971  0.3402
  171SAPS  C21819421   5.312   4.920   5.485 -0.0562 -0.4665 -0.2249
  171SAPS  H18R19422   5.389   4.983   5.435  1.6335  1.4671  4.2993
  171SAPS  H18S19423   5.287   4.956   5.587 -2.3413 -0.8924 -0.5919
  171SAPS  C21919424   5.185   4.923   5.393  0.4314 -0.9925 -0.1890
  171SAPS  H19R19425   5.158   5.026   5.365  1.8242 -1.1336 -2.2666
  171SAPS  H19S19426   5.091   4.881   5.436 -0.7023  2.2916  0.8200
  171SAPS  C22019427   5.195   4.853   5.250  0.2013  0.2673 -0.2312
  171SAPS  H20R19428   5.270   4.905   5.185  0.3448 -1.1027 -1.2016
  171SAPS  H20S19429   5.093   4.853   5.206  0.1116 -0.6133 -0.0248
  171SAPS  H20T19430   5.229   4.750   5.271  1.1346  0.5126 -0.4433
  171SAPS   C3319431   4.615   4.524   6.365  0.2092 -0.1182 -0.7698
  171SAPS   H3X19432   4.651   4.628   6.377  0.0685 -0.1744  0.1681
  171SAPS   H3Y19433   4.536   4.526   6.443  1.3303 -2.0063  0.4911
  171SAPS   C3419434   4.557   4.487   6.228  0.2366  0.1564  0.1126
  171SAPS   H4X19435   4.470   4.554   6.209 -1.1520 -0.6727  2.9546
  171SAPS   H4Y19436   4.511   4.386   6.232  0.4398  0.0694  0.2774
  171SAPS   C3519437   4.654   4.491   6.107  1.0912 -0.2204  0.3159
  171SAPS   H5X19438   4.732   4.412   6.116  1.0978 -0.5326 -1.8010
  171SAPS   H5Y19439   4.696   4.593   6.095  1.2835 -0.1669  1.3767
  171SAPS   C3619440   4.575   4.463   5.974 -0.1492 -0.1659  0.0719
  171SAPS   H6X19441   4.503   4.542   5.942  1.1206  0.6983 -0.7739
  171SAPS   H6Y19442   4.513   4.371   5.972 -0.0476 -0.2397 -2.2753
  171SAPS   C3719443   4.671   4.462   5.848 -0.4399  0.0151 -0.1271
  171SAPS   H7X19444   4.619   4.435   5.753 -0.0480  3.6403 -1.5444
  171SAPS   H7Y19445   4.752   4.388   5.863 -0.4555  0.0022 -0.1046
  171SAPS   C3819446   4.749   4.592   5.821 -0.0684 -0.2816 -0.5073
  171SAPS   H8X19447   4.817   4.604   5.908  0.1956 -3.1434 -0.2259
  171SAPS   H8Y19448   4.673   4.673   5.816  0.2523  0.2044  1.4700
  171SAPS   C3919449   4.827   4.595   5.688  0.1297 -0.6134  0.4404
  171SAPS   H9X19450   4.910   4.667   5.699 -0.3366  0.0713 -0.3898
  171SAPS   H9Y19451   4.754   4.650   5.625 -0.3424  0.9243  2.2375
  171SAPS  C31019452   4.888   4.469   5.627 -0.1728 -0.0231 -0.6983
  171SAPS  H10X19453   4.815   4.414   5.563  1.0930 -0.9885 -1.3570
  171SAPS  H10Y19454   4.911   4.388   5.699 -0.1484  0.4591 -0.1642
  171SAPS  C31119455   5.018   4.514   5.562 -0.8463 -0.1090  0.5255
  171SAPS  H11X19456   5.087   4.542   5.644 -2.2477 -0.0194  1.7068
  171SAPS  H11Y19457   4.995   4.592   5.486 -2.4877 -1.0904 -0.0371
  171SAPS  C31219458   5.087   4.392   5.495 -0.0728 -0.6517  0.1598
  171SAPS  H12X19459   5.009   4.334   5.441 -1.1396  2.0979 -1.4680
  171SAPS  H12Y19460   5.130   4.335   5.581 -2.1307 -0.6507  1.2422
  171SAPS  C31319461   5.195   4.435   5.399  0.0530  0.5781  0.3665
  171SAPS  H13X19462   5.273   4.486   5.459  2.5037 -2.1634 -0.2610
  171SAPS  H13Y19463   5.153   4.505   5.323 -0.1776  0.1569  0.1052
  171SAPS  C31419464   5.264   4.322   5.320  0.2112 -0.5485  0.5383
  171SAPS  H14X19465   5.350   4.342   5.252 -0.0320 -0.6043  0.2094
  171SAPS  H14Y19466   5.181   4.277   5.260  1.0584 -1.1671 -0.1917
  171SAPS  C31519467   5.305   4.199   5.402  0.2354  0.5473  0.0577
  171SAPS  H15X19468   5.213   4.157   5.449  0.4789  1.2035  1.1609
  171SAPS  H15Y19469   5.368   4.228   5.489  0.1570 -0.7188  0.5661
  171SAPS  C31619470   5.370   4.091   5.312  0.5872 -0.4381 -0.0585
  171SAPS  H16X19471   5.460   4.125   5.255  1.1562 -2.0209 -0.1483
  171SAPS  H16Y19472   5.301   4.062   5.230  0.8818  0.1135 -0.5102
  171SAPS  C31719473   5.415   3.975   5.401 -0.3052 -0.1573  0.5088
  171SAPS  H17X19474   5.319   3.955   5.453 -1.3723 -0.1994 -1.3759
  171SAPS  H17Y19475   5.496   3.996   5.473 -0.4225  0.0507  0.5799
  171SAPS  C31819476   5.464   3.856   5.315 -0.0908 -0.1954 -0.7416
  171SAPS  H18X19477   5.407   3.829   5.224 -1.1842 -2.6018  0.5651
  171SAPS  H18Y19478   5.470   3.766   5.380  2.1944 -0.6681 -1.5126
  171SAPS  H18Z19479   5.565   3.882   5.277  0.5225  0.8203  1.3825
  172SAPS     N19480   6.461   2.945   6.778 -1.4390  0.2356 -0.6297
  172SAPS   HN119481   6.440   2.910   6.683  0.5448 -2.6156 -0.1553
  172SAPS   HN219482   6.486   2.860   6.832 -0.3107  0.1241 -1.2890
  172SAPS   HN319483   6.379   2.992   6.821 -3.1035 -3.3632  0.4517
  172SAPS   C1219484   6.581   3.036   6.791  0.2280  0.5502 -0.3661
  172SAPS  H12A19485   6.581   3.063   6.895  3.0979  0.3032 -0.2188
  172SAPS   C1319486   6.721   2.969   6.783  0.6874  0.5645 -0.6264
  172SAPS  O13A19487   6.727   2.846   6.771  0.2053 -0.1930  0.9368
  172SAPS  O13B19488   6.813   3.048   6.805  0.2174  0.2533  0.3576
  172SAPS   C1119489   6.576   3.150   6.689 -0.5240 -0.8918  0.3375
  172SAPS  H11A19490   6.595   3.100   6.592 -3.1217 -0.4596 -0.4627
  172SAPS  H11B19491   6.664   3.216   6.709 -2.4951  2.2738 -0.5736
  172SAPS     P19492   6.419   3.366   6.727 -0.3726 -0.2976  0.1684
  172SAPS   O1319493   6.330   3.358   6.842 -0.3604 -0.4948  0.5182
  172SAPS   O1419494   6.540   3.449   6.757  0.3635 -0.6139  0.2687
  172SAPS   O1219495   6.449   3.219   6.690  0.3963  0.3257  0.1114
  172SAPS   O1119496   6.352   3.430   6.601 -0.3154 -0.2915  0.4807
  172SAPS    C119497   6.220   3.377   6.568 -0.2586  0.1941 -0.3745
  172SAPS    HA19498   6.226   3.266   6.565  0.5343  0.0990  2.3539
  172SAPS    HB19499   6.143   3.396   6.645  0.1056 -1.3303  0.4094
  172SAPS    C219500   6.157   3.443   6.441  0.7204 -0.2738 -0.0602
  172SAPS    HS19501   6.136   3.552   6.452 -0.2065 -0.1575 -2.3017
  172SAPS   O2119502   6.037   3.379   6.422 -0.1073  0.3967  0.7073
  172SAPS   C2119503   5.931   3.455   6.390 -0.0737  1.0287  0.3601
  172SAPS   O2219504   5.938   3.570   6.354 -0.1500 -0.3550  0.2842
  172SAPS   C2219505   5.797   3.384   6.423 -0.0511  0.2332  0.2380
  172SAPS   H2R19506   5.815   3.289   6.477  0.8258 -0.0437 -0.5253
  172SAPS   H2S19507   5.729   3.441   6.490 -0.2039 -0.3000  0.5440
  172SAPS    C319508   6.247   3.433   6.316 -0.5576  0.7797 -0.3293
  172SAPS    HX19509   6.252   3.323   6.300 -1.0733  0.1495  3.1373
  172SAPS    HY19510   6.349   3.473   6.336 -1.0796  2.5502 -1.0302
  172SAPS   O3119511   6.199   3.494   6.194  0.7449  0.2866 -0.3629
  172SAPS   C3119512   6.224   3.622   6.182  0.0843  0.2848 -0.4576
  172SAPS   O3219513   6.297   3.686   6.255  0.4707  0.4025  0.1765
  172SAPS   C3219514   6.145   3.674   6.059 -0.6273  0.5089 -0.0922
  172SAPS   H2X19515   6.039   3.659   6.087  0.2857  1.9041  5.1702
  172SAPS   H2Y19516   6.168   3.608   5.973  1.0908  0.7716  0.1188
  172SAPS   C2319517   5.709   3.351   6.293 -0.0811 -0.6146 -0.5609
  172SAPS   H3R19518   5.693   3.441   6.229 -1.9005 -1.1914 -0.9713
  172SAPS   H3S19519   5.608   3.335   6.338 -0.6149  1.6895 -0.7867
  172SAPS   C2419520   5.761   3.231   6.208  0.4587 -0.5161  0.1096
  172SAPS   H4R19521   5.679   3.205   6.137  3.0660 -1.8166 -2.6634
  172SAPS   H4S19522   5.763   3.145   6.278  1.0470 -0.1842  0.5029
  172SAPS   C2519523   5.884   3.256   6.132  0.1131 -0.7372 -0.0544
  172SAPS   H5R19524   5.976   3.213   6.175  2.0751  1.1225 -2.1346
  172SAPS   C2619525   5.902   3.334   6.025  0.1247 -0.8890  0.4645
  172SAPS   H6R19526   6.003   3.347   5.984 -0.1303  0.0587  0.0879
  172SAPS   C2719527   5.784   3.398   5.950  0.9243 -0.3357  0.4450
  172SAPS   H7R19528   5.729   3.474   6.009 -1.1316 -2.7012  1.7805
  172SAPS   H7S19529   5.701   3.324   5.945 -0.1542  0.8695 -0.1109
  172SAPS   C2819530   5.821   3.461   5.817  0.2381 -0.5267  0.5417
  172SAPS   H8R19531   5.841   3.569   5.807 -0.1403 -0.2845  2.0726
  172SAPS   C2919532   5.824   3.400   5.702  0.5473 -0.5461 -0.2101
  172SAPS   H9R19533   5.851   3.462   5.616  0.9722 -1.0554 -0.4510
  172SAPS  C21019534   5.810   3.247   5.674  0.7130  0.5472 -0.2057
  172SAPS  H10R19535   5.718   3.228   5.614 -0.1065  3.6532 -0.1068
  172SAPS  H10S19536   5.803   3.183   5.765 -2.2103 -0.2215 -0.8536
  172SAPS  C21119537   5.935   3.207   5.603 -1.2400 -0.0545  0.4491
  172SAPS  H11R19538   6.024   3.227   5.665 -0.9312  2.2959 -0.6576
  172SAPS  C21219539   5.946   3.176   5.474  0.3668  0.0437  0.5934
  172SAPS  H12R19540   6.045   3.147   5.435 -0.1490 -0.7514 -0.1601
  172SAPS  C21319541   5.841   3.158   5.371  1.1238 -0.2584  0.4241
  172SAPS  H13R19542   5.889   3.183   5.275  0.3714 -0.8089 -0.1111
  172SAPS  H13S19543   5.763   3.234   5.391  1.6591  0.0128  1.5529
  172SAPS  C21419544   5.787   3.013   5.364 -0.2302  0.7443  0.7744
  172SAPS  H14R19545   5.817   2.934   5.434  0.2579  1.2559  1.1550
  172SAPS  C21519546   5.701   2.969   5.267 -0.5503  0.0229 -0.3371
  172SAPS  H15R19547   5.655   2.869   5.267  0.9571 -0.7051 -0.8632
  172SAPS  C21619548   5.641   3.080   5.179 -0.5101  0.0760 -0.4843
  172SAPS  H16R19549   5.716   3.123   5.110 -1.0977  1.2547 -0.4142
  172SAPS  H16S19550   5.602   3.170   5.232  0.8375  0.4001  0.0022
  172SAPS  C21719551   5.530   3.029   5.086 -0.2641  0.5038 -0.1320
  172SAPS  H17R19552   5.501   3.113   5.019 -0.3959  1.6113  1.2692
  172SAPS  H17S19553   5.442   2.992   5.142  0.2836 -2.1414 -0.8686
  172SAPS  C21819554   5.575   2.916   4.991 -0.0958 -0.0567  0.6957
  172SAPS  H18R19555   5.587   2.818   5.043 -1.6336 -1.0165 -0.6495
  172SAPS  H18S19556   5.666   2.945   4.934 -1.7674  3.6251 -0.3858
  172SAPS  C21919557   5.470   2.898   4.886  0.3993  0.3161  0.3673
  172SAPS  H19R19558   5.482   2.975   4.807  1.2234  1.2585  1.3759
  172SAPS  H19S19559   5.368   2.911   4.928 -0.3032 -2.1544 -0.4308
  172SAPS  C22019560   5.477   2.766   4.804  0.7089  0.4035  0.3994
  172SAPS  H20R19561   5.494   2.679   4.872  2.1788 -0.1242 -0.5919
  172SAPS  H20S19562   5.560   2.758   4.730  0.6734  2.6889  0.0319
  172SAPS  H20T19563   5.380   2.759   4.752  0.7706  1.6945  0.0747
  172SAPS   C3319564   6.176   3.818   6.025 -0.5571  0.2704 -0.5180
  172SAPS   H3X19565   6.276   3.830   5.979 -0.7363 -0.1665 -1.0368
  172SAPS   H3Y19566   6.195   3.872   6.120  1.0277 -1.8296  0.4585
  172SAPS   C3419567   6.064   3.889   5.943 -0.2775 -0.5720 -0.2700
  172SAPS   H4X19568   6.076   3.997   5.922 -1.8331 -0.4677 -0.7280
  172SAPS   H4Y19569   5.960   3.875   5.980 -0.0661  0.3661  0.7286
  172SAPS   C3519570   6.055   3.818   5.804  0.4206 -0.9234  0.3579
  172SAPS   H5X19571   6.030   3.710   5.808  1.0855 -1.0630  1.1532
  172SAPS   H5Y19572   6.150   3.816   5.747  1.0780 -1.1072  1.4246
  172SAPS   C3619573   5.951   3.893   5.723 -0.4499  0.3314 -0.6251
  172SAPS   H6X19574   5.972   4.002   5.730 -0.8491  0.3222  1.0374
  172SAPS   H6Y19575   5.849   3.887   5.767  0.8968  2.0512  3.1944
  172SAPS   C3719576   5.946   3.841   5.578  0.3093 -0.4582 -0.4330
  172SAPS   H7X19577   5.910   3.736   5.586  2.4583 -1.2396 -0.3546
  172SAPS   H7Y19578   6.052   3.826   5.549  0.6564  0.3368  0.3628
  172SAPS   C3819579   5.869   3.926   5.474 -0.5384 -0.0625 -0.7322
  172SAPS   H8X19580   5.924   4.021   5.460  0.4611 -0.3572  0.8586
  172SAPS   H8Y19581   5.766   3.944   5.513 -1.8592 -1.7994 -3.1627
  172SAPS   C3919582   5.858   3.851   5.348 -0.2969  0.0777 -0.2878
  172SAPS   H9X19583   5.779   3.888   5.279 -0.7632 -0.9221 -0.2961
  172SAPS   H9Y19584   5.838   3.742   5.352 -1.1015  0.1653 -1.3861
  172SAPS  C31019585   5.981   3.868   5.266 -0.1510 -0.0624  0.3836
  172SAPS  H10X19586   6.068   3.815   5.312  0.0040 -0.1911 -0.0530
  172SAPS  H10Y19587   6.022   3.971   5.261  1.8602 -0.7792  0.8524
  172SAPS  C31119588   5.976   3.819   5.125 -0.3853 -0.8876 -0.3215
  172SAPS  H11X19589   5.873   3.814   5.083  0.1595  0.7004 -1.9814
  172SAPS  H11Y19590   6.034   3.726   5.110 -0.1381 -0.6289 -0.9979
  172SAPS  C31219591   6.056   3.909   5.021  0.5681  0.0791  0.1582
  172SAPS  H12X19592   6.161   3.923   5.055 -0.3646 -0.3341  3.6550
  172SAPS  H12Y19593   6.029   4.017   5.024 -1.1163 -0.3260  1.1534
  172SAPS  C31319594   6.053   3.843   4.875 -0.6667 -0.4424 -0.3426
  172SAPS  H13X19595   5.945   3.866   4.859 -0.6466 -1.4570 -2.1514
  172SAPS  H13Y19596   6.080   3.736   4.881  1.1956 -0.0713 -1.2843
  172SAPS  C31419597   6.151   3.920   4.784 -0.3329  0.2767  0.3672
  172SAPS  H14X19598   6.253   3.899   4.823 -1.0012  0.1318  2.1765
  172SAPS  H14Y19599   6.122   4.026   4.799  0.2293  0.3085  1.3595
  172SAPS  C31519600   6.117   3.885   4.642  0.0368 -0.7940  0.4204
  172SAPS  H15X19601   6.194   3.938   4.582  0.3701 -1.2362  0.4580
  172SAPS  H15Y19602   6.014   3.918   4.615  1.1819  1.2240 -1.9348
  172SAPS  C31619603   6.123   3.739   4.615 -0.2317 -0.3558 -0.2241
  172SAPS  H16X19604   6.221   3.698   4.649  0.8690  1.5615 -0.9275
  172SAPS  H16Y19605   6.046   3.680   4.669 -0.7739  0.5885  0.0498
  172SAPS  C31719606   6.105   3.714   4.465  1.1411  0.6942  0.1307
  172SAPS  H17X19607   6.122   3.606   4.442 -1.5678  0.0225  0.9198
  172SAPS  H17Y19608   6.181   3.774   4.411 -0.0079  0.9726 -1.2453
  172SAPS  C31819609   5.964   3.748   4.412 -0.2137 -0.0075  0.0196
  172SAPS  H18X19610   5.961   3.762   4.302 -1.2011  0.5453  0.1084
  172SAPS  H18Y19611   5.921   3.836   4.463 -3.0092 -1.7478  0.8847
  172SAPS  H18Z19612   5.890   3.667   4.430 -0.6875  0.5089  0.4145
  173SAPS     N19613   4.149   6.724   2.164  0.4985 -0.4507  0.4320
  173SAPS   HN119614   4.232   6.740   2.224  2.8106  1.2406 -2.8859
  173SAPS   HN219615   4.066   6.717   2.226 -0.1716 -1.4811 -0.5359
  173SAPS   HN319616   4.144   6.636   2.107 -0.4999  1.5130 -2.7892
  173SAPS   C1219617   4.119   6.842   2.073  0.0226  0.5730 -0.1794
  173SAPS  H12A19618   4.132   6.932   2.130  2.6381 -1.2700  2.4047
  173SAPS   C1319619   4.217   6.852   1.944  0.3183  0.7464 -0.0545
  173SAPS  O13A19620   4.311   6.769   1.930  0.4168  0.0738  0.5837
  173SAPS  O13B19621   4.196   6.944   1.863  0.6197  0.5616  0.2851
  173SAPS   C1119622   3.963   6.834   2.041 -0.3537  0.2829 -0.0944
  173SAPS  H11A19623   3.959   6.744   1.976  0.6262 -2.0416  2.8366
  173SAPS  H11B19624   3.935   6.923   1.981  1.2906  0.1414 -1.1250
  173SAPS     P19625   3.734   6.858   2.167 -0.4621 -0.0697  0.3095
  173SAPS   O1319626   3.707   6.940   2.049 -0.7060  0.4972  0.1217
  173SAPS   O1419627   3.663   6.735   2.177  0.3431  0.4500 -0.3462
  173SAPS   O1219628   3.886   6.814   2.161 -0.1219 -0.0413  0.1324
  173SAPS   O1119629   3.729   6.935   2.303  0.0861 -0.5656  0.3883
  173SAPS    C119630   3.850   6.937   2.387  0.3187 -0.4140 -0.8375
  173SAPS    HA19631   3.881   6.839   2.430  2.0969  1.0759  1.5579
  173SAPS    HB19632   3.929   6.989   2.329  0.0081  0.2089 -0.7093
  173SAPS    C219633   3.824   7.025   2.515  0.2722  0.2603 -0.3283
  173SAPS    HS19634   3.915   7.028   2.580 -0.0760  0.4794  0.1591
  173SAPS   O2119635   3.710   6.972   2.593 -0.0393  0.3601 -0.0770
  173SAPS   C2119636   3.747   6.862   2.662 -0.3575  0.7094  0.3659
  173SAPS   O2219637   3.861   6.822   2.680  0.0062 -0.0676  0.9190
  173SAPS   C2219638   3.631   6.804   2.743  0.5616  0.1554  0.8872
  173SAPS   H2R19639   3.543   6.871   2.736  0.5168  0.2741  2.2478
  173SAPS   H2S19640   3.611   6.697   2.723 -0.4041  0.6892 -1.2997
  173SAPS    C319641   3.794   7.176   2.484  0.0031 -0.4354 -0.3960
  173SAPS    HX19642   3.710   7.179   2.411 -0.3435  1.9980  0.0029
  173SAPS    HY19643   3.886   7.214   2.434 -0.0967 -0.3634 -0.5277
  173SAPS   O3119644   3.766   7.262   2.593 -0.3214 -0.5181 -0.3209
  173SAPS   C3119645   3.644   7.280   2.622 -0.4324  0.8374  0.8505
  173SAPS   O3219646   3.547   7.226   2.567 -0.4943  0.0401 -0.0496
  173SAPS   C3219647   3.633   7.392   2.723  0.0659  0.2417 -0.4805
  173SAPS   H2X19648   3.535   7.440   2.705 -0.9219 -1.5704 -0.1892
  173SAPS   H2Y19649   3.714   7.467   2.708  0.6072 -0.0940  0.6058
  173SAPS   C2319650   3.659   6.805   2.903  0.3393 -0.2252  0.5525
  173SAPS   H3R19651   3.759   6.759   2.918  0.7632  0.6081  0.3042
  173SAPS   H3S19652   3.589   6.728   2.942 -0.7252  0.4927  0.1078
  173SAPS   C2419653   3.652   6.943   2.971 -0.5512 -0.4000  0.0176
  173SAPS   H4R19654   3.732   7.003   2.924 -1.4515  1.2839  0.5673
  173SAPS   H4S19655   3.673   6.934   3.080 -0.2897 -0.5781 -0.0459
  173SAPS   C2519656   3.517   7.005   2.957  0.2732  0.7680 -0.6763
  173SAPS   H5R19657   3.493   7.031   2.852  0.4097 -1.0255 -1.1860
  173SAPS   C2619658   3.444   7.045   3.064  0.1644  0.1256  0.2655
  173SAPS   H6R19659   3.345   7.085   3.036  0.2470 -0.5927 -1.1171
  173SAPS   C2719660   3.466   7.021   3.214 -0.0020  0.4446 -0.3829
  173SAPS   H7R19661   3.568   6.991   3.247 -0.0315  0.6131 -0.1358
  173SAPS   H7S19662   3.399   6.940   3.252  1.0431 -1.1524 -1.8223
  173SAPS   C2819663   3.430   7.148   3.301  0.4673 -0.2862  0.3034
  173SAPS   H8R19664   3.383   7.234   3.251 -0.8540  0.0949  2.0882
  173SAPS   C2919665   3.459   7.170   3.434  0.3804 -0.5250 -0.8833
  173SAPS   H9R19666   3.432   7.265   3.482  0.7002 -0.8307 -0.0804
  173SAPS  C21019667   3.545   7.081   3.523 -0.6351 -0.4627 -0.1109
  173SAPS  H10R19668   3.639   7.063   3.468  0.5486 -2.2203  2.2921
  173SAPS  H10S19669   3.496   6.981   3.534  1.2067 -1.3818  0.1502
  173SAPS  C21119670   3.581   7.141   3.656 -0.2698  0.3338 -0.6112
  173SAPS  H11R19671   3.538   7.242   3.662 -1.6726 -0.3147  0.7256
  173SAPS  C21219672   3.657   7.083   3.749 -0.1318  0.1561 -0.0085
  173SAPS  H12R19673   3.685   7.133   3.843 -0.2959 -2.7575  1.6863
  173SAPS  C21319674   3.705   6.934   3.750  0.4054  0.0312 -0.3591
  173SAPS  H13R19675   3.677   6.880   3.657 -2.2289 -0.0984  0.4285
  173SAPS  H13S19676   3.668   6.881   3.841 -0.6429  0.5072 -0.4943
  173SAPS  C21419677   3.853   6.943   3.754  0.4744 -0.5148  0.0918
  173SAPS  H14R19678   3.892   6.973   3.655 -1.2732 -2.9032 -1.4284
  173SAPS  C21519679   3.939   6.919   3.852  0.3413 -0.8157 -0.5119
  173SAPS  H15R19680   4.047   6.927   3.833 -0.0602  2.3724 -1.9335
  173SAPS  C21619681   3.920   6.897   3.995 -0.1754  0.2674  0.0177
  173SAPS  H16R19682   3.815   6.911   4.030  0.1698  0.6008  0.9449
  173SAPS  H16S19683   3.981   6.964   4.059  0.3044 -1.9094  2.0107
  173SAPS  C21719684   3.950   6.750   4.032 -0.7226 -0.3871 -0.5432
  173SAPS  H17R19685   3.876   6.679   3.989  0.6637 -1.2820 -1.5630
  173SAPS  H17S19686   3.934   6.739   4.141  1.4958  1.3192  0.0265
  173SAPS  C21819687   4.090   6.692   4.018  0.3142 -0.1274  0.1957
  173SAPS  H18R19688   4.120   6.718   3.915 -0.9755  0.7444  0.0150
  173SAPS  H18S19689   4.085   6.582   4.032 -1.9573  0.0173  0.9189
  173SAPS  C21919690   4.191   6.755   4.109  0.5722  0.0952  0.3252
  173SAPS  H19R19691   4.151   6.748   4.212 -1.2438 -2.4338 -0.4574
  173SAPS  H19S19692   4.206   6.865   4.101  2.0955 -0.1152 -0.0667
  173SAPS  C22019693   4.325   6.681   4.116  0.1309 -0.2371 -0.0463
  173SAPS  H20R19694   4.306   6.579   4.156  0.0385 -0.4920 -0.7306
  173SAPS  H20S19695   4.396   6.732   4.185 -0.4570 -0.4939  0.7605
  173SAPS  H20T19696   4.371   6.676   4.015 -0.4448 -1.6915 -0.2551
  173SAPS   C3319697   3.633   7.354   2.879 -0.1762  0.2183  0.9447
  173SAPS   H3X19698   3.554   7.278   2.900  0.7154 -0.2428  2.9232
  173SAPS   H3Y19699   3.614   7.452   2.928  3.1385  0.3896  2.1930
  173SAPS   C3419700   3.752   7.295   2.947  0.5858 -0.2872 -0.2002
  173SAPS   H4X19701   3.833   7.369   2.929  0.4479  0.2460  1.2602
  173SAPS   H4Y19702   3.777   7.199   2.896 -0.7050  0.1009 -1.6464
  173SAPS   C3519703   3.729   7.265   3.097  0.2870  0.7715 -0.7421
  173SAPS   H5X19704   3.641   7.201   3.119 -0.2284  2.3974  2.4115
  173SAPS   H5Y19705   3.703   7.359   3.150  0.2525 -0.2257  1.1126
  173SAPS   C3619706   3.856   7.204   3.156  0.3043 -0.7625 -0.0948
  173SAPS   H6X19707   3.936   7.281   3.159  0.0789 -0.4177 -1.8531
  173SAPS   H6Y19708   3.894   7.128   3.085 -1.0737  0.0878 -1.8302
  173SAPS   C3719709   3.832   7.155   3.298 -0.0162 -0.3187  1.1686
  173SAPS   H7X19710   3.774   7.061   3.288  1.4084 -1.2215  0.9978
  173SAPS   H7Y19711   3.770   7.227   3.355  0.5805  2.2391 -1.1769
  173SAPS   C3819712   3.965   7.148   3.387  0.3638  0.2759  0.3201
  173SAPS   H8X19713   4.055   7.183   3.332 -0.2128 -0.7436 -1.3638
  173SAPS   H8Y19714   3.976   7.043   3.422 -1.2023  0.5070  1.6024
  173SAPS   C3919715   3.950   7.229   3.516  0.3326 -0.8998 -0.2482
  173SAPS   H9X19716   3.851   7.205   3.560  0.4363 -0.7927  0.0436
  173SAPS   H9Y19717   3.953   7.336   3.484 -1.0108 -0.3419  1.3383
  173SAPS  C31019718   4.063   7.217   3.613  0.1378  0.2055  0.1124
  173SAPS  H10X19719   4.153   7.261   3.565 -1.1473  0.9649 -1.7601
  173SAPS  H10Y19720   4.088   7.110   3.630  1.5259  0.5281  0.2081
  173SAPS  C31119721   4.018   7.284   3.748  0.2281  0.1641  0.3226
  173SAPS  H11X19722   3.910   7.260   3.762  0.6506 -1.9623  0.3478
  173SAPS  H11Y19723   4.019   7.390   3.717  1.2870 -0.2792 -1.2873
  173SAPS  C31219724   4.105   7.256   3.864 -0.5668 -0.3311 -0.0775
  173SAPS  H12X19725   4.206   7.297   3.841 -0.9916  1.0402  0.4094
  173SAPS  H12Y19726   4.112   7.146   3.876 -1.5826 -0.6041 -1.7084
  173SAPS  C31319727   4.046   7.321   3.996 -0.1449 -0.4783  0.2454
  173SAPS  H13X19728   4.070   7.251   4.079 -0.2043  1.5707  2.0974
  173SAPS  H13Y19729   3.936   7.333   3.989  0.0035  0.7641 -0.2840
  173SAPS  C31419730   4.097   7.464   4.023  0.8496 -0.1538  0.1871
  173SAPS  H14X19731   4.033   7.513   4.100 -0.2368  0.8370 -1.3015
  173SAPS  H14Y19732   4.076   7.518   3.928  0.0512 -1.7622 -0.5751
  173SAPS  C31519733   4.233   7.470   4.079  0.1036  0.4715  0.2358
  173SAPS  H15X19734   4.274   7.573   4.068  0.1299  0.4458  0.0879
  173SAPS  H15Y19735   4.302   7.414   4.012  0.3372 -0.9648  1.6345
  173SAPS  C31619736   4.242   7.430   4.225 -0.2994  0.2808 -0.7377
  173SAPS  H16X19737   4.352   7.429   4.242 -0.0479 -0.3796 -2.3002
  173SAPS  H16Y19738   4.199   7.329   4.243  0.1948  0.1981  0.0452
  173SAPS  C31719739   4.192   7.532   4.333  0.0685 -0.4698 -0.9263
  173SAPS  H17X19740   4.081   7.531   4.320 -0.0857 -2.9579  0.0289
  173SAPS  H17Y19741   4.226   7.634   4.304 -0.4811  0.6960  2.1563
  173SAPS  C31819742   4.223   7.497   4.479  0.3881  0.5446  0.7233
  173SAPS  H18X19743   4.199   7.584   4.544 -0.6767  0.9830 -0.2168
  173SAPS  H18Y19744   4.329   7.466   4.488  0.3833  0.6209  1.0567
  173SAPS  H18Z19745   4.160   7.416   4.522 -1.9063  2.1853  0.6647
  174SAPS     N19746   1.309   5.392   2.058  0.2202 -0.0626 -0.5165
  174SAPS   HN119747   1.242   5.320   2.025 -1.5707  1.5810 -0.6403
  174SAPS   HN219748   1.398   5.341   2.042  1.2995  1.8773 -1.0817
  174SAPS   HN319749   1.294   5.402   2.160 -2.6116  0.3760 -0.8961
  174SAPS   C1219750   1.300   5.521   1.981  0.8307  0.6440  0.3342
  174SAPS  H12A19751   1.375   5.591   2.015  3.0741 -2.0756  1.3209
  174SAPS   C1319752   1.313   5.510   1.830 -0.4780 -0.1467 -0.0659
  174SAPS  O13A19753   1.336   5.392   1.783 -0.2629 -0.2776  0.3176
  174SAPS  O13B19754   1.320   5.602   1.751  0.3159  0.4202  0.0254
  174SAPS   C1119755   1.166   5.590   2.020  0.3093 -0.4623  0.4206
  174SAPS  H11A19756   1.082   5.528   1.981 -0.2311  0.7388 -0.3792
  174SAPS  H11B19757   1.162   5.687   1.966 -0.7805 -2.7509 -4.0945
  174SAPS     P19758   1.210   5.722   2.253 -0.2798 -0.3940 -0.3648
  174SAPS   O1319759   1.170   5.850   2.194  0.1846  0.3510 -0.7829
  174SAPS   O1419760   1.162   5.703   2.394  0.2805  0.1919 -0.2889
  174SAPS   O1219761   1.158   5.607   2.164  0.1776  0.2402 -0.1854
  174SAPS   O1119762   1.370   5.712   2.243  0.1207  0.3200 -0.4985
  174SAPS    C119763   1.457   5.642   2.329 -0.6093 -0.4534  0.5501
  174SAPS    HA19764   1.416   5.547   2.370 -1.7719 -0.0761  0.2829
  174SAPS    HB19765   1.550   5.624   2.271 -0.6907  1.8858 -0.4351
  174SAPS    C219766   1.502   5.721   2.453  0.2178  0.1458  0.0930
  174SAPS    HS19767   1.410   5.746   2.511 -0.4024 -2.2588  0.2800
  174SAPS   O2119768   1.574   5.834   2.406 -0.7576 -0.3845 -0.5128
  174SAPS   C2119769   1.569   5.950   2.477  0.0230  0.0768  0.2993
  174SAPS   O2219770   1.516   5.968   2.582 -0.1481 -0.3266  0.0433
  174SAPS   C2219771   1.641   6.053   2.388 -0.6503 -0.5830  0.2003
  174SAPS   H2R19772   1.573   6.065   2.301  1.7039  0.6255 -1.5859
  174SAPS   H2S19773   1.641   6.144   2.452 -0.6648 -1.1911  1.0878
  174SAPS    C319774   1.580   5.625   2.557  0.6956  0.8206 -0.5149
  174SAPS    HX19775   1.681   5.603   2.517  0.5783 -0.0562 -0.3386
  174SAPS    HY19776   1.514   5.537   2.571  0.0273  1.3249 -0.4720
  174SAPS   O3119777   1.600   5.701   2.678  0.6212  0.8385 -0.4257
  174SAPS   C3119778   1.497   5.695   2.767  0.0190 -0.0866 -0.0191
  174SAPS   O3219779   1.387   5.642   2.753 -0.2410  0.3022 -0.0959
  174SAPS   C3219780   1.538   5.772   2.889  0.8273 -0.6111  0.5083
  174SAPS   H2X19781   1.551   5.874   2.847 -0.1363 -1.4271 -1.9272
  174SAPS   H2Y19782   1.636   5.731   2.920  1.7999  0.4603 -0.9781
  174SAPS   C2319783   1.786   6.012   2.348 -0.4595  0.0978  0.1031
  174SAPS   H3R19784   1.817   6.061   2.254  0.7168 -1.4773 -0.3825
  174SAPS   H3S19785   1.799   5.903   2.330  0.7855  0.1872  0.3817
  174SAPS   C2419786   1.888   6.052   2.457 -0.8487  0.1208 -0.4266
  174SAPS   H4R19787   1.898   6.163   2.466  3.6351 -0.1315 -0.0221
  174SAPS   H4S19788   1.989   6.034   2.416 -0.4081  0.2371  0.5891
  174SAPS   C2519789   1.871   5.981   2.590 -0.0137  0.0080  0.5504
  174SAPS   H5R19790   1.854   5.873   2.592  0.5603 -0.0819  2.0021
  174SAPS   C2619791   1.846   6.037   2.706  0.2279  0.3397  0.0717
  174SAPS   H6R19792   1.826   5.962   2.784 -1.4384 -1.5240 -2.0228
  174SAPS   C2719793   1.844   6.185   2.745 -0.2126 -0.1634  0.4065
  174SAPS   H7R19794   1.822   6.251   2.658  3.0355  0.7944  0.1755
  174SAPS   H7S19795   1.950   6.200   2.774  0.3626 -1.0778 -1.0822
  174SAPS   C2819796   1.734   6.204   2.841  0.1388 -0.1929 -1.0615
  174SAPS   H8R19797   1.635   6.219   2.796 -0.3557 -0.6842 -0.1501
  174SAPS   C2919798   1.744   6.193   2.974  0.2420 -0.2246 -0.3617
  174SAPS   H9R19799   1.658   6.219   3.037 -0.7516  2.1143 -2.4863
  174SAPS  C21019800   1.877   6.188   3.048  0.0176 -0.1254  0.2409
  174SAPS  H10R19801   1.891   6.280   3.108  2.2061 -0.6942  0.7081
  174SAPS  H10S19802   1.963   6.183   2.978 -0.0065  1.5445  0.0543
  174SAPS  C21119803   1.882   6.070   3.146  0.5642  0.4101 -0.7576
  174SAPS  H11R19804   1.881   5.969   3.102 -2.8507 -0.1109  0.2148
  174SAPS  C21219805   1.862   6.080   3.278  0.8044  0.3968 -0.3168
  174SAPS  H12R19806   1.837   5.999   3.348 -0.0249  0.4406 -0.5492
  174SAPS  C21319807   1.836   6.214   3.345 -0.2069  0.0052  0.0004
  174SAPS  H13R19808   1.735   6.255   3.325  0.5373  3.1088  1.9500
  174SAPS  H13S19809   1.906   6.291   3.307 -1.2973  2.0961  1.9562
  174SAPS  C21419810   1.845   6.222   3.495 -0.5922 -0.5056  0.3841
  174SAPS  H14R19811   1.928   6.281   3.535  1.0117 -3.0036  0.9420
  174SAPS  C21519812   1.761   6.168   3.589  0.2116  0.0413  0.0209
  174SAPS  H15R19813   1.790   6.172   3.695  1.2740  1.7156 -0.2928
  174SAPS  C21619814   1.640   6.083   3.561 -0.4735  0.5522 -0.1155
  174SAPS  H16R19815   1.654   5.991   3.623  2.7778  0.8024 -0.3399
  174SAPS  H16S19816   1.637   6.053   3.454  0.1683 -1.1430  0.3044
  174SAPS  C21719817   1.507   6.140   3.611 -0.4983 -0.2669  0.2250
  174SAPS  H17R19818   1.428   6.067   3.584 -0.6485 -1.2808  3.0514
  174SAPS  H17S19819   1.481   6.235   3.561 -1.0541  0.9628  2.6855
  174SAPS  C21819820   1.500   6.173   3.761 -0.2238  0.6739 -0.5244
  174SAPS  H18R19821   1.553   6.266   3.790  0.2483 -0.0568  1.0704
  174SAPS  H18S19822   1.552   6.093   3.818 -2.4983  0.2363  1.0678
  174SAPS  C21919823   1.354   6.171   3.816  0.8095  0.3989 -0.2074
  174SAPS  H19R19824   1.289   6.087   3.785  0.6000  1.1672 -1.9708
  174SAPS  H19S19825   1.320   6.267   3.773 -1.0611 -0.2020 -0.1878
  174SAPS  C22019826   1.364   6.162   3.971  0.4260  0.0493  0.3198
  174SAPS  H20R19827   1.297   6.237   4.019 -1.2231 -2.2441  1.8610
  174SAPS  H20S19828   1.471   6.178   3.994  0.9884 -0.6259 -1.6334
  174SAPS  H20T19829   1.330   6.064   4.011  1.6870 -0.4604  0.1728
  174SAPS   C3319830   1.428   5.770   2.993  0.3155 -0.0749 -1.1169
  174SAPS   H3X19831   1.373   5.674   3.001  0.3666 -0.1039 -1.1246
  174SAPS   H3Y19832   1.348   5.842   2.965 -0.0036  0.9591  1.9903
  174SAPS   C3419833   1.474   5.804   3.135 -0.6894  0.1153  0.4030
  174SAPS   H4X19834   1.493   5.913   3.142  0.5043 -0.0892  0.5346
  174SAPS   H4Y19835   1.569   5.756   3.167 -0.5725 -1.0318 -1.5247
  174SAPS   C3519836   1.378   5.767   3.245  0.0231 -0.0223  0.0452
  174SAPS   H5X19837   1.360   5.658   3.254 -0.2550  0.0408  0.2535
  174SAPS   H5Y19838   1.278   5.815   3.244 -0.6622 -1.3859  0.7840
  174SAPS   C3619839   1.433   5.819   3.384 -0.6098  0.1946 -0.5036
  174SAPS   H6X19840   1.395   5.920   3.409 -0.1944 -0.0170  1.0682
  174SAPS   H6Y19841   1.544   5.823   3.381 -0.5452  0.7476  1.3260
  174SAPS   C3719842   1.397   5.728   3.505 -0.5221 -0.1030  0.2897
  174SAPS   H7X19843   1.408   5.622   3.473 -1.3824 -0.0974 -0.0713
  174SAPS   H7Y19844   1.288   5.736   3.526 -0.3115 -1.1014  1.9567
  174SAPS   C3819845   1.477   5.755   3.634 -0.2898  0.6579 -1.0379
  174SAPS   H8X19846   1.475   5.859   3.674  2.6611  0.8980 -1.2559
  174SAPS   H8Y19847   1.581   5.728   3.603 -0.5946  0.0061 -1.4972
  174SAPS   C3919848   1.425   5.678   3.754 -0.4067  0.1033 -0.3105
  174SAPS   H9X19849   1.438   5.570   3.733  0.1052 -0.2674  1.6546
  174SAPS   H9Y19850   1.318   5.691   3.780  0.0154  0.1517  1.5532
  174SAPS  C31019851   1.509   5.716   3.872 -0.4226  0.6200  0.1033
  174SAPS  H10X19852   1.510   5.826   3.889  1.2602  0.3937  1.8455
  174SAPS  H10Y19853   1.615   5.692   3.848 -0.1455  0.9834  0.9197
  174SAPS  C31119854   1.482   5.643   4.004 -0.1971 -0.0633  0.2172
  174SAPS  H11X19855   1.539   5.549   3.989  0.8813  0.0649  2.8030
  174SAPS  H11Y19856   1.374   5.619   4.015 -0.5015  1.4618  0.9643
  174SAPS  C31219857   1.533   5.709   4.135 -0.3455  0.2213 -0.4977
  174SAPS  H12X19858   1.638   5.745   4.129  0.1070 -1.0209 -0.3243
  174SAPS  H12Y19859   1.527   5.635   4.217 -1.8443  1.0967  0.2390
  174SAPS  C31319860   1.455   5.842   4.165  0.4318  0.4590 -0.6021
  174SAPS  H13X19861   1.352   5.828   4.126 -0.5933 -1.1019  2.3414
  174SAPS  H13Y19862   1.507   5.920   4.105 -0.8704  0.7657 -1.3618
  174SAPS  C31419863   1.442   5.894   4.310 -0.3151  0.2686 -0.4233
  174SAPS  H14X19864   1.543   5.883   4.353 -0.5729  1.1000  0.4481
  174SAPS  H14Y19865   1.393   5.818   4.375 -0.5114  1.9914  1.5612
  174SAPS  C31519866   1.384   6.027   4.317 -0.2958 -0.8732 -0.1714
  174SAPS  H15X19867   1.284   6.029   4.269 -0.8906  2.3175  0.9635
  174SAPS  H15Y19868   1.450   6.090   4.253  1.4944 -1.8223  0.6545
  174SAPS  C31619869   1.367   6.089   4.456  0.0306  0.6070  0.3186
  174SAPS  H16X19870   1.370   6.200   4.452 -2.9728  0.7734  0.1302
  174SAPS  H16Y19871   1.444   6.039   4.519 -0.5732 -2.0057 -0.8844
  174SAPS  C31719872   1.227   6.054   4.516  0.1090  0.3128 -0.2883
  174SAPS  H17X19873   1.241   5.954   4.564  1.1169  0.8083  0.4772
  174SAPS  H17Y19874   1.149   6.062   4.437  0.1846  1.0847 -0.2906
  174SAPS  C31819875   1.203   6.150   4.635  0.1006  0.6368 -0.3716
  174SAPS  H18X19876   1.104   6.131   4.683  0.2913  0.9166  0.1311
  174SAPS  H18Y19877   1.212   6.260   4.627 -0.7372  0.7427 -0.0138
  174SAPS  H18Z19878   1.278   6.132   4.715  1.5375  0.3526 -1.7275
  175SAPS     N19879   3.539   4.223   2.607 -0.3599  0.0059 -0.2437
  175SAPS   HN119880   3.488   4.310   2.633  1.8955  1.3179  0.0260
  175SAPS   HN219881   3.640   4.242   2.620 -0.9100  2.3733  1.2369
  175SAPS   HN319882   3.521   4.214   2.505 -0.4624  0.4789 -0.2718
  175SAPS   C1219883   3.481   4.117   2.685  0.4488  0.4810 -0.6376
  175SAPS  H12A19884   3.482   4.154   2.786  0.2506 -3.0177  0.8070
  175SAPS   C1319885   3.338   4.075   2.637 -0.1333  0.1456  0.7940
  175SAPS  O13A19886   3.276   4.135   2.537 -0.5070  0.0389 -1.1307
  175SAPS  O13B19887   3.284   3.978   2.690 -0.0224  0.6517 -0.0744
  175SAPS   C1119888   3.571   3.989   2.686 -0.4130  0.5836  0.5731
  175SAPS  H11A19889   3.533   3.928   2.601 -1.4859 -1.8937  2.6709
  175SAPS  H11B19890   3.550   3.925   2.775 -0.7106 -0.6559 -0.3590
  175SAPS     P19891   3.812   3.934   2.596 -0.3178 -0.1086  0.1310
  175SAPS   O1319892   3.748   3.893   2.468 -0.1457 -0.4797 -0.5800
  175SAPS   O1419893   3.937   4.006   2.591 -0.1916 -0.6121  0.0645
  175SAPS   O1219894   3.707   4.018   2.686 -0.1901  0.0314  0.1735
  175SAPS   O1119895   3.836   3.811   2.692  0.0217  0.4212  0.2056
  175SAPS    C119896   3.895   3.848   2.816 -0.5761  0.6121 -0.1104
  175SAPS    HA19897   3.998   3.885   2.800  0.5432 -2.0227  0.4501
  175SAPS    HB19898   3.828   3.916   2.875  0.1385  0.9504  0.3255
  175SAPS    C219899   3.918   3.721   2.914  0.6429 -0.1401  0.9101
  175SAPS    HS19900   3.968   3.639   2.859  1.6560  2.2632 -2.0664
  175SAPS   O2119901   3.787   3.689   2.965  0.5508 -0.0691  0.2096
  175SAPS   C2119902   3.715   3.616   2.884  0.5151  0.6871  0.4360
  175SAPS   O2219903   3.754   3.543   2.794 -0.1498 -0.4104  0.3141
  175SAPS   C2219904   3.562   3.629   2.926  0.1848  0.3293 -0.6607
  175SAPS   H2R19905   3.545   3.558   3.010  0.6131  1.7080  0.6233
  175SAPS   H2S19906   3.532   3.730   2.960 -0.5384 -0.3131  0.6601
  175SAPS    C319907   4.011   3.753   3.041  0.1932  0.3613  1.1082
  175SAPS    HX19908   4.108   3.737   2.988 -1.6628 -3.0054 -1.7244
  175SAPS    HY19909   4.000   3.673   3.117 -0.3024 -0.8037 -0.1551
  175SAPS   O3119910   3.986   3.884   3.093 -0.2025  0.0215 -0.5888
  175SAPS   C3119911   4.047   3.908   3.211  0.1838 -0.0587 -0.0109
  175SAPS   O3219912   4.144   3.849   3.250  0.4647  1.1316  0.3358
  175SAPS   C3219913   3.977   4.026   3.280  0.2922  0.8702  0.4003
  175SAPS   H2X19914   3.871   3.994   3.285  0.7907 -0.7962  0.8627
  175SAPS   H2Y19915   3.992   4.106   3.204  0.7447 -0.5847 -1.0944
  175SAPS   C2319916   3.478   3.594   2.802 -0.4491  0.4774 -0.3889
  175SAPS   H3R19917   3.521   3.501   2.758  1.3397  0.1124  1.9261
  175SAPS   H3S19918   3.483   3.678   2.730  2.5112  2.5531  1.9823
  175SAPS   C2419919   3.332   3.560   2.844  0.4437  0.3292 -0.1936
  175SAPS   H4R19920   3.344   3.481   2.922  1.6369  0.6728 -0.0195
  175SAPS   H4S19921   3.274   3.519   2.759 -2.7665 -1.4294  2.5396
  175SAPS   C2519922   3.254   3.686   2.888 -0.3339  0.3365  0.1105
  175SAPS   H5R19923   3.268   3.768   2.816 -0.2278  1.6318  1.5466
  175SAPS   C2619924   3.205   3.699   3.009 -0.7216 -0.5426  0.2077
  175SAPS   H6R19925   3.166   3.799   3.033 -0.4523 -0.8448  2.0818
  175SAPS   C2719926   3.186   3.593   3.118  0.9183  0.4541  0.3006
  175SAPS   H7R19927   3.248   3.617   3.207  1.1934 -1.1057  0.5629
  175SAPS   H7S19928   3.226   3.497   3.080  2.2618  1.2621 -0.4256
  175SAPS   C2819929   3.036   3.570   3.150 -0.7144  0.2610 -0.0336
  175SAPS   H8R19930   2.966   3.539   3.071  0.3469 -0.5607 -0.6822
  175SAPS   C2919931   2.990   3.552   3.278  0.2342  0.3284 -0.9036
  175SAPS   H9R19932   2.884   3.526   3.291  0.0413  1.8110  0.8905
  175SAPS  C21019933   3.081   3.561   3.401 -0.4437  0.2058  0.1810
  175SAPS  H10R19934   3.155   3.480   3.382 -0.2584  0.8361 -2.0737
  175SAPS  H10S19935   3.026   3.520   3.488  0.8943 -0.5666  0.6825
  175SAPS  C21119936   3.154   3.694   3.433 -0.3511  0.5097  0.6474
  175SAPS  H11R19937   3.172   3.767   3.352 -0.7963 -0.2947 -0.2009
  175SAPS  C21219938   3.210   3.720   3.547  0.4155 -0.7473 -0.0715
  175SAPS  H12R19939   3.260   3.817   3.562  1.1128 -1.0015 -0.7042
  175SAPS  C21319940   3.191   3.633   3.668  0.6632  0.1070 -0.4284
  175SAPS  H13R19941   3.291   3.625   3.715  1.4155 -0.7847 -2.1181
  175SAPS  H13S19942   3.166   3.528   3.640  0.0276  0.1276  0.0290
  175SAPS  C21419943   3.090   3.688   3.776  0.1770 -0.6510  1.3661
  175SAPS  H14R19944   3.117   3.788   3.812  0.1272  0.2812 -0.9864
  175SAPS  C21519945   2.970   3.637   3.801 -0.3119  0.0148 -0.2976
  175SAPS  H15R19946   2.901   3.688   3.870 -0.8786 -1.2427  0.0986
  175SAPS  C21619947   2.906   3.512   3.748 -0.6784  0.4467  0.0619
  175SAPS  H16R19948   2.855   3.453   3.827 -1.2622 -0.7379 -1.1613
  175SAPS  H16S19949   2.986   3.453   3.698  0.5193  1.2443  0.9871
  175SAPS  C21719950   2.798   3.543   3.647  0.2185  0.2695 -0.3009
  175SAPS  H17R19951   2.774   3.447   3.596  1.4351 -0.5171  0.5404
  175SAPS  H17S19952   2.826   3.625   3.579  0.2505  0.1653 -0.4126
  175SAPS  C21819953   2.669   3.584   3.711 -0.5787 -0.3757 -0.1011
  175SAPS  H18R19954   2.683   3.670   3.781 -0.7737 -1.1701  0.9361
  175SAPS  H18S19955   2.634   3.497   3.771  0.8651 -2.6003 -2.2988
  175SAPS  C21919956   2.557   3.612   3.613  0.3028  0.6682  0.2778
  175SAPS  H19R19957   2.566   3.535   3.533 -2.1644  2.6590 -2.0863
  175SAPS  H19S19958   2.571   3.706   3.555 -0.0642  0.5046 -0.0866
  175SAPS  C22019959   2.417   3.599   3.681 -0.7649  0.2321  0.8022
  175SAPS  H20R19960   2.399   3.494   3.714 -1.7078 -0.1699 -0.8818
  175SAPS  H20S19961   2.335   3.636   3.616 -1.3464 -1.9283  0.2292
  175SAPS  H20T19962   2.418   3.665   3.770 -0.5201 -0.6785  1.4853
  175SAPS   C3319963   4.042   4.064   3.423 -0.0823  0.1170  0.4999
  175SAPS   H3X19964   4.149   4.094   3.412  0.4653 -2.0952 -0.8558
  175SAPS   H3Y19965   4.039   3.970   3.482  0.8894  0.0981  0.5389
  175SAPS   C3419966   3.967   4.182   3.499 -0.0452  0.1444  0.1257
  175SAPS   H4X19967   3.862   4.144   3.501  0.0426 -0.0717  0.8681
  175SAPS   H4Y19968   3.979   4.279   3.446 -0.6536 -0.4712 -1.1970
  175SAPS   C3519969   4.017   4.204   3.642 -0.2424 -0.2599  0.1276
  175SAPS   H5X19970   4.127   4.209   3.655 -0.3668  0.5483  0.9469
  175SAPS   H5Y19971   3.990   4.112   3.700 -1.7897  0.5422  0.7416
  175SAPS   C3619972   3.965   4.331   3.704  0.0660  0.3335  0.0272
  175SAPS   H6X19973   3.854   4.330   3.702  0.0779 -0.0099 -0.6066
  175SAPS   H6Y19974   4.005   4.422   3.655  0.2383 -1.0907 -2.6531
  175SAPS   C3719975   4.006   4.351   3.854  0.6154 -0.0647 -1.2797
  175SAPS   H7X19976   3.975   4.452   3.889 -0.6847 -0.0264 -2.4502
  175SAPS   H7Y19977   4.116   4.337   3.863  0.3438 -2.5037 -1.2447
  175SAPS   C3819978   3.948   4.250   3.959 -0.6650  0.1702  0.1569
  175SAPS   H8X19979   3.984   4.150   3.927  3.1173  1.1670  0.7688
  175SAPS   H8Y19980   3.839   4.245   3.940 -0.7876 -0.9855  1.0785
  175SAPS   C3919981   4.001   4.276   4.100 -0.9465 -0.3814 -0.1301
  175SAPS   H9X19982   3.956   4.369   4.143  1.7040  0.6781  0.5647
  175SAPS   H9Y19983   4.112   4.287   4.103 -1.0022  0.6495  3.7072
  175SAPS  C31019984   3.971   4.160   4.201  0.0021  0.2779  0.1097
  175SAPS  H10X19985   4.002   4.064   4.154  0.2398  0.7358 -0.6965
  175SAPS  H10Y19986   3.860   4.150   4.207 -0.2490  2.1350 -0.7417
  175SAPS  C31119987   4.033   4.169   4.338 -0.0657 -0.4560  0.3663
  175SAPS  H11X19988   3.982   4.234   4.412 -1.7901 -0.5231 -0.7012
  175SAPS  H11Y19989   4.136   4.211   4.329 -1.3251  3.2100  1.2955
  175SAPS  C31219990   4.037   4.033   4.407  0.0516  0.3525  0.1331
  175SAPS  H12X19991   4.074   3.953   4.339  0.3891  0.5252  0.1128
  175SAPS  H12Y19992   3.932   4.007   4.431  0.7246 -1.7141  1.1232
  175SAPS  C31319993   4.121   4.032   4.533  0.3470  0.3842  0.3340
  175SAPS  H13X19994   4.086   4.106   4.607 -0.6152 -1.5375  1.8829
  175SAPS  H13Y19995   4.226   4.054   4.503 -0.3457  0.6056 -2.1596
  175SAPS  C31419996   4.117   3.897   4.612 -0.1100 -0.6907 -0.6254
  175SAPS  H14X19997   4.183   3.822   4.563 -0.1380  0.9797 -3.4079
  175SAPS  H14Y19998   4.013   3.856   4.615  0.0971 -1.1910 -0.0515
  175SAPS  C31519999   4.155   3.913   4.771 -0.4015 -0.0087  0.4589
  175SAPS  H15X20000   4.101   4.002   4.809 -0.0204  0.5713 -0.3559
  175SAPS  H15Y20001   4.263   3.936   4.777 -0.1817 -0.8263 -0.2724
  175SAPS  C31620002   4.123   3.787   4.847 -0.0059 -0.5342  0.0033
  175SAPS  H16X20003   4.012   3.791   4.854  0.0933  1.0515  1.0536
  175SAPS  H16Y20004   4.166   3.801   4.949  0.2743 -0.8676 -0.0682
  175SAPS  C31720005   4.171   3.650   4.790 -0.2211  1.4550  0.2861
  175SAPS  H17X20006   4.105   3.624   4.705 -0.0632 -1.2792  0.9081
  175SAPS  H17Y20007   4.145   3.570   4.863 -0.3843  0.7411 -0.5273
  175SAPS  C31820008   4.325   3.645   4.768 -0.8951 -0.0871  0.5094
  175SAPS  H18X20009   4.354   3.709   4.682 -0.5631 -0.9827 -0.0682
  175SAPS  H18Y20010   4.352   3.540   4.744  2.2139  1.1057 -1.9820
  175SAPS  H18Z20011   4.380   3.676   4.859  0.1841 -0.6826  0.0852
  176SAPS     N20012   2.670   4.493   2.697 -0.6931  0.6709  0.2377
  176SAPS   HN120013   2.571   4.467   2.713 -0.9110  1.2628 -0.1171
  176SAPS   HN220014   2.707   4.544   2.780 -1.2002  2.6920 -0.7121
  176SAPS   HN320015   2.684   4.567   2.625  1.1317  0.0988 -0.0389
  176SAPS   C1220016   2.746   4.366   2.672  0.3609  0.2013 -0.0916
  176SAPS  H12A20017   2.720   4.330   2.573  2.2026  0.5438 -0.7414
  176SAPS   C1320018   2.901   4.377   2.658 -0.2832 -0.7235  0.4780
  176SAPS  O13A20019   2.950   4.494   2.658 -0.5532  0.6858 -0.7638
  176SAPS  O13B20020   2.959   4.279   2.605  0.4373 -0.3254  0.0131
  176SAPS   C1120021   2.713   4.255   2.776  0.1190  0.2984 -0.1536
  176SAPS  H11A20022   2.749   4.291   2.875 -0.8183 -0.8216  0.6178
  176SAPS  H11B20023   2.780   4.169   2.755 -3.2551 -2.1680 -1.5201
  176SAPS     P20024   2.517   4.108   2.675  0.1989 -0.3634  0.4780
  176SAPS   O1320025   2.395   4.049   2.735  0.4955 -0.4467  0.8696
  176SAPS   O1420026   2.513   4.167   2.541 -0.2632  0.2136  0.4122
  176SAPS   O1220027   2.575   4.216   2.779  0.0685 -0.2288 -0.3152
  176SAPS   O1120028   2.630   3.991   2.675 -0.1518 -0.5407  0.0649
  176SAPS    C120029   2.615   3.889   2.762  0.0646 -0.4368 -0.3060
  176SAPS    HA20030   2.514   3.842   2.754 -0.6102  0.9206  0.0187
  176SAPS    HB20031   2.672   3.801   2.725  1.4221 -0.1385  1.0140
  176SAPS    C220032   2.648   3.920   2.910  0.2319  0.7674 -0.3336
  176SAPS    HS20033   2.579   4.001   2.944 -1.4997 -1.3511  1.4800
  176SAPS   O2120034   2.786   3.971   2.930  0.2318  0.2536 -0.0058
  176SAPS   C2120035   2.801   4.065   3.021 -0.1618 -0.3580 -0.1114
  176SAPS   O2220036   2.708   4.109   3.088 -0.0744 -0.2782  0.4085
  176SAPS   C2220037   2.954   4.096   3.037  0.0977 -0.0986  0.6321
  176SAPS   H2R20038   3.011   4.008   3.001 -0.2673  0.4643 -1.4586
  176SAPS   H2S20039   2.985   4.180   2.972  1.7796  1.2582  3.0048
  176SAPS    C320040   2.621   3.790   2.996  0.3068 -0.2979  0.0603
  176SAPS    HX20041   2.708   3.725   2.974  1.5458  1.1830  0.4186
  176SAPS    HY20042   2.525   3.742   2.967  0.0614 -2.2560  3.5164
  176SAPS   O3120043   2.618   3.813   3.142  0.1099  0.2110  0.8461
  176SAPS   C3120044   2.502   3.860   3.183 -0.7153 -0.8274  0.7916
  176SAPS   O3220045   2.404   3.869   3.110 -0.2913 -0.4129 -0.1621
  176SAPS   C3220046   2.507   3.895   3.333  0.9506 -0.0079  0.6734
  176SAPS   H2X20047   2.567   3.988   3.345  0.5237  0.1373  1.7937
  176SAPS   H2Y20048   2.532   3.803   3.390 -0.9654  0.1610  1.8626
  176SAPS   C2320049   2.992   4.128   3.176 -0.0951 -0.5863  0.4346
  176SAPS   H3R20050   2.920   4.193   3.230  1.2668 -0.3939  2.0934
  176SAPS   H3S20051   3.089   4.180   3.161  1.6133 -3.6609 -0.0966
  176SAPS   C2420052   3.022   4.003   3.254 -0.0016 -0.2413 -0.0847
  176SAPS   H4R20053   3.071   4.017   3.353 -1.6289 -1.2229  0.9036
  176SAPS   H4S20054   3.091   3.950   3.184  0.6604  0.8574 -0.2912
  176SAPS   C2520055   2.899   3.925   3.288 -0.0024 -0.4844  0.1032
  176SAPS   H5R20056   2.864   3.866   3.202 -0.2693  1.3330 -1.1044
  176SAPS   C2620057   2.839   3.908   3.411 -0.4557  0.4929  0.2132
  176SAPS   H6R20058   2.756   3.837   3.413 -0.6571  0.7392  0.8441
  176SAPS   C2720059   2.882   3.976   3.539  0.5229  0.1409  0.0773
  176SAPS   H7R20060   2.980   4.028   3.535  1.0429 -0.8912 -2.4708
  176SAPS   H7S20061   2.906   3.900   3.615 -1.1207  0.6664  1.1832
  176SAPS   C2820062   2.767   4.062   3.576 -0.8458 -0.2596 -0.6259
  176SAPS   H8R20063   2.717   4.114   3.493 -0.4307  0.3432 -0.4980
  176SAPS   C2920064   2.703   4.056   3.690 -0.3172 -0.2898 -0.2283
  176SAPS   H9R20065   2.618   4.125   3.699  1.5432  2.1193 -0.4177
  176SAPS  C21020066   2.733   3.972   3.814 -0.0556  0.0359  1.1170
  176SAPS  H10R20067   2.837   3.934   3.803  0.9254  2.4896  1.2913
  176SAPS  H10S20068   2.667   3.883   3.821  0.8495 -0.8180 -0.5054
  176SAPS  C21120069   2.752   4.060   3.934 -0.2983 -0.2131  0.2264
  176SAPS  H11R20070   2.683   4.145   3.941 -0.2867  0.2474 -3.3508
  176SAPS  C21220071   2.843   4.052   4.034 -0.0054  0.0515 -0.0126
  176SAPS  H12R20072   2.840   4.133   4.108 -0.4048  0.9662 -1.0048
  176SAPS  C21320073   2.963   3.954   4.046 -0.1758  0.6620  0.8154
  176SAPS  H13R20074   2.980   3.905   3.947  2.6901  0.9684  1.0645
  176SAPS  H13S20075   2.936   3.867   4.110 -0.0277  0.1313  0.1719
  176SAPS  C21420076   3.094   3.981   4.123  0.0453  0.1020  0.0449
  176SAPS  H14R20077   3.101   4.086   4.153 -4.4183  0.9755 -1.2688
  176SAPS  C21520078   3.194   3.894   4.155 -0.7782  0.7176 -0.2282
  176SAPS  H15R20079   3.288   3.934   4.194 -1.2890  2.3751 -0.6047
  176SAPS  C21620080   3.200   3.752   4.121  0.2799  0.2244 -0.5362
  176SAPS  H16R20081   3.112   3.723   4.060  0.5612 -1.6168 -0.1239
  176SAPS  H16S20082   3.195   3.686   4.210  0.3145 -0.2856 -0.9138
  176SAPS  C21720083   3.342   3.731   4.061  0.6232  0.1344 -0.0474
  176SAPS  H17R20084   3.435   3.763   4.112  0.4345 -0.3760  0.6277
  176SAPS  H17S20085   3.338   3.787   3.965  0.2313  1.0320  0.4878
  176SAPS  C21820086   3.369   3.584   4.026  0.2040 -0.0904  0.2275
  176SAPS  H18R20087   3.274   3.536   3.993 -0.4548 -0.0781  1.9722
  176SAPS  H18S20088   3.378   3.521   4.117 -0.1392 -2.3240 -1.2046
  176SAPS  C21920089   3.475   3.558   3.926 -0.9472 -0.3774 -0.8105
  176SAPS  H19R20090   3.477   3.649   3.861  0.2816 -1.8401 -2.9309
  176SAPS  H19S20091   3.458   3.470   3.861 -1.2019 -0.3871 -0.7315
  176SAPS  C22020092   3.617   3.537   3.987  0.1844  0.2825 -0.0665
  176SAPS  H20R20093   3.691   3.516   3.907  0.3092 -1.4358  0.4662
  176SAPS  H20S20094   3.610   3.448   4.053  1.0894 -2.2929 -3.1680
  176SAPS  H20T20095   3.650   3.623   4.049  0.4327 -1.1040  1.8132
  176SAPS   C3320096   2.357   3.923   3.367 -0.3221  0.4924 -0.4328
  176SAPS   H3X20097   2.294   3.832   3.355 -0.5161  0.3798  1.1399
  176SAPS   H3Y20098   2.314   4.001   3.301  1.1208  1.7042  0.0044
  176SAPS   C3420099   2.343   3.964   3.510 -0.4940  0.4301 -0.1421
  176SAPS   H4X20100   2.392   4.063   3.517  2.4904 -0.8074 -1.6436
  176SAPS   H4Y20101   2.405   3.898   3.574 -1.2905  0.3417  0.5591
  176SAPS   C3520102   2.198   3.952   3.555  0.9678 -0.0252 -0.5050
  176SAPS   H5X20103   2.166   3.846   3.548  0.4488  0.1277 -0.4561
  176SAPS   H5Y20104   2.129   4.005   3.486 -1.0770 -0.1307  1.3749
  176SAPS   C3620105   2.166   3.996   3.698 -0.1229  0.3977  0.0174
  176SAPS   H6X20106   2.062   3.959   3.710  0.4218 -1.2585 -0.2132
  176SAPS   H6Y20107   2.166   4.107   3.703  0.5020  0.3624  3.4563
  176SAPS   C3720108   2.260   3.949   3.808 -0.5535 -0.3623 -0.1266
  176SAPS   H7X20109   2.356   4.002   3.790 -2.2112  3.0354  0.4318
  176SAPS   H7Y20110   2.273   3.843   3.775 -1.5415 -0.1886 -1.1311
  176SAPS   C3820111   2.208   3.983   3.952 -0.7793  0.7779 -0.0018
  176SAPS   H8X20112   2.113   3.930   3.976 -0.0299 -0.1342  1.0729
  176SAPS   H8Y20113   2.188   4.092   3.950  2.8080  1.5677 -2.5171
  176SAPS   C3920114   2.315   3.971   4.061 -0.1474 -0.9161  0.5441
  176SAPS   H9X20115   2.268   4.014   4.151 -0.4192  0.7481 -0.3651
  176SAPS   H9Y20116   2.410   4.020   4.029 -0.5213 -0.0340  0.7908
  176SAPS  C31020117   2.352   3.825   4.086  0.2134 -0.1725  0.4246
  176SAPS  H10X20118   2.432   3.797   4.014 -0.2598 -0.2076 -0.0949
  176SAPS  H10Y20119   2.261   3.762   4.099 -1.5316  2.0901 -0.2057
  176SAPS  C31120120   2.414   3.809   4.225  0.4307 -0.2015  0.5449
  176SAPS  H11X20121   2.400   3.704   4.258  0.0789 -0.0430  0.9050
  176SAPS  H11Y20122   2.367   3.869   4.306  1.0044 -1.4705  1.8485
  176SAPS  C31220123   2.567   3.847   4.230 -0.0228  0.3842  0.1081
  176SAPS  H12X20124   2.581   3.956   4.221 -2.7888  1.0833  2.6255
  176SAPS  H12Y20125   2.631   3.800   4.152 -0.0635  1.6177 -0.6832
  176SAPS  C31320126   2.613   3.801   4.362 -0.2589  0.0277  0.2577
  176SAPS  H13X20127   2.592   3.694   4.386 -0.1361 -0.2069 -0.6417
  176SAPS  H13Y20128   2.563   3.856   4.444 -3.6533 -1.2394 -0.7813
  176SAPS  C31420129   2.764   3.809   4.366  0.3740  0.0387 -0.0412
  176SAPS  H14X20130   2.803   3.913   4.362 -0.2295  0.3223  1.0236
  176SAPS  H14Y20131   2.804   3.756   4.277  3.0130  0.1457  0.9908
  176SAPS  C31520132   2.828   3.744   4.491 -0.4496  0.6773 -0.3840
  176SAPS  H15X20133   2.781   3.644   4.494 -0.3228  0.6093 -0.6516
  176SAPS  H15Y20134   2.804   3.802   4.584  2.3862  0.4594  0.5766
  176SAPS  C31620135   2.986   3.743   4.480 -0.5723 -0.9511  0.0306
  176SAPS  H16X20136   2.996   3.851   4.456  2.7916 -1.7088 -2.6969
  176SAPS  H16Y20137   3.023   3.679   4.397  0.3820 -0.9373  0.4361
  176SAPS  C31720138   3.067   3.709   4.600 -0.6324  0.6361  0.2961
  176SAPS  H17X20139   3.174   3.707   4.570 -1.4178 -0.5897 -2.8181
  176SAPS  H17Y20140   3.059   3.602   4.630  2.5984  0.6885  1.8260
  176SAPS  C31820141   3.044   3.812   4.712 -0.4356 -0.1654  0.7918
  176SAPS  H18X20142   2.943   3.819   4.757 -0.2506 -1.9241  1.5671
  176SAPS  H18Y20143   3.073   3.911   4.671 -0.5136 -0.7263 -0.7145
  176SAPS  H18Z20144   3.113   3.793   4.796  1.6511  0.2894 -0.7574
  177SAPS     N20145   4.923   4.826   3.032 -0.0600 -0.1918 -0.1607
  177SAPS   HN120146   4.840   4.801   3.090  1.4113 -1.5952  1.4478
  177SAPS   HN220147   5.000   4.851   3.097  0.8299  2.1430 -1.9961
  177SAPS   HN320148   4.909   4.901   2.962  1.0072 -0.2412 -0.4378
  177SAPS   C1220149   4.957   4.712   2.937  0.4886 -0.3930  0.2548
  177SAPS  H12A20150   4.875   4.708   2.867 -0.1359  1.3699  0.8189
  177SAPS   C1320151   5.086   4.730   2.849  0.1468 -0.1110 -0.7019
  177SAPS  O13A20152   5.163   4.823   2.881 -0.4249 -0.0481  0.0250
  177SAPS  O13B20153   5.114   4.651   2.760  0.5949 -0.2839  0.6576
  177SAPS   C1120154   4.953   4.573   3.012 -0.7819  0.2457  0.8895
  177SAPS  H11A20155   5.036   4.559   3.085 -0.7228  0.6329  0.9019
  177SAPS  H11B20156   4.981   4.487   2.949  0.2918 -0.4824  2.2901
  177SAPS     P20157   4.724   4.465   3.012 -0.1352  0.0351  0.0489
  177SAPS   O1320158   4.633   4.533   2.915 -0.1815  0.3995 -0.0126
  177SAPS   O1420159   4.795   4.342   2.961  0.3302  0.1400 -0.2221
  177SAPS   O1220160   4.829   4.566   3.080  0.4335 -0.1912 -0.0604
  177SAPS   O1120161   4.636   4.422   3.131  0.1219 -0.2339  0.4256
  177SAPS    C120162   4.660   4.326   3.229 -0.1388  0.6693 -0.6936
  177SAPS    HA20163   4.567   4.266   3.233 -0.3800  1.1211  0.9989
  177SAPS    HB20164   4.745   4.259   3.202 -1.0736 -1.2023  0.7802
  177SAPS    C220165   4.687   4.381   3.368  0.4389 -0.2181 -0.0541
  177SAPS    HS20166   4.593   4.439   3.382  0.4379 -0.0595 -0.6644
  177SAPS   O2120167   4.802   4.461   3.372 -0.3693  0.1375 -0.1021
  177SAPS   C2120168   4.785   4.566   3.442  0.3277  0.0339 -0.5849
  177SAPS   O2220169   4.685   4.600   3.504  0.5177 -0.5497 -0.4571
  177SAPS   C2220170   4.919   4.643   3.437 -0.6003 -0.0754 -0.2921
  177SAPS   H2R20171   4.976   4.575   3.370  0.5860 -0.4833  1.0910
  177SAPS   H2S20172   4.904   4.747   3.401 -0.4013  0.3117  0.7069
  177SAPS    C320173   4.681   4.265   3.467  0.2719  0.7490  0.0387
  177SAPS    HX20174   4.781   4.217   3.464 -0.0159  0.1924 -0.9351
  177SAPS    HY20175   4.608   4.189   3.432 -1.4040  2.3065  0.0121
  177SAPS   O3120176   4.669   4.300   3.605  1.0078  1.0139 -0.0394
  177SAPS   C3120177   4.540   4.331   3.640 -0.3840 -0.3476  0.2223
  177SAPS   O3220178   4.447   4.308   3.571  0.1190 -0.2367  0.8940
  177SAPS   C3220179   4.560   4.426   3.769 -0.3140 -0.1891  0.2256
  177SAPS   H2X20180   4.589   4.525   3.727 -1.4892 -0.7828 -2.1315
  177SAPS   H2Y20181   4.650   4.388   3.822  1.2340  0.5791 -1.7210
  177SAPS   C2320182   4.978   4.658   3.579  0.1452 -0.1807 -0.2696
  177SAPS   H3R20183   5.027   4.561   3.607  2.6123  0.9355 -0.4165
  177SAPS   H3S20184   4.905   4.699   3.652 -1.2919  1.1476 -2.3491
  177SAPS   C2420185   5.100   4.761   3.572 -0.0095 -0.3041  0.8645
  177SAPS   H4R20186   5.061   4.860   3.541  2.2857  1.5814  3.4899
  177SAPS   H4S20187   5.152   4.731   3.479 -0.1987 -1.4333  1.1123
  177SAPS   C2520188   5.170   4.771   3.697  0.3449 -0.1224 -0.3724
  177SAPS   H5R20189   5.112   4.835   3.764 -0.9946  0.0620 -1.6855
  177SAPS   C2620190   5.276   4.701   3.739 -0.3332  0.0068  0.0455
  177SAPS   H6R20191   5.305   4.728   3.842  0.0305  0.1969 -0.1022
  177SAPS   C2720192   5.357   4.612   3.646 -0.8139 -0.2227 -0.5280
  177SAPS   H7R20193   5.351   4.646   3.541 -1.0712  1.4341 -0.0102
  177SAPS   H7S20194   5.302   4.515   3.644 -0.4145 -0.4459 -2.3647
  177SAPS   C2820195   5.501   4.592   3.680 -0.1041 -0.8065 -0.0533
  177SAPS   H8R20196   5.553   4.689   3.677 -0.5117 -0.4482  2.2547
  177SAPS   C2920197   5.562   4.481   3.721 -0.2213 -0.3902 -0.6196
  177SAPS   H9R20198   5.667   4.489   3.753 -0.6490 -2.5308  1.5518
  177SAPS  C21020199   5.498   4.349   3.754 -0.5127 -0.3217  0.0685
  177SAPS  H10R20200   5.491   4.297   3.656 -0.4688 -2.0645  0.9412
  177SAPS  H10S20201   5.392   4.361   3.786 -0.6365  0.2041 -0.5227
  177SAPS  C21120202   5.582   4.270   3.858 -0.2451 -0.6601  0.2812
  177SAPS  H11R20203   5.684   4.250   3.821 -0.2920  1.1415 -0.9165
  177SAPS  C21220204   5.538   4.232   3.979  0.3593  0.0224 -0.1916
  177SAPS  H12R20205   5.607   4.186   4.051 -3.2030 -2.1764  2.1510
  177SAPS  C21320206   5.401   4.266   4.034  0.0718 -0.3511  0.3512
  177SAPS  H13R20207   5.333   4.184   4.001 -0.2366  0.1965 -0.4206
  177SAPS  H13S20208   5.359   4.356   3.982  0.2748 -0.9020 -0.7968
  177SAPS  C21420209   5.397   4.275   4.182  0.2017 -0.1149  0.3315
  177SAPS  H14R20210   5.423   4.376   4.218 -1.0436  1.3643 -2.5928
  177SAPS  C21520211   5.378   4.181   4.279 -0.3238 -0.3170 -0.1101
  177SAPS  H15R20212   5.391   4.215   4.382  1.9990  1.4789 -0.9173
  177SAPS  C21620213   5.350   4.036   4.265 -0.5143 -0.1415  0.0608
  177SAPS  H16R20214   5.349   3.993   4.162  1.7108 -2.5493  0.9383
  177SAPS  H16S20215   5.260   4.006   4.323 -0.4900 -1.9373 -0.7310
  177SAPS  C21720216   5.471   3.962   4.337 -0.5399 -0.2222  0.2157
  177SAPS  H17R20217   5.463   3.986   4.445 -1.9142  2.9397 -0.4819
  177SAPS  H17S20218   5.570   3.996   4.299 -0.7841 -1.2320 -1.4346
  177SAPS  C21820219   5.470   3.812   4.316 -1.2052  0.6785 -0.0537
  177SAPS  H18R20220   5.471   3.782   4.209  0.8322  1.8532 -0.4114
  177SAPS  H18S20221   5.370   3.782   4.353 -0.8741  2.0725  2.1542
  177SAPS  C21920222   5.583   3.734   4.389  0.0411  0.1263 -0.0474
  177SAPS  H19R20223   5.670   3.802   4.386 -0.6482  1.0042 -0.2614
  177SAPS  H19S20224   5.606   3.638   4.338  2.7470  0.8258 -0.2480
  177SAPS  C22020225   5.551   3.691   4.539 -0.0453  0.1617  0.0063
  177SAPS  H20R20226   5.451   3.643   4.545 -0.3681  0.5038 -2.0570
  177SAPS  H20S20227   5.556   3.781   4.604  1.4970  1.5769 -1.9506
  177SAPS  H20T20228   5.621   3.620   4.589 -0.7714  1.0500  2.4632
  177SAPS   C3320229   4.434   4.426   3.857 -0.8556 -0.0061 -0.0714
  177SAPS   H3X20230   4.416   4.318   3.875  2.1237 -0.2113  2.4908
  177SAPS   H3Y20231   4.352   4.474   3.799 -2.5999 -2.2621  0.3857
  177SAPS   C3420232   4.458   4.484   3.983  0.2454 -0.3728 -0.4423
  177SAPS   H4X20233   4.364   4.522   4.028 -0.0853  0.6510 -1.9244
  177SAPS   H4Y20234   4.524   4.572   3.967  1.2420 -1.1682 -0.8671
  177SAPS   C3520235   4.530   4.381   4.081 -0.2962  0.6244 -0.3789
  177SAPS   H5X20236   4.635   4.355   4.054 -0.1069  0.9174  0.0810
  177SAPS   H5Y20237   4.474   4.285   4.078 -0.7885  0.9280 -2.1386
  177SAPS   C3620238   4.524   4.449   4.222  0.0508 -0.7551  0.0365
  177SAPS   H6X20239   4.416   4.436   4.246  0.0778  0.6298  1.0329
  177SAPS   H6Y20240   4.552   4.557   4.222  1.5553 -1.1018  1.5475
  177SAPS   C3720241   4.589   4.371   4.337  0.0456 -0.3684  0.2293
  177SAPS   H7X20242   4.588   4.260   4.329 -0.6665 -0.2795 -1.1946
  177SAPS   H7Y20243   4.539   4.389   4.435  2.4908  0.0103  1.5082
  177SAPS   C3820244   4.741   4.397   4.345  0.1564 -0.4401  0.4535
  177SAPS   H8X20245   4.758   4.498   4.387  1.5483 -0.3298 -0.2795
  177SAPS   H8Y20246   4.782   4.395   4.241 -0.0894  1.0355  0.3163
  177SAPS   C3920247   4.814   4.294   4.431 -0.1937 -0.3861  0.1538
  177SAPS   H9X20248   4.800   4.190   4.396 -0.6634 -0.3478  0.2101
  177SAPS   H9Y20249   4.769   4.294   4.532 -1.2869 -1.3585 -0.3086
  177SAPS  C31020250   4.973   4.313   4.432 -0.2376 -1.3887 -0.0502
  177SAPS  H10X20251   5.004   4.308   4.326 -1.3012 -2.5738 -0.3189
  177SAPS  H10Y20252   5.037   4.242   4.488  1.3716 -0.4062 -0.5690
  177SAPS  C31120253   5.010   4.447   4.494  0.2116  0.4685  0.3233
  177SAPS  H11X20254   4.939   4.472   4.575 -0.4951 -1.0257  0.2010
  177SAPS  H11Y20255   4.981   4.525   4.420 -2.7623  0.1269  1.0208
  177SAPS  C31220256   5.157   4.460   4.529  0.3888 -0.4202 -0.4545
  177SAPS  H12X20257   5.221   4.408   4.455  1.6172 -0.8211  0.8467
  177SAPS  H12Y20258   5.164   4.413   4.630  0.1351  0.1822 -0.1450
  177SAPS  C31320259   5.199   4.616   4.530 -0.1599  0.0242  0.3397
  177SAPS  H13X20260   5.112   4.677   4.560  1.4002  3.1737 -0.9920
  177SAPS  H13Y20261   5.215   4.663   4.430 -0.7326  0.4714  0.4559
  177SAPS  C31420262   5.321   4.657   4.618  0.1110  0.0706 -0.5835
  177SAPS  H14X20263   5.347   4.764   4.600 -1.7089  0.5023 -0.9119
  177SAPS  H14Y20264   5.409   4.604   4.576  3.1092  4.3335 -0.3715
  177SAPS  C31520265   5.292   4.631   4.767 -0.0499  0.5035  0.4967
  177SAPS  H15X20266   5.267   4.524   4.778 -2.1189  0.6304 -1.9449
  177SAPS  H15Y20267   5.201   4.695   4.772 -0.9195 -0.6808  0.1632
  177SAPS  C31620268   5.384   4.690   4.870 -0.2756 -0.2894 -0.7442
  177SAPS  H16X20269   5.338   4.789   4.888 -1.9688 -1.5772  3.0780
  177SAPS  H16Y20270   5.481   4.701   4.816 -0.7098  0.8372 -1.3383
  177SAPS  C31720271   5.379   4.615   5.003  0.2859  0.2795 -0.5248
  177SAPS  H17X20272   5.372   4.506   4.984  0.3716  0.0387  0.7299
  177SAPS  H17Y20273   5.279   4.643   5.041  0.4948 -0.3626  0.5453
  177SAPS  C31820274   5.498   4.632   5.092 -0.4224 -0.1271 -0.0152
  177SAPS  H18X20275   5.485   4.574   5.186 -1.0456 -1.2878 -0.7948
  177SAPS  H18Y20276   5.533   4.736   5.109 -1.3809  0.1335  0.4689
  177SAPS  H18Z20277   5.581   4.578   5.041 -1.8370 -2.4225 -0.0177
  178SAPS     N20278   3.422   1.140   2.201 -0.1319 -0.2410  0.1790
  178SAPS   HN120279   3.481   1.090   2.271 -0.4426 -3.1490 -1.4406
  178SAPS   HN220280   3.333   1.089   2.217  1.1104 -1.7646  2.9030
  178SAPS   HN320281   3.459   1.129   2.104  0.8885 -0.3890  0.5716
  178SAPS   C1220282   3.414   1.285   2.239  0.4067  0.0032  0.0101
  178SAPS  H12A20283   3.446   1.296   2.342 -1.1504  1.1295  0.4013
  178SAPS   C1320284   3.512   1.378   2.156  0.3119 -0.5985 -0.0261
  178SAPS  O13A20285   3.595   1.315   2.085 -0.0932  0.7281 -0.4127
  178SAPS  O13B20286   3.490   1.497   2.150  0.7809 -0.1780  0.3718
  178SAPS   C1120287   3.268   1.322   2.216  0.3483 -0.2387  0.2303
  178SAPS  H11A20288   3.244   1.296   2.111  1.6613  1.4984 -0.5571
  178SAPS  H11B20289   3.259   1.432   2.228  1.5119  0.1937 -2.2755
  178SAPS     P20290   3.035   1.252   2.279 -0.2007  0.2756 -0.6965
  178SAPS   O1320291   3.001   1.359   2.184  0.1289 -0.2934  0.4482
  178SAPS   O1420292   2.987   1.115   2.254  0.0072 -0.2560  0.0621
  178SAPS   O1220293   3.191   1.253   2.314 -0.2200 -0.4480  0.5011
  178SAPS   O1120294   2.978   1.290   2.418 -0.1689 -1.0414 -0.0380
  178SAPS    C120295   3.040   1.247   2.547  0.4947 -0.2206  0.2330
  178SAPS    HA20296   3.147   1.273   2.556  0.6926 -0.7917 -0.3652
  178SAPS    HB20297   3.000   1.308   2.631 -1.8931 -2.0432  0.5122
  178SAPS    C220298   3.036   1.097   2.587  0.5549 -0.5090 -0.3622
  178SAPS    HS20299   3.058   1.034   2.498 -0.6299 -0.8866 -0.4126
  178SAPS   O2120300   2.896   1.062   2.619  0.0735  0.1722 -0.4231
  178SAPS   C2120301   2.870   0.932   2.642 -0.3358  0.1858  0.5105
  178SAPS   O2220302   2.957   0.843   2.635  0.0394  0.5205 -0.0410
  178SAPS   C2220303   2.722   0.913   2.685  0.2353 -0.8208 -0.0289
  178SAPS   H2R20304   2.654   0.969   2.617  2.9739 -1.3122 -3.4172
  178SAPS   H2S20305   2.699   0.804   2.675  1.3321 -0.9316 -1.9386
  178SAPS    C320306   3.138   1.062   2.702 -0.0346 -0.1056 -0.4737
  178SAPS    HX20307   3.235   1.096   2.661 -0.1644 -1.1703 -1.7267
  178SAPS    HY20308   3.141   0.957   2.737 -0.3860  0.1236  0.2757
  178SAPS   O3120309   3.093   1.142   2.819 -0.4542  1.0528 -0.0631
  178SAPS   C3120310   3.171   1.120   2.927  0.3206 -0.0799  0.7638
  178SAPS   O3220311   3.270   1.049   2.918  0.2584  0.9955  0.0547
  178SAPS   C3220312   3.153   1.217   3.034  0.2561 -0.2432  0.6013
  178SAPS   H2X20313   3.047   1.239   3.058  0.3889  3.6379 -1.6874
  178SAPS   H2Y20314   3.196   1.316   3.009  1.3884 -1.0923 -0.9816
  178SAPS   C2320315   2.713   0.951   2.831  0.2968 -0.7159  0.1097
  178SAPS   H3R20316   2.608   0.964   2.865 -0.1986 -2.0282 -0.8673
  178SAPS   H3S20317   2.765   1.046   2.856 -2.0697  0.5074  0.5821
  178SAPS   C2420318   2.786   0.836   2.913 -0.0485  0.1190 -0.0023
  178SAPS   H4R20319   2.892   0.865   2.896 -0.5054  1.0293 -1.5911
  178SAPS   H4S20320   2.758   0.733   2.883  1.4716 -0.8100  1.6122
  178SAPS   C2520321   2.754   0.853   3.059 -0.0667 -0.0266 -0.1902
  178SAPS   H5R20322   2.649   0.878   3.078 -0.1258  1.9906 -2.5750
  178SAPS   C2620323   2.840   0.847   3.166  0.3935  0.0450  0.3973
  178SAPS   H6R20324   2.790   0.856   3.263 -0.3992  2.9164 -0.1772
  178SAPS   C2720325   2.990   0.817   3.162 -0.4963  0.1245  0.4309
  178SAPS   H7R20326   3.040   0.889   3.231  0.3076 -1.1264  1.1960
  178SAPS   H7S20327   3.027   0.852   3.063  1.2947 -0.2335  0.9258
  178SAPS   C2820328   3.019   0.669   3.183 -0.0602 -0.2643  0.0723
  178SAPS   H8R20329   2.983   0.601   3.104  1.1052  0.4238 -1.1005
  178SAPS   C2920330   3.059   0.617   3.299 -0.1057 -0.5697  0.3780
  178SAPS   H9R20331   3.064   0.509   3.314 -0.6728 -0.5977  0.3730
  178SAPS  C21020332   3.089   0.696   3.423  0.1315 -0.2325  0.0655
  178SAPS  H10R20333   3.084   0.623   3.506 -0.3602 -0.9859 -0.6046
  178SAPS  H10S20334   3.002   0.761   3.449 -1.3809 -0.8131 -3.0483
  178SAPS  C21120335   3.217   0.776   3.428 -0.4847 -0.9980  0.1650
  178SAPS  H11R20336   3.268   0.793   3.332 -0.0574 -0.4596  0.4854
  178SAPS  C21220337   3.274   0.832   3.541  0.9378  0.4021  0.0985
  178SAPS  H12R20338   3.363   0.896   3.533  1.6831 -0.1739  2.6913
  178SAPS  C21320339   3.218   0.812   3.684  0.1540 -0.4279  0.4657
  178SAPS  H13R20340   3.297   0.829   3.761 -0.7333 -0.8320  1.4846
  178SAPS  H13S20341   3.185   0.707   3.690 -1.5425 -0.0130 -0.7792
  178SAPS  C21420342   3.103   0.909   3.714 -0.3668  0.0682  0.5519
  178SAPS  H14R20343   3.072   0.961   3.622  2.0422  1.6197  0.4984
  178SAPS  C21520344   3.063   0.951   3.831 -0.1183 -0.6982 -0.2649
  178SAPS  H15R20345   2.983   1.024   3.851 -0.5588 -1.5137  1.1419
  178SAPS  C21620346   3.121   0.899   3.967  0.5057 -0.5334 -0.4510
  178SAPS  H16R20347   3.202   0.824   3.956  1.5665  0.4010  0.6356
  178SAPS  H16S20348   3.041   0.852   4.029  0.0183 -0.9891 -1.4090
  178SAPS  C21720349   3.182   1.011   4.054 -0.4488  0.1802  0.5683
  178SAPS  H17R20350   3.122   1.104   4.040 -1.3873 -0.5691 -0.6238
  178SAPS  H17S20351   3.281   1.029   4.008 -1.0587 -0.9493 -1.2857
  178SAPS  C21820352   3.211   0.967   4.198 -0.5608 -0.1574  0.5111
  178SAPS  H18R20353   3.120   0.924   4.245 -1.8143  0.0527 -1.6024
  178SAPS  H18S20354   3.244   1.050   4.264  0.9680  0.5099 -1.0473
  178SAPS  C21920355   3.306   0.842   4.196  0.4281  0.0473  0.2924
  178SAPS  H19R20356   3.391   0.844   4.124 -0.2040 -0.5391 -0.4928
  178SAPS  H19S20357   3.248   0.751   4.171  2.4562 -1.1670 -0.2362
  178SAPS  C22020358   3.369   0.811   4.333  0.4050 -0.3382 -0.2902
  178SAPS  H20R20359   3.291   0.783   4.407 -0.3309  1.3727 -0.3565
  178SAPS  H20S20360   3.429   0.894   4.376  0.6039  1.0512 -3.0760
  178SAPS  H20T20361   3.428   0.718   4.320 -0.8145 -1.1310 -0.3190
  178SAPS   C3320362   3.202   1.158   3.168 -0.0028  0.3755  0.7857
  178SAPS   H3X20363   3.297   1.104   3.148 -0.4874 -0.2970  0.2864
  178SAPS   H3Y20364   3.133   1.079   3.205 -0.7866  0.2660 -0.8620
  178SAPS   C3420365   3.228   1.257   3.283  0.7514 -0.9771  0.5745
  178SAPS   H4X20366   3.132   1.307   3.309  1.1518 -0.0371  0.2486
  178SAPS   H4Y20367   3.305   1.331   3.253  0.8856 -1.2063  0.3482
  178SAPS   C3520368   3.282   1.180   3.407  0.1686 -0.6464  0.5478
  178SAPS   H5X20369   3.365   1.120   3.363  0.6347  0.2799  0.1449
  178SAPS   H5Y20370   3.205   1.110   3.445 -0.6215 -0.8318 -1.3224
  178SAPS   C3620371   3.321   1.275   3.512 -0.4903  0.2398  0.3284
  178SAPS   H6X20372   3.236   1.331   3.556 -0.4841  1.0520 -0.6670
  178SAPS   H6Y20373   3.381   1.358   3.471 -1.5307 -0.7809 -3.6899
  178SAPS   C3720374   3.390   1.204   3.627 -0.3946  0.2464 -0.1094
  178SAPS   H7X20375   3.498   1.176   3.620 -0.6004 -1.6518  2.7156
  178SAPS   H7Y20376   3.327   1.115   3.647  0.6933 -0.7344 -0.8796
  178SAPS   C3820377   3.380   1.289   3.754  0.0857 -0.1597 -0.6854
  178SAPS   H8X20378   3.287   1.265   3.811  0.2316  2.6460  0.9370
  178SAPS   H8Y20379   3.379   1.398   3.732  0.9315 -0.1366 -0.6261
  178SAPS   C3920380   3.502   1.274   3.844  0.1581  0.0596  0.0036
  178SAPS   H9X20381   3.597   1.299   3.792 -0.2441  0.0048 -0.7749
  178SAPS   H9Y20382   3.518   1.165   3.858 -0.4093 -0.7934 -4.3655
  178SAPS  C31020383   3.485   1.354   3.978 -0.2272 -0.0045 -0.8840
  178SAPS  H10X20384   3.387   1.336   4.027  0.1143  0.5162  0.0269
  178SAPS  H10Y20385   3.479   1.462   3.953 -1.1019 -0.1752 -1.4558
  178SAPS  C31120386   3.601   1.323   4.080 -0.5161  0.5197 -0.0324
  178SAPS  H11X20387   3.625   1.422   4.124  0.9495  0.0367  0.2978
  178SAPS  H11Y20388   3.695   1.298   4.027 -0.6185  0.1022 -0.0167
  178SAPS  C31220389   3.566   1.221   4.190  0.1060  0.3340 -0.2195
  178SAPS  H12X20390   3.554   1.120   4.146 -1.7327 -0.2855  1.5788
  178SAPS  H12Y20391   3.466   1.246   4.231  1.1350  1.2978  1.8610
  178SAPS  C31320392   3.668   1.212   4.304 -0.4080 -0.3024 -0.5795
  178SAPS  H13X20393   3.685   1.310   4.354 -1.5024 -0.7727  0.7884
  178SAPS  H13Y20394   3.760   1.170   4.258  0.3225  0.6280 -0.0163
  178SAPS  C31420395   3.619   1.102   4.409 -0.3946 -0.0940  0.3495
  178SAPS  H14X20396   3.638   1.002   4.363 -0.7140 -0.7649  1.6149
  178SAPS  H14Y20397   3.509   1.109   4.413 -0.6047  3.8147 -4.0366
  178SAPS  C31520398   3.682   1.127   4.545  0.1773 -0.5005 -0.7504
  178SAPS  H15X20399   3.643   1.215   4.600  0.7484 -0.0109 -1.1248
  178SAPS  H15Y20400   3.784   1.157   4.513  0.3536 -1.3691 -1.0439
  178SAPS  C31620401   3.690   1.007   4.638  0.5915  0.4572  0.3312
  178SAPS  H16X20402   3.733   0.923   4.580  0.6871 -0.0954  1.1821
  178SAPS  H16Y20403   3.584   0.993   4.668  1.0446  0.1974  1.9316
  178SAPS  C31720404   3.777   1.028   4.767  0.8116 -0.5607  0.1124
  178SAPS  H17X20405   3.734   1.104   4.836  1.5599  0.1074 -0.1414
  178SAPS  H17Y20406   3.871   1.073   4.730 -0.0522 -1.0692 -2.9454
  178SAPS  C31820407   3.802   0.896   4.842  0.1970  0.6499 -0.1231
  178SAPS  H18X20408   3.708   0.840   4.861  0.1630 -0.0061 -1.9811
  178SAPS  H18Y20409   3.845   0.935   4.937  1.8649  1.3234 -1.1152
  178SAPS  H18Z20410   3.886   0.838   4.799  0.1513  1.6788 -1.6745
  179SAPS     N20411   6.172   5.807   2.561 -0.1332  0.5123  0.1572
  179SAPS   HN120412   6.273   5.832   2.569  0.2113 -1.2523  2.0557
  179SAPS   HN220413   6.111   5.882   2.600 -1.7646  0.2153 -1.6582
  179SAPS   HN320414   6.167   5.710   2.596  0.6915  1.2850  2.5932
  179SAPS   C1220415   6.138   5.819   2.415 -0.1714  0.3195  0.0082
  179SAPS  H12A20416   6.073   5.736   2.389  0.4471  0.0368 -0.6646
  179SAPS   C1320417   6.060   5.946   2.386  0.4730 -0.9435  0.9987
  179SAPS  O13A20418   6.008   6.018   2.475  0.3555 -0.2307  0.1766
  179SAPS  O13B20419   6.033   5.974   2.261  0.4735  0.0565 -0.1999
  179SAPS   C1120420   6.272   5.811   2.335 -0.9360  0.4536 -0.1400
  179SAPS  H11A20421   6.248   5.809   2.227 -2.9998  2.9301  0.1854
  179SAPS  H11B20422   6.313   5.710   2.359  0.5364  1.1432  0.4059
  179SAPS     P20423   6.512   5.906   2.420 -0.1469  0.1076 -0.0023
  179SAPS   O1320424   6.589   5.806   2.344 -0.5784 -0.3708 -0.8569
  179SAPS   O1420425   6.572   6.044   2.444 -0.6676 -0.0512 -0.4140
  179SAPS   O1220426   6.372   5.918   2.356 -0.6275 -0.0905  0.2590
  179SAPS   O1120427   6.466   5.846   2.555 -0.3649 -0.2183 -0.1336
  179SAPS    C120428   6.559   5.832   2.662  0.1899 -0.2347 -0.3850
  179SAPS    HA20429   6.591   5.726   2.673 -0.2450 -0.3607 -0.3232
  179SAPS    HB20430   6.651   5.893   2.652  0.8440 -0.2682  3.7844
  179SAPS    C220431   6.486   5.889   2.790  0.0838 -0.8115  0.4528
  179SAPS    HS20432   6.383   5.848   2.782 -0.7073  1.1277  0.0778
  179SAPS   O2120433   6.495   6.035   2.797 -0.0850 -0.0905  0.2448
  179SAPS   C2120434   6.391   6.098   2.747 -0.0512 -0.3676  0.0960
  179SAPS   O2220435   6.286   6.051   2.718  0.2914  0.2357 -0.7555
  179SAPS   C2220436   6.430   6.249   2.754 -0.1083  0.3382  0.3800
  179SAPS   H2R20437   6.539   6.264   2.763 -0.1455 -0.7541  4.9971
  179SAPS   H2S20438   6.386   6.294   2.662 -1.3330 -1.9909 -0.2474
  179SAPS    C320439   6.550   5.829   2.919  0.2581  0.8224 -0.5529
  179SAPS    HX20440   6.638   5.887   2.954 -0.3648  1.3645  0.1599
  179SAPS    HY20441   6.579   5.725   2.894  3.5695  2.0461 -2.3711
  179SAPS   O3120442   6.443   5.847   3.021 -0.2615 -0.0576  0.1669
  179SAPS   C3120443   6.359   5.744   3.028 -0.1373 -0.7987 -0.4993
  179SAPS   O3220444   6.362   5.642   2.959  0.3474 -0.1251 -0.1119
  179SAPS   C3220445   6.265   5.771   3.145 -0.0639  0.1140 -0.3070
  179SAPS   H2X20446   6.260   5.881   3.159  0.6409  0.3352 -1.6521
  179SAPS   H2Y20447   6.301   5.722   3.238  0.1517 -1.6048 -1.2693
  179SAPS   C2320448   6.362   6.326   2.876  0.1873  0.3626  0.2546
  179SAPS   H3R20449   6.251   6.318   2.869  0.2732 -1.7940  0.5713
  179SAPS   H3S20450   6.387   6.434   2.868 -0.8717  0.5773 -0.2749
  179SAPS   C2420451   6.412   6.262   3.015 -0.6976  0.1215  0.5808
  179SAPS   H4R20452   6.522   6.274   3.013 -0.7187  0.1552 -0.9832
  179SAPS   H4S20453   6.392   6.152   3.015  1.4045 -0.3251  1.8343
  179SAPS   C2520454   6.339   6.329   3.127 -0.2851  0.1617  0.5379
  179SAPS   H5R20455   6.234   6.354   3.110  0.3267  3.1268  0.5139
  179SAPS   C2620456   6.386   6.408   3.225  0.5241  0.1005  0.1955
  179SAPS   H6R20457   6.313   6.454   3.293 -0.7400  0.2168 -1.1948
  179SAPS   C2720458   6.530   6.423   3.275  0.2838  0.4584  0.0848
  179SAPS   H7R20459   6.556   6.518   3.327 -1.9126  0.8592  0.5277
  179SAPS   H7S20460   6.593   6.429   3.184 -0.2462  0.1246 -0.3101
  179SAPS   C2820461   6.565   6.307   3.364  0.4435  0.3477 -0.3276
  179SAPS   H8R20462   6.547   6.207   3.323 -1.9472  1.2463 -1.7309
  179SAPS   C2920463   6.618   6.313   3.487  0.0961  0.4556  0.9545
  179SAPS   H9R20464   6.622   6.218   3.542 -0.6359 -1.5226 -2.1259
  179SAPS  C21020465   6.649   6.435   3.568 -0.0109 -0.5241 -0.3092
  179SAPS  H10R20466   6.581   6.519   3.541  1.7470  1.1142  0.1726
  179SAPS  H10S20467   6.751   6.467   3.539  0.4511 -0.9107  0.8565
  179SAPS  C21120468   6.658   6.410   3.715  0.0918 -0.0840 -0.7182
  179SAPS  H11R20469   6.744   6.353   3.755 -1.3943 -2.5935 -0.9313
  179SAPS  C21220470   6.561   6.426   3.802  0.8070  0.1125  0.0962
  179SAPS  H12R20471   6.596   6.409   3.905  1.2910  1.4341  0.1751
  179SAPS  C21320472   6.424   6.492   3.783  0.1922 -0.2908 -0.3114
  179SAPS  H13R20473   6.393   6.514   3.679  0.9773 -1.3766 -0.7801
  179SAPS  H13S20474   6.419   6.592   3.832 -1.6574 -0.6608  0.3638
  179SAPS  C21420475   6.319   6.406   3.855 -0.0766  0.2429  0.3699
  179SAPS  H14R20476   6.266   6.335   3.790  1.4849  1.2766 -2.1960
  179SAPS  C21520477   6.291   6.386   3.989 -1.0025 -0.9250 -0.2656
  179SAPS  H15R20478   6.221   6.305   4.015 -0.2552 -1.5108 -0.0318
  179SAPS  C21620479   6.340   6.463   4.109 -0.2840  0.5406  0.4746
  179SAPS  H16R20480   6.399   6.555   4.094 -0.3576  0.7075  1.1622
  179SAPS  H16S20481   6.419   6.401   4.158  0.1450 -1.7907 -2.8354
  179SAPS  C21720482   6.212   6.488   4.193 -0.2408 -0.3396 -0.0494
  179SAPS  H17R20483   6.156   6.394   4.207 -2.7377  0.3770 -3.7677
  179SAPS  H17S20484   6.142   6.557   4.140  0.7378  1.1658  0.5283
  179SAPS  C21820485   6.251   6.559   4.333  0.0352  0.5292 -0.0570
  179SAPS  H18R20486   6.310   6.652   4.318 -2.7641  2.4553 -0.0641
  179SAPS  H18S20487   6.309   6.487   4.395  0.3433  1.9539  1.3678
  179SAPS  C21920488   6.137   6.600   4.427  0.3259  0.0491  0.3878
  179SAPS  H19R20489   6.082   6.507   4.453 -1.7075  1.9234  3.4165
  179SAPS  H19S20490   6.063   6.651   4.362  1.0203 -1.1339 -1.4234
  179SAPS  C22020491   6.187   6.674   4.555  0.0889  0.2361 -0.1354
  179SAPS  H20R20492   6.099   6.708   4.615 -0.7156 -1.9140  0.0037
  179SAPS  H20S20493   6.249   6.762   4.530  2.2084 -1.1134  0.1593
  179SAPS  H20T20494   6.239   6.599   4.619 -1.1373 -0.5466 -0.0031
  179SAPS   C3320495   6.127   5.724   3.109  0.3530  0.0439  0.0749
  179SAPS   H3X20496   6.135   5.618   3.076  0.3244  0.2780 -0.7113
  179SAPS   H3Y20497   6.073   5.780   3.030 -1.2396 -0.6283  0.6627
  179SAPS   C3420498   6.021   5.734   3.217  0.0271 -0.1078  0.6591
  179SAPS   H4X20499   5.985   5.839   3.221  0.7855  0.2927 -1.6408
  179SAPS   H4Y20500   6.067   5.706   3.314  1.2442 -1.3884 -0.2489
  179SAPS   C3520501   5.901   5.642   3.199 -0.4426  0.0821 -0.2375
  179SAPS   H5X20502   5.912   5.539   3.240  2.4268 -0.4614 -2.0394
  179SAPS   H5Y20503   5.887   5.619   3.091  0.0715 -2.9609  0.2297
  179SAPS   C3620504   5.785   5.719   3.254 -0.0230 -0.1788 -0.2245
  179SAPS   H6X20505   5.760   5.803   3.187 -0.2782 -0.4698 -0.4967
  179SAPS   H6Y20506   5.811   5.756   3.355 -2.5303  0.6420  0.1964
  179SAPS   C3720507   5.658   5.634   3.283 -0.3240  0.3115 -0.3673
  179SAPS   H7X20508   5.678   5.536   3.331 -2.7109 -1.2807 -2.3641
  179SAPS   H7Y20509   5.604   5.626   3.186  0.1701  1.0942 -0.7248
  179SAPS   C3820510   5.562   5.714   3.377 -0.5266  0.3749 -0.1987
  179SAPS   H8X20511   5.535   5.804   3.319  0.9139  2.1141  1.6624
  179SAPS   H8Y20512   5.622   5.759   3.459 -0.0984 -0.4900 -0.0222
  179SAPS   C3920513   5.445   5.634   3.430  0.2001  0.3519 -0.2748
  179SAPS   H9X20514   5.494   5.556   3.492 -0.6733  0.4089  0.5030
  179SAPS   H9Y20515   5.392   5.580   3.348  0.2430 -2.5489  1.4802
  179SAPS  C31020516   5.350   5.712   3.517  0.3448 -0.6197  0.6017
  179SAPS  H10X20517   5.270   5.756   3.454 -1.1956 -1.4742  1.8536
  179SAPS  H10Y20518   5.402   5.797   3.565 -0.1874 -0.4867  0.9606
  179SAPS  C31120519   5.288   5.630   3.623  0.5942  0.1990 -0.3554
  179SAPS  H11X20520   5.377   5.580   3.667  0.9768 -0.3881 -1.7348
  179SAPS  H11Y20521   5.228   5.547   3.581 -0.4788 -0.0388  1.5223
  179SAPS  C31220522   5.212   5.711   3.725 -0.9214  0.2203  0.3240
  179SAPS  H12X20523   5.173   5.630   3.789  1.0407 -1.6721 -0.7323
  179SAPS  H12Y20524   5.118   5.757   3.688 -0.0966  3.0540  1.4537
  179SAPS  C31320525   5.289   5.802   3.817 -0.2694 -0.6718  0.4174
  179SAPS  H13X20526   5.282   5.910   3.791 -0.2473 -1.0594 -1.2915
  179SAPS  H13Y20527   5.395   5.770   3.813 -0.1608 -0.1958 -1.9618
  179SAPS  C31420528   5.254   5.794   3.967 -0.5697 -0.2515  0.1582
  179SAPS  H14X20529   5.240   5.689   3.999 -0.2270 -0.4685 -0.3882
  179SAPS  H14Y20530   5.154   5.842   3.971  0.7339  2.9085 -1.6404
  179SAPS  C31520531   5.357   5.876   4.048  0.3276 -0.1102 -0.5438
  179SAPS  H15X20532   5.364   5.984   4.023  1.3379  0.4785  1.9923
  179SAPS  H15Y20533   5.453   5.822   4.042  0.4570  0.2142 -1.5227
  179SAPS  C31620534   5.339   5.874   4.201  0.4082  0.3364 -0.2265
  179SAPS  H16X20535   5.306   5.772   4.230  4.4193 -0.7204  1.4101
  179SAPS  H16Y20536   5.254   5.942   4.222 -1.0656 -1.3580 -0.4519
  179SAPS  C31720537   5.466   5.924   4.275  0.4162 -0.5879  0.1786
  179SAPS  H17X20538   5.473   6.033   4.294  0.0419 -0.5001 -0.1580
  179SAPS  H17Y20539   5.547   5.910   4.199  0.1728 -0.5267 -0.0934
  179SAPS  C31820540   5.495   5.860   4.405  0.2595 -0.4633  0.2020
  179SAPS  H18X20541   5.403   5.865   4.466  0.5133  1.1737  0.4873
  179SAPS  H18Y20542   5.573   5.906   4.469  1.6040  0.8206 -2.2035
  179SAPS  H18Z20543   5.512   5.750   4.401  0.1426 -0.5396  1.4517
  180SAPS     N20544   6.795   5.620   2.397 -0.0455 -0.0497 -0.3785
  180SAPS   HN120545   6.733   5.701   2.375 -0.2418 -0.6784 -2.3364
  180SAPS   HN220546   6.803   5.618   2.501 -1.3063 -1.0669 -0.2742
  180SAPS   HN320547   6.882   5.654   2.352  0.0024 -0.6718 -0.7753
  180SAPS   C1220548   6.762   5.493   2.322  0.7179 -0.7683  0.3164
  180SAPS  H12A20549   6.682   5.513   2.252  0.9553 -1.0331 -0.0375
  180SAPS   C1320550   6.877   5.439   2.242  0.4865  0.4064 -0.5105
  180SAPS  O13A20551   6.997   5.466   2.262 -0.5442 -0.4981  0.2251
  180SAPS  O13B20552   6.852   5.349   2.157 -0.5209 -0.1845 -0.3313
  180SAPS   C1120553   6.711   5.390   2.431  0.4260  0.5707  0.7096
  180SAPS  H11A20554   6.791   5.375   2.507 -0.1067  0.8844  1.3382
  180SAPS  H11B20555   6.696   5.292   2.381 -1.2554  1.3518 -0.3915
  180SAPS     P20556   6.497   5.330   2.572 -0.2280 -0.6059 -0.1175
  180SAPS   O1320557   6.370   5.392   2.619 -0.2041  0.4327  0.2919
  180SAPS   O1420558   6.490   5.218   2.478 -0.2726  0.4083  0.1958
  180SAPS   O1220559   6.592   5.431   2.497 -0.8927  0.3541 -0.6917
  180SAPS   O1120560   6.586   5.285   2.699  0.1218  0.1460 -0.4601
  180SAPS    C120561   6.694   5.191   2.696  0.8011 -0.3061  0.2058
  180SAPS    HA20562   6.689   5.127   2.605 -0.0233 -0.4837  0.3670
  180SAPS    HB20563   6.790   5.247   2.694  0.3989  0.3935  0.1305
  180SAPS    C220564   6.697   5.098   2.817  0.8135 -0.3438 -0.8925
  180SAPS    HS20565   6.604   5.037   2.808  0.1369  0.6341 -0.7449
  180SAPS   O2120566   6.705   5.180   2.931 -0.2483 -0.5521 -0.2795
  180SAPS   C2120567   6.618   5.157   3.034 -0.2892  0.2140  0.7516
  180SAPS   O2220568   6.530   5.073   3.028 -0.1631 -0.2075 -0.1212
  180SAPS   C2220569   6.641   5.261   3.139  0.4541  0.1543 -0.1441
  180SAPS   H2R20570   6.722   5.225   3.206  0.6772  0.1541 -0.4121
  180SAPS   H2S20571   6.684   5.352   3.093 -1.9372  0.8313 -1.1469
  180SAPS    C320572   6.802   4.983   2.813  0.3570 -0.2316  0.1938
  180SAPS    HX20573   6.900   5.033   2.796 -0.1090  0.7433  0.3342
  180SAPS    HY20574   6.784   4.917   2.725 -0.3012 -1.7892  1.4448
  180SAPS   O3120575   6.803   4.934   2.947  0.1384  0.5085  0.7089
  180SAPS   C3120576   6.726   4.835   2.972  0.6979  0.1435  0.0741
  180SAPS   O3220577   6.667   4.762   2.898 -0.1942 -0.1210  0.4375
  180SAPS   C3220578   6.723   4.830   3.128 -0.2919  0.1031 -0.3329
  180SAPS   H2X20579   6.651   4.749   3.152 -2.3393  1.5530 -1.2659
  180SAPS   H2Y20580   6.680   4.919   3.178 -4.0656 -1.9945  0.5506
  180SAPS   C2320581   6.513   5.303   3.203  0.7032 -0.2583 -0.1561
  180SAPS   H3R20582   6.493   5.222   3.276 -0.9488  0.8875  0.7420
  180SAPS   H3S20583   6.434   5.321   3.127  1.2525 -0.4003 -0.7673
  180SAPS   C2420584   6.516   5.438   3.285 -0.1385  0.1752 -0.0208
  180SAPS   H4R20585   6.516   5.521   3.211 -0.8885 -0.6045 -0.9233
  180SAPS   H4S20586   6.619   5.418   3.321 -0.9000 -1.1884  1.5809
  180SAPS   C2520587   6.426   5.455   3.411  0.5592  0.0365  0.4477
  180SAPS   H5R20588   6.472   5.485   3.506 -0.4267 -2.4436  1.7990
  180SAPS   C2620589   6.290   5.432   3.403 -0.1338 -0.6985 -0.4619
  180SAPS   H6R20590   6.224   5.470   3.482  0.0122 -0.4304 -0.4680
  180SAPS   C2720591   6.211   5.391   3.284 -0.3385  0.7067 -0.0443
  180SAPS   H7R20592   6.249   5.437   3.190 -2.4552  0.3160 -1.1682
  180SAPS   H7S20593   6.108   5.432   3.278 -0.5842 -0.0336 -1.4851
  180SAPS   C2820594   6.205   5.238   3.276 -0.4200 -0.0311 -0.1831
  180SAPS   H8R20595   6.270   5.198   3.196 -0.4054  0.4533 -0.4183
  180SAPS   C2920596   6.096   5.167   3.319 -0.3275  0.7214  0.4506
  180SAPS   H9R20597   6.087   5.058   3.311 -1.0879  0.6776  1.6901
  180SAPS  C21020598   5.975   5.206   3.402 -0.7095 -0.8609  0.6246
  180SAPS  H10R20599   5.902   5.123   3.399 -0.2138 -1.2707 -1.5819
  180SAPS  H10S20600   5.927   5.290   3.348 -2.7357 -1.2202  1.7697
  180SAPS  C21120601   6.000   5.252   3.547  0.1344  0.4377 -0.5926
  180SAPS  H11R20602   6.062   5.188   3.610 -1.6813 -0.8945 -0.0569
  180SAPS  C21220603   5.947   5.357   3.610 -0.3190  0.2266 -0.2333
  180SAPS  H12R20604   5.974   5.374   3.715 -3.7908 -0.3675  0.8516
  180SAPS  C21320605   5.862   5.456   3.536 -0.0038  0.1623 -0.1105
  180SAPS  H13R20606   5.757   5.424   3.556 -0.0139 -0.1129 -0.6078
  180SAPS  H13S20607   5.885   5.452   3.428  0.9989 -0.2530  0.1080
  180SAPS  C21420608   5.894   5.596   3.588 -0.7294  0.2762  0.0309
  180SAPS  H14R20609   5.979   5.645   3.540 -0.9724 -0.0204 -0.7105
  180SAPS  C21520610   5.816   5.667   3.666 -0.6234  0.7100 -0.9193
  180SAPS  H15R20611   5.857   5.764   3.699 -0.4230  0.0404  0.9025
  180SAPS  C21620612   5.678   5.631   3.722 -0.5488 -0.4459 -0.5846
  180SAPS  H16R20613   5.642   5.529   3.694  2.0126 -1.4626 -0.4831
  180SAPS  H16S20614   5.605   5.692   3.665 -2.9129 -0.7356  1.9391
  180SAPS  C21720615   5.644   5.642   3.868 -0.0243 -0.2839  0.1771
  180SAPS  H17R20616   5.537   5.625   3.888 -0.2380  1.0170  0.1926
  180SAPS  H17S20617   5.653   5.747   3.902 -2.2916 -0.1729  0.5352
  180SAPS  C21820618   5.715   5.548   3.966 -0.0551  0.2329  0.4588
  180SAPS  H18R20619   5.825   5.556   3.948 -0.1936  0.4570 -0.3213
  180SAPS  H18S20620   5.692   5.443   3.938  0.3000  0.4711 -0.7876
  180SAPS  C21920621   5.669   5.564   4.117 -0.3481 -0.8059 -0.2192
  180SAPS  H19R20622   5.717   5.483   4.176  1.0601  1.1389  1.4513
  180SAPS  H19S20623   5.559   5.569   4.129 -0.3755 -0.9718 -0.3970
  180SAPS  C22020624   5.714   5.691   4.181 -0.1524 -0.4184  0.1638
  180SAPS  H20R20625   5.824   5.694   4.190 -0.2119 -0.4180  0.9165
  180SAPS  H20S20626   5.685   5.777   4.117  0.9353  1.2741  1.8437
  180SAPS  H20T20627   5.678   5.705   4.285  0.9914  3.2110  0.1871
  180SAPS   C3320628   6.852   4.788   3.200  0.0322  0.2391  0.1662
  180SAPS   H3X20629   6.900   4.713   3.134 -0.4790 -0.8937  1.0467
  180SAPS   H3Y20630   6.825   4.726   3.287 -1.6984 -1.5586 -1.5540
  180SAPS   C3420631   6.953   4.896   3.228  0.1245 -0.2558 -0.0997
  180SAPS   H4X20632   6.992   4.932   3.130 -1.0912  0.3580 -0.3800
  180SAPS   H4Y20633   7.034   4.838   3.278 -1.6393 -2.5690  0.2426
  180SAPS   C3520634   6.907   5.012   3.314  0.6406 -0.0851  0.1984
  180SAPS   H5X20635   6.816   5.064   3.278  0.9400  1.3023  1.3528
  180SAPS   H5Y20636   6.986   5.091   3.310 -0.8664  1.4294 -0.4984
  180SAPS   C3620637   6.879   4.978   3.463 -0.3060 -0.6486  0.8891
  180SAPS   H6X20638   6.964   4.913   3.493  0.1308 -0.3662  0.2705
  180SAPS   H6Y20639   6.793   4.907   3.453 -0.0279 -0.7441 -1.4527
  180SAPS   C3720640   6.873   5.093   3.558 -0.1549  0.2528 -0.4271
  180SAPS   H7X20641   6.962   5.157   3.539  0.7776 -1.2618 -1.4401
  180SAPS   H7Y20642   6.877   5.046   3.659  1.4308 -0.8578 -0.9447
  180SAPS   C3820643   6.751   5.185   3.555 -0.0475 -0.0043  0.0019
  180SAPS   H8X20644   6.659   5.124   3.568  0.7473 -1.2136  0.1359
  180SAPS   H8Y20645   6.735   5.243   3.462 -2.2254  2.2084  1.5981
  180SAPS   C3920646   6.740   5.282   3.676 -0.0557 -0.3749  0.4608
  180SAPS   H9X20647   6.699   5.232   3.767 -0.5967 -0.1484  0.3465
  180SAPS   H9Y20648   6.659   5.347   3.638  0.3237  0.8784  1.6927
  180SAPS  C31020649   6.869   5.367   3.696 -0.6239 -0.3289 -0.1908
  180SAPS  H10X20650   6.895   5.402   3.594  1.5117 -1.2690 -0.0147
  180SAPS  H10Y20651   6.946   5.297   3.734 -1.9100 -0.9932  1.2896
  180SAPS  C31120652   6.884   5.493   3.772 -0.0336 -0.6456  0.0579
  180SAPS  H11X20653   6.985   5.540   3.772  0.4148 -1.2660 -3.8966
  180SAPS  H11Y20654   6.861   5.482   3.880  1.4595 -0.6813  0.3859
  180SAPS  C31220655   6.787   5.604   3.724 -0.1266 -0.0221  0.5119
  180SAPS  H12X20656   6.683   5.568   3.736  0.4490 -1.7980  0.5409
  180SAPS  H12Y20657   6.815   5.622   3.618 -2.2113  0.7718  0.0433
  180SAPS  C31320658   6.814   5.737   3.791  0.2508 -0.5555 -0.4878
  180SAPS  H13X20659   6.891   5.797   3.738  1.9444  0.6371  2.9790
  180SAPS  H13Y20660   6.845   5.712   3.895 -1.0467 -1.7195 -0.3549
  180SAPS  C31420661   6.688   5.824   3.806  0.3148 -0.2903 -0.0286
  180SAPS  H14X20662   6.624   5.775   3.883  1.7372 -0.8667  0.8078
  180SAPS  H14Y20663   6.631   5.835   3.711 -0.5578  1.1818  0.6284
  180SAPS  C31520664   6.698   5.977   3.846 -0.0927  0.9947  0.3244
  180SAPS  H15X20665   6.780   6.003   3.775  1.3318 -1.2462  1.0154
  180SAPS  H15Y20666   6.742   5.991   3.947 -0.5173  1.0595  0.4999
  180SAPS  C31620667   6.571   6.067   3.843 -0.2357 -0.2589 -0.0355
  180SAPS  H16X20668   6.525   6.055   3.743  0.4045 -1.4532 -0.2036
  180SAPS  H16Y20669   6.593   6.176   3.848  1.3550 -0.2228 -3.9160
  180SAPS  C31720670   6.453   6.025   3.938 -0.1534 -0.4786 -1.3748
  180SAPS  H17X20671   6.451   5.914   3.936  1.8652 -0.6032  0.2548
  180SAPS  H17Y20672   6.356   6.070   3.906 -0.3317  0.2699  0.1086
  180SAPS  C31820673   6.477   6.070   4.080  0.0100  0.2370 -0.1787
  180SAPS  H18X20674   6.398   6.031   4.148  0.7679  1.4506  1.4878
  180SAPS  H18Y20675   6.476   6.181   4.087  2.0733  0.2927  0.0235
  180SAPS  H18Z20676   6.582   6.039   4.100 -0.6576 -1.9398  0.1621
  181POPC     N20677   6.023   6.438   6.993 -0.2089 -0.0075  0.9379
  181POPC   C1220678   6.035   6.386   6.847 -0.3371  0.1739  0.0881
  181POPC  H12A20679   5.968   6.303   6.833 -1.1862  0.9578 -0.6327
  181POPC  H12B20680   6.137   6.351   6.844 -1.4612 -3.3784 -0.3156
  181POPC   C1320681   6.106   6.547   7.039  0.0445  0.6514 -0.2011
  181POPC  H13A20682   6.211   6.521   7.045  0.0710  1.1324  1.9868
  181POPC  H13B20683   6.092   6.643   6.991 -0.4894 -0.5738 -2.6716
  181POPC  H13C20684   6.085   6.557   7.144  0.0550 -1.3997  0.0383
  181POPC   C1420685   5.879   6.484   7.016 -0.8973 -0.2586 -0.2933
  181POPC  H14A20686   5.809   6.405   6.993 -0.4357 -0.9659  0.6685
  181POPC  H14B20687   5.863   6.528   7.114  0.0624 -0.9875  0.2012
  181POPC  H14C20688   5.862   6.564   6.946 -1.5009  0.1669  0.3142
  181POPC   C1520689   6.043   6.328   7.088  0.1671  0.0425 -0.4291
  181POPC  H15A20690   5.960   6.259   7.094 -0.0725  0.3561 -0.0541
  181POPC  H15B20691   6.044   6.365   7.190  0.2627  0.1225 -0.4594
  181POPC  H15C20692   6.139   6.280   7.072  0.6093 -0.2762  2.5726
  181POPC   C1120693   6.018   6.482   6.724  0.1943  0.2487  0.3005
  181POPC  H11A20694   5.910   6.510   6.721  0.1638  0.3254  1.5007
  181POPC  H11B20695   6.043   6.416   6.639  0.0873 -0.6587  0.9610
  181POPC     P20696   6.246   6.588   6.685 -0.2712 -0.1689  0.2163
  181POPC   O1320697   6.294   6.451   6.702 -0.0297  0.2483 -0.4454
  181POPC   O1420698   6.322   6.693   6.761  0.5622 -0.3570 -0.3312
  181POPC   O1220699   6.096   6.603   6.730  0.2730  0.0156  0.4977
  181POPC   O1120700   6.242   6.614   6.525 -0.0622  0.3540  0.1409
  181POPC    C120701   6.194   6.745   6.481  1.1838 -0.0937  0.3494
  181POPC    HA20702   6.265   6.829   6.492 -0.0257  0.9932  0.1571
  181POPC    HB20703   6.110   6.768   6.550 -0.3740  1.5847 -1.9456
  181POPC    C220704   6.135   6.733   6.335 -0.3212 -0.2576  0.0335
  181POPC    HS20705   6.100   6.833   6.301 -0.9928 -0.9836 -1.4996
  181POPC   O2120706   6.017   6.647   6.326  0.3561 -0.1115 -0.2593
  181POPC   C2120707   5.911   6.697   6.381  0.2140 -0.5092  1.1131
  181POPC   O2220708   5.893   6.806   6.440 -0.7613  0.5643  0.2870
  181POPC   C2220709   5.800   6.584   6.373 -0.3368 -0.1101 -0.6450
  181POPC   H2R20710   5.825   6.498   6.439 -3.8663  1.0889  2.6796
  181POPC   H2S20711   5.803   6.537   6.273  0.3686 -0.7654 -0.3233
  181POPC    C320712   6.243   6.688   6.235 -0.2937  0.6277  0.3921
  181POPC    HX20713   6.295   6.600   6.278  1.2156  1.5309  0.5300
  181POPC    HY20714   6.325   6.763   6.248  1.5832 -0.9513 -1.5207
  181POPC   O3120715   6.211   6.687   6.095  0.0334  0.1746  0.1198
  181POPC   C3120716   6.171   6.570   6.053  0.5118  0.1764  0.1024
  181POPC   O3220717   6.173   6.464   6.113 -0.8736  0.0312 -0.2059
  181POPC   C3220718   6.118   6.587   5.905  0.9095 -0.1578  0.6235
  181POPC   H2X20719   6.008   6.573   5.913  0.8158 -0.0380 -0.3088
  181POPC   H2Y20720   6.151   6.495   5.851 -0.8929 -0.3152 -0.2656
  181POPC   C2320721   5.664   6.644   6.405 -0.0635  0.1727  0.1913
  181POPC   H3R20722   5.658   6.748   6.366 -0.5308 -0.1847 -0.7235
  181POPC   H3S20723   5.643   6.645   6.514  1.2904  0.3395  0.4801
  181POPC   C2420724   5.561   6.567   6.331  0.2375 -0.1248 -0.0353
  181POPC   H4R20725   5.547   6.474   6.390  4.0437  0.2041  1.6862
  181POPC   H4S20726   5.597   6.546   6.228 -1.2155 -0.5532 -0.4806
  181POPC   C2520727   5.434   6.646   6.311 -0.7695  0.3279  0.0019
  181POPC   H5R20728   5.471   6.731   6.250 -1.8884  0.6635 -0.2253
  181POPC   H5S20729   5.398   6.684   6.409  2.7835  0.5413  1.3714
  181POPC   C2620730   5.314   6.580   6.238 -0.0365  0.0402 -0.6185
  181POPC   H6R20731   5.237   6.660   6.246  1.0593  1.0135  0.5711
  181POPC   H6S20732   5.273   6.506   6.310  0.8190  0.7401  0.6330
  181POPC   C2720733   5.341   6.536   6.092  0.1995 -0.0608 -0.4942
  181POPC   H7R20734   5.438   6.483   6.106  0.8397  0.8822 -1.2815
  181POPC   H7S20735   5.364   6.630   6.037 -1.3780  0.2105 -0.7380
  181POPC   C2820736   5.228   6.451   6.026 -0.9456 -0.4323  0.4895
  181POPC   H8R20737   5.249   6.456   5.917 -0.6715  0.5242  0.5751
  181POPC   H8S20738   5.133   6.508   6.036 -0.0907  1.1580 -0.0845
  181POPC   C2920739   5.218   6.301   6.072 -0.2501  0.5130 -0.4561
  181POPC   H9120740   5.173   6.288   6.171  0.8865  0.6705  0.1016
  181POPC  C21020741   5.256   6.201   6.001  0.0392  0.8787 -0.7427
  181POPC  H10120742   5.239   6.102   6.046 -0.4877  0.6790 -1.3781
  181POPC  C21120743   5.344   6.204   5.878 -0.2049 -0.0144  0.1366
  181POPC  H11R20744   5.434   6.139   5.889 -0.4953 -0.1331  2.4316
  181POPC  H11S20745   5.386   6.305   5.860  0.7441 -0.6558 -1.4631
  181POPC  C21220746   5.257   6.169   5.753  0.0038 -0.3841  0.3471
  181POPC  H12R20747   5.174   6.243   5.750  0.0978 -0.2858  0.1949
  181POPC  H12S20748   5.213   6.068   5.744 -2.1430  0.3734  1.6162
  181POPC  C21320749   5.336   6.192   5.618 -0.3156 -0.2025 -0.1292
  181POPC  H13R20750   5.411   6.110   5.612 -0.9410 -0.6661 -2.3712
  181POPC  H13S20751   5.391   6.288   5.629 -1.3546  0.9458 -3.6829
  181POPC  C21420752   5.245   6.192   5.488 -0.7613 -0.1591  0.0849
  181POPC  H14R20753   5.162   6.264   5.500  1.2010  2.1155  0.8648
  181POPC  H14S20754   5.208   6.089   5.470  0.4130 -0.4280 -0.9325
  181POPC  C21520755   5.346   6.228   5.373  0.9294  0.2507 -0.6645
  181POPC  H15R20756   5.448   6.186   5.391  0.5763  0.2514  1.6913
  181POPC  H15S20757   5.351   6.339   5.373 -2.0410  0.5089  1.5313
  181POPC  C21620758   5.292   6.171   5.239  0.8622  0.4239  0.4218
  181POPC  H16R20759   5.189   6.212   5.234  1.1523  1.1267  0.0422
  181POPC  H16S20760   5.285   6.060   5.233 -2.4422  0.6401 -2.8074
  181POPC  C21720761   5.367   6.213   5.110 -0.7580 -0.4169 -0.2255
  181POPC  H17R20762   5.361   6.136   5.030 -0.8791 -0.8017  0.1516
  181POPC  H17S20763   5.470   6.223   5.148 -0.8483  1.6507 -0.3906
  181POPC  C21820764   5.307   6.344   5.059 -0.5099  0.1931 -0.7724
  181POPC  H18R20765   5.304   6.416   5.144  1.8310 -1.5769  0.9608
  181POPC  H18S20766   5.204   6.337   5.020  0.1832 -1.7786 -2.3946
  181POPC  H18T20767   5.366   6.395   4.980  3.1770 -1.5008  0.6180
  181POPC   C3320768   6.158   6.711   5.829  0.2362 -0.3214  0.0975
  181POPC   H3X20769   6.268   6.697   5.815  0.3872  0.0550  0.8501
  181POPC   H3Y20770   6.133   6.808   5.878  0.8086 -0.7395  1.2396
  181POPC   C3420771   6.092   6.714   5.694 -0.0336 -0.0314 -0.7283
  181POPC   H4X20772   5.986   6.742   5.711 -0.0450 -0.4760  0.0084
  181POPC   H4Y20773   6.100   6.622   5.633 -1.4756  1.7875 -3.9116
  181POPC   C3520774   6.146   6.824   5.594  0.0380  0.3738  0.5621
  181POPC   H5X20775   6.242   6.782   5.557  0.7330  1.8531  0.5860
  181POPC   H5Y20776   6.163   6.912   5.660 -2.0943 -0.5945  2.5479
  181POPC   C3620777   6.050   6.865   5.484 -0.5937  0.4799  0.0728
  181POPC   H6X20778   6.111   6.939   5.428 -0.2669 -0.7451 -1.2349
  181POPC   H6Y20779   5.966   6.912   5.540 -0.3007 -0.8492  1.7154
  181POPC   C3720780   6.014   6.744   5.395  0.2590 -0.4327  0.7610
  181POPC   H7X20781   5.923   6.696   5.438  1.9497 -4.2584  0.4253
  181POPC   H7Y20782   6.093   6.667   5.392 -1.1362 -1.9069  0.0341
  181POPC   C3820783   5.996   6.778   5.248  0.2844  0.3972  0.2720
  181POPC   H8X20784   6.100   6.799   5.213  1.7085 -0.6704  3.4839
  181POPC   H8Y20785   5.926   6.862   5.232 -0.2681 -0.4734 -2.5602
  181POPC   C3920786   5.944   6.657   5.161 -0.2296  0.3500  0.1874
  181POPC   H9X20787   5.863   6.611   5.222  1.1556 -1.6985  0.5753
  181POPC   H9Y20788   6.031   6.591   5.139  0.0346  1.5309 -2.7926
  181POPC  C31020789   5.885   6.709   5.027  0.0341  0.1602  0.6222
  181POPC  H10X20790   5.955   6.766   4.962  2.0458 -1.4868  1.2358
  181POPC  H10Y20791   5.809   6.785   5.057  0.6956  0.8743  0.5331
  181POPC  C31120792   5.809   6.600   4.939  0.8625  0.3816  0.3385
  181POPC  H11X20793   5.751   6.532   5.004 -1.4221  0.9137 -1.0311
  181POPC  H11Y20794   5.895   6.548   4.891  0.2541 -0.0028 -0.3664
  181POPC  C31220795   5.720   6.668   4.835  0.3654 -0.2354  0.0570
  181POPC  H12X20796   5.763   6.759   4.789 -0.5623 -1.0663 -2.6645
  181POPC  H12Y20797   5.622   6.685   4.885 -0.2208  3.3662 -1.9832
  181POPC  C31320798   5.691   6.564   4.717 -0.0056  0.2625 -1.2599
  181POPC  H13X20799   5.604   6.505   4.753  1.1960 -0.4841  0.6011
  181POPC  H13Y20800   5.774   6.491   4.708  1.2424  1.7427 -2.3006
  181POPC  C31420801   5.671   6.623   4.578  0.2839 -0.3877  0.3130
  181POPC  H14X20802   5.764   6.673   4.543 -0.4636  1.8903  1.3951
  181POPC  H14Y20803   5.595   6.703   4.588  0.1674 -0.4633  0.0386
  181POPC  C31520804   5.612   6.521   4.482  0.6439  0.3383  0.1604
  181POPC  H15X20805   5.577   6.573   4.390 -0.3777 -0.9420 -0.2123
  181POPC  H15Y20806   5.528   6.469   4.535  0.4908  1.9671  1.6111
  181POPC  C31620807   5.718   6.426   4.435 -0.1982  0.1396 -0.2347
  181POPC  H16X20808   5.673   6.342   4.378 -0.0460 -1.4642  1.8641
  181POPC  H16Y20809   5.770   6.375   4.519  0.4637  2.3081  0.7700
  181POPC  H16Z20810   5.806   6.470   4.383  0.0168 -0.5046 -0.4165
  182POPC     N20811   6.925   4.823   7.115 -0.4991 -0.2296  0.1926
  182POPC   C1220812   7.036   4.827   7.008  0.4285  0.1695 -0.1615
  182POPC  H12A20813   7.101   4.743   7.025  1.0203  0.8996  1.3545
  182POPC  H12B20814   7.092   4.918   7.025 -2.2452  1.5766  1.8750
  182POPC   C1320815   6.989   4.792   7.250 -0.1535  0.0035 -0.1508
  182POPC  H13A20816   7.053   4.708   7.230  0.1639  0.5904 -1.7218
  182POPC  H13B20817   7.053   4.867   7.295  2.2153 -1.2211 -1.2999
  182POPC  H13C20818   6.918   4.756   7.324 -0.7720  0.4554 -0.5114
  182POPC   C1420819   6.840   4.943   7.129 -0.5125 -0.6808  0.3544
  182POPC  H14A20820   6.772   4.931   7.211 -3.0255 -0.1532 -1.5222
  182POPC  H14B20821   6.908   5.026   7.143  3.1147 -3.1405 -1.0808
  182POPC  H14C20822   6.788   4.967   7.037  0.1789 -2.0111 -0.4181
  182POPC   C1520823   6.835   4.704   7.091  0.0185  0.4724  0.2849
  182POPC  H15A20824   6.757   4.701   7.165  0.2753  2.0126  0.6493
  182POPC  H15B20825   6.881   4.606   7.095 -0.1386  0.4283  1.1532
  182POPC  H15C20826   6.793   4.708   6.991  1.5151  1.6070 -0.3398
  182POPC   C1120827   7.001   4.845   6.854 -0.1049 -0.5246 -1.2123
  182POPC  H11A20828   7.090   4.854   6.788  1.6898  0.6556  1.2214
  182POPC  H11B20829   6.949   4.942   6.838 -0.1037  0.0035  1.5507
  182POPC     P20830   6.949   4.635   6.721  0.0548  0.2554 -0.0814
  182POPC   O1320831   6.830   4.568   6.657  0.4832  0.1933 -0.2565
  182POPC   O1420832   7.032   4.544   6.810  0.4936 -0.4190  0.3904
  182POPC   O1220833   6.900   4.751   6.815 -0.2025 -0.5248 -0.4025
  182POPC   O1120834   7.031   4.704   6.610  0.4392  0.1757 -0.4902
  182POPC    C120835   7.000   4.813   6.523 -0.0725 -0.7084 -0.0795
  182POPC    HA20836   7.090   4.867   6.487 -0.2391 -0.5267 -0.2237
  182POPC    HB20837   6.935   4.886   6.576  0.0654 -1.6595  1.4670
  182POPC    C220838   6.921   4.756   6.399 -0.2654 -0.3033  0.1624
  182POPC    HS20839   6.838   4.697   6.443 -1.3364  0.3798 -0.8692
  182POPC   O2120840   7.018   4.668   6.344  0.0637 -0.1707  0.4727
  182POPC   C2120841   6.979   4.559   6.293  0.6305 -0.4940  0.4974
  182POPC   O2220842   6.864   4.520   6.268  0.0723 -0.0039 -0.5781
  182POPC   C2220843   7.107   4.475   6.277 -0.3810  0.5601  0.0455
  182POPC   H2R20844   7.091   4.386   6.342  0.5943  1.2214  1.2353
  182POPC   H2S20845   7.195   4.529   6.318 -0.1144  0.1553  0.0168
  182POPC    C320846   6.879   4.869   6.297  0.3726 -0.5435 -0.7130
  182POPC    HX20847   6.958   4.946   6.298 -0.5421  0.4316  0.7260
  182POPC    HY20848   6.792   4.932   6.325 -0.3763 -0.4018 -3.1487
  182POPC   O3120849   6.860   4.825   6.158 -0.4296  0.6781 -0.1843
  182POPC   C3120850   6.843   4.922   6.065  0.3600  0.1794  0.3142
  182POPC   O3220851   6.853   5.039   6.084  0.3408  0.4581  0.0720
  182POPC   C3220852   6.818   4.859   5.925 -0.2320  0.0820 -0.4341
  182POPC   H2X20853   6.767   4.762   5.941 -2.2565  1.0923 -0.4061
  182POPC   H2Y20854   6.921   4.835   5.892 -0.4725 -0.1479 -1.0400
  182POPC   C2320855   7.141   4.435   6.128  0.3527 -0.2988  0.0235
  182POPC   H3R20856   7.234   4.374   6.130  1.4560  1.3010 -0.4945
  182POPC   H3S20857   7.166   4.528   6.073  0.7778  0.1261  0.9117
  182POPC   C2420858   7.033   4.350   6.055  0.5881 -0.7297 -0.3360
  182POPC   H4R20859   6.939   4.409   6.052 -0.2246 -2.0105 -2.6535
  182POPC   H4S20860   7.007   4.263   6.119  1.1104  0.8918  2.2168
  182POPC   C2520861   7.052   4.319   5.903 -0.2244 -0.4198 -0.3009
  182POPC   H5R20862   6.958   4.275   5.863 -0.6731  0.1120  0.1587
  182POPC   H5S20863   7.124   4.234   5.898  0.3744  0.0724 -0.1871
  182POPC   C2620864   7.088   4.437   5.811  0.0119 -0.2400 -0.1173
  182POPC   H6R20865   7.194   4.461   5.833  0.0934 -1.0632  0.4257
  182POPC   H6S20866   7.018   4.519   5.837 -1.3376 -1.1171 -0.8467
  182POPC   C2720867   7.074   4.394   5.665  0.2548 -0.6030 -0.1098
  182POPC   H7R20868   6.967   4.418   5.646 -0.0081 -0.7692  1.0960
  182POPC   H7S20869   7.082   4.284   5.666  0.9017 -0.5587  0.5689
  182POPC   C2820870   7.171   4.474   5.573  0.2229 -0.1177 -0.0186
  182POPC   H8R20871   7.272   4.452   5.615 -1.7902 -1.2216  4.9410
  182POPC   H8S20872   7.158   4.578   5.609  0.2437 -0.9355  2.5782
  182POPC   C2920873   7.143   4.460   5.421  0.0532  0.1314  0.2887
  182POPC   H9120874   7.156   4.364   5.370 -1.1371  0.5351 -0.8504
  182POPC  C21020875   7.082   4.555   5.349 -0.4390  0.1627  1.0922
  182POPC  H10120876   7.059   4.539   5.243  1.8974 -1.3365  0.7329
  182POPC  C21120877   7.030   4.688   5.401  0.7030  0.1271 -0.3510
  182POPC  H11R20878   7.008   4.680   5.509  0.5644 -0.9757 -0.4505
  182POPC  H11S20879   6.939   4.721   5.347 -0.0471  0.8107  1.2909
  182POPC  C21220880   7.126   4.805   5.370 -0.4916  0.3322 -0.0168
  182POPC  H12R20881   7.217   4.796   5.433  0.3828  2.2314 -0.9176
  182POPC  H12S20882   7.087   4.903   5.404  0.5842 -0.5231  4.1703
  182POPC  C21320883   7.185   4.828   5.230  0.2500 -0.3000  0.8450
  182POPC  H13R20884   7.255   4.754   5.186  1.1135  0.7038  0.4883
  182POPC  H13S20885   7.237   4.926   5.236  1.2749 -0.9012  2.7796
  182POPC  C21420886   7.070   4.846   5.132  1.0300  0.1342  0.6067
  182POPC  H14R20887   7.009   4.932   5.169  1.8749  0.8795  0.2914
  182POPC  H14S20888   7.010   4.753   5.137  0.3433  0.4941 -0.5130
  182POPC  C21520889   7.119   4.891   4.990  0.4119 -0.2007 -0.4275
  182POPC  H15R20890   7.202   4.824   4.957  1.0603  0.3424  0.0717
  182POPC  H15S20891   7.160   4.994   4.982 -0.2999  0.4708  2.9606
  182POPC  C21620892   7.017   4.882   4.874 -0.2679  0.1275  0.3732
  182POPC  H16R20893   7.005   4.771   4.866  0.4623  0.0581  0.1867
  182POPC  H16S20894   7.071   4.923   4.786  3.1941 -1.4979  1.5413
  182POPC  C21720895   6.891   4.957   4.907  0.4193 -0.0668 -0.0145
  182POPC  H17R20896   6.922   5.060   4.934  1.4168 -0.1675 -0.7024
  182POPC  H17S20897   6.843   4.916   4.998  2.4299  0.8770  1.5417
  182POPC  C21820898   6.783   4.958   4.796 -0.4354 -0.0021  0.7807
  182POPC  H18R20899   6.740   5.060   4.794 -1.3996 -0.3702  1.8297
  182POPC  H18S20900   6.706   4.879   4.802 -3.2900  2.3100 -2.0240
  182POPC  H18T20901   6.829   4.931   4.698 -2.2301 -1.1024  0.1868
  182POPC   C3320902   6.755   4.945   5.817  0.0540  0.3888 -0.0717
  182POPC   H3X20903   6.793   5.047   5.836  0.7265 -0.1730  1.8028
  182POPC   H3Y20904   6.645   4.955   5.827 -0.1172 -1.4053  0.2900
  182POPC   C3420905   6.785   4.899   5.673 -0.1084  0.3415  0.0627
  182POPC   H4X20906   6.755   4.793   5.665 -0.2801  0.4510 -0.8024
  182POPC   H4Y20907   6.895   4.904   5.661  0.0696 -0.1735  1.2969
  182POPC   C3520908   6.720   4.984   5.572  0.7684 -0.0794 -0.0804
  182POPC   H5X20909   6.769   5.084   5.572 -0.4599  0.5619 -1.3331
  182POPC   H5Y20910   6.610   4.994   5.582  1.0966  2.3506  1.9410
  182POPC   C3620911   6.743   4.924   5.430 -0.2879  0.6731 -0.0423
  182POPC   H6X20912   6.746   4.814   5.446 -1.1575  0.3716 -1.7147
  182POPC   H6Y20913   6.847   4.960   5.414  0.1221  0.5758  2.0943
  182POPC   C3720914   6.640   4.954   5.325  0.5998 -0.5053  0.6022
  182POPC   H7X20915   6.686   4.960   5.224 -3.6780 -0.1588 -1.5501
  182POPC   H7Y20916   6.590   5.053   5.335 -0.3199 -0.5951 -2.1715
  182POPC   C3820917   6.534   4.839   5.310  0.6890  0.2578  0.3918
  182POPC   H8X20918   6.496   4.814   5.412 -1.3737  0.3741 -0.2919
  182POPC   H8Y20919   6.583   4.743   5.282  0.9832  1.1290 -2.3978
  182POPC   C3920920   6.425   4.871   5.205 -0.1654  0.0808 -0.2287
  182POPC   H9X20921   6.354   4.940   5.256 -0.0976 -0.8986  1.2535
  182POPC   H9Y20922   6.370   4.776   5.188  0.6788 -0.6667  1.0436
  182POPC  C31020923   6.467   4.940   5.070  0.2152 -0.0551 -0.2644
  182POPC  H10X20924   6.546   4.885   5.015  1.6548  0.6510  1.0441
  182POPC  H10Y20925   6.510   5.042   5.081 -0.0757 -0.2084  3.7246
  182POPC  C31120926   6.345   4.957   4.979 -0.0824 -0.3493  0.1333
  182POPC  H11X20927   6.273   5.008   5.046 -0.6374 -3.2147  1.9012
  182POPC  H11Y20928   6.308   4.854   4.958 -1.3749 -0.0060  0.5892
  182POPC  C31220929   6.390   5.033   4.852 -0.0495 -0.8286  0.0123
  182POPC  H12X20930   6.484   4.994   4.806  1.0458  1.2671  0.3613
  182POPC  H12Y20931   6.408   5.138   4.883  0.1412 -0.2472 -1.9250
  182POPC  C31320932   6.287   5.040   4.733 -0.2400 -0.0391  0.5317
  182POPC  H13X20933   6.184   5.063   4.770 -0.3309 -2.4575  2.0252
  182POPC  H13Y20934   6.269   4.943   4.682  0.6044  0.2552 -0.3514
  182POPC  C31420935   6.302   5.137   4.617 -0.1460  0.0023  0.7486
  182POPC  H14X20936   6.409   5.137   4.589  0.4554 -0.6293  2.8731
  182POPC  H14Y20937   6.283   5.236   4.663  1.8592  0.4260  0.7592
  182POPC  C31520938   6.229   5.095   4.486 -0.3108 -0.6289 -0.0911
  182POPC  H15X20939   6.149   5.169   4.463  0.4495 -0.2162 -1.5444
  182POPC  H15Y20940   6.173   5.002   4.507  0.1264 -0.2987  2.9198
  182POPC  C31620941   6.327   5.075   4.367  0.8188 -0.4710 -0.0135
  182POPC  H16X20942   6.266   5.035   4.283  0.2320 -2.0051  1.0933
  182POPC  H16Y20943   6.406   5.001   4.392  0.3808 -0.6951  0.7339
  182POPC  H16Z20944   6.372   5.172   4.338  2.3489 -1.0175  0.4524
  183POPC     N20945   2.946   2.814   7.233 -0.0811  0.6748  0.1456
  183POPC   C1220946   2.816   2.738   7.217 -0.2226 -0.2698 -0.4364
  183POPC  H12A20947   2.744   2.802   7.264  0.9216  2.1492 -1.7917
  183POPC  H12B20948   2.832   2.645   7.269  2.5031 -1.3768 -2.9098
  183POPC   C1320949   2.938   2.945   7.173  0.1811  0.1653  0.5503
  183POPC  H13A20950   2.896   2.930   7.075 -2.7088 -0.1952  1.7474
  183POPC  H13B20951   2.873   3.016   7.222 -1.4184  0.3545 -1.7177
  183POPC  H13C20952   3.036   2.989   7.158 -0.3084  1.2792  0.5442
  183POPC   C1420953   2.984   2.825   7.375  0.8285  0.3928 -0.0293
  183POPC  H14A20954   3.078   2.876   7.388  1.1488  0.1410 -1.1647
  183POPC  H14B20955   2.900   2.869   7.426 -1.7996 -3.2507 -0.8023
  183POPC  H14C20956   3.005   2.724   7.409  2.3064 -0.4420 -3.0145
  183POPC   C1520957   3.050   2.730   7.166 -0.1682  0.1477 -0.0048
  183POPC  H15A20958   3.066   2.632   7.209  0.6744  0.5742  0.6894
  183POPC  H15B20959   3.145   2.781   7.176 -1.2808  2.3980 -0.2927
  183POPC  H15C20960   3.012   2.721   7.066 -3.7419  0.1576  1.1870
  183POPC   C1120961   2.765   2.701   7.071 -0.1180  0.0215 -0.1106
  183POPC  H11A20962   2.679   2.631   7.065  0.0287 -0.0893 -1.0502
  183POPC  H11B20963   2.843   2.635   7.027 -0.3009  1.2236 -2.4290
  183POPC     P20964   2.597   2.878   6.989  0.1580  0.5400  0.5224
  183POPC   O1320965   2.567   2.950   7.117  0.3370  0.2517  1.4330
  183POPC   O1420966   2.503   2.768   6.955  0.5389 -0.3586  0.3795
  183POPC   O1220967   2.747   2.821   6.989  0.8722  0.8966 -0.5936
  183POPC   O1120968   2.590   2.994   6.872 -0.5649  0.8772  0.5245
  183POPC    C120969   2.702   3.035   6.788  0.5826  0.9375 -0.2851
  183POPC    HA20970   2.797   3.024   6.845  0.8225  4.2783  0.1589
  183POPC    HB20971   2.682   3.144   6.777  3.2261  1.4496 -0.8450
  183POPC    C220972   2.703   2.955   6.649 -0.3651  0.1054 -1.4265
  183POPC    HS20973   2.620   2.994   6.586 -0.6422  2.7855  0.4472
  183POPC   O2120974   2.701   2.814   6.666 -0.0032 -0.1984 -0.7027
  183POPC   C2120975   2.589   2.736   6.643  0.2263  0.4224 -0.7496
  183POPC   O2220976   2.480   2.777   6.606 -0.5543 -0.2937 -0.2342
  183POPC   C2220977   2.622   2.593   6.688 -0.1268  0.9258 -0.1698
  183POPC   H2R20978   2.606   2.591   6.798  1.0047  0.2824 -0.0058
  183POPC   H2S20979   2.730   2.569   6.680 -0.8263 -2.2839 -1.4669
  183POPC    C320980   2.832   2.984   6.566  0.0174 -0.5075  0.9625
  183POPC    HX20981   2.916   2.928   6.613  0.2558 -0.2234  0.8763
  183POPC    HY20982   2.860   3.091   6.572  2.1140 -1.0699  2.3447
  183POPC   O3120983   2.821   2.956   6.428  0.1001  0.8824  0.5235
  183POPC   C3120984   2.871   2.841   6.383 -0.2704 -0.3496  0.3075
  183POPC   O3220985   2.914   2.748   6.445 -0.0277  0.4780 -0.4649
  183POPC   C3220986   2.875   2.838   6.221  0.6324 -0.0386 -0.3865
  183POPC   H2X20987   2.802   2.914   6.184  1.4778  0.5750 -0.8106
  183POPC   H2Y20988   2.833   2.739   6.193 -0.5845  0.1048  0.7900
  183POPC   C2320989   2.555   2.483   6.608 -0.5260 -0.8177  0.2338
  183POPC   H3R20990   2.449   2.516   6.599 -0.1694  0.6544  1.1241
  183POPC   H3S20991   2.547   2.392   6.672 -0.4921 -0.7544  0.3288
  183POPC   C2420992   2.630   2.439   6.484  0.3391  0.5617 -0.5026
  183POPC   H4R20993   2.628   2.329   6.472  0.1468  0.2547  1.8964
  183POPC   H4S20994   2.737   2.462   6.504  0.0611  1.5046 -0.0178
  183POPC   C2520995   2.573   2.520   6.363 -0.2278  0.0094  0.6760
  183POPC   H5R20996   2.584   2.631   6.370 -0.6446 -0.0055  1.9347
  183POPC   H5S20997   2.467   2.490   6.352  0.0709 -1.3529  1.2635
  183POPC   C2620998   2.651   2.491   6.230 -0.1462 -0.2346 -0.6027
  183POPC   H6R20999   2.679   2.383   6.235  0.5913 -0.3351 -4.2232
  183POPC   H6S21000   2.739   2.558   6.219 -1.1243  1.2491  0.3563
  183POPC   C2721001   2.567   2.492   6.100  0.0221  0.1885 -0.6846
  183POPC   H7R21002   2.530   2.596   6.088 -0.1560 -0.1367 -3.8363
  183POPC   H7S21003   2.474   2.441   6.135  0.5953  0.4938  1.3519
  183POPC   C2821004   2.650   2.439   5.985  0.5249  0.4927  0.0816
  183POPC   H8R21005   2.591   2.423   5.893  1.9491  0.5546 -0.8712
  183POPC   H8S21006   2.690   2.340   6.017 -2.1019 -0.7696 -0.3149
  183POPC   C2921007   2.760   2.530   5.940  0.6510  0.3153  0.3223
  183POPC   H9121008   2.844   2.536   6.011  1.3548  0.6967 -0.5256
  183POPC  C21021009   2.764   2.610   5.837 -0.3613 -0.3318  0.3688
  183POPC  H10121010   2.861   2.660   5.817 -0.2128 -1.2482 -1.3861
  183POPC  C21121011   2.677   2.621   5.721  0.0563  0.7112  0.3813
  183POPC  H11R21012   2.582   2.676   5.737 -0.5205 -0.6797  2.0603
  183POPC  H11S21013   2.638   2.519   5.700  2.4581 -0.0093 -0.9900
  183POPC  C21221014   2.750   2.674   5.598  0.2791  0.3731 -0.8215
  183POPC  H12R21015   2.788   2.777   5.618 -1.1030  0.5069  1.3716
  183POPC  H12S21016   2.684   2.670   5.509  1.5490 -1.0774 -1.7683
  183POPC  C21321017   2.876   2.600   5.555  0.0566  0.2103  0.3407
  183POPC  H13R21018   2.833   2.498   5.557  0.5013 -0.0169  3.5499
  183POPC  H13S21019   2.959   2.620   5.626 -0.1985 -2.6375  1.5319
  183POPC  C21421020   2.924   2.635   5.415  0.3522 -0.3160  0.0605
  183POPC  H14R21021   2.984   2.729   5.412  0.9660 -0.6960  0.2145
  183POPC  H14S21022   2.838   2.644   5.346 -0.0867  1.5151  0.7844
  183POPC  C21521023   3.024   2.526   5.372 -0.2758  0.1203  0.5099
  183POPC  H15R21024   2.965   2.434   5.391 -0.3383  0.2726  1.0966
  183POPC  H15S21025   3.119   2.523   5.431  0.4003  1.3396 -0.4831
  183POPC  C21621026   3.059   2.537   5.223 -0.3939 -0.1348 -0.0435
  183POPC  H16R21027   3.081   2.640   5.188 -2.4357  1.2633  2.3907
  183POPC  H16S21028   2.977   2.501   5.157 -2.7804  2.3754  1.3382
  183POPC  C21721029   3.186   2.448   5.196 -0.0202 -0.7444  0.9306
  183POPC  H17R21030   3.175   2.344   5.233  0.2398 -0.7914  0.8793
  183POPC  H17S21031   3.271   2.502   5.244 -0.0881  1.1401 -0.9133
  183POPC  C21821032   3.206   2.452   5.044 -0.0993  0.5484 -0.3530
  183POPC  H18R21033   3.183   2.544   4.986 -1.9084 -1.3636 -2.8350
  183POPC  H18S21034   3.138   2.378   4.997  0.2150 -0.1937  0.3320
  183POPC  H18T21035   3.310   2.430   5.012  0.5204 -0.4488  2.1289
  183POPC   C3321036   3.017   2.863   6.171 -0.5361  0.0489 -0.2272
  183POPC   H3X21037   3.066   2.953   6.215 -0.7231  0.9079 -1.6784
  183POPC   H3Y21038   2.994   2.911   6.073  2.1378 -0.8423 -1.3711
  183POPC   C3421039   3.105   2.738   6.180  0.5793  0.4755  0.1410
  183POPC   H4X21040   3.039   2.665   6.128  0.0941  1.6012 -0.8946
  183POPC   H4Y21041   3.108   2.700   6.284 -1.0480 -0.6891 -0.1918
  183POPC   C3521042   3.239   2.731   6.103  0.6811 -0.9105 -0.1117
  183POPC   H5X21043   3.274   2.626   6.115 -1.1382 -1.3770  1.6500
  183POPC   H5Y21044   3.311   2.805   6.144  1.6710 -2.1282  0.4314
  183POPC   C3621045   3.219   2.768   5.951 -0.5954  0.3039 -0.3090
  183POPC   H6X21046   3.193   2.875   5.943  0.3362  0.4213 -2.9562
  183POPC   H6Y21047   3.126   2.723   5.908  0.3206 -0.0308 -2.0523
  183POPC   C3721048   3.346   2.735   5.869  0.0313 -0.5168 -0.9959
  183POPC   H7X21049   3.369   2.628   5.891  2.0337  0.0570 -0.1201
  183POPC   H7Y21050   3.437   2.789   5.903 -1.2769  0.6386  0.8653
  183POPC   C3821051   3.318   2.744   5.724 -0.3397  0.1096  0.6573
  183POPC   H8X21052   3.279   2.847   5.710 -0.9094 -0.2232 -0.2377
  183POPC   H8Y21053   3.242   2.664   5.713  0.2165 -0.8095  2.9591
  183POPC   C3921054   3.437   2.712   5.633  0.1756  0.1055  1.1340
  183POPC   H9X21055   3.484   2.612   5.651  1.9169  0.3236 -1.6319
  183POPC   H9Y21056   3.524   2.778   5.656 -1.3788  3.3507 -1.5401
  183POPC  C31021057   3.410   2.706   5.480  0.4929  0.3129  0.4728
  183POPC  H10X21058   3.315   2.650   5.466 -0.2198  1.8174 -1.0095
  183POPC  H10Y21059   3.493   2.652   5.430  0.2797  2.3300 -2.3185
  183POPC  C31121060   3.394   2.845   5.409  0.1395 -0.7827  0.0978
  183POPC  H11X21061   3.495   2.891   5.406  0.0270 -0.5449 -2.2127
  183POPC  H11Y21062   3.315   2.913   5.446  1.0493 -0.5694  1.7062
  183POPC  C31221063   3.364   2.837   5.256 -0.3183  0.4723  0.0291
  183POPC  H12X21064   3.358   2.944   5.227  0.6498  1.0366  1.7649
  183POPC  H12Y21065   3.276   2.772   5.237  1.1815 -1.3116 -1.1724
  183POPC  C31321066   3.483   2.790   5.177 -0.1104  0.2390  0.1393
  183POPC  H13X21067   3.508   2.683   5.195 -0.1309  0.4380  1.3849
  183POPC  H13Y21068   3.571   2.855   5.199 -0.5801  0.4046  1.6147
  183POPC  C31421069   3.467   2.804   5.021 -0.1769  0.1416 -0.0563
  183POPC  H14X21070   3.412   2.897   4.996  0.2745  0.2290 -0.7283
  183POPC  H14Y21071   3.411   2.718   4.979 -1.9782  1.8092 -1.2534
  183POPC  C31521072   3.597   2.803   4.945 -0.1696  0.1645 -0.0978
  183POPC  H15X21073   3.636   2.701   4.963 -3.0308 -0.7953  1.1581
  183POPC  H15Y21074   3.664   2.881   4.988  0.8096 -0.3956 -0.5716
  183POPC  C31621075   3.599   2.815   4.790  1.0793 -0.4594  0.1119
  183POPC  H16X21076   3.702   2.845   4.763  0.5323  1.4397 -0.0368
  183POPC  H16Y21077   3.520   2.889   4.764 -1.7361 -2.8742  1.2418
  183POPC  H16Z21078   3.568   2.720   4.740 -1.2425 -0.6466  1.7322
  184POPC     N21079   3.915   1.121   6.821  0.1154 -0.7956 -0.0009
  184POPC   C1221080   3.813   1.113   6.707 -0.3770  0.3426 -0.2271
  184POPC  H12A21081   3.713   1.100   6.746  0.3703  0.6442  1.9433
  184POPC  H12B21082   3.827   1.021   6.652 -2.3526  1.1944 -2.3375
  184POPC   C1321083   4.052   1.131   6.757 -0.0969  0.1044 -0.4924
  184POPC  H13A21084   4.085   1.044   6.700 -0.1848 -0.4485  0.2799
  184POPC  H13B21085   4.058   1.218   6.694 -1.0594 -0.5056 -1.4608
  184POPC  H13C21086   4.124   1.152   6.836  1.5463  0.1874 -1.9463
  184POPC   C1421087   3.885   1.238   6.910 -0.1237  0.3410 -0.2630
  184POPC  H14A21088   3.963   1.273   6.976  0.0476  0.3484 -0.4669
  184POPC  H14B21089   3.855   1.321   6.847  1.8299  0.2244 -1.4150
  184POPC  H14C21090   3.797   1.224   6.971 -1.6000  2.7034 -1.6535
  184POPC   C1521091   3.913   1.003   6.905 -0.2312  0.6053 -0.8741
  184POPC  H15A21092   3.896   0.917   6.841  1.8167 -0.2294 -0.3733
  184POPC  H15B21093   3.844   1.013   6.987 -0.7273 -2.8614 -0.7236
  184POPC  H15C21094   4.011   0.994   6.950 -0.5199 -0.7871 -0.4791
  184POPC   C1121095   3.803   1.225   6.604  0.1894  0.0383 -0.0644
  184POPC  H11A21096   3.732   1.177   6.533 -0.0238  1.6364 -0.9731
  184POPC  H11B21097   3.899   1.239   6.548 -0.1263  0.4083 -0.5226
  184POPC     P21098   3.615   1.383   6.699 -0.5046 -0.2209 -0.0946
  184POPC   O1321099   3.600   1.344   6.843  0.4207  0.2584  0.7250
  184POPC   O1421100   3.519   1.350   6.595 -0.4820 -0.0462  0.6472
  184POPC   O1221101   3.765   1.343   6.669  0.0651 -0.5482 -1.1787
  184POPC   O1121102   3.634   1.539   6.702 -0.1175 -0.0420  0.0656
  184POPC    C121103   3.692   1.609   6.588  0.3848 -0.0036  0.9254
  184POPC    HA21104   3.718   1.540   6.505 -3.6721  0.0040 -0.5633
  184POPC    HB21105   3.782   1.660   6.628  0.9014 -0.9102  0.9488
  184POPC    C221106   3.591   1.709   6.539 -0.2161 -0.9174  0.8952
  184POPC    HS21107   3.572   1.787   6.617  1.6609 -0.3876  0.8860
  184POPC   O2121108   3.472   1.640   6.517  0.6614  0.0943 -0.0510
  184POPC   C2121109   3.369   1.716   6.490 -0.3506 -0.0166 -0.7027
  184POPC   O2221110   3.364   1.841   6.505 -0.4764 -0.0048  0.6537
  184POPC   C2221111   3.245   1.630   6.446 -0.6242  0.5907 -0.7954
  184POPC   H2R21112   3.166   1.640   6.523 -1.8744 -0.7700 -1.8614
  184POPC   H2S21113   3.283   1.526   6.458  1.0237  1.1663 -0.7273
  184POPC    C321114   3.637   1.793   6.410 -0.5621  0.6885  0.0854
  184POPC    HX21115   3.737   1.836   6.433 -0.8473  0.4882  1.8662
  184POPC    HY21116   3.567   1.878   6.393  1.8273  3.2910  2.2205
  184POPC   O3121117   3.654   1.708   6.299 -0.5823 -0.5510 -0.3427
  184POPC   C3121118   3.710   1.755   6.190  0.8742 -0.2651 -0.0479
  184POPC   O3221119   3.761   1.866   6.180  0.4973  0.2561 -0.3062
  184POPC   C3221120   3.701   1.652   6.083 -0.7345 -0.3192 -0.1982
  184POPC   H2X21121   3.646   1.693   5.995 -0.8353 -0.7051 -0.3205
  184POPC   H2Y21122   3.654   1.559   6.121  1.7548 -0.5530  2.7155
  184POPC   C2321123   3.182   1.654   6.306  0.2705 -0.2492 -0.2137
  184POPC   H3R21124   3.152   1.760   6.289 -0.9214 -0.5563 -0.1374
  184POPC   H3S21125   3.095   1.586   6.295 -0.7415  1.0634 -0.6071
  184POPC   C2421126   3.272   1.615   6.193 -0.4623  0.1311 -0.1411
  184POPC   H4R21127   3.284   1.505   6.187 -1.0587  0.1468 -3.3317
  184POPC   H4S21128   3.377   1.644   6.215  1.5871 -5.1316 -1.4637
  184POPC   C2521129   3.225   1.666   6.061 -0.1378 -0.0394  0.5617
  184POPC   H5R21130   3.214   1.776   6.058  1.9568  0.2592  1.7081
  184POPC   H5S21131   3.119   1.645   6.036  0.6926  1.0689 -5.1730
  184POPC   C2621132   3.308   1.618   5.939 -0.5377 -0.0438 -0.1583
  184POPC   H6R21133   3.298   1.507   5.933  0.1437 -0.1646  0.6525
  184POPC   H6S21134   3.409   1.647   5.976 -1.2323  0.4901  1.4339
  184POPC   C2721135   3.286   1.691   5.802  0.4772  0.4044 -0.8232
  184POPC   H7R21136   3.305   1.798   5.823  0.9313  0.2830 -0.6116
  184POPC   H7S21137   3.177   1.685   5.783 -0.1662  3.2698  1.2062
  184POPC   C2821138   3.360   1.631   5.691  0.0057 -0.2192 -0.2900
  184POPC   H8R21139   3.470   1.629   5.707  0.1347 -1.9399 -1.2082
  184POPC   H8S21140   3.345   1.707   5.611  0.9897  1.7462  1.2754
  184POPC   C2921141   3.322   1.489   5.659  0.4537 -0.1903  0.1685
  184POPC   H9121142   3.342   1.411   5.733 -1.6352 -2.0700 -1.1194
  184POPC  C21021143   3.250   1.451   5.550 -0.0890 -0.0014  0.7590
  184POPC  H10121144   3.239   1.344   5.524 -0.8131  0.0708  0.7529
  184POPC  C21121145   3.183   1.528   5.431 -0.3922  0.1311  0.1958
  184POPC  H11R21146   3.194   1.633   5.465 -0.2803 -0.4738  2.1387
  184POPC  H11S21147   3.078   1.499   5.413 -0.9255  2.1639 -0.1582
  184POPC  C21221148   3.257   1.498   5.292  0.0504  0.2435 -0.1632
  184POPC  H12R21149   3.256   1.388   5.277 -0.6386  0.4681 -2.0789
  184POPC  H12S21150   3.361   1.534   5.302  0.0066  0.6874 -1.1678
  184POPC  C21321151   3.184   1.565   5.178  0.5393 -0.2458  0.0238
  184POPC  H13R21152   3.203   1.673   5.195  0.0723 -0.0890 -0.3872
  184POPC  H13S21153   3.073   1.559   5.177  0.5003  0.4384 -0.4403
  184POPC  C21421154   3.232   1.528   5.034 -0.6891 -0.5407 -0.1941
  184POPC  H14R21155   3.238   1.417   5.032 -0.0701 -0.5010 -1.7758
  184POPC  H14S21156   3.334   1.570   5.021 -0.7169 -0.5360 -0.4023
  184POPC  C21521157   3.151   1.570   4.916  0.7646  0.1725  0.3722
  184POPC  H15R21158   3.048   1.537   4.944  1.5072 -1.1875  1.6084
  184POPC  H15S21159   3.177   1.512   4.825 -1.1347 -1.9691  1.0990
  184POPC  C21621160   3.170   1.719   4.881 -0.0166 -0.4496 -0.2754
  184POPC  H16R21161   3.279   1.742   4.877 -0.1380  0.1748 -0.0571
  184POPC  H16S21162   3.119   1.774   4.962 -0.1047  1.8332 -1.8035
  184POPC  C21721163   3.095   1.749   4.747 -0.0737  0.2058 -0.2007
  184POPC  H17R21164   3.137   1.696   4.658 -1.9488 -0.3761 -0.7838
  184POPC  H17S21165   3.101   1.854   4.712 -1.1331 -0.1009 -1.4043
  184POPC  C21821166   2.947   1.714   4.748  0.4876 -0.4513  0.4055
  184POPC  H18R21167   2.896   1.790   4.685  2.1198  0.0752 -0.3224
  184POPC  H18S21168   2.906   1.734   4.849 -1.2001 -0.7237 -0.1887
  184POPC  H18T21169   2.932   1.610   4.711  1.6140 -0.4045 -0.1970
  184POPC   C3321170   3.848   1.633   6.034  0.3650 -0.2976  0.9388
  184POPC   H3X21171   3.903   1.599   6.124 -1.2358 -1.9072  1.3496
  184POPC   H3Y21172   3.895   1.725   5.992  2.0145 -0.2249  2.7870
  184POPC   C3421173   3.851   1.541   5.914 -0.2754 -0.3528  0.1202
  184POPC   H4X21174   3.799   1.445   5.929 -0.4188 -0.3972 -0.6271
  184POPC   H4Y21175   3.955   1.508   5.893 -0.7452 -0.8106 -1.6405
  184POPC   C3521176   3.801   1.610   5.789 -0.4306  0.2264  0.4602
  184POPC   H5X21177   3.872   1.695   5.780  1.9878 -1.8034 -0.7896
  184POPC   H5Y21178   3.694   1.640   5.787 -0.1351  1.4466  1.5651
  184POPC   C3621179   3.830   1.522   5.664 -0.1013  0.5279 -0.7151
  184POPC   H6X21180   3.753   1.442   5.661  0.6382 -0.1998 -2.5654
  184POPC   H6Y21181   3.933   1.480   5.665 -0.1890  0.3225  0.8466
  184POPC   C3721182   3.806   1.606   5.535  0.2177  0.1686 -0.7526
  184POPC   H7X21183   3.864   1.700   5.538  0.2149  0.1602 -0.2730
  184POPC   H7Y21184   3.699   1.633   5.524  0.2482 -0.2345 -2.1143
  184POPC   C3821185   3.869   1.525   5.416 -0.5329  0.6003  0.4341
  184POPC   H8X21186   3.844   1.416   5.422 -0.8463  0.7388  4.2205
  184POPC   H8Y21187   3.980   1.536   5.417 -0.3630 -0.8271  1.4941
  184POPC   C3921188   3.816   1.586   5.283 -0.3586 -0.1055  0.2261
  184POPC   H9X21189   3.868   1.540   5.196 -4.1211 -2.5209 -1.0343
  184POPC   H9Y21190   3.824   1.696   5.291  1.6137 -0.1749 -0.2402
  184POPC  C31021191   3.668   1.547   5.255  0.5190 -0.2676 -0.2366
  184POPC  H10X21192   3.601   1.600   5.326 -0.5224  0.8156 -1.9491
  184POPC  H10Y21193   3.661   1.437   5.268 -0.6215 -0.2851 -0.9071
  184POPC  C31121194   3.631   1.571   5.105  0.1065  0.3599 -1.2949
  184POPC  H11X21195   3.525   1.539   5.094  0.7834 -1.8697 -1.7618
  184POPC  H11Y21196   3.702   1.508   5.048 -0.1012 -0.2650 -0.8683
  184POPC  C31221197   3.633   1.724   5.060 -0.9392  0.2065  0.3948
  184POPC  H12X21198   3.648   1.717   4.950  0.4276 -2.9639  0.6595
  184POPC  H12Y21199   3.724   1.767   5.106  1.0755 -2.8286 -0.4443
  184POPC  C31321200   3.511   1.801   5.097 -0.2741  0.2377 -0.2041
  184POPC  H13X21201   3.505   1.813   5.207 -1.6613 -0.1998 -0.2148
  184POPC  H13Y21202   3.413   1.752   5.078 -0.0923  0.4891 -2.0094
  184POPC  C31421203   3.489   1.929   5.025 -0.3748  0.1283  0.1123
  184POPC  H14X21204   3.496   1.896   4.919 -0.2422  1.8607 -0.4579
  184POPC  H14Y21205   3.576   1.997   5.038 -0.8382  0.9054 -0.7520
  184POPC  C31521206   3.362   2.005   5.055 -0.2932  0.1036  0.4394
  184POPC  H15X21207   3.352   2.034   5.162  3.1150 -1.1801  1.2330
  184POPC  H15Y21208   3.272   1.944   5.034 -1.3576  1.3942  1.1113
  184POPC  C31621209   3.355   2.137   4.972 -0.3915 -0.1436 -0.5262
  184POPC  H16X21210   3.429   2.215   4.997  0.4100 -0.4553 -1.8230
  184POPC  H16Y21211   3.260   2.190   4.994 -0.3073 -0.1531 -0.1456
  184POPC  H16Z21212   3.371   2.130   4.862  2.2337  1.5363 -0.3213
  185POPC     N21213   1.881   5.650   1.854 -0.4335 -0.4749 -0.1816
  185POPC   C1221214   1.769   5.550   1.826  0.4636  0.5128 -0.4718
  185POPC  H12A21215   1.812   5.453   1.808 -2.7959 -1.0593 -0.3848
  185POPC  H12B21216   1.713   5.570   1.736 -0.7167 -2.9106 -0.6328
  185POPC   C1321217   1.965   5.658   1.732 -0.2140 -0.5152  0.3937
  185POPC  H13A21218   1.905   5.696   1.651  1.3209 -0.1236 -0.5991
  185POPC  H13B21219   2.053   5.719   1.729 -1.0772  0.7381 -1.0818
  185POPC  H13C21220   1.993   5.559   1.698  0.0185 -0.3799  0.1882
  185POPC   C1421221   1.831   5.789   1.897 -0.0651 -0.7852  0.4175
  185POPC  H14A21222   1.763   5.837   1.829  0.6042 -1.0327 -0.4389
  185POPC  H14B21223   1.775   5.771   1.987  0.1951 -1.6345  0.4174
  185POPC  H14C21224   1.913   5.859   1.908 -1.9491  1.5776  0.0976
  185POPC   C1521225   1.970   5.605   1.968  0.1167 -0.6388  0.1848
  185POPC  H15A21226   2.054   5.668   1.995 -0.7275  0.4894  0.2350
  185POPC  H15B21227   1.998   5.502   1.955  0.5499 -0.8367  2.2830
  185POPC  H15C21228   1.906   5.613   2.055  0.6155  0.2480  0.4900
  185POPC   C1121229   1.663   5.532   1.946  0.3890  0.1763 -0.4913
  185POPC  H11A21230   1.583   5.471   1.899  0.7841  0.4089 -1.4822
  185POPC  H11B21231   1.624   5.633   1.971 -0.7828 -0.4745  0.4530
  185POPC     P21232   1.702   5.329   2.101 -0.2606 -0.1593 -0.0387
  185POPC   O1321233   1.791   5.257   2.005  0.3029 -0.2236  0.3333
  185POPC   O1421234   1.561   5.289   2.080 -0.6074 -0.3147  0.1386
  185POPC   O1221235   1.715   5.484   2.072  0.5191 -0.7427  0.1065
  185POPC   O1121236   1.749   5.324   2.253  0.5387  0.0376  0.1434
  185POPC    C121237   1.858   5.404   2.296 -0.7303 -0.1424 -0.3757
  185POPC    HA21238   1.818   5.508   2.302  1.1590  0.5761  0.8442
  185POPC    HB21239   1.943   5.403   2.225 -0.5437  1.2696 -0.1939
  185POPC    C221240   1.920   5.368   2.431 -0.0438 -0.4095 -0.2925
  185POPC    HS21241   1.837   5.336   2.497  0.1022  1.0878  0.6802
  185POPC   O2121242   1.985   5.483   2.475 -0.0330 -0.0466 -0.2312
  185POPC   C2121243   1.957   5.521   2.598 -0.5397 -0.1208 -0.8351
  185POPC   O2221244   1.869   5.481   2.667  0.0930  0.1878 -0.0248
  185POPC   C2221245   2.044   5.644   2.639  0.9651  0.7323  0.7608
  185POPC   H2R21246   2.025   5.728   2.569  1.0858  0.7119  0.7009
  185POPC   H2S21247   2.150   5.629   2.609  0.4806  0.1030 -0.7697
  185POPC    C321248   2.022   5.249   2.430 -0.7338  0.3570 -1.1387
  185POPC    HX21249   2.114   5.283   2.378 -0.2829  1.0166  0.0524
  185POPC    HY21250   1.977   5.165   2.372  1.1179 -0.3843 -1.5649
  185POPC   O3121251   2.043   5.198   2.563  0.3219 -0.6931 -0.3875
  185POPC   C3121252   2.147   5.220   2.641  0.4848  0.5218  0.2292
  185POPC   O3221253   2.255   5.262   2.612  0.2803 -0.6456 -0.3943
  185POPC   C3221254   2.091   5.190   2.786  0.5704  0.2230  0.0531
  185POPC   H2X21255   2.072   5.080   2.788 -0.4984  0.3488 -1.5706
  185POPC   H2Y21256   1.996   5.238   2.817 -0.2901  0.2096 -2.3661
  185POPC   C2321257   2.032   5.673   2.783 -0.4071  0.2198 -0.1737
  185POPC   H3R21258   1.927   5.676   2.819 -0.2738  1.9486  0.1813
  185POPC   H3S21259   2.081   5.773   2.788 -1.2285  0.6418 -0.4723
  185POPC   C2421260   2.111   5.576   2.875  0.2768  0.0696  1.1113
  185POPC   H4R21261   2.204   5.544   2.822  0.6547  4.3480 -1.2710
  185POPC   H4S21262   2.057   5.483   2.900  0.5027  0.0480  1.5251
  185POPC   C2521263   2.142   5.652   3.008 -0.5751  0.5077 -0.2456
  185POPC   H5R21264   2.202   5.742   2.984 -0.5473  0.5288 -0.1008
  185POPC   H5S21265   2.211   5.590   3.070  0.1756  0.2535 -1.3135
  185POPC   C2621266   2.025   5.695   3.097  0.0867  0.1596  0.3433
  185POPC   H6R21267   1.947   5.620   3.124  0.2111 -0.5973 -1.2770
  185POPC   H6S21268   1.977   5.770   3.030 -1.5356 -0.3481  0.8887
  185POPC   C2721269   2.062   5.767   3.226  0.0904  0.2392  0.6456
  185POPC   H7R21270   1.965   5.794   3.273  0.3557 -0.6212  1.7098
  185POPC   H7S21271   2.114   5.862   3.198  0.4611 -0.7596 -2.4264
  185POPC   C2821272   2.142   5.689   3.323 -0.3312 -0.9890 -0.2103
  185POPC   H8R21273   2.221   5.632   3.270 -0.7373 -2.2878  0.5309
  185POPC   H8S21274   2.084   5.611   3.378 -1.5266 -0.8482 -1.2221
  185POPC   C2921275   2.196   5.789   3.420 -0.1062 -0.1598 -0.8877
  185POPC   H9121276   2.261   5.867   3.379  0.9644  0.4981  1.8392
  185POPC  C21021277   2.156   5.803   3.550  1.0128  0.3719  0.0986
  185POPC  H10121278   2.201   5.884   3.610  0.6398  1.6023 -1.2453
  185POPC  C21121279   2.060   5.713   3.633 -0.1164 -0.3288  0.3497
  185POPC  H11R21280   2.083   5.604   3.630 -0.2698 -0.4166  1.6066
  185POPC  H11S21281   1.963   5.718   3.580 -1.3327 -1.8765  2.2819
  185POPC  C21221282   2.043   5.738   3.782  0.2282  0.8710  0.5503
  185POPC  H12R21283   2.129   5.716   3.849  1.7158  0.4708 -1.4076
  185POPC  H12S21284   1.971   5.659   3.814  1.3436  0.9949  3.7534
  185POPC  C21321285   1.984   5.875   3.830 -0.2812 -0.0755  0.5834
  185POPC  H13R21286   1.913   5.903   3.750  3.1982  2.4320 -1.8853
  185POPC  H13S21287   2.065   5.951   3.833  2.9286 -3.2488  1.1757
  185POPC  C21421288   1.904   5.864   3.962 -0.1364  0.2285 -0.1857
  185POPC  H14R21289   1.970   5.820   4.039  1.2307 -0.5798 -1.7340
  185POPC  H14S21290   1.834   5.778   3.954  2.3630 -1.9255 -0.8079
  185POPC  C21521291   1.844   6.002   4.008 -0.1198  0.1127  0.1512
  185POPC  H15R21292   1.766   6.023   3.932  1.0513  2.4025 -0.5016
  185POPC  H15S21293   1.918   6.080   3.985  0.2864 -0.6088 -1.0777
  185POPC  C21621294   1.799   6.004   4.156  0.4313  0.1136  0.2020
  185POPC  H16R21295   1.749   5.916   4.202 -0.1230  1.5469  2.4981
  185POPC  H16S21296   1.715   6.076   4.161  0.3194  0.0488 -0.5362
  185POPC  C21721297   1.898   6.067   4.250 -0.5295  0.0278 -0.0371
  185POPC  H17R21298   1.910   6.177   4.236  4.4967 -0.1986  0.8110
  185POPC  H17S21299   2.000   6.026   4.235 -0.1532  0.3826  1.3811
  185POPC  C21821300   1.843   6.052   4.390  0.0890 -0.4411 -0.0000
  185POPC  H18R21301   1.917   6.095   4.461 -0.5722  1.4040 -0.3643
  185POPC  H18S21302   1.830   5.944   4.412  1.4228 -0.8151 -0.8797
  185POPC  H18T21303   1.747   6.104   4.409  0.6787 -0.0519  2.1885
  185POPC   C3321304   2.216   5.217   2.878  0.4134  0.1516  0.4850
  185POPC   H3X21305   2.257   5.317   2.854 -0.6438  0.6179  0.5800
  185POPC   H3Y21306   2.295   5.138   2.879  1.1864  0.9101  1.7765
  185POPC   C3421307   2.154   5.232   3.020  0.0776  0.2269  0.9078
  185POPC   H4X21308   2.117   5.130   3.042 -2.4083  0.6013 -1.0537
  185POPC   H4Y21309   2.060   5.292   3.019 -2.1483 -3.0024  1.5170
  185POPC   C3521310   2.245   5.284   3.129  0.3761  0.1270  0.1143
  185POPC   H5X21311   2.288   5.382   3.100  0.9669  0.1372  1.0104
  185POPC   H5Y21312   2.328   5.211   3.144 -0.9723 -1.4177  0.2854
  185POPC   C3621313   2.175   5.299   3.256 -0.0063 -0.0163  0.4089
  185POPC   H6X21314   2.135   5.197   3.275 -0.2543 -0.6772 -2.9927
  185POPC   H6Y21315   2.092   5.370   3.237  0.6894  0.5781 -0.4817
  185POPC   C3721316   2.265   5.333   3.369 -0.2686  0.3152 -0.2954
  185POPC   H7X21317   2.293   5.441   3.362  2.2748 -0.3157 -0.7460
  185POPC   H7Y21318   2.353   5.266   3.372 -0.5804 -0.1625 -1.4124
  185POPC   C3821319   2.193   5.308   3.499 -0.0647 -0.0491  0.0133
  185POPC   H8X21320   2.175   5.200   3.516  1.2510 -0.0203  1.7955
  185POPC   H8Y21321   2.093   5.357   3.491 -0.0348 -0.1452 -1.1360
  185POPC   C3921322   2.263   5.377   3.617 -0.3567  0.1351 -0.2156
  185POPC   H9X21323   2.272   5.486   3.600  0.7058  0.4032  1.7494
  185POPC   H9Y21324   2.367   5.337   3.611  0.1630  1.3436  0.3288
  185POPC  C31021325   2.191   5.365   3.754 -0.9105 -0.0161  0.3771
  185POPC  H10X21326   2.148   5.262   3.756  1.2666 -0.9960  1.9772
  185POPC  H10Y21327   2.113   5.443   3.766 -0.4206  0.5548 -0.0957
  185POPC  C31121328   2.288   5.372   3.879  0.5385 -0.5344  0.6948
  185POPC  H11X21329   2.349   5.465   3.874  1.1161 -0.6768  3.2553
  185POPC  H11Y21330   2.345   5.278   3.864 -2.5607 -2.4397  0.1999
  185POPC  C31221331   2.230   5.371   4.016  0.4627 -0.0839  0.3035
  185POPC  H12X21332   2.309   5.343   4.089 -0.8811  2.0730  2.7237
  185POPC  H12Y21333   2.160   5.284   4.022 -1.0185  1.1298  1.3998
  185POPC  C31321334   2.168   5.499   4.065  0.2587  0.4984 -0.3818
  185POPC  H13X21335   2.121   5.479   4.164  0.1772 -1.9661 -0.8686
  185POPC  H13Y21336   2.085   5.533   4.000  0.3239  0.6242 -0.4013
  185POPC  C31421337   2.274   5.616   4.078  0.2422 -0.0363 -0.2574
  185POPC  H14X21338   2.293   5.649   3.974 -0.8058  0.1862 -0.3898
  185POPC  H14Y21339   2.372   5.582   4.117  1.6919  3.4374 -0.5333
  185POPC  C31521340   2.215   5.728   4.168 -0.1114 -0.1333 -1.0287
  185POPC  H15X21341   2.188   5.679   4.264  1.6684 -0.0909 -0.4628
  185POPC  H15Y21342   2.117   5.750   4.122  0.3950  1.6105 -1.3380
  185POPC  C31621343   2.297   5.852   4.180  0.1934  0.0611 -0.4369
  185POPC  H16X21344   2.302   5.891   4.076  0.0548 -1.9853 -1.2774
  185POPC  H16Y21345   2.404   5.831   4.205  0.2161  0.0851 -0.5154
  185POPC  H16Z21346   2.264   5.926   4.256  3.5277  3.4785 -1.9640
  186POPC     N21347   5.230   2.868   2.069 -0.1928  0.9995 -0.0463
  186POPC   C1221348   5.204   2.871   2.220  0.0827 -0.1201  0.0567
  186POPC  H12A21349   5.109   2.919   2.238  0.2940 -0.0159  0.9628
  186POPC  H12B21350   5.270   2.940   2.270 -2.3509  2.0468  0.4901
  186POPC   C1321351   5.151   2.756   2.002 -0.2682  1.6209  0.8131
  186POPC  H13A21352   5.182   2.667   2.055 -1.3128  1.0980  0.5620
  186POPC  H13B21353   5.046   2.759   2.027 -0.3308 -3.3237  2.0733
  186POPC  H13C21354   5.171   2.740   1.897  1.2399 -1.5404  1.4649
  186POPC   C1421355   5.193   2.998   2.010 -0.7838 -0.6429  0.2702
  186POPC  H14A21356   5.089   3.021   2.025 -0.5134  0.6440  0.2553
  186POPC  H14B21357   5.244   3.079   2.059 -0.8344  1.8595 -3.4604
  186POPC  H14C21358   5.220   3.004   1.906 -1.6178  0.3911  0.0985
  186POPC   C1521359   5.374   2.833   2.039 -0.2278  0.2789  0.2684
  186POPC  H15A21360   5.425   2.919   2.080 -1.7470  1.1720  0.3902
  186POPC  H15B21361   5.382   2.822   1.932 -0.6479  1.4349  0.0982
  186POPC  H15C21362   5.417   2.749   2.091  0.6181  0.0454 -0.7767
  186POPC   C1121363   5.209   2.742   2.310 -0.7134 -0.0787 -0.1050
  186POPC  H11A21364   5.134   2.669   2.274 -0.9800  0.4906 -0.7410
  186POPC  H11B21365   5.188   2.767   2.416  1.2922  1.0451  0.0850
  186POPC     P21366   5.461   2.719   2.380 -0.1699 -0.2736 -0.5766
  186POPC   O1321367   5.459   2.865   2.421 -0.4004 -0.3821  0.6803
  186POPC   O1421368   5.578   2.673   2.302 -0.4349 -0.5583  0.1054
  186POPC   O1221369   5.333   2.675   2.300  0.0769  0.1020  0.2115
  186POPC   O1121370   5.455   2.635   2.516  0.1995 -0.5462  0.7602
  186POPC    C121371   5.450   2.492   2.518  0.1359  0.5527  0.3780
  186POPC    HA21372   5.467   2.449   2.417  1.0403 -0.2685  0.8611
  186POPC    HB21373   5.354   2.455   2.560 -0.1738 -0.6552 -1.2818
  186POPC    C221374   5.558   2.426   2.611  0.0870 -0.3213  0.0376
  186POPC    HS21375   5.529   2.319   2.617 -1.9376  0.1052 -1.0675
  186POPC   O2121376   5.557   2.482   2.749  0.0531 -0.1589  0.3096
  186POPC   C2121377   5.461   2.440   2.829 -0.3687 -0.2046 -0.1655
  186POPC   O2221378   5.366   2.367   2.795 -0.0341  0.1183 -0.4952
  186POPC   C2221379   5.476   2.489   2.968  0.4394 -0.0986 -0.2983
  186POPC   H2R21380   5.468   2.600   2.967  0.4694 -0.0969 -0.5665
  186POPC   H2S21381   5.573   2.472   3.019 -1.0160 -0.6290  2.4397
  186POPC    C321382   5.700   2.429   2.550 -0.0978  0.4096  0.4333
  186POPC    HX21383   5.720   2.537   2.537 -2.3383  0.4900 -4.6080
  186POPC    HY21384   5.687   2.384   2.449  1.8989 -0.9841  0.7346
  186POPC   O3121385   5.801   2.364   2.633 -0.4016 -0.6644 -0.0404
  186POPC   C3121386   5.924   2.344   2.572 -0.0898  0.0858 -0.5422
  186POPC   O3221387   5.959   2.391   2.463 -0.2546 -0.2882 -0.3137
  186POPC   C3221388   6.011   2.256   2.657  0.0089  0.6372  0.0328
  186POPC   H2X21389   6.116   2.279   2.627  0.3527 -0.6760  0.1684
  186POPC   H2Y21390   5.990   2.149   2.634  2.0947  0.3377 -0.6958
  186POPC   C2321391   5.362   2.428   3.063 -0.4988  0.5538 -0.2456
  186POPC   H3R21392   5.261   2.429   3.018 -0.5977  1.2950 -0.0305
  186POPC   H3S21393   5.371   2.488   3.157  2.9090 -0.6085  0.3033
  186POPC   C2421394   5.397   2.283   3.118  0.2079  0.2558 -0.1585
  186POPC   H4R21395   5.387   2.221   3.026  0.2489  1.7348 -1.2017
  186POPC   H4S21396   5.316   2.254   3.189 -0.8557  1.4264 -0.8542
  186POPC   C2521397   5.537   2.272   3.178 -0.5364 -0.3305  0.2570
  186POPC   H5R21398   5.620   2.294   3.108 -0.6357 -0.7881 -0.0079
  186POPC   H5S21399   5.545   2.163   3.200  1.4136 -0.3082 -0.2389
  186POPC   C2621400   5.549   2.338   3.318  0.3903 -0.4942 -0.3512
  186POPC   H6R21401   5.443   2.361   3.344 -0.2239 -1.4536 -1.8800
  186POPC   H6S21402   5.609   2.429   3.296 -0.3777 -0.4431 -2.4873
  186POPC   C2721403   5.620   2.251   3.420 -0.5579  0.1093 -0.6024
  186POPC   H7R21404   5.726   2.243   3.387 -0.7415  1.0426 -1.4417
  186POPC   H7S21405   5.575   2.150   3.413  0.5372 -0.4216 -0.3205
  186POPC   C2821406   5.623   2.294   3.569  1.2605  0.1594  0.1441
  186POPC   H8R21407   5.521   2.269   3.603 -0.1679  0.9070 -3.1911
  186POPC   H8S21408   5.626   2.403   3.588 -2.0714  0.1795  1.2149
  186POPC   C2921409   5.719   2.212   3.660 -0.8142 -0.6305  0.0335
  186POPC   H9121410   5.707   2.103   3.649 -0.6789 -0.7702  1.1389
  186POPC  C21021411   5.814   2.267   3.739  0.5617  0.4660 -0.1822
  186POPC  H10121412   5.873   2.196   3.799 -0.0067  0.6375  0.6024
  186POPC  C21121413   5.833   2.417   3.762  0.3809  0.0157 -0.5753
  186POPC  H11R21414   5.822   2.469   3.664 -1.3411  1.3652  0.2894
  186POPC  H11S21415   5.938   2.432   3.796  0.7387 -0.5431 -1.3952
  186POPC  C21221416   5.731   2.479   3.854  0.3967 -0.1222 -0.8616
  186POPC  H12R21417   5.637   2.441   3.810 -1.3000  2.3184  0.4101
  186POPC  H12S21418   5.738   2.590   3.862 -2.9634  0.0137  2.9055
  186POPC  C21321419   5.738   2.433   3.995  0.4703  0.4783 -0.0720
  186POPC  H13R21420   5.820   2.492   4.041  1.0908  0.9803 -1.7559
  186POPC  H13S21421   5.772   2.328   3.985  0.2446  0.3322  0.6380
  186POPC  C21421422   5.602   2.436   4.067 -0.0621  0.2501 -0.8220
  186POPC  H14R21423   5.534   2.365   4.017  0.4525  0.1151 -1.3526
  186POPC  H14S21424   5.552   2.535   4.057  0.7400  0.9327  1.3700
  186POPC  C21521425   5.621   2.401   4.221 -0.1461 -0.1330  0.0710
  186POPC  H15R21426   5.704   2.468   4.254 -0.5240  0.6210 -0.4724
  186POPC  H15S21427   5.654   2.296   4.236  0.1260  0.2857  3.1096
  186POPC  C21621428   5.488   2.412   4.293 -0.2655 -0.0069  0.3989
  186POPC  H16R21429   5.417   2.332   4.264  0.2415 -0.1899 -0.3703
  186POPC  H16S21430   5.454   2.513   4.263  0.6047 -0.0862 -0.9618
  186POPC  C21721431   5.515   2.392   4.438 -0.8970 -0.5551 -0.0153
  186POPC  H17R21432   5.585   2.470   4.475 -1.2507 -0.4365  0.4089
  186POPC  H17S21433   5.558   2.293   4.468 -0.3492 -1.1621 -2.5864
  186POPC  C21821434   5.389   2.419   4.530  0.5292  0.1678  0.0710
  186POPC  H18R21435   5.352   2.519   4.499 -0.3472  0.8156  2.9716
  186POPC  H18S21436   5.310   2.343   4.511  2.1099 -1.7229  0.7819
  186POPC  H18T21437   5.417   2.427   4.637  0.3112  2.2334  0.0238
  186POPC   C3321438   6.022   2.300   2.810  0.0581  0.7877 -0.0284
  186POPC   H3X21439   6.051   2.407   2.822  2.3440  0.0433  2.0033
  186POPC   H3Y21440   6.112   2.247   2.849  2.0200  1.6826 -2.9431
  186POPC   C3421441   5.900   2.262   2.896 -0.0153  0.6238 -0.5409
  186POPC   H4X21442   5.897   2.153   2.878  0.6307  0.2738  1.2008
  186POPC   H4Y21443   5.804   2.303   2.860 -0.7117 -0.0865  0.4508
  186POPC   C3521444   5.917   2.294   3.047 -0.1810 -0.6009 -0.3753
  186POPC   H5X21445   6.017   2.276   3.091 -0.1916 -0.1838 -0.1818
  186POPC   H5Y21446   5.841   2.236   3.105 -0.4570 -1.2390 -1.3461
  186POPC   C3621447   5.892   2.443   3.078  0.4535 -0.1911  0.9644
  186POPC   H6X21448   5.789   2.476   3.054 -0.2042 -0.7179  2.8546
  186POPC   H6Y21449   5.958   2.513   3.024 -0.1489  0.3814  0.9537
  186POPC   C3721450   5.905   2.475   3.226  0.5033  0.0904  0.4765
  186POPC   H7X21451   6.000   2.452   3.278 -0.3702  0.7543  2.4693
  186POPC   H7Y21452   5.828   2.415   3.279  0.0168  0.0041 -0.3115
  186POPC   C3821453   5.858   2.619   3.257 -0.2192 -0.2319  0.7149
  186POPC   H8X21454   5.758   2.642   3.215  1.2299  4.3384 -0.7543
  186POPC   H8Y21455   5.924   2.694   3.208  0.6727  1.3016  3.9514
  186POPC   C3921456   5.870   2.643   3.408 -0.1623 -0.4087  0.0480
  186POPC   H9X21457   5.974   2.615   3.435  0.4589 -1.4903 -3.1464
  186POPC   H9Y21458   5.802   2.583   3.473 -0.9084 -1.8034 -1.9151
  186POPC  C31021459   5.849   2.795   3.452  0.5958 -0.1952 -0.0698
  186POPC  H10X21460   5.748   2.827   3.418  0.4513 -1.2140 -0.6637
  186POPC  H10Y21461   5.926   2.848   3.392 -0.6705  2.3602  0.4401
  186POPC  C31121462   5.861   2.819   3.604  0.2289 -0.0891 -0.3294
  186POPC  H11X21463   5.785   2.760   3.660  1.7126 -1.1648  0.6410
  186POPC  H11Y21464   5.840   2.926   3.629  1.2566 -0.1108  0.7029
  186POPC  C31221465   6.001   2.783   3.656  0.0159 -0.1507  0.8308
  186POPC  H12X21466   6.071   2.842   3.593 -0.3582 -1.7645 -1.1999
  186POPC  H12Y21467   6.021   2.674   3.642  2.4977  0.4797 -1.4885
  186POPC  C31321468   6.017   2.811   3.803  0.1902 -0.2029  0.2589
  186POPC  H13X21469   6.111   2.764   3.839 -0.0843 -1.9749 -1.1556
  186POPC  H13Y21470   5.932   2.751   3.842  0.5702 -1.2151 -0.4157
  186POPC  C31421471   6.002   2.954   3.850  0.0829 -0.4788 -0.2134
  186POPC  H14X21472   5.901   2.992   3.824 -0.4886 -2.7171 -1.5104
  186POPC  H14Y21473   6.072   3.013   3.787 -2.6095  1.1680 -1.8766
  186POPC  C31521474   6.042   2.980   3.989 -0.6662 -0.6476 -0.9698
  186POPC  H15X21475   6.014   2.886   4.043 -1.1312 -0.1941 -0.4083
  186POPC  H15Y21476   5.978   3.063   4.026  1.7756  0.1551  1.7996
  186POPC  C31621477   6.193   3.007   4.010  0.2550  1.0333  0.0488
  186POPC  H16X21478   6.226   2.976   4.112 -1.5948 -1.8073 -0.1136
  186POPC  H16Y21479   6.214   3.115   3.992 -0.7878  0.7643 -3.4224
  186POPC  H16Z21480   6.254   2.959   3.931  0.8983 -0.0207  1.1486
  187POPC     N21481   3.640   5.936   2.672  0.2364  0.2712 -0.5441
  187POPC   C1221482   3.745   6.024   2.597  0.1166 -0.0843 -0.9994
  187POPC  H12A21483   3.826   5.954   2.588  0.4806  0.3463 -1.0902
  187POPC  H12B21484   3.791   6.097   2.663  0.6047 -0.1137 -1.3063
  187POPC   C1321485   3.550   6.032   2.750 -0.0199 -0.6624 -0.3025
  187POPC  H13A21486   3.483   5.979   2.816 -0.4167 -2.0799 -1.7931
  187POPC  H13B21487   3.614   6.100   2.805  0.7886 -2.6213  1.2764
  187POPC  H13C21488   3.501   6.093   2.675 -1.1330 -0.8473  0.2451
  187POPC   C1421489   3.565   5.850   2.578 -0.0132 -0.3191  0.7559
  187POPC  H14A21490   3.512   5.767   2.623 -2.8920  1.1025  0.2448
  187POPC  H14B21491   3.478   5.899   2.535 -0.0366 -1.5756 -0.7166
  187POPC  H14C21492   3.632   5.818   2.500  0.0268  1.4009  0.0392
  187POPC   C1521493   3.707   5.843   2.769 -0.1225 -0.2552 -0.1272
  187POPC  H15A21494   3.637   5.777   2.818  0.3036  0.0684  0.9363
  187POPC  H15B21495   3.753   5.907   2.842  0.4483  0.6859 -1.2648
  187POPC  H15C21496   3.790   5.789   2.724  0.6553 -0.8150  1.8637
  187POPC   C1121497   3.696   6.097   2.468  0.3046  0.4320 -0.1339
  187POPC  H11A21498   3.654   6.011   2.412 -1.0460  1.6897 -1.1086
  187POPC  H11B21499   3.780   6.128   2.402 -0.7581  1.6976 -0.9456
  187POPC     P21500   3.527   6.272   2.387  0.0335  0.1344  0.1126
  187POPC   O1321501   3.550   6.207   2.255  0.2559  0.3919  0.3464
  187POPC   O1421502   3.553   6.416   2.386 -0.1855 -0.3720 -0.9531
  187POPC   O1221503   3.608   6.201   2.497  0.1325  0.2717  0.1088
  187POPC   O1121504   3.376   6.240   2.429  0.1702 -0.5726 -0.4969
  187POPC    C121505   3.327   6.128   2.503  0.3656  0.4836 -0.3865
  187POPC    HA21506   3.412   6.063   2.532  1.2035  0.1580 -3.2473
  187POPC    HB21507   3.272   6.068   2.427 -2.0865  1.8699  0.1732
  187POPC    C221508   3.231   6.155   2.620 -0.1365 -0.2691 -0.5770
  187POPC    HS21509   3.140   6.213   2.597  0.2338 -0.2928 -2.1741
  187POPC   O2121510   3.310   6.224   2.724 -0.1941  0.0770 -0.2225
  187POPC   C2121511   3.254   6.341   2.762  0.1122  0.2408 -0.4176
  187POPC   O2221512   3.146   6.378   2.730  0.1470 -0.5829 -0.3624
  187POPC   C2221513   3.361   6.419   2.847 -0.1588 -1.0319 -0.4684
  187POPC   H2R21514   3.303   6.511   2.870 -0.6319 -1.5252  0.3486
  187POPC   H2S21515   3.447   6.431   2.777  1.1227  2.0099  1.4454
  187POPC    C321516   3.185   6.024   2.688  0.1528  0.7544 -0.5321
  187POPC    HX21517   3.277   5.961   2.692  0.1549  0.6248 -1.9113
  187POPC    HY21518   3.137   5.959   2.612  2.1491 -1.3344 -0.1335
  187POPC   O3121519   3.112   6.038   2.811 -0.4398  0.3212 -0.3715
  187POPC   C3121520   3.158   5.977   2.921 -0.8093 -0.0249 -0.4797
  187POPC   O3221521   3.267   5.926   2.943  0.4171 -0.4968  0.0467
  187POPC   C3221522   3.040   5.998   3.020  0.0094 -0.3855  0.3882
  187POPC   H2X21523   2.976   5.908   3.009 -1.3943  0.6069  0.1449
  187POPC   H2Y21524   2.983   6.084   2.980 -2.8534 -2.4812 -0.3561
  187POPC   C2321525   3.393   6.342   2.977 -0.0518  0.4414 -0.0955
  187POPC   H3R21526   3.492   6.377   3.013  0.1153  1.6806 -1.6245
  187POPC   H3S21527   3.395   6.234   2.952 -1.1254  0.7927 -1.9150
  187POPC   C2421528   3.284   6.357   3.076  0.2188  0.0107 -0.3083
  187POPC   H4R21529   3.307   6.281   3.155  2.2907  0.4055 -0.4931
  187POPC   H4S21530   3.187   6.318   3.037  1.1693 -2.1957 -0.6246
  187POPC   C2521531   3.255   6.498   3.123 -0.2173 -0.0555 -0.3173
  187POPC   H5R21532   3.183   6.495   3.209  1.6247 -1.0797  1.2645
  187POPC   H5S21533   3.207   6.564   3.047  0.1224  1.1362  0.4671
  187POPC   C2621534   3.385   6.563   3.173 -0.3557  0.6691 -0.4791
  187POPC   H6R21535   3.354   6.663   3.210 -1.9164 -0.0969  0.3811
  187POPC   H6S21536   3.454   6.572   3.087  0.0983  0.2544 -0.1603
  187POPC   C2721537   3.455   6.482   3.291  0.2393 -0.1681  0.2053
  187POPC   H7R21538   3.508   6.393   3.251  1.9142  0.6824  0.4375
  187POPC   H7S21539   3.384   6.458   3.373 -1.2780  0.9017 -0.7477
  187POPC   C2821540   3.576   6.562   3.351  0.0156 -0.0305  0.9796
  187POPC   H8R21541   3.655   6.605   3.285  0.2943 -1.7988  0.0838
  187POPC   H8S21542   3.638   6.494   3.413 -0.4631 -0.9240  0.4876
  187POPC   C2921543   3.524   6.672   3.439  0.0226  0.2251  0.4301
  187POPC   H9121544   3.497   6.766   3.388 -0.6330 -0.2254 -0.0759
  187POPC  C21021545   3.517   6.672   3.574  0.4541  0.1270  0.4326
  187POPC  H10121546   3.482   6.766   3.619  0.2035  0.8658 -1.2418
  187POPC  C21121547   3.550   6.560   3.665 -0.6277  0.6562  0.0935
  187POPC  H11R21548   3.655   6.569   3.700 -0.6252  0.6319  0.0924
  187POPC  H11S21549   3.535   6.468   3.605 -3.0999  0.2224  1.2269
  187POPC  C21221550   3.457   6.537   3.788  0.1036 -0.3795 -0.4478
  187POPC  H12R21551   3.446   6.429   3.809  0.0218 -0.5494 -1.3343
  187POPC  H12S21552   3.355   6.571   3.759 -0.3812  0.1462  1.6917
  187POPC  C21321553   3.487   6.623   3.912  0.8717  0.0546  0.6463
  187POPC  H13R21554   3.475   6.728   3.877 -1.7227 -0.5429 -0.5215
  187POPC  H13S21555   3.594   6.604   3.936  0.4942 -1.7937  1.0485
  187POPC  C21421556   3.405   6.600   4.037  0.6353  0.0820 -0.1187
  187POPC  H14R21557   3.297   6.621   4.024  0.1779 -1.8728  0.2386
  187POPC  H14S21558   3.434   6.679   4.109  1.2809 -0.4976  0.2656
  187POPC  C21521559   3.407   6.466   4.105  0.0369  0.2152 -0.5004
  187POPC  H15R21560   3.510   6.426   4.114  0.2411  1.0162  1.1394
  187POPC  H15S21561   3.351   6.395   4.040  0.9694  0.5193 -1.6575
  187POPC  C21621562   3.356   6.480   4.256  0.1171  0.6187  0.0919
  187POPC  H16R21563   3.250   6.509   4.247  0.5596  1.8385 -1.8015
  187POPC  H16S21564   3.417   6.560   4.304  1.4434  0.7547 -1.7203
  187POPC  C21721565   3.369   6.348   4.325 -0.0241 -1.0028  0.1115
  187POPC  H17R21566   3.470   6.307   4.302 -0.0291 -0.2978 -1.3166
  187POPC  H17S21567   3.299   6.284   4.268  1.8532 -0.9652 -2.4355
  187POPC  C21821568   3.348   6.363   4.474 -0.3290  0.4276  0.1767
  187POPC  H18R21569   3.348   6.261   4.516 -0.5205 -0.3180 -1.5619
  187POPC  H18S21570   3.251   6.409   4.503 -0.0989  1.2364 -0.2841
  187POPC  H18T21571   3.435   6.419   4.515 -0.2916  1.2956 -1.0216
  187POPC   C3321572   3.080   5.986   3.167 -0.5343 -0.5436  0.1220
  187POPC   H3X21573   3.189   5.988   3.190 -0.7179  1.1593  0.9773
  187POPC   H3Y21574   3.047   5.903   3.232 -0.2327 -2.2460 -1.7860
  187POPC   C3421575   3.031   6.112   3.245 -0.0973 -0.0108  0.2223
  187POPC   H4X21576   2.921   6.106   3.233 -0.0132  0.7937 -1.3389
  187POPC   H4Y21577   3.065   6.206   3.196  0.8098 -1.1297 -1.4091
  187POPC   C3521578   3.086   6.110   3.395 -0.1320 -0.1669 -0.7616
  187POPC   H5X21579   3.092   6.004   3.428  2.0066 -0.5667 -2.2086
  187POPC   H5Y21580   2.999   6.150   3.451 -2.7696 -2.9440 -2.5809
  187POPC   C3621581   3.207   6.200   3.422  0.0593 -0.4771 -0.3325
  187POPC   H6X21582   3.204   6.298   3.370 -3.4399 -0.9552 -1.3127
  187POPC   H6Y21583   3.288   6.150   3.365 -1.3709 -1.4128 -1.6265
  187POPC   C3721584   3.238   6.215   3.570 -0.1391 -0.0660  0.2384
  187POPC   H7X21585   3.327   6.282   3.577 -0.9970  1.0491  0.6847
  187POPC   H7Y21586   3.265   6.113   3.606  1.2699  0.7075  1.4891
  187POPC   C3821587   3.117   6.250   3.655  0.5862 -0.7803  0.2948
  187POPC   H8X21588   3.037   6.173   3.650 -2.0906  1.7854  0.9027
  187POPC   H8Y21589   3.076   6.336   3.599  0.1226 -0.2904  1.3455
  187POPC   C3921590   3.138   6.282   3.810  0.7587  0.2394 -0.1040
  187POPC   H9X21591   3.210   6.366   3.811 -1.2334  2.0461 -0.3012
  187POPC   H9Y21592   3.161   6.188   3.866 -4.4236 -0.9016  0.6959
  187POPC  C31021593   3.006   6.328   3.870 -0.2589 -0.3081 -0.3301
  187POPC  H10X21594   2.945   6.235   3.880 -1.0383  0.4422  3.0755
  187POPC  H10Y21595   2.959   6.398   3.797  3.5768  1.5886 -1.2278
  187POPC  C31121596   3.038   6.390   4.012 -0.4581 -0.2061  0.1362
  187POPC  H11X21597   3.102   6.478   3.990 -0.2114 -0.2616  0.6252
  187POPC  H11Y21598   3.093   6.321   4.080  0.0472  0.9011  0.8684
  187POPC  C31221599   2.911   6.442   4.079 -0.5083  0.0111 -0.8574
  187POPC  H12X21600   2.825   6.373   4.072  0.2086 -1.0826  0.4828
  187POPC  H12Y21601   2.872   6.531   4.026 -0.8817  0.1377 -0.3748
  187POPC  C31321602   2.941   6.474   4.229 -0.1484  0.1908 -0.1205
  187POPC  H13X21603   3.046   6.503   4.251 -0.8706  0.9069  2.7841
  187POPC  H13Y21604   2.921   6.384   4.292  0.8903  0.2861  0.3684
  187POPC  C31421605   2.859   6.597   4.283  0.0785  0.0977  0.9913
  187POPC  H14X21606   2.751   6.578   4.265  0.8260 -2.2400 -1.8011
  187POPC  H14Y21607   2.876   6.685   4.217 -2.5573 -1.7098 -2.4307
  187POPC  C31521608   2.877   6.625   4.433 -0.1567 -0.7360  0.2840
  187POPC  H15X21609   2.984   6.602   4.451 -0.0500 -1.7185 -1.3702
  187POPC  H15Y21610   2.819   6.546   4.486  0.8758 -1.9453 -0.3122
  187POPC  C31621611   2.840   6.755   4.498 -0.3169  0.1362  0.2484
  187POPC  H16X21612   2.889   6.839   4.445  1.1525 -1.0282 -0.3071
  187POPC  H16Y21613   2.878   6.750   4.602 -3.0070 -0.0450  1.3252
  187POPC  H16Z21614   2.729   6.767   4.492 -0.4158 -1.3480 -1.8119
  188POPC     N21615   5.301   0.963   2.473  0.3333  0.9394  0.1617
  188POPC   C1221616   5.403   1.017   2.574 -0.0208  1.4165 -0.5710
  188POPC  H12A21617   5.431   0.937   2.640 -1.0696  0.7353 -0.9297
  188POPC  H12B21618   5.356   1.091   2.637 -0.1729  0.9886 -0.1790
  188POPC   C1321619   5.262   1.071   2.376 -0.3226  0.4474  0.0082
  188POPC  H13A21620   5.179   1.128   2.416 -1.2160 -0.4926 -0.4438
  188POPC  H13B21621   5.345   1.138   2.362  0.6249 -0.3279  1.5882
  188POPC  H13C21622   5.218   1.031   2.285  0.1059 -1.1671  0.4670
  188POPC   C1421623   5.352   0.840   2.397  0.4226 -0.2263  0.1318
  188POPC  H14A21624   5.448   0.866   2.356  0.3804  0.7554  0.6328
  188POPC  H14B21625   5.376   0.752   2.456  1.7244 -0.9826 -1.4543
  188POPC  H14C21626   5.279   0.813   2.322  0.0976 -0.2775  0.4620
  188POPC   C1521627   5.187   0.921   2.555  1.0154 -0.5086  0.0822
  188POPC  H15A21628   5.225   0.847   2.625 -0.3233 -0.4689  0.8749
  188POPC  H15B21629   5.108   0.868   2.504 -0.8249  0.1862  2.0710
  188POPC  H15C21630   5.147   1.013   2.595  2.2616  0.6267 -1.1823
  188POPC   C1121631   5.535   1.076   2.510  0.3198  0.0096 -0.5699
  188POPC  H11A21632   5.576   0.984   2.463  0.6162 -2.2870  3.6668
  188POPC  H11B21633   5.599   1.105   2.596 -0.3820  1.2380 -0.4458
  188POPC     P21634   5.484   1.329   2.474  0.0228  0.1748  0.0812
  188POPC   O1321635   5.356   1.376   2.417  0.1492  0.0649 -0.0293
  188POPC   O1421636   5.602   1.415   2.437 -0.0494  0.3953  0.2001
  188POPC   O1221637   5.515   1.185   2.417 -0.1154 -0.2195  0.2283
  188POPC   O1121638   5.481   1.312   2.632 -0.0885 -0.0347 -0.0427
  188POPC    C121639   5.572   1.395   2.712  0.6562  0.2474  0.7537
  188POPC    HA21640   5.542   1.502   2.708 -1.6212 -0.0388  4.6747
  188POPC    HB21641   5.676   1.378   2.678 -0.2786 -1.6798 -1.3855
  188POPC    C221642   5.562   1.356   2.862  0.5492 -0.3203 -0.2413
  188POPC    HS21643   5.576   1.247   2.876  0.4724 -0.3261 -0.2045
  188POPC   O2121644   5.434   1.404   2.912  0.2726 -0.6946  0.0007
  188POPC   C2121645   5.381   1.329   3.010 -0.5528 -0.1186  0.5217
  188POPC   O2221646   5.423   1.215   3.033  0.1693 -0.1273  0.2629
  188POPC   C2221647   5.251   1.389   3.060  0.2286  0.2835 -0.5998
  188POPC   H2R21648   5.172   1.389   2.982 -2.1114  1.2501  1.6216
  188POPC   H2S21649   5.280   1.495   3.076 -0.9711  0.5827 -0.3210
  188POPC    C321650   5.685   1.419   2.932  0.6865  0.1459 -0.7062
  188POPC    HX21651   5.678   1.527   2.905  0.4393  0.3798  0.2690
  188POPC    HY21652   5.783   1.387   2.892 -0.1351 -1.3917 -1.6140
  188POPC   O3121653   5.672   1.402   3.079 -0.3189  0.2177  0.2557
  188POPC   C3121654   5.757   1.314   3.138  0.1454 -0.6520 -0.1723
  188POPC   O3221655   5.856   1.272   3.082  0.6309 -0.2126 -0.3119
  188POPC   C3221656   5.716   1.291   3.280  0.4865 -0.1323  0.2098
  188POPC   H2X21657   5.657   1.198   3.290 -3.5183  2.2911  1.0867
  188POPC   H2Y21658   5.659   1.379   3.316  1.5710  2.1018 -3.0951
  188POPC   C2321659   5.179   1.315   3.172 -0.6780  0.4816 -0.9968
  188POPC   H3R21660   5.156   1.212   3.138  2.0475 -0.0804 -1.3424
  188POPC   H3S21661   5.085   1.372   3.195 -0.1141  0.6810  1.0538
  188POPC   C2421662   5.266   1.313   3.307  0.0216 -0.4245 -0.4701
  188POPC   H4R21663   5.289   1.421   3.320  0.5697 -0.6268  0.2910
  188POPC   H4S21664   5.356   1.251   3.286 -1.3535 -2.7746  0.2030
  188POPC   C2521665   5.203   1.269   3.440 -0.4963  0.0427 -0.1433
  188POPC   H5R21666   5.160   1.167   3.426 -0.7560  0.3642 -2.0497
  188POPC   H5S21667   5.117   1.335   3.463 -1.2938 -0.5774 -1.2044
  188POPC   C2621668   5.306   1.259   3.557 -0.3034  0.0433  0.2672
  188POPC   H6R21669   5.331   1.359   3.599  1.0553 -0.4668  0.7156
  188POPC   H6S21670   5.397   1.210   3.517  0.0725 -1.2513  2.5265
  188POPC   C2721671   5.251   1.166   3.669 -0.0902  0.1325  0.9915
  188POPC   H7R21672   5.250   1.061   3.631  0.3944  0.6841 -0.5866
  188POPC   H7S21673   5.143   1.193   3.679 -0.4655  0.5097 -2.7192
  188POPC   C2821674   5.323   1.172   3.799 -0.8059 -1.2188 -0.2241
  188POPC   H8R21675   5.266   1.118   3.877 -0.0791  0.9532  1.9310
  188POPC   H8S21676   5.311   1.278   3.830 -1.8217 -1.4339  0.1442
  188POPC   C2921677   5.466   1.126   3.807  0.6609 -0.6138 -0.1339
  188POPC   H9121678   5.480   1.017   3.801 -1.1068 -0.9718  1.3597
  188POPC  C21021679   5.577   1.202   3.845  0.6839  0.1815  0.1779
  188POPC  H10121680   5.675   1.152   3.853 -1.4137 -4.7270 -1.3119
  188POPC  C21121681   5.573   1.344   3.891  0.4594 -0.1679 -0.3454
  188POPC  H11R21682   5.472   1.382   3.918 -0.4038 -1.7050 -1.3068
  188POPC  H11S21683   5.615   1.414   3.816  0.9372  0.2192  0.2784
  188POPC  C21221684   5.674   1.345   4.020 -0.2508  0.2286  0.2459
  188POPC  H12R21685   5.695   1.448   4.056  2.1397  0.0708 -0.5106
  188POPC  H12S21686   5.773   1.303   3.994  0.1382  1.6480 -0.6926
  188POPC  C21321687   5.623   1.266   4.144  0.1340  0.5545  0.4783
  188POPC  H13R21688   5.694   1.283   4.228 -0.4848 -0.7453  1.2957
  188POPC  H13S21689   5.634   1.157   4.128  2.1560  0.8865 -0.8440
  188POPC  C21421690   5.479   1.304   4.184 -0.0624 -0.2547 -0.2180
  188POPC  H14R21691   5.406   1.283   4.102 -0.8402  2.0148 -0.1740
  188POPC  H14S21692   5.485   1.415   4.191 -0.9560 -0.2631  0.8914
  188POPC  C21521693   5.433   1.230   4.306  0.9372 -0.0365  0.0534
  188POPC  H15R21694   5.460   1.123   4.309  3.7293  0.6029  1.6418
  188POPC  H15S21695   5.322   1.237   4.310  1.0727  3.0921  1.2007
  188POPC  C21621696   5.472   1.290   4.442 -0.0381 -0.1459 -0.2608
  188POPC  H16R21697   5.470   1.401   4.436  0.6153 -0.1392 -0.5496
  188POPC  H16S21698   5.580   1.280   4.467 -0.4296  1.1702  2.2815
  188POPC  C21721699   5.380   1.242   4.557 -0.7075  0.4132 -0.5176
  188POPC  H17R21700   5.400   1.133   4.567 -1.5123 -0.0907 -3.5965
  188POPC  H17S21701   5.272   1.250   4.532 -1.0391  0.0699  0.7177
  188POPC  C21821702   5.412   1.305   4.694  0.0320  0.4987  0.1301
  188POPC  H18R21703   5.380   1.234   4.773  0.3285  0.2994  0.0698
  188POPC  H18S21704   5.375   1.407   4.718  0.3096  0.4627  0.7240
  188POPC  H18T21705   5.520   1.330   4.706 -0.1460  1.9737 -1.0170
  188POPC   C3321706   5.834   1.274   3.372 -0.7034 -0.0938  0.4562
  188POPC   H3X21707   5.914   1.348   3.348 -1.8968  1.5996  1.4747
  188POPC   H3Y21708   5.880   1.176   3.348  0.4027  0.5229 -0.0898
  188POPC   C3421709   5.799   1.303   3.512  0.3031  0.2206  0.2595
  188POPC   H4X21710   5.698   1.263   3.535  0.9584 -0.9788  1.0946
  188POPC   H4Y21711   5.783   1.412   3.530  0.3820  0.1927  0.4977
  188POPC   C3521712   5.890   1.243   3.620  0.7938 -0.6242  0.3123
  188POPC   H5X21713   5.876   1.133   3.609 -1.0581 -0.4564  0.7176
  188POPC   H5Y21714   5.852   1.281   3.717 -0.1573  0.0202 -0.2988
  188POPC   C3621715   6.035   1.279   3.611 -0.5585  0.1312 -0.3440
  188POPC   H6X21716   6.047   1.380   3.656 -0.3101 -0.3849  0.7850
  188POPC   H6Y21717   6.071   1.281   3.507  0.6688 -2.4339 -0.0441
  188POPC   C3721718   6.131   1.179   3.684 -0.4728  0.1911 -0.1054
  188POPC   H7X21719   6.239   1.189   3.660  0.1367 -1.9969  1.4101
  188POPC   H7Y21720   6.087   1.091   3.632 -2.4077  1.4154 -0.6438
  188POPC   C3821721   6.110   1.157   3.832 -0.4315 -0.1185  0.2444
  188POPC   H8X21722   6.170   1.067   3.857 -1.2447 -0.7724 -0.0857
  188POPC   H8Y21723   6.004   1.132   3.853 -0.2984 -2.5668 -1.5598
  188POPC   C3921724   6.149   1.275   3.925  0.6924  0.2305  0.1756
  188POPC   H9X21725   6.094   1.364   3.887  0.6804  0.6250  1.1060
  188POPC   H9Y21726   6.258   1.292   3.907  0.6996  0.4989  0.4797
  188POPC  C31021727   6.107   1.252   4.067 -0.0009  0.2987 -0.5080
  188POPC  H10X21728   6.162   1.165   4.108  0.4849  1.0568  0.4942
  188POPC  H10Y21729   5.998   1.233   4.075  0.1267 -0.1587  0.2788
  188POPC  C31121730   6.125   1.381   4.153  0.3615 -0.0145  0.1680
  188POPC  H11X21731   6.041   1.448   4.127 -0.0557  0.2542  2.0310
  188POPC  H11Y21732   6.228   1.418   4.134  0.8794 -2.2851 -2.0214
  188POPC  C31221733   6.113   1.343   4.305 -0.0660  0.4944  0.7654
  188POPC  H12X21734   6.177   1.418   4.355 -0.4940  1.7836 -0.5595
  188POPC  H12Y21735   6.165   1.245   4.315 -0.3505  0.1932 -0.5135
  188POPC  C31321736   5.978   1.341   4.367  0.4836 -0.0708 -0.6804
  188POPC  H13X21737   5.913   1.287   4.295 -0.4096  1.1265 -0.8135
  188POPC  H13Y21738   5.952   1.449   4.369 -3.3440 -0.8576  0.8798
  188POPC  C31421739   5.981   1.284   4.512 -0.9814  0.1629 -0.4543
  188POPC  H14X21740   6.076   1.328   4.551 -0.4392  0.1651 -1.7327
  188POPC  H14Y21741   5.994   1.175   4.499 -0.4015  0.0096  1.1529
  188POPC  C31521742   5.855   1.311   4.595 -1.0016 -0.4136  0.0016
  188POPC  H15X21743   5.775   1.237   4.572 -0.9170 -1.5901  2.9880
  188POPC  H15Y21744   5.810   1.412   4.586  0.8909  0.4445 -0.2089
  188POPC  C31621745   5.882   1.284   4.741  0.3580  0.0742  0.2991
  188POPC  H16X21746   5.931   1.187   4.762 -0.6176 -1.0738 -2.2977
  188POPC  H16Y21747   5.787   1.269   4.797  0.1601 -1.4150 -0.3788
  188POPC  H16Z21748   5.940   1.368   4.783 -0.2476  0.6602 -0.0140
  189SAPI   C1221749   3.630   3.742   7.315 -0.3209  0.4038  0.9580
  189SAPI    H221750   3.520   3.727   7.327 -0.3154  2.0986  4.1551
  189SAPI    O221751   3.659   3.881   7.360 -0.4754  0.1609  0.0538
  189SAPI   HO221752   3.584   3.929   7.323 -1.4537 -2.2334 -1.3191
  189SAPI   C1321753   3.701   3.647   7.405 -0.0378  0.0375 -0.6387
  189SAPI    H321754   3.686   3.546   7.361  2.0045 -0.3801 -0.4441
  189SAPI    O321755   3.642   3.640   7.533 -0.1507 -0.3553  0.0575
  189SAPI   HO321756   3.684   3.703   7.591 -1.9623 -0.1388  1.2148
  189SAPI   C1421757   3.851   3.681   7.415  0.4712 -0.0885  0.0490
  189SAPI    H421758   3.852   3.786   7.452 -0.4581 -0.1577  0.2934
  189SAPI    O421759   3.932   3.602   7.509 -0.0226  0.0484 -0.8574
  189SAPI   HO421760   4.021   3.637   7.517 -0.4459  0.8049  0.9880
  189SAPI   C1521761   3.924   3.691   7.283  0.0592 -0.5206  0.3223
  189SAPI    H521762   3.949   3.584   7.267  1.0648 -0.0889 -1.2890
  189SAPI    O521763   4.045   3.767   7.297  0.4087 -0.2339  0.5425
  189SAPI   HO521764   4.091   3.773   7.212  1.9715 -1.7044  1.2204
  189SAPI   C1621765   3.834   3.722   7.166  0.5761  0.3394  0.4204
  189SAPI    H621766   3.846   3.831   7.151 -0.5748  0.1493 -2.7232
  189SAPI    O621767   3.877   3.679   7.039 -0.1280  0.6739 -0.1706
  189SAPI   HO621768   3.827   3.725   6.971 -1.0787 -0.4903 -0.3119
  189SAPI   C1121769   3.677   3.721   7.178  0.5542 -0.6327  0.3403
  189SAPI    H121770   3.653   3.614   7.159 -0.5982 -0.5109  1.0160
  189SAPI     P21771   3.541   3.761   6.944  0.0540 -0.2006 -0.5543
  189SAPI   O1321772   3.437   3.860   6.909 -0.7576 -0.6060 -0.1235
  189SAPI   O1421773   3.492   3.618   6.954  0.2729  0.0263 -0.2627
  189SAPI   O1221774   3.611   3.811   7.087 -0.1472  0.2598 -0.4364
  189SAPI   O1121775   3.658   3.771   6.847  0.7424  0.0940  0.9643
  189SAPI    C121776   3.725   3.896   6.827 -0.7486 -0.3365  0.1053
  189SAPI    HA21777   3.708   3.971   6.907 -0.5693 -0.3854  0.1900
  189SAPI    HB21778   3.833   3.873   6.844 -0.8095 -0.0708  0.8862
  189SAPI    C221779   3.705   3.967   6.691  0.4602  0.6255 -0.1673
  189SAPI    HS21780   3.610   4.025   6.681 -0.2314 -0.1126  1.7210
  189SAPI   O2121781   3.717   3.856   6.594 -0.1470  0.0130  0.4114
  189SAPI   C2121782   3.618   3.847   6.510 -0.9075 -0.4487 -1.0715
  189SAPI   O2221783   3.531   3.930   6.493  0.3509  0.7439  0.4573
  189SAPI   C2221784   3.635   3.725   6.421  0.1046  0.7819  0.5644
  189SAPI   H2R21785   3.721   3.735   6.352  1.1309 -2.0815  1.2816
  189SAPI   H2S21786   3.652   3.632   6.478  0.8480  0.5787  0.0297
  189SAPI    C321787   3.813   4.072   6.667 -0.3446 -0.1548 -0.0370
  189SAPI    HX21788   3.915   4.040   6.636 -1.1177  0.3190 -3.4337
  189SAPI    HY21789   3.825   4.134   6.758 -3.0315  1.2092 -0.5260
  189SAPI   O3121790   3.764   4.167   6.570  0.2898 -0.3323 -0.1493
  189SAPI   C3121791   3.800   4.131   6.446  0.6496  0.1534 -0.1379
  189SAPI   O3221792   3.858   4.032   6.409  0.6234 -0.1635  0.3760
  189SAPI   C3221793   3.753   4.248   6.359 -0.6114  0.0512 -0.1483
  189SAPI   H2X21794   3.850   4.294   6.331 -0.5199 -0.4692 -0.6962
  189SAPI   H2Y21795   3.686   4.318   6.414 -1.2635 -0.6293 -0.0497
  189SAPI   C2321796   3.517   3.720   6.324  0.1223  0.2860  0.2182
  189SAPI   H3R21797   3.534   3.793   6.243  4.5648  1.2378  1.7372
  189SAPI   H3S21798   3.424   3.749   6.377 -0.3465 -0.5363 -0.1366
  189SAPI   C2421799   3.489   3.572   6.272  0.1607 -0.0641  0.6939
  189SAPI   H4R21800   3.383   3.578   6.239 -0.2521 -2.7022  1.2847
  189SAPI   H4S21801   3.496   3.515   6.368  1.8737 -0.5116  0.3369
  189SAPI   C2521802   3.582   3.520   6.162 -0.1716 -0.2421  0.6358
  189SAPI   H5R21803   3.663   3.462   6.208  0.2731 -0.0896  0.0616
  189SAPI   C2621804   3.566   3.538   6.029  0.3099 -0.5129  0.6898
  189SAPI   H6R21805   3.637   3.486   5.963  2.0609 -0.3684  2.3790
  189SAPI   C2721806   3.462   3.618   5.948  0.5229  0.1645 -0.1557
  189SAPI   H7R21807   3.494   3.648   5.846 -1.1358 -1.4890 -1.2305
  189SAPI   H7S21808   3.449   3.717   5.996  0.0439 -0.4529  1.0093
  189SAPI   C2821809   3.335   3.541   5.934  0.5400 -1.3714 -0.5195
  189SAPI   H8R21810   3.311   3.479   6.022 -0.1571 -0.4490 -0.0389
  189SAPI   C2921811   3.271   3.529   5.818  0.8110 -0.1354  0.1341
  189SAPI   H9R21812   3.169   3.488   5.819  1.1707 -1.0459  0.1323
  189SAPI  C21021813   3.318   3.571   5.677 -0.4367  0.5704  0.8971
  189SAPI  H10R21814   3.426   3.547   5.673  0.2472  3.3420  0.7179
  189SAPI  H10S21815   3.329   3.681   5.665 -0.2863  0.4575 -0.0615
  189SAPI  C21121816   3.237   3.509   5.560 -0.2008  0.1577 -0.5874
  189SAPI  H11R21817   3.148   3.451   5.591  1.2276 -2.0273 -0.3539
  189SAPI  C21221818   3.239   3.526   5.434  0.1489  0.3984 -0.3895
  189SAPI  H12R21819   3.170   3.471   5.369 -0.4058  1.3688 -0.6307
  189SAPI  C21321820   3.354   3.597   5.362 -0.0636  0.3125 -0.3656
  189SAPI  H13R21821   3.400   3.532   5.285 -0.0333  2.5208 -2.3084
  189SAPI  H13S21822   3.435   3.623   5.434 -0.3721 -0.7831  0.3925
  189SAPI  C21421823   3.316   3.717   5.287 -0.5243 -0.8415  0.0028
  189SAPI  H14R21824   3.350   3.806   5.341 -2.6670  0.7149 -1.0515
  189SAPI  C21521825   3.281   3.740   5.158  0.7531  0.1614  0.3048
  189SAPI  H15R21826   3.238   3.834   5.122 -2.0483 -1.3961 -0.7223
  189SAPI  C21621827   3.273   3.630   5.058  0.1069  0.3830  0.7626
  189SAPI  H16R21828   3.168   3.627   5.020 -0.1753  0.5634  1.5216
  189SAPI  H16S21829   3.300   3.529   5.093 -1.9728 -0.7835 -0.7833
  189SAPI  C21721830   3.359   3.658   4.923  0.0126  0.1540 -0.4561
  189SAPI  H17R21831   3.354   3.755   4.869  3.0511  1.0774  0.7511
  189SAPI  H17S21832   3.325   3.590   4.841 -1.5622 -2.0719  1.8829
  189SAPI  C21821833   3.507   3.635   4.949  0.1732  0.4734  0.7814
  189SAPI  H18R21834   3.513   3.533   4.993 -1.7121  0.2450  0.5747
  189SAPI  H18S21835   3.549   3.701   5.027  0.0396  1.5069 -0.0030
  189SAPI  C21921836   3.588   3.638   4.821 -0.0541 -0.0295  0.2427
  189SAPI  H19R21837   3.584   3.737   4.772  2.5623  0.0654  0.0924
  189SAPI  H19S21838   3.556   3.571   4.738  1.5962  1.3447 -1.6051
  189SAPI  C22021839   3.733   3.591   4.859 -0.0868 -0.2170  0.1035
  189SAPI  H20R21840   3.791   3.587   4.765 -2.2615 -1.9435 -1.2790
  189SAPI  H20S21841   3.736   3.487   4.899  2.4301 -0.8413 -1.4711
  189SAPI  H20T21842   3.782   3.656   4.934  0.0752 -0.2148 -0.0031
  189SAPI   C3321843   3.690   4.190   6.230  0.9132 -0.0391  0.1131
  189SAPI   H3X21844   3.608   4.116   6.247  0.1171  0.9294  0.6023
  189SAPI   H3Y21845   3.770   4.137   6.174  2.4798  1.5999  0.7238
  189SAPI   C3421846   3.650   4.297   6.125 -0.2762  0.4392 -0.6731
  189SAPI   H4X21847   3.731   4.371   6.110 -0.4100  1.1218  1.5542
  189SAPI   H4Y21848   3.569   4.358   6.170  1.9856  1.2982  2.6164
  189SAPI   C3521849   3.593   4.239   6.001  0.4225 -0.1295  0.5309
  189SAPI   H5X21850   3.509   4.172   6.031  0.7835  0.0578  2.0922
  189SAPI   H5Y21851   3.681   4.185   5.961  0.2308 -0.5237  0.6385
  189SAPI   C3621852   3.528   4.338   5.896  0.5573 -0.2559 -0.1058
  189SAPI   H6X21853   3.428   4.368   5.934  0.5244  0.0114 -0.4058
  189SAPI   H6Y21854   3.498   4.287   5.802 -1.2345  0.0435  0.2650
  189SAPI   C3721855   3.615   4.454   5.847 -0.7393 -0.9824  0.4278
  189SAPI   H7X21856   3.628   4.518   5.937 -1.1776  1.6399 -1.2874
  189SAPI   H7Y21857   3.570   4.529   5.778  1.5441 -1.9438 -2.2886
  189SAPI   C3821858   3.756   4.423   5.800  0.6031 -0.5219  0.4890
  189SAPI   H8X21859   3.807   4.361   5.877  0.8402 -0.4610  0.3808
  189SAPI   H8Y21860   3.821   4.513   5.802 -0.9479  0.6323  1.1257
  189SAPI   C3921861   3.760   4.364   5.651  0.0764 -0.6054 -1.0098
  189SAPI   H9X21862   3.700   4.271   5.648 -0.3840 -0.2867 -1.8024
  189SAPI   H9Y21863   3.869   4.349   5.636  0.8119  2.7955 -0.1108
  189SAPI  C31021864   3.733   4.462   5.537  0.6296 -0.4719  0.0414
  189SAPI  H10X21865   3.778   4.562   5.556 -2.1422  0.6845  1.0865
  189SAPI  H10Y21866   3.625   4.491   5.532  0.7018 -0.0975  0.5284
  189SAPI  C31121867   3.786   4.411   5.400  0.0383  0.3030 -0.0283
  189SAPI  H11X21868   3.755   4.305   5.386 -0.9565  0.6902 -0.9086
  189SAPI  H11Y21869   3.896   4.421   5.388 -0.1067  0.5705 -1.3254
  189SAPI  C31221870   3.724   4.487   5.281  0.0932 -0.1155 -0.2991
  189SAPI  H12X21871   3.623   4.444   5.264  0.1211 -0.2951 -0.0269
  189SAPI  H12Y21872   3.793   4.464   5.198 -0.7980 -1.2653 -0.7514
  189SAPI  C31321873   3.721   4.636   5.305  0.3418 -0.3181  0.9389
  189SAPI  H13X21874   3.809   4.668   5.363  2.1856 -1.2914 -1.1745
  189SAPI  H13Y21875   3.632   4.660   5.367 -0.6045  0.0585 -0.5104
  189SAPI  C31421876   3.714   4.723   5.178 -0.1049 -0.0968 -0.5160
  189SAPI  H14X21877   3.716   4.823   5.227 -2.0722 -1.3146  2.3021
  189SAPI  H14Y21878   3.619   4.714   5.121  0.7206  2.2346 -2.4555
  189SAPI  C31521879   3.834   4.704   5.077 -0.0276  0.0281 -0.1310
  189SAPI  H15X21880   3.846   4.598   5.046 -1.7002 -0.1930 -0.1144
  189SAPI  H15Y21881   3.931   4.725   5.127  1.0244 -1.4960 -1.4135
  189SAPI  C31621882   3.821   4.784   4.947 -0.2601  0.4039  0.2191
  189SAPI  H16X21883   3.812   4.890   4.980  0.1027  0.0549  1.5051
  189SAPI  H16Y21884   3.733   4.756   4.886 -0.5632 -2.4574  1.7827
  189SAPI  C31721885   3.945   4.757   4.859 -0.2115 -0.1436 -0.1758
  189SAPI  H17X21886   3.955   4.654   4.820 -1.2556 -0.7607  1.0652
  189SAPI  H17Y21887   4.037   4.777   4.917  0.7415  0.7052 -1.9149
  189SAPI  C31821888   3.948   4.845   4.740 -0.3860  0.2928 -0.0757
  189SAPI  H18X21889   3.950   4.952   4.771 -0.4938 -0.4115  2.6549
  189SAPI  H18Y21890   3.855   4.839   4.680 -0.7943 -2.5843  0.6968
  189SAPI  H18Z21891   4.041   4.821   4.684  0.0842 -1.0101  1.2151
  190SAPI   C1221892   2.269   2.321   7.042  0.4293 -0.0474  0.2028
  190SAPI    H221893   2.347   2.247   7.069 -0.5823 -0.4987  2.1343
  190SAPI    O221894   2.143   2.292   7.108 -0.4855  0.1284 -0.2283
  190SAPI   HO221895   2.108   2.208   7.077 -0.5869 -0.1269  0.5482
  190SAPI   C1321896   2.325   2.456   7.080 -0.7177 -0.6576 -0.4145
  190SAPI    H321897   2.416   2.475   7.018 -1.6081 -0.3732 -1.6769
  190SAPI    O321898   2.380   2.465   7.214 -0.0922 -0.4565 -0.1292
  190SAPI   HO321899   2.311   2.458   7.281 -0.3412  3.4324  0.2527
  190SAPI   C1421900   2.228   2.569   7.056 -0.2471 -0.6080  0.4857
  190SAPI    H421901   2.150   2.532   7.126 -0.4376 -1.2276 -0.0446
  190SAPI    O421902   2.276   2.699   7.090  0.2511 -0.6715  0.9640
  190SAPI   HO421903   2.358   2.704   7.041 -1.9513  1.0810 -2.9681
  190SAPI   C1521904   2.163   2.566   6.913  0.5739  0.0615 -0.1906
  190SAPI    H521905   2.243   2.616   6.854 -1.0225  0.6056 -2.0500
  190SAPI    O521906   2.055   2.664   6.896 -0.3305  0.0037 -0.0553
  190SAPI   HO521907   2.021   2.691   6.982  1.7996 -0.2954  0.9411
  190SAPI   C1621908   2.145   2.431   6.842  0.3012 -0.4863  0.0283
  190SAPI    H621909   2.041   2.401   6.866  0.4954 -2.6134 -1.5395
  190SAPI    O621910   2.145   2.444   6.703  0.7385  0.1610 -0.8379
  190SAPI   HO621911   2.093   2.369   6.673  0.1128  0.1662  0.1701
  190SAPI   C1121912   2.244   2.325   6.893  0.6836 -0.1080 -0.0972
  190SAPI    H121913   2.343   2.349   6.848  0.4478  0.1999 -0.4628
  190SAPI     P21914   2.292   2.076   6.796 -0.2858 -0.2156  0.0740
  190SAPI   O1321915   2.245   1.943   6.841  0.3403 -0.2594  0.5924
  190SAPI   O1421916   2.433   2.113   6.828  0.2848  0.7623  0.5409
  190SAPI   O1221917   2.193   2.187   6.856  0.2055 -0.0340  0.2547
  190SAPI   O1121918   2.274   2.084   6.638 -0.2512  0.1670  0.0680
  190SAPI    C121919   2.313   2.188   6.552 -0.4908 -0.2515  0.3182
  190SAPI    HA21920   2.231   2.262   6.558 -0.5318 -0.2654 -0.0597
  190SAPI    HB21921   2.412   2.231   6.578 -0.9406 -0.1693  2.0562
  190SAPI    C221922   2.323   2.146   6.401 -0.1612 -0.6471 -0.6065
  190SAPI    HS21923   2.371   2.233   6.350  5.0275 -2.0762  1.2013
  190SAPI   O2121924   2.196   2.107   6.346 -0.1529 -0.1597  0.5542
  190SAPI   C2121925   2.105   2.198   6.330  0.1973 -0.1895 -0.1160
  190SAPI   O2221926   2.129   2.316   6.354 -0.2022 -0.1749  0.1109
  190SAPI   C2221927   1.988   2.143   6.251  0.4493 -0.9496 -0.0396
  190SAPI   H2R21928   1.911   2.088   6.309 -0.2158 -0.1980 -0.1926
  190SAPI   H2S21929   1.941   2.236   6.211 -3.2134 -1.4065  2.6553
  190SAPI    C321930   2.420   2.022   6.385 -0.5704  0.4192 -0.3873
  190SAPI    HX21931   2.376   1.944   6.450  1.0032  1.9790  2.7426
  190SAPI    HY21932   2.513   2.054   6.436 -0.5010 -2.3180  1.4050
  190SAPI   O3121933   2.445   1.994   6.242  0.5053  0.4279 -0.0449
  190SAPI   C3121934   2.370   1.895   6.186 -0.0752  0.1168 -0.1632
  190SAPI   O3221935   2.303   1.817   6.244  0.3172 -0.0068  0.1889
  190SAPI   C3221936   2.415   1.894   6.037 -0.5025 -0.4077 -0.6402
  190SAPI   H2X21937   2.330   1.851   5.980 -1.6842  0.2795  0.5361
  190SAPI   H2Y21938   2.507   1.831   6.044  0.3036  0.8251  0.3599
  190SAPI   C2321939   2.030   2.053   6.133 -0.3751 -0.3272 -0.6186
  190SAPI   H3R21940   2.059   1.953   6.170  1.7809  0.1781 -0.7637
  190SAPI   H3S21941   2.123   2.094   6.088 -0.7938  1.9972  0.4886
  190SAPI   C2421942   1.911   2.040   6.038 -0.6307 -0.8233  0.0358
  190SAPI   H4R21943   1.831   2.000   6.104 -0.1909  0.1535  1.1975
  190SAPI   H4S21944   1.947   1.966   5.963  2.6854  0.7687 -0.1272
  190SAPI   C2521945   1.865   2.165   5.965 -0.6388 -0.1762 -0.4262
  190SAPI   H5R21946   1.833   2.251   6.026  1.8962 -0.5491  1.5904
  190SAPI   C2621947   1.880   2.185   5.835  0.4133  0.0509  0.5685
  190SAPI   H6R21948   1.840   2.283   5.803 -2.0272 -0.9223  0.3706
  190SAPI   C2721949   1.939   2.093   5.732  0.3899 -0.2211 -0.3491
  190SAPI   H7R21950   1.883   2.110   5.637 -0.7304 -1.3568  0.0846
  190SAPI   H7S21951   1.916   1.988   5.759 -0.4817  0.4110  1.5518
  190SAPI   C2821952   2.087   2.110   5.712 -0.1011 -0.5249  0.2483
  190SAPI   H8R21953   2.150   2.120   5.801  0.1584  0.6583 -0.0548
  190SAPI   C2921954   2.144   2.132   5.588 -0.4976  0.2857  0.2983
  190SAPI   H9R21955   2.253   2.142   5.587 -0.2773  0.0922  4.3997
  190SAPI  C21021956   2.064   2.136   5.457 -0.2386  0.5589 -0.9647
  190SAPI  H10R21957   2.136   2.180   5.385  0.7409 -0.3208 -0.5596
  190SAPI  H10S21958   1.984   2.211   5.475  0.6223  1.3621 -0.3537
  190SAPI  C21121959   1.971   2.026   5.408  1.1033  0.2099  0.5447
  190SAPI  H11R21960   1.949   1.944   5.478  0.8811  0.6042  0.9464
  190SAPI  C21221961   1.896   2.038   5.295  0.6599  0.6053  0.4516
  190SAPI  H12R21962   1.837   1.948   5.273  0.4264  0.9456 -0.3566
  190SAPI  C21321963   1.894   2.157   5.199  0.2441 -0.1732 -0.3533
  190SAPI  H13R21964   1.981   2.223   5.219 -1.1217  1.2902  1.0968
  190SAPI  H13S21965   1.817   2.231   5.230 -1.6377 -2.1484 -0.0515
  190SAPI  C21421966   1.893   2.111   5.056  0.0738  0.1499  0.4151
  190SAPI  H14R21967   1.948   2.019   5.029 -0.6819  0.1500 -1.2522
  190SAPI  C21521968   1.806   2.151   4.960 -0.2446 -0.6707 -0.1984
  190SAPI  H15R21969   1.804   2.103   4.861 -0.5055 -1.7304  0.2996
  190SAPI  C21621970   1.705   2.267   4.966 -0.2949  0.0224 -0.4200
  190SAPI  H16R21971   1.714   2.324   5.061  1.6842  2.4449 -1.9242
  190SAPI  H16S21972   1.600   2.231   4.967 -0.7186  1.1886  1.9584
  190SAPI  C21721973   1.724   2.368   4.850 -0.1878  0.6266 -0.1952
  190SAPI  H17R21974   1.655   2.449   4.880 -2.3566 -1.3124  0.3012
  190SAPI  H17S21975   1.711   2.318   4.751 -0.1698 -2.7198  1.3319
  190SAPI  C21821976   1.864   2.430   4.863  0.1439  0.0713 -0.5148
  190SAPI  H18R21977   1.937   2.346   4.857  0.0360 -0.0925  0.2943
  190SAPI  H18S21978   1.870   2.479   4.962 -1.0176 -0.4193 -0.1822
  190SAPI  C21921979   1.898   2.537   4.751 -0.2985  1.0332  0.4868
  190SAPI  H19R21980   1.872   2.491   4.654  1.0390 -0.4758  0.8065
  190SAPI  H19S21981   2.007   2.544   4.769 -0.4201  1.8829  0.9344
  190SAPI  C22021982   1.825   2.674   4.766 -0.2595 -0.7344 -0.1171
  190SAPI  H20R21983   1.716   2.653   4.776 -0.2021 -0.1325  2.3881
  190SAPI  H20S21984   1.852   2.736   4.678 -0.0635  1.0639  1.1640
  190SAPI  H20T21985   1.861   2.722   4.859  1.1005 -2.8143  0.4947
  190SAPI   C3321986   2.443   2.029   5.977  0.1582 -0.2719  0.2426
  190SAPI   H3X21987   2.508   2.096   6.038 -0.7175 -1.1929  2.2640
  190SAPI   H3Y21988   2.349   2.089   5.974  0.8755  0.9330  0.7777
  190SAPI   C3421989   2.478   2.013   5.828 -0.7970 -0.3295  0.3905
  190SAPI   H4X21990   2.401   1.954   5.773  0.4777  0.3762 -2.3174
  190SAPI   H4Y21991   2.565   1.946   5.813 -0.6474  0.3082 -2.2140
  190SAPI   C3521992   2.489   2.152   5.754 -0.5795 -0.7785  0.5052
  190SAPI   H5X21993   2.570   2.209   5.804 -0.9678 -0.4562  0.7744
  190SAPI   H5Y21994   2.393   2.207   5.756 -2.7155 -4.2269  2.3062
  190SAPI   C3621995   2.533   2.139   5.605  0.3471 -0.1124  0.1142
  190SAPI   H6X21996   2.448   2.104   5.543 -0.3471  1.7551 -0.0481
  190SAPI   H6Y21997   2.616   2.066   5.597 -0.3480 -0.9041 -0.0160
  190SAPI   C3721998   2.565   2.268   5.539  0.1586 -0.6600 -0.2463
  190SAPI   H7X21999   2.663   2.303   5.576 -0.4216 -0.3010  0.9951
  190SAPI   H7Y22000   2.490   2.345   5.565  0.1037 -0.2696 -1.4638
  190SAPI   C3822001   2.585   2.252   5.387 -0.1056 -0.1991 -0.1673
  190SAPI   H8X22002   2.497   2.202   5.342 -0.1961  1.0686 -1.4982
  190SAPI   H8Y22003   2.674   2.186   5.377  0.7883  0.8277  0.7527
  190SAPI   C3922004   2.611   2.377   5.302  0.8724 -0.0497  0.4413
  190SAPI   H9X22005   2.679   2.456   5.340 -1.4157  1.6324  1.2446
  190SAPI   H9Y22006   2.516   2.434   5.308  1.6537  1.6115 -1.4454
  190SAPI  C31022007   2.636   2.342   5.159 -0.3697 -0.2128  0.2726
  190SAPI  H10X22008   2.563   2.271   5.115  0.9748 -1.3299 -0.2189
  190SAPI  H10Y22009   2.728   2.281   5.155  0.2526  0.7569 -0.9288
  190SAPI  C31122010   2.652   2.469   5.069  0.1285  0.1728 -0.5478
  190SAPI  H11X22011   2.701   2.551   5.126 -1.0718  0.3469  0.2616
  190SAPI  H11Y22012   2.546   2.497   5.049 -0.0065 -0.0608 -0.1687
  190SAPI  C31222013   2.736   2.448   4.941  0.2999 -0.1322  0.0255
  190SAPI  H12X22014   2.842   2.440   4.974  0.2716 -0.4809  0.0341
  190SAPI  H12Y22015   2.726   2.546   4.890 -2.2536 -1.2300 -1.7706
  190SAPI  C31322016   2.695   2.328   4.850  0.3374  0.3317 -0.0058
  190SAPI  H13X22017   2.586   2.317   4.828  0.2714  0.2911  0.3356
  190SAPI  H13Y22018   2.723   2.243   4.917 -1.3664  0.0574  0.4289
  190SAPI  C31422019   2.779   2.314   4.726  0.4275 -0.3028 -0.3598
  190SAPI  H14X22020   2.799   2.206   4.709 -1.8048 -0.6368 -1.1457
  190SAPI  H14Y22021   2.885   2.346   4.735  0.1707  0.5322 -0.2670
  190SAPI  C31522022   2.715   2.370   4.604  0.4902  0.7266 -0.6135
  190SAPI  H15X22023   2.744   2.477   4.603 -2.3626  1.6600  1.9784
  190SAPI  H15Y22024   2.604   2.372   4.604  0.4893  2.7749 -0.4589
  190SAPI  C31622025   2.762   2.299   4.473  0.4020 -0.1000 -0.3437
  190SAPI  H16X22026   2.696   2.210   4.480  0.2511 -0.0593 -1.0849
  190SAPI  H16Y22027   2.871   2.275   4.480  0.6037  1.1264  1.1248
  190SAPI  C31722028   2.724   2.388   4.351  0.3966  0.1075 -0.5403
  190SAPI  H17X22029   2.772   2.488   4.344 -0.5803  0.5317 -1.3010
  190SAPI  H17Y22030   2.615   2.405   4.351  0.1388 -0.9580  2.1211
  190SAPI  C31822031   2.748   2.325   4.213 -0.2758 -0.0481 -0.6126
  190SAPI  H18X22032   2.856   2.297   4.218 -0.6443 -1.4323  0.1059
  190SAPI  H18Y22033   2.732   2.401   4.133  0.0761  0.8546  0.1641
  190SAPI  H18Z22034   2.680   2.241   4.189 -0.8437  0.2088  0.0974
  191SAPI   C1222035   1.528   2.868   2.468  0.1842 -0.1938 -0.2779
  191SAPI    H222036   1.504   2.916   2.565  1.6137  2.0048 -0.9258
  191SAPI    O222037   1.422   2.788   2.419  0.3043 -0.1759  0.1925
  191SAPI   HO222038   1.396   2.740   2.497 -1.8546  0.8519  0.1828
  191SAPI   C1322039   1.547   2.990   2.385  0.4312  1.1575 -0.4169
  191SAPI    H322040   1.641   3.035   2.426  1.9882 -0.6638 -1.8125
  191SAPI    O322041   1.440   3.078   2.408  0.0631  0.3035 -0.0377
  191SAPI   HO322042   1.362   3.050   2.360 -0.7291  0.6180  1.0082
  191SAPI   C1422043   1.573   2.961   2.241 -0.0391  0.6704  0.1414
  191SAPI    H422044   1.476   2.923   2.203 -0.2608  2.1930 -0.8936
  191SAPI    O422045   1.602   3.069   2.157  0.5357 -0.0822  0.5563
  191SAPI   HO422046   1.678   3.118   2.188  0.6106  0.5584 -0.5868
  191SAPI   C1522047   1.676   2.847   2.221  0.5718 -0.2828  0.2722
  191SAPI    H522048   1.774   2.898   2.204  0.5735 -0.1439  0.6995
  191SAPI    O522049   1.648   2.774   2.108  0.4298 -0.1131 -0.1510
  191SAPI   HO522050   1.706   2.813   2.042  1.3442  3.6184  2.4875
  191SAPI   C1622051   1.717   2.751   2.343  0.4675  0.3970 -0.4025
  191SAPI    H622052   1.671   2.653   2.316  0.4113  0.1865  0.4418
  191SAPI    O622053   1.858   2.714   2.341 -0.1514 -0.2985  0.2739
  191SAPI   HO622054   1.863   2.633   2.391  1.7998 -0.4852 -0.1637
  191SAPI   C1122055   1.662   2.794   2.481  0.6302  0.1454 -0.8053
  191SAPI    H122056   1.734   2.864   2.526 -0.9715  0.8652  0.7615
  191SAPI     P22057   1.761   2.603   2.650 -0.0327 -0.0458  0.1256
  191SAPI   O1322058   1.854   2.547   2.552 -0.1874  0.1920 -0.6026
  191SAPI   O1422059   1.701   2.497   2.741 -0.0884 -0.6291 -0.9353
  191SAPI   O1222060   1.635   2.682   2.571  0.6387 -0.1189  0.2852
  191SAPI   O1122061   1.838   2.718   2.734  0.2023 -0.3468 -0.2011
  191SAPI    C122062   1.767   2.790   2.835 -0.2191  0.4187  0.1830
  191SAPI    HA22063   1.677   2.840   2.794  0.9431  2.7741  0.3522
  191SAPI    HB22064   1.732   2.718   2.912 -0.3040 -0.7079 -0.8630
  191SAPI    C222065   1.845   2.909   2.896  0.0973  0.5774  0.5302
  191SAPI    HS22066   1.938   2.873   2.944 -0.2938 -1.0583  0.1322
  191SAPI   O2122067   1.767   2.970   2.998 -0.5499  0.0276 -0.5524
  191SAPI   C2122068   1.763   2.899   3.115 -0.2763 -0.5945  0.0346
  191SAPI   O2222069   1.828   2.803   3.143  0.3605  0.1479 -0.1442
  191SAPI   C2222070   1.663   2.968   3.208  0.8705 -0.0891  0.0903
  191SAPI   H2R22071   1.559   2.942   3.178  0.3978  1.2002  0.5157
  191SAPI   H2S22072   1.691   2.922   3.305 -1.3742  2.5462  2.1675
  191SAPI    C322073   1.885   3.010   2.790  0.0617  0.0528 -0.1112
  191SAPI    HX22074   1.959   2.953   2.729  1.1456  0.5437  0.7119
  191SAPI    HY22075   1.952   3.087   2.834 -0.2739  0.4164 -0.2236
  191SAPI   O3122076   1.772   3.065   2.718  0.3915  0.6248  0.0338
  191SAPI   C3122077   1.740   3.193   2.741 -0.2597  0.4854  0.4466
  191SAPI   O3222078   1.806   3.261   2.819  0.4284 -0.7100  0.1401
  191SAPI   C3222079   1.612   3.235   2.683 -0.4123  0.0415 -0.5175
  191SAPI   H2X22080   1.570   3.155   2.619 -0.5324  0.5615 -1.1041
  191SAPI   H2Y22081   1.642   3.330   2.632  1.5271 -0.8043 -1.0658
  191SAPI   C2322082   1.679   3.119   3.224  0.4445  0.6768 -0.5252
  191SAPI   H3R22083   1.592   3.148   3.287  0.1360 -0.8706 -0.2029
  191SAPI   H3S22084   1.671   3.172   3.127  0.3089  0.8529 -0.4188
  191SAPI   C2422085   1.802   3.157   3.312  0.3628 -0.4442  0.3008
  191SAPI   H4R22086   1.886   3.108   3.259  1.2864  1.1503  0.2657
  191SAPI   H4S22087   1.802   3.096   3.405  2.0513  1.2421  1.4540
  191SAPI   C2522088   1.823   3.303   3.333  0.1500 -1.0153 -0.1075
  191SAPI   H5R22089   1.821   3.365   3.243  5.0026  0.8041  0.7171
  191SAPI   C2622090   1.837   3.370   3.449  0.0481  0.3853  0.3955
  191SAPI   H6R22091   1.860   3.478   3.453  0.0588  0.3511  2.7172
  191SAPI   C2722092   1.829   3.295   3.574 -0.4259 -0.0456  0.3695
  191SAPI   H7R22093   1.874   3.362   3.651 -0.7732  2.2665 -1.3481
  191SAPI   H7S22094   1.910   3.219   3.577  0.7965  1.2235  0.2995
  191SAPI   C2822095   1.697   3.235   3.626  0.4945 -0.0372  0.2018
  191SAPI   H8R22096   1.622   3.215   3.548 -0.2597  2.1562  0.3037
  191SAPI   C2922097   1.660   3.197   3.752  0.4356  0.3942  0.1468
  191SAPI   H9R22098   1.557   3.164   3.766  0.5952 -0.4490 -0.6057
  191SAPI  C21022099   1.730   3.206   3.884  1.4764 -0.6262 -0.1279
  191SAPI  H10R22100   1.659   3.174   3.963  1.5991 -0.2822  0.1212
  191SAPI  H10S22101   1.759   3.312   3.902 -1.1510 -0.2971  3.2473
  191SAPI  C21122102   1.843   3.114   3.898 -0.4332  0.0651  0.3365
  191SAPI  H11R22103   1.899   3.082   3.809  0.1178  0.4679  0.5273
  191SAPI  C21222104   1.882   3.046   4.010 -0.0419 -0.2673 -0.0679
  191SAPI  H12R22105   1.963   2.975   3.986 -1.6757 -1.6461 -1.8908
  191SAPI  C21322106   1.823   3.060   4.147 -0.2221 -0.4919  0.6719
  191SAPI  H13R22107   1.829   2.971   4.213 -0.2352  0.8964  2.6741
  191SAPI  H13S22108   1.713   3.069   4.134 -0.0828 -0.7309 -0.8333
  191SAPI  C21422109   1.883   3.178   4.225  0.2179  0.9712  0.3861
  191SAPI  H14R22110   1.831   3.272   4.200 -2.2533 -0.2744  0.5478
  191SAPI  C21522111   1.985   3.173   4.317 -0.3881 -0.2086  0.2712
  191SAPI  H15R22112   2.023   3.265   4.363  1.8149 -0.4696 -0.8632
  191SAPI  C21622113   2.057   3.057   4.380  0.2300 -0.1954  0.4053
  191SAPI  H16R22114   2.012   2.963   4.340 -2.0434  1.4377 -1.0511
  191SAPI  H16S22115   2.022   3.064   4.485 -1.4435 -1.1413 -0.0543
  191SAPI  C21722116   2.210   3.050   4.355 -0.2167  0.4352  0.4158
  191SAPI  H17R22117   2.259   3.142   4.394  0.5223 -0.2807  1.2008
  191SAPI  H17S22118   2.236   3.052   4.247  0.0911 -1.5772  0.4206
  191SAPI  C21822119   2.290   2.943   4.426 -0.3755  0.1482  0.0242
  191SAPI  H18R22120   2.246   2.927   4.527  0.9763 -0.5971  0.5198
  191SAPI  H18S22121   2.397   2.970   4.413 -0.9355  2.4553 -0.2242
  191SAPI  C21922122   2.282   2.813   4.344 -0.1661  0.4629 -0.7568
  191SAPI  H19R22123   2.177   2.777   4.349 -0.2380  0.7825  0.3438
  191SAPI  H19S22124   2.351   2.744   4.398 -0.8609  0.1248 -0.2975
  191SAPI  C22022125   2.333   2.823   4.204  0.5954  0.3591 -0.0982
  191SAPI  H20R22126   2.415   2.898   4.205 -0.6345  1.8271  2.5656
  191SAPI  H20S22127   2.258   2.841   4.125 -0.0464 -2.2007 -0.1743
  191SAPI  H20T22128   2.363   2.719   4.180 -0.4125  0.2325 -0.8848
  191SAPI   C3322129   1.516   3.276   2.800  0.8253 -0.4519 -0.2733
  191SAPI   H3X22130   1.450   3.351   2.751 -0.0265 -0.1339  1.2793
  191SAPI   H3Y22131   1.571   3.325   2.883 -0.0335 -0.6004  0.4026
  191SAPI   C3422132   1.429   3.163   2.852 -0.0147  0.2705 -0.3136
  191SAPI   H4X22133   1.503   3.083   2.877  1.2689  1.5281  0.0136
  191SAPI   H4Y22134   1.370   3.119   2.769  2.2451 -4.5795  0.2486
  191SAPI   C3522135   1.355   3.206   2.981 -0.2684 -0.0425 -0.4905
  191SAPI   H5X22136   1.272   3.273   2.951 -1.5279 -1.9912 -1.5439
  191SAPI   H5Y22137   1.427   3.265   3.042  0.9415 -2.7230  0.8745
  191SAPI   C3622138   1.293   3.092   3.065 -0.6749 -0.8853 -0.3310
  191SAPI   H6X22139   1.383   3.028   3.084 -1.0285 -1.9387 -1.9429
  191SAPI   H6Y22140   1.222   3.041   2.997  0.0293  0.9925 -2.6180
  191SAPI   C3722141   1.229   3.145   3.187  0.1369  0.3170 -0.2703
  191SAPI   H7X22142   1.159   3.067   3.225 -0.4418  0.4620 -1.0100
  191SAPI   H7Y22143   1.164   3.231   3.162  0.3235  0.7134  0.5696
  191SAPI   C3822144   1.333   3.193   3.283  0.1994 -0.1000 -0.0964
  191SAPI   H8X22145   1.395   3.265   3.227 -0.3688 -1.0806 -2.0741
  191SAPI   H8Y22146   1.392   3.106   3.320 -1.0349  0.1784  2.8382
  191SAPI   C3922147   1.288   3.271   3.408  0.2033  0.3782  0.0260
  191SAPI   H9X22148   1.224   3.352   3.368 -1.7512 -0.8531  0.4966
  191SAPI   H9Y22149   1.374   3.307   3.469 -0.0741  1.5035 -0.2247
  191SAPI  C31022150   1.213   3.188   3.502 -0.0190  1.0156  0.6966
  191SAPI  H10X22151   1.273   3.101   3.535 -1.1487  0.8077  2.3668
  191SAPI  H10Y22152   1.119   3.146   3.459 -0.6915  0.1502  2.8745
  191SAPI  C31122153   1.160   3.259   3.631 -0.5791 -0.5287 -0.1082
  191SAPI  H11X22154   1.076   3.198   3.671 -2.0287 -1.1447 -3.7433
  191SAPI  H11Y22155   1.126   3.353   3.585  1.5700 -0.4282 -1.6254
  191SAPI  C31222156   1.271   3.285   3.737  0.6385  0.0397  0.5011
  191SAPI  H12X22157   1.364   3.328   3.695 -0.9825  1.7674 -1.6007
  191SAPI  H12Y22158   1.309   3.188   3.775 -1.3015  0.1085  2.8691
  191SAPI  C31322159   1.224   3.373   3.851 -0.2292 -0.5615 -0.6312
  191SAPI  H13X22160   1.141   3.328   3.909 -1.5793  0.4778 -1.6760
  191SAPI  H13Y22161   1.198   3.469   3.801  0.8002 -0.1963 -0.4811
  191SAPI  C31422162   1.336   3.406   3.953 -0.2577 -0.5409 -0.4161
  191SAPI  H14X22163   1.312   3.510   3.986  1.7295  0.0310 -0.6351
  191SAPI  H14Y22164   1.434   3.420   3.902  0.2058 -1.7876  0.0989
  191SAPI  C31522165   1.359   3.307   4.068  0.8737  0.1019  0.1730
  191SAPI  H15X22166   1.385   3.210   4.021  1.2824  1.0288 -1.5981
  191SAPI  H15Y22167   1.267   3.294   4.129 -0.4927  1.3850 -1.4905
  191SAPI  C31622168   1.469   3.351   4.159 -0.3730  0.1679 -0.6005
  191SAPI  H16X22169   1.554   3.384   4.096 -3.2694  1.7130 -4.0264
  191SAPI  H16Y22170   1.500   3.262   4.218 -0.0742  0.0033 -0.9988
  191SAPI  C31722171   1.427   3.464   4.258 -0.0338  0.4891 -0.2408
  191SAPI  H17X22172   1.364   3.413   4.334 -2.0494  0.2060 -2.0076
  191SAPI  H17Y22173   1.375   3.543   4.198  1.1706  1.6654  0.2149
  191SAPI  C31822174   1.548   3.523   4.327 -0.6263 -0.6602 -0.0039
  191SAPI  H18X22175   1.611   3.447   4.376 -0.8489 -1.0307 -0.2908
  191SAPI  H18Y22176   1.525   3.592   4.411  1.7823  0.1935  0.0199
  191SAPI  H18Z22177   1.609   3.582   4.255 -0.0779 -1.8376 -0.5281
  192SAPI   C1222178   2.151   2.372   2.831 -1.3291 -0.7030 -0.5559
  192SAPI    H222179   2.172   2.273   2.875  4.0505  0.7050  0.7366
  192SAPI    O222180   2.031   2.362   2.759 -0.3462  0.6507 -0.4821
  192SAPI   HO222181   2.066   2.333   2.674  2.9865  0.3763  0.8421
  192SAPI   C1322182   2.147   2.476   2.950 -0.2047  0.1747  0.0418
  192SAPI    H322183   2.248   2.457   2.994 -0.7062 -1.0092  0.7099
  192SAPI    O322184   2.053   2.437   3.050  0.1216  0.2827 -0.5397
  192SAPI   HO322185   1.967   2.427   3.010 -0.2322 -1.4404  0.5356
  192SAPI   C1422186   2.132   2.622   2.903  0.3216 -0.2475 -0.4727
  192SAPI    H422187   2.026   2.625   2.871 -0.8543  1.5451  3.0587
  192SAPI    O422188   2.175   2.705   3.006  0.0240  0.0494 -0.2395
  192SAPI   HO422189   2.128   2.685   3.087  1.3048  1.8327  1.0273
  192SAPI   C1522190   2.206   2.662   2.775 -0.0575  0.3346  0.1774
  192SAPI    H522191   2.308   2.680   2.815  1.0222  0.0561 -2.2657
  192SAPI    O522192   2.157   2.781   2.719 -0.1095  0.5606 -0.1451
  192SAPI   HO522193   2.062   2.780   2.724 -0.1765 -0.0641 -1.3328
  192SAPI   C1622194   2.221   2.554   2.671 -0.7485 -0.0367  0.7332
  192SAPI    H622195   2.120   2.549   2.625 -1.1108  1.4944  1.3065
  192SAPI    O622196   2.320   2.586   2.567  0.1312  0.0766  0.0243
  192SAPI   HO622197   2.318   2.525   2.493  0.5216 -0.1331  0.1881
  192SAPI   C1122198   2.252   2.420   2.731  0.2136  0.7105  0.6808
  192SAPI    H122199   2.352   2.438   2.775 -0.2066  0.2899  1.8418
  192SAPI     P22200   2.368   2.184   2.650 -0.0573  0.0005  0.1562
  192SAPI   O1322201   2.479   2.221   2.740 -0.3997  0.0894 -0.2021
  192SAPI   O1422202   2.392   2.129   2.511 -0.1740  0.3019 -0.0557
  192SAPI   O1222203   2.260   2.314   2.635 -0.4251 -0.5019 -0.0563
  192SAPI   O1122204   2.284   2.076   2.729 -0.1472  0.5927  0.0434
  192SAPI    C122205   2.145   2.047   2.681  0.1563 -0.3715  0.5048
  192SAPI    HA22206   2.079   2.134   2.702  0.0006 -0.0886 -1.0440
  192SAPI    HB22207   2.142   2.034   2.571  0.6343  1.4709  0.2475
  192SAPI    C222208   2.090   1.916   2.745 -0.4097 -0.9274 -0.4292
  192SAPI    HS22209   1.991   1.890   2.701  0.4313 -1.4029 -2.1362
  192SAPI   O2122210   2.098   1.930   2.884 -0.2317  0.4195 -0.7878
  192SAPI   C2122211   1.994   2.004   2.922 -0.1639  0.3575  0.1013
  192SAPI   O2222212   1.913   2.052   2.842 -0.2248  0.1196 -0.4395
  192SAPI   C2222213   1.996   2.027   3.074  0.7781 -0.5666  0.6276
  192SAPI   H2R22214   1.923   2.108   3.097  0.8631  0.5784 -2.5273
  192SAPI   H2S22215   1.945   1.942   3.122 -1.4098  1.0897  1.3874
  192SAPI    C322216   2.177   1.791   2.704 -0.1868  0.7548  0.2740
  192SAPI    HX22217   2.286   1.811   2.700  0.0105 -0.2017  0.6896
  192SAPI    HY22218   2.157   1.770   2.597 -1.1014  0.6073  0.4648
  192SAPI   O3122219   2.159   1.667   2.783 -0.1941 -0.6357 -0.4474
  192SAPI   C3122220   2.034   1.617   2.786  0.3034  0.6958 -0.4877
  192SAPI   O3222221   1.934   1.661   2.737  0.8514 -0.3714 -0.0068
  192SAPI   C3222222   2.042   1.484   2.865 -0.3478  1.2640 -0.1487
  192SAPI   H2X22223   2.087   1.412   2.793 -0.0886  0.9107  0.3565
  192SAPI   H2Y22224   1.939   1.444   2.871  0.2466 -0.1757  1.6498
  192SAPI   C2322225   2.134   2.073   3.136 -0.5136 -0.2160  1.1276
  192SAPI   H3R22226   2.162   2.178   3.116 -2.2852 -0.0644 -0.8306
  192SAPI   H3S22227   2.217   2.013   3.093  0.0824  0.4434  1.3449
  192SAPI   C2422228   2.154   2.058   3.287  0.3086  0.9425  0.0031
  192SAPI   H4R22229   2.062   2.084   3.344 -2.3764 -3.1546 -1.9513
  192SAPI   H4S22230   2.231   2.135   3.306  2.4603 -0.3896 -2.6124
  192SAPI   C2522231   2.208   1.918   3.329 -0.1520 -0.2722  0.0409
  192SAPI   H5R22232   2.303   1.902   3.276 -0.8926  0.7774 -1.6947
  192SAPI   C2622233   2.138   1.825   3.393  0.5612  0.5490  0.2715
  192SAPI   H6R22234   2.192   1.731   3.413 -0.9518 -1.4177 -3.7548
  192SAPI   C2722235   1.997   1.840   3.445 -0.6720  0.6608 -0.4796
  192SAPI   H7R22236   1.925   1.857   3.362 -3.2573 -1.8266  1.0649
  192SAPI   H7S22237   1.995   1.932   3.508 -0.0238 -0.5460  1.3710
  192SAPI   C2822238   1.949   1.723   3.522 -0.0739  0.3693 -1.1100
  192SAPI   H8R22239   1.909   1.639   3.464  1.2039 -0.8009 -0.3356
  192SAPI   C2922240   1.943   1.712   3.659 -0.4194  0.6528  0.0649
  192SAPI   H9R22241   1.908   1.618   3.703  0.7732  0.6576  1.0718
  192SAPI  C21022242   1.997   1.813   3.766 -0.2675  0.2841  0.4809
  192SAPI  H10R22243   1.940   1.813   3.861  1.1371 -0.4527  1.3604
  192SAPI  H10S22244   1.966   1.913   3.729  0.9203 -0.2492 -2.2005
  192SAPI  C21122245   2.148   1.817   3.785 -0.0721 -0.1228  0.2351
  192SAPI  H11R22246   2.202   1.802   3.690  1.0878 -0.4068  0.9175
  192SAPI  C21222247   2.216   1.857   3.890  0.0715  0.2721 -0.2073
  192SAPI  H12R22248   2.324   1.861   3.866 -0.1438 -3.2217 -2.4973
  192SAPI  C21322249   2.161   1.886   4.030 -0.0983  0.4644  0.4424
  192SAPI  H13R22250   2.072   1.821   4.038  2.2869 -3.0590  0.7804
  192SAPI  H13S22251   2.120   1.989   4.035  1.2905  1.0482  0.3351
  192SAPI  C21422252   2.256   1.867   4.148 -0.0769  0.0157 -0.4338
  192SAPI  H14R22253   2.359   1.849   4.112 -0.0339  1.2551 -1.0127
  192SAPI  C21522254   2.218   1.874   4.276 -0.4161 -0.3006 -0.4523
  192SAPI  H15R22255   2.294   1.860   4.354 -0.0826 -0.4419 -0.7959
  192SAPI  C21622256   2.077   1.898   4.321 -0.4425  0.6625  0.0168
  192SAPI  H16R22257   2.020   1.955   4.244  0.9806  2.7022  0.3713
  192SAPI  H16S22258   2.070   1.978   4.399  1.0760 -0.4878  1.4017
  192SAPI  C21722259   2.003   1.771   4.375  0.5893  0.5034 -0.6516
  192SAPI  H17R22260   2.063   1.728   4.459 -1.1389 -0.9121 -0.0854
  192SAPI  H17S22261   2.008   1.693   4.296 -0.6462  1.1909 -1.4294
  192SAPI  C21822262   1.861   1.806   4.408  0.5334  0.2157 -0.0242
  192SAPI  H18R22263   1.857   1.896   4.473 -2.0869  0.6940 -0.6964
  192SAPI  H18S22264   1.807   1.732   4.471 -1.9754  1.7796 -0.1643
  192SAPI  C21922265   1.780   1.814   4.280  1.0710  0.0245  0.8498
  192SAPI  H19R22266   1.786   1.717   4.227 -0.1736 -0.0343  0.7929
  192SAPI  H19S22267   1.810   1.898   4.213  0.1635  1.1651  1.8359
  192SAPI  C22022268   1.634   1.839   4.311  0.2519 -0.2680 -0.0568
  192SAPI  H20R22269   1.590   1.749   4.359 -0.2960  0.3152  0.5606
  192SAPI  H20S22270   1.579   1.859   4.216 -0.6859 -0.4494  0.4281
  192SAPI  H20T22271   1.624   1.918   4.388  0.1626 -1.9655  1.7287
  192SAPI   C3322272   2.096   1.505   3.008  0.0096 -0.0484 -0.3714
  192SAPI   H3X22273   2.201   1.542   3.001 -0.8341  2.9345  0.7893
  192SAPI   H3Y22274   2.094   1.411   3.066  0.8632 -0.6707 -1.3075
  192SAPI   C3422275   2.022   1.612   3.102 -0.6797 -0.8230  0.2975
  192SAPI   H4X22276   2.045   1.710   3.056 -1.8001 -0.5827  0.2416
  192SAPI   H4Y22277   2.086   1.611   3.193 -0.2429 -0.3912  0.0024
  192SAPI   C3522278   1.878   1.579   3.121 -0.2894 -0.2609  0.2665
  192SAPI   H5X22279   1.831   1.595   3.021  1.0855 -1.5429 -0.6292
  192SAPI   H5Y22280   1.835   1.662   3.180 -1.2649 -0.3943 -0.2373
  192SAPI   C3622281   1.838   1.445   3.182 -0.4559 -0.4916  0.0283
  192SAPI   H6X22282   1.898   1.416   3.271 -1.9713 -1.7591  0.6714
  192SAPI   H6Y22283   1.861   1.370   3.103  2.8154  0.7913 -0.4073
  192SAPI   C3722284   1.690   1.433   3.217  0.3803  0.0264  0.1961
  192SAPI   H7X22285   1.671   1.324   3.228 -1.8992 -0.1081 -3.3695
  192SAPI   H7Y22286   1.627   1.466   3.131 -0.1093 -1.4919 -0.0678
  192SAPI   C3822287   1.641   1.502   3.341  0.2526 -0.3899 -0.0504
  192SAPI   H8X22288   1.680   1.605   3.348  0.7008 -0.5936  0.5259
  192SAPI   H8Y22289   1.675   1.452   3.435 -2.7552 -0.6875  1.0077
  192SAPI   C3922290   1.485   1.508   3.351 -0.3191 -1.1105 -0.1402
  192SAPI   H9X22291   1.454   1.405   3.376  0.5419 -0.6854  3.1142
  192SAPI   H9Y22292   1.429   1.552   3.266 -0.8948 -1.2847  0.1494
  192SAPI  C31022293   1.452   1.595   3.471  0.3004  0.4138  0.3923
  192SAPI  H10X22294   1.523   1.576   3.554  0.9314 -0.0102 -0.2456
  192SAPI  H10Y22295   1.351   1.561   3.503  0.1596  0.0116 -0.4739
  192SAPI  C31122296   1.447   1.747   3.441  0.4675  0.1427  0.0786
  192SAPI  H11X22297   1.385   1.767   3.351  0.1530 -1.3727 -0.0593
  192SAPI  H11Y22298   1.556   1.769   3.433  0.3073  0.2320 -2.4530
  192SAPI  C31222299   1.397   1.836   3.558 -0.1744 -0.0747 -0.0232
  192SAPI  H12X22300   1.303   1.791   3.595  0.5670 -0.7696  1.0845
  192SAPI  H12Y22301   1.378   1.943   3.537 -1.3883 -0.1826  0.4560
  192SAPI  C31322302   1.494   1.828   3.676 -0.3807 -0.5527  0.2112
  192SAPI  H13X22303   1.594   1.846   3.631 -0.7622  3.3092  0.5843
  192SAPI  H13Y22304   1.482   1.726   3.718  0.8959 -1.4071 -1.3854
  192SAPI  C31422305   1.448   1.935   3.786 -0.3828  0.5814  0.1522
  192SAPI  H14X22306   1.348   1.918   3.833 -0.7200 -0.6041 -0.9463
  192SAPI  H14Y22307   1.439   2.029   3.728 -1.1409  0.1455 -0.4572
  192SAPI  C31522308   1.550   1.951   3.906  1.4305 -0.0462  0.2777
  192SAPI  H15X22309   1.598   1.852   3.920 -0.2084 -1.1658 -1.4717
  192SAPI  H15Y22310   1.506   1.979   4.004  0.2429 -1.3328  0.1561
  192SAPI  C31622311   1.653   2.040   3.860  0.1335 -0.0298 -0.3888
  192SAPI  H16X22312   1.606   2.139   3.842  2.1069  0.7260 -1.6280
  192SAPI  H16Y22313   1.699   2.000   3.767 -1.5902  1.1384 -1.8257
  192SAPI  C31722314   1.772   2.055   3.964  0.3999 -0.0004  0.0066
  192SAPI  H17X22315   1.827   1.959   3.968  0.6663  0.1574  0.1025
  192SAPI  H17Y22316   1.729   2.075   4.065  0.7585 -1.0017  0.3756
  192SAPI  C31822317   1.876   2.158   3.928  0.1172 -0.1921 -0.2451
  192SAPI  H18X22318   1.938   2.187   4.015 -1.5677  3.1072 -0.0072
  192SAPI  H18Y22319   1.838   2.246   3.873  2.9675  0.4953 -1.3259
  192SAPI  H18Z22320   1.951   2.108   3.862  2.0529  2.2510 -0.0520
  193SOD    SOD22321   2.383   0.103   1.834  0.0579  0.3363 -0.5800
  194SOD    SOD22322   1.259   2.112   1.111  0.6494 -0.4081  0.6454
  195SOD    SOD22323   5.853   1.148   1.536  0.4140 -0.0813  0.0092
  196SOD    SOD22324   2.128   0.320   6.847 -0.1691  0.0359  0.3481
  197SOD    SOD22325   1.913   0.156   5.571 -0.1720  0.6314  0.3233
  198SOD    SOD22326   1.110   3.843   8.043 -0.1816  0.0011  0.0447
  199SOD    SOD22327   0.403   6.593   0.992 -0.1582  0.5826 -0.0565
  200SOD    SOD22328   4.508   5.877   7.514 -0.0113  0.2976 -0.3270
  201SOD    SOD22329   1.341   5.549   6.998  0.2595  0.5465 -0.5741
  202SOD    SOD22330   5.254   3.339   7.712 -0.8923 -0.1659  0.1237
  203SOD    SOD22331   2.377   1.615   2.320  0.2305  0.2214  0.1101
  204SOD    SOD22332   6.165   0.769   0.142 -0.2311  0.4195 -0.4499
  205SOD    SOD22333   6.474   4.964   7.242 -0.3043  0.2911 -0.3648
  206SOD    SOD22334   0.984   1.632   7.255  0.0108  0.1237 -0.0573
  207SOD    SOD22335   6.166   5.062   2.796 -0.5642  0.1441  0.7621
  208SOD    SOD22336   3.656   3.270   0.191 -0.4218  0.9459  0.1641
  209SOD    SOD22337   5.915   4.273   0.686  0.2797 -0.1940 -0.5365
  210SOD    SOD22338   2.690   5.538   1.252 -0.0525 -0.1525  0.0991
  211SOD    SOD22339   2.035   2.640   6.588 -0.3628 -0.3869  0.0446
  212SOD    SOD22340   6.554   3.838   6.569  0.0864  0.5257 -0.3110
  213SOD    SOD22341   1.560   3.951   0.547 -0.5499  0.2541  0.1147
  214SOD    SOD22342   6.072   1.831   2.460  0.0758  0.5949  0.2393
  215SOD    SOD22343   1.133   1.017   7.742 -0.4456 -0.2032 -0.1087
  216SOD    SOD22344   3.151   4.370   2.233  0.2839 -0.0246 -0.3310
  217SOD    SOD22345   6.679   0.875   7.374  0.0558  0.1242  0.0374
  218SOD    SOD22346   4.160   1.670   6.718  0.3237 -0.0375  0.1521
  219SOD    SOD22347   2.033   1.467   1.809 -0.5976  0.0839  0.7161
  220SOD    SOD22348   4.706   6.044   2.409 -0.2073  0.2075 -0.5559
  221SOD    SOD22349   3.905   3.144   7.532 -0.2532 -0.2855 -0.4645
  222SOD    SOD22350   6.545   3.012   1.699 -0.2758 -0.4545  0.2393
  223SOD    SOD22351   4.013   2.507   2.151 -0.5704  0.0369  0.2050
  224SOD    SOD22352   0.294   1.879   0.184  0.1103  0.3992 -0.4325
  225SOD    SOD22353   0.505   5.104   8.011 -0.2929  0.0007 -0.0162
  226SOD    SOD22354   6.363   6.282   6.549  0.0326 -0.5271 -0.1641
  227SOD    SOD22355   3.692   2.205   1.308 -0.1772  0.0936  0.2288
  228SOD    SOD22356   6.482   6.057   1.355 -0.0794 -0.1578  0.2880
  229SOD    SOD22357   0.096   0.583   2.000 -0.2953  0.1862 -0.5205
  230CLA    CLA22358   5.541   2.509   0.153 -0.1106  0.0701 -0.1099
  231CLA    CLA22359   0.745   0.813   1.412  0.2513  0.6258  0.1785
  232CLA    CLA22360   0.137   6.237   8.120 -0.1797  0.1219  0.0234
  233CLA    CLA22361   1.119   6.184   0.216  0.1960  0.2551  0.1802
  234CLA    CLA22362   0.749   3.319   0.975  0.4139 -0.3588  0.1906
  235CLA    CLA22363   6.001   6.384   7.705 -0.3644  0.0593 -0.1634
  236CLA    CLA22364   6.779   0.021   0.273  0.1773  0.0442  0.4158
  237CLA    CLA22365   0.493   0.685   1.804 -0.3162 -0.1085  0.0441
  238CLA    CLA22366   1.252   1.807   8.010 -0.3023  0.0026  0.3662
  239CLA    CLA22367   2.974   4.381   7.814 -0.2056  0.6565  0.0836
  240CLA    CLA22368   5.375   6.765   0.862 -0.1862 -0.5302  0.2179
  241CLA    CLA22369   6.517   4.504   7.496  0.0659 -0.0639  0.0774
  242CLA    CLA22370   4.380   1.998   0.798 -0.1925  0.2900 -0.3365
  243CLA    CLA22371   0.252   6.312   1.966 -0.3527  0.4104  0.0701
  244CLA    CLA22372   0.908   3.336   8.070  0.1499  0.2349 -0.4163
  245CLA    CLA22373   1.518   4.281   1.257 -0.3326 -0.0660 -0.1131
  246CLA    CLA22374   0.483   5.938   0.353  0.0511  0.2611 -0.1599
  247TIP3   OH222375   4.103   0.998   0.435 -0.7481 -0.3243  0.0276
  247TIP3    H122376   4.096   0.906   0.413 -0.4476 -0.4637  0.4951
  247TIP3    H222377   4.039   1.042   0.379 -2.0840 -1.0162  0.9713
  248TIP3   OH222378   5.111   3.977   0.425 -0.3846 -0.2394 -0.0111
  248TIP3    H122379   5.032   4.005   0.379  0.3759  0.8993 -0.6618
  248TIP3    H222380   5.176   4.044   0.405  1.0699 -1.6993 -0.3390
  249TIP3   OH222381   4.135   6.924   0.794 -0.1067  0.5489  0.2365
  249TIP3    H122382   4.089   6.989   0.847 -0.7334 -0.2182  0.6468
  249TIP3    H222383   4.225   6.955   0.792 -0.6856  2.2800 -0.9003
  250TIP3   OH222384   3.846   2.644   6.575 -0.3174  0.2219 -0.0993
  250TIP3    H122385   3.762   2.600   6.587 -0.0886 -0.0620  0.5280
  250TIP3    H222386   3.872   2.623   6.485 -0.6656 -0.1251 -0.1195
  251TIP3   OH222387   3.709   3.044   0.648  0.2793 -0.0922  0.2422
  251TIP3    H122388   3.772   3.060   0.719  1.0276 -0.3889 -0.3478
  251TIP3    H222389   3.725   2.954   0.621 -0.7773 -0.3523  0.4458
  252TIP3   OH222390   4.590   0.284   1.795 -0.4211  0.7567 -0.3042
  252TIP3    H122391   4.509   0.329   1.818 -1.1423  0.7181 -2.5652
  252TIP3    H222392   4.647   0.353   1.760 -0.9311  0.2247 -2.2717
  253TIP3   OH222393   6.287   2.329   1.572  0.2777 -0.0827  0.3895
  253TIP3    H122394   6.201   2.311   1.611  0.1418 -0.1019  0.0805
  253TIP3    H222395   6.273   2.323   1.478  1.0463 -2.1789  0.3481
  254TIP3   OH222396   6.531   3.713   1.261 -1.0132 -0.4564  0.0010
  254TIP3    H122397   6.463   3.647   1.280 -2.2768  0.8873  0.2942
  254TIP3    H222398   6.613   3.669   1.281 -1.9241 -1.3070  2.1085
  255TIP3   OH222399   1.691   4.403   6.277  0.1768 -0.1140  0.3275
  255TIP3    H122400   1.613   4.374   6.323  0.6439  3.4372  3.8916
  255TIP3    H222401   1.754   4.422   6.346  3.0500  0.4090 -2.2093
  256TIP3   OH222402   3.014   1.204   7.339 -0.2430 -0.2545  0.4014
  256TIP3    H122403   3.001   1.265   7.411 -0.7707 -0.2112  0.2795
  256TIP3    H222404   3.092   1.155   7.362  0.1263  0.3931  0.5540
  257TIP3   OH222405   2.231   5.061   2.259  0.3111  0.5419 -0.3359
  257TIP3    H122406   2.291   5.023   2.196 -0.8059 -0.4413 -0.8514
  257TIP3    H222407   2.281   5.065   2.341  1.2094  0.1952 -0.8540
  258TIP3   OH222408   0.795   2.677   8.037 -1.0533  0.0377  0.0273
  258TIP3    H122409   0.849   2.751   8.009 -0.1070 -1.0548 -1.1448
  258TIP3    H222410   0.766   2.700   8.125 -1.0934  1.9587 -0.4434
  259TIP3   OH222411   6.423   4.294   8.179 -0.1763  0.8320 -0.0972
  259TIP3    H122412   6.443   4.333   8.093 -0.5780  1.6800  0.1751
  259TIP3    H222413   6.507   4.263   8.211 -0.0680  0.2430 -0.9237
  260TIP3   OH222414   3.859   3.673   1.862  0.3276 -0.4078  0.3188
  260TIP3    H122415   3.860   3.766   1.839  0.2967  0.2032  2.5121
  260TIP3    H222416   3.775   3.641   1.828  1.9925 -0.7745 -4.0894
  261TIP3   OH222417   4.356   3.411   6.809  0.1472  0.1308  0.1322
  261TIP3    H122418   4.267   3.425   6.777  0.4533  0.0471 -0.7810
  261TIP3    H222419   4.357   3.319   6.836  0.2149 -0.1407 -0.7527
  262TIP3   OH222420   0.278   6.492   0.496 -0.3676 -0.0573 -0.2689
  262TIP3    H122421   0.189   6.526   0.484 -1.0844 -2.2980 -2.1323
  262TIP3    H222422   0.265   6.399   0.513  1.6315 -0.3878 -0.3186
  263TIP3   OH222423   1.064   6.026   0.777 -0.8226  0.2043  0.0832
  263TIP3    H122424   0.970   6.045   0.776 -1.2133 -1.4345 -2.0853
  263TIP3    H222425   1.093   6.042   0.687  1.5085  2.7410  1.1661
  264TIP3   OH222426   2.538   2.834   7.826  0.3495  0.1433  0.1138
  264TIP3    H122427   2.492   2.882   7.895 -2.1897 -1.3499 -0.4043
  264TIP3    H222428   2.543   2.896   7.753  0.7791  0.9067  0.7767
  265TIP3   OH222429   3.976   1.737   1.181  0.2472  0.2912  0.1963
  265TIP3    H122430   4.011   1.796   1.114  0.4208 -0.5006 -0.4430
  265TIP3    H222431   3.948   1.660   1.131  2.1561 -1.1437  1.1782
  266TIP3   OH222432   3.060   3.372   0.130  0.0558 -0.0885 -0.2358
  266TIP3    H122433   3.065   3.346   0.038 -0.0748  0.6150 -0.4451
  266TIP3    H222434   3.121   3.313   0.175 -0.6038 -1.0922 -0.6200
  267TIP3   OH222435   4.139   1.740   2.250  0.1075 -0.2009 -0.1341
  267TIP3    H122436   4.234   1.745   2.234  0.2160  2.5986  0.7529
  267TIP3    H222437   4.104   1.694   2.174  2.2320 -2.1162 -0.0613
  268TIP3   OH222438   6.641   4.735   8.038 -0.1859 -0.0337 -0.0058
  268TIP3    H122439   6.649   4.657   7.984  0.1046  1.4808 -2.2777
  268TIP3    H222440   6.579   4.791   7.992 -0.9257  0.8290  1.9156
  269TIP3   OH222441   0.895   0.898   0.166 -0.1362 -0.0630  0.3835
  269TIP3    H122442   0.933   0.810   0.167  1.5960  0.6525 -0.1867
  269TIP3    H222443   0.847   0.901   0.083  1.0331  0.0039 -0.3160
  270TIP3   OH222444   6.474   2.072   1.322  0.1583  0.2014 -0.0821
  270TIP3    H122445   6.435   1.995   1.365  4.7784 -1.9604  0.8146
  270TIP3    H222446   6.430   2.077   1.237 -0.1823 -3.6786 -0.2964
  271TIP3   OH222447   0.298   3.148   7.277  0.0639  0.2201 -0.2475
  271TIP3    H122448   0.333   3.058   7.280  0.8834  0.5532  1.4780
  271TIP3    H222449   0.376   3.203   7.269 -0.3343  0.8299  0.0466
  272TIP3   OH222450   5.398   5.705   7.839 -0.2805 -0.4944  0.4327
  272TIP3    H122451   5.395   5.760   7.762 -2.6753  0.7531  1.3289
  272TIP3    H222452   5.434   5.761   7.908 -0.0016 -0.9711  0.6855
  273TIP3   OH222453   5.695   4.879   1.998  0.8203  0.1492 -0.1117
  273TIP3    H122454   5.650   4.897   1.915  0.4629  2.9129  0.6107
  273TIP3    H222455   5.624   4.857   2.059  0.8995  0.1010 -0.0372
  274TIP3   OH222456   4.366   6.054   0.491  0.0327  0.0428  0.3843
  274TIP3    H122457   4.327   6.013   0.569  1.6271  0.0498  1.2172
  274TIP3    H222458   4.457   6.027   0.492  0.6946  2.0914 -0.0859
  275TIP3   OH222459   4.189   4.784   8.186  0.3155  0.3752 -0.2092
  275TIP3    H122460   4.188   4.691   8.162  0.4517  0.2639  0.2091
  275TIP3    H222461   4.258   4.791   8.252  0.1018  0.7207 -0.0225
  276TIP3   OH222462   0.345   3.720   6.567 -0.1671 -0.6664  0.2235
  276TIP3    H122463   0.356   3.631   6.601  0.0652 -0.5610  0.4191
  276TIP3    H222464   0.424   3.766   6.593 -0.1253 -0.4981 -0.1882
  277TIP3   OH222465   6.909   6.566   7.554 -0.1590 -0.1153  0.1238
  277TIP3    H122466   6.886   6.639   7.495  0.3279  0.4003  0.5592
  277TIP3    H222467   6.903   6.604   7.641 -0.0903 -0.6571  0.3631
  278TIP3   OH222468   0.813   0.336   0.240 -0.2854  0.2664  0.9469
  278TIP3    H122469   0.836   0.341   0.147  1.4369  1.5111  1.3936
  278TIP3    H222470   0.726   0.375   0.245 -0.7690 -0.5734 -0.2233
  279TIP3   OH222471   1.005   3.373   1.338 -0.5288 -0.0389  0.6228
  279TIP3    H122472   1.018   3.400   1.429 -1.4675  1.6754  0.2848
  279TIP3    H222473   0.915   3.400   1.317 -0.8361 -1.6811 -0.4054
  280TIP3   OH222474   1.235   0.217   6.268  0.1623 -0.2187 -0.7688
  280TIP3    H122475   1.252   0.152   6.200  2.9916  0.6388 -1.0070
  280TIP3    H222476   1.140   0.216   6.279 -0.0363 -3.4073 -1.6868
  281TIP3   OH222477   5.250   6.324   6.485  0.4332  0.0835  0.4310
  281TIP3    H122478   5.170   6.376   6.472 -0.3610 -1.4869 -1.5757
  281TIP3    H222479   5.224   6.253   6.543  1.4608  1.6647  2.9878
  282TIP3   OH222480   1.813   2.170   7.313 -0.7320 -0.2758  0.2378
  282TIP3    H122481   1.797   2.264   7.326 -1.6715 -0.0472 -2.0396
  282TIP3    H222482   1.745   2.143   7.251 -2.0946 -3.0774  2.7296
  283TIP3   OH222483   2.510   0.659   7.067  0.2136 -0.1473 -0.3999
  283TIP3    H122484   2.433   0.717   7.063 -0.1441 -0.6639 -1.3636
  283TIP3    H222485   2.556   0.675   6.985  0.5337 -0.6575 -0.3229
  284TIP3   OH222486   1.222   0.931   1.141  0.2856  0.0880 -0.3997
  284TIP3    H122487   1.127   0.933   1.152 -0.1008 -0.2261 -3.0042
  284TIP3    H222488   1.236   0.958   1.050  2.7910  1.2140  0.2449
  285TIP3   OH222489   4.781   4.298   2.386 -0.5559  0.9150 -0.3702
  285TIP3    H122490   4.756   4.390   2.385 -1.7302  0.6127 -0.4973
  285TIP3    H222491   4.855   4.293   2.325  0.5722  2.0189  0.8226
  286TIP3   OH222492   2.739   2.999   2.145 -0.2823  0.1960 -0.3143
  286TIP3    H122493   2.714   2.956   2.227 -1.4081 -1.2410 -1.3544
  286TIP3    H222494   2.678   3.072   2.137  0.3736  0.8467  0.5229
  287TIP3   OH222495   3.154   6.817   7.527 -0.1168  0.0105 -0.3864
  287TIP3    H122496   3.089   6.855   7.586  0.3044 -0.5850  0.4782
  287TIP3    H222497   3.124   6.841   7.439 -1.6288 -0.4729 -0.0184
  288TIP3   OH222498   2.130   5.536   7.265  0.0474 -0.5445 -0.3371
  288TIP3    H122499   2.079   5.459   7.291 -0.6850 -0.0972 -0.4448
  288TIP3    H222500   2.079   5.576   7.194 -0.9578  1.5406  1.4453
  289TIP3   OH222501   0.491   1.115   7.168  0.4867 -0.5292  0.1194
  289TIP3    H122502   0.418   1.120   7.230  1.6869  0.5511  1.5208
  289TIP3    H222503   0.565   1.154   7.215  1.6681 -0.4631 -1.7031
  290TIP3   OH222504   0.170   0.588   7.802 -0.3357  0.5415 -0.3015
  290TIP3    H122505   0.216   0.512   7.837 -2.2789 -0.8796 -0.7265
  290TIP3    H222506   0.095   0.600   7.859 -0.4757  1.6849 -0.6999
  291TIP3   OH222507   4.417   0.892   1.134 -0.3634  0.0696  0.1311
  291TIP3    H122508   4.415   0.906   1.039  0.2444  0.5341  0.1799
  291TIP3    H222509   4.415   0.981   1.171  1.2474 -0.0310  0.5109
  292TIP3   OH222510   6.944   4.286   6.923  0.3084  0.4102  0.2219
  292TIP3    H122511   6.862   4.295   6.971  0.5331  0.2785  0.6313
  292TIP3    H222512   6.971   4.376   6.906  0.2823  0.4595  0.4345
  293TIP3   OH222513   3.478   4.027   1.578 -0.8930  0.0250  0.0619
  293TIP3    H122514   3.495   3.938   1.609 -3.0303 -0.2281  0.6546
  293TIP3    H222515   3.447   4.016   1.488 -1.5946  0.1109  0.2872
  294TIP3   OH222516   0.806   0.836   7.459 -0.1591  0.3537 -0.3652
  294TIP3    H122517   0.859   0.817   7.382  0.9608 -4.0048  1.1827
  294TIP3    H222518   0.722   0.864   7.424  1.5054  2.6313 -2.9737
  295TIP3   OH222519   4.751   7.046   8.156 -0.1099 -0.1877  0.1252
  295TIP3    H122520   4.831   7.024   8.204  0.9499 -1.0694 -1.8929
  295TIP3    H222521   4.778   7.113   8.093 -1.5720  1.3304  1.0283
  296TIP3   OH222522   4.191   3.275   0.886  0.3126  0.4140 -0.4192
  296TIP3    H122523   4.127   3.231   0.942  1.8014 -2.5419 -0.8287
  296TIP3    H222524   4.192   3.366   0.917 -0.8177 -0.4820  2.5777
  297TIP3   OH222525   2.341   6.845   1.012 -0.0875 -0.1903 -0.1461
  297TIP3    H122526   2.401   6.809   1.078 -0.3342  2.4394  1.6845
  297TIP3    H222527   2.352   6.789   0.936  4.8349  0.1933  0.0021
  298TIP3   OH222528   6.533   1.803   1.549 -0.3606  0.3398 -0.6982
  298TIP3    H122529   6.592   1.821   1.476  0.5821 -0.4704 -0.1620
  298TIP3    H222530   6.446   1.825   1.515  0.3814  3.3273 -0.9147
  299TIP3   OH222531   4.989   6.654   1.642  0.7554  0.9677 -0.0749
  299TIP3    H122532   4.962   6.616   1.726  0.4516 -0.1623 -0.6601
  299TIP3    H222533   5.077   6.620   1.628  0.4756  0.4556 -0.6158
  300TIP3   OH222534   0.641   0.267   1.187 -0.1667 -0.0264 -0.0891
  300TIP3    H122535   0.702   0.295   1.255 -1.5089 -0.1693  1.2120
  300TIP3    H222536   0.577   0.338   1.181 -1.2834 -0.9520  0.3569
  301TIP3   OH222537   4.043   7.025   6.979 -0.4807  0.1259  0.0463
  301TIP3    H122538   4.120   6.996   7.029 -1.5158 -0.9502  1.0885
  301TIP3    H222539   4.070   7.016   6.888  0.7781  0.1719  0.3925
  302TIP3   OH222540   0.730   1.503   1.433  0.1347  0.0776  0.0260
  302TIP3    H122541   0.729   1.461   1.520  0.5764  2.2080  1.1253
  302TIP3    H222542   0.658   1.566   1.436  0.7976  0.8898 -0.7833
  303TIP3   OH222543   6.995   0.134   8.218 -0.0438 -0.2142  0.2730
  303TIP3    H122544   6.907   0.156   8.251 -0.2723  0.5093 -0.7639
  303TIP3    H222545   6.988   0.044   8.189 -0.6882  0.0927 -0.5573
  304TIP3   OH222546   4.833   5.021   8.043  0.4357  0.6228  0.3385
  304TIP3    H122547   4.827   4.970   8.124 -2.3397  1.4956  0.7610
  304TIP3    H222548   4.844   5.111   8.072  0.7814  0.7867 -0.2975
  305TIP3   OH222549   4.767   2.909   1.262 -0.2912 -0.7143 -0.0861
  305TIP3    H122550   4.765   2.952   1.176 -0.6189 -0.0836  0.2336
  305TIP3    H222551   4.708   2.834   1.252 -0.3213 -0.6492 -0.4164
  306TIP3   OH222552   4.337   6.312   1.161  0.1062 -0.0300 -0.1423
  306TIP3    H122553   4.430   6.296   1.146 -0.1078 -2.2488  0.5670
  306TIP3    H222554   4.332   6.339   1.252 -0.0004 -0.4736 -0.0164
  307TIP3   OH222555   0.890   2.537   2.225  0.1902 -0.5193 -0.1038
  307TIP3    H122556   0.901   2.532   2.320 -0.5390 -0.3600 -0.0006
  307TIP3    H222557   0.974   2.509   2.189  0.7231  0.1272  0.5931
  308TIP3   OH222558   3.587   4.859   7.938 -0.0209 -0.0448 -0.3482
  308TIP3    H122559   3.622   4.882   7.852  1.2222 -0.4860  0.0177
  308TIP3    H222560   3.651   4.893   8.001 -0.8621  0.1854  0.4099
  309TIP3   OH222561   2.162   6.088   6.222 -0.3895 -0.4392  0.0232
  309TIP3    H122562   2.104   6.046   6.286  3.1475 -3.0797  1.8075
  309TIP3    H222563   2.181   6.019   6.159  1.9392 -0.2061  0.3998
  310TIP3   OH222564   0.637   3.501   1.787  0.7806  0.0994 -0.3795
  310TIP3    H122565   0.612   3.593   1.785  1.3761  0.2941  0.4529
  310TIP3    H222566   0.554   3.453   1.785  0.3501  0.7041  1.6010
  311TIP3   OH222567   2.690   4.387   0.334 -0.6788  0.0376  0.6093
  311TIP3    H122568   2.750   4.459   0.352 -0.2514 -0.0855 -0.2774
  311TIP3    H222569   2.664   4.355   0.421 -0.6706  1.0751  1.0033
  312TIP3   OH222570   2.264   1.953   8.092  0.0444  0.2003  0.1545
  312TIP3    H122571   2.173   1.933   8.114 -0.2340 -0.2481 -1.2880
  312TIP3    H222572   2.312   1.873   8.110 -0.2176 -0.2321 -0.9792
  313TIP3   OH222573   3.477   7.017   0.061 -0.0298 -0.2465 -0.0765
  313TIP3    H122574   3.512   6.928   0.069 -0.8407 -0.4239  2.8810
  313TIP3    H222575   3.547   7.073   0.095 -0.5039 -0.0592  0.6113
  314TIP3   OH222576   6.507   0.360   1.508 -0.2724 -0.2886  0.0798
  314TIP3    H122577   6.506   0.402   1.422  1.5471 -1.2824 -0.4685
  314TIP3    H222578   6.415   0.350   1.531 -0.7929 -0.0983 -1.8045
  315TIP3   OH222579   3.073   0.566   7.128  0.3949 -0.7537  0.2146
  315TIP3    H122580   3.119   0.620   7.193 -0.3800 -1.2292  1.1862
  315TIP3    H222581   3.017   0.628   7.081 -0.4889 -0.6927  1.3251
  316TIP3   OH222582   3.555   6.156   1.012  0.0585 -0.8156 -0.5189
  316TIP3    H122583   3.603   6.083   0.973 -0.7441 -1.0840 -1.0128
  316TIP3    H222584   3.613   6.232   0.999  1.8869 -1.6690  1.8669
  317TIP3   OH222585   5.116   1.135   2.100  0.4178  0.6513 -0.2960
  317TIP3    H122586   5.171   1.192   2.046  0.1188  0.7326 -0.5207
  317TIP3    H222587   5.039   1.188   2.118  0.8970  0.9531  0.9580
  318TIP3   OH222588   4.922   3.089   7.656 -0.1283  0.1674 -0.6533
  318TIP3    H122589   4.831   3.087   7.686  0.1036  0.3916  0.0691
  318TIP3    H222590   4.972   3.048   7.727  0.4770  1.0848 -0.5384
  319TIP3   OH222591   4.181   6.253   7.213 -0.1929 -0.5787  0.0370
  319TIP3    H122592   4.171   6.340   7.174  0.1444  0.2708  1.7560
  319TIP3    H222593   4.095   6.212   7.201 -1.2678  1.0512  1.6015
  320TIP3   OH222594   3.632   6.411   7.398 -0.3093 -0.0568 -0.1425
  320TIP3    H122595   3.710   6.364   7.368 -0.3859 -0.3553  0.1171
  320TIP3    H222596   3.603   6.461   7.322 -0.1767 -0.3673 -0.3985
  321TIP3   OH222597   0.081   4.876   0.769  0.1784 -0.8441 -0.7455
  321TIP3    H122598   0.147   4.888   0.837  0.2190  1.4852 -1.1137
  321TIP3    H222599   0.000   4.857   0.816  0.1347  1.0667  0.0185
  322TIP3   OH222600   6.747   1.840   1.359 -0.1731  0.0481 -0.3593
  322TIP3    H122601   6.841   1.822   1.352  0.1797  1.4575  0.2598
  322TIP3    H222602   6.724   1.881   1.275  0.1550  1.1691  0.0734
  323TIP3   OH222603   6.138   5.590   6.307  0.0895 -0.2817  0.0131
  323TIP3    H122604   6.150   5.677   6.346 -0.3688  0.4925 -1.5173
  323TIP3    H222605   6.223   5.568   6.270  0.2111 -0.4964  0.4193
  324TIP3   OH222606   2.823   1.746   7.500  0.2574 -0.7263  0.1193
  324TIP3    H122607   2.836   1.793   7.582 -0.7430  0.4977 -0.3909
  324TIP3    H222608   2.897   1.771   7.445 -0.7380  1.0600 -0.4824
  325TIP3   OH222609   6.541   3.856   0.998 -0.1951  0.3279 -0.0341
  325TIP3    H122610   6.566   3.788   0.935 -0.4658 -0.4120  0.6434
  325TIP3    H222611   6.535   3.810   1.082  0.6666  1.3930  0.6368
  326TIP3   OH222612   6.616   1.679   6.469  0.0517 -0.0325  0.0583
  326TIP3    H122613   6.697   1.691   6.519  0.4633 -1.3365 -0.2618
  326TIP3    H222614   6.625   1.739   6.395  1.9000 -1.8635 -1.3330
  327TIP3   OH222615   6.115   0.329   1.821  0.5960  0.4622  0.1745
  327TIP3    H122616   6.041   0.287   1.865  1.0617  0.0413  0.5751
  327TIP3    H222617   6.083   0.416   1.799  0.0959  0.4150  0.6685
  328TIP3   OH222618   3.066   4.555   1.840 -0.5088 -0.6986 -0.1523
  328TIP3    H122619   3.052   4.650   1.833 -4.2432 -1.1248 -0.6675
  328TIP3    H222620   2.995   4.517   1.787  0.4185 -3.8037  0.6581
  329TIP3   OH222621   5.713   0.881   0.394  0.3168  0.1427  0.4565
  329TIP3    H122622   5.681   0.791   0.386  0.1026  0.3024 -0.6502
  329TIP3    H222623   5.792   0.874   0.447  1.0504 -0.8751 -0.7480
  330TIP3   OH222624   0.736   2.167   6.509 -0.4078  0.0103  0.3140
  330TIP3    H122625   0.769   2.077   6.510 -0.1345 -0.1263 -3.8068
  330TIP3    H222626   0.809   2.219   6.474 -0.9303  1.7007  1.6055
  331TIP3   OH222627   6.870   4.796   8.215  0.0845  0.3769  0.0112
  331TIP3    H122628   6.877   4.887   8.188 -2.1190  0.8221  0.7484
  331TIP3    H222629   6.798   4.761   8.161 -0.4476 -0.3408  1.1545
  332TIP3   OH222630   2.669   1.356   1.719 -0.0688 -0.1126  0.2242
  332TIP3    H122631   2.617   1.306   1.657 -0.2322 -0.3820  0.5774
  332TIP3    H222632   2.742   1.390   1.666 -0.0400 -0.5900 -0.0536
  333TIP3   OH222633   6.884   5.661   1.751 -0.0117  0.0747 -0.4052
  333TIP3    H122634   6.921   5.583   1.710  0.4937  0.3992 -0.5690
  333TIP3    H222635   6.921   5.662   1.839  1.0531  0.8684 -0.8550
  334TIP3   OH222636   2.677   3.640   1.072  0.1953 -0.4941 -0.4074
  334TIP3    H122637   2.674   3.546   1.089 -0.0738 -0.6418 -1.2015
  334TIP3    H222638   2.597   3.658   1.023 -0.5566  0.4578  1.1160
  335TIP3   OH222639   4.327   5.883   1.624 -0.0892  0.0512 -0.4364
  335TIP3    H122640   4.348   5.960   1.570  1.4596 -0.7086 -0.9492
  335TIP3    H222641   4.411   5.852   1.655 -0.9389  1.0470  3.3666
  336TIP3   OH222642   1.642   3.781   1.421 -0.2478 -0.5868  0.1991
  336TIP3    H122643   1.571   3.839   1.394 -0.9465 -2.4430 -2.2421
  336TIP3    H222644   1.720   3.817   1.378 -0.1499  0.0022  0.8414
  337TIP3   OH222645   1.877   4.629   0.118 -0.3175 -0.4345  0.5794
  337TIP3    H122646   1.905   4.561   0.180 -1.9859 -1.4704  0.2505
  337TIP3    H222647   1.882   4.587   0.032 -1.5354 -0.2086  0.3897
  338TIP3   OH222648   5.339   5.409   7.594  0.1158 -0.0364  0.0411
  338TIP3    H122649   5.395   5.479   7.562 -3.0221  2.7639  0.0884
  338TIP3    H222650   5.391   5.366   7.662  2.3676  1.9514 -0.2885
  339TIP3   OH222651   3.572   1.039   0.655  0.7316 -0.8797  0.7435
  339TIP3    H122652   3.510   1.067   0.724 -0.2037  1.0512 -0.7663
  339TIP3    H222653   3.523   0.975   0.603  0.7588 -0.9238  0.7722
  340TIP3   OH222654   4.141   3.265   1.865  0.1195 -0.2230  0.3193
  340TIP3    H122655   4.142   3.281   1.960 -1.0213 -3.3597  0.9570
  340TIP3    H222656   4.049   3.275   1.840  0.2271 -0.5616 -0.2225
  341TIP3   OH222657   2.104   1.254   1.909  0.3627  0.4097  0.4910
  341TIP3    H122658   2.047   1.218   1.977  0.4310  0.3373  0.5107
  341TIP3    H222659   2.176   1.191   1.902 -0.6131 -0.6038 -1.0073
  342TIP3   OH222660   6.713   2.243   1.387  0.0964 -0.1001 -0.3488
  342TIP3    H122661   6.650   2.213   1.321  0.6711  0.3172 -1.1149
  342TIP3    H222662   6.660   2.261   1.464 -0.7865  0.6176 -1.0937
  343TIP3   OH222663   3.679   1.755   7.755  0.4721  0.1156  0.5173
  343TIP3    H122664   3.711   1.767   7.666  3.2332 -0.7611  1.2718
  343TIP3    H222665   3.656   1.662   7.761 -3.5161  0.8788 -0.2684
  344TIP3   OH222666   2.960   3.634   1.831  0.2933 -0.1435 -0.3606
  344TIP3    H122667   2.928   3.724   1.835  5.0585  1.9667 -1.7509
  344TIP3    H222668   2.948   3.608   1.740  1.2875  0.2355 -0.6209
  345TIP3   OH222669   4.848   0.110   6.901 -0.4017 -0.4893 -0.2642
  345TIP3    H122670   4.930   0.067   6.877 -0.3298  0.5210 -1.9410
  345TIP3    H222671   4.803   0.046   6.956  0.7522 -1.7349 -0.7089
  346TIP3   OH222672   1.545   0.917   7.850  0.3877  0.8483  0.5934
  346TIP3    H122673   1.561   0.992   7.907 -1.0715  1.6271  0.0119
  346TIP3    H222674   1.625   0.864   7.858  1.5971  2.6133  0.7402
  347TIP3   OH222675   0.323   4.425   2.935 -0.5287 -0.2513  0.3899
  347TIP3    H122676   0.363   4.507   2.964  0.7199 -1.2905  1.7950
  347TIP3    H222677   0.396   4.377   2.895 -1.6365  0.0237 -2.0850
  348TIP3   OH222678   2.467   5.314   7.500 -0.4265  0.5442 -0.1145
  348TIP3    H122679   2.431   5.327   7.588 -0.9652 -1.0841 -0.0671
  348TIP3    H222680   2.475   5.219   7.491  1.3214  0.7515 -1.1578
  349TIP3   OH222681   0.886   6.357   7.048  0.2067 -0.0418  0.3465
  349TIP3    H122682   0.981   6.355   7.062  0.5507  1.7137 -1.2071
  349TIP3    H222683   0.866   6.273   7.007  1.1453 -0.3135  0.4200
  350TIP3   OH222684   2.064   5.140   8.211 -0.2418  0.3511  0.0530
  350TIP3    H122685   2.008   5.063   8.208 -0.0729  0.1687  1.0909
  350TIP3    H222686   2.123   5.124   8.285  0.3978  1.0677 -0.2808
  351TIP3   OH222687   6.353   1.458   0.371  0.2766 -0.0741  0.4178
  351TIP3    H122688   6.294   1.483   0.442  0.9836  1.3307  0.5608
  351TIP3    H222689   6.297   1.450   0.295  0.0253  2.9658  0.1498
  352TIP3   OH222690   6.293   2.861   1.348  0.0582  0.1737 -0.0053
  352TIP3    H122691   6.331   2.895   1.266 -0.7881  1.1230 -0.0201
  352TIP3    H222692   6.304   2.933   1.411  3.1302 -1.4649  1.5308
  353TIP3   OH222693   6.603   1.146   7.010  0.4478  0.2961 -0.3697
  353TIP3    H122694   6.617   1.053   6.991 -0.9270 -0.1173  0.4286
  353TIP3    H222695   6.591   1.187   6.925 -0.4077 -0.5428 -0.6708
  354TIP3   OH222696   1.462   0.622   2.052  0.4360 -0.4774  0.1036
  354TIP3    H122697   1.380   0.587   2.088  1.6938 -2.1005  1.4864
  354TIP3    H222698   1.443   0.634   1.958 -1.4475 -0.5868  0.4271
  355TIP3   OH222699   2.958   4.001   7.456  0.3060  0.3201  0.3191
  355TIP3    H122700   2.936   4.008   7.363  0.7766 -0.7975  0.1112
  355TIP3    H222701   3.051   3.977   7.457  0.2699  0.1847  1.0778
  356TIP3   OH222702   1.834   3.102   7.802 -0.5239 -0.1798 -0.6111
  356TIP3    H122703   1.911   3.102   7.745  1.3248 -0.0582  1.7105
  356TIP3    H222704   1.820   3.195   7.823  0.2404 -0.3627  0.8391
  357TIP3   OH222705   3.338   5.438   6.556 -0.3519 -0.0324 -0.3486
  357TIP3    H122706   3.308   5.416   6.644  0.9864 -1.2678 -0.1640
  357TIP3    H222707   3.416   5.491   6.570 -1.0266  1.1254 -0.8170
  358TIP3   OH222708   4.169   5.394   2.270 -0.3563 -0.6219  0.4823
  358TIP3    H122709   4.159   5.404   2.365 -0.2184  0.0320  0.4359
  358TIP3    H222710   4.247   5.338   2.261 -0.5587 -0.9535  0.7570
  359TIP3   OH222711   2.953   4.453   8.214  0.2498 -0.7748  0.7270
  359TIP3    H122712   2.962   4.440   8.119  1.9763  0.3379  0.7006
  359TIP3    H222713   2.917   4.541   8.223  3.1976  0.5126  1.0766
  360TIP3   OH222714   3.107   6.658   0.398 -0.2303  0.3175 -0.4896
  360TIP3    H122715   3.051   6.597   0.351  0.0874  0.4705 -1.0724
  360TIP3    H222716   3.073   6.744   0.377 -0.7509  0.3474  0.4286
  361TIP3   OH222717   4.554   3.846   2.020  0.3260 -0.2692 -0.4721
  361TIP3    H122718   4.471   3.811   2.051 -0.1000  2.4827  1.9730
  361TIP3    H222719   4.598   3.877   2.099  2.2130  1.2752 -2.0127
  362TIP3   OH222720   5.402   0.702   1.620  0.4756  0.4361  0.1817
  362TIP3    H122721   5.422   0.764   1.550 -0.2292 -0.0817 -0.4895
  362TIP3    H222722   5.345   0.750   1.680 -2.9256 -0.4632 -2.0354
  363TIP3   OH222723   2.312   2.109   1.613 -0.2040 -0.3579 -0.0805
  363TIP3    H122724   2.243   2.125   1.549  0.1561 -0.5812 -0.5325
  363TIP3    H222725   2.266   2.094   1.695 -0.7186 -0.9873 -0.4718
  364TIP3   OH222726   5.339   5.902   7.173 -0.0268  0.4883  0.4631
  364TIP3    H122727   5.290   5.971   7.218 -2.7018 -1.9602  1.6332
  364TIP3    H222728   5.307   5.905   7.083  0.0689  0.9339  0.4421
  365TIP3   OH222729   3.376   2.526   0.759 -0.1068 -0.1327  0.0228
  365TIP3    H122730   3.404   2.606   0.803 -0.9179 -0.1524  0.6042
  365TIP3    H222731   3.281   2.535   0.750 -0.1333 -0.7652 -0.4508
  366TIP3   OH222732   3.971   2.784   1.442 -0.1683 -0.5250 -0.4624
  366TIP3    H122733   3.941   2.844   1.373 -2.3206  1.5040  2.0202
  366TIP3    H222734   3.912   2.709   1.435  0.5742 -1.0158 -1.6966
  367TIP3   OH222735   3.127   1.927   6.738  0.1509  0.2930  0.1591
  367TIP3    H122736   3.070   1.864   6.695 -0.4548  1.6057 -1.0210
  367TIP3    H222737   3.079   2.010   6.735  1.7189  1.2401 -0.0706
  368TIP3   OH222738   5.960   7.061   6.508 -0.1547 -0.1113  0.2276
  368TIP3    H122739   5.891   7.114   6.469 -1.2656 -1.3166  0.4795
  368TIP3    H222740   5.950   6.975   6.467  1.5477 -0.1797 -0.1144
  369TIP3   OH222741   0.545   4.462   0.912  1.0017 -0.0200 -0.2762
  369TIP3    H122742   0.491   4.512   0.973  0.3979  0.6987 -1.3610
  369TIP3    H222743   0.544   4.373   0.946 -0.9273 -0.0406 -0.2740
  370TIP3   OH222744   6.270   3.933   7.026 -0.1275 -0.0993  0.2265
  370TIP3    H122745   6.316   4.012   7.056 -0.5763  1.0385 -1.8612
  370TIP3    H222746   6.263   3.945   6.931 -1.1487 -2.1840 -0.0032
  371TIP3   OH222747   3.233   2.259   6.833 -0.2230 -0.1328  0.2329
  371TIP3    H122748   3.307   2.201   6.814 -0.5840 -0.1907 -1.1357
  371TIP3    H222749   3.158   2.216   6.791 -0.5660  1.1228 -0.4734
  372TIP3   OH222750   0.099   1.082   1.256  0.0162 -0.2408  0.2146
  372TIP3    H122751   0.071   1.124   1.337 -0.3254 -2.0094  1.0584
  372TIP3    H222752   0.194   1.075   1.263  0.2635  1.6562 -0.6073
  373TIP3   OH222753   0.522   1.605   1.135 -0.2788  0.5162 -0.5611
  373TIP3    H122754   0.612   1.574   1.131 -0.1906  0.6633  0.1588
  373TIP3    H222755   0.470   1.525   1.142 -0.1133  0.4697  0.2945
  374TIP3   OH222756   1.547   5.278   7.377 -0.0196 -0.1758  0.2662
  374TIP3    H122757   1.526   5.345   7.442 -1.1235  0.8004 -1.0400
  374TIP3    H222758   1.591   5.325   7.306  1.0057 -1.1883  0.1848
  375TIP3   OH222759   6.879   2.396   2.402 -0.2024  0.1112 -0.1775
  375TIP3    H122760   6.834   2.468   2.359 -0.2021 -1.2655 -2.7157
  375TIP3    H222761   6.941   2.364   2.336 -1.1130 -2.9882  0.3067
  376TIP3   OH222762   3.807   5.841   1.134  0.2762 -0.2703  0.4519
  376TIP3    H122763   3.737   5.839   1.199  0.5665 -0.0268  0.7799
  376TIP3    H222764   3.887   5.857   1.185  0.2162  2.5359 -0.1648
  377TIP3   OH222765   0.045   3.563   8.086  0.3813  0.3150 -0.5985
  377TIP3    H122766   0.057   3.479   8.042 -1.7043  0.8529 -2.4112
  377TIP3    H222767  -0.045   3.588   8.063  0.7572  2.7573  0.3679
  378TIP3   OH222768   4.921   1.811   1.840  0.3649  0.0074  0.1508
  378TIP3    H122769   4.925   1.865   1.761 -0.2870  0.0481  0.1389
  378TIP3    H222770   4.897   1.873   1.910  0.8173 -0.0501  0.3591
  379TIP3   OH222771   0.842   6.475   2.236 -0.2261 -0.3554  0.3954
  379TIP3    H122772   0.828   6.528   2.314  0.4599  0.8376 -0.2642
  379TIP3    H222773   0.912   6.414   2.260  0.6394  0.6346  0.4304
  380TIP3   OH222774   6.273   1.073   2.318  0.0031  0.0565  0.5700
  380TIP3    H122775   6.248   0.981   2.308 -1.6480  0.1516  2.9468
  380TIP3    H222776   6.349   1.071   2.377 -1.1893  0.2217  2.1928
  381TIP3   OH222777   2.176   3.287   1.880 -0.3742  0.5173 -0.2739
  381TIP3    H122778   2.199   3.364   1.828 -1.6143  0.0967 -1.4938
  381TIP3    H222779   2.110   3.318   1.941 -0.3150  0.5879 -0.2457
  382TIP3   OH222780   0.938   2.661   0.715  0.0773  0.6372 -0.0123
  382TIP3    H122781   0.865   2.721   0.703 -1.8875 -1.4577  0.7610
  382TIP3    H222782   0.940   2.608   0.636 -0.8388 -0.8735  0.9273
  383TIP3   OH222783   0.692   2.079   1.531  0.0401 -0.5259 -0.5518
  383TIP3    H122784   0.672   2.027   1.609 -2.2495 -2.7103 -2.4115
  383TIP3    H222785   0.762   2.030   1.488 -0.6311 -0.9108 -1.2261
  384TIP3   OH222786   4.360   2.445   1.849  0.4592  0.3874 -0.1268
  384TIP3    H122787   4.436   2.407   1.806 -0.7829 -1.4887 -0.7535
  384TIP3    H222788   4.318   2.500   1.782 -1.0164 -1.8885 -1.1875
  385TIP3   OH222789   3.190   0.298   7.615 -0.0410 -0.0017  0.2217
  385TIP3    H122790   3.251   0.281   7.543 -0.6099 -0.3101 -0.1965
  385TIP3    H222791   3.224   0.377   7.657  0.8963 -0.4157  0.2720
  386TIP3   OH222792   6.595   3.928   7.278  0.1303 -0.6074 -0.0399
  386TIP3    H122793   6.667   3.921   7.341  0.2363  0.6490 -0.0125
  386TIP3    H222794   6.626   3.878   7.202  0.2143 -1.6988  0.6926
  387TIP3   OH222795   6.914   1.431   0.087  0.2349 -0.0303 -0.7090
  387TIP3    H122796   6.894   1.406   0.177  1.7630  0.9482 -0.0398
  387TIP3    H222797   6.957   1.355   0.049  1.5624  0.2656  0.1301
  388TIP3   OH222798   4.753   5.350   2.878  0.0122 -0.5501  0.0516
  388TIP3    H122799   4.790   5.430   2.841  3.3308 -2.4295 -1.0485
  388TIP3    H222800   4.698   5.314   2.808  0.2543 -0.3133 -0.2623
  389TIP3   OH222801   3.484   1.073   7.799 -0.4982  0.3801  0.1475
  389TIP3    H122802   3.486   0.991   7.750 -3.6097  0.8582 -1.0381
  389TIP3    H222803   3.553   1.126   7.760 -0.0342 -0.8197 -0.7277
  390TIP3   OH222804   0.442   4.693   2.987 -0.4309  0.5729  0.2071
  390TIP3    H122805   0.443   4.736   2.902  0.9502  0.1729 -0.0165
  390TIP3    H222806   0.533   4.667   3.001 -0.9403 -0.8987  1.0152
  391TIP3   OH222807   0.581   5.770   7.442  0.4366  0.2253 -0.4610
  391TIP3    H122808   0.579   5.675   7.431  0.0033  0.3792 -1.9380
  391TIP3    H222809   0.577   5.804   7.353  0.9177  1.6337  0.0289
  392TIP3   OH222810   1.088   6.242   7.425 -0.2376 -0.1332 -0.4936
  392TIP3    H122811   0.993   6.240   7.418 -0.3584 -0.8150  0.8845
  392TIP3    H222812   1.105   6.287   7.508  0.6309 -0.2194 -0.6122
  393TIP3   OH222813   0.936   6.292   1.869  0.6892 -0.0819  0.0332
  393TIP3    H122814   0.984   6.250   1.797 -1.2708 -0.2769 -1.2159
  393TIP3    H222815   0.847   6.261   1.861  0.3955 -0.1671  2.6474
  394TIP3   OH222816   4.355   0.402   7.103  0.0647 -0.2389  0.3296
  394TIP3    H122817   4.377   0.311   7.079 -1.5852 -0.4304 -0.6003
  394TIP3    H222818   4.423   0.455   7.060 -0.0774 -0.9230 -0.8003
  395TIP3   OH222819   2.199   0.233   6.622 -0.1488 -0.0544  0.1690
  395TIP3    H122820   2.144   0.172   6.573  0.8775 -1.0484  0.2143
  395TIP3    H222821   2.280   0.239   6.571  0.2951  0.1846  0.8844
  396TIP3   OH222822   1.200   2.910   7.662  0.1166  0.0147 -0.0074
  396TIP3    H122823   1.106   2.910   7.643  0.3405  2.6903 -1.6142
  396TIP3    H222824   1.210   2.971   7.734  0.7325  0.9600 -0.8638
  397TIP3   OH222825   4.435   1.988   0.502 -0.0653  0.7303  0.7464
  397TIP3    H122826   4.454   1.895   0.486 -2.2519  0.2575  0.5120
  397TIP3    H222827   4.422   1.993   0.596 -0.0630  0.7739  0.7442
  398TIP3   OH222828   5.493   5.689   2.632 -0.0020 -0.4258 -0.0156
  398TIP3    H122829   5.512   5.598   2.611 -0.6502 -0.1799 -1.8127
  398TIP3    H222830   5.462   5.727   2.550  0.8393  1.5880  0.5380
  399TIP3   OH222831   5.867   3.075   7.079  0.2544  0.4463 -0.0470
  399TIP3    H122832   5.866   3.041   6.990  0.4347 -0.7245  0.3742
  399TIP3    H222833   5.851   3.169   7.070 -2.8464 -0.0878 -1.1003
  400TIP3   OH222834   4.724   4.664   0.130  0.4550 -0.1987 -0.1929
  400TIP3    H122835   4.714   4.653   0.225 -1.5775  1.9210 -0.0779
  400TIP3    H222836   4.671   4.593   0.093  1.1969 -0.9939  0.2158
  401TIP3   OH222837   4.417   4.400   2.862  0.4536 -1.1042 -0.3068
  401TIP3    H122838   4.491   4.451   2.894  1.9509 -1.7255 -2.5477
  401TIP3    H222839   4.362   4.387   2.939  0.8953  2.2605  0.7563
  402TIP3   OH222840   5.899   1.842   0.358  0.2308  0.1515  0.0460
  402TIP3    H122841   5.834   1.786   0.316 -0.0552  0.9705 -0.6260
  402TIP3    H222842   5.860   1.929   0.358  0.2099  0.1839  2.0711
  403TIP3   OH222843   2.243   4.014   7.818 -0.1007 -0.0523  0.5979
  403TIP3    H122844   2.186   4.055   7.883  0.2883 -1.3016  1.7707
  403TIP3    H222845   2.331   4.041   7.843 -0.0874  1.2968 -0.7888
  404TIP3   OH222846   1.304   0.622   1.406  0.6248  0.1604 -0.0043
  404TIP3    H122847   1.392   0.658   1.390  0.5106  0.0518 -0.9311
  404TIP3    H222848   1.253   0.650   1.330  0.1726 -0.7945 -0.0563
  405TIP3   OH222849   3.058   4.837   1.397  0.6907  0.2273 -0.4963
  405TIP3    H122850   3.110   4.759   1.417 -2.0423 -1.3559  0.9830
  405TIP3    H222851   3.019   4.819   1.312  0.8549  0.4731 -0.6267
  406TIP3   OH222852   3.139   2.477   0.495 -0.3617 -0.3409 -0.5359
  406TIP3    H122853   3.079   2.539   0.453 -2.0782 -2.2872 -1.1037
  406TIP3    H222854   3.217   2.479   0.440 -1.6845 -1.1303 -2.5503
  407TIP3   OH222855   0.824   5.878   1.928  0.4317 -0.5175  0.8740
  407TIP3    H122856   0.830   5.945   1.997 -0.1906  1.6463 -1.0491
  407TIP3    H222857   0.776   5.921   1.857  0.4520 -2.8756 -0.6753
  408TIP3   OH222858   5.312   4.937   2.137  0.0323 -0.1942 -0.1369
  408TIP3    H122859   5.386   4.887   2.171 -1.1576 -0.5000  2.2252
  408TIP3    H222860   5.242   4.873   2.125 -0.6902  0.4751  0.3385
  409TIP3   OH222861   4.068   4.326   1.998  0.1697  0.2489  0.0011
  409TIP3    H122862   4.110   4.240   1.996 -0.6428 -0.1427 -2.3046
  409TIP3    H222863   4.141   4.388   1.991  0.8057 -0.1468  2.1388
  410TIP3   OH222864   0.302   6.306   7.608  0.3749  0.6963 -1.0465
  410TIP3    H122865   0.231   6.356   7.567  0.2801  2.2091  0.8169
  410TIP3    H222866   0.377   6.366   7.606  0.7003  0.3373 -0.1626
  411TIP3   OH222867   2.157   3.311   7.242  0.3863  0.3409  0.2901
  411TIP3    H122868   2.136   3.404   7.235  0.7370  0.3207 -1.2759
  411TIP3    H222869   2.249   3.305   7.217  0.2564 -0.4787 -0.0230
  412TIP3   OH222870   1.375   5.084   7.282  0.3933  0.1932 -0.5494
  412TIP3    H122871   1.391   5.162   7.335 -0.4401 -0.1390  0.2167
  412TIP3    H222872   1.453   5.030   7.294  0.5708  0.4956 -0.3378
  413TIP3   OH222873   5.034   4.231   3.284  0.5044  0.1006  1.1040
  413TIP3    H122874   4.957   4.287   3.279  1.4292  1.2980 -0.7347
  413TIP3    H222875   5.004   4.145   3.254  0.0043  0.7153 -0.2042
  414TIP3   OH222876   3.750   0.940   7.385  0.2070  0.0941 -0.0296
  414TIP3    H122877   3.700   1.022   7.387  0.6663  0.3801 -0.1192
  414TIP3    H222878   3.835   0.965   7.350  0.5796 -0.3032  0.5785
  415TIP3   OH222879   2.907   2.372   8.048 -0.3355 -0.8690  0.1113
  415TIP3    H122880   2.951   2.427   8.112 -0.9672  0.1184 -0.2860
  415TIP3    H222881   2.964   2.296   8.038  0.7554 -0.1000  0.3730
  416TIP3   OH222882   6.560   0.316   1.129  0.0294  0.2830 -0.1471
  416TIP3    H122883   6.507   0.389   1.159 -2.4369 -1.1805 -0.6903
  416TIP3    H222884   6.574   0.334   1.035  2.1948  1.5732  0.3363
  417TIP3   OH222885   5.148   2.854   0.618 -0.2800  0.1400  0.3779
  417TIP3    H122886   5.078   2.860   0.553  0.8494  0.3385 -0.8457
  417TIP3    H222887   5.118   2.909   0.690 -2.6587 -1.9328  1.1281
  418TIP3   OH222888   1.963   2.998   2.394  0.1058  0.0464  0.3193
  418TIP3    H122889   2.037   3.014   2.452 -1.0142 -0.8187  2.0795
  418TIP3    H222890   1.950   2.903   2.396  1.8834 -0.4758 -3.8468
  419TIP3   OH222891   7.005   4.630   2.896  0.0954  0.3457  0.4116
  419TIP3    H122892   7.012   4.535   2.894 -1.7090  0.1938 -0.2531
  419TIP3    H222893   7.067   4.657   2.964  0.6892 -1.2774  0.5658
  420TIP3   OH222894   4.079   4.780   7.404 -0.3351  0.0725  0.1799
  420TIP3    H122895   4.109   4.870   7.419  1.0024 -0.2179 -0.6479
  420TIP3    H222896   4.000   4.790   7.350  0.7924  0.7116 -1.4193
  421TIP3   OH222897   3.633   6.177   0.645 -0.1537 -0.2899  0.0888
  421TIP3    H122898   3.591   6.091   0.657  1.1676 -0.9428  0.2394
  421TIP3    H222899   3.708   6.159   0.588 -0.2159  0.8898 -0.3839
  422TIP3   OH222900   2.252   6.475   6.430 -0.4234 -0.5615 -0.5519
  422TIP3    H122901   2.213   6.559   6.407  2.0541  0.4557 -1.2843
  422TIP3    H222902   2.222   6.459   6.520 -1.4184  0.7886 -0.6126
  423TIP3   OH222903   1.384   5.173   6.501  0.1515 -0.1554 -0.1232
  423TIP3    H122904   1.439   5.248   6.479  0.6698 -0.5428 -0.1736
  423TIP3    H222905   1.296   5.209   6.509  0.2064  0.2542 -1.2667
  424TIP3   OH222906   0.360   3.581   7.651 -0.2907  0.3731 -0.1165
  424TIP3    H122907   0.285   3.636   7.675 -0.0774  0.4145  0.4761
  424TIP3    H222908   0.383   3.537   7.732  0.1427  0.1349 -0.3706
  425TIP3   OH222909   6.432   3.255   7.870 -0.1499  0.1410 -0.1873
  425TIP3    H122910   6.461   3.320   7.933 -2.3907 -1.3726  2.6289
  425TIP3    H222911   6.354   3.293   7.830 -1.1750 -0.5102  1.1061
  426TIP3   OH222912   4.892   2.712   0.707  0.4944 -0.0024  0.0723
  426TIP3    H122913   4.862   2.634   0.754  1.1069 -0.7238 -0.6912
  426TIP3    H222914   4.987   2.702   0.702  0.6657  1.1880  0.6224
  427TIP3   OH222915   2.203   2.874   0.037  0.5751 -0.2267 -0.5371
  427TIP3    H122916   2.262   2.803   0.010  1.1109  0.4386 -1.1693
  427TIP3    H222917   2.117   2.834   0.041  0.7406 -0.7275 -1.7035
  428TIP3   OH222918   3.691   2.212   0.431 -0.1091  0.3160  0.3695
  428TIP3    H122919   3.649   2.213   0.517 -0.9948 -0.3183 -0.0402
  428TIP3    H222920   3.694   2.119   0.407  0.8490  0.4128  0.0480
  429TIP3   OH222921   1.369   0.124   1.896  0.2184 -0.2046 -0.8552
  429TIP3    H122922   1.390   0.087   1.810  0.9399 -0.9257 -0.3852
  429TIP3    H222923   1.364   0.048   1.954 -0.5215  0.2497 -0.3018
  430TIP3   OH222924   1.962   3.383   2.031  0.0359 -0.7853 -0.1135
  430TIP3    H122925   1.906   3.354   1.959  0.3084 -0.1831 -0.5765
  430TIP3    H222926   1.970   3.307   2.088 -0.2667 -1.2362 -0.6705
  431TIP3   OH222927   6.925   3.065   2.526 -0.2006 -0.2276  0.6634
  431TIP3    H122928   6.988   3.137   2.537 -0.4837  0.0090  0.7303
  431TIP3    H222929   6.845   3.108   2.495 -0.1200 -0.6050 -0.0962
  432TIP3   OH222930   5.810   5.040   1.035 -0.0097 -0.2061 -0.2786
  432TIP3    H122931   5.747   4.989   0.984  1.2368 -1.8699 -0.2143
  432TIP3    H222932   5.799   5.130   1.003 -0.8685 -0.8184 -1.8175
  433TIP3   OH222933   4.273   3.913   2.730  0.0358  0.2145 -0.1709
  433TIP3    H122934   4.282   3.821   2.756  0.6379  0.2511 -0.2355
  433TIP3    H222935   4.362   3.948   2.738  0.4586  0.0348 -3.0575
  434TIP3   OH222936   0.068   1.081   0.652 -0.0468 -0.0024 -0.2937
  434TIP3    H122937   0.102   0.992   0.663 -0.0521 -0.1876 -1.6673
  434TIP3    H222938   0.099   1.128   0.729 -2.1880 -1.8173  1.8702
  435TIP3   OH222939   3.931   5.852   7.026 -0.3870 -0.3794 -0.4902
  435TIP3    H122940   3.924   5.910   7.102  0.6044 -0.7848 -0.0592
  435TIP3    H222941   3.854   5.871   6.973 -0.2173  1.1436 -0.2322
  436TIP3   OH222942   6.777   2.291   0.943  0.5126 -0.8590  0.6013
  436TIP3    H122943   6.762   2.258   0.854  0.8291 -1.2002  0.6731
  436TIP3    H222944   6.865   2.330   0.939  0.2883 -0.3526  0.6120
  437TIP3   OH222945   0.452   6.970   1.287 -0.0152  0.2590 -0.7870
  437TIP3    H122946   0.370   6.939   1.248  0.3080 -0.8801 -0.5877
  437TIP3    H222947   0.484   6.896   1.338  0.5154  1.1051  0.1487
  438TIP3   OH222948   6.392   2.321   0.419 -0.0693  0.3878  0.2184
  438TIP3    H122949   6.463   2.267   0.386 -0.5350 -0.2922  0.3196
  438TIP3    H222950   6.392   2.305   0.514  0.8796  1.8725  0.5136
  439TIP3   OH222951   0.704   0.283   1.495 -0.0642 -0.9159 -0.0873
  439TIP3    H122952   0.714   0.372   1.528  0.4229 -1.4922  1.4142
  439TIP3    H222953   0.611   0.262   1.509 -0.3334 -0.4433 -1.0511
  440TIP3   OH222954   5.879   1.986   7.429 -1.2318 -0.2160  0.2802
  440TIP3    H122955   5.966   2.019   7.451 -1.1231 -0.9577  1.0166
  440TIP3    H222956   5.836   1.971   7.514 -2.1051  0.1948 -0.0705
  441TIP3   OH222957   0.367   6.850   6.742  0.4495 -0.1768  0.2869
  441TIP3    H122958   0.294   6.844   6.804  0.4638  2.0758  0.6193
  441TIP3    H222959   0.329   6.890   6.664  1.0671 -0.1339  0.0034
  442TIP3   OH222960   4.254   4.620   0.335  0.1339 -0.2201 -0.5056
  442TIP3    H122961   4.180   4.569   0.301 -0.1139 -0.3786  0.2436
  442TIP3    H222962   4.236   4.628   0.429 -0.3203  2.0532 -0.7330
  443TIP3   OH222963   3.536   3.193   0.981 -0.1352 -0.0796  0.1707
  443TIP3    H122964   3.469   3.259   1.002 -0.0844 -0.0291  0.1727
  443TIP3    H222965   3.555   3.207   0.888 -0.1383 -0.1037  0.1664
  444TIP3   OH222966   4.729   2.815   0.923 -0.0905  0.0543 -0.1837
  444TIP3    H122967   4.744   2.808   0.829  0.1551  0.8717 -0.2158
  444TIP3    H222968   4.681   2.898   0.933 -0.6297 -0.3133  0.3541
  445TIP3   OH222969   2.128   1.251   0.199  0.4052  0.1627 -0.4894
  445TIP3    H122970   2.177   1.201   0.134 -0.9028 -0.7255 -0.8204
  445TIP3    H222971   2.166   1.339   0.195  1.6837 -0.3856 -1.0068
  446TIP3   OH222972   0.821   4.328   2.354  0.1143  0.1266  0.0268
  446TIP3    H122973   0.740   4.338   2.405 -0.2146  0.4255 -0.5464
  446TIP3    H222974   0.791   4.304   2.267  0.7508 -2.8786  0.5417
  447TIP3   OH222975   3.584   0.944   1.094 -0.4126 -0.0231 -0.0883
  447TIP3    H122976   3.507   0.965   1.146  0.7471  1.4615  1.1319
  447TIP3    H222977   3.658   0.967   1.150  0.9677 -1.9203 -0.9965
  448TIP3   OH222978   2.039   0.510   2.172  0.0921  0.3634 -0.0757
  448TIP3    H122979   1.951   0.520   2.208  0.6573  1.7765  1.0147
  448TIP3    H222980   2.095   0.563   2.229  1.8374 -1.2819 -0.1417
  449TIP3   OH222981   6.607   4.863   0.900  0.3116  0.7659 -1.1128
  449TIP3    H122982   6.606   4.821   0.986 -3.0389  0.1447 -1.3104
  449TIP3    H222983   6.604   4.957   0.920  1.5979  0.7229 -0.6156
  450TIP3   OH222984   3.191   4.108   2.274 -1.2520 -0.3145 -0.1560
  450TIP3    H122985   3.243   4.108   2.355  0.5639 -0.2044 -1.2590
  450TIP3    H222986   3.211   4.024   2.233 -2.1005 -0.3338 -0.5343
  451TIP3   OH222987   4.675   3.291   2.016  0.2358 -0.2586 -0.3562
  451TIP3    H122988   4.663   3.385   1.999  0.5481 -0.1060  0.2066
  451TIP3    H222989   4.638   3.279   2.104 -1.2000 -0.9780 -1.0374
  452TIP3   OH222990   0.191   3.269   7.899  0.1658  0.6048 -0.2693
  452TIP3    H122991   0.236   3.354   7.901  1.5896 -0.1360  0.4871
  452TIP3    H222992   0.203   3.237   7.810 -3.9477  2.9437 -1.9581
  453TIP3   OH222993   1.594   5.475   1.369 -0.6897  0.0233  0.9714
  453TIP3    H122994   1.544   5.412   1.421  0.1959 -1.2300  0.3418
  453TIP3    H222995   1.686   5.455   1.388 -0.3809  0.4037 -0.0788
  454TIP3   OH222996   6.948   1.336   0.565  0.2756  0.0037 -0.2154
  454TIP3    H122997   7.018   1.298   0.512  1.2035  1.0187  0.2472
  454TIP3    H222998   6.921   1.266   0.624  1.7517 -0.0549  0.4273
  455TIP3   OH222999   2.024   2.731   1.647  0.0010  0.2987 -0.1139
  455TIP3    H123000   2.101   2.707   1.697 -0.1068 -2.4504 -1.0940
  455TIP3    H223001   2.024   2.671   1.572 -2.3109  1.1768 -0.9128
  456TIP3   OH223002   6.000   3.374   7.165  0.6234  0.1752  0.5563
  456TIP3    H123003   6.028   3.328   7.086 -0.9430  0.9222 -0.5083
  456TIP3    H223004   6.060   3.448   7.173  0.2880  0.5831 -0.4746
  457TIP3   OH223005   0.093   4.963   7.925 -0.6017 -0.0857  0.3454
  457TIP3    H123006   0.001   4.986   7.910 -0.1154  1.3231 -0.7442
  457TIP3    H223007   0.120   5.021   7.996 -1.1592 -2.2329  2.4401
  458TIP3   OH223008   6.571   4.565   2.437  0.1680 -0.1840  0.1753
  458TIP3    H123009   6.633   4.493   2.423  1.0728  0.7031 -0.6071
  458TIP3    H223010   6.624   4.635   2.476 -0.5225  0.3090  0.2466
  459TIP3   OH223011   0.561   2.632   7.832 -0.2689  0.3121 -0.0485
  459TIP3    H123012   0.602   2.715   7.856  0.2766 -0.2628  1.0850
  459TIP3    H223013   0.537   2.643   7.740 -1.6860  2.3187  0.4888
  460TIP3   OH223014   6.725   6.723   1.390 -0.3782 -0.1175 -0.3565
  460TIP3    H123015   6.721   6.817   1.370 -0.9412 -0.3850 -1.5752
  460TIP3    H223016   6.770   6.719   1.474 -0.2682  1.2437 -0.3220
  461TIP3   OH223017   3.074   2.056   1.147 -0.7750 -0.5905  0.1265
  461TIP3    H123018   3.113   2.143   1.141 -1.5093 -0.3269 -1.3070
  461TIP3    H223019   3.064   2.040   1.241  1.7607 -0.2476  0.5316
  462TIP3   OH223020   6.556   4.174   0.487 -0.0810 -0.4732  0.2776
  462TIP3    H123021   6.545   4.085   0.520 -1.1694 -0.3611  0.2408
  462TIP3    H223022   6.506   4.177   0.406 -0.3016  0.2579  0.4289
  463TIP3   OH223023   6.725   1.010   0.454 -0.0581  0.4354 -0.1205
  463TIP3    H123024   6.697   1.102   0.453  0.6670  0.6575 -0.0083
  463TIP3    H223025   6.645   0.962   0.475  0.0872  1.2430  2.6730
  464TIP3   OH223026   2.325   6.687   0.790  0.5998  0.3372 -0.2166
  464TIP3    H123027   2.242   6.644   0.769  0.5166  1.1181 -1.5720
  464TIP3    H223028   2.377   6.680   0.710  1.8015 -0.0102  0.5703
  465TIP3   OH223029   4.766   5.275   8.111  0.0050  0.6584  0.3320
  465TIP3    H123030   4.710   5.326   8.052  1.7795  2.9187  0.4547
  465TIP3    H223031   4.809   5.341   8.165  2.8167 -0.9057  0.1923
  466TIP3   OH223032   3.185   6.104   1.409 -0.0172 -0.5394 -0.1300
  466TIP3    H123033   3.107   6.084   1.358 -0.2956 -3.5254  1.2378
  466TIP3    H223034   3.256   6.103   1.345 -0.5733 -2.4311 -0.7690
  467TIP3   OH223035   2.057   1.353   6.300 -0.3642  0.6794 -0.6592
  467TIP3    H123036   2.113   1.426   6.324  0.7622  0.3122 -2.0216
  467TIP3    H223037   2.086   1.281   6.357 -0.1593  0.7833 -0.6304
  468TIP3   OH223038   2.286   4.595   7.799  0.7211 -0.4215 -0.0929
  468TIP3    H123039   2.237   4.671   7.830 -1.8315 -1.8904 -0.2886
  468TIP3    H223040   2.333   4.563   7.876  0.1285  0.1308  0.5054
  469TIP3   OH223041   5.690   2.107   8.107 -0.0250  0.5358 -0.1085
  469TIP3    H123042   5.691   2.139   8.197  0.8617  1.6997 -0.5171
  469TIP3    H223043   5.614   2.048   8.104 -0.1519  0.5845  1.3514
  470TIP3   OH223044   4.075   0.701   1.051 -0.5007  0.5952 -0.2641
  470TIP3    H123045   3.986   0.736   1.047 -0.2897  1.0944 -0.7247
  470TIP3    H223046   4.065   0.614   1.090 -1.3178  0.2286 -1.2388
  471TIP3   OH223047   2.486   1.819   7.116  0.4691  0.2618  0.0657
  471TIP3    H123048   2.392   1.833   7.129  0.6756  1.0731  0.8611
  471TIP3    H223049   2.495   1.800   7.023 -0.7346 -2.2747  0.3797
  472TIP3   OH223050   4.571   3.177   1.402 -0.3129  0.0995 -0.2085
  472TIP3    H123051   4.510   3.249   1.420 -2.0612 -0.9519 -1.6606
  472TIP3    H223052   4.521   3.098   1.421  1.6805 -0.8115  1.6842
  473TIP3   OH223053   3.667   2.233   7.177  0.0904 -0.2543  0.2189
  473TIP3    H123054   3.667   2.144   7.143 -0.9146  0.4512 -1.7952
  473TIP3    H223055   3.661   2.289   7.100 -1.2737  1.4999  1.4908
  474TIP3   OH223056   3.218   4.530   0.495 -0.2474  0.2000  0.0303
  474TIP3    H123057   3.271   4.450   0.498  0.8375  0.8952 -0.1790
  474TIP3    H223058   3.159   4.516   0.421  0.6309  0.0095 -0.6468
  475TIP3   OH223059   6.677   2.820   1.811 -0.1717 -0.1484 -0.7033
  475TIP3    H123060   6.718   2.765   1.745  0.6985 -2.6558  1.7011
  475TIP3    H223061   6.700   2.778   1.894 -2.5027  1.8863  1.1261
  476TIP3   OH223062   4.988   6.351   0.346  0.1549  1.0578  0.2899
  476TIP3    H123063   5.075   6.329   0.313  0.0568  0.7734  0.2219
  476TIP3    H223064   4.932   6.281   0.313 -0.1867  1.5010 -0.0702
  477TIP3   OH223065   3.931   4.805   0.034  0.6355  0.6039 -0.1030
  477TIP3    H123066   4.019   4.789  -0.000  0.7365 -0.3209  0.5387
  477TIP3    H223067   3.875   4.806  -0.044  1.4703  3.7035 -0.7966
  478TIP3   OH223068   6.229   1.693   8.079  0.1459  0.7387 -0.0273
  478TIP3    H123069   6.217   1.758   8.010 -2.6548  3.0035  2.3311
  478TIP3    H223070   6.268   1.742   8.152  1.3914 -1.1482  0.6472
  479TIP3   OH223071   6.564   4.573   6.850 -0.2166  0.4190 -0.5826
  479TIP3    H123072   6.581   4.553   6.758 -1.5280  1.0700 -0.9778
  479TIP3    H223073   6.498   4.642   6.848  1.9884  2.7447  0.7847
  480TIP3   OH223074   5.242   5.840   8.145  0.2634  0.0023  0.1861
  480TIP3    H123075   5.271   5.907   8.207  0.6594  0.8860 -0.9219
  480TIP3    H223076   5.320   5.818   8.094 -0.6298  1.4927 -1.9864
  481TIP3   OH223077   0.519   4.974   7.377 -0.5035  0.8318  0.4175
  481TIP3    H123078   0.448   4.926   7.333 -0.9586  1.6646  0.2342
  481TIP3    H223079   0.497   5.066   7.364  0.5097  1.0953  0.5377
  482TIP3   OH223080   3.521   3.262   1.463 -0.1430 -0.4317  0.4494
  482TIP3    H123081   3.452   3.215   1.510  0.6421 -3.6321 -1.3453
  482TIP3    H223082   3.584   3.286   1.531 -1.2620 -0.6776  1.6155
  483TIP3   OH223083   0.753   4.346   2.081 -0.9276  0.3088  0.3049
  483TIP3    H123084   0.684   4.289   2.047 -0.5715 -0.2283  0.4757
  483TIP3    H223085   0.763   4.414   2.014 -1.6524  0.4163  0.2996
  484TIP3   OH223086   3.059   0.747   7.609 -0.5481  0.1119 -0.4239
  484TIP3    H123087   3.153   0.744   7.626 -0.2861 -0.6640 -1.8388
  484TIP3    H223088   3.018   0.739   7.695  0.6592  2.3585  0.4278
  485TIP3   OH223089   5.165   6.459   8.021 -0.9227  0.0406 -0.3745
  485TIP3    H123090   5.207   6.377   7.995 -2.7946 -0.7799 -0.9474
  485TIP3    H223091   5.155   6.451   8.116 -0.3048  0.0162 -0.3041
  486TIP3   OH223092   6.133   6.977   7.506 -0.2141  0.1471  0.1173
  486TIP3    H123093   6.185   7.032   7.564 -1.0943  1.2668 -0.1231
  486TIP3    H223094   6.055   7.029   7.487 -1.1265 -1.2233 -0.0461
  487TIP3   OH223095   2.774   4.533   1.215 -0.4280 -0.0377 -0.2171
  487TIP3    H123096   2.863   4.507   1.194 -0.4525 -0.2377 -0.0775
  487TIP3    H223097   2.770   4.626   1.194 -0.0799  0.0572  0.1306
  488TIP3   OH223098   2.302   2.393   0.246  0.0410 -0.0663  0.3837
  488TIP3    H123099   2.254   2.368   0.168 -1.1832 -0.9058  1.3595
  488TIP3    H223100   2.310   2.488   0.240 -1.4829  0.0619  0.0233
  489TIP3   OH223101   5.222   3.194   0.858  0.0360 -0.4273  0.1727
  489TIP3    H123102   5.176   3.127   0.909  0.9280  0.1679  1.8396
  489TIP3    H223103   5.183   3.189   0.771 -1.0363 -1.9996  0.6971
  490TIP3   OH223104   4.649   6.756   7.786 -0.0458  0.3302 -0.0856
  490TIP3    H123105   4.739   6.728   7.806 -0.3944 -1.6098 -0.9760
  490TIP3    H223106   4.645   6.846   7.816  1.8144  0.0553  1.1742
  491TIP3   OH223107   1.431   1.330   6.832 -0.2888 -0.4518 -0.4513
  491TIP3    H123108   1.377   1.365   6.903  0.8207 -0.5577  0.4790
  491TIP3    H223109   1.500   1.395   6.819 -1.3645  0.3465 -2.5726
  492TIP3   OH223110   2.515   3.651   6.895 -0.5191 -0.0210 -0.4309
  492TIP3    H123111   2.528   3.683   6.984 -2.0188  0.4220 -0.3565
  492TIP3    H223112   2.480   3.726   6.847 -1.8709 -0.8758 -0.8279
  493TIP3   OH223113   3.246   3.059   7.146 -0.5124  0.3711  0.2047
  493TIP3    H123114   3.278   2.974   7.176  1.8277  1.4992  1.1685
  493TIP3    H223115   3.276   3.065   7.055 -0.3793  0.3008  0.2436
  494TIP3   OH223116   1.377   6.902   7.252  0.3674 -0.6052 -0.6341
  494TIP3    H123117   1.409   6.962   7.318  0.0305 -0.1919 -0.8384
  494TIP3    H223118   1.438   6.911   7.179  0.9892 -1.3822 -0.2228
  495TIP3   OH223119   2.819   6.271   0.585 -0.8698  0.3863  0.3952
  495TIP3    H123120   2.773   6.352   0.562  0.2932  1.5864  2.1152
  495TIP3    H223121   2.872   6.294   0.661 -0.2161 -1.9134  0.6958
  496TIP3   OH223122   7.050   0.482   6.140  0.1119  0.1664  0.1038
  496TIP3    H123123   6.959   0.494   6.167  0.1788  0.1780  0.3253
  496TIP3    H223124   7.101   0.535   6.201  0.1351  1.6728 -1.1543
  497TIP3   OH223125   5.388   6.080   1.647 -0.0309  0.3255 -0.4947
  497TIP3    H123126   5.386   6.088   1.551 -1.3403  0.1663 -0.5093
  497TIP3    H223127   5.299   6.105   1.674  0.0512 -0.5177  0.6003
  498TIP3   OH223128   5.753   6.197   1.463  0.6055 -0.1911  0.0087
  498TIP3    H123129   5.757   6.283   1.505 -2.3567 -0.6128  1.3973
  498TIP3    H223130   5.786   6.136   1.529  1.0214 -0.3329 -0.3207
  499TIP3   OH223131   1.846   7.004   6.740 -0.1458  0.6025 -0.2298
  499TIP3    H123132   1.794   6.924   6.744 -0.1620  0.6585  1.6017
  499TIP3    H223133   1.935   6.975   6.759  0.6284  0.4728 -3.5501
  500TIP3   OH223134   6.675   1.961   0.735  0.0126  0.2795 -0.0240
  500TIP3    H123135   6.765   1.975   0.766  1.0404  0.0691 -2.7101
  500TIP3    H223136   6.655   1.872   0.764  0.9550  0.0597  0.0075
  501TIP3   OH223137   5.542   2.226   0.989 -0.2639 -0.3685 -0.3385
  501TIP3    H123138   5.468   2.209   1.047  0.7411 -2.2198  0.4721
  501TIP3    H223139   5.618   2.191   1.035  1.1987  1.6639 -1.0485
  502TIP3   OH223140   6.036   5.127   1.794 -0.4457 -0.6801  0.0617
  502TIP3    H123141   6.131   5.125   1.779 -0.0692  2.1044  1.2943
  502TIP3    H223142   6.027   5.147   1.887 -2.0913  1.8989 -0.5282
  503TIP3   OH223143   3.033   5.748   7.175  0.0566 -0.0745  0.1135
  503TIP3    H123144   2.970   5.678   7.189  1.3154 -0.9918  1.5087
  503TIP3    H223145   3.040   5.755   7.080 -1.4687 -0.5543 -0.0525
  504TIP3   OH223146   2.121   6.362   0.807 -0.3665 -0.6131  0.3685
  504TIP3    H123147   2.111   6.432   0.743 -1.6152 -0.4715  0.6781
  504TIP3    H223148   2.186   6.303   0.770 -0.1061  0.1444 -0.4031
  505TIP3   OH223149   3.542   1.776   7.038  0.1450  0.0876 -0.1408
  505TIP3    H123150   3.496   1.720   7.101 -1.0105  2.4462  1.2352
  505TIP3    H223151   3.485   1.778   6.962 -2.4266  3.2011  1.6446
  506TIP3   OH223152   4.547   5.344   7.969 -0.3932 -0.6032  0.0624
  506TIP3    H123153   4.577   5.401   7.897  0.4483 -0.7017  0.3213
  506TIP3    H223154   4.482   5.397   8.016 -1.5054 -0.8029 -1.1824
  507TIP3   OH223155   5.193   3.656   2.418  0.1957 -0.1471  0.2386
  507TIP3    H123156   5.169   3.677   2.508 -0.8081 -1.3634  0.2803
  507TIP3    H223157   5.221   3.565   2.421 -0.7350 -0.4797 -0.8343
  508TIP3   OH223158   0.585   2.984   2.017  0.6172 -0.3774 -0.4305
  508TIP3    H123159   0.526   2.910   2.029 -0.0772 -0.0098 -1.3776
  508TIP3    H223160   0.667   2.945   1.988  0.5799 -0.8430  0.0910
  509TIP3   OH223161   1.270   4.713   7.688  0.1793  0.6098  0.4314
  509TIP3    H123162   1.297   4.805   7.682 -3.1615  1.7597  0.9163
  509TIP3    H223163   1.231   4.694   7.603  0.3130 -0.1686  0.5423
  510TIP3   OH223164   1.121   5.463   6.980 -0.1163 -0.0921 -0.5513
  510TIP3    H123165   1.111   5.405   6.905 -0.0331 -0.0318 -0.6085
  510TIP3    H223166   1.071   5.542   6.956 -1.5089 -0.7207  0.1394
  511TIP3   OH223167   1.869   4.998   1.966  0.1048 -0.6269 -0.3203
  511TIP3    H123168   1.829   4.972   1.882 -0.1737 -1.0968 -0.0479
  511TIP3    H223169   1.823   5.078   1.990 -0.8370 -1.2657  0.0854
  512TIP3   OH223170   2.901   5.618   6.855 -0.3812 -0.3358  0.0724
  512TIP3    H123171   2.977   5.667   6.824  0.4925 -0.0204  2.4914
  512TIP3    H223172   2.925   5.526   6.841  0.1530 -0.2185  0.2040
  513TIP3   OH223173   0.014   4.854   1.727 -0.2050  0.5662 -0.2021
  513TIP3    H123174   0.010   4.917   1.798 -1.3399  1.0026 -0.6328
  513TIP3    H223175   0.062   4.779   1.763 -0.0143  1.1300  0.7270
  514TIP3   OH223176   0.525   6.330   1.531 -0.0055 -0.1890  0.1532
  514TIP3    H123177   0.486   6.287   1.607 -0.7135  0.0147 -0.0859
  514TIP3    H223178   0.451   6.373   1.487  1.0343  4.1253  2.1360
  515TIP3   OH223179   2.054   6.994   6.908 -1.0388  0.2449 -0.0378
  515TIP3    H123180   2.134   7.004   6.857 -0.8363 -0.2711  0.1642
  515TIP3    H223181   2.051   6.900   6.929 -0.9239  0.4941  1.1947
  516TIP3   OH223182   6.368   1.850   2.403  0.0817  0.3285 -0.4816
  516TIP3    H123183   6.460   1.852   2.430  0.1655  1.2707 -0.7980
  516TIP3    H223184   6.360   1.769   2.352  0.8415  0.4485 -0.8045
  517TIP3   OH223185   6.286   5.609   1.155 -0.4288  0.3833 -0.0589
  517TIP3    H123186   6.277   5.682   1.216 -1.5112  1.0981 -1.0327
  517TIP3    H223187   6.379   5.609   1.130  0.2013 -0.3856  2.0928
  518TIP3   OH223188   6.527   5.095   7.027 -0.0040  0.0517  0.3029
  518TIP3    H123189   6.589   5.040   6.980 -0.2187  1.2650 -1.5165
  518TIP3    H223190   6.447   5.091   6.974 -0.4400  1.0195  0.8674
  519TIP3   OH223191   6.807   0.640   0.674  0.0093  0.1201 -0.4863
  519TIP3    H123192   6.841   0.558   0.710 -1.5568 -0.1021  0.6032
  519TIP3    H223193   6.766   0.613   0.591 -0.4947 -0.2203 -0.1367
  520TIP3   OH223194   6.219   4.336   7.464  0.2109 -0.1614  0.5153
  520TIP3    H123195   6.219   4.267   7.530 -0.7374  1.4946  2.3460
  520TIP3    H223196   6.310   4.367   7.462  0.0794  0.3525  1.7219
  521TIP3   OH223197   6.790   4.723   2.535 -0.5639 -0.7452 -0.1871
  521TIP3    H123198   6.732   4.796   2.557  0.0553 -0.4085  0.3876
  521TIP3    H223199   6.875   4.749   2.570  0.0067 -1.1045 -1.2629
  522TIP3   OH223200   0.880   4.576   2.222 -0.2654 -0.3800  0.0051
  522TIP3    H123201   0.860   4.488   2.252  1.5124 -0.0337  2.4731
  522TIP3    H223202   0.849   4.578   2.132 -1.0360 -3.2652  0.1138
  523TIP3   OH223203   4.594   6.179   1.198 -0.1670  0.0380  0.4591
  523TIP3    H123204   4.649   6.241   1.246  1.2995 -1.1898  0.4351
  523TIP3    H223205   4.656   6.117   1.159 -1.3910  0.1392 -1.8328
  524TIP3   OH223206   0.351   6.964   7.743  0.0034  0.4300 -0.1282
  524TIP3    H123207   0.395   6.960   7.828 -0.7228  0.3239  0.2484
  524TIP3    H223208   0.358   6.875   7.709 -3.9422 -0.9426  2.0244
  525TIP3   OH223209   5.421   6.925   6.530  0.1231 -0.2013  0.7214
  525TIP3    H123210   5.329   6.941   6.550 -0.2848 -1.1347 -0.3192
  525TIP3    H223211   5.449   7.000   6.479 -0.3442 -0.3917  0.1849
  526TIP3   OH223212   4.863   0.259   6.664  0.4070  0.7262 -0.1235
  526TIP3    H123213   4.849   0.217   6.748  2.7062  1.3475  0.6479
  526TIP3    H223214   4.782   0.244   6.615 -0.4873 -0.7480  1.7096
  527TIP3   OH223215   0.007   3.060   0.629 -0.4284  0.0307  0.1161
  527TIP3    H123216  -0.032   3.064   0.542  2.2067  0.2895 -1.1672
  527TIP3    H223217   0.031   3.150   0.649  0.8845 -0.2869  0.1039
  528TIP3   OH223218   5.920   3.286   8.164  0.0806  0.3234  0.2648
  528TIP3    H123219   5.861   3.228   8.212 -1.7394  0.9205 -1.1348
  528TIP3    H223220   5.917   3.254   8.074  1.5270  0.7111  0.0501
  529TIP3   OH223221   3.306   6.251   1.845 -0.2047 -0.2204 -0.2858
  529TIP3    H123222   3.337   6.219   1.930  2.3177  0.4136 -0.8766
  529TIP3    H223223   3.282   6.342   1.861  1.3894  0.2511 -0.4481
  530TIP3   OH223224   6.131   3.440   0.929  0.0615 -0.0220  0.0828
  530TIP3    H123225   6.036   3.426   0.929  0.4139 -3.6693  2.9004
  530TIP3    H223226   6.166   3.366   0.880  1.5154  0.3926  0.4663
  531TIP3   OH223227   2.643   5.798   2.284 -0.2414 -0.1573 -0.0670
  531TIP3    H123228   2.573   5.862   2.290 -0.8733 -0.8269 -0.1357
  531TIP3    H223229   2.614   5.737   2.216  0.5497 -0.2712 -0.3128
  532TIP3   OH223230   5.931   6.375   0.052 -0.0849 -0.1541 -0.3827
  532TIP3    H123231   5.961   6.379  -0.039  1.7772 -0.5985  0.1582
  532TIP3    H223232   5.974   6.450   0.094  1.0939 -1.3375  0.6308
  533TIP3   OH223233   5.053   6.578   0.188  0.0001  0.0596  0.0289
  533TIP3    H123234   5.082   6.511   0.250  0.3399  1.5437  1.5588
  533TIP3    H223235   5.015   6.647   0.243  0.1753  1.3753 -1.4171
  534TIP3   OH223236   2.246   6.328   7.814 -0.0312 -0.1565  0.7457
  534TIP3    H123237   2.290   6.408   7.786  0.0380 -0.8828 -1.4410
  534TIP3    H223238   2.301   6.292   7.883  1.3321  0.3608 -0.0428
  535TIP3   OH223239   3.333   5.125   1.819 -0.3419  0.1642 -0.0478
  535TIP3    H123240   3.324   5.067   1.743 -1.0873 -0.5932  0.5967
  535TIP3    H223241   3.314   5.212   1.785  0.0955 -0.0614 -0.8922
  536TIP3   OH223242   0.114   0.896   7.902  0.8177  0.0044 -0.1685
  536TIP3    H123243   0.181   0.832   7.924  0.3064 -0.5924 -0.3188
  536TIP3    H223244   0.058   0.899   7.979  0.2196 -0.5412 -0.5746
  537TIP3   OH223245   2.377   2.957   2.584  0.1573  0.1332 -0.5734
  537TIP3    H123246   2.436   2.900   2.633 -0.5733 -0.4944 -0.4142
  537TIP3    H223247   2.295   2.954   2.632  0.0237  1.1215 -0.7084
  538TIP3   OH223248   6.251   1.870   7.669 -0.2997  0.3310  0.4695
  538TIP3    H123249   6.282   1.900   7.755  0.3792  0.7022  0.1063
  538TIP3    H223250   6.187   1.802   7.689 -0.7495  0.9780  1.2893
  539TIP3   OH223251   6.357   4.818   1.440  0.2627  0.3507 -0.0338
  539TIP3    H123252   6.284   4.846   1.385 -0.3899  2.5877  1.8202
  539TIP3    H223253   6.316   4.782   1.519  1.1875 -0.9642 -0.1090
  540TIP3   OH223254   2.828   3.164   1.141  0.0932 -0.3513  0.6723
  540TIP3    H123255   2.767   3.111   1.192 -1.5175 -0.3978 -1.1650
  540TIP3    H223256   2.776   3.240   1.113  1.1539  0.0987 -0.1552
  541TIP3   OH223257   2.742   1.662   7.209  0.1006  0.0772  0.0692
  541TIP3    H123258   2.654   1.633   7.185  0.0758  0.4702 -0.3283
  541TIP3    H223259   2.728   1.716   7.287 -0.0515  0.3978 -0.1764
  542TIP3   OH223260   1.715   5.419   7.162 -0.2079  0.5450 -0.0220
  542TIP3    H123261   1.797   5.387   7.200 -0.5877 -0.2730  0.1160
  542TIP3    H223262   1.673   5.342   7.125 -0.3403  1.1623 -1.2133
  543TIP3   OH223263   2.992   0.305   1.444  0.0410 -0.3321  0.0528
  543TIP3    H123264   2.956   0.332   1.359 -0.6559 -2.7028 -0.4989
  543TIP3    H223265   3.078   0.268   1.423 -0.8947 -2.6587  0.0051
  544TIP3   OH223266   0.527   3.306   1.204 -0.2624  0.4146  0.5406
  544TIP3    H123267   0.486   3.229   1.244 -0.2944  0.6747  1.0110
  544TIP3    H223268   0.593   3.270   1.145  0.0789  0.0314  1.1452
  545TIP3   OH223269   1.301   6.983   4.712  0.1576  0.1997 -0.6202
  545TIP3    H123270   1.208   6.966   4.730  0.7555 -0.9538  1.5923
  545TIP3    H223271   1.319   7.065   4.757  0.6152 -0.4605  0.4135
  546TIP3   OH223272   4.836   6.665   0.009 -0.0883 -0.2647 -0.1992
  546TIP3    H123273   4.916   6.695   0.053  1.0674 -1.1538 -1.5575
  546TIP3    H223274   4.783   6.627   0.079  0.0515  1.5413  0.9476
  547TIP3   OH223275   4.461   6.949   6.933 -0.5782 -0.6109 -0.1372
  547TIP3    H123276   4.545   6.977   6.969 -0.9316  1.1424 -0.6105
  547TIP3    H223277   4.484   6.874   6.876  0.8270  0.4354 -1.0233
  548TIP3   OH223278   2.792   6.909   1.764  0.2133 -0.4215  0.4466
  548TIP3    H123279   2.794   6.983   1.704  1.0703 -1.5724 -0.9917
  548TIP3    H223280   2.705   6.870   1.752 -0.0696  0.0663  0.8727
  549TIP3   OH223281   3.503   3.333   7.809  0.2326 -0.1153  0.1707
  549TIP3    H123282   3.519   3.292   7.724  0.0217  0.8960 -0.3787
  549TIP3    H223283   3.486   3.260   7.868  0.8443 -0.8690 -0.5479
  550TIP3   OH223284   6.960   1.378   2.530  0.3959 -0.6598 -0.1341
  550TIP3    H123285   7.036   1.325   2.504  0.4165 -0.9736  0.5543
  550TIP3    H223286   6.894   1.314   2.557 -0.2329 -0.3968 -1.0273
  551TIP3   OH223287   1.232   4.357   8.211  0.2216  0.4926  0.5229
  551TIP3    H123288   1.290   4.406   8.153  1.5043  0.7969  1.9919
  551TIP3    H223289   1.191   4.423   8.266 -2.1081  0.3442 -0.9210
  552TIP3   OH223290   1.053   1.882   7.720  0.6659 -0.7120 -0.2425
  552TIP3    H123291   1.095   1.964   7.746 -0.7206 -0.5405  1.6198
  552TIP3    H223292   1.107   1.813   7.758  0.0144 -0.5243  1.0887
  553TIP3   OH223293   1.536   6.436   2.007 -0.1415  0.2956  0.3116
  553TIP3    H123294   1.500   6.514   2.050 -0.5675  0.4553 -0.3324
  553TIP3    H223295   1.541   6.460   1.915  1.3901  0.1922  0.3371
  554TIP3   OH223296   4.740   0.657   6.802 -0.3081  0.0882  0.3476
  554TIP3    H123297   4.731   0.737   6.751 -0.6379 -0.0414  0.2035
  554TIP3    H223298   4.822   0.618   6.770 -0.0124  0.4946  0.6012
  555TIP3   OH223299   1.587   2.510   2.050  0.5269  0.5096  0.4807
  555TIP3    H123300   1.607   2.601   2.069  1.1382  0.6468 -0.7616
  555TIP3    H223301   1.535   2.512   1.970  2.0396 -0.3226 -0.5631
  556TIP3   OH223302   3.385   4.391   2.226 -0.2154  0.6513 -0.5979
  556TIP3    H123303   3.441   4.392   2.304 -0.6044 -0.1105 -0.3055
  556TIP3    H223304   3.414   4.468   2.176  0.6588  0.6345 -0.1483
  557TIP3   OH223305   5.251   0.435   8.216 -0.5017  0.1528 -0.2881
  557TIP3    H123306   5.313   0.400   8.281 -0.7510 -0.4940 -0.3860
  557TIP3    H223307   5.165   0.424   8.257 -0.6108  0.3393 -0.4648
  558TIP3   OH223308   3.731   1.190   0.088  0.3194  0.2566 -0.1469
  558TIP3    H123309   3.740   1.279   0.122  0.8759  0.0860  0.1699
  558TIP3    H223310   3.731   1.200  -0.007 -1.2412  0.7430 -0.1366
  559TIP3   OH223311   5.460   0.948   6.462  0.1754  0.2563  0.7526
  559TIP3    H123312   5.477   1.034   6.502 -0.6280  0.6565  0.2399
  559TIP3    H223313   5.510   0.887   6.517 -0.4925  0.8565  2.0710
  560TIP3   OH223314   1.578   1.554   6.897  0.4983  0.3813  0.6579
  560TIP3    H123315   1.557   1.613   6.825  1.6853  0.3461  0.2571
  560TIP3    H223316   1.547   1.599   6.975  1.6290  1.7017  0.3876
  561TIP3   OH223317   4.949   3.562   2.342  0.2729  0.0954 -0.1906
  561TIP3    H123318   4.973   3.487   2.397 -1.0774 -0.3456 -0.1706
  561TIP3    H223319   5.028   3.616   2.340  1.5843 -1.7239 -0.8878
  562TIP3   OH223320   2.681   4.384   0.732  0.4217 -0.4812  0.8368
  562TIP3    H123321   2.668   4.289   0.730  0.4701 -0.4802 -1.4538
  562TIP3    H223322   2.768   4.396   0.693  1.2330  0.4430  2.7682
  563TIP3   OH223323   0.115   3.327   7.173 -0.4098  0.5371  0.2584
  563TIP3    H123324   0.117   3.288   7.085 -0.1430 -0.8076  0.8395
  563TIP3    H223325   0.167   3.267   7.227 -2.5943 -0.0104  1.8857
  564TIP3   OH223326   3.310   5.793   7.603 -0.4804  0.0211 -0.3883
  564TIP3    H123327   3.239   5.729   7.599 -0.1036 -0.5519  1.3037
  564TIP3    H223328   3.368   5.760   7.672 -0.1197  2.0166  0.3243
  565TIP3   OH223329   2.401   5.590   0.255 -0.3443  0.4213 -0.3981
  565TIP3    H123330   2.470   5.547   0.306 -0.6300 -0.0007 -0.3656
  565TIP3    H223331   2.368   5.659   0.313 -1.3764 -0.7162  0.4054
  566TIP3   OH223332   1.982   3.853   7.833  0.7125  0.0558  0.1650
  566TIP3    H123333   1.932   3.847   7.914  0.9475  1.5802  0.4676
  566TIP3    H223334   2.073   3.843   7.861  0.7817  0.4242  0.0762
  567TIP3   OH223335   4.780   0.134   1.074  0.0572  0.3804 -0.0490
  567TIP3    H123336   4.746   0.057   1.119 -0.0879  0.0693 -0.6850
  567TIP3    H223337   4.860   0.104   1.031 -0.1866  0.4920 -0.5875
  568TIP3   OH223338   5.139   5.462   1.275 -0.6043 -0.4387 -0.0788
  568TIP3    H123339   5.140   5.378   1.230 -0.3941 -1.4110  1.6475
  568TIP3    H223340   5.221   5.464   1.324 -1.8609 -0.5694  2.1694
  569TIP3   OH223341   2.646   3.350   6.938  0.2663 -0.7492 -0.0528
  569TIP3    H123342   2.574   3.308   6.985  0.6777 -1.8239 -0.3589
  569TIP3    H223343   2.611   3.436   6.913 -1.2648 -1.6224 -1.0700
  570TIP3   OH223344   0.946   3.713   2.985  0.2757 -0.3979  0.5913
  570TIP3    H123345   0.979   3.776   3.049  0.0720 -0.1899  0.4953
  570TIP3    H223346   0.994   3.633   3.003 -0.0145 -0.4363  1.2221
  571TIP3   OH223347   4.048   5.560   6.980 -0.3747  0.4346  0.0172
  571TIP3    H123348   4.086   5.591   6.898 -0.9971 -0.5014 -0.6415
  571TIP3    H223349   4.011   5.639   7.020  1.9900  1.3444  0.5846
  572TIP3   OH223350   4.609   1.072   0.666 -0.4129 -0.5733  0.0219
  572TIP3    H123351   4.592   1.012   0.739 -0.0375 -1.0034 -0.2395
  572TIP3    H223352   4.522   1.094   0.632 -0.5321 -1.3291 -0.1703
  573TIP3   OH223353   4.454   1.474   7.409  0.1907  0.1775 -0.5924
  573TIP3    H123354   4.502   1.402   7.449 -2.8172 -0.7557  1.7156
  573TIP3    H223355   4.374   1.434   7.375 -1.8077  2.3344  1.1727
  574TIP3   OH223356   5.085   5.531   0.610  0.2781 -0.2082  0.0893
  574TIP3    H123357   5.172   5.513   0.576  0.3269 -1.1865  0.6893
  574TIP3    H223358   5.034   5.560   0.534  0.7918 -0.8419 -0.5039
  575TIP3   OH223359   1.492   3.960   1.275  0.5247 -0.5054  0.9808
  575TIP3    H123360   1.537   4.044   1.273  1.2459 -0.8920  0.8144
  575TIP3    H223361   1.483   3.936   1.182 -0.5223 -0.1727  0.9837
  576TIP3   OH223362   4.431   4.175   7.056  0.2713 -0.4025 -0.0688
  576TIP3    H123363   4.447   4.239   6.987 -0.2928 -0.0804  0.0898
  576TIP3    H223364   4.391   4.100   7.011  0.8138 -0.5982 -0.2345
  577TIP3   OH223365   2.369   2.007   1.234  0.3377 -0.1725 -0.9535
  577TIP3    H123366   2.325   1.923   1.221  0.3046 -0.1114 -1.2298
  577TIP3    H223367   2.455   1.984   1.271 -0.6563 -0.2074  1.4991
  578TIP3   OH223368   5.455   0.674   7.228 -0.3021 -0.0590  0.3901
  578TIP3    H123369   5.511   0.728   7.173 -0.3544 -0.1998  0.1983
  578TIP3    H223370   5.391   0.635   7.167 -0.3402 -0.2390  0.5428
  579TIP3   OH223371   3.020   4.603   0.307  0.0908  1.0039 -0.1177
  579TIP3    H123372   2.988   4.542   0.240  1.1723 -0.6603  0.8160
  579TIP3    H223373   2.946   4.662   0.322 -0.5735  0.6927 -1.9255
  580TIP3   OH223374   6.626   3.198   0.391  0.7805  0.2213  0.3128
  580TIP3    H123375   6.565   3.182   0.319 -0.2793  0.7693  1.0698
  580TIP3    H223376   6.711   3.169   0.357 -0.0760 -1.6439 -0.3659
  581TIP3   OH223377   3.808   5.567   1.040 -0.4559 -0.3164 -0.0836
  581TIP3    H123378   3.792   5.642   1.097  0.3700 -0.6217  0.5839
  581TIP3    H223379   3.869   5.599   0.974  1.5400 -0.8620  1.3868
  582TIP3   OH223380   2.428   0.514   8.116  0.4199 -0.1328 -0.3019
  582TIP3    H123381   2.429   0.538   8.208  0.1514  0.0063 -0.3365
  582TIP3    H223382   2.520   0.512   8.090  0.4455  0.8081 -0.2934
  583TIP3   OH223383   5.606   0.998   3.040  0.7385 -0.3664 -0.0570
  583TIP3    H123384   5.544   1.071   3.040  0.2002 -0.7863 -1.2227
  583TIP3    H223385   5.550   0.920   3.038  1.2383 -0.9464  3.1815
  584TIP3   OH223386   2.224   6.801   1.410 -0.0440 -0.3849  0.2793
  584TIP3    H123387   2.158   6.809   1.341 -1.0471 -2.7741  0.8532
  584TIP3    H223388   2.180   6.833   1.489  0.4744  0.6405  0.1609
  585TIP3   OH223389   3.333   2.250   0.903 -0.2903 -0.6065  0.9125
  585TIP3    H123390   3.248   2.273   0.866  0.6911 -0.2899 -1.3383
  585TIP3    H223391   3.359   2.327   0.953 -1.0675 -0.4805  1.1269
  586TIP3   OH223392   6.009   6.743   7.568 -0.4725 -0.2720  0.6874
  586TIP3    H123393   6.065   6.820   7.576  0.3620 -1.0254  2.7726
  586TIP3    H223394   6.070   6.669   7.563 -1.1907 -0.8124 -3.0332
  587TIP3   OH223395   4.976   0.823   0.346  0.4789 -0.9716  0.6053
  587TIP3    H123396   4.935   0.791   0.426  1.4860 -0.9506  1.1421
  587TIP3    H223397   4.959   0.755   0.281  1.1549 -1.8073  1.2982
  588TIP3   OH223398   0.473   1.966   1.389 -0.1308 -0.0398 -0.2739
  588TIP3    H123399   0.562   2.001   1.384 -0.8330  1.6614 -1.9135
  588TIP3    H223400   0.418   2.043   1.404 -1.4678 -0.8670 -0.7868
  589TIP3   OH223401   0.817   3.550   6.966  0.6256 -0.2442 -0.4900
  589TIP3    H123402   0.745   3.487   6.964 -0.7617  1.2902 -0.5965
  589TIP3    H223403   0.780   3.630   6.929  1.4877  1.5001  2.1208
  590TIP3   OH223404   2.381   1.752   6.720 -0.9090  1.1872 -0.3000
  590TIP3    H123405   2.334   1.822   6.765 -0.3107  1.2262  0.2747
  590TIP3    H223406   2.461   1.741   6.770 -2.0715 -1.6017  1.1300
  591TIP3   OH223407   2.667   5.137   1.057  0.2729  0.4326  0.2640
  591TIP3    H123408   2.580   5.136   1.097 -0.3211 -0.5651 -1.0056
  591TIP3    H223409   2.654   5.181   0.973  1.4120  2.0722  0.8841
  592TIP3   OH223410   2.976   2.707   1.802  0.2000 -0.4205  0.5636
  592TIP3    H123411   3.023   2.746   1.728 -2.4849  0.9808 -0.5556
  592TIP3    H223412   2.954   2.619   1.773 -2.2100  0.6383 -1.0916
  593TIP3   OH223413   5.127   5.441   7.362 -0.2600  0.2104 -0.3614
  593TIP3    H123414   5.093   5.380   7.427  0.7152  1.0780  1.0123
  593TIP3    H223415   5.220   5.450   7.384 -0.2003  1.5352 -1.0536
  594TIP3   OH223416   3.611   3.527   1.797  0.1380  0.2182 -0.1854
  594TIP3    H123417   3.536   3.491   1.845 -1.2918 -0.5822 -2.8120
  594TIP3    H223418   3.633   3.460   1.732  0.9925  1.7989 -1.6275
  595TIP3   OH223419   1.949   4.751   1.270 -0.7223  0.0250 -0.1480
  595TIP3    H123420   1.908   4.812   1.331  1.6826  1.6165 -0.0128
  595TIP3    H223421   1.888   4.677   1.266 -3.0092  1.7426  0.8433
  596TIP3   OH223422   5.216   1.419   1.796  0.3210  0.1396  0.1167
  596TIP3    H123423   5.190   1.498   1.749  0.3603 -0.5431 -1.0653
  596TIP3    H223424   5.243   1.451   1.882 -0.4082  1.3206 -0.0763
  597TIP3   OH223425   6.113   5.806   1.900 -0.3242 -0.4971  0.2965
  597TIP3    H123426   6.194   5.763   1.873 -1.5003 -1.4983 -1.8748
  597TIP3    H223427   6.126   5.898   1.877  0.0439 -0.7337 -0.4815
  598TIP3   OH223428   6.111   1.156   8.072 -0.0747 -0.1758  0.1386
  598TIP3    H123429   6.098   1.161   7.978  3.0330  0.3414 -0.3597
  598TIP3    H223430   6.110   1.247   8.102 -0.0903 -0.2794  0.4636
  599TIP3   OH223431   2.906   2.542   7.551  0.1676  1.1853  0.2133
  599TIP3    H123432   2.814   2.550   7.528  0.2231  0.7200 -0.1908
  599TIP3    H223433   2.907   2.547   7.647 -0.5737 -1.3291  0.4237
  600TIP3   OH223434   3.851   5.823   0.409 -0.4392 -0.5641  0.4060
  600TIP3    H123435   3.900   5.753   0.366  0.0685 -0.5183  0.8923
  600TIP3    H223436   3.769   5.828   0.361 -0.6006 -1.6837  0.5245
  601TIP3   OH223437   0.749   4.265   1.544 -0.1455  0.1311  0.0506
  601TIP3    H123438   0.840   4.237   1.529 -0.7776 -2.7609  0.9127
  601TIP3    H223439   0.701   4.231   1.469 -0.4472  2.5162 -0.9164
  602TIP3   OH223440   1.079   1.277   6.838 -0.0935 -0.3414  0.2384
  602TIP3    H123441   1.106   1.323   6.917  0.2708 -1.2565  0.6698
  602TIP3    H223442   0.984   1.275   6.843 -0.1937  1.4405 -0.4346
  603TIP3   OH223443   6.176   0.578   0.025  0.0019 -0.1866  0.1718
  603TIP3    H123444   6.240   0.561  -0.044 -0.8117  0.6459 -0.8165
  603TIP3    H223445   6.108   0.512   0.011 -1.0445  1.0860 -0.9791
  604TIP3   OH223446   0.623   6.393   8.159 -0.7840 -0.2203 -0.5777
  604TIP3    H123447   0.547   6.447   8.183 -0.9476  0.4457 -2.4172
  604TIP3    H223448   0.611   6.375   8.066  1.9554  0.9537 -1.2370
  605TIP3   OH223449   3.324   1.847   8.207 -0.4368  0.7515 -0.8264
  605TIP3    H123450   3.356   1.757   8.214 -2.7530 -0.1383 -0.6748
  605TIP3    H223451   3.267   1.857   8.284 -0.3835  2.2655 -0.9708
  606TIP3   OH223452   2.624   4.394   1.798  0.3696  0.0732  0.8927
  606TIP3    H123453   2.592   4.466   1.853 -1.5739  0.5768 -0.7384
  606TIP3    H223454   2.551   4.333   1.794  0.9491 -0.5827 -0.0683
  607TIP3   OH223455   6.366   6.319   7.185  0.3286  0.2720 -0.3565
  607TIP3    H123456   6.380   6.329   7.091  2.4662  0.8582 -0.0421
  607TIP3    H223457   6.361   6.409   7.218 -0.4439  0.0719  0.0923
  608TIP3   OH223458   1.222   5.688   7.144 -0.0061 -0.2133  0.2471
  608TIP3    H123459   1.240   5.751   7.214 -0.4428 -0.9912  1.0647
  608TIP3    H223460   1.127   5.678   7.144 -0.3843  2.0415 -2.4557
  609TIP3   OH223461   1.613   5.958   1.021  0.0103 -0.3716  0.2586
  609TIP3    H123462   1.619   5.903   0.943  0.5846 -1.9800  1.3830
  609TIP3    H223463   1.560   5.907   1.082 -0.4844  0.8887  0.9106
  610TIP3   OH223464   0.192   4.378   0.859  0.6810 -0.4472 -0.5416
  610TIP3    H123465   0.244   4.301   0.881  0.3025 -0.3352  0.8346
  610TIP3    H223466   0.156   4.407   0.942  1.2323  1.5331 -0.9357
  611TIP3   OH223467   1.044   0.216   1.998  0.4111  0.1239  0.3474
  611TIP3    H123468   0.975   0.235   1.934  0.7562  0.1403 -0.0249
  611TIP3    H223469   1.074   0.128   1.976 -1.0614 -0.8393  1.9589
  612TIP3   OH223470   4.821   4.654   2.523  0.1690  0.2175 -0.1992
  612TIP3    H123471   4.738   4.693   2.551  0.6263  0.0342  1.5442
  612TIP3    H223472   4.818   4.565   2.559  1.0390  0.1481 -0.2894
  613TIP3   OH223473   3.893   2.964   1.245  0.3075 -0.5819  0.2616
  613TIP3    H123474   3.883   3.013   1.327  0.8606  0.4437 -0.2585
  613TIP3    H223475   3.807   2.968   1.205 -0.3357 -2.2353  1.3811
  614TIP3   OH223476   0.708   5.745   7.687  0.2508 -0.6169 -0.8909
  614TIP3    H123477   0.716   5.835   7.720 -0.4502 -1.1617  0.8946
  614TIP3    H223478   0.704   5.755   7.592 -0.3451  1.2849 -0.7176
  615TIP3   OH223479   5.348   3.139   2.267  0.3444 -0.2978  0.2298
  615TIP3    H123480   5.347   3.229   2.236 -2.6353 -0.2455  0.1432
  615TIP3    H223481   5.289   3.140   2.343 -1.5772 -2.5264 -1.1191
  616TIP3   OH223482   4.579   5.661   2.661  0.1197 -0.4635 -0.2643
  616TIP3    H123483   4.554   5.627   2.747 -1.1041 -0.2445 -0.5121
  616TIP3    H223484   4.579   5.584   2.604 -0.2978 -0.4214 -0.3242
  617TIP3   OH223485   1.732   0.743   2.380 -0.1479 -0.0262 -0.0812
  617TIP3    H123486   1.662   0.768   2.439 -0.9858 -1.3105 -0.4780
  617TIP3    H223487   1.696   0.670   2.330  1.1010 -0.0186 -1.0497
  618TIP3   OH223488   3.573   0.051   6.325 -0.2380  0.5605 -0.1563
  618TIP3    H123489   3.621   0.125   6.288  0.5783  0.2483  0.2587
  618TIP3    H223490   3.524   0.088   6.399 -1.2396  1.0239 -1.0221
  619TIP3   OH223491   5.274   1.151   0.369 -0.0854 -0.2346  0.6592
  619TIP3    H123492   5.325   1.083   0.413  1.0789  0.9281  1.1791
  619TIP3    H223493   5.222   1.191   0.438  2.5301  2.3081  1.3631
  620TIP3   OH223494   6.605   6.829   2.203 -0.1887  0.3580  0.2771
  620TIP3    H123495   6.587   6.897   2.268 -1.5719  0.3318 -0.0544
  620TIP3    H223496   6.560   6.751   2.237  1.9806 -0.6626  1.0439
  621TIP3   OH223497   5.799   2.680   7.855  0.4024  0.0864  0.1354
  621TIP3    H123498   5.774   2.767   7.823  0.1576  1.3081  3.3202
  621TIP3    H223499   5.893   2.688   7.872  0.0689  0.3598  2.0498
  622TIP3   OH223500   1.945   5.919   7.438 -0.3235 -0.5381  0.7825
  622TIP3    H123501   1.997   5.927   7.358 -0.6437 -1.5859  0.4523
  622TIP3    H223502   1.963   5.830   7.469 -1.2433 -0.6071  1.1403
  623TIP3   OH223503   1.850   3.527   1.668  0.5523  0.1124 -0.3460
  623TIP3    H123504   1.837   3.551   1.577 -0.3968  0.3252 -0.1622
  623TIP3    H223505   1.883   3.607   1.709 -0.5180  0.4744 -0.1840
  624TIP3   OH223506   5.890   4.017   2.456 -0.1989  0.2953  0.1872
  624TIP3    H123507   5.826   4.027   2.386  0.5203  1.6287 -0.3080
  624TIP3    H223508   5.907   3.923   2.460 -0.2675  0.1957 -1.4162
  625TIP3   OH223509   5.250   1.714   0.628 -0.3504  0.2738  0.1930
  625TIP3    H123510   5.220   1.665   0.705  2.1997  1.0513  1.8100
  625TIP3    H223511   5.274   1.646   0.565 -0.3912 -0.4492  0.9277
  626TIP3   OH223512   1.306   3.172   0.121 -0.8082  0.0107  0.1186
  626TIP3    H123513   1.256   3.132   0.193  0.3231 -1.3380  0.1986
  626TIP3    H223514   1.396   3.174   0.153 -0.2789 -0.6190 -1.2494
  627TIP3   OH223515   6.135   1.514   6.838 -0.2844 -0.5579 -0.1629
  627TIP3    H123516   6.073   1.489   6.769  0.4221 -0.8849 -0.6863
  627TIP3    H223517   6.092   1.586   6.884 -0.5405  0.0204 -1.2777
  628TIP3   OH223518   0.584   0.883   7.728  0.0717  0.0966  0.5579
  628TIP3    H123519   0.530   0.809   7.701  0.7296  0.0207 -0.6515
  628TIP3    H223520   0.597   0.933   7.647  0.1896  1.1655  1.2253
  629TIP3   OH223521   5.316   1.048   8.066 -0.2752  0.0806  0.4998
  629TIP3    H123522   5.349   1.088   8.147  1.5452 -2.0322  0.8939
  629TIP3    H223523   5.299   0.957   8.090  1.0932 -0.8110 -1.6601
  630TIP3   OH223524   3.365   3.845   0.352  0.1412  0.0964  0.0950
  630TIP3    H123525   3.329   3.756   0.349  2.0729 -0.8661  2.4573
  630TIP3    H223526   3.433   3.846   0.285 -0.1778 -0.0378 -0.2367
  631TIP3   OH223527   5.282   3.404   2.466 -0.1775 -0.0632  0.1221
  631TIP3    H123528   5.260   3.311   2.468  0.1349 -0.1333  0.2993
  631TIP3    H223529   5.353   3.414   2.529  0.9616 -0.0137 -1.1248
  632TIP3   OH223530   0.919   2.518   1.189 -0.1789 -0.5913  0.5829
  632TIP3    H123531   0.894   2.604   1.155  2.1017 -0.2854 -0.5268
  632TIP3    H223532   0.979   2.538   1.262 -1.1769 -1.2742  1.6246
  633TIP3   OH223533   1.428   0.396   1.285  0.1719 -0.1860  0.0231
  633TIP3    H123534   1.487   0.459   1.243  0.0046 -0.1645 -0.1781
  633TIP3    H223535   1.364   0.450   1.331 -1.1265 -0.1605 -1.7028
  634TIP3   OH223536   2.471   5.920   2.622 -0.4881 -0.4055  0.3900
  634TIP3    H123537   2.382   5.954   2.632 -0.1724  0.3867  0.5917
  634TIP3    H223538   2.513   5.981   2.563 -0.2582 -1.1408 -0.2118
  635TIP3   OH223539   1.817   5.300   0.026  0.6292 -0.1679  0.4484
  635TIP3    H123540   1.825   5.328  -0.065 -0.8107 -0.5931  0.1611
  635TIP3    H223541   1.906   5.273   0.051  1.0762  0.1353 -0.7584
  636TIP3   OH223542   4.650   5.853   1.353 -0.4980 -0.3484 -0.2287
  636TIP3    H123543   4.726   5.832   1.406  0.4434  4.6955  0.9675
  636TIP3    H223544   4.685   5.905   1.280 -2.5944  1.4521 -0.0701
  637TIP3   OH223545   0.820   2.706   2.695 -0.2482  0.4616 -0.1454
  637TIP3    H123546   0.803   2.792   2.733  4.0790  1.3203  0.3834
  637TIP3    H223547   0.779   2.645   2.756 -0.8668  2.0968  1.1513
  638TIP3   OH223548   2.922   5.006   1.536 -0.4610 -0.4460 -0.1304
  638TIP3    H123549   2.983   4.947   1.491  0.1867  1.3968 -1.8545
  638TIP3    H223550   2.835   4.970   1.517 -0.0781 -1.0013 -0.9086
  639TIP3   OH223551   6.314   6.686   1.314  0.7299 -0.7658  0.2350
  639TIP3    H123552   6.295   6.641   1.232 -1.4700  1.0481 -0.3422
  639TIP3    H223553   6.347   6.772   1.288  0.7344 -0.4386  1.2700
  640TIP3   OH223554   4.633   5.262   7.026 -0.3346  0.0749 -0.1648
  640TIP3    H123555   4.578   5.242   7.101  0.1827  2.0791  0.8156
  640TIP3    H223556   4.571   5.281   6.955 -0.8629  0.0481  0.2874
  641TIP3   OH223557   2.996   5.135   0.072  0.1852  0.0306  0.5932
  641TIP3    H123558   2.923   5.147   0.011  2.0623 -2.7654 -2.6353
  641TIP3    H223559   3.002   5.040   0.083  2.4911  0.2467  1.8396
  642TIP3   OH223560   4.395   0.235   0.005  0.0903 -0.1634 -0.1594
  642TIP3    H123561   4.318   0.281   0.039 -0.0258  1.9510 -2.8834
  642TIP3    H223562   4.363   0.147  -0.014 -1.5265  0.4724 -0.6350
  643TIP3   OH223563   6.841   1.579   7.529 -0.0464 -0.1203  0.1141
  643TIP3    H123564   6.823   1.551   7.619  0.4437  2.9394  1.2875
  643TIP3    H223565   6.932   1.611   7.532 -0.3514  0.9411 -1.1879
  644TIP3   OH223566   6.775   5.969   2.047  0.1640 -0.1480  0.4532
  644TIP3    H123567   6.828   5.927   2.115  0.6257  0.8417  0.7315
  644TIP3    H223568   6.838   5.996   1.980  0.1657  1.6333  1.0934
  645TIP3   OH223569   5.111   1.118   0.897  0.0319 -0.5718 -0.4411
  645TIP3    H123570   5.069   1.157   0.973  1.2809  0.0392 -0.0401
  645TIP3    H223571   5.048   1.053   0.865 -0.7525 -0.4280  0.7573
  646TIP3   OH223572   1.193   2.745   7.293  0.0644  0.4221  0.1457
  646TIP3    H123573   1.150   2.716   7.373 -0.9135  1.2711 -0.0457
  646TIP3    H223574   1.128   2.731   7.224  0.7072  0.1814 -0.4218
  647TIP3   OH223575   3.544   5.369   1.277 -0.6276 -0.6649 -0.1385
  647TIP3    H123576   3.604   5.347   1.206  0.6896 -2.0165  1.3266
  647TIP3    H223577   3.462   5.325   1.254  0.4019 -2.8582  0.1548
  648TIP3   OH223578   1.841   4.978   7.185 -0.3111 -0.7600 -0.7449
  648TIP3    H123579   1.884   4.921   7.248  1.5924  1.0746 -0.2639
  648TIP3    H223580   1.904   4.988   7.114 -1.2392 -0.4571 -1.5635
  649TIP3   OH223581   5.313   3.781   7.098 -0.0020 -0.5738  0.3683
  649TIP3    H123582   5.313   3.872   7.128 -0.4676 -1.1308  2.1800
  649TIP3    H223583   5.403   3.766   7.069  0.4378  0.0795  1.3351
  650TIP3   OH223584   0.049   2.463   1.334 -0.3052 -0.0653 -0.3255
  650TIP3    H123585  -0.043   2.446   1.317  0.0078 -0.8532 -1.3708
  650TIP3    H223586   0.068   2.544   1.286 -0.7078  0.7587  0.8570
  651TIP3   OH223587   0.502   2.169   1.883 -0.4649  0.1213 -0.4788
  651TIP3    H123588   0.461   2.123   1.810  0.0581  1.3761 -1.5903
  651TIP3    H223589   0.432   2.224   1.918 -0.1043  1.2756 -1.5393
  652TIP3   OH223590   5.848   6.865   0.780  0.2162 -0.4743 -0.2765
  652TIP3    H123591   5.777   6.929   0.777 -0.4551 -1.0113  1.9704
  652TIP3    H223592   5.813   6.793   0.833  1.9914 -1.3336 -0.1939
  653TIP3   OH223593   0.492   3.076   0.235  0.0820  0.7647  0.8490
  653TIP3    H123594   0.401   3.051   0.217 -0.0070  0.7617  1.3023
  653TIP3    H223595   0.528   3.002   0.284  1.1296 -0.4674 -1.5811
  654TIP3   OH223596   1.471   6.914   0.236 -0.2241  0.2132 -0.0043
  654TIP3    H123597   1.419   6.845   0.194  1.7296 -1.8401  0.7265
  654TIP3    H223598   1.435   6.920   0.325 -1.1720  1.0314 -0.4298
  655TIP3   OH223599   4.723   5.584   2.280 -0.2381  0.4581 -0.1300
  655TIP3    H123600   4.707   5.495   2.312 -0.1205  0.2623 -0.6141
  655TIP3    H223601   4.691   5.584   2.190  0.4690  0.6781 -0.3942
  656TIP3   OH223602   5.678   5.544   1.056  0.1242 -0.0524 -0.5349
  656TIP3    H123603   5.717   5.525   0.970  1.4656 -1.5308  0.3464
  656TIP3    H223604   5.598   5.493   1.058 -0.7626  1.2368 -1.4897
  657TIP3   OH223605   2.977   6.196   0.382 -0.0173  0.3340  0.5442
  657TIP3    H123606   2.919   6.227   0.451 -2.4763 -2.2114 -0.1731
  657TIP3    H223607   3.044   6.145   0.428 -1.2266 -0.7548  1.1714
  658TIP3   OH223608   0.459   6.750   1.437  0.5130 -0.1650  0.2238
  658TIP3    H123609   0.494   6.679   1.490  2.0920  0.5394  0.1780
  658TIP3    H223610   0.428   6.815   1.500 -0.3366 -0.5893  0.2615
  659TIP3   OH223611   2.566   4.831   7.157 -0.4261  0.2912  0.0349
  659TIP3    H123612   2.638   4.828   7.094  0.9320  3.0450  1.2712
  659TIP3    H223613   2.522   4.914   7.139 -2.8551 -0.9279 -0.1132
  660TIP3   OH223614   1.175   5.618   0.721  0.1793  0.0671 -0.0848
  660TIP3    H123615   1.127   5.539   0.746 -0.4497  0.3104 -0.4963
  660TIP3    H223616   1.133   5.646   0.640  1.0020  0.3077 -0.4338
  661TIP3   OH223617   2.588   1.077   1.872 -0.1976 -0.1410  0.0964
  661TIP3    H123618   2.667   1.117   1.837 -0.1370 -1.4700 -1.4114
  661TIP3    H223619   2.614   0.989   1.898 -1.3271 -0.9206 -1.2637
  662TIP3   OH223620   5.000   3.688   1.147 -0.7860  0.1385 -0.3917
  662TIP3    H123621   4.949   3.610   1.126 -1.3122  0.6743 -1.1488
  662TIP3    H223622   5.024   3.677   1.239  0.3989 -1.6207 -0.8530
  663TIP3   OH223623   6.274   5.407   1.494 -0.5767 -0.3780 -0.4008
  663TIP3    H123624   6.179   5.417   1.498 -0.3044  3.1175  1.4531
  663TIP3    H223625   6.302   5.408   1.586  1.2962 -1.4219 -0.8982
  664TIP3   OH223626   4.983   1.889   8.108 -0.0324 -0.5562  0.1877
  664TIP3    H123627   4.913   1.862   8.168 -0.5767 -0.5558 -0.4437
  664TIP3    H223628   5.040   1.944   8.161 -1.5821  1.1039  0.2054
  665TIP3   OH223629   5.878   1.333   8.203  0.4245 -0.1526 -0.0917
  665TIP3    H123630   5.821   1.367   8.272 -1.5453  1.2721 -2.2594
  665TIP3    H223631   5.915   1.411   8.162  2.5650 -1.0013  0.0732
  666TIP3   OH223632   2.264   4.648   1.764 -0.5200 -0.3204 -0.4423
  666TIP3    H123633   2.339   4.638   1.705  0.8323  0.9920  0.9698
  666TIP3    H223634   2.222   4.729   1.736 -1.5980 -1.1550 -1.3614
  667TIP3   OH223635   2.838   5.748   7.876  0.0999 -0.1938 -0.1558
  667TIP3    H123636   2.860   5.839   7.855  0.1777 -0.0340  0.5826
  667TIP3    H223637   2.852   5.741   7.971  0.1915 -1.0046 -0.2216
  668TIP3   OH223638   0.311   4.407   0.080 -0.2516  0.1723  0.1882
  668TIP3    H123639   0.311   4.312   0.079  0.5073  0.1668 -0.7899
  668TIP3    H223640   0.226   4.432   0.043  0.2308 -0.1459 -1.1937
  669TIP3   OH223641   6.120   6.770   1.521 -0.5064  0.6227 -0.1005
  669TIP3    H123642   6.160   6.784   1.608  0.2510 -0.9873 -0.1428
  669TIP3    H223643   6.185   6.718   1.474 -1.7603 -0.2260 -0.9420
  670TIP3   OH223644   3.414   6.147   1.257  0.2933  1.0278 -0.1064
  670TIP3    H123645   3.443   6.123   1.169 -1.1704  1.4511 -0.7219
  670TIP3    H223646   3.491   6.130   1.312  0.6122 -1.1934 -1.1128
  671TIP3   OH223647   0.838   1.474   8.085 -0.2603  0.5226  0.0740
  671TIP3    H123648   0.910   1.527   8.050 -0.2305  0.4780  0.0684
  671TIP3    H223649   0.760   1.525   8.064 -0.2238  0.6151  0.1609
  672TIP3   OH223650   6.981   4.562   2.170  0.0038 -0.0461  0.0424
  672TIP3    H123651   6.988   4.565   2.266  1.6257 -1.4521  0.0207
  672TIP3    H223652   6.981   4.468   2.150  0.7484  0.2322 -1.3861
  673TIP3   OH223653   4.678   4.977   0.390  0.2489  0.0150  0.1576
  673TIP3    H123654   4.763   4.985   0.346 -0.1480  1.6179 -0.3978
  673TIP3    H223655   4.614   4.975   0.318 -0.2206 -1.0791  0.5727
  674TIP3   OH223656   4.026   2.656   1.985  0.0293 -0.2247 -0.1744
  674TIP3    H123657   3.989   2.736   2.022 -0.4965 -0.8046  0.5836
  674TIP3    H223658   4.041   2.677   1.892  0.4592  0.9321  0.1398
  675TIP3   OH223659   2.256   0.878   0.534  0.3256  0.0076  0.1877
  675TIP3    H123660   2.207   0.946   0.486 -0.1315  0.1742  0.8807
  675TIP3    H223661   2.342   0.876   0.490 -0.0789  0.1524 -0.6382
  676TIP3   OH223662   3.778   4.233   7.995  0.5495  0.3954 -1.2708
  676TIP3    H123663   3.789   4.142   8.022  1.2189  0.6385 -0.6998
  676TIP3    H223664   3.709   4.267   8.052  1.5794  0.7525 -0.2012
  677TIP3   OH223665   0.635   1.344   7.073  0.2072  0.0766 -0.3394
  677TIP3    H123666   0.614   1.358   6.981  0.8249  1.1955 -0.3257
  677TIP3    H223667   0.562   1.292   7.107 -0.3331  0.1812 -1.3040
  678TIP3   OH223668   1.696   1.728   1.156  0.3482  0.5385 -0.2680
  678TIP3    H123669   1.752   1.703   1.083 -0.9328  1.3271 -1.5707
  678TIP3    H223670   1.741   1.801   1.198  2.0774 -1.1812  1.0341
  679TIP3   OH223671   2.400   4.956   8.208 -0.0543 -0.0084 -0.5803
  679TIP3    H123672   2.379   5.035   8.159  0.0086 -0.0363 -0.6511
  679TIP3    H223673   2.345   4.961   8.287  0.6203  0.5531 -0.1402
  680TIP3   OH223674   6.915   6.434   0.379  0.0427  0.3211 -0.4946
  680TIP3    H123675   6.936   6.420   0.472 -1.4958  0.3108 -0.1246
  680TIP3    H223676   6.881   6.523   0.376 -2.3210 -0.5278 -0.5672
  681TIP3   OH223677   2.085   5.382   0.915  0.0227 -0.5216  0.1468
  681TIP3    H123678   2.011   5.399   0.973 -0.1150 -0.9248  0.0949
  681TIP3    H223679   2.162   5.390   0.971 -0.0620 -0.1702  0.2164
  682TIP3   OH223680   6.505   0.081   1.657  0.3678  0.4809 -0.2233
  682TIP3    H123681   6.439   0.092   1.725 -0.3692 -0.2892 -0.7982
  682TIP3    H223682   6.552   0.164   1.656 -1.0423  1.3165 -0.2640
  683TIP3   OH223683   4.199   1.152   7.704  0.4831  0.0598 -0.1949
  683TIP3    H123684   4.270   1.091   7.724  0.4821  0.5277  1.3898
  683TIP3    H223685   4.139   1.144   7.778 -0.2650  0.9132 -0.6839
  684TIP3   OH223686   3.435   6.603   2.212 -0.0908 -0.3914  0.5685
  684TIP3    H123687   3.509   6.663   2.209 -1.0021  0.7300 -0.2154
  684TIP3    H223688   3.460   6.537   2.277  0.6693  1.1905  1.9384
  685TIP3   OH223689   6.597   2.802   1.226  0.6636  0.2198 -0.5399
  685TIP3    H123690   6.635   2.759   1.149  0.4891 -0.8136 -0.0735
  685TIP3    H223691   6.563   2.885   1.194  0.2269 -0.3773 -1.6639
  686TIP3   OH223692   1.802   5.648   0.846 -0.0729 -0.2235 -0.0031
  686TIP3    H123693   1.859   5.719   0.813 -0.7486  0.7418  0.8416
  686TIP3    H223694   1.836   5.628   0.933 -2.2241  1.8659  1.4408
  687TIP3   OH223695   5.086   4.410   7.761 -0.2431 -0.4844 -0.3743
  687TIP3    H123696   5.173   4.371   7.760 -0.0773 -0.3821  2.3745
  687TIP3    H223697   5.045   4.379   7.680  1.8735 -1.5587 -1.1186
  688TIP3   OH223698   3.813   0.762   0.983 -0.1945  0.4245  0.8915
  688TIP3    H123699   3.726   0.798   0.968  0.7014  1.9852 -1.1119
  688TIP3    H223700   3.801   0.667   0.981 -1.8066  0.6110  0.5074
  689TIP3   OH223701   0.280   0.240   0.712  0.2154 -0.2369  0.1957
  689TIP3    H123702   0.217   0.209   0.647  1.4391  0.4057 -1.3676
  689TIP3    H223703   0.290   0.167   0.773 -0.1549 -1.2911 -0.9602
  690TIP3   OH223704   1.472   4.527   0.165 -0.2770  0.5408 -0.6616
  690TIP3    H123705   1.472   4.610   0.213 -1.1972 -0.1838  0.6528
  690TIP3    H223706   1.400   4.536   0.102 -1.1926  0.2973  0.3282
  691TIP3   OH223707   6.930   1.016   8.062  0.8287  0.5418  0.1763
  691TIP3    H123708   6.863   0.958   8.025 -0.6970  1.1059  1.8905
  691TIP3    H223709   6.933   1.090   8.001 -0.0734  0.4704  0.0233
  692TIP3   OH223710   4.022   7.008   1.127  0.6438  0.5341 -0.2114
  692TIP3    H123711   3.991   6.965   1.207 -0.0744  1.0103 -0.2204
  692TIP3    H223712   4.039   6.936   1.066  1.0559  0.1751  0.3155
  693TIP3   OH223713   5.804   5.549   6.637  0.9003  0.4196 -0.1276
  693TIP3    H123714   5.746   5.612   6.679 -0.0814 -0.3085 -0.3680
  693TIP3    H223715   5.812   5.581   6.547 -2.2712 -1.4774 -1.2465
  694TIP3   OH223716   2.543   2.063   7.838  0.3098 -0.3808 -0.1697
  694TIP3    H123717   2.626   2.086   7.797  0.6670 -0.0785  0.7136
  694TIP3    H223718   2.547   2.102   7.925 -1.7957  1.8323 -0.9416
  695TIP3   OH223719   0.213   2.896   7.018  0.4507  0.2995 -0.0542
  695TIP3    H123720   0.247   2.950   6.948 -0.2629  0.6783 -0.1166
  695TIP3    H223721   0.133   2.940   7.046  1.5919  1.1171  2.1580
  696TIP3   OH223722   6.139   3.959   1.377  0.3146 -0.7232  0.0349
  696TIP3    H123723   6.159   4.031   1.317  1.0025 -2.1814 -1.5860
  696TIP3    H223724   6.044   3.953   1.377  0.3268 -1.3312 -1.7594
  697TIP3   OH223725   4.328   2.857   1.645 -0.0108 -0.1311 -0.1625
  697TIP3    H123726   4.350   2.891   1.558 -0.9314  1.1017  0.0635
  697TIP3    H223727   4.398   2.891   1.702 -1.1650  1.9010  0.1478
  698TIP3   OH223728   2.237   1.064   0.022 -0.4858  0.0357 -0.2156
  698TIP3    H123729   2.262   0.975   0.048  1.2091  0.5701  0.1070
  698TIP3    H223730   2.186   1.052  -0.058  1.3248 -1.1544 -1.2716
  699TIP3   OH223731   5.685   1.617   0.658  0.8912 -0.1419  0.3222
  699TIP3    H123732   5.607   1.649   0.703 -0.9208 -2.1273 -1.1975
  699TIP3    H223733   5.741   1.585   0.728 -1.0296 -1.4695  1.3477
  700TIP3   OH223734   3.155   4.788   0.987  0.5132 -0.3972 -0.0683
  700TIP3    H123735   3.248   4.790   1.010  0.4511 -2.8345  0.6456
  700TIP3    H223736   3.149   4.725   0.916 -0.7034 -1.0151  0.5593
  701TIP3   OH223737   5.984   6.748   0.351  0.0776  0.0395  0.1664
  701TIP3    H123738   5.978   6.737   0.446  0.6758 -2.3179 -0.0024
  701TIP3    H223739   5.914   6.693   0.316 -1.3271  2.2765 -0.7799
  702TIP3   OH223740   2.629   0.109   2.189 -0.2931  0.1809 -0.4973
  702TIP3    H123741   2.545   0.094   2.146  0.3639 -1.4030 -1.3031
  702TIP3    H223742   2.688   0.046   2.148  0.8520  0.0199  1.3104
  703TIP3   OH223743   2.186   4.393   2.334  0.2860 -0.6986  0.5917
  703TIP3    H123744   2.124   4.394   2.407  0.2367  1.4474  0.5739
  703TIP3    H223745   2.138   4.431   2.261  1.1174 -0.4937  0.1345
  704TIP3   OH223746   1.959   1.482   8.082 -0.1679  0.2978  0.7703
  704TIP3    H123747   1.942   1.525   8.166  1.6644  0.9787  0.8358
  704TIP3    H223748   2.053   1.464   8.083 -0.2719 -0.4872 -0.7794
  705TIP3   OH223749   3.338   5.797   1.915  0.2951 -0.3938  0.0938
  705TIP3    H123750   3.256   5.756   1.889 -0.9699  0.7439  2.0347
  705TIP3    H223751   3.324   5.825   2.005  1.8330  2.2355 -0.3549
  706TIP3   OH223752   6.014   2.470   0.986 -0.0157  0.2925 -0.3889
  706TIP3    H123753   6.091   2.512   1.023  1.1899 -1.3920 -0.8977
  706TIP3    H223754   6.028   2.472   0.891  0.9043 -2.6194 -0.4006
  707TIP3   OH223755   6.397   3.639   7.829 -0.0903  0.2771 -0.2790
  707TIP3    H123756   6.434   3.718   7.867 -0.2474  0.3674 -0.3127
  707TIP3    H223757   6.303   3.655   7.825 -0.2635 -0.3775  0.8056
  708TIP3   OH223758   4.601   5.727   0.747 -0.1743  0.0895  0.6290
  708TIP3    H123759   4.578   5.710   0.838 -0.4621  0.3838  0.6122
  708TIP3    H223760   4.582   5.820   0.734 -2.2216 -0.4113 -0.3354
  709TIP3   OH223761   3.043   2.105   2.164  0.3476 -0.8257 -0.0967
  709TIP3    H123762   2.964   2.052   2.155  0.7381 -1.2095 -1.3891
  709TIP3    H223763   3.062   2.103   2.258 -1.2364 -0.6175  0.2496
  710TIP3   OH223764   2.744   6.305   7.737 -0.1339  0.1642  0.2503
  710TIP3    H123765   2.814   6.365   7.711 -1.5777  1.4128 -1.0077
  710TIP3    H223766   2.715   6.337   7.822  0.2223  0.2135  0.3535
  711TIP3   OH223767   1.864   2.256   1.469 -0.5104  0.7470  0.5763
  711TIP3    H123768   1.911   2.175   1.491  0.4076  0.5408 -1.7877
  711TIP3    H223769   1.908   2.324   1.519 -0.9783 -0.1103  2.2292
  712TIP3   OH223770   6.296   3.060   2.856  0.1716  0.0729  0.3634
  712TIP3    H123771   6.247   2.999   2.911  1.0231 -1.4244 -0.4386
  712TIP3    H223772   6.233   3.091   2.791 -0.1115 -0.5556  0.3309
  713TIP3   OH223773   6.437   1.618   7.659 -0.0403  0.2586  0.1433
  713TIP3    H123774   6.343   1.598   7.667  0.3194 -1.4082  0.5732
  713TIP3    H223775   6.439   1.710   7.636 -1.8306  0.1152 -0.8244
  714TIP3   OH223776   4.644   2.264   1.375  0.0396  0.3096 -0.1093
  714TIP3    H123777   4.733   2.290   1.396  0.8542 -2.1271 -0.2222
  714TIP3    H223778   4.648   2.234   1.284 -0.8730  0.1287 -0.1035
  715TIP3   OH223779   4.244   4.231   0.711 -0.1230  0.2247 -0.3297
  715TIP3    H123780   4.330   4.207   0.678 -0.5719 -0.7921 -0.8235
  715TIP3    H223781   4.215   4.302   0.653 -0.4380 -0.7923 -1.4751
  716TIP3   OH223782   3.771   4.345   0.266 -0.1015  0.5924  0.4329
  716TIP3    H123783   3.780   4.287   0.190 -1.5723 -0.9014  1.3385
  716TIP3    H223784   3.679   4.374   0.263  0.7040  3.3650 -0.2813
  717TIP3   OH223785   4.497   4.060   0.342  0.6315 -0.1333  0.7516
  717TIP3    H123786   4.520   4.038   0.252  0.0548 -1.1501  0.8391
  717TIP3    H223787   4.443   4.138   0.335  0.5160 -0.2601  0.2051
  718TIP3   OH223788   1.210   4.513   1.973  0.5521 -0.4111 -0.1745
  718TIP3    H123789   1.255   4.439   1.931 -1.3642 -0.8740 -1.5798
  718TIP3    H223790   1.161   4.473   2.045 -0.2890 -0.4860 -0.7798
  719TIP3   OH223791   4.082   0.626   0.171  0.4526 -0.0545  0.4524
  719TIP3    H123792   4.115   0.645   0.259 -2.3527 -1.2115  1.8751
  719TIP3    H223793   4.044   0.539   0.177  0.1738 -0.1662 -1.9265
  720TIP3   OH223794   3.497   6.767   0.888 -0.0257 -0.0348 -0.6450
  720TIP3    H123795   3.435   6.840   0.880 -0.3576 -0.1709  0.4866
  720TIP3    H223796   3.509   6.736   0.798 -1.5828  0.0213 -0.9082
  721TIP3   OH223797   2.803   2.205   0.147  0.2356 -0.2761 -0.0765
  721TIP3    H123798   2.799   2.220   0.241  1.2286 -0.4723  0.0126
  721TIP3    H223799   2.737   2.264   0.110 -0.1230 -0.1648  0.7385
  722TIP3   OH223800   1.611   0.529   8.183  0.0298 -0.4520  0.7380
  722TIP3    H123801   1.704   0.531   8.204  0.0404  0.1782  0.6319
  722TIP3    H223802   1.607   0.496   8.093  0.2134  0.3916  0.4103
  723TIP3   OH223803   4.213   6.997   6.390  0.2286 -0.1808  0.2354
  723TIP3    H123804   4.289   7.036   6.344  0.2932  1.4752  1.6477
  723TIP3    H223805   4.188   7.063   6.454 -1.5467 -1.3176  0.7689
  724TIP3   OH223806   2.488   6.618   1.514  0.0453 -0.0441 -0.1145
  724TIP3    H123807   2.523   6.613   1.426  0.0547 -1.4773 -0.0580
  724TIP3    H223808   2.402   6.575   1.508 -1.1115  2.0910  0.0548
  725TIP3   OH223809   5.451   1.421   0.958  0.3280 -0.0239 -0.0510
  725TIP3    H123810   5.511   1.430   1.032 -1.1224 -0.0275  1.1687
  725TIP3    H223811   5.372   1.467   0.985 -0.3709 -0.3180 -1.4769
  726TIP3   OH223812   4.372   5.253   7.217 -0.0652 -0.1194  0.3250
  726TIP3    H123813   4.280   5.276   7.229 -0.4144 -1.0819 -0.4289
  726TIP3    H223814   4.420   5.321   7.265 -1.1062  1.2718 -0.5293
  727TIP3   OH223815   3.933   3.933   1.494 -0.1469  0.5361 -0.3322
  727TIP3    H123816   3.855   3.910   1.444 -1.2367  2.3229  0.4429
  727TIP3    H223817   3.931   4.029   1.499  1.3665  0.5501  0.8615
  728TIP3   OH223818   2.747   2.166   1.367 -0.3960 -0.1922 -0.1232
  728TIP3    H123819   2.667   2.199   1.409 -0.2332 -0.9982  0.8699
  728TIP3    H223820   2.720   2.084   1.325 -0.0354 -0.6735  0.5490
  729TIP3   OH223821   6.648   3.999   6.433  0.1704 -0.1227 -0.1698
  729TIP3    H123822   6.723   4.017   6.489  0.5481  0.1358 -0.7443
  729TIP3    H223823   6.651   4.067   6.365 -1.4634  0.8224  0.6400
  730TIP3   OH223824   2.072   5.689   6.544  0.2598 -0.1818 -0.2208
  730TIP3    H123825   2.124   5.659   6.619 -0.4144 -0.0165  0.3198
  730TIP3    H223826   1.982   5.665   6.565  0.0277  0.0756 -0.8788
  731TIP3   OH223827   3.645   4.673   2.603 -0.4469 -0.0452 -0.4114
  731TIP3    H123828   3.722   4.643   2.653  0.5302  3.0733  0.1456
  731TIP3    H223829   3.680   4.694   2.517 -0.9296  0.2375 -0.5385
  732TIP3   OH223830   5.571   0.582   2.255 -0.0932  0.7044 -0.2891
  732TIP3    H123831   5.526   0.570   2.171 -1.5715 -1.6549  0.7580
  732TIP3    H223832   5.657   0.542   2.242  1.0922  3.4173 -1.6551
  733TIP3   OH223833   0.381   3.082   1.645  0.0767 -0.2828 -0.2178
  733TIP3    H123834   0.322   3.154   1.663 -0.0202 -0.4064 -0.0372
  733TIP3    H223835   0.466   3.111   1.678  0.1644 -0.0211 -0.6677
  734TIP3   OH223836   3.772   0.673   7.289  0.1603  0.0362 -0.2726
  734TIP3    H123837   3.749   0.760   7.322  1.0968  0.0340  0.4309
  734TIP3    H223838   3.820   0.690   7.208 -0.3545  0.1329 -0.5620
  735TIP3   OH223839   1.423   3.807   0.658  0.2979  0.8895 -0.0663
  735TIP3    H123840   1.341   3.758   0.655  1.1321 -0.5316 -1.7649
  735TIP3    H223841   1.453   3.800   0.748 -0.9383  0.5579  0.3308
  736TIP3   OH223842   2.610   6.084   6.715  0.1686  0.4008  0.1523
  736TIP3    H123843   2.619   5.995   6.682  0.3424  0.3199  0.4131
  736TIP3    H223844   2.588   6.136   6.638  2.2132  0.5051 -0.4232
  737TIP3   OH223845   1.110   1.946   2.164 -0.2536 -0.3274 -0.1002
  737TIP3    H123846   1.047   2.016   2.146  0.2475  0.1668  0.0224
  737TIP3    H223847   1.174   1.987   2.222 -0.4506 -1.1599  0.7190
  738TIP3   OH223848   5.527   1.076   2.175 -0.3729 -0.8122 -0.0754
  738TIP3    H123849   5.575   1.156   2.154 -0.1635 -1.4505 -2.2838
  738TIP3    H223850   5.509   1.082   2.269  2.6605  0.1972  0.5457
  739TIP3   OH223851   4.047   2.513   1.157  0.0659  0.0438  0.6185
  739TIP3    H123852   4.138   2.492   1.137 -0.2237 -2.5713  1.5450
  739TIP3    H223853   4.048   2.534   1.251 -0.6280 -3.4684  1.5589
  740TIP3   OH223854   0.587   4.292   0.074  0.4897  0.2873 -0.0657
  740TIP3    H123855   0.600   4.273   0.168 -3.0317  0.3246  0.5466
  740TIP3    H223856   0.567   4.206   0.036 -2.0051  0.7322  0.0777
  741TIP3   OH223857   0.003   0.826   8.164 -0.1414  0.3601  0.5308
  741TIP3    H123858  -0.074   0.882   8.158 -0.0758  0.6848  2.2070
  741TIP3    H223859   0.060   0.870   8.227  1.0200 -0.3287 -0.0002
  742TIP3   OH223860   2.980   5.486   1.698 -0.1453 -0.5662 -0.2359
  742TIP3    H123861   2.956   5.535   1.619 -1.3363 -1.6949 -0.6089
  742TIP3    H223862   2.980   5.394   1.669  1.2993 -0.8565  0.6193
  743TIP3   OH223863   3.754   0.421   1.732 -0.2640  0.3149  0.8652
  743TIP3    H123864   3.830   0.417   1.674 -0.0221  0.0436  1.1987
  743TIP3    H223865   3.789   0.402   1.819 -0.3477  2.1809  1.3555
  744TIP3   OH223866   2.657   6.840   1.024 -0.0223 -0.4481 -0.2668
  744TIP3    H123867   2.658   6.745   1.019 -0.1005 -0.4324 -0.6147
  744TIP3    H223868   2.629   6.860   1.114  0.2957 -0.7513 -0.0986
  745TIP3   OH223869   4.970   4.612   1.321 -0.4874 -0.2151  0.2102
  745TIP3    H123870   4.929   4.669   1.256 -0.4550  0.2363  0.5835
  745TIP3    H223871   5.028   4.670   1.370  0.8579 -0.8939 -0.5193
  746TIP3   OH223872   7.047   4.422   7.208 -0.1373 -0.0304  0.1385
  746TIP3    H123873   7.072   4.330   7.220 -0.1641  0.1937  2.4538
  746TIP3    H223874   6.956   4.425   7.237 -0.7627  0.4128 -1.7555
  747TIP3   OH223875   0.945   1.509   0.122 -0.0582  0.8640 -0.1824
  747TIP3    H123876   0.911   1.544   0.039 -0.4187  1.3988  0.1755
  747TIP3    H223877   0.906   1.566   0.188  0.9922  1.0431  0.2930
  748TIP3   OH223878   2.932   4.399   0.638 -0.1209 -0.1785 -0.3893
  748TIP3    H123879   2.929   4.471   0.576  0.9336 -1.0131 -1.4593
  748TIP3    H223880   2.962   4.324   0.587 -0.2363 -1.1528  0.9012
  749TIP3   OH223881   0.907   2.774   1.111 -0.7175  0.3134  0.0497
  749TIP3    H123882   0.987   2.751   1.065 -1.8564 -1.1711 -1.3087
  749TIP3    H223883   0.896   2.868   1.097  0.4726  0.4190 -0.2273
  750TIP3   OH223884   2.346   5.398   7.733 -0.2098  0.9793 -0.9138
  750TIP3    H123885   2.336   5.492   7.749 -0.5447  0.6089  1.4051
  750TIP3    H223886   2.397   5.367   7.808  1.2824 -0.4600 -2.4429
  751TIP3   OH223887   0.315   4.774   0.005 -0.0196  0.0366  0.0938
  751TIP3    H123888   0.233   4.763   0.054  0.9162  0.1362  1.7426
  751TIP3    H223889   0.298   4.733  -0.080 -1.1196 -1.7462  1.1220
  752TIP3   OH223890   4.541   3.312   7.995 -0.6485 -0.7017  0.6831
  752TIP3    H123891   4.551   3.371   8.069 -2.4960  1.6815 -0.8182
  752TIP3    H223892   4.502   3.233   8.032  0.0962 -0.2679  2.4668
  753TIP3   OH223893   0.565   0.489   7.964 -0.4633  0.0202 -0.1307
  753TIP3    H123894   0.536   0.429   8.033  2.3169  0.2032  1.3614
  753TIP3    H223895   0.579   0.572   8.009  1.2644  0.1920 -0.8918
  754TIP3   OH223896   6.911   4.975   7.922 -0.2992 -0.2306 -0.4007
  754TIP3    H123897   6.861   5.052   7.898  0.6449  0.8544  0.9653
  754TIP3    H223898   6.890   4.910   7.855 -2.1570  0.7522 -0.8176
  755TIP3   OH223899   2.161   2.401   7.373 -0.0918  0.1992 -0.0730
  755TIP3    H123900   2.145   2.364   7.286  0.7908  0.0805 -0.1950
  755TIP3    H223901   2.095   2.469   7.383 -0.4828 -0.0935 -0.6565
  756TIP3   OH223902   3.800   5.000   0.379  0.0686  0.1147 -0.9704
  756TIP3    H123903   3.793   5.059   0.304 -0.4600  0.1856 -0.8665
  756TIP3    H223904   3.753   4.921   0.352 -0.2207  0.1844 -0.6731
  757TIP3   OH223905   1.226   2.927   2.257  0.3161  0.6929 -0.5486
  757TIP3    H123906   1.238   2.870   2.332 -1.0237 -1.8648 -2.1305
  757TIP3    H223907   1.132   2.940   2.250  0.2752 -0.1670 -2.4151
  758TIP3   OH223908   6.008   1.129   0.483 -0.2061  0.0029  0.2206
  758TIP3    H123909   6.016   1.125   0.387 -0.1604 -0.3696  0.2416
  758TIP3    H223910   6.012   1.038   0.512 -1.2203  0.0325  0.4952
  759TIP3   OH223911   1.224   5.339   2.327  0.7718  0.3875 -0.4731
  759TIP3    H123912   1.188   5.265   2.375  0.1772  1.0957  0.1938
  759TIP3    H223913   1.238   5.406   2.394  1.5619  0.7837 -1.0246
  760TIP3   OH223914   3.759   4.829   7.401  0.1418 -0.0863  0.4393
  760TIP3    H123915   3.708   4.763   7.448  0.1288  0.3474  1.0532
  760TIP3    H223916   3.728   4.824   7.311 -0.4889 -0.3156  0.6638
  761TIP3   OH223917   5.231   0.610   7.358  0.3978  0.7201 -0.6328
  761TIP3    H123918   5.319   0.605   7.322  0.3368  1.7024 -0.9399
  761TIP3    H223919   5.216   0.703   7.373 -0.7477  0.6102 -0.9969
  762TIP3   OH223920   4.332   1.025   7.318 -0.4081  0.6709 -0.1303
  762TIP3    H123921   4.421   0.988   7.322 -1.8616 -3.5891 -1.1899
  762TIP3    H223922   4.291   0.980   7.244 -3.8920  1.2867  1.2252
  763TIP3   OH223923   6.134   4.924   2.384  0.1005 -0.1612  0.0503
  763TIP3    H123924   6.142   4.863   2.310 -1.1481  0.4069 -0.6024
  763TIP3    H223925   6.065   4.886   2.438  0.7082 -0.3483  0.6914
  764TIP3   OH223926   2.370   1.090   0.275 -0.3701 -0.2482  0.0629
  764TIP3    H123927   2.311   1.067   0.203  1.0255 -0.1647 -1.1768
  764TIP3    H223928   2.454   1.051   0.249  0.4361  0.7230  1.1200
  765TIP3   OH223929   6.059   4.779   0.589  0.3471 -0.8029 -0.2919
  765TIP3    H123930   6.025   4.712   0.531  0.3530 -0.9730 -0.1005
  765TIP3    H223931   6.143   4.804   0.551 -0.2772  0.0979 -1.1429
  766TIP3   OH223932   5.360   6.468   0.792 -0.0305 -0.5350 -0.4839
  766TIP3    H123933   5.348   6.560   0.817 -0.4267 -0.8110  0.3622
  766TIP3    H223934   5.272   6.436   0.772 -0.4415 -1.6411  2.5317
  767TIP3   OH223935   1.638   1.626   7.519 -0.1468 -0.1942 -0.6590
  767TIP3    H123936   1.727   1.615   7.485  1.1416 -1.3131  2.7005
  767TIP3    H223937   1.593   1.547   7.490  0.8318 -1.0165 -0.0116
  768TIP3   OH223938   1.042   4.053   0.737  0.2417 -0.2958 -0.1908
  768TIP3    H123939   1.033   4.145   0.712 -1.3566 -0.2966  0.2342
  768TIP3    H223940   1.058   4.007   0.654  0.1611  0.2680 -0.5244
  769TIP3   OH223941   3.242   5.902   2.184 -0.1504  0.3681 -0.1694
  769TIP3    H123942   3.242   5.832   2.250 -1.5943 -0.4767 -1.0122
  769TIP3    H223943   3.151   5.906   2.154  0.2738  1.4433 -1.3830
  770TIP3   OH223944   2.195   1.144   6.412 -0.4894 -0.2502  0.3843
  770TIP3    H123945   2.186   1.049   6.415 -0.7053 -0.2582 -0.3759
  770TIP3    H223946   2.274   1.159   6.361 -1.1034 -0.0122 -0.5305
  771TIP3   OH223947   1.518   2.596   1.130 -0.7836 -0.0173 -0.0642
  771TIP3    H123948   1.591   2.611   1.070 -0.4722  0.5418  0.4448
  771TIP3    H223949   1.448   2.651   1.097 -1.1381 -0.8872 -0.8127
  772TIP3   OH223950   6.096   5.512   7.575  0.5703 -0.2966  0.1096
  772TIP3    H123951   6.100   5.423   7.611  1.0874  0.5074  2.1752
  772TIP3    H223952   6.032   5.557   7.629  0.1581  0.5635 -1.0564
  773TIP3   OH223953   3.313   2.465   2.764  0.2183 -0.0004 -0.2946
  773TIP3    H123954   3.321   2.514   2.682  2.5296 -0.7285 -0.5909
  773TIP3    H223955   3.366   2.514   2.826 -0.0195 -0.4508  0.2649
  774TIP3   OH223956   6.817   1.434   0.332  0.6572 -0.1585 -0.2510
  774TIP3    H123957   6.874   1.401   0.401  0.4809 -0.0895 -0.0734
  774TIP3    H223958   6.729   1.410   0.359  0.5943 -0.2157 -0.4991
  775TIP3   OH223959   6.394   4.276   3.277 -0.1594 -0.0134 -0.5588
  775TIP3    H123960   6.361   4.282   3.188  0.4785  0.0894 -0.7867
  775TIP3    H223961   6.335   4.214   3.320 -0.5342  0.0205 -1.0177
  776TIP3   OH223962   3.486   0.600   0.303  0.0489 -0.0900  0.2679
  776TIP3    H123963   3.505   0.602   0.209 -0.2736  0.3150  0.2097
  776TIP3    H223964   3.413   0.661   0.314  1.5789  1.7090  1.1039
  777TIP3   OH223965   1.797   2.488   6.901 -0.0207  0.3259  1.2252
  777TIP3    H123966   1.715   2.496   6.852  0.8838 -1.4973 -0.7663
  777TIP3    H223967   1.863   2.529   6.844  1.1261 -2.2337  0.5679
  778TIP3   OH223968   5.237   2.432   0.157 -0.6001 -0.5897  0.1571
  778TIP3    H123969   5.208   2.442   0.248 -0.2459 -2.4555  0.5105
  778TIP3    H223970   5.320   2.479   0.153 -0.2529 -1.1169  1.0095
  779TIP3   OH223971   5.136   6.665   1.304 -0.2463 -0.1333  0.6762
  779TIP3    H123972   5.103   6.711   1.227 -3.5374 -0.5539  1.6584
  779TIP3    H223973   5.130   6.729   1.375  2.2993  0.1042  0.7469
  780TIP3   OH223974   5.029   3.342   7.758  0.1857  0.2642 -0.0520
  780TIP3    H123975   4.954   3.384   7.716 -0.7508 -1.0741  0.2064
  780TIP3    H223976   4.990   3.278   7.818  1.5391 -0.4959  0.0564
  781TIP3   OH223977   0.003   5.706   7.995 -0.3947  0.3773  0.3546
  781TIP3    H123978  -0.061   5.647   7.954  0.1006  0.5205 -0.6525
  781TIP3    H223979   0.010   5.779   7.934  0.9564  0.2233  0.2962
  782TIP3   OH223980   6.047   6.680   0.933  0.2273 -0.0786  0.3572
  782TIP3    H123981   6.095   6.759   0.956 -0.1364 -0.1273  1.3437
  782TIP3    H223982   6.027   6.639   1.018  0.4722 -1.2550 -0.1422
  783TIP3   OH223983   6.778   6.641   7.797 -0.0717 -0.0273  0.2259
  783TIP3    H123984   6.731   6.688   7.865 -0.2764  1.0069 -0.6098
  783TIP3    H223985   6.832   6.578   7.845  1.2607  1.9590  1.4993
  784TIP3   OH223986   5.348   1.251   6.537  0.0339 -0.0059 -0.5317
  784TIP3    H123987   5.342   1.254   6.442  0.5782  0.1409 -0.5676
  784TIP3    H223988   5.438   1.224   6.555 -0.5431 -1.7406 -0.0556
  785TIP3   OH223989   0.392   2.766   0.775 -0.6427  0.0872  0.4916
  785TIP3    H123990   0.416   2.856   0.800 -2.4834  0.8466 -0.2917
  785TIP3    H223991   0.471   2.731   0.734  0.5624  0.8397  2.0196
  786TIP3   OH223992   0.213   5.564   7.804  0.1448  0.4055 -0.1572
  786TIP3    H123993   0.162   5.560   7.884 -0.4235  2.4858 -0.3577
  786TIP3    H223994   0.176   5.638   7.755  1.5786  0.2606 -1.5616
  787TIP3   OH223995   1.183   2.836   1.030 -0.0247  0.3753  0.7550
  787TIP3    H123996   1.170   2.848   0.936 -0.6431 -3.4766  0.1635
  787TIP3    H223997   1.274   2.862   1.046  1.0712 -1.6639 -1.6087
  788TIP3   OH223998   4.525   1.326   1.082  0.7169  0.3734  0.0882
  788TIP3    H123999   4.592   1.279   1.033  1.0366  1.5973 -0.6874
  788TIP3    H224000   4.442   1.294   1.046  0.9223  0.0786 -0.1265
  789TIP3   OH224001   5.369   3.492   2.132 -0.0094 -0.2462 -0.2660
  789TIP3    H124002   5.278   3.469   2.147  0.3670 -0.6669  1.5840
  789TIP3    H224003   5.397   3.536   2.212  1.2421  0.4498 -1.0421
  790TIP3   OH224004   5.590   5.788   7.258  0.0591 -0.0915  0.1132
  790TIP3    H124005   5.596   5.811   7.350 -1.7139  1.7021 -0.1375
  790TIP3    H224006   5.519   5.843   7.224  2.3085  1.2682 -2.9083
  791TIP3   OH224007   1.557   1.080   1.039 -0.0750  0.3606 -0.6457
  791TIP3    H124008   1.558   1.076   0.943  0.3279  1.5956 -0.7081
  791TIP3    H224009   1.536   1.171   1.059 -0.4816  0.0458  0.4554
  792TIP3   OH224010   4.931   2.423   1.137 -0.6035 -0.2827  0.1218
  792TIP3    H124011   4.953   2.392   1.049 -0.0624  0.1267  0.1060
  792TIP3    H224012   4.859   2.485   1.124 -0.1689  0.1851 -0.0994
  793TIP3   OH224013   5.496   7.075   1.024 -0.4886 -0.0511 -0.2293
  793TIP3    H124014   5.442   7.145   1.060 -0.4758 -0.5996  0.8851
  793TIP3    H224015   5.458   6.995   1.060  1.0359 -0.4558  0.5367
  794TIP3   OH224016   1.529   6.717   2.098 -0.1183 -0.6196  0.5539
  794TIP3    H124017   1.496   6.802   2.127 -0.1046 -0.0564 -0.9835
  794TIP3    H224018   1.543   6.727   2.004  1.2591 -1.8850  0.5741
  795TIP3   OH224019   2.068   1.034   8.025  0.2497 -0.5566 -0.0562
  795TIP3    H124020   1.990   1.048   8.079 -0.1678  0.8760 -0.9670
  795TIP3    H224021   2.033   1.015   7.938  0.9211 -0.0415 -0.4454
  796TIP3   OH224022   0.378   4.411   1.395  0.1111 -0.4282  0.3457
  796TIP3    H124023   0.436   4.448   1.461  1.0435 -0.9335 -0.1638
  796TIP3    H224024   0.328   4.344   1.442  1.0335 -1.0459  0.4682
  797TIP3   OH224025   3.274   4.801   0.316  0.2986  0.3644 -0.5957
  797TIP3    H124026   3.230   4.717   0.328  1.1990  0.1790  1.9779
  797TIP3    H224027   3.210   4.866   0.344  1.2044  0.1451  2.3032
  798TIP3   OH224028   0.094   4.938   2.395 -0.4534 -0.1106  0.5457
  798TIP3    H124029   0.157   4.914   2.463 -0.7027  0.2750  0.9241
  798TIP3    H224030   0.040   4.860   2.384  0.5037 -0.6808 -0.2735
  799TIP3   OH224031   4.812   2.703   7.159  0.5064  0.2850  0.4147
  799TIP3    H124032   4.858   2.698   7.243 -0.0456  1.3313  0.7968
  799TIP3    H224033   4.724   2.672   7.178  0.6478 -0.4116 -0.0132
  800TIP3   OH224034   1.161   0.637   8.089  0.3532  1.2566 -0.3267
  800TIP3    H124035   1.092   0.588   8.045 -0.4148  1.6142  0.4394
  800TIP3    H224036   1.216   0.570   8.130  0.2722  0.9815 -0.6650
  801TIP3   OH224037   3.304   6.732   7.020 -0.5246  0.2955  0.8143
  801TIP3    H124038   3.334   6.641   7.028 -0.0078  0.5394  1.7495
  801TIP3    H224039   3.377   6.784   7.051 -0.1095  1.1529 -1.4256
  802TIP3   OH224040   0.018   5.360   0.119 -0.2055  0.1320  0.3454
  802TIP3    H124041   0.033   5.379   0.027  0.8518 -0.2970  0.4182
  802TIP3    H224042   0.057   5.273   0.132 -1.0135 -0.1456  1.0237
  803TIP3   OH224043   0.334   4.136   0.011  0.3199 -0.5195 -0.3834
  803TIP3    H124044   0.323   4.067   0.077 -1.0916  0.0762  0.0549
  803TIP3    H224045   0.282   4.106  -0.064 -0.5826  0.2033 -0.0626
  804TIP3   OH224046   0.643   0.003   1.134 -0.1801  0.1279  0.7237
  804TIP3    H124047   0.580  -0.041   1.191 -0.5575  0.5668  0.6472
  804TIP3    H224048   0.626   0.096   1.147  1.6906  0.3509  2.1428
  805TIP3   OH224049   1.296   1.438   7.565  0.3768  0.0677 -0.3582
  805TIP3    H124050   1.350   1.499   7.515 -0.1733  0.4682 -0.4657
  805TIP3    H224051   1.340   1.430   7.650  0.0984  1.1262 -0.1006
  806TIP3   OH224052   5.830   2.762   0.604 -0.2954 -0.9269 -0.3057
  806TIP3    H124053   5.921   2.777   0.630 -1.3343  0.5161  3.1439
  806TIP3    H224054   5.825   2.667   0.589  1.0882 -1.7159  3.1613
  807TIP3   OH224055   4.263   2.337   7.517 -0.0744 -0.5228 -0.5749
  807TIP3    H124056   4.220   2.256   7.491 -1.1397  0.3061 -1.5133
  807TIP3    H224057   4.254   2.340   7.612 -1.4154 -0.7699 -0.6756
  808TIP3   OH224058   6.695   4.065   1.400 -0.1974  0.0903  0.1156
  808TIP3    H124059   6.657   4.146   1.366  0.5519  0.5930  0.4634
  808TIP3    H224060   6.619   4.007   1.414 -0.7073  0.6210 -0.4023
  809TIP3   OH224061   1.104   4.846   0.884  0.9583  0.5139  0.3678
  809TIP3    H124062   1.135   4.863   0.974  3.1129 -0.5219 -0.1257
  809TIP3    H224063   1.184   4.842   0.832 -0.0690 -1.5858 -1.1467
  810TIP3   OH224064   1.925   6.433   0.015 -0.2303  0.0598 -0.2902
  810TIP3    H124065   1.886   6.379   0.083 -0.4531  0.5548 -0.0257
  810TIP3    H224066   1.881   6.406  -0.066  0.5190 -1.0211 -0.3653
  811TIP3   OH224067   0.073   2.171   1.270 -0.5731 -0.1106  0.1030
  811TIP3    H124068   0.128   2.168   1.191  0.5037 -1.1101  0.8491
  811TIP3    H224069   0.101   2.250   1.316  1.3349 -1.3143  1.1705
  812TIP3   OH224070   2.232   6.956   7.466 -0.1432  0.5140  0.5588
  812TIP3    H124071   2.174   6.880   7.463 -1.4053  1.4782 -0.8312
  812TIP3    H224072   2.190   7.017   7.526  0.3139  0.5439  0.8508
  813TIP3   OH224073   4.560   0.934   7.000  0.0549 -0.4049 -0.0299
  813TIP3    H124074   4.577   0.861   7.059  0.3140 -2.0378 -2.0196
  813TIP3    H224075   4.625   1.000   7.024  0.8623 -1.4619  0.7830
  814TIP3   OH224076   2.121   3.923   2.293  0.4792  0.2807  0.1647
  814TIP3    H124077   2.132   3.834   2.326  1.0156  0.1317 -0.3849
  814TIP3    H224078   2.174   3.977   2.352  1.0002  0.0906 -0.1242
  815TIP3   OH224079   5.450   0.723   2.712  0.5926 -0.4535 -0.1141
  815TIP3    H124080   5.525   0.697   2.658  0.2701 -2.6624  0.3915
  815TIP3    H224081   5.378   0.668   2.680 -0.6421  1.0918 -0.0850
  816TIP3   OH224082   0.432   0.657   7.735 -0.3141  0.8724 -0.0869
  816TIP3    H124083   0.473   0.593   7.793  0.1397 -0.5773 -1.9129
  816TIP3    H224084   0.338   0.642   7.746 -0.2043 -0.5955 -0.9679
  817TIP3   OH224085   6.024   0.899   0.822  0.7183  0.0304  0.3069
  817TIP3    H124086   6.069   0.951   0.756 -0.9421  0.7345 -0.3396
  817TIP3    H224087   6.072   0.816   0.825  1.9401  0.6869 -0.4127
  818TIP3   OH224088   3.806   0.160   0.679 -0.1615  0.2172  0.5037
  818TIP3    H124089   3.801   0.112   0.597 -1.0076  0.7809  0.2170
  818TIP3    H224090   3.888   0.130   0.719 -0.4835 -1.1609  0.1620
  819TIP3   OH224091   5.248   4.060   1.732 -0.8804  0.3432  0.2760
  819TIP3    H124092   5.167   4.009   1.725 -0.6110  0.0175 -0.4912
  819TIP3    H224093   5.275   4.076   1.642  2.0877 -3.0092  0.3458
  820TIP3   OH224094   2.858   6.129   1.548 -0.0769 -0.5746  0.1442
  820TIP3    H124095   2.927   6.167   1.602  0.6464 -0.1515 -1.0581
  820TIP3    H224096   2.780   6.135   1.603  0.8378 -1.1920  1.5916
  821TIP3   OH224097   5.071   3.844   1.389 -0.0864 -0.6926  0.8729
  821TIP3    H124098   5.157   3.863   1.428 -0.8313 -1.0699  2.7947
  821TIP3    H224099   5.052   3.921   1.335  0.8212  0.0541  1.5820
  822TIP3   OH224100   3.978   2.030   0.495  0.7747 -0.0194  0.6682
  822TIP3    H124101   4.037   1.961   0.526  1.0461  0.3833  1.0640
  822TIP3    H224102   3.912   1.983   0.443 -0.5747 -0.9292  3.0498
  823TIP3   OH224103   4.505   1.717   0.407  0.4225  0.1233  0.0164
  823TIP3    H124104   4.464   1.661   0.473  1.2231 -0.3823  0.0931
  823TIP3    H224105   4.470   1.686   0.323  1.8493 -1.3864 -0.0599
  824TIP3   OH224106   5.722   3.604   7.195 -0.0876 -0.4560  0.5272
  824TIP3    H124107   5.789   3.660   7.234  0.1339  0.8504 -1.5320
  824TIP3    H224108   5.664   3.665   7.149 -0.2843 -1.8390 -1.1766
  825TIP3   OH224109   0.133   0.994   6.502 -0.0019  0.0744  0.4338
  825TIP3    H124110   0.097   0.912   6.470  0.6424 -0.3544  0.7829
  825TIP3    H224111   0.180   0.970   6.583  0.7758  0.6582  0.1706
  826TIP3   OH224112   1.298   6.838   1.027 -0.4016  0.2501 -0.2638
  826TIP3    H124113   1.373   6.870   0.976 -0.6670  0.6283 -0.4206
  826TIP3    H224114   1.306   6.883   1.111 -1.0013  1.0624 -0.6238
  827TIP3   OH224115   4.886   2.209   1.506  0.1345  0.0204  0.2138
  827TIP3    H124116   4.823   2.153   1.551 -0.8979  1.5151  0.7091
  827TIP3    H224117   4.938   2.248   1.576 -0.6120  1.3426  0.0725
  828TIP3   OH224118   4.962   5.603   0.868  0.0907  0.4063 -0.1881
  828TIP3    H124119   4.944   5.531   0.929  0.3172 -0.7721 -1.4565
  828TIP3    H224120   4.978   5.559   0.784 -1.4172  2.0178 -1.3994
  829TIP3   OH224121   1.981   3.455   7.019  0.6878 -0.0084 -0.8831
  829TIP3    H124122   2.056   3.422   6.969  2.1779  2.3881 -0.3921
  829TIP3    H224123   1.992   3.550   7.018 -1.0430  0.2816  1.2456
  830TIP3   OH224124   7.012   0.356   0.594  0.7332 -0.0872 -0.2947
  830TIP3    H124125   6.962   0.283   0.557  1.2014 -1.1813  1.1752
  830TIP3    H224126   6.965   0.379   0.674  2.7847 -1.5382  1.4622
  831TIP3   OH224127   4.262   2.369   1.042 -0.0738  0.2109 -0.3770
  831TIP3    H124128   4.309   2.378   1.125  1.1064  0.8827 -1.0791
  831TIP3    H224129   4.323   2.404   0.977 -2.0337  2.3283 -1.2004
  832TIP3   OH224130   4.419   5.736   6.508 -1.1441  0.0690 -0.1621
  832TIP3    H124131   4.439   5.796   6.580  0.7703  1.1228 -1.4919
  832TIP3    H224132   4.444   5.649   6.541 -1.6970  0.3162  0.9393
  833TIP3   OH224133   1.834   3.588   1.395  0.5961  0.2038 -0.2809
  833TIP3    H124134   1.788   3.671   1.380  0.8228  0.6266  1.1532
  833TIP3    H224135   1.904   3.586   1.329 -1.0505 -0.1635 -2.0926
  834TIP3   OH224136   2.691   0.570   0.372  0.5346 -0.3795  0.4075
  834TIP3    H124137   2.771   0.524   0.347  1.4714  0.9028  0.9481
  834TIP3    H224138   2.683   0.641   0.309 -1.3296 -1.6433 -0.9060
  835TIP3   OH224139   0.311   0.679   2.023 -0.0447  0.0321 -0.6281
  835TIP3    H124140   0.366   0.653   2.096  1.1472  0.7705 -1.2356
  835TIP3    H224141   0.369   0.679   1.947 -0.5931  1.8122 -1.1160
  836TIP3   OH224142   0.102   1.989   7.182 -0.0283 -0.7012 -0.3202
  836TIP3    H124143   0.081   2.019   7.270  2.4755 -2.7053  1.0884
  836TIP3    H224144   0.022   1.946   7.151 -1.7356  2.0811 -0.0900
  837TIP3   OH224145   6.476   1.827   1.076  0.2513 -0.1636  0.0855
  837TIP3    H124146   6.424   1.776   1.138 -1.1411  2.3540  1.1223
  837TIP3    H224147   6.560   1.840   1.121  1.1973 -2.5912 -0.7863
  838TIP3   OH224148   5.693   5.914   0.551  0.9809 -0.3420  0.2318
  838TIP3    H124149   5.720   5.986   0.494  2.2245 -1.8164 -1.1312
  838TIP3    H224150   5.607   5.888   0.519  1.4060 -0.7531 -0.6091
  839TIP3   OH224151   6.413   3.293   2.753  0.6582  0.3202  0.3856
  839TIP3    H124152   6.367   3.227   2.805 -0.6947  0.3637 -0.6941
  839TIP3    H224153   6.406   3.374   2.804  1.4163 -0.1249  1.2216
  840TIP3   OH224154   2.885   5.038   7.003 -0.2298  0.2042 -0.4391
  840TIP3    H124155   2.865   4.945   6.987 -1.9854 -0.0018  2.3859
  840TIP3    H224156   2.923   5.040   7.090  1.5697  2.0097 -1.1871
  841TIP3   OH224157   2.421   6.995   2.033  0.3210 -0.5911 -0.5187
  841TIP3    H124158   2.347   6.970   2.087  0.3994  0.8501  0.3049
  841TIP3    H224159   2.497   6.953   2.075  0.1370 -1.0525 -0.6435
  842TIP3   OH224160   1.123   1.972   0.587  0.0655  0.0005 -0.1778
  842TIP3    H124161   1.032   1.946   0.568  0.5207 -2.8862  0.9933
  842TIP3    H224162   1.124   1.987   0.681  0.9162 -0.7045 -0.0623
  843TIP3   OH224163   5.295   3.626   7.355 -0.3789  0.4411  0.0365
  843TIP3    H124164   5.366   3.572   7.320 -1.4214  0.2925 -1.9762
  843TIP3    H224165   5.291   3.701   7.296 -1.0320  1.1497  0.9439
  844TIP3   OH224166   6.439   3.496   0.312  0.5414  0.0659  0.4005
  844TIP3    H124167   6.447   3.515   0.218 -0.8824  0.4145  0.3262
  844TIP3    H224168   6.394   3.411   0.315 -3.5140  1.9585  0.6567
  845TIP3   OH224169   3.835   4.133   0.108  0.3795  0.1586 -0.3759
  845TIP3    H124170   3.920   4.089   0.107  0.0001 -0.8570  2.4686
  845TIP3    H224171   3.774   4.067   0.078  0.2231 -0.2157  0.7242
  846TIP3   OH224172   2.255   6.798   8.131 -0.4597 -0.0423 -0.0872
  846TIP3    H124173   2.164   6.823   8.147  0.2064  2.4375  0.2094
  846TIP3    H224174   2.274   6.733   8.199 -1.7732 -0.0553  0.3017
  847TIP3   OH224175   5.773   4.359   7.374  0.3881  0.4177  0.4760
  847TIP3    H124176   5.804   4.410   7.449  1.6627 -0.7213  0.7510
  847TIP3    H224177   5.830   4.385   7.302  1.7632 -1.3333  0.8690
  848TIP3   OH224178   3.130   0.189   7.284 -0.4648  0.0091  0.3291
  848TIP3    H124179   3.205   0.233   7.244  0.9480 -1.0536  1.6650
  848TIP3    H224180   3.169   0.124   7.343 -2.4469 -0.4519  1.2279
  849TIP3   OH224181   6.092   0.683   0.369  0.7270  0.0458 -0.1073
  849TIP3    H124182   6.098   0.734   0.450  0.1029  0.8141 -0.5282
  849TIP3    H224183   6.003   0.647   0.370  0.2640  1.1005 -1.0352
  850TIP3   OH224184   0.519   5.433   0.405  0.2224  0.5835 -0.4342
  850TIP3    H124185   0.594   5.491   0.398  1.2566 -0.4423  1.4588
  850TIP3    H224186   0.444   5.488   0.382  1.5933  1.2858 -3.6927
  851TIP3   OH224187   0.844   6.718   1.139  0.2647 -0.2436 -0.2659
  851TIP3    H124188   0.829   6.635   1.184  1.0353 -0.6165 -0.6660
  851TIP3    H224189   0.759   6.740   1.101 -0.6337  0.5145  2.0271
  852TIP3   OH224190   4.900   2.186   6.688  0.4467 -0.1678  0.4011
  852TIP3    H124191   4.877   2.145   6.771  0.3559 -2.2754 -0.6093
  852TIP3    H224192   4.827   2.166   6.630  1.9251 -1.5754 -1.0735
  853TIP3   OH224193   2.345   1.450   1.423 -0.2186 -0.3149 -0.3009
  853TIP3    H124194   2.354   1.373   1.367 -0.5524 -0.1615 -0.5694
  853TIP3    H224195   2.390   1.519   1.376 -1.5498  0.1218 -0.9971
  854TIP3   OH224196   5.029   4.447   0.249  0.0183  0.6655  0.0366
  854TIP3    H124197   5.013   4.470   0.157 -1.2134  0.9612  0.3100
  854TIP3    H224198   5.053   4.530   0.290  4.3963  0.0272 -0.6996
  855TIP3   OH224199   5.903   4.012   7.775  0.9042  0.0923  0.1227
  855TIP3    H124200   5.867   3.964   7.700  1.4595 -0.4148  0.1730
  855TIP3    H224201   5.865   4.100   7.768 -0.7117 -0.5533  0.4539
  856TIP3   OH224202   4.725   5.382   1.409  0.3846  0.1128 -0.0103
  856TIP3    H124203   4.790   5.448   1.383  0.7980  0.0902  0.9356
  856TIP3    H224204   4.643   5.411   1.369  0.9113  0.2881 -1.0031
  857TIP3   OH224205   3.344   4.895   1.654  0.1496 -0.3833  0.1708
  857TIP3    H124206   3.427   4.867   1.694  0.2328 -1.9133 -0.9604
  857TIP3    H224207   3.291   4.814   1.651 -0.9462  0.3243 -0.1627
  858TIP3   OH224208   2.484   4.486   7.614  0.5888 -0.3684  0.1700
  858TIP3    H124209   2.475   4.405   7.664 -1.2747  0.0371  0.5702
  858TIP3    H224210   2.407   4.537   7.637  1.9945  1.8016  0.3857
  859TIP3   OH224211   4.932   1.544   0.689  0.4470  0.0023 -0.6629
  859TIP3    H124212   4.920   1.450   0.702  0.0182  0.1267 -0.1599
  859TIP3    H224213   4.957   1.578   0.774  1.7489  0.1789 -1.0889
  860TIP3   OH224214   5.038   5.673   6.978  0.3719  0.4761  0.4728
  860TIP3    H124215   5.061   5.643   6.890 -0.6321  0.2374  0.2809
  860TIP3    H224216   5.101   5.630   7.035  1.7097  1.4565 -0.2055
  861TIP3   OH224217   0.755   0.525   6.447  0.4885  0.1086  0.0954
  861TIP3    H124218   0.662   0.506   6.432  0.9684 -1.4909 -1.1536
  861TIP3    H224219   0.761   0.544   6.541 -0.8243 -1.5222  0.5587
  862TIP3   OH224220   4.384   4.486   7.596  0.0697  0.0513 -0.1152
  862TIP3    H124221   4.426   4.567   7.567 -3.0985  0.9186 -2.8644
  862TIP3    H224222   4.449   4.418   7.580  2.0784  1.7639  0.3419
  863TIP3   OH224223   6.377   2.447   2.159  0.0515 -0.4950  0.1627
  863TIP3    H124224   6.463   2.424   2.195  1.0296 -0.3009 -1.9133
  863TIP3    H224225   6.317   2.432   2.232  1.6984 -1.6107  1.3961
  864TIP3   OH224226   6.918   2.507   7.514  0.1378 -0.2528  0.4142
  864TIP3    H124227   6.912   2.419   7.550 -0.4803 -0.4932 -0.2424
  864TIP3    H224228   6.994   2.546   7.558  0.1503 -0.9506  1.0392
  865TIP3   OH224229   1.638   0.871   1.218 -0.1404  0.2079  0.1659
  865TIP3    H124230   1.609   0.904   1.303 -1.6245  0.1580 -0.2849
  865TIP3    H224231   1.609   0.938   1.156  0.6212  0.0783 -0.3343
  866TIP3   OH224232   3.194   1.357   1.070  0.1243  0.3229 -0.4594
  866TIP3    H124233   3.275   1.382   1.026 -0.1123 -0.9360 -1.6971
  866TIP3    H224234   3.221   1.302   1.143  0.3837  0.0915 -0.7328
  867TIP3   OH224235   2.273   0.726   7.336 -0.2425 -0.2529 -0.1209
  867TIP3    H124236   2.357   0.683   7.322 -0.0260 -0.1785  0.9139
  867TIP3    H224237   2.292   0.797   7.397 -0.5671  1.4014 -1.8596
  868TIP3   OH224238   5.077   0.131   7.853  0.3491 -0.6516  0.3351
  868TIP3    H124239   5.142   0.073   7.893 -0.9832 -1.5669  1.2845
  868TIP3    H224240   5.030   0.168   7.927 -0.1151  0.1228 -0.3304
  869TIP3   OH224241   2.738   1.038   6.926 -0.2129  0.4002  0.1291
  869TIP3    H124242   2.655   1.009   6.888 -0.4655  0.8864  0.3008
  869TIP3    H224243   2.725   1.030   7.020 -0.6233  1.9417  0.2230
  870TIP3   OH224244   5.975   6.937   7.902 -0.5690 -0.5375 -0.0258
  870TIP3    H124245   5.976   7.010   7.965  2.3228 -0.5019  0.0548
  870TIP3    H224246   5.991   6.978   7.817  0.3915 -0.9907 -0.0755
  871TIP3   OH224247   5.054   5.809   2.259 -0.1440 -0.3036  0.6674
  871TIP3    H124248   5.148   5.791   2.266 -0.3259 -0.9514  1.5069
  871TIP3    H224249   5.018   5.733   2.214 -0.6142 -1.1994  2.4733
  872TIP3   OH224250   4.202   2.259   1.590 -0.6214 -0.0729  0.2528
  872TIP3    H124251   4.174   2.179   1.634 -1.9726 -0.0639 -0.5362
  872TIP3    H224252   4.176   2.329   1.650  0.5534 -0.1968  0.9391
  873TIP3   OH224253   0.924   6.961   6.018 -0.2820 -0.5390 -0.7024
  873TIP3    H124254   0.850   7.015   6.045 -0.5280 -0.8930 -0.6757
  873TIP3    H224255   0.998   7.022   6.017 -1.2168  0.7863 -4.4543
  874TIP3   OH224256   6.948   3.599   7.573 -0.6266  0.7346  0.3832
  874TIP3    H124257   6.862   3.591   7.533 -1.2836 -1.1797  2.0457
  874TIP3    H224258   6.945   3.682   7.620 -1.2155  1.1069 -0.2917
  875TIP3   OH224259   6.574   4.568   6.584 -0.0430 -0.3106 -0.0611
  875TIP3    H124260   6.669   4.565   6.594  0.4274  3.4085 -1.8491
  875TIP3    H224261   6.560   4.579   6.490 -2.1224  0.8299  0.3190
  876TIP3   OH224262   1.907   4.939   1.620 -0.2764  0.2750  0.5204
  876TIP3    H124263   1.860   4.872   1.669 -0.0726 -0.4373 -0.2434
  876TIP3    H224264   1.843   4.971   1.556 -0.0416  0.0434  0.1705
  877TIP3   OH224265   1.833   0.246   7.875  0.0568 -0.2044 -0.0221
  877TIP3    H124266   1.843   0.151   7.866 -1.4184 -0.3592 -0.1673
  877TIP3    H224267   1.757   0.258   7.931  1.4971  0.9163  1.8386
  878TIP3   OH224268   0.663   5.145   2.234 -0.1841  0.0485  0.5074
  878TIP3    H124269   0.590   5.117   2.178 -0.0871 -1.3697  1.0640
  878TIP3    H224270   0.736   5.089   2.207  0.2342  0.3045  1.1082
  879TIP3   OH224271   0.095   0.401   7.285  0.1833  0.5463 -0.2628
  879TIP3    H124272   0.072   0.367   7.199 -1.1004  1.1777 -0.1980
  879TIP3    H224273   0.131   0.326   7.332  0.5137  0.1038 -1.2044
  880TIP3   OH224274   4.165   5.651   6.729 -0.5962 -0.0809  0.4553
  880TIP3    H124275   4.257   5.647   6.703 -0.2786  0.5103  1.4469
  880TIP3    H224276   4.147   5.744   6.742 -0.9120 -0.3014  1.7169
  881TIP3   OH224277   1.628   2.980   1.205 -0.2629 -0.0492 -0.5240
  881TIP3    H124278   1.593   3.067   1.225  2.2575  1.3436 -1.7228
  881TIP3    H224279   1.723   2.989   1.219  0.3914 -1.8334 -3.1371
  882TIP3   OH224280   3.487   6.309   1.637  0.7808 -1.0056 -0.4124
  882TIP3    H124281   3.409   6.304   1.693  0.0484  0.3725 -1.2547
  882TIP3    H224282   3.454   6.344   1.554  2.5440  1.2508 -0.2415
  883TIP3   OH224283   6.291   5.953   1.386 -0.0374  0.2745 -0.2539
  883TIP3    H124284   6.234   5.897   1.438  0.7182 -1.2063 -0.9598
  883TIP3    H224285   6.232   6.000   1.327 -0.7029  0.4504  0.5322
  884TIP3   OH224286   2.753   4.179   7.902 -0.4190  0.2502 -0.4926
  884TIP3    H124287   2.800   4.131   7.834 -1.6471  0.2036 -1.3450
  884TIP3    H224288   2.793   4.267   7.900 -0.7300  0.3891 -1.6053
  885TIP3   OH224289   3.846   6.483   1.036  0.3721 -0.3411  0.0987
  885TIP3    H124290   3.785   6.438   0.977 -0.3363  1.0722 -0.2973
  885TIP3    H224291   3.796   6.557   1.071  1.1412 -0.4951  1.6091
  886TIP3   OH224292   1.843   3.154   1.199  0.0139  0.0290  0.6421
  886TIP3    H124293   1.835   3.210   1.275 -0.3595  0.8592  0.0023
  886TIP3    H224294   1.840   3.213   1.124  0.3218 -0.7714 -0.0302
  887TIP3   OH224295   4.235   2.093   1.081  0.9875  0.3568  0.4724
  887TIP3    H124296   4.245   2.063   0.991 -1.3116 -0.0512  0.3105
  887TIP3    H224297   4.204   2.183   1.073  0.8628  0.3498  0.8575
  888TIP3   OH224298   1.440   4.379   2.826  0.2875  0.2314  0.0449
  888TIP3    H124299   1.457   4.390   2.920  0.1124 -0.2498  0.1383
  888TIP3    H224300   1.433   4.284   2.815 -2.8586  0.3441  0.1325
  889TIP3   OH224301   6.563   3.225   0.076  0.0588  0.4768 -0.4062
  889TIP3    H124302   6.515   3.307   0.084  0.0107  0.3131  1.1985
  889TIP3    H224303   6.498   3.161   0.047  0.0615  0.9497 -1.5022
  890TIP3   OH224304   1.494   2.046   1.686 -0.2590 -0.5439  0.1697
  890TIP3    H124305   1.425   1.981   1.687 -1.2965  0.2734 -3.4880
  890TIP3    H224306   1.574   1.996   1.670 -0.7134 -1.1013 -0.3734
  891TIP3   OH224307   3.701   3.409   1.144  0.4548  0.3283 -0.0877
  891TIP3    H124308   3.684   3.457   1.225  0.8143 -2.5248  1.8271
  891TIP3    H224309   3.657   3.460   1.076 -0.5609  2.4239  2.0075
  892TIP3   OH224310   0.654   1.909   7.660  0.3907 -0.9426  0.3539
  892TIP3    H124311   0.576   1.959   7.681  1.5552  1.5681 -0.8583
  892TIP3    H224312   0.642   1.882   7.568  0.5810 -1.2935  0.4288
  893TIP3   OH224313   0.753   3.623   1.541  0.0786  0.0058  0.0162
  893TIP3    H124314   0.746   3.539   1.586  0.2968 -0.8112 -1.4094
  893TIP3    H224315   0.715   3.607   1.455 -0.1976  1.4796 -0.1589
  894TIP3   OH224316   5.003   0.097   2.114 -0.1981 -0.2132  0.5406
  894TIP3    H124317   4.991   0.184   2.076 -0.9520 -0.0173  1.1882
  894TIP3    H224318   4.998   0.038   2.039 -2.4724  0.1026  0.3530
  895TIP3   OH224319   3.124   5.906   1.606  0.1289 -0.5157  0.0713
  895TIP3    H124320   3.212   5.875   1.628  0.0789 -1.1168 -0.5377
  895TIP3    H224321   3.138   5.982   1.550  0.2569 -0.0497  0.7288
  896TIP3   OH224322   5.493   0.896   1.451 -0.3498 -0.3375  0.2050
  896TIP3    H124323   5.562   0.886   1.386 -0.6732 -1.2112 -0.0294
  896TIP3    H224324   5.412   0.901   1.399 -0.5402 -0.2304  0.5104
  897TIP3   OH224325   3.924   4.868   0.590 -0.1323 -0.1087 -0.4853
  897TIP3    H124326   3.938   4.783   0.549 -0.3391 -0.6557  0.5423
  897TIP3    H224327   3.896   4.925   0.519  0.6935 -0.7163 -1.3202
  898TIP3   OH224328   0.725   3.919   1.674  0.2140 -0.7281  0.1059
  898TIP3    H124329   0.763   3.959   1.752  1.8817 -2.9746  0.5223
  898TIP3    H224330   0.800   3.886   1.624 -0.9560 -1.3784 -1.3056
  899TIP3   OH224331   2.190   6.609   7.053 -0.3952  0.4273  0.0878
  899TIP3    H124332   2.284   6.623   7.062 -0.6131  1.2414  1.4229
  899TIP3    H224333   2.178   6.516   7.070  0.2132  0.2160 -0.5860
  900TIP3   OH224334   5.479   2.806   1.380 -0.3008 -0.5960  0.1969
  900TIP3    H124335   5.522   2.764   1.305 -0.0286 -2.0684  1.1451
  900TIP3    H224336   5.551   2.841   1.433 -0.3907 -1.1507  0.6868
  901TIP3   OH224337   3.921   4.327   2.337  0.3630  0.0584  0.1069
  901TIP3    H124338   3.902   4.293   2.424  0.9155 -0.9947 -0.1684
  901TIP3    H224339   4.013   4.307   2.323  0.4955  0.9856 -0.3849
  902TIP3   OH224340   3.187   5.213   7.031 -0.3756  0.2172  0.4924
  902TIP3    H124341   3.132   5.150   7.077  1.6598 -0.9876  1.3929
  902TIP3    H224342   3.275   5.198   7.065  0.8400  0.9015 -2.0603
  903TIP3   OH224343   3.989   0.083   1.708  0.1096 -0.1057  0.0311
  903TIP3    H124344   3.959   0.073   1.799 -0.0613  2.8505  0.3927
  903TIP3    H224345   4.084   0.075   1.713  0.2258  1.4578  0.7504
  904TIP3   OH224346   4.487   2.735   7.545 -0.3018 -0.8458  0.5522
  904TIP3    H124347   4.533   2.655   7.572  0.1079 -0.9956 -0.5242
  904TIP3    H224348   4.398   2.723   7.576 -0.3321 -1.8849  0.1150
  905TIP3   OH224349   1.979   1.704   0.449  0.7450  0.3121 -0.2521
  905TIP3    H124350   1.896   1.742   0.419  1.7002  1.8917 -1.0666
  905TIP3    H224351   1.957   1.616   0.478 -1.2095  0.7037 -0.4484
  906TIP3   OH224352   2.867   1.889   1.115  0.0489  0.4291 -0.7156
  906TIP3    H124353   2.954   1.929   1.113  0.9660 -1.3988  0.5159
  906TIP3    H224354   2.884   1.795   1.120 -2.0058  0.0462 -0.1251
  907TIP3   OH224355   4.511   4.898   7.073 -0.0125  0.2325  0.3560
  907TIP3    H124356   4.508   4.850   6.990  2.3957  0.1068  0.2655
  907TIP3    H224357   4.530   4.831   7.138  0.5260  0.6664  0.6496
  908TIP3   OH224358   3.848   1.017   1.857  0.0059  0.5945  0.2038
  908TIP3    H124359   3.920   0.953   1.858 -0.3033  0.2541  0.8359
  908TIP3    H224360   3.843   1.049   1.946 -1.3279 -0.1772  0.4303
  909TIP3   OH224361   3.965   1.661   2.464 -1.0373 -0.0615  0.0568
  909TIP3    H124362   4.018   1.712   2.403 -0.0022  1.5733  2.1615
  909TIP3    H224363   3.875   1.685   2.444 -0.6355  1.6489  0.1255
  910TIP3   OH224364   3.133   2.138   1.696  0.0854 -0.3027 -0.1410
  910TIP3    H124365   3.147   2.091   1.779  1.5558 -0.8680 -0.6677
  910TIP3    H224366   3.046   2.109   1.667 -0.7121  0.3652  1.4725
  911TIP3   OH224367   5.203   2.998   0.237 -0.6677 -0.3686 -0.2417
  911TIP3    H124368   5.159   3.077   0.268  0.3672 -0.6006  1.9948
  911TIP3    H224369   5.132   2.937   0.218 -1.4316  0.6969 -0.8847
  912TIP3   OH224370   5.037   5.378   1.736 -0.1854  0.0575  0.3056
  912TIP3    H124371   5.018   5.316   1.666  0.9070  0.3246 -0.2495
  912TIP3    H224372   5.109   5.339   1.784 -0.0712  0.4813  0.4840
  913TIP3   OH224373   2.007   5.473   0.654 -0.6908  0.2526 -0.3955
  913TIP3    H124374   2.053   5.405   0.605 -2.1986 -0.3786 -0.9758
  913TIP3    H224375   2.007   5.442   0.744 -1.0026 -0.3296 -0.5884
  914TIP3   OH224376   4.279   1.922   1.300  0.2870 -0.0744 -0.0563
  914TIP3    H124377   4.305   1.886   1.215 -0.7594 -1.8723  0.3262
  914TIP3    H224378   4.245   2.009   1.279  1.9207  0.3467 -1.1826
  915TIP3   OH224379   3.288   3.689   1.330  0.1648 -0.1395  0.3024
  915TIP3    H124380   3.225   3.640   1.277 -0.9596  0.3347  1.1815
  915TIP3    H224381   3.246   3.698   1.415  0.2296  2.5302  0.1303
  916TIP3   OH224382   3.950   0.155   6.463  0.3520  0.1167 -0.4131
  916TIP3    H124383   3.857   0.149   6.484  0.6101 -0.6205  0.5926
  916TIP3    H224384   3.994   0.117   6.539  1.5010  0.9757 -0.6244
  917TIP3   OH224385   3.872   6.651   1.618  0.1995 -0.0940 -0.6642
  917TIP3    H124386   3.801   6.675   1.557 -1.3915  1.5210  1.6476
  917TIP3    H224387   3.915   6.734   1.638  0.2765 -0.4878  0.8725
  918TIP3   OH224388   3.063   0.931   0.619 -0.6187 -0.0140 -0.3030
  918TIP3    H124389   3.065   0.940   0.715 -1.3253  0.9912 -0.3702
  918TIP3    H224390   3.049   0.837   0.604 -2.2198  0.0415  0.6115
  919TIP3   OH224391   6.228   2.198   2.358 -0.2025 -0.1980 -0.8965
  919TIP3    H124392   6.222   2.291   2.336 -1.8897  0.0638  0.4436
  919TIP3    H224393   6.298   2.193   2.422 -0.9174  0.3730 -0.0487
  920TIP3   OH224394   2.264   1.491   0.104 -0.6958 -0.0439 -0.2273
  920TIP3    H124395   2.216   1.572   0.122 -2.1986 -1.1285  0.8717
  920TIP3    H224396   2.251   1.475   0.010 -0.8190  0.6910 -0.3400
  921TIP3   OH224397   6.507   4.392   7.189 -0.1135  0.0617 -0.2691
  921TIP3    H124398   6.542   4.326   7.248  0.9637  0.9276  0.0972
  921TIP3    H224399   6.469   4.458   7.246 -2.6318 -0.9395 -0.6562
  922TIP3   OH224400   2.800   3.424   6.658 -0.0156 -0.1226 -0.3271
  922TIP3    H124401   2.776   3.359   6.724  2.4343 -1.3144 -0.4852
  922TIP3    H224402   2.758   3.393   6.578  0.5713 -1.1831 -0.2488
  923TIP3   OH224403   5.845   7.053   0.206  0.3207  0.2872  0.0726
  923TIP3    H124404   5.829   6.963   0.177  2.7761 -0.7822  1.6816
  923TIP3    H224405   5.785   7.106   0.155 -1.3291 -2.2772 -0.8368
  924TIP3   OH224406   6.821   2.792   7.691  0.2944  0.3174 -0.5562
  924TIP3    H124407   6.852   2.828   7.775 -0.4086  0.5807 -0.4046
  924TIP3    H224408   6.865   2.845   7.625 -2.0357  2.6916 -0.3491
  925TIP3   OH224409   1.049   6.702   8.106 -0.2015  0.1570 -0.1071
  925TIP3    H124410   1.003   6.619   8.115  0.5397 -0.0558  2.6791
  925TIP3    H224411   0.985   6.768   8.133  0.0873  0.1928  0.5002
  926TIP3   OH224412   1.459   4.666   6.777  0.8232 -0.6752 -0.0115
  926TIP3    H124413   1.381   4.712   6.744  0.4481 -1.2679  0.0355
  926TIP3    H224414   1.516   4.659   6.701  0.8059 -0.2960 -0.0626
  927TIP3   OH224415   2.282   5.866   2.373 -0.0480 -0.0719  0.2657
  927TIP3    H124416   2.366   5.867   2.418  1.6570  0.9445 -2.6410
  927TIP3    H224417   2.258   5.959   2.365 -0.5074 -0.2424 -0.4451
  928TIP3   OH224418   0.683   4.333   1.209  0.0535  0.4829 -0.0958
  928TIP3    H124419   0.602   4.308   1.252 -0.9775  1.1945 -1.5515
  928TIP3    H224420   0.729   4.249   1.195 -0.1027  0.1426  1.3037
  929TIP3   OH224421   6.454   5.170   0.234  1.0709 -0.3208 -0.4751
  929TIP3    H124422   6.363   5.164   0.264  0.9570 -1.4777 -1.0149
  929TIP3    H224423   6.493   5.237   0.291 -0.3267  0.8259 -0.7920
  930TIP3   OH224424   1.447   2.956   1.532 -0.7965 -0.2872  0.0489
  930TIP3    H124425   1.539   2.935   1.548 -0.8522 -0.4499  0.1629
  930TIP3    H224426   1.431   2.929   1.442 -0.6324  0.0995 -0.1009
  931TIP3   OH224427   4.755   3.344   0.434  0.0642 -0.2346 -0.2060
  931TIP3    H124428   4.750   3.408   0.363  1.6184  1.5058  1.1328
  931TIP3    H224429   4.838   3.363   0.477 -0.9643 -0.9593  2.2972
  932TIP3   OH224430   5.708   4.233   7.758 -0.4048  0.0130  0.1449
  932TIP3    H124431   5.722   4.326   7.740 -2.2602  0.2877 -0.0766
  932TIP3    H224432   5.662   4.231   7.841 -0.4446 -0.7112  0.1140
  933TIP3   OH224433   5.493   5.461   6.742  0.0910  0.6831  0.6575
  933TIP3    H124434   5.432   5.534   6.729 -2.2409 -1.0038  1.3567
  933TIP3    H224435   5.526   5.441   6.654 -0.3689  1.6648  0.2512
  934TIP3   OH224436   5.108   1.306   0.636 -0.5044  0.9469 -0.2582
  934TIP3    H124437   5.029   1.267   0.673 -1.2434  1.9411 -0.7243
  934TIP3    H224438   5.176   1.291   0.702 -0.9172 -0.4868 -0.1426
  935TIP3   OH224439   0.478   4.432   6.659 -0.2753 -0.0770 -0.1070
  935TIP3    H124440   0.433   4.414   6.577  1.7298  0.2117 -1.3396
  935TIP3    H224441   0.534   4.507   6.640  0.6658 -0.3709  1.3456
  936TIP3   OH224442   2.542   2.019   7.521 -0.3307 -0.0489 -0.2920
  936TIP3    H124443   2.607   2.084   7.549 -0.8809  0.2719  0.2861
  936TIP3    H224444   2.524   2.040   7.430 -1.1633  1.2105  0.1278
  937TIP3   OH224445   6.158   2.629   0.201 -0.0743  0.3539  0.5165
  937TIP3    H124446   6.138   2.660   0.290  1.1006  0.2887  0.8209
  937TIP3    H224447   6.252   2.640   0.193  0.2203 -1.9905  0.1879
  938TIP3   OH224448   6.247   0.323   1.531  0.3956  0.1895  0.0645
  938TIP3    H124449   6.167   0.272   1.545  0.6682  0.3278  2.5327
  938TIP3    H224450   6.232   0.368   1.448 -1.1632 -1.4466 -0.6240
  939TIP3   OH224451   2.111   4.146   8.029  0.9658 -0.5441 -0.8609
  939TIP3    H124452   2.131   4.110   8.116 -0.6160  0.4739 -0.0229
  939TIP3    H224453   2.024   4.185   8.039  1.4380  1.0607 -2.4559
  940TIP3   OH224454   0.607   0.100   0.726  0.2266  0.1153  0.1779
  940TIP3    H124455   0.687   0.114   0.776  0.9136  0.0901 -0.8756
  940TIP3    H224456   0.632   0.119   0.635 -0.5454 -1.4543 -0.3952
  941TIP3   OH224457   6.428   4.818   2.161 -0.0033 -0.1397 -0.0342
  941TIP3    H124458   6.486   4.773   2.099  1.0043  1.5414 -0.3647
  941TIP3    H224459   6.485   4.879   2.207 -1.5063  1.6541 -0.4360
  942TIP3   OH224460   6.708   0.201   7.858  0.5368  0.4654  0.4398
  942TIP3    H124461   6.763   0.272   7.890  0.8199  0.5368 -0.1883
  942TIP3    H224462   6.768   0.126   7.852  0.6847  0.6555 -0.6731
  943TIP3   OH224463   3.055   4.902   0.431  0.3116 -0.2044  0.5879
  943TIP3    H124464   2.967   4.872   0.410  0.5554 -0.2850 -0.3455
  943TIP3    H224465   3.070   4.871   0.520 -1.7647  2.4317  2.0172
  944TIP3   OH224466   1.341   2.831   1.277  0.5171  0.2759 -0.9019
  944TIP3    H124467   1.420   2.857   1.230  0.9616  1.1069  0.2548
  944TIP3    H224468   1.276   2.898   1.255  0.5330  0.3123 -0.8392
  945TIP3   OH224469   0.558   6.765   8.137  0.1665  0.0158 -0.2684
  945TIP3    H124470   0.500   6.706   8.184  2.8834 -1.3846  1.5935
  945TIP3    H224471   0.600   6.709   8.071  0.4786  0.6413 -0.6080
  946TIP3   OH224472   0.079   1.651   7.194  0.1222  0.2796  0.1293
  946TIP3    H124473  -0.016   1.663   7.189  0.2575  1.3049 -0.2320
  946TIP3    H224474   0.096   1.574   7.139 -0.8781 -2.4196  3.2330
  947TIP3   OH224475   3.062   5.608   2.739 -0.2591  0.3154 -0.1005
  947TIP3    H124476   3.017   5.523   2.734 -0.0745  0.1510  0.8902
  947TIP3    H224477   3.003   5.669   2.695 -0.2296 -0.3791 -1.1658
  948TIP3   OH224478   0.168   0.126   8.127 -0.8698  0.1920  1.0994
  948TIP3    H124479   0.085   0.149   8.169 -0.5501 -1.5413  2.8365
  948TIP3    H224480   0.152   0.039   8.089 -1.0013  1.4879 -2.1807
  949TIP3   OH224481   2.179   4.898   1.624 -0.2390  0.2080 -0.2046
  949TIP3    H124482   2.084   4.906   1.638 -0.0958  2.2904 -0.1056
  949TIP3    H224483   2.216   4.973   1.669  1.6626 -1.4698  1.1788
  950TIP3   OH224484   3.682   0.616   2.519  0.5440  0.3791 -0.3971
  950TIP3    H124485   3.735   0.694   2.535  2.1544 -0.6461 -0.5137
  950TIP3    H224486   3.619   0.615   2.591  0.9438  1.4020 -0.0087
  951TIP3   OH224487   5.170   1.558   7.291  0.3995  0.0834 -0.1474
  951TIP3    H124488   5.135   1.647   7.282  0.6704  0.3906  1.4784
  951TIP3    H224489   5.216   1.542   7.209  0.3962  1.4660 -0.4426
  952TIP3   OH224490   4.169   5.056   2.345 -0.0570  0.4099 -0.3941
  952TIP3    H124491   4.246   5.113   2.344 -0.1575  0.5841  0.5312
  952TIP3    H224492   4.103   5.103   2.294 -0.3266  1.4201  0.8330
  953TIP3   OH224493   4.116   4.158   1.186 -0.5968  0.3958  0.1832
  953TIP3    H124494   4.133   4.064   1.181 -2.0014  0.1456 -0.2703
  953TIP3    H224495   4.150   4.193   1.104 -2.4674 -0.1529 -0.8845
  954TIP3   OH224496   4.639   3.565   7.835  0.1242 -0.4785 -0.8373
  954TIP3    H124497   4.602   3.486   7.872 -1.1980  1.1010  1.4412
  954TIP3    H224498   4.734   3.552   7.839 -0.0413 -2.7001 -2.4253
  955TIP3   OH224499   6.687   4.893   6.851  0.4282  0.5466 -0.1702
  955TIP3    H124500   6.605   4.846   6.836  0.6159  0.9951 -3.3485
  955TIP3    H224501   6.755   4.827   6.835  0.6994  0.6117  0.6935
  956TIP3   OH224502   2.183   6.123   8.035 -0.7381  0.1129  0.0030
  956TIP3    H124503   2.148   6.211   8.019 -0.7752  0.4401  1.7388
  956TIP3    H224504   2.273   6.138   8.064 -1.9185 -0.0239  4.3515
  957TIP3   OH224505   4.774   5.005   7.078  0.1367 -0.5506  0.6453
  957TIP3    H124506   4.684   4.973   7.078  0.3854 -1.2815  0.0965
  957TIP3    H224507   4.769   5.092   7.040 -0.2221 -0.9569 -0.2542
  958TIP3   OH224508   0.874   2.867   0.104  0.1463 -0.5421 -0.1135
  958TIP3    H124509   0.853   2.949   0.060  1.4868  0.6274  1.2738
  958TIP3    H224510   0.795   2.813   0.095 -2.4776  2.4749  2.4265
  959TIP3   OH224511   0.769   4.447   8.175  0.9812 -0.2260 -0.1113
  959TIP3    H124512   0.690   4.407   8.212  0.8620  0.2622  0.1719
  959TIP3    H224513   0.748   4.460   8.082  0.7021 -0.0301 -0.0207
  960TIP3   OH224514   5.000   3.418   1.858 -0.3439 -0.3784 -0.7190
  960TIP3    H124515   4.971   3.327   1.857  0.6932 -0.7209 -2.0374
  960TIP3    H224516   4.960   3.455   1.937 -1.6956 -1.6564 -0.7689
  961TIP3   OH224517   3.037   2.499   0.031  0.1224  0.0006  0.2452
  961TIP3    H124518   2.981   2.573   0.054  0.1352 -0.4910  2.0052
  961TIP3    H224519   3.112   2.538  -0.015 -0.8326  0.8382 -0.6497
  962TIP3   OH224520   6.912   5.827   2.229 -0.0344  0.2761 -0.6352
  962TIP3    H124521   6.928   5.886   2.303 -1.0638 -0.4184  0.1686
  962TIP3    H224522   6.990   5.836   2.174  0.3624  1.4634  0.0814
  963TIP3   OH224523   5.212   4.022   6.834  0.4146 -0.3568 -0.0637
  963TIP3    H124524   5.124   4.055   6.856  0.8000 -0.4245  1.7558
  963TIP3    H224525   5.199   3.970   6.755 -1.0991 -0.0009 -0.0825
  964TIP3   OH224526   5.368   0.151   1.351 -0.5122 -0.1317 -0.5051
  964TIP3    H124527   5.279   0.188   1.352 -0.1421  0.7813  0.4016
  964TIP3    H224528   5.426   0.227   1.354  0.4041 -0.5742 -3.8785
  965TIP3   OH224529   3.933   4.475   1.668  0.3524 -0.8220  0.2141
  965TIP3    H124530   4.008   4.530   1.687  0.5227 -0.7714 -0.5644
  965TIP3    H224531   3.900   4.449   1.754 -0.3903  1.3605  0.6548
  966TIP3   OH224532   6.983   6.033   1.871 -0.1649 -0.2816 -0.2200
  966TIP3    H124533   7.078   6.021   1.865  0.1274  1.7155 -0.3171
  966TIP3    H224534   6.970   6.126   1.852 -1.8495  0.1684  2.6331
  967TIP3   OH224535   2.527   5.852   8.120  0.4690 -0.0302 -0.2317
  967TIP3    H124536   2.517   5.845   8.214 -0.1728  1.4490 -0.1533
  967TIP3    H224537   2.438   5.848   8.085  0.6217  0.3272 -0.6861
  968TIP3   OH224538   1.516   4.162   0.475 -0.6772  0.3835  0.2227
  968TIP3    H124539   1.558   4.172   0.389  0.2151 -0.2639  0.5666
  968TIP3    H224540   1.433   4.209   0.466  0.5818  2.6903 -0.1406
  969TIP3   OH224541   3.301   3.753   2.509 -0.0364 -0.3138  0.1176
  969TIP3    H124542   3.311   3.815   2.581 -0.2868 -0.1823  0.0420
  969TIP3    H224543   3.213   3.771   2.475 -0.3880 -1.1914  0.5455
  970TIP3   OH224544   0.570   4.539   1.881  0.1725 -0.0316  0.1097
  970TIP3    H124545   0.546   4.452   1.915  1.5116 -0.5533 -0.2273
  970TIP3    H224546   0.533   4.600   1.945  2.0765 -0.9709  2.2470
  971TIP3   OH224547   5.294   3.724   8.050 -0.8201 -0.7684 -0.1422
  971TIP3    H124548   5.283   3.779   7.972 -0.6672 -0.5198  0.0105
  971TIP3    H224549   5.227   3.657   8.041 -1.1659 -0.4200 -0.2133
  972TIP3   OH224550   1.334   3.524   1.499 -0.7839  0.4030 -0.1256
  972TIP3    H124551   1.318   3.480   1.582  0.6375  0.2494  0.0947
  972TIP3    H224552   1.348   3.453   1.437  0.3835  0.5177 -0.0099
  973TIP3   OH224553   4.797   0.614   2.470 -0.3754  0.0554  0.3138
  973TIP3    H124554   4.817   0.569   2.387 -0.6064 -0.9965  0.8118
  973TIP3    H224555   4.876   0.602   2.523  0.4892  2.2534 -0.3453
  974TIP3   OH224556   5.019   4.029   2.552  0.5266  0.0542  0.1662
  974TIP3    H124557   5.088   4.069   2.499  1.0959 -0.7564  0.2859
  974TIP3    H224558   4.992   4.099   2.612  0.5271  0.6882 -0.5531
  975TIP3   OH224559   2.471   4.848   0.964 -0.1561 -0.3678 -0.0499
  975TIP3    H124560   2.492   4.849   0.871  1.6537 -0.5195  0.3123
  975TIP3    H224561   2.422   4.930   0.979 -3.3942 -1.8237 -1.6624
  976TIP3   OH224562   6.091   5.191   0.979  0.0998  0.5412 -1.0487
  976TIP3    H124563   6.013   5.141   1.004  0.5455 -1.2739 -3.0073
  976TIP3    H224564   6.093   5.265   1.041 -1.5250 -0.9315  0.9035
  977TIP3   OH224565   4.202   5.936   0.679 -0.0448  0.7732  0.0461
  977TIP3    H124566   4.211   5.884   0.759  0.8119  1.0826  0.1635
  977TIP3    H224567   4.110   5.964   0.679 -0.2909  0.0005  0.4341
  978TIP3   OH224568   2.025   2.771   0.749  0.0048 -0.0182  0.6354
  978TIP3    H124569   1.966   2.704   0.715  0.9581 -0.6027  0.0702
  978TIP3    H224570   2.060   2.733   0.830 -0.7685  0.5501  1.2598
  979TIP3   OH224571   1.656   1.798   0.034 -0.2594 -0.2012 -0.3771
  979TIP3    H124572   1.608   1.755   0.104 -0.2515  0.8378  0.2848
  979TIP3    H224573   1.686   1.727  -0.022  0.3338 -1.1135  1.0484
  980TIP3   OH224574   2.717   0.721   1.364 -0.4219 -0.4338  0.0332
  980TIP3    H124575   2.715   0.693   1.456 -0.2547 -1.5711 -0.2867
  980TIP3    H224576   2.795   0.679   1.328 -1.7676 -2.0270 -1.2019
  981TIP3   OH224577   2.134   2.752   2.398  0.6138  0.4125 -0.1125
  981TIP3    H124578   2.081   2.677   2.372  1.5269  0.4262 -2.2388
  981TIP3    H224579   2.143   2.743   2.492 -2.6643  0.1383  0.2912
  982TIP3   OH224580   2.864   2.899   0.521 -0.1007  0.3730  0.3245
  982TIP3    H124581   2.770   2.911   0.508 -0.1613 -0.4938 -0.1169
  982TIP3    H224582   2.882   2.944   0.603 -0.8713  0.6940  0.3307
  983TIP3   OH224583   2.598   4.366   3.050 -0.4062 -0.0092 -0.6539
  983TIP3    H124584   2.639   4.283   3.071  0.3067  0.1346 -1.4377
  983TIP3    H224585   2.528   4.344   2.988 -0.8700 -0.1343 -0.0938
  984TIP3   OH224586   4.976   6.925   1.796 -0.0190  0.4062 -0.5889
  984TIP3    H124587   4.953   6.855   1.736  0.6793  0.2883 -0.7231
  984TIP3    H224588   4.904   6.928   1.859  0.6258 -1.3950  0.2921
  985TIP3   OH224589   6.905   2.293   2.071 -0.2074 -0.0655  0.0787
  985TIP3    H124590   6.853   2.218   2.100 -0.5279  0.3924  0.6956
  985TIP3    H224591   6.975   2.300   2.135 -0.4863  0.4891  0.3323
  986TIP3   OH224592   5.825   4.908   7.374 -0.0173 -0.4909 -0.2682
  986TIP3    H124593   5.752   4.969   7.383  1.2264  1.1338 -0.5333
  986TIP3    H224594   5.808   4.862   7.292 -1.6955 -1.5692  0.6308
  987TIP3   OH224595   5.910   3.940   0.084  0.0986 -0.3387 -0.6120
  987TIP3    H124596   5.994   3.933   0.040 -0.9263 -2.9379 -2.4468
  987TIP3    H224597   5.849   3.966   0.016 -1.1226 -1.9512 -0.1963
  988TIP3   OH224598   2.630   2.362   1.949 -0.1412 -0.6217 -0.0104
  988TIP3    H124599   2.537   2.377   1.967  0.1683 -1.2314  2.4097
  988TIP3    H224600   2.675   2.402   2.023  1.6578  0.6728 -1.7011
  989TIP3   OH224601   1.666   5.169   7.102  0.2032 -0.0590  0.5432
  989TIP3    H124602   1.723   5.123   7.164  0.3144  1.0489  1.2966
  989TIP3    H224603   1.683   5.127   7.018  1.6185 -0.2195  0.8883
  990TIP3   OH224604   4.159   4.599   2.215  0.0541  0.2266 -0.2196
  990TIP3    H124605   4.161   4.685   2.171  1.2829  1.0026  1.2341
  990TIP3    H224606   4.107   4.614   2.294 -0.3680 -0.5912 -0.3364
  991TIP3   OH224607   4.986   5.825   8.034  0.7791 -0.1516 -0.4607
  991TIP3    H124608   5.074   5.796   8.056  0.5565 -0.4105  0.1049
  991TIP3    H224609   4.929   5.751   8.059  0.1807  0.8210  1.2120
  992TIP3   OH224610   4.203   6.114   7.450 -0.0230 -0.0642  0.1668
  992TIP3    H124611   4.213   6.164   7.369  0.2893 -0.8046 -0.2617
  992TIP3    H224612   4.126   6.153   7.493  1.6811  2.4785  1.1235
  993TIP3   OH224613   1.950   4.506   2.176 -0.0476  0.0140 -0.4791
  993TIP3    H124614   1.863   4.498   2.216 -0.0168 -0.1610 -0.4468
  993TIP3    H224615   1.946   4.450   2.098 -0.1500  0.4587 -0.7943
  994TIP3   OH224616   4.747   3.857   7.431 -0.1410 -0.7395  0.6286
  994TIP3    H124617   4.801   3.836   7.355 -0.1466 -1.4022  0.8003
  994TIP3    H224618   4.805   3.843   7.506 -0.2666 -0.5175  0.7691
  995TIP3   OH224619   6.957   3.090   1.459 -0.0651  0.4475 -0.2545
  995TIP3    H124620   6.971   2.995   1.460  1.3299  0.6331 -0.3531
  995TIP3    H224621   6.959   3.114   1.366  1.0818  0.7657 -0.1563
  996TIP3   OH224622   3.274   5.362   6.801  0.5637  0.2599  0.6540
  996TIP3    H124623   3.352   5.307   6.788 -0.3682 -1.3260  1.4258
  996TIP3    H224624   3.247   5.343   6.891 -0.7841  0.6691  0.3543
  997TIP3   OH224625   4.852   1.826   0.155  0.5825  0.1256  0.0120
  997TIP3    H124626   4.794   1.902   0.154  0.4386  0.0744  1.8451
  997TIP3    H224627   4.899   1.832   0.238  0.1202 -2.1314  0.5023
  998TIP3   OH224628   6.202   4.302   1.440  0.3014 -0.1227  0.3843
  998TIP3    H124629   6.158   4.386   1.428 -1.6641 -0.8192  2.2386
  998TIP3    H224630   6.178   4.251   1.362  0.3396  0.5252 -0.0613
  999TIP3   OH224631   4.635   0.834   0.233  0.0658  0.2493  0.1044
  999TIP3    H124632   4.633   0.923   0.197 -0.6420 -0.0168 -0.5420
  999TIP3    H224633   4.674   0.844   0.320 -1.4401  1.4369  0.6788
 1000TIP3   OH224634   3.495   5.946   0.566 -0.2708 -0.2405 -0.5668
 1000TIP3    H124635   3.501   5.852   0.580 -1.6570 -0.3441 -0.5892
 1000TIP3    H224636   3.507   5.957   0.472 -0.4100 -0.4264 -0.6066
 1001TIP3   OH224637   1.440   1.812   0.616  0.5358  0.0922 -0.1903
 1001TIP3    H124638   1.446   1.897   0.572  0.8095 -0.1011 -0.5342
 1001TIP3    H224639   1.432   1.834   0.709 -0.2552  0.5097 -0.3475
 1002TIP3   OH224640   3.092   6.043   8.141  0.2487 -0.6087 -0.2394
 1002TIP3    H124641   3.160   6.107   8.163 -0.5213  0.2808 -0.3624
 1002TIP3    H224642   3.051   6.078   8.061 -0.7276 -0.8081  0.1514
 1003TIP3   OH224643   4.815   1.267   8.018 -0.7231 -0.0912 -0.4551
 1003TIP3    H124644   4.806   1.193   7.958 -1.6935  1.2148 -2.0210
 1003TIP3    H224645   4.827   1.227   8.104  1.0740 -2.0505 -1.5240
 1004TIP3   OH224646   4.489   7.014   0.027  0.5244  0.2245 -0.5519
 1004TIP3    H124647   4.582   7.017   0.004  1.0327 -2.1002  0.8991
 1004TIP3    H224648   4.486   7.029   0.121 -0.2130 -2.4793 -0.0573
 1005TIP3   OH224649   2.733   4.315   7.213 -0.4918  0.5256 -0.5947
 1005TIP3    H124650   2.689   4.232   7.194 -1.5051  1.4624 -2.6277
 1005TIP3    H224651   2.822   4.304   7.180 -0.4892  0.0953 -0.4454
 1006TIP3   OH224652   1.228   1.553   0.074 -0.8897  0.1204 -0.0504
 1006TIP3    H124653   1.206   1.647   0.077 -1.1459  0.0421  1.3726
 1006TIP3    H224654   1.152   1.510   0.113 -0.5381 -0.6359 -0.1983
 1007TIP3   OH224655   6.330   0.419   0.771  0.0162  0.1281 -0.2394
 1007TIP3    H124656   6.294   0.360   0.704  0.0257 -0.8172  0.5558
 1007TIP3    H224657   6.287   0.392   0.852  0.6921  0.6289  0.3006
 1008TIP3   OH224658   2.436   0.856   7.540 -0.1343 -0.1489 -0.6134
 1008TIP3    H124659   2.503   0.800   7.577  0.3484  0.2329 -0.9034
 1008TIP3    H224660   2.400   0.902   7.616 -1.1361 -1.4610 -0.2563
 1009TIP3   OH224661   3.919   3.878   7.779 -0.2200 -0.4284  0.1540
 1009TIP3    H124662   3.922   3.923   7.694 -0.1500 -2.1314 -0.7996
 1009TIP3    H224663   3.988   3.919   7.830 -0.5973  0.9836 -0.4097
 1010TIP3   OH224664   0.030   0.224   1.182  0.2343 -1.1651  0.2345
 1010TIP3    H124665   0.010   0.213   1.089 -1.0718 -1.8476  0.5752
 1010TIP3    H224666  -0.042   0.277   1.216  1.4348  0.3135  0.6066
 1011TIP3   OH224667   0.902   0.242   6.206  0.2662  0.1520 -0.4794
 1011TIP3    H124668   0.927   0.293   6.129  0.9642 -1.4549 -1.3484
 1011TIP3    H224669   0.834   0.182   6.175 -0.4342  0.4009  0.4993
 1012TIP3   OH224670   2.420   3.008   8.019  0.5171  0.2772  0.0869
 1012TIP3    H124671   2.477   3.022   8.094 -1.3365 -0.5470  1.7163
 1012TIP3    H224672   2.345   2.959   8.053 -0.6159  0.2524 -2.2028
 1013TIP3   OH224673   3.880   6.847   7.976  0.5315  0.0389  0.3558
 1013TIP3    H124674   3.883   6.752   7.988 -1.5400  0.1150  2.1122
 1013TIP3    H224675   3.913   6.882   8.059  1.6613  0.8935 -0.4310
 1014TIP3   OH224676   3.398   5.929   0.840  0.2524 -0.4587  0.5392
 1014TIP3    H124677   3.489   5.923   0.870  0.3724 -0.2451  0.2228
 1014TIP3    H224678   3.404   5.922   0.744 -0.0586 -0.4047  0.5161
 1015TIP3   OH224679   3.580   2.778   7.148 -0.4338  0.5193 -0.3381
 1015TIP3    H124680   3.574   2.727   7.067  0.4456 -1.5206  0.8078
 1015TIP3    H224681   3.603   2.867   7.119  1.6004 -0.5406 -2.2540
 1016TIP3   OH224682   1.877   6.608   0.745  0.2894  0.4283 -0.2600
 1016TIP3    H124683   1.889   6.630   0.837  1.6361  3.5923 -1.0649
 1016TIP3    H224684   1.803   6.661   0.717  0.7865  0.6014 -1.3066
 1017TIP3   OH224685   6.988   5.654   0.230 -0.4316  0.3937  0.7269
 1017TIP3    H124686   7.002   5.716   0.158  0.6775 -0.7337 -0.0726
 1017TIP3    H224687   7.070   5.605   0.235 -1.8771 -2.2513  0.1198
 1018TIP3   OH224688   1.439   4.545   2.264  0.5906  0.2821  0.7003
 1018TIP3    H124689   1.344   4.550   2.255  0.4668 -0.0279  1.6730
 1018TIP3    H224690   1.473   4.584   2.183 -0.3612 -1.6402 -0.7022
 1019TIP3   OH224691   6.962   4.564   0.284 -0.3799  0.3186  0.0298
 1019TIP3    H124692   7.056   4.555   0.302 -0.0953 -1.1213 -1.8316
 1019TIP3    H224693   6.921   4.566   0.370  1.2121 -1.0269  0.8775
 1020TIP3   OH224694   0.538   3.307   7.238  0.5384  0.0303 -0.1545
 1020TIP3    H124695   0.525   3.318   7.144 -0.5703 -0.0841 -0.0342
 1020TIP3    H224696   0.632   3.297   7.249  0.8171  1.3473 -1.1070
 1021TIP3   OH224697   7.031   6.493   1.421  0.2147  0.0790 -0.2070
 1021TIP3    H124698   7.101   6.437   1.386 -0.4332 -0.3930 -0.7603
 1021TIP3    H224699   7.075   6.548   1.486  0.5278 -2.4041  1.8061
 1022TIP3   OH224700   1.316   4.265   0.695  0.5859 -0.1111  0.5234
 1022TIP3    H124701   1.226   4.269   0.661  0.4423  1.6031  1.0059
 1022TIP3    H224702   1.306   4.269   0.790  1.1338 -1.5057  0.6660
 1023TIP3   OH224703   5.970   2.175   0.975  0.0965  1.0130 -0.3050
 1023TIP3    H124704   6.003   2.260   1.005 -0.0222  1.2019 -0.7039
 1023TIP3    H224705   6.007   2.165   0.887 -0.1632  0.8062 -0.3897
 1024TIP3   OH224706   3.347   3.199   2.316  0.1104  0.4886 -0.2904
 1024TIP3    H124707   3.405   3.209   2.391  0.0134  1.3315 -0.3217
 1024TIP3    H224708   3.278   3.265   2.329 -0.1491  0.3452 -0.8918
 1025TIP3   OH224709   2.966   5.750   8.133  0.0660  0.0341 -0.0307
 1025TIP3    H124710   2.997   5.841   8.129 -0.7211  0.2639 -1.9603
 1025TIP3    H224711   3.036   5.704   8.180  1.8337  1.1289 -1.4215
 1026TIP3   OH224712   6.982   2.777   1.032 -0.1120 -0.3299  0.2047
 1026TIP3    H124713   6.894   2.739   1.039 -0.3678  0.0647 -0.7294
 1026TIP3    H224714   6.995   2.791   0.938  0.6624  0.2902  0.3920
 1027TIP3   OH224715   4.128   1.310   8.190  0.2632 -0.5252 -0.1725
 1027TIP3    H124716   4.223   1.312   8.199  0.3776 -1.0726 -1.1276
 1027TIP3    H224717   4.105   1.397   8.158  0.4757 -0.4912 -0.2350
 1028TIP3   OH224718   0.129   6.732   2.190  0.1253 -0.1731  0.1995
 1028TIP3    H124719   0.164   6.751   2.278 -0.8378  0.3543  0.4861
 1028TIP3    H224720   0.037   6.709   2.206 -0.3898  1.1262 -0.7742
 1029TIP3   OH224721   2.883   1.426   1.543  0.0100 -0.2980 -0.0233
 1029TIP3    H124722   2.913   1.373   1.469 -0.1789  0.6612 -0.8155
 1029TIP3    H224723   2.962   1.470   1.574  0.0126 -0.3733  0.0782
 1030TIP3   OH224724   0.146   6.343   1.278  0.4839 -0.3206  0.3049
 1030TIP3    H124725   0.219   6.351   1.339  0.4583 -2.3155  0.6615
 1030TIP3    H224726   0.175   6.278   1.214 -0.1508  0.4834 -0.8275
 1031TIP3   OH224727   5.505   4.308   0.518  0.6347  0.7137 -0.0702
 1031TIP3    H124728   5.579   4.318   0.578  0.3890  1.5979  0.0971
 1031TIP3    H224729   5.431   4.286   0.575  0.9133 -1.0345 -0.3147
 1032TIP3   OH224730   5.571   6.214   0.830  0.7581 -0.3963 -0.1086
 1032TIP3    H124731   5.527   6.272   0.892 -1.2546 -0.1032 -1.6950
 1032TIP3    H224732   5.633   6.164   0.883 -2.7238 -2.1526  2.7781
 1033TIP3   OH224733   0.836   1.293   7.648 -0.3028  0.5594 -0.1265
 1033TIP3    H124734   0.878   1.279   7.563  0.0373  2.5539 -0.3316
 1033TIP3    H224735   0.909   1.311   7.708 -0.6018 -0.0465  0.4334
 1034TIP3   OH224736   3.599   4.632   0.300  0.3630 -0.0728  0.2131
 1034TIP3    H124737   3.624   4.552   0.254 -0.5595 -0.3848  0.2290
 1034TIP3    H224738   3.613   4.702   0.237 -0.7854 -0.4827 -0.5363
 1035TIP3   OH224739   2.002   1.954   7.211  0.3197 -0.2591 -0.3675
 1035TIP3    H124740   2.066   1.977   7.278  0.8415 -0.4811 -0.7796
 1035TIP3    H224741   1.925   2.005   7.233  0.3545 -0.6103  0.6186
 1036TIP3   OH224742   2.652   3.973   0.510 -0.4061  0.0710 -0.2182
 1036TIP3    H124743   2.656   3.878   0.514 -1.4937 -0.0968 -1.8653
 1036TIP3    H224744   2.699   3.996   0.430 -1.1634  0.7966 -0.4758
 1037TIP3   OH224745   5.535   5.031   7.683  0.0253 -0.1777  0.4206
 1037TIP3    H124746   5.441   5.023   7.696 -0.1027  1.1244  0.3703
 1037TIP3    H224747   5.551   5.125   7.676  1.0748 -0.4449 -1.5386
 1038TIP3   OH224748   0.014   2.744   1.978  0.2167 -0.4498 -0.1867
 1038TIP3    H124749   0.065   2.749   2.059  0.3491  0.2799 -0.3066
 1038TIP3    H224750  -0.076   2.761   2.005  0.2912  0.0110 -0.2156
 1039TIP3   OH224751   2.543   6.847   8.080 -0.3002 -0.0724  0.1643
 1039TIP3    H124752   2.450   6.871   8.078 -1.1649 -2.9437  0.5871
 1039TIP3    H224753   2.569   6.848   7.988 -0.5632  1.2498  0.0783
 1040TIP3   OH224754   6.453   1.596   0.023  0.8037  0.0243  0.0911
 1040TIP3    H124755   6.387   1.571  -0.041  0.5465  1.2573 -0.1441
 1040TIP3    H224756   6.511   1.519   0.029  1.1488  0.0533 -2.0114
 1041TIP3   OH224757   6.307   3.415   0.631  0.0588  0.3532 -0.2018
 1041TIP3    H124758   6.350   3.452   0.554 -2.4716  0.7832 -1.5344
 1041TIP3    H224759   6.365   3.345   0.660  1.4997  0.7296 -1.9940
 1042TIP3   OH224760   4.656   7.084   7.111 -0.4226  0.6213 -0.6399
 1042TIP3    H124761   4.613   7.139   7.177 -0.4036 -0.0033 -0.0942
 1042TIP3    H224762   4.621   6.996   7.127  1.6894 -0.1051  0.4017
 1043TIP3   OH224763   2.451   0.424   7.612  0.4401  0.5818  0.1871
 1043TIP3    H124764   2.369   0.394   7.651 -0.1518  4.0473  2.0592
 1043TIP3    H224765   2.432   0.434   7.519 -1.1633  0.9701  0.5335
 1044TIP3   OH224766   3.621   5.383   0.158  0.2876  0.1745  0.0568
 1044TIP3    H124767   3.561   5.404   0.230  1.1209  0.3925  0.7079
 1044TIP3    H224768   3.645   5.467   0.121  1.1210  0.1770  0.5809
 1045TIP3   OH224769   2.306   6.209   0.683 -0.1098 -0.0348  0.5309
 1045TIP3    H124770   2.243   6.150   0.642  1.2022 -0.2755 -1.2640
 1045TIP3    H224771   2.375   6.151   0.716  1.2875  0.4139 -1.4227
 1046TIP3   OH224772   1.984   0.442   6.486  0.1779 -0.1186  0.4998
 1046TIP3    H124773   2.044   0.444   6.560  0.8026  0.1401 -0.0044
 1046TIP3    H224774   2.003   0.522   6.437  1.3393 -1.3156 -1.1334
 1047TIP3   OH224775   0.996   3.018   1.518 -0.3463  0.1469 -0.2541
 1047TIP3    H124776   1.049   2.939   1.511  2.7214  1.8365  1.6539
 1047TIP3    H224777   1.011   3.064   1.435  1.8917  0.9102  0.5017
 1048TIP3   OH224778   4.229   3.611   1.713  0.2451  0.0399  0.5525
 1048TIP3    H124779   4.286   3.534   1.722 -0.3535 -0.6242 -1.0891
 1048TIP3    H224780   4.155   3.593   1.772  0.1711 -0.5912  0.2754
 1049TIP3   OH224781   3.255   0.102   2.009  0.0473 -0.0802  0.0619
 1049TIP3    H124782   3.199   0.045   2.063 -0.1781  0.2490  0.1798
 1049TIP3    H224783   3.344   0.072   2.026 -0.1018 -0.7005 -0.2313
 1050TIP3   OH224784   4.585   3.809   1.744  0.1580 -0.0336  0.1443
 1050TIP3    H124785   4.620   3.721   1.759  1.5674  0.6480  1.0746
 1050TIP3    H224786   4.553   3.837   1.830  2.5537  1.5066  0.6385
 1051TIP3   OH224787   5.413   0.747   0.316  0.0838  0.6629 -0.1516
 1051TIP3    H124788   5.353   0.673   0.320  0.4238  0.3230 -1.1372
 1051TIP3    H224789   5.362   0.817   0.277  0.0608  0.6484 -0.1477
 1052TIP3   OH224790   7.015   3.092   7.653  0.0548 -0.2005  0.1759
 1052TIP3    H124791   7.001   3.024   7.587 -1.4333 -0.6431  0.8927
 1052TIP3    H224792   7.061   3.162   7.607 -0.6116 -0.6587 -1.2328
 1053TIP3   OH224793   1.214   1.038   0.791  0.8062 -0.3633 -0.9629
 1053TIP3    H124794   1.292   1.086   0.819 -1.2984  1.3118  2.9667
 1053TIP3    H224795   1.232   0.947   0.814  1.3566  0.1451  0.8133
 1054TIP3   OH224796   2.754   3.350   8.069 -0.1857  0.7334  0.4334
 1054TIP3    H124797   2.773   3.398   7.989  0.5355  0.7314  0.5982
 1054TIP3    H224798   2.659   3.334   8.066 -0.2164  1.0296 -0.2458
 1055TIP3   OH224799   4.754   2.101   7.981 -0.3353  0.0683  0.2916
 1055TIP3    H124800   4.811   2.063   7.914 -0.3295 -0.8088  0.7756
 1055TIP3    H224801   4.738   2.029   8.042 -1.0010  0.6311  0.7963
 1056TIP3   OH224802   4.532   4.969   1.552  0.1546 -0.2088  0.0933
 1056TIP3    H124803   4.531   4.949   1.458  1.3298 -0.2657  0.0860
 1056TIP3    H224804   4.558   4.886   1.593  2.4625  0.5339  0.2504
 1057TIP3   OH224805   4.186   2.480   8.106  0.4017  0.1733  0.4600
 1057TIP3    H124806   4.145   2.535   8.173 -0.3916 -0.4402  0.5033
 1057TIP3    H224807   4.118   2.417   8.083  0.2396  1.0749 -1.7707
 1058TIP3   OH224808   4.931   0.359   0.848  0.7214 -0.0574  0.0381
 1058TIP3    H124809   4.944   0.315   0.764  0.4152 -2.3027  1.1022
 1058TIP3    H224810   4.838   0.382   0.849  0.6316 -0.4201 -0.0441
 1059TIP3   OH224811   3.364   4.062   7.595  0.2042 -0.0230 -0.8066
 1059TIP3    H124812   3.361   3.970   7.624  0.6676  0.4700  0.9019
 1059TIP3    H224813   3.407   4.058   7.509  1.5556 -1.2763 -0.1331
 1060TIP3   OH224814   5.975   3.905   2.032 -0.1763  0.3269  0.0384
 1060TIP3    H124815   5.950   3.941   2.117  1.3962  0.8714  0.3115
 1060TIP3    H224816   6.024   3.975   1.990 -2.2787  0.6663 -2.0387
 1061TIP3   OH224817   6.685   5.454   6.258 -0.5412 -0.2770  0.5590
 1061TIP3    H124818   6.710   5.363   6.242 -0.6441 -0.3492  0.8010
 1061TIP3    H224819   6.761   5.504   6.231 -0.9146 -0.3456 -0.6979
 1062TIP3   OH224820   0.588   6.007   1.792 -1.1676  0.0941  0.7907
 1062TIP3    H124821   0.586   5.970   1.703 -0.4861 -1.2043  1.2970
 1062TIP3    H224822   0.543   5.943   1.846 -2.1268  1.1713  1.3059
 1063TIP3   OH224823   6.303   4.034   8.122  0.1027 -0.2989  0.2813
 1063TIP3    H124824   6.386   4.000   8.155  0.4022  1.3329  1.2942
 1063TIP3    H224825   6.310   4.129   8.130 -1.2195 -0.0172 -1.2054
 1064TIP3   OH224826   6.385   6.503   1.110 -0.2501  0.2003  0.3482
 1064TIP3    H124827   6.322   6.477   1.043 -1.7420  1.0817  1.3483
 1064TIP3    H224828   6.433   6.575   1.071  0.6407 -0.8990 -0.6678
 1065TIP3   OH224829   1.190   5.883   6.705  0.3486 -0.2881  0.3528
 1065TIP3    H124830   1.105   5.869   6.747 -0.8035  1.5366 -1.2315
 1065TIP3    H224831   1.181   5.966   6.659  2.1744 -1.1961 -1.8455
 1066TIP3   OH224832   5.107   1.041   1.250  0.4580  0.1214 -0.3501
 1066TIP3    H124833   5.089   0.994   1.332 -0.3772 -0.5010 -0.8700
 1066TIP3    H224834   5.195   1.077   1.261 -0.1818  1.2859  1.3983
 1067TIP3   OH224835   1.557   3.198   0.223 -0.2130 -0.1099  0.2286
 1067TIP3    H124836   1.529   3.183   0.314  1.2943 -1.1130  0.5697
 1067TIP3    H224837   1.529   3.287   0.204  0.7382  0.6684  2.2121
 1068TIP3   OH224838   0.490   4.278   2.028 -0.1254 -0.5486 -0.0507
 1068TIP3    H124839   0.475   4.325   2.110  0.7500  0.8779 -0.6752
 1068TIP3    H224840   0.486   4.185   2.052 -2.0552 -0.1992  1.1952
 1069TIP3   OH224841   1.649   1.962   2.295 -1.2833 -0.1513  0.3253
 1069TIP3    H124842   1.671   2.041   2.246 -0.9124 -0.4877 -0.0630
 1069TIP3    H224843   1.715   1.957   2.364 -1.2540 -0.1677  0.2960
 1070TIP3   OH224844   1.552   1.519   2.023  0.0288 -0.7685 -0.5680
 1070TIP3    H124845   1.486   1.467   2.068  0.5492 -0.6957  0.2935
 1070TIP3    H224846   1.595   1.569   2.092  0.0901  0.2018 -1.2787
 1071TIP3   OH224847   3.143   5.061   7.290  0.6114 -0.5243 -0.1856
 1071TIP3    H124848   3.206   5.131   7.307  1.3778 -1.0772 -0.7068
 1071TIP3    H224849   3.196   4.986   7.264 -0.1701 -1.4266  0.7357
 1072TIP3   OH224850   4.541   6.251   7.354  0.4504  0.8801 -0.3106
 1072TIP3    H124851   4.530   6.321   7.289 -0.0815  1.1480  0.0573
 1072TIP3    H224852   4.507   6.288   7.435 -0.7085 -0.1117 -0.3090
 1073TIP3   OH224853   0.836   4.914   2.177 -0.2033  0.3096 -0.3753
 1073TIP3    H124854   0.907   4.875   2.125  1.4177  0.0838  1.8252
 1073TIP3    H224855   0.878   4.938   2.260 -3.1171 -1.8168  1.9430
 1074TIP3   OH224856   1.260   6.764   0.073 -0.0758  0.4607  0.1015
 1074TIP3    H124857   1.183   6.721   0.036 -0.4260  0.6737  0.5648
 1074TIP3    H224858   1.248   6.857   0.053 -0.3716  0.6062  0.8990
 1075TIP3   OH224859   3.423   4.716   1.036  0.6839  0.0579 -0.1145
 1075TIP3    H124860   3.473   4.739   1.115  1.1506  0.6373 -0.5694
 1075TIP3    H224861   3.489   4.712   0.967  0.2033  0.0446 -0.5765
 1076TIP3   OH224862   3.086   0.697   2.258  0.5488  0.0712  0.2115
 1076TIP3    H124863   3.149   0.696   2.329 -0.2874 -0.2736  0.9746
 1076TIP3    H224864   3.023   0.628   2.281  0.2138  0.0110 -0.8181
 1077TIP3   OH224865   4.020   4.956   8.017 -0.3658  0.0300 -0.5751
 1077TIP3    H124866   4.064   4.999   7.943 -0.4337  1.2331  0.0615
 1077TIP3    H224867   4.090   4.910   8.063  0.2378  1.6543  0.2363
 1078TIP3   OH224868   1.583   5.864   0.755 -0.1648  0.1475  0.1832
 1078TIP3    H124869   1.529   5.786   0.753  0.2947 -0.1703 -0.1606
 1078TIP3    H224870   1.574   5.901   0.667  1.8051 -1.0648 -0.6013
 1079TIP3   OH224871   0.576   1.513   1.869 -0.3642  0.7593 -0.5288
 1079TIP3    H124872   0.643   1.499   1.936 -1.8689  0.5194  1.0019
 1079TIP3    H224873   0.592   1.602   1.838  1.4251  0.2672 -1.1465
 1080TIP3   OH224874   3.722   2.826   0.886 -0.0339  0.0429 -0.5378
 1080TIP3    H124875   3.800   2.775   0.904 -0.5052  0.0874  1.9702
 1080TIP3    H224876   3.751   2.917   0.891 -0.4559  0.0977  1.8939
 1081TIP3   OH224877   4.951   0.535   6.704 -0.3780  0.3962 -0.2232
 1081TIP3    H124878   4.931   0.445   6.677 -1.8585  1.1479 -1.8426
 1081TIP3    H224879   5.045   0.534   6.724  0.1079 -1.0754 -2.2304
 1082TIP3   OH224880   6.200   4.647   2.222  0.3442 -0.4324 -0.3233
 1082TIP3    H124881   6.162   4.618   2.139 -1.6247  1.7077 -0.2484
 1082TIP3    H224882   6.290   4.672   2.200  0.8144 -2.6121 -1.1512
 1083TIP3   OH224883   2.093   2.877   7.785  0.4607 -0.5168 -0.1405
 1083TIP3    H124884   2.161   2.827   7.830 -1.2615 -0.9025  2.2629
 1083TIP3    H224885   2.047   2.813   7.731  1.1764 -0.5095 -0.7753
 1084TIP3   OH224886   5.083   2.201   7.386 -0.5044 -0.0607 -0.2970
 1084TIP3    H124887   5.158   2.250   7.421 -1.7118  0.4486  1.7545
 1084TIP3    H224888   5.037   2.265   7.332  0.1833 -0.1929 -1.0561
 1085TIP3   OH224889   1.189   3.266   7.555  0.3396 -0.1348 -0.0909
 1085TIP3    H124890   1.146   3.351   7.549  0.2277 -0.2945 -2.3393
 1085TIP3    H224891   1.271   3.284   7.600  0.1990  1.1053 -0.2945
 1086TIP3   OH224892   4.056   2.239   8.050  0.2018  0.0562 -0.1961
 1086TIP3    H124893   4.149   2.238   8.072 -0.0500  0.8404  0.9864
 1086TIP3    H224894   4.053   2.219   7.957  1.3348 -3.3800  0.3788
 1087TIP3   OH224895   2.228   1.551   6.615  0.7332 -0.3287 -0.3676
 1087TIP3    H124896   2.211   1.591   6.529  0.6525 -1.8362 -1.0802
 1087TIP3    H224897   2.291   1.610   6.656  2.7977 -0.8724 -2.5178
 1088TIP3   OH224898   6.758   1.710   0.330  1.0458  0.0431  0.4868
 1088TIP3    H124899   6.707   1.707   0.411 -0.2003 -1.1458 -0.2994
 1088TIP3    H224900   6.769   1.618   0.306  0.3486  0.3976 -1.3181
 1089TIP3   OH224901   2.652   0.162   6.046  0.6812 -0.3986  0.1860
 1089TIP3    H124902   2.635   0.238   5.991  1.0060 -0.4953 -0.0531
 1089TIP3    H224903   2.568   0.143   6.088  0.4914 -0.1798 -0.0955
 1090TIP3   OH224904   4.727   0.917   6.721  0.2856  0.3618  0.1867
 1090TIP3    H124905   4.759   1.007   6.717  0.5288  0.2645 -0.1877
 1090TIP3    H224906   4.663   0.917   6.792  1.4808  0.4485  1.2980
 1091TIP3   OH224907   6.243   0.220   0.554 -0.2769  0.1559 -0.8507
 1091TIP3    H124908   6.315   0.164   0.525 -0.7888 -0.5191 -0.8167
 1091TIP3    H224909   6.209   0.177   0.633 -0.9017  0.3202 -1.0301
 1092TIP3   OH224910   3.821   3.355   7.618 -0.3329  0.1815 -0.7335
 1092TIP3    H124911   3.907   3.367   7.657 -0.0407 -0.2486 -1.2392
 1092TIP3    H224912   3.803   3.438   7.573 -1.1205  1.0756  1.1387
 1093TIP3   OH224913   5.661   0.360   6.978  0.6435 -0.0341 -0.3951
 1093TIP3    H124914   5.738   0.394   7.023  0.4200  1.2025 -0.8798
 1093TIP3    H224915   5.676   0.383   6.886  0.7411 -1.8161 -0.8519
 1094TIP3   OH224916   3.625   1.464   2.721 -0.4846  0.4380 -0.2443
 1094TIP3    H124917   3.667   1.541   2.759  1.5632 -0.2790 -0.9085
 1094TIP3    H224918   3.698   1.410   2.689 -1.7485 -2.2382  1.0467
 1095TIP3   OH224919   2.440   6.704   2.345  0.2140  0.2569 -0.1154
 1095TIP3    H124920   2.382   6.776   2.319 -0.7302  0.0512  1.3147
 1095TIP3    H224921   2.397   6.625   2.313  1.3193  0.2911 -1.8063
 1096TIP3   OH224922   3.443   2.044   7.108 -0.7083 -0.5421 -0.1857
 1096TIP3    H124923   3.467   1.953   7.088 -0.4885 -0.6381  0.5034
 1096TIP3    H224924   3.489   2.063   7.190  0.3057  0.6099 -0.9939
 1097TIP3   OH224925   6.327   3.108   0.003 -0.3306 -0.0305 -0.2960
 1097TIP3    H124926   6.282   3.191  -0.007  0.2786  0.4242  0.5697
 1097TIP3    H224927   6.330   3.071  -0.085 -2.6412 -0.2375 -0.3309
 1098TIP3   OH224928   3.936   3.068   6.401  0.2623 -0.2193 -0.0815
 1098TIP3    H124929   3.853   3.049   6.357 -0.1558  0.9830  0.1344
 1098TIP3    H224930   4.003   3.036   6.340 -0.3387 -0.1447 -0.8029
 1099TIP3   OH224931   2.947   1.037   6.734 -0.1750  0.3602 -0.4515
 1099TIP3    H124932   2.891   1.046   6.812 -0.9110 -0.9229 -0.7963
 1099TIP3    H224933   2.901   0.973   6.680  1.4418 -0.4383 -0.9297
 1100TIP3   OH224934   6.288   4.685   7.607 -0.1346 -0.6559  0.4991
 1100TIP3    H124935   6.313   4.776   7.590  0.8183 -0.8660  0.7219
 1100TIP3    H224936   6.343   4.633   7.548  0.4264 -1.1706  1.4520
 1101TIP3   OH224937   1.153   0.496   0.867 -0.0692  0.5578  0.2027
 1101TIP3    H124938   1.222   0.440   0.903  2.6446  1.1859 -3.4063
 1101TIP3    H224939   1.076   0.439   0.862  0.7022 -0.8054  2.5350
 1102TIP3   OH224940   5.692   0.005   1.441 -0.0957  0.3528 -0.1688
 1102TIP3    H124941   5.615  -0.036   1.400 -0.1967  1.0561 -0.6925
 1102TIP3    H224942   5.709   0.082   1.388  0.3190  0.7943  0.5914
 1103TIP3   OH224943   3.448   3.517   6.628  0.9860  0.2379 -0.0535
 1103TIP3    H124944   3.417   3.603   6.656  0.5780  0.7874 -2.0205
 1103TIP3    H224945   3.396   3.455   6.680  0.7146  1.1663  0.8157
 1104TIP3   OH224946   4.026   4.089   7.282  0.5188 -0.2058 -0.2556
 1104TIP3    H124947   3.934   4.089   7.255  0.9387  1.4395 -1.8430
 1104TIP3    H224948   4.050   3.996   7.284 -1.1777 -0.6768  0.3199
 1105TIP3   OH224949   2.421   1.113   7.682 -0.2676  0.5285 -0.2291
 1105TIP3    H124950   2.493   1.170   7.653 -1.3917  0.7950 -2.6841
 1105TIP3    H224951   2.382   1.160   7.756  0.2268  1.8433 -0.7713
 1106TIP3   OH224952   1.149   1.132   7.951 -0.3943 -0.2835  0.4590
 1106TIP3    H124953   1.080   1.150   8.015  0.0518  0.2240  0.7997
 1106TIP3    H224954   1.221   1.094   8.002 -0.7916 -1.7831 -0.0455
 1107TIP3   OH224955   2.374   0.953   7.049 -0.3427 -0.3616 -0.5210
 1107TIP3    H124956   2.378   1.023   7.114  0.9325 -1.3870  0.5545
 1107TIP3    H224957   2.432   0.983   6.978  0.5865 -0.5348  0.1549
 1108TIP3   OH224958   3.453   5.694   7.817  0.2181  0.6769 -0.0720
 1108TIP3    H124959   3.503   5.645   7.883  1.3978  0.2411 -1.2376
 1108TIP3    H224960   3.399   5.754   7.867 -1.4998 -1.9595  1.4650
 1109TIP3   OH224961   2.875   2.352   1.187 -0.0562 -0.1454 -0.4507
 1109TIP3    H124962   2.902   2.421   1.248 -1.9682 -0.2358  0.5817
 1109TIP3    H224963   2.861   2.275   1.242 -0.8947 -0.5056 -1.1438
 1110TIP3   OH224964   1.290   6.780   8.014  0.0282 -0.0824 -0.1583
 1110TIP3    H124965   1.208   6.746   8.051 -1.3577 -0.3536 -3.2049
 1110TIP3    H224966   1.329   6.705   7.970  1.5387  0.2596  0.5482
 1111TIP3   OH224967   0.989   2.671   0.257  0.9108 -0.2194  0.2157
 1111TIP3    H124968   0.948   2.736   0.201  1.5872  0.3084  0.3118
 1111TIP3    H224969   1.009   2.597   0.199 -0.7677 -0.7842  0.3050
 1112TIP3   OH224970   4.575   4.706   7.261 -0.3810  0.1156 -0.0921
 1112TIP3    H124971   4.498   4.651   7.247 -0.7496  0.4849  0.4502
 1112TIP3    H224972   4.584   4.710   7.356  0.7192 -0.4890 -0.1507
 1113TIP3   OH224973   5.263   6.244   7.200 -0.1980 -0.2223  0.1555
 1113TIP3    H124974   5.203   6.182   7.159 -0.9049  0.1482  0.6201
 1113TIP3    H224975   5.300   6.294   7.128  0.4974 -1.2677 -0.2490
 1114TIP3   OH224976   6.006   0.797   7.729  0.2521 -0.2746 -0.5931
 1114TIP3    H124977   6.065   0.827   7.660 -1.0656  1.4686 -1.0344
 1114TIP3    H224978   5.919   0.817   7.695 -0.4375  0.3867  1.4489
 1115TIP3   OH224979   6.587   1.352   8.219  0.6594  0.1449  0.5460
 1115TIP3    H124980   6.656   1.285   8.223  2.5021  1.5825 -3.1350
 1115TIP3    H224981   6.509   1.303   8.195  1.8088 -0.9038 -1.3611
 1116TIP3   OH224982   3.211   3.539   1.737  0.1706 -0.1006  0.7333
 1116TIP3    H124983   3.219   3.633   1.754  0.8198 -0.2908  1.5738
 1116TIP3    H224984   3.135   3.512   1.788 -0.1504  0.0097  0.3124
 1117TIP3   OH224985   5.154   0.585   2.120  0.3439 -0.2688 -0.3236
 1117TIP3    H124986   5.137   0.596   2.214 -1.9021 -0.3822 -0.6554
 1117TIP3    H224987   5.161   0.674   2.086  0.4682 -0.2177 -0.1676
 1118TIP3   OH224988   0.762   2.309   0.318  0.1728  0.3072 -0.6720
 1118TIP3    H124989   0.855   2.286   0.317  0.0388 -0.2552 -0.6654
 1118TIP3    H224990   0.719   2.238   0.270 -0.3266  0.2310 -0.1226
 1119TIP3   OH224991   2.972   2.958   2.376  0.5960  0.4219 -0.3918
 1119TIP3    H124992   3.023   3.036   2.357 -1.1408  1.4400 -1.1308
 1119TIP3    H224993   2.881   2.985   2.363 -0.0667 -1.6743 -0.5125
 1120TIP3   OH224994   4.976   5.290   7.181 -0.6684 -0.3352 -0.0341
 1120TIP3    H124995   5.023   5.352   7.236  0.3290 -0.5617 -0.5942
 1120TIP3    H224996   4.986   5.206   7.224 -2.4364 -0.0786  0.9839
 1121TIP3   OH224997   4.006   1.986   2.198  0.4399 -0.0766 -0.2265
 1121TIP3    H124998   4.028   1.896   2.223 -1.5696 -0.3231  0.9158
 1121TIP3    H224999   3.963   1.978   2.113  0.6274 -0.1563 -0.3127
 1122TIP3   OH225000   7.020   6.964   8.152 -0.0170 -0.3317  0.1513
 1122TIP3    H125001   7.050   6.894   8.210  1.0735 -0.6866 -0.8171
 1122TIP3    H225002   7.069   6.952   8.071 -0.1506  1.2616 -0.2102
 1123TIP3   OH225003   0.026   1.046   7.394  0.0268 -0.0749 -0.4375
 1123TIP3    H125004   0.019   1.055   7.489 -0.5901 -1.4804 -0.3168
 1123TIP3    H225005  -0.042   1.103   7.359 -0.4341 -0.3384  0.0136
 1124TIP3   OH225006   4.347   2.585   1.606  0.5511  0.0123 -0.2070
 1124TIP3    H125007   4.355   2.672   1.646  1.2285  0.2193 -0.7734
 1124TIP3    H225008   4.283   2.597   1.535 -0.7388 -0.3812  0.8558
 1125TIP3   OH225009   1.498   2.204   1.906  0.5508 -0.4656  0.3142
 1125TIP3    H125010   1.510   2.292   1.870  2.7502 -0.8552 -0.0760
 1125TIP3    H225011   1.518   2.146   1.832 -2.2831 -1.3622  0.1542
 1126TIP3   OH225012   6.755   1.887   1.084 -0.1976 -0.0684 -0.2065
 1126TIP3    H125013   6.732   1.892   0.991  0.7679  2.4407 -0.4040
 1126TIP3    H225014   6.838   1.933   1.090 -1.7664  2.8115  2.2989
 1127TIP3   OH225015   4.250   6.774   6.589  0.1436  0.0909 -0.3107
 1127TIP3    H125016   4.336   6.777   6.630  1.0216 -2.5081 -1.7217
 1127TIP3    H225017   4.261   6.819   6.506 -0.2665  0.9750  0.1040
 1128TIP3   OH225018   1.844   1.900   7.989 -0.6465  0.8163 -0.1053
 1128TIP3    H125019   1.841   1.863   7.901 -0.3431 -1.0155  0.6170
 1128TIP3    H225020   1.784   1.975   7.985  0.6257  1.8172 -2.2892
 1129TIP3   OH225021   1.711   0.865   6.962 -0.0604 -0.0746  0.0748
 1129TIP3    H125022   1.772   0.801   6.924 -0.4421 -0.3805 -0.0335
 1129TIP3    H225023   1.755   0.950   6.950  0.4557 -0.3158  0.2326
 1130TIP3   OH225024   5.089   1.453   2.169  0.6826  0.3849  0.0417
 1130TIP3    H125025   5.183   1.444   2.155  0.6943 -0.4677  0.5870
 1130TIP3    H225026   5.078   1.540   2.208  1.4119 -0.0947  1.3641
 1131TIP3   OH225027   4.045   1.242   1.797 -1.0853 -0.3387 -0.3332
 1131TIP3    H125028   3.963   1.203   1.829 -2.7312  3.3831  0.4899
 1131TIP3    H225029   4.061   1.200   1.713 -3.0541 -2.1278  0.0995
 1132TIP3   OH225030   6.488   2.099   8.185  0.2429  0.3959  0.1088
 1132TIP3    H125031   6.410   2.083   8.238  1.8119  0.3447  2.5435
 1132TIP3    H225032   6.558   2.116   8.249  2.8583 -2.2466 -1.7699
 1133TIP3   OH225033   6.941   4.286   7.462 -0.0600  0.2999 -0.1763
 1133TIP3    H125034   7.024   4.270   7.418 -0.6164 -0.1851 -1.0838
 1133TIP3    H225035   6.927   4.381   7.454  0.8100  0.5191  0.7502
 1134TIP3   OH225036   2.356   1.449   2.161 -0.4252  0.6032 -0.4737
 1134TIP3    H125037   2.424   1.433   2.095  1.3962  3.1485  0.6066
 1134TIP3    H225038   2.340   1.363   2.200 -0.2627 -0.6452 -2.9591
 1135TIP3   OH225039   5.495   5.105   7.112 -0.0091 -0.1420 -0.4573
 1135TIP3    H125040   5.420   5.066   7.066  0.0651  0.3251 -0.9841
 1135TIP3    H225041   5.496   5.196   7.083  0.3010  0.0535  0.1482
 1136TIP3   OH225042   4.395   1.714   0.657  0.7196  0.4495 -0.2667
 1136TIP3    H125043   4.480   1.669   0.668 -0.0322 -0.9576  0.0901
 1136TIP3    H225044   4.396   1.784   0.721  2.0819  1.2217 -1.0778
 1137TIP3   OH225045   3.488   3.747   1.618 -0.3675 -0.0816  0.5153
 1137TIP3    H125046   3.529   3.700   1.689  2.1943  0.7426 -0.3164
 1137TIP3    H225047   3.503   3.693   1.540  0.0883  0.7172  0.0270
 1138TIP3   OH225048   4.178   2.961   1.887 -0.4712  0.1685  0.5145
 1138TIP3    H125049   4.246   3.023   1.862  0.7137 -0.9873  0.7436
 1138TIP3    H225050   4.103   3.015   1.912  0.9376  1.5545  1.9596
 1139TIP3   OH225051   6.636   6.075   0.985  0.1813 -0.3817  0.3294
 1139TIP3    H125052   6.653   6.079   1.079 -0.7751 -0.6235  0.5298
 1139TIP3    H225053   6.586   5.994   0.973 -1.0026  0.3987 -0.1522
 1140TIP3   OH225054   6.470   1.037   1.713  0.2343  0.2414  0.1289
 1140TIP3    H125055   6.489   1.131   1.719 -3.3469  1.2335 -1.0575
 1140TIP3    H225056   6.488   1.003   1.800  1.8717  1.9419  0.5173
 1141TIP3   OH225057   5.469   2.333   7.189  0.3698 -0.1935 -0.1062
 1141TIP3    H125058   5.472   2.251   7.239 -0.8114 -0.2358 -0.0754
 1141TIP3    H225059   5.469   2.402   7.256 -1.8734 -0.2601  0.0649
 1142TIP3   OH225060   5.635   5.556   7.885  0.0097  0.0570 -0.2291
 1142TIP3    H125061   5.689   5.602   7.950 -0.3205  0.0974  0.0207
 1142TIP3    H225062   5.547   5.591   7.899 -0.7840 -2.4548  1.7010
 1143TIP3   OH225063   4.392   4.130   2.095 -0.3572  0.3065  0.2195
 1143TIP3    H125064   4.442   4.208   2.117  0.3169 -0.5207  1.7959
 1143TIP3    H225065   4.390   4.128   1.999 -0.6345  2.3832  0.1401
 1144TIP3   OH225066   2.369   6.035   1.004 -0.1031  0.8998  0.6671
 1144TIP3    H125067   2.326   5.965   0.955  0.7716 -0.4460  1.7923
 1144TIP3    H225068   2.449   5.996   1.038 -0.7505  1.7173  3.3465
 1145TIP3   OH225069   2.659   1.691   8.113 -0.4401 -0.0210 -0.1190
 1145TIP3    H125070   2.690   1.740   8.036 -2.1720  1.9419  0.3531
 1145TIP3    H225071   2.701   1.735   8.187 -0.0856 -0.8577  0.1896
 1146TIP3   OH225072   0.137   0.139   7.420  0.3002 -0.2342 -0.4643
 1146TIP3    H125073   0.223   0.167   7.387 -0.0139 -0.1917 -1.2827
 1146TIP3    H225074   0.152   0.121   7.513  0.9550  0.7662 -0.3564
 1147TIP3   OH225075   3.394   2.078   1.573 -0.4812  0.4231 -0.6249
 1147TIP3    H125076   3.307   2.118   1.583  0.6459  2.8700  0.1211
 1147TIP3    H225077   3.409   2.078   1.478 -0.4081  2.1960 -0.6623
 1148TIP3   OH225078   6.989   3.223   1.232 -0.4391  0.1458 -0.5042
 1148TIP3    H125079   6.914   3.280   1.248 -0.1386  1.2468 -2.5562
 1148TIP3    H225080   7.048   3.276   1.178  0.6157 -1.5682 -1.1245
 1149TIP3   OH225081   0.269   1.882   0.624  0.0497 -0.0013  0.0261
 1149TIP3    H125082   0.345   1.851   0.674  0.6206  1.7784  0.3375
 1149TIP3    H225083   0.215   1.804   0.612  2.0993 -1.4318 -0.5591
 1150TIP3   OH225084   4.671   5.797   6.139  0.2550 -0.0058  0.7597
 1150TIP3    H125085   4.690   5.798   6.233  1.4600 -1.2858  0.5575
 1150TIP3    H225086   4.745   5.750   6.100 -1.4074 -1.6731 -0.5404
 1151TIP3   OH225087   4.528   0.811   8.124  0.5778  0.2558  0.3858
 1151TIP3    H125088   4.518   0.776   8.035 -0.7366 -0.8928  0.9448
 1151TIP3    H225089   4.438   0.833   8.151  1.1189  2.0365  0.8997
 1152TIP3   OH225090   2.521   6.655   7.290 -0.1196  0.0314  0.1447
 1152TIP3    H125091   2.551   6.744   7.272 -1.1566  0.0750 -1.4817
 1152TIP3    H225092   2.464   6.632   7.217  0.4712 -2.1567  0.2717
 1153TIP3   OH225093   3.873   4.143   0.534 -0.0306  0.1232 -0.3746
 1153TIP3    H125094   3.848   4.152   0.626  0.4855 -3.1981  0.2273
 1153TIP3    H225095   3.848   4.226   0.494 -1.7843  1.0814  2.4160
 1154TIP3   OH225096   3.907   2.356   7.272 -0.3097  0.3426  0.1676
 1154TIP3    H125097   3.844   2.311   7.216  1.4432 -0.2123 -1.4473
 1154TIP3    H225098   3.985   2.367   7.217  1.6279 -0.4648  2.5612
 1155TIP3   OH225099   4.681   0.768   1.234 -0.4173 -0.5350  0.1583
 1155TIP3    H125100   4.592   0.796   1.213 -0.8057 -1.0680  1.0375
 1155TIP3    H225101   4.718   0.841   1.285 -1.2913 -1.3786  2.1037
 1156TIP3   OH225102   1.444   3.022   7.516  0.3039  0.6019  0.1204
 1156TIP3    H125103   1.373   2.972   7.557 -0.0412  0.5055 -0.5879
 1156TIP3    H225104   1.418   3.030   7.425  1.0504  0.8556 -0.0746
 1157TIP3   OH225105   2.515   1.157   8.121  0.0305  0.2099 -0.0506
 1157TIP3    H125106   2.562   1.220   8.175 -0.4019 -0.7800  1.5426
 1157TIP3    H225107   2.456   1.111   8.182 -0.9464 -0.5217 -1.4690
 1158TIP3   OH225108   5.556   0.345   1.363 -0.4593 -0.2902  0.1374
 1158TIP3    H125109   5.586   0.424   1.407 -2.3376 -0.0664  1.1304
 1158TIP3    H225110   5.573   0.361   1.270 -0.7227  1.2591  0.3299
 1159TIP3   OH225111   0.350   5.827   0.034 -0.4725 -0.6756  0.0331
 1159TIP3    H125112   0.357   5.921   0.021 -1.9492 -0.5048  0.2890
 1159TIP3    H225113   0.402   5.810   0.113 -0.2870 -0.0620  0.0470
 1160TIP3   OH225114   6.080   3.090   0.659 -0.3980  0.2135  0.2811
 1160TIP3    H125115   6.038   3.106   0.574  0.1308 -0.7862 -0.1866
 1160TIP3    H225116   6.173   3.082   0.638 -0.4821 -2.2698  0.5993
 1161TIP3   OH225117   6.949   6.229   1.233 -1.0128 -0.6950  0.0017
 1161TIP3    H125118   7.023   6.289   1.244 -0.4390 -1.5516  0.8828
 1161TIP3    H225119   6.888   6.278   1.178  0.2668 -0.0338 -0.8946
 1162TIP3   OH225120   3.889   1.371   7.181  0.3354 -0.0348  0.1718
 1162TIP3    H125121   3.892   1.288   7.228 -1.5945 -0.1549  0.1431
 1162TIP3    H225122   3.803   1.373   7.140  1.5405  0.5185 -2.5803
 1163TIP3   OH225123   0.929   4.122   1.228 -0.0010  0.0727 -0.2847
 1163TIP3    H125124   0.947   4.119   1.322  1.4839  0.1631 -0.5391
 1163TIP3    H225125   0.863   4.055   1.214 -0.1443 -0.0319  0.8065
 1164TIP3   OH225126   6.956   3.371   7.294  0.5367 -0.2702 -0.4195
 1164TIP3    H125127   7.036   3.338   7.253  0.8049  1.3417 -1.2459
 1164TIP3    H225128   6.986   3.411   7.376  0.8381  1.6782 -1.4299
 1165TIP3   OH225129   4.474   4.907   8.051 -0.2872  0.1102  0.4976
 1165TIP3    H125130   4.389   4.905   8.006 -0.1452 -1.7998  0.2534
 1165TIP3    H225131   4.480   4.823   8.096  1.1222  0.5567  1.2116
 1166TIP3   OH225132   1.615   4.380   0.677 -0.1225 -0.4358 -0.0979
 1166TIP3    H125133   1.545   4.331   0.719 -1.2276  0.6942 -0.5409
 1166TIP3    H225134   1.581   4.399   0.589  0.2576  1.0689  0.0461
 1167TIP3   OH225135   0.422   5.134   2.463 -0.2808  0.2357  0.0862
 1167TIP3    H125136   0.376   5.097   2.538 -1.1936  0.5952 -0.2810
 1167TIP3    H225137   0.515   5.124   2.484 -0.5074  1.0428  1.6349
 1168TIP3   OH225138   4.301   7.035   7.564 -0.2904  0.3134  0.5718
 1168TIP3    H125139   4.232   6.989   7.515  1.8678 -0.9479 -1.4871
 1168TIP3    H225140   4.269   7.035   7.654 -3.1604  0.1799 -0.3274
 1169TIP3   OH225141   1.425   0.686   7.923 -0.1402  0.0474  0.2725
 1169TIP3    H125142   1.472   0.758   7.882 -0.8543  0.4061  0.0685
 1169TIP3    H225143   1.379   0.726   7.997  0.2869 -0.3966  0.7907
 1170TIP3   OH225144   3.780   2.076   2.967 -0.6405 -0.1953  0.0621
 1170TIP3    H125145   3.737   2.070   2.882 -0.8979  0.7276  0.1160
 1170TIP3    H225146   3.766   2.167   2.995  0.1742 -0.2537  0.7015
 1171TIP3   OH225147   4.730   3.470   1.344 -0.3160  0.1253 -0.1917
 1171TIP3    H125148   4.783   3.421   1.406  0.4879  0.5450 -0.5383
 1171TIP3    H225149   4.763   3.559   1.350 -1.0808  0.4203 -0.3113
 1172TIP3   OH225150   4.532   3.317   3.064  0.6252  0.0321  0.0243
 1172TIP3    H125151   4.500   3.354   2.982 -1.4563  0.4612  0.9555
 1172TIP3    H225152   4.600   3.256   3.038 -0.6671 -0.6014 -2.1239
 1173TIP3   OH225153   6.854   3.610   1.075  0.2689  0.3796  0.3440
 1173TIP3    H125154   6.862   3.625   1.170  2.8672 -0.5807  0.3526
 1173TIP3    H225155   6.910   3.676   1.035  0.0166  0.1085 -0.4754
 1174TIP3   OH225156   0.043   5.129   7.304 -0.3151 -0.4319 -0.2520
 1174TIP3    H125157   0.117   5.116   7.244 -2.0966 -1.1458 -2.4001
 1174TIP3    H225158   0.036   5.224   7.312  2.1179 -0.3105  1.7765
 1175TIP3   OH225159   6.924   4.581   1.462 -0.1227 -0.1670 -0.1056
 1175TIP3    H125160   7.007   4.534   1.475  0.8278  1.5205  0.2193
 1175TIP3    H225161   6.857   4.520   1.493  1.1533 -0.7944  1.6121
 1176TIP3   OH225162   5.480   3.898   6.372  0.2717  0.2031  0.3779
 1176TIP3    H125163   5.454   3.916   6.462 -1.1809 -1.7276  0.3949
 1176TIP3    H225164   5.567   3.860   6.379 -0.1998 -0.7681  1.0582
 1177TIP3   OH225165   5.860   5.701   1.575 -0.2916 -0.3916  0.2690
 1177TIP3    H125166   5.894   5.643   1.643  0.9144  0.2064  0.1913
 1177TIP3    H225167   5.896   5.666   1.494 -0.0702  0.0846  0.1583
 1178TIP3   OH225168   2.580   4.497   0.100  0.6762 -0.3246 -0.3238
 1178TIP3    H125169   2.626   4.580   0.089  0.2506 -0.1377 -0.7052
 1178TIP3    H225170   2.597   4.472   0.191 -0.4630  0.9487  0.2737
 1179TIP3   OH225171   6.899   6.038   6.789  0.0827 -0.3068 -0.8881
 1179TIP3    H125172   6.931   6.013   6.703  2.0514  1.1728 -0.6575
 1179TIP3    H225173   6.863   6.126   6.778 -0.2468 -0.3596 -0.3212
 1180TIP3   OH225174   1.271   6.447   0.252  0.3079 -0.8552  0.1726
 1180TIP3    H125175   1.265   6.436   0.158  2.3507 -1.1362  0.0460
 1180TIP3    H225176   1.232   6.368   0.288  1.0718 -1.5454 -0.4857
 1181TIP3   OH225177   4.316   2.881   0.634 -0.1830 -0.5415  0.2103
 1181TIP3    H125178   4.245   2.932   0.673 -0.3100  1.0779 -1.9779
 1181TIP3    H225179   4.273   2.827   0.568  0.5287 -0.0296 -0.6833
 1182TIP3   OH225180   3.982   5.661   2.078 -0.0764  0.3517 -0.2372
 1182TIP3    H125181   3.946   5.575   2.099 -0.3007  0.8801  1.7284
 1182TIP3    H225182   3.913   5.723   2.102  0.6442  1.1577 -0.1799
 1183TIP3   OH225183   5.732   2.098   1.672 -0.1111 -0.6992 -0.5570
 1183TIP3    H125184   5.714   2.027   1.733  1.8566 -2.4849 -1.8935
 1183TIP3    H225185   5.725   2.056   1.585  3.2852  0.0806 -1.3265
 1184TIP3   OH225186   5.755   3.344   0.233  0.3484 -0.8042  0.5952
 1184TIP3    H125187   5.712   3.400   0.168  2.4671 -0.3041 -0.4530
 1184TIP3    H225188   5.764   3.259   0.190  3.1573 -0.0613 -0.4955
 1185TIP3   OH225189   6.044   5.286   8.087 -0.8224  0.0151  0.6539
 1185TIP3    H125190   6.134   5.259   8.105 -0.0122  0.0944 -2.6281
 1185TIP3    H225191   5.991   5.210   8.109  0.6146 -1.7288 -1.5599
 1186TIP3   OH225192   3.046   7.046   5.970  0.1849 -0.1325  0.4910
 1186TIP3    H125193   3.097   6.965   5.968 -0.6470 -0.6473  0.1592
 1186TIP3    H225194   2.957   7.021   5.947  0.1029  1.0223 -0.5673
 1187TIP3   OH225195   5.673   3.492   0.844 -0.5293 -0.0075  1.0409
 1187TIP3    H125196   5.594   3.538   0.816 -0.3662 -0.2535  0.1495
 1187TIP3    H225197   5.662   3.479   0.938 -1.1554  0.7197  1.0716
 1188TIP3   OH225198   4.263   6.940   7.137 -0.2301 -0.0822  0.4131
 1188TIP3    H125199   4.327   6.921   7.206 -0.7167 -0.1438  0.8496
 1188TIP3    H225200   4.315   6.977   7.066  0.9033 -3.4641 -0.7115
 1189TIP3   OH225201   1.178   1.609   0.630 -0.3006  1.1045 -0.2470
 1189TIP3    H125202   1.089   1.637   0.648 -0.0141  2.7786 -1.2078
 1189TIP3    H225203   1.226   1.690   0.613  1.6554  0.3256  1.2135
 1190TIP3   OH225204   6.896   5.635   0.751 -0.3645 -0.2539 -0.0438
 1190TIP3    H125205   6.851   5.558   0.786 -0.2560  0.2036  1.1213
 1190TIP3    H225206   6.827   5.685   0.708 -0.3138 -1.3479 -1.4851
 1191TIP3   OH225207   4.163   0.459   0.648 -0.0916  0.3886 -0.2110
 1191TIP3    H125208   4.080   0.498   0.675 -0.3857 -0.6400  0.4410
 1191TIP3    H225209   4.205   0.526   0.593 -2.4109  0.0407 -2.5827
 1192TIP3   OH225210   0.182   3.898   1.762 -0.5350 -0.2277  0.1010
 1192TIP3    H125211   0.104   3.953   1.757 -0.3649 -0.0601 -0.9178
 1192TIP3    H225212   0.250   3.947   1.715  0.8894  0.7156  2.9372
 1193TIP3   OH225213   3.622   3.898   0.241  0.1905 -0.2657  0.8122
 1193TIP3    H125214   3.695   3.854   0.199  0.6312  0.3569  0.9152
 1193TIP3    H225215   3.589   3.958   0.174  1.0399  0.8993  1.4148
 1194TIP3   OH225216   4.638   5.827   2.454  0.4518 -0.1126 -0.4202
 1194TIP3    H125217   4.603   5.786   2.534 -0.9446  2.6074  0.5003
 1194TIP3    H225218   4.681   5.756   2.408  2.7820 -1.5892  3.5130
 1195TIP3   OH225219   6.594   4.640   1.571 -0.0083  0.1459  0.2220
 1195TIP3    H125220   6.543   4.716   1.600  0.5133  0.3706  0.5602
 1195TIP3    H225221   6.628   4.602   1.652 -0.6964 -0.7703  0.1058
 1196TIP3   OH225222   3.795   5.211   7.918 -0.3340 -0.5743 -0.5283
 1196TIP3    H125223   3.735   5.253   7.856  0.4150  0.9354 -0.2986
 1196TIP3    H225224   3.876   5.199   7.869  0.4345  1.1043  0.2161
 1197TIP3   OH225225   2.176   1.708   2.295 -0.1447  0.0261  0.4282
 1197TIP3    H125226   2.081   1.704   2.307 -0.2312  2.1080  0.7532
 1197TIP3    H225227   2.203   1.789   2.337  1.7380 -0.2991 -0.0311
 1198TIP3   OH225228   6.714   6.654   0.315 -0.2187 -0.3360 -0.1271
 1198TIP3    H125229   6.637   6.596   0.323 -1.4436  1.4432  2.2693
 1198TIP3    H225230   6.717   6.701   0.398  3.9542 -0.7834  0.1882
 1199TIP3   OH225231   6.584   1.029   1.382  0.5531 -0.7627 -0.0272
 1199TIP3    H125232   6.676   1.056   1.379  0.5693  0.2602  3.8821
 1199TIP3    H225233   6.535   1.111   1.381 -0.0486 -1.0726  1.4969
 1200TIP3   OH225234   3.173   0.634   1.907  0.0848  0.0879  0.6335
 1200TIP3    H125235   3.078   0.644   1.902  0.0422 -0.7998 -1.8737
 1200TIP3    H225236   3.186   0.542   1.930  0.2707 -0.2285 -0.6275
 1201TIP3   OH225237   1.447   3.447   7.548 -0.2972 -0.0657  0.0227
 1201TIP3    H125238   1.455   3.480   7.458  3.4406  0.8644  0.5374
 1201TIP3    H225239   1.536   3.444   7.580 -1.2716 -2.7660  2.9539
 1202TIP3   OH225240   6.642   2.668   2.187  0.0803  0.3536  0.2559
 1202TIP3    H125241   6.616   2.680   2.278  0.0973  0.5954  0.2302
 1202TIP3    H225242   6.559   2.661   2.139  0.0439 -1.6450  0.5107
 1203TIP3   OH225243   4.863   0.024   7.677 -0.0253  0.0994  0.1483
 1203TIP3    H125244   4.891   0.055   7.591  0.7681 -1.0071 -0.0216
 1203TIP3    H225245   4.923   0.066   7.739 -1.4301  1.9485  0.3283
 1204TIP3   OH225246   3.463   1.572   1.732 -0.3600 -0.0233  0.7961
 1204TIP3    H125247   3.538   1.559   1.790  0.8316 -0.3900 -0.7423
 1204TIP3    H225248   3.498   1.623   1.659 -1.8835  0.7117  0.5397
 1205TIP3   OH225249   1.083   3.562   2.075 -0.1625 -0.0113 -0.1109
 1205TIP3    H125250   1.060   3.497   2.142 -0.3095  0.9668  0.8291
 1205TIP3    H225251   1.033   3.536   1.998 -2.6002  0.6504  1.1302
 1206TIP3   OH225252   2.797   5.030   2.261 -0.4087  0.1946  0.3914
 1206TIP3    H125253   2.870   5.088   2.282 -0.6935  0.7021  0.0023
 1206TIP3    H225254   2.760   5.007   2.346 -0.5422  0.9083  0.5338
 1207TIP3   OH225255   3.453   2.701   8.069 -0.2321 -0.0272 -0.1598
 1207TIP3    H125256   3.506   2.780   8.081  0.5615 -0.5349 -0.2493
 1207TIP3    H225257   3.450   2.689   7.974  1.3965 -1.2343 -0.1063
 1208TIP3   OH225258   6.645   4.860   1.746  0.1536 -0.1930 -0.4669
 1208TIP3    H125259   6.709   4.929   1.765  0.2270 -0.5618  0.7058
 1208TIP3    H225260   6.658   4.840   1.654 -0.7158  2.2333 -1.2132
 1209TIP3   OH225261   3.058   5.907   7.769 -0.4277  0.3952 -0.3728
 1209TIP3    H125262   3.098   5.875   7.850 -1.8717  2.6279  1.3448
 1209TIP3    H225263   3.126   5.961   7.729  0.2930 -0.7140 -0.6849
 1210TIP3   OH225264   5.605   5.738   6.657 -0.2313 -0.1954 -0.6959
 1210TIP3    H125265   5.604   5.781   6.571  1.0673 -0.4823 -0.8762
 1210TIP3    H225266   5.513   5.715   6.673 -0.8309  1.7448 -1.0340
 1211TIP3   OH225267   3.928   5.938   6.395 -0.5417 -0.2688  0.2273
 1211TIP3    H125268   3.904   6.027   6.422 -0.6437 -0.5785  1.1894
 1211TIP3    H225269   4.003   5.950   6.337  1.0128  0.3282  2.2581
 1212TIP3   OH225270   2.875   3.906   1.796  0.3313  0.0167  0.1436
 1212TIP3    H125271   2.928   3.962   1.853 -0.7560  2.1671 -0.8491
 1212TIP3    H225272   2.873   3.952   1.712 -1.1791 -1.1705 -0.5172
 1213TIP3   OH225273   6.337   1.285   7.295  0.3282  0.1424 -0.0578
 1213TIP3    H125274   6.362   1.338   7.219  1.5102  0.4359  0.5097
 1213TIP3    H225275   6.402   1.307   7.362 -0.1123 -0.8430  0.7204
 1214TIP3   OH225276   2.135   4.043   2.050 -0.4164  0.3221  0.3138
 1214TIP3    H125277   2.125   4.007   2.138 -1.5172  0.9230  0.4467
 1214TIP3    H225278   2.193   3.980   2.005 -0.4209 -0.3620  1.2379
 1215TIP3   OH225279   6.119   5.306   0.699  0.2990  0.6658 -0.3733
 1215TIP3    H125280   6.129   5.221   0.656 -0.4240  1.3338 -1.9282
 1215TIP3    H225281   6.114   5.285   0.793  0.8258 -0.9291 -0.6752
 1216TIP3   OH225282   4.613   4.976   1.277  0.1352  0.4856  0.6243
 1216TIP3    H125283   4.691   5.013   1.237  0.6609 -1.9827 -0.8400
 1216TIP3    H225284   4.541   5.030   1.245  0.8121  0.0274 -1.8279
 1217TIP3   OH225285   2.131   3.920   2.643  0.2810 -0.5745 -0.7277
 1217TIP3    H125286   2.202   3.975   2.609 -0.1849 -0.6578 -1.8677
 1217TIP3    H225287   2.161   3.895   2.731  0.0082  2.4594  0.3531
 1218TIP3   OH225288   4.702   1.810   8.072 -0.5075  0.0940  0.0795
 1218TIP3    H125289   4.740   1.726   8.048  1.7967  0.8176  0.8688
 1218TIP3    H225290   4.656   1.793   8.154  1.8442 -0.0432  1.4641
 1219TIP3   OH225291   3.655   2.614   1.403  0.3568 -0.8234  0.0115
 1219TIP3    H125292   3.651   2.709   1.410 -0.2694 -0.8718  0.3750
 1219TIP3    H225293   3.609   2.594   1.322 -3.2390 -1.0637  1.9223
 1220TIP3   OH225294   3.073   3.502   7.906 -0.0749 -0.1030  0.0350
 1220TIP3    H125295   3.024   3.477   7.827  1.8863  1.6707 -1.8970
 1220TIP3    H225296   3.165   3.503   7.878  0.4652  3.6330  1.3301
 1221TIP3   OH225297   4.855   2.408   7.761 -0.0950  0.2767 -0.1450
 1221TIP3    H125298   4.821   2.465   7.830  0.1679 -0.0735  0.2841
 1221TIP3    H225299   4.806   2.433   7.683  0.1470  1.2221 -0.0116
 1222TIP3   OH225300   2.344   4.354   0.334  0.6693 -0.3372 -0.2659
 1222TIP3    H125301   2.379   4.422   0.277 -1.1286  1.3362  0.5088
 1222TIP3    H225302   2.420   4.323   0.383  1.4648  1.6110 -0.1650
 1223TIP3   OH225303   1.029   0.430   1.482 -0.9385  0.1368 -0.2457
 1223TIP3    H125304   0.968   0.433   1.556 -2.5697  1.0803 -1.5567
 1223TIP3    H225305   1.010   0.510   1.432 -0.7292 -1.0515 -2.3213
 1224TIP3   OH225306   2.904   5.137   1.188 -0.2919  0.1439 -0.0099
 1224TIP3    H125307   2.831   5.132   1.126 -0.1647  0.0652 -0.1530
 1224TIP3    H225308   2.870   5.098   1.269 -0.5526  0.5029  0.0600
 1225TIP3   OH225309   6.424   3.028   1.115 -0.0835 -0.0516 -0.1034
 1225TIP3    H125310   6.384   3.104   1.157 -0.1867 -1.2719  2.1199
 1225TIP3    H225311   6.456   3.062   1.031  0.2472  2.5486  0.9683
 1226TIP3   OH225312   1.190   6.654   7.431 -0.2630 -0.0221  0.0042
 1226TIP3    H125313   1.234   6.599   7.366 -0.1223  0.6031 -0.4426
 1226TIP3    H225314   1.261   6.701   7.475 -0.4642  1.1200 -0.8374
 1227TIP3   OH225315   5.230   6.504   1.632  0.3415  0.2526 -0.7566
 1227TIP3    H125316   5.319   6.470   1.634 -0.3262 -1.5629  0.5214
 1227TIP3    H225317   5.194   6.474   1.548 -0.2800 -2.5026  0.3930
 1228TIP3   OH225318   2.063   6.336   6.227 -0.6710  0.1558 -0.3936
 1228TIP3    H125319   2.099   6.248   6.229  1.0904  0.8284 -0.6294
 1228TIP3    H225320   2.104   6.377   6.151 -1.3265  1.2238 -0.1928
 1229TIP3   OH225321   0.841   5.801   1.396 -0.3389  0.0180  0.6928
 1229TIP3    H125322   0.850   5.896   1.393  0.2252 -0.0331  0.7624
 1229TIP3    H225323   0.769   5.782   1.336  0.7085  0.3405 -0.7179
 1230TIP3   OH225324   2.796   3.512   0.613  0.6970  0.5151 -0.2073
 1230TIP3    H125325   2.741   3.434   0.612 -0.8962  1.5967 -0.3241
 1230TIP3    H225326   2.800   3.538   0.705  0.7118  0.6364 -0.2415
 1231TIP3   OH225327   1.442   2.953   0.753 -0.1285 -0.0189  0.3429
 1231TIP3    H125328   1.536   2.936   0.745  0.1173  1.2874  0.2738
 1231TIP3    H225329   1.437   3.029   0.811 -1.1422 -0.0096  0.2469
 1232TIP3   OH225330   4.105   1.547   7.128 -0.2377 -0.3282 -0.0068
 1232TIP3    H125331   4.189   1.532   7.172 -0.5122  1.5864  1.2954
 1232TIP3    H225332   4.052   1.470   7.150 -0.3501  0.5096  3.1218
 1233TIP3   OH225333   3.788   0.482   0.953 -0.4662 -0.1131 -0.1835
 1233TIP3    H125334   3.731   0.437   0.892  0.8653 -0.0290 -1.5548
 1233TIP3    H225335   3.865   0.506   0.901  0.3066  0.8043  1.3007
 1234TIP3   OH225336   2.632   6.943   6.149  0.2809  0.5378 -0.0103
 1234TIP3    H125337   2.669   6.898   6.225 -0.5183 -0.2379 -0.0624
 1234TIP3    H225338   2.697   6.929   6.080 -0.2811 -1.1879 -0.2215
 1235TIP3   OH225339   0.498   4.208   6.825  0.3095 -0.5359  0.1553
 1235TIP3    H125340   0.449   4.289   6.842  1.2609  0.1865 -0.4386
 1235TIP3    H225341   0.484   4.191   6.732  1.1411 -0.3502 -0.0051
 1236TIP3   OH225342   2.877   3.015   7.573  0.1230 -0.3423 -0.4642
 1236TIP3    H125343   2.847   3.057   7.654  2.2083 -0.2324  0.3297
 1236TIP3    H225344   2.821   3.051   7.505 -0.7566  0.6745  0.7410
 1237TIP3   OH225345   0.832   1.993   7.844 -0.0593  0.2865  0.8576
 1237TIP3    H125346   0.777   1.987   7.765 -0.2209  0.6660  0.9403
 1237TIP3    H225347   0.900   1.927   7.831 -0.7179 -0.4128  0.8965
 1238TIP3   OH225348   3.566   2.353   7.417 -0.3324 -0.2468 -0.4031
 1238TIP3    H125349   3.640   2.399   7.458 -0.6186 -1.9849  2.2456
 1238TIP3    H225350   3.603   2.313   7.338  0.9074  0.9801 -0.4781
 1239TIP3   OH225351   4.369   5.463   1.456 -0.2115  0.1906  0.2183
 1239TIP3    H125352   4.382   5.376   1.494  1.3859  0.5829  0.6588
 1239TIP3    H225353   4.319   5.510   1.523  0.4814  0.1388  0.7909
 1240TIP3   OH225354   0.422   4.823   7.649 -0.1697 -0.4340  0.2584
 1240TIP3    H125355   0.466   4.889   7.596 -0.5767 -0.8290 -0.5983
 1240TIP3    H225356   0.481   4.748   7.648 -1.6927 -1.8146 -2.7869
 1241TIP3   OH225357   1.648   1.337   0.865  0.1537 -0.1473 -0.2687
 1241TIP3    H125358   1.743   1.328   0.873  0.2462  1.0866  0.4500
 1241TIP3    H225359   1.632   1.429   0.889 -1.3675 -0.7482  1.1767
 1242TIP3   OH225360   1.186   3.110   7.853  0.5463  0.4666 -0.1278
 1242TIP3    H125361   1.231   3.181   7.806 -0.6013  0.7174 -0.8909
 1242TIP3    H225362   1.167   3.147   7.939  1.2211  0.5737 -0.0144
 1243TIP3   OH225363   1.439   6.573   1.173  0.0315 -0.5247 -0.4073
 1243TIP3    H125364   1.422   6.495   1.120  0.0286 -0.7950 -0.0149
 1243TIP3    H225365   1.391   6.643   1.129 -1.0923 -1.0194 -0.0092
 1244TIP3   OH225366   1.365   0.383   0.998  0.1589 -0.0237 -0.4685
 1244TIP3    H125367   1.393   0.474   0.993 -1.9942  0.7103 -0.0794
 1244TIP3    H225368   1.392   0.355   1.086  0.9066  0.1914 -0.6190
 1245TIP3   OH225369   5.642   2.725   7.431 -0.1920  1.1274  0.1316
 1245TIP3    H125370   5.705   2.793   7.454  1.6931 -0.4853  0.0524
 1245TIP3    H225371   5.688   2.670   7.367 -1.8114  0.0489 -0.1811
 1246TIP3   OH225372   2.986   0.190   0.947  0.5337  0.4516  0.3108
 1246TIP3    H125373   2.919   0.122   0.941  0.6733  0.3008  0.4666
 1246TIP3    H225374   3.043   0.174   0.872  0.1191  0.8782 -0.1013
 1247TIP3   OH225375   5.683   1.847   1.764  0.3417 -0.5243 -0.2279
 1247TIP3    H125376   5.612   1.795   1.727 -0.6116  0.3510  0.3064
 1247TIP3    H225377   5.674   1.837   1.858 -0.0339  0.7963 -0.1006
 1248TIP3   OH225378   5.263   1.465   0.489 -0.1104 -0.5563  0.2300
 1248TIP3    H125379   5.172   1.493   0.477 -0.2722 -1.7307 -1.5583
 1248TIP3    H225380   5.258   1.395   0.554 -0.1434  0.8843  1.8832
 1249TIP3   OH225381   3.086   2.144   0.816 -0.4177 -0.3776  0.0523
 1249TIP3    H125382   3.134   2.096   0.748  2.3082  0.2501  1.4292
 1249TIP3    H225383   3.097   2.091   0.895 -0.7600  0.5581  0.7366
 1250TIP3   OH225384   5.356   6.372   7.782 -0.4841 -0.0823  0.3024
 1250TIP3    H125385   5.333   6.292   7.830  0.7455  0.0180  1.1181
 1250TIP3    H225386   5.318   6.443   7.835  0.1442 -0.0220  0.6830
 1251TIP3   OH225387   3.908   5.318   8.174 -0.0694  0.1747  0.1773
 1251TIP3    H125388   3.856   5.278   8.104 -3.1667  0.2029  2.2571
 1251TIP3    H225389   3.953   5.391   8.131  0.9737 -1.8511 -2.4347
 1252TIP3   OH225390   5.478   3.490   7.249  0.2427 -0.0131 -0.0457
 1252TIP3    H125391   5.462   3.400   7.220  0.6630 -0.2296  0.3744
 1252TIP3    H225392   5.561   3.514   7.207 -1.1189  1.1114 -2.2453
 1253TIP3   OH225393   0.170   3.835   0.330  0.0304  0.1170 -0.6446
 1253TIP3    H125394   0.089   3.856   0.284 -1.6696 -0.3208  1.9299
 1253TIP3    H225395   0.153   3.861   0.420  1.7220 -2.4847  0.5498
 1254TIP3   OH225396   1.154   3.588   0.990 -0.5950 -0.1835  0.0503
 1254TIP3    H125397   1.141   3.675   0.951  0.1855 -0.4346 -0.8153
 1254TIP3    H225398   1.096   3.530   0.939 -2.4642  0.0707  1.7575
 1255TIP3   OH225399   6.782   7.020   7.724  0.0969  0.5858  0.2606
 1255TIP3    H125400   6.716   6.982   7.666  0.1597  1.3257 -0.3142
 1255TIP3    H225401   6.862   6.971   7.705 -0.0312  0.4126  0.1687
 1256TIP3   OH225402   1.029   2.204   0.302 -0.6503 -0.8390 -0.2580
 1256TIP3    H125403   1.068   2.153   0.231  0.1045 -1.9526  0.9103
 1256TIP3    H225404   1.103   2.243   0.347 -1.2261  1.9294 -1.4920
 1257TIP3   OH225405   0.390   0.411   1.364 -0.6560  0.4315  0.1299
 1257TIP3    H125406   0.414   0.330   1.319  1.1370  0.4998  0.8601
 1257TIP3    H225407   0.353   0.382   1.447  0.7454  0.3398  0.7424
 1258TIP3   OH225408   2.671   3.598   8.139 -0.0720 -0.0040 -0.5376
 1258TIP3    H125409   2.711   3.517   8.170 -1.1971 -0.4947 -0.3102
 1258TIP3    H225410   2.734   3.634   8.077  2.0168  0.7104  1.8293
 1259TIP3   OH225411   5.422   6.360   1.021 -0.1365  0.4285  0.1424
 1259TIP3    H125412   5.474   6.433   1.053 -1.7245  1.1784  1.1393
 1259TIP3    H225413   5.396   6.385   0.932 -0.4929  1.0075  0.4006
 1260TIP3   OH225414   2.941   5.445   0.085 -0.1319 -0.1511 -0.4284
 1260TIP3    H125415   2.993   5.466   0.008 -0.2518 -1.2824 -0.8357
 1260TIP3    H225416   2.991   5.377   0.130 -1.0076 -0.9036 -0.5654
 1261TIP3   OH225417   0.177   4.421   7.401 -0.1937 -0.1588  0.3633
 1261TIP3    H125418   0.178   4.509   7.438 -0.1675 -0.0936  0.2078
 1261TIP3    H225419   0.159   4.434   7.308  0.4169 -0.2748  0.2256
 1262TIP3   OH225420   1.495   2.335   1.175  0.6882  0.0858 -0.2189
 1262TIP3    H125421   1.492   2.319   1.269  0.6471  0.3185 -0.1797
 1262TIP3    H225422   1.514   2.428   1.167  0.1366  0.1837 -0.4390
 1263TIP3   OH225423   6.688   2.865   6.500 -0.0251  0.3156  0.9009
 1263TIP3    H125424   6.701   2.853   6.594 -0.9312 -0.3511  0.9542
 1263TIP3    H225425   6.594   2.873   6.489  0.1875  2.9490  0.3149
 1264TIP3   OH225426   3.546   0.609   6.680 -0.2309 -0.7858  0.0507
 1264TIP3    H125427   3.625   0.625   6.628 -0.9748  1.6309 -0.4569
 1264TIP3    H225428   3.569   0.637   6.769 -0.8601  1.2087 -0.3732
 1265TIP3   OH225429   2.121   4.924   1.920  0.2932  0.3018 -0.2557
 1265TIP3    H125430   2.083   4.838   1.938  1.2477 -0.1246 -0.2086
 1265TIP3    H225431   2.047   4.984   1.923 -0.4624 -0.5836 -0.7813
 1266TIP3   OH225432   2.744   5.513   0.613  0.1486 -0.2564 -0.1401
 1266TIP3    H125433   2.831   5.515   0.572 -0.7582  1.5131 -2.1965
 1266TIP3    H225434   2.700   5.440   0.570 -0.0750  0.2216 -0.7421
 1267TIP3   OH225435   3.312   5.658   2.649 -0.4845  0.1298 -0.4491
 1267TIP3    H125436   3.228   5.623   2.680  0.3438 -0.3952  1.3145
 1267TIP3    H225437   3.376   5.591   2.674  0.8823  1.9496  1.1797
 1268TIP3   OH225438   3.279   2.723   7.777  0.0048  0.7878 -0.7074
 1268TIP3    H125439   3.233   2.652   7.821  1.9196 -0.0092  0.1174
 1268TIP3    H225440   3.213   2.791   7.764 -1.0928  0.2528  1.6229
 1269TIP3   OH225441   6.836   1.413   7.727  0.3777 -0.3395 -0.0576
 1269TIP3    H125442   6.853   1.334   7.676 -0.1436  0.3527 -1.3823
 1269TIP3    H225443   6.761   1.391   7.781  0.9428 -1.1011  0.4286
 1270TIP3   OH225444   6.879   5.059   0.745  0.1602 -0.2090 -0.8154
 1270TIP3    H125445   6.952   5.090   0.692  1.6136 -2.5020 -0.3029
 1270TIP3    H225446   6.887   4.963   0.743 -1.2003 -0.4485  1.4746
 1271TIP3   OH225447   4.989   1.687   7.875 -0.1130 -0.3880 -0.0852
 1271TIP3    H125448   4.910   1.639   7.901  0.3187 -0.2531  1.5975
 1271TIP3    H225449   4.985   1.769   7.924  0.2505  0.3823 -1.2895
 1272TIP3   OH225450   2.939   3.137   1.833  0.5192  0.0401  0.2755
 1272TIP3    H125451   2.873   3.068   1.821  0.9411 -0.2715 -0.3432
 1272TIP3    H225452   2.907   3.209   1.779  0.2398  0.2168  0.6719
 1273TIP3   OH225453   6.945   3.934   7.190 -0.5366 -0.4209 -0.1757
 1273TIP3    H125454   6.942   3.906   7.099  0.7134  1.0268 -0.7106
 1273TIP3    H225455   6.926   3.855   7.240 -0.2885 -1.4728 -1.6698
 1274TIP3   OH225456   0.569   6.609   2.471  0.4004  0.2335  0.3522
 1274TIP3    H125457   0.658   6.578   2.490  1.0990  1.3467 -0.9456
 1274TIP3    H225458   0.581   6.693   2.427 -1.3708  1.3314  1.7962
 1275TIP3   OH225459   5.511   6.313   7.551 -0.3015 -0.2982 -0.1425
 1275TIP3    H125460   5.481   6.337   7.639 -0.2270  1.5970 -0.5951
 1275TIP3    H225461   5.603   6.290   7.562  0.0718  1.2194  0.1027
 1276TIP3   OH225462   0.584   4.190   0.956  0.3592  0.4249 -0.3475
 1276TIP3    H125463   0.674   4.219   0.940  0.8267 -1.3505 -1.1583
 1276TIP3    H225464   0.577   4.107   0.909 -0.9907 -0.6519  1.6419
 1277TIP3   OH225465   4.995   3.943   2.252  0.0486 -0.5000  0.4942
 1277TIP3    H125466   5.071   3.885   2.265  2.4701  2.6413  1.6927
 1277TIP3    H225467   4.993   3.997   2.331  1.3223  4.4683 -2.4693
 1278TIP3   OH225468   2.815   6.851   0.501 -0.3605 -0.4655 -0.1694
 1278TIP3    H125469   2.808   6.922   0.563  1.2587 -0.6890  0.3148
 1278TIP3    H225470   2.866   6.887   0.428 -0.5684 -0.7785 -0.4768
 1279TIP3   OH225471   3.094   3.986   0.038  0.4480 -0.8271 -0.6286
 1279TIP3    H125472   3.142   3.936  -0.027  2.3073  0.2188 -0.1370
 1279TIP3    H225473   3.014   4.014  -0.006  0.6727 -1.9253 -1.7539
 1280TIP3   OH225474   4.300   1.476   2.082 -0.3141 -0.4727  0.4576
 1280TIP3    H125475   4.207   1.497   2.077 -0.4501 -1.3146 -2.6740
 1280TIP3    H225476   4.344   1.555   2.049  0.0195 -0.4856  0.8608
 1281TIP3   OH225477   6.592   3.104   7.684 -0.2689  0.0047 -0.1433
 1281TIP3    H125478   6.622   3.020   7.718  1.2175  0.7575  0.4956
 1281TIP3    H225479   6.540   3.141   7.755 -0.2375 -0.0211 -0.1067
 1282TIP3   OH225480   0.038   2.673   7.631 -0.4930  0.5667 -0.1931
 1282TIP3    H125481   0.072   2.756   7.664 -2.0171  0.0911  2.9719
 1282TIP3    H225482  -0.007   2.634   7.706 -0.3843 -2.8577 -1.7059
 1283TIP3   OH225483   7.021   2.023   1.070  0.0343 -0.7280  0.0713
 1283TIP3    H125484   7.036   2.086   1.141 -1.9283 -0.3659  0.2391
 1283TIP3    H225485   7.087   1.955   1.084  0.0940 -0.3589  1.8912
 1284TIP3   OH225486   6.930   0.454   1.758 -0.5685  1.0282 -0.5884
 1284TIP3    H125487   6.879   0.381   1.722 -0.9663  2.0630 -2.2694
 1284TIP3    H225488   7.016   0.446   1.717  0.2596  0.0492  1.2308
 1285TIP3   OH225489   3.762   1.704   6.867  0.2467 -0.1906 -0.3269
 1285TIP3    H125490   3.730   1.642   6.801 -2.7012  0.4256  0.3777
 1285TIP3    H225491   3.764   1.653   6.948  2.0051 -0.4358 -0.4882
 1286TIP3   OH225492   3.242   0.034   7.057  0.0518 -0.2672  0.9641
 1286TIP3    H125493   3.234  -0.050   7.012  2.1021  0.7901 -1.6432
 1286TIP3    H225494   3.175   0.089   7.016 -0.1966 -0.1505  1.5178
 1287TIP3   OH225495   4.939   3.615   7.914  0.1164  0.1908  0.6340
 1287TIP3    H125496   4.872   3.668   7.958 -0.4104 -0.2132  0.3273
 1287TIP3    H225497   4.965   3.550   7.979 -0.2980 -0.0896  0.5220
 1288TIP3   OH225498   3.123   0.360   1.723 -0.3877  0.5162  0.0469
 1288TIP3    H125499   3.045   0.413   1.708  0.6489  2.0728 -0.0999
 1288TIP3    H225500   3.137   0.365   1.818 -2.0074 -2.0994  0.5052
 1289TIP3   OH225501   4.512   3.976   6.820 -0.0583  0.3086  0.2180
 1289TIP3    H125502   4.537   4.062   6.787  0.4316 -0.1442 -0.6122
 1289TIP3    H225503   4.419   3.986   6.843 -0.4141  0.6537 -1.2813
 1290TIP3   OH225504   1.312   4.016   1.686 -0.5614 -0.3147 -0.1053
 1290TIP3    H125505   1.388   4.004   1.744 -1.0036 -2.1682  0.1247
 1290TIP3    H225506   1.316   3.943   1.625 -0.9365  0.8171 -1.5282
 1291TIP3   OH225507   0.510   1.480   7.954  0.0858  0.3178  0.6526
 1291TIP3    H125508   0.532   1.565   7.916  0.1779  0.0736  0.1539
 1291TIP3    H225509   0.427   1.456   7.913 -0.1304  0.3391  1.0760
 1292TIP3   OH225510   1.695   2.295   6.506 -0.0633 -0.1435  0.1455
 1292TIP3    H125511   1.616   2.282   6.558 -1.0903  0.1440 -1.2624
 1292TIP3    H225512   1.673   2.258   6.420  0.6076  1.6605 -0.8618
 1293TIP3   OH225513   3.370   1.660   7.923 -0.3436 -0.0336 -0.3423
 1293TIP3    H125514   3.414   1.689   8.003 -0.5190  2.4479 -1.0473
 1293TIP3    H225515   3.440   1.627   7.867 -0.0719 -0.7557  0.4121
 1294TIP3   OH225516   6.897   1.483   1.619 -0.1071 -0.6283 -0.1932
 1294TIP3    H125517   6.989   1.501   1.642  0.5179 -1.1699 -2.0871
 1294TIP3    H225518   6.847   1.539   1.678  1.4677  0.1666  0.4668
 1295TIP3   OH225519   5.868   4.744   8.134 -0.2334 -0.5191  0.8878
 1295TIP3    H125520   5.910   4.769   8.052  0.0167 -2.0293  0.5178
 1295TIP3    H225521   5.787   4.700   8.107  0.1208 -1.5212  1.4033
 1296TIP3   OH225522   5.740   4.102   2.217 -0.1264  0.1383  0.4389
 1296TIP3    H125523   5.819   4.140   2.179 -0.6226  1.0649  0.3185
 1296TIP3    H225524   5.692   4.066   2.142 -0.0431 -0.0185  0.4595
 1297TIP3   OH225525   6.136   6.546   1.778  0.4928 -0.3308  0.0414
 1297TIP3    H125526   6.049   6.570   1.811  0.7889 -0.7582  1.2005
 1297TIP3    H225527   6.183   6.630   1.771 -0.1251 -0.0538 -0.9851
 1298TIP3   OH225528   5.463   1.831   0.368  0.1688 -0.2021 -0.5377
 1298TIP3    H125529   5.486   1.843   0.460  2.5211 -1.3305 -0.9020
 1298TIP3    H225530   5.384   1.884   0.356  0.3824  0.7979  1.8521
 1299TIP3   OH225531   2.182   2.892   2.132  0.2910 -0.1647  0.2957
 1299TIP3    H125532   2.118   2.853   2.192 -0.6161  1.3856  0.3968
 1299TIP3    H225533   2.262   2.898   2.185 -0.1765  0.1312  0.9958
 1300TIP3   OH225534   0.583   4.327   7.629  0.1800  0.0584  0.3287
 1300TIP3    H125535   0.495   4.289   7.629 -0.1067  0.7170  0.8311
 1300TIP3    H225536   0.628   4.281   7.700  0.1543 -0.0810  0.2549
 1301TIP3   OH225537   3.475   4.219   7.107 -0.8069  0.1458  0.0164
 1301TIP3    H125538   3.434   4.156   7.048 -0.8172 -0.3616  0.5572
 1301TIP3    H225539   3.486   4.298   7.054  1.5010 -1.0640 -1.4464
 1302TIP3   OH225540   7.060   2.176   7.897 -0.2858 -0.4276  0.4541
 1302TIP3    H125541   6.995   2.120   7.940 -0.6843  0.9959  1.7695
 1302TIP3    H225542   7.144   2.140   7.926 -0.5240 -0.6366  0.9039
 1303TIP3   OH225543   5.536   4.519   1.770  0.6363 -0.0386 -0.7395
 1303TIP3    H125544   5.481   4.575   1.715  3.2127  3.1199 -0.4252
 1303TIP3    H225545   5.616   4.506   1.719  2.0516  0.7834  1.1599
 1304TIP3   OH225546   3.609   2.022   7.554  0.0561 -0.1080 -0.0103
 1304TIP3    H125547   3.694   2.066   7.554 -0.3057  0.6054 -0.2017
 1304TIP3    H225548   3.559   2.066   7.485 -1.7649  2.0461  2.5320
 1305TIP3   OH225549   5.870   2.609   0.247  0.2431 -0.2182 -0.7209
 1305TIP3    H125550   5.779   2.637   0.247 -0.4760 -2.2802  0.8861
 1305TIP3    H225551   5.880   2.559   0.166  0.4561  1.4033 -1.7205
 1306TIP3   OH225552   5.028   4.011   7.057  0.2078  0.6559  0.0124
 1306TIP3    H125553   5.093   4.015   7.127  0.5312  0.3104 -0.2655
 1306TIP3    H225554   5.041   4.092   7.008  0.9101  0.2717 -0.4583
 1307TIP3   OH225555   2.005   5.360   0.261  0.0033  0.1791  0.2969
 1307TIP3    H125556   1.998   5.447   0.300 -1.0897 -1.1173  3.2825
 1307TIP3    H225557   1.916   5.339   0.231  0.2125 -0.0162 -0.2086
 1308TIP3   OH225558   0.677   3.352   0.402  0.2124  0.1423 -0.1285
 1308TIP3    H125559   0.714   3.303   0.475 -0.5825  0.3041  0.3918
 1308TIP3    H225560   0.647   3.285   0.340 -1.1841 -0.0697  0.7344
 1309TIP3   OH225561   5.661   0.407   1.813 -0.4928 -0.0422  0.3112
 1309TIP3    H125562   5.636   0.324   1.774  0.4019 -0.1379 -0.0930
 1309TIP3    H225563   5.669   0.467   1.739  2.6383 -0.5844  0.0720
 1310TIP3   OH225564   5.813   3.992   8.043  0.2623 -0.1853  0.0863
 1310TIP3    H125565   5.867   4.067   8.018 -0.3019 -0.4315 -2.1503
 1310TIP3    H225566   5.743   3.991   7.978  0.2018 -2.5852  0.1054
 1311TIP3   OH225567   5.634   6.706   2.259  0.1199  0.0272  0.0571
 1311TIP3    H125568   5.632   6.612   2.241 -1.2320  0.1694 -0.6225
 1311TIP3    H225569   5.573   6.719   2.331  1.1040  0.2717  0.8817
 1312TIP3   OH225570   4.177   1.798   0.953 -0.7522  0.2971 -0.4736
 1312TIP3    H125571   4.243   1.742   0.994 -1.7283 -0.1880  0.4918
 1312TIP3    H225572   4.224   1.877   0.928 -0.1659  0.8612  2.0787
 1313TIP3   OH225573   0.208   3.008   6.619 -0.4631  0.7566 -0.2379
 1313TIP3    H125574   0.272   3.017   6.690 -0.6342 -0.1833  0.0509
 1313TIP3    H225575   0.236   2.930   6.571 -1.7409 -0.0578  0.2831
 1314TIP3   OH225576   4.165   3.996   7.910 -0.3903 -0.1270  0.0991
 1314TIP3    H125577   4.131   4.084   7.923 -1.2747 -0.5010  0.3968
 1314TIP3    H225578   4.189   3.993   7.817 -0.8171  0.2676 -0.0255
 1315TIP3   OH225579   4.369   6.066   7.025 -0.2039 -0.3468 -0.4073
 1315TIP3    H125580   4.451   6.027   6.995  0.4910  1.1644 -0.5454
 1315TIP3    H225581   4.375   6.063   7.120  1.2109  2.0195 -0.3411
 1316TIP3   OH225582   5.879   1.558   7.900  0.1594  0.5366 -0.0359
 1316TIP3    H125583   5.886   1.571   7.806 -0.3959 -0.5890 -0.2502
 1316TIP3    H225584   5.808   1.616   7.927 -0.5489 -0.0781 -0.5358
 1317TIP3   OH225585   1.129   0.697   6.028 -0.4188  0.5209 -0.7348
 1317TIP3    H125586   1.059   0.725   6.087 -1.2203  0.7624 -1.7654
 1317TIP3    H225587   1.174   0.628   6.077 -0.8391  0.9406  0.2896
 1318TIP3   OH225588   2.396   1.198   0.558  0.0967  0.0034  0.1669
 1318TIP3    H125589   2.400   1.166   0.467 -1.9709 -0.4949  0.2172
 1318TIP3    H225590   2.452   1.136   0.606 -0.0305 -0.6768 -0.5266
 1319TIP3   OH225591   1.269   0.968   7.140  0.4439 -0.5746 -0.6612
 1319TIP3    H125592   1.313   0.883   7.133 -0.1753 -0.9240 -0.3752
 1319TIP3    H225593   1.280   1.007   7.053 -0.8297 -1.7349 -1.3889
 1320TIP3   OH225594   3.107   6.888   6.935 -0.0232  0.2248  0.5119
 1320TIP3    H125595   3.045   6.847   6.874 -0.5391  1.2274  0.3337
 1320TIP3    H225596   3.167   6.818   6.959  0.8114 -0.0150 -1.9420
 1321TIP3   OH225597   6.729   4.540   0.123 -0.2394  0.3951  0.0897
 1321TIP3    H125598   6.677   4.527   0.203  0.1645 -1.5635  0.0909
 1321TIP3    H225599   6.820   4.536   0.153 -0.0733  0.9142 -0.3187
 1322TIP3   OH225600   3.520   3.781   2.330 -0.2503  0.1284 -0.2895
 1322TIP3    H125601   3.597   3.831   2.354 -1.1151  1.6416 -0.5130
 1322TIP3    H225602   3.456   3.802   2.399 -0.4921 -1.0313 -0.1507
 1323TIP3   OH225603   4.637   4.430   0.030  0.2187  0.1950 -0.1239
 1323TIP3    H125604   4.679   4.347   0.006  1.7583  1.1677 -0.9890
 1323TIP3    H225605   4.561   4.436  -0.028 -0.1198 -0.7742  0.2074
 1324TIP3   OH225606   4.538   4.344   2.194  0.0695  0.4067 -0.0224
 1324TIP3    H125607   4.480   4.408   2.235  0.1349  0.0983  0.5711
 1324TIP3    H225608   4.626   4.379   2.207  0.1880 -0.3206  1.2804
 1325TIP3   OH225609   2.362   2.995   0.221  0.3362 -0.1636 -0.1626
 1325TIP3    H125610   2.298   2.953   0.164 -0.5555  0.9681 -0.0327
 1325TIP3    H225611   2.379   2.930   0.290  0.6850 -1.1523 -1.1567
 1326TIP3   OH225612   6.411   3.528   0.051 -0.0120  0.2277  0.0674
 1326TIP3    H125613   6.345   3.480   0.000  0.4884  1.0181 -1.4062
 1326TIP3    H225614   6.462   3.574  -0.016  1.4285  0.3854  1.2408
 1327TIP3   OH225615   2.429   0.466   7.310  0.3617  0.0543 -0.7613
 1327TIP3    H125616   2.483   0.468   7.231  1.7972  2.0115  0.1945
 1327TIP3    H225617   2.431   0.374   7.337  2.1574 -0.1588 -1.4766
 1328TIP3   OH225618   2.957   3.797   0.744  0.5068  0.0824 -0.2291
 1328TIP3    H125619   2.937   3.716   0.791 -0.2704  1.2184  1.4651
 1328TIP3    H225620   2.900   3.795   0.667 -0.9400 -0.0736  0.8171
 1329TIP3   OH225621   2.068   6.740   0.964 -0.4941  0.1649  0.0574
 1329TIP3    H125622   2.157   6.774   0.975 -0.4508  0.3331 -0.7668
 1329TIP3    H225623   2.040   6.717   1.053  0.3753  0.0944  0.3223
 1330TIP3   OH225624   2.600   0.265   8.097  0.1881  0.4084 -0.2353
 1330TIP3    H125625   2.610   0.285   8.004 -0.3911  0.5087 -0.2803
 1330TIP3    H225626   2.506   0.251   8.109  0.5074 -2.0904 -0.1555
 1331TIP3   OH225627   1.105   2.782   1.455  0.1971 -0.0737 -0.0975
 1331TIP3    H125628   1.190   2.787   1.411  1.2635  0.1295  1.8609
 1331TIP3    H225629   1.126   2.750   1.543 -1.8506 -0.6394  0.2261
 1332TIP3   OH225630   3.062   6.646   1.059  0.5136  0.2475 -0.7365
 1332TIP3    H125631   3.046   6.738   1.080 -0.8710 -0.3853  1.3127
 1332TIP3    H225632   3.103   6.647   0.973  1.0728  2.8032 -0.5021
 1333TIP3   OH225633   1.437   2.479   2.389 -0.3045 -0.4068  0.3663
 1333TIP3    H125634   1.479   2.564   2.383  0.8298 -0.9890 -0.3921
 1333TIP3    H225635   1.388   2.481   2.471 -3.0249  2.1374 -1.1408
 1334TIP3   OH225636   6.055   2.217   1.710  0.1156  0.0097 -0.0879
 1334TIP3    H125637   5.983   2.248   1.656 -0.3850 -2.1611 -0.7739
 1334TIP3    H225638   6.013   2.174   1.784  0.6985 -0.9171 -0.2801
 1335TIP3   OH225639   4.700   5.794   6.391 -0.0925 -0.1312 -0.1418
 1335TIP3    H125640   4.703   5.700   6.407  1.8043 -0.2454 -0.9637
 1335TIP3    H225641   4.727   5.834   6.473  1.1565 -0.3977 -0.4091
 1336TIP3   OH225642   3.859   6.214   0.922  0.6124 -0.8139 -0.2910
 1336TIP3    H125643   3.799   6.143   0.901 -0.9120  0.3422 -0.0778
 1336TIP3    H225644   3.914   6.180   0.992 -0.2515 -1.7083 -0.0312
 1337TIP3   OH225645   6.366   2.143   1.080  0.2821 -0.1030  0.1102
 1337TIP3    H125646   6.349   2.134   0.986  1.4636 -3.6160  0.0792
 1337TIP3    H225647   6.431   2.213   1.086  0.2866  0.0948 -1.7153
 1338TIP3   OH225648   5.655   4.616   7.974  0.2670  0.2303 -0.6358
 1338TIP3    H125649   5.619   4.546   8.029 -0.3556  0.1631 -1.1155
 1338TIP3    H225650   5.586   4.682   7.972  1.4835  1.6596  1.1966
 1339TIP3   OH225651   4.068   0.831   7.269  0.0703  0.9693  0.0768
 1339TIP3    H125652   4.139   0.765   7.272  0.9449  1.8339 -0.9982
 1339TIP3    H225653   4.003   0.794   7.210  0.1825  0.7096  0.1138
 1340TIP3   OH225654   1.626   4.130   1.000 -0.2234 -0.8543  0.4796
 1340TIP3    H125655   1.716   4.113   1.031 -0.1025 -1.7489 -0.2980
 1340TIP3    H225656   1.595   4.201   1.056  0.8035 -0.8438  1.0824
 1341TIP3   OH225657   0.537   4.419   0.459 -0.6305 -0.0676 -0.3808
 1341TIP3    H125658   0.568   4.463   0.380  0.8852 -1.4790 -0.6332
 1341TIP3    H225659   0.539   4.326   0.437 -0.6657 -0.4638  1.1628
 1342TIP3   OH225660   0.894   0.463   0.522 -0.2087 -0.5312  0.3705
 1342TIP3    H125661   0.944   0.525   0.574 -0.1967  0.4411 -0.7585
 1342TIP3    H225662   0.921   0.479   0.431  0.3796 -2.7327  0.0977
 1343TIP3   OH225663   0.777   6.908   1.326 -0.3120 -0.1918  0.3677
 1343TIP3    H125664   0.826   6.860   1.259 -0.2679  0.6450 -0.2027
 1343TIP3    H225665   0.734   6.979   1.278 -1.6276 -0.5700  0.9457
 1344TIP3   OH225666   6.558   6.523   7.656 -0.2334 -0.6107 -0.8602
 1344TIP3    H125667   6.629   6.539   7.719 -0.8167 -1.4871  0.0324
 1344TIP3    H225668   6.573   6.434   7.625 -0.6355 -0.5978 -1.0893
 1345TIP3   OH225669   5.732   0.841   0.874 -0.3451  0.2393 -0.3677
 1345TIP3    H125670   5.747   0.919   0.820 -0.2085  0.8384  0.5220
 1345TIP3    H225671   5.788   0.854   0.951 -2.5417  0.7105  1.2378
 1346TIP3   OH225672   0.961   5.791   6.523 -0.0750  0.6899 -0.2604
 1346TIP3    H125673   0.969   5.842   6.604 -0.1373  1.2441 -0.6001
 1346TIP3    H225674   0.878   5.820   6.484 -0.4192 -0.1262 -0.1472
 1347TIP3   OH225675   2.967   0.660   6.734  0.1098  0.3879 -0.3145
 1347TIP3    H125676   3.060   0.669   6.715  0.6852 -1.0610  1.5103
 1347TIP3    H225677   2.935   0.598   6.670  0.5261  0.4509 -0.5851
 1348TIP3   OH225678   0.074   1.522   1.710  0.0881 -0.9313 -0.0170
 1348TIP3    H125679   0.127   1.548   1.785  0.4072 -0.5829 -0.3618
 1348TIP3    H225680   0.137   1.509   1.639 -0.2226 -1.1543 -0.2574
 1349TIP3   OH225681   6.025   4.644   1.025 -0.4709  0.5813  0.5070
 1349TIP3    H125682   6.088   4.679   0.961  1.6212  1.2041  2.7533
 1349TIP3    H225683   5.951   4.705   1.021 -0.4633  0.5262 -1.3599
 1350TIP3   OH225684   4.334   7.061   7.836  0.2146  0.0871  0.5206
 1350TIP3    H125685   4.420   7.094   7.809 -0.0462 -1.6309 -2.9794
 1350TIP3    H225686   4.347   6.967   7.847 -0.8792  0.0516  1.8633
 1351TIP3   OH225687   6.156   4.889   1.287 -0.0142 -0.0478 -0.1315
 1351TIP3    H125688   6.201   4.887   1.202  0.5589 -1.2148  0.1800
 1351TIP3    H225689   6.158   4.981   1.313  0.1713  0.2583 -1.1873
 1352TIP3   OH225690   4.862   5.781   1.525 -0.0614 -0.1796 -0.0486
 1352TIP3    H125691   4.790   5.766   1.587 -0.4078  2.9662  0.5116
 1352TIP3    H225692   4.935   5.730   1.560 -1.0524 -0.6866  1.3718
 1353TIP3   OH225693   5.666   0.640   2.555  0.5616  0.5068  0.1461
 1353TIP3    H125694   5.652   0.669   2.465  1.1623 -0.3311 -0.2354
 1353TIP3    H225695   5.748   0.590   2.552  0.1397 -0.2676  0.9806
 1354TIP3   OH225696   1.196   0.410   2.716 -0.0838  0.6343  0.8426
 1354TIP3    H125697   1.127   0.436   2.655 -0.6976 -0.6539  0.9592
 1354TIP3    H225698   1.236   0.333   2.676  0.6792  0.8257  1.2224
 1355TIP3   OH225699   6.073   4.698   7.305  0.2095 -0.3094  0.2033
 1355TIP3    H125700   6.049   4.627   7.364  1.5709 -0.3608  0.7339
 1355TIP3    H225701   5.990   4.726   7.265 -0.4140 -1.8112  0.3981
 1356TIP3   OH225702   3.522   0.525   7.171  0.0805  0.1216 -0.3660
 1356TIP3    H125703   3.589   0.475   7.217  1.6598  2.1393 -0.2768
 1356TIP3    H225704   3.569   0.603   7.139 -2.3125  1.8362  0.0447
 1357TIP3   OH225705   3.745   3.443   2.565  0.2901 -0.1224 -0.0817
 1357TIP3    H125706   3.740   3.494   2.645 -0.6385  1.2481 -0.9740
 1357TIP3    H225707   3.806   3.372   2.585  1.8858  1.5159  1.0870
 1358TIP3   OH225708   0.577   6.361   6.880 -0.2416 -0.6132  0.3376
 1358TIP3    H125709   0.629   6.281   6.885 -0.2410 -0.5510  1.6502
 1358TIP3    H225710   0.545   6.363   6.790 -0.4791 -2.2364  0.3567
 1359TIP3   OH225711   6.914   5.833   2.836  0.0540 -0.5060 -0.6942
 1359TIP3    H125712   6.973   5.855   2.764  1.9549 -0.1849  0.8727
 1359TIP3    H225713   6.916   5.909   2.894 -0.6412 -1.1413  0.2074
 1360TIP3   OH225714   2.796   2.352   7.013  0.3722 -0.8275 -0.3510
 1360TIP3    H125715   2.723   2.291   7.004  0.1688 -0.9428  1.6923
 1360TIP3    H225716   2.781   2.395   7.098  1.2882  1.0261 -1.0696
 1361TIP3   OH225717   3.501   2.226   1.785 -0.0363  0.0660 -0.3195
 1361TIP3    H125718   3.506   2.284   1.709 -1.9756  0.4918 -0.1909
 1361TIP3    H225719   3.498   2.138   1.748  1.2359  0.1314 -0.6042
 1362TIP3   OH225720   3.413   2.175   0.605  0.0473 -0.0935  0.2681
 1362TIP3    H125721   3.426   2.086   0.639 -2.0840  0.1586  1.9438
 1362TIP3    H225722   3.428   2.232   0.680  0.4777  0.9138 -0.5648
 1363TIP3   OH225723   0.038   6.270   7.013 -0.3878  0.1080  0.7126
 1363TIP3    H125724  -0.045   6.303   6.978  0.2318 -0.8896 -1.9964
 1363TIP3    H225725   0.092   6.348   7.026 -1.4697  0.7009  1.7994
 1364TIP3   OH225726   6.419   5.319   7.972 -0.7243 -0.0943  0.2958
 1364TIP3    H125727   6.505   5.342   8.004 -1.6340 -0.3903  3.1847
 1364TIP3    H225728   6.394   5.241   8.022 -2.3788 -0.4661 -1.0071
 1365TIP3   OH225729   3.485   4.394   1.371 -0.4791 -0.2233 -0.7224
 1365TIP3    H125730   3.498   4.300   1.384 -3.6655 -0.6908 -0.0917
 1365TIP3    H225731   3.469   4.403   1.277 -1.8758 -0.6030 -0.5345
 1366TIP3   OH225732   5.042   5.664   1.949 -0.3376 -0.2245 -0.0255
 1366TIP3    H125733   5.010   5.591   2.002  0.6721  0.1175  1.1104
 1366TIP3    H225734   5.134   5.673   1.974  0.3815 -0.4829 -2.3748
 1367TIP3   OH225735   3.556   6.815   1.853 -0.5764 -0.0539  0.0358
 1367TIP3    H125736   3.474   6.776   1.884 -1.1286 -0.6133 -1.9824
 1367TIP3    H225737   3.594   6.856   1.931 -1.0051 -2.7973  1.8474
 1368TIP3   OH225738   6.890   6.809   6.713 -0.2510 -0.0629  0.1996
 1368TIP3    H125739   6.840   6.890   6.722 -0.2995 -0.1264  0.5100
 1368TIP3    H225740   6.830   6.749   6.669 -0.2907  0.0026  0.1634
 1369TIP3   OH225741   6.201   2.789   7.416 -0.0848 -0.4543  0.4626
 1369TIP3    H125742   6.234   2.872   7.450 -1.0413 -0.0290  0.3755
 1369TIP3    H225743   6.127   2.813   7.361 -1.1412 -1.4455  1.4027
 1370TIP3   OH225744   6.206   4.088   0.434 -0.2720  0.2756  0.4986
 1370TIP3    H125745   6.115   4.116   0.436 -0.4359  0.0455 -1.6155
 1370TIP3    H225746   6.249   4.149   0.375  0.5789 -0.6223  0.1544
 1371TIP3   OH225747   2.490   3.757   7.150 -0.2087  0.2891 -0.6895
 1371TIP3    H125748   2.417   3.800   7.194 -0.6410  0.1515 -1.2630
 1371TIP3    H225749   2.544   3.722   7.221 -1.1440 -0.3369 -0.2822
 1372TIP3   OH225750   0.567   5.376   0.150 -0.9210  0.3969 -0.0505
 1372TIP3    H125751   0.570   5.365   0.245 -0.6362  0.6174 -0.0326
 1372TIP3    H225752   0.648   5.423   0.128 -0.8979  0.1899 -0.4223
 1373TIP3   OH225753   1.393   6.242   1.633 -0.3303 -0.1668 -0.5774
 1373TIP3    H125754   1.397   6.279   1.721 -1.6739 -0.0718 -0.5358
 1373TIP3    H225755   1.447   6.164   1.637  1.8009  1.2545 -0.4146
 1374TIP3   OH225756   0.650   3.121   2.624  0.2166 -0.5252  0.3594
 1374TIP3    H125757   0.652   3.214   2.644 -1.4520 -0.5966  1.0223
 1374TIP3    H225758   0.667   3.116   2.530 -0.2640  0.5105  0.2078
 1375TIP3   OH225759   0.778   1.329   6.707 -0.1499  0.8317 -0.2188
 1375TIP3    H125760   0.774   1.385   6.629  0.1796  0.9914 -0.1228
 1375TIP3    H225761   0.791   1.390   6.779  1.1699  0.5807 -0.2114
 1376TIP3   OH225762   2.737   4.925   1.310  0.8254 -0.1914  0.2099
 1376TIP3    H125763   2.811   4.864   1.306 -0.6463 -2.3655  3.0155
 1376TIP3    H225764   2.661   4.872   1.288 -0.3048  1.1370  0.8063
 1377TIP3   OH225765   0.076   1.213   0.404  0.1341  0.1239 -0.2936
 1377TIP3    H125766   0.096   1.146   0.469 -0.8707  1.3488  1.3734
 1377TIP3    H225767   0.159   1.259   0.391  0.9371 -1.6173 -1.7669
 1378TIP3   OH225768   3.771   5.497   0.657  0.0393  0.3009 -0.1812
 1378TIP3    H125769   3.811   5.441   0.590  0.0838  0.0936  0.0194
 1378TIP3    H225770   3.818   5.476   0.737 -0.6512 -0.1434  0.1138
 1379TIP3   OH225771   6.729   3.497   0.411 -0.4581  0.0436  0.8349
 1379TIP3    H125772   6.707   3.555   0.484 -0.2337  0.4609  0.5755
 1379TIP3    H225773   6.648   3.450   0.392 -0.7553  0.5895  0.7591
 1380TIP3   OH225774   1.090   6.775   1.280  0.1741  0.3899 -0.0386
 1380TIP3    H125775   1.031   6.756   1.208  1.0443 -1.0757 -0.4113
 1380TIP3    H225776   1.146   6.846   1.247 -1.4354  1.9161  0.3912
 1381TIP3   OH225777   2.485   1.555   0.317 -0.0667 -0.3838  0.1018
 1381TIP3    H125778   2.557   1.616   0.301 -0.1012 -0.8169 -1.8311
 1381TIP3    H225779   2.425   1.568   0.244 -0.0676 -2.7297 -0.3994
 1382TIP3   OH225780   0.245   6.457   7.025  0.2280  0.1646  0.6590
 1382TIP3    H125781   0.244   6.488   7.116  1.9001 -0.3221  0.8768
 1382TIP3    H225782   0.329   6.490   6.990  0.7000 -1.6250  0.0178
 1383TIP3   OH225783   1.939   0.724   1.596 -0.0546  0.5660  0.1293
 1383TIP3    H125784   1.932   0.664   1.671 -0.9877  1.2885  0.6443
 1383TIP3    H225785   2.011   0.689   1.544 -0.8988 -1.3131  0.1339
 1384TIP3   OH225786   2.008   3.700   7.497 -0.5341 -0.6729  0.4925
 1384TIP3    H125787   1.926   3.691   7.546 -0.6887 -0.8997  0.1949
 1384TIP3    H225788   1.981   3.715   7.407 -0.2498 -0.3085  0.4666
 1385TIP3   OH225789   1.420   4.984   1.393 -0.1261 -0.7696 -0.2317
 1385TIP3    H125790   1.493   5.044   1.411 -0.0748 -1.1632  0.9704
 1385TIP3    H225791   1.457   4.918   1.335  1.3439 -2.5266  2.4815
 1386TIP3   OH225792   2.538   5.273   0.188 -0.0303  0.0642 -0.3507
 1386TIP3    H125793   2.598   5.336   0.148  0.7317 -0.7744 -0.5540
 1386TIP3    H225794   2.451   5.305   0.165  0.3725  0.2863 -1.6174
 1387TIP3   OH225795   6.620   4.234   7.361 -0.0790 -0.1385 -0.3112
 1387TIP3    H125796   6.582   4.173   7.424 -2.5296  0.6651 -0.8669
 1387TIP3    H225797   6.615   4.319   7.404  0.2150  0.1106 -0.7659
 1388TIP3   OH225798   6.596   5.346   6.710 -0.0254 -0.6314 -0.2271
 1388TIP3    H125799   6.528   5.321   6.773 -0.0652 -1.5114 -0.6157
 1388TIP3    H225800   6.571   5.303   6.629  1.5835 -1.8921 -0.0907
 1389TIP3   OH225801   2.802   4.679   0.075  0.1969  0.1911 -0.1883
 1389TIP3    H125802   2.782   4.757   0.126 -1.3535 -0.1390 -0.2374
 1389TIP3    H225803   2.798   4.708  -0.016 -3.4645 -0.4723 -0.3893
 1390TIP3   OH225804   3.506   1.863   0.355  0.4026  0.2000  0.1812
 1390TIP3    H125805   3.448   1.789   0.337 -2.1886  2.1436 -0.0146
 1390TIP3    H225806   3.492   1.922   0.281  0.5377  1.9508  1.4957
 1391TIP3   OH225807   2.120   0.546   0.429 -0.2696  0.6731  0.7333
 1391TIP3    H125808   2.177   0.622   0.443 -0.0960  0.2559  2.5932
 1391TIP3    H225809   2.119   0.501   0.513  0.5285 -2.0573 -0.5976
 1392TIP3   OH225810   1.247   4.284   0.407 -0.2238 -0.3481 -0.7085
 1392TIP3    H125811   1.234   4.379   0.408 -0.2534 -0.2853  2.4937
 1392TIP3    H225812   1.159   4.248   0.398 -0.5085 -0.0167  0.5637
 1393TIP3   OH225813   1.316   6.253   1.930  0.4156  0.1962 -0.3120
 1393TIP3    H125814   1.269   6.186   1.979 -1.9548  2.2483  0.3966
 1393TIP3    H225815   1.378   6.290   1.993 -1.4170  1.6392  0.7623
 1394TIP3   OH225816   4.369   0.127   6.673  0.2629 -0.2843 -0.1284
 1394TIP3    H125817   4.431   0.124   6.746 -1.4421  0.6497  1.4409
 1394TIP3    H225818   4.378   0.215   6.637 -0.4218 -0.0046  0.3705
 1395TIP3   OH225819   1.948   5.432   7.723  0.7632  0.9173  0.2466
 1395TIP3    H125820   1.953   5.524   7.697  0.4456  0.1875 -2.7397
 1395TIP3    H225821   2.015   5.388   7.671  0.6555 -0.6436  1.3378
 1396TIP3   OH225822   5.049   1.391   0.228  0.6653 -0.4867  0.2628
 1396TIP3    H125823   5.030   1.460   0.165 -0.4195 -1.2127 -0.2435
 1396TIP3    H225824   5.076   1.437   0.307  0.9328  0.4744 -0.3693
 1397TIP3   OH225825   4.158   5.950   8.077 -0.4705  0.1849 -0.2441
 1397TIP3    H125826   4.094   5.880   8.065 -0.6837  0.6558 -2.1921
 1397TIP3    H225827   4.232   5.924   8.023  0.6994  0.0685  1.3238
 1398TIP3   OH225828   5.302   6.607   0.433  0.1667  0.1174  0.1165
 1398TIP3    H125829   5.323   6.519   0.466  2.0999 -0.7213 -2.9041
 1398TIP3    H225830   5.381   6.634   0.385 -1.4328  2.2204 -1.5629
 1399TIP3   OH225831   3.487   0.013   2.115  0.3604  0.5089  0.8099
 1399TIP3    H125832   3.552  -0.040   2.069 -0.7602 -0.5096  0.3292
 1399TIP3    H225833   3.507   0.002   2.208  1.2970  0.7911  0.6490
 1400TIP3   OH225834   1.155   3.859   0.911  0.1693  0.0259 -0.1330
 1400TIP3    H125835   1.239   3.890   0.944  0.5759 -0.3328 -0.8008
 1400TIP3    H225836   1.114   3.938   0.876 -0.9770  0.7333  2.5865
 1401TIP3   OH225837   4.727   4.566   2.236  0.0693  0.1311  0.2946
 1401TIP3    H125838   4.638   4.599   2.251 -0.6315 -0.0583 -2.7629
 1401TIP3    H225839   4.781   4.614   2.299 -2.0835  0.7507  1.7967
 1402TIP3   OH225840   2.228   2.761   6.540 -0.1530 -0.0750 -0.4595
 1402TIP3    H125841   2.321   2.765   6.561 -0.0879  0.9793 -0.8923
 1402TIP3    H225842   2.209   2.846   6.499 -1.8078  0.7526  1.8045
 1403TIP3   OH225843   2.439   6.749   1.244  0.5347  0.0349  0.0749
 1403TIP3    H125844   2.434   6.655   1.230  0.3848 -0.0683  0.7878
 1403TIP3    H225845   2.386   6.765   1.322 -1.0238  0.9685 -1.1078
 1404TIP3   OH225846   0.266   1.056   1.496 -0.2854  0.0004  0.6292
 1404TIP3    H125847   0.333   1.122   1.517  1.5344 -1.3915 -0.4772
 1404TIP3    H225848   0.313   0.973   1.500 -2.0001 -1.0526 -0.1239
 1405TIP3   OH225849   4.910   5.879   0.834  0.0982 -0.0510 -0.5194
 1405TIP3    H125850   4.904   5.784   0.844  2.1441 -0.0513  1.5493
 1405TIP3    H225851   4.828   5.912   0.870  0.2521 -0.9715  0.7450
 1406TIP3   OH225852   6.729   2.104   2.154  0.1400 -0.0156 -0.6139
 1406TIP3    H125853   6.734   2.053   2.073 -1.5377 -0.3108 -0.5742
 1406TIP3    H225854   6.744   2.040   2.224  0.0529 -0.0600 -0.6359
 1407TIP3   OH225855   6.388   5.442   7.714 -0.8669  0.4516  0.4389
 1407TIP3    H125856   6.397   5.407   7.803 -1.8078 -0.5514  0.1586
 1407TIP3    H225857   6.444   5.520   7.714 -0.2250  0.0305  1.6671
 1408TIP3   OH225858   5.981   4.616   0.395 -0.4737 -0.0119 -0.1382
 1408TIP3    H125859   6.023   4.530   0.399  1.0685  0.6153 -1.5312
 1408TIP3    H225860   5.993   4.644   0.304 -1.3309  1.4969  0.1840
 1409TIP3   OH225861   5.177   0.980   7.070  0.3525 -0.6188  0.4047
 1409TIP3    H125862   5.141   0.969   7.158 -1.2484  1.8558  0.1843
 1409TIP3    H225863   5.101   0.973   7.012  0.9696  0.2003 -0.5411
 1410TIP3   OH225864   7.052   5.170   6.910 -0.2650 -0.3665 -0.3425
 1410TIP3    H125865   6.963   5.145   6.887 -0.9462  0.4736  1.2152
 1410TIP3    H225866   7.098   5.175   6.826 -2.0015  0.4024 -1.3130
 1411TIP3   OH225867   4.612   0.681   7.113  0.1528  0.8447 -0.6207
 1411TIP3    H125868   4.703   0.709   7.122  0.0762  0.4873  2.0353
 1411TIP3    H225869   4.598   0.620   7.186 -2.3936  1.3964 -0.5475
 1412TIP3   OH225870   4.815   5.465   7.007 -0.0538  0.4718 -0.0364
 1412TIP3    H125871   4.869   5.402   7.055  0.6531  2.1903  1.5663
 1412TIP3    H225872   4.727   5.428   7.010  0.3205 -0.3988  0.9683
 1413TIP3   OH225873   1.146   4.403   7.036 -0.6182  0.5546 -0.1251
 1413TIP3    H125874   1.152   4.383   7.130 -0.7459  1.0993  0.0014
 1413TIP3    H225875   1.235   4.431   7.012 -0.0468 -1.4997 -0.6319
 1414TIP3   OH225876   2.862   5.255   1.466 -0.0385 -0.1960  0.1901
 1414TIP3    H125877   2.938   5.312   1.452 -0.0847 -0.1153  0.2623
 1414TIP3    H225878   2.898   5.167   1.471 -0.0748 -0.2974 -1.0191
 1415TIP3   OH225879   0.206   3.683   2.379  0.0143 -0.3276  0.3613
 1415TIP3    H125880   0.176   3.614   2.437  1.0023  0.8416  2.3502
 1415TIP3    H225881   0.287   3.714   2.418 -0.7202  2.3841 -0.0741
 1416TIP3   OH225882   6.119   3.690   7.788  0.3136  0.2085  0.8022
 1416TIP3    H125883   6.167   3.772   7.778  1.1759 -0.1861  1.5870
 1416TIP3    H225884   6.065   3.703   7.866 -0.4723  0.4566  0.2293
 1417TIP3   OH225885   4.012   3.327   1.433  0.1783  0.1909 -0.0796
 1417TIP3    H125886   4.028   3.364   1.346  0.5230  1.1084  0.3624
 1417TIP3    H225887   4.089   3.351   1.484 -0.8570  1.3337  1.0169
 1418TIP3   OH225888   4.697   0.513   0.758 -0.0522  0.0567 -0.3710
 1418TIP3    H125889   4.618   0.563   0.736 -1.5872 -2.4815 -1.0329
 1418TIP3    H225890   4.683   0.483   0.848  0.3635 -0.0702 -0.3448
 1419TIP3   OH225891   1.319   1.228   7.263 -0.1421 -0.5340  0.1060
 1419TIP3    H125892   1.346   1.161   7.200 -0.1443  0.1437 -0.6396
 1419TIP3    H225893   1.243   1.191   7.308  0.5615 -1.4884  0.5257
 1420TIP3   OH225894   6.470   1.423   0.851  0.2752  0.3174  0.4821
 1420TIP3    H125895   6.555   1.447   0.888  0.9217 -2.3150  0.8963
 1420TIP3    H225896   6.488   1.344   0.800 -1.5008  1.1355 -1.5010
 1421TIP3   OH225897   6.069   2.213   0.735 -0.3489 -0.0798  0.7321
 1421TIP3    H125898   6.057   2.308   0.731  0.8154  0.0253 -1.1368
 1421TIP3    H225899   6.012   2.179   0.666 -1.9136 -0.9322  2.3422
 1422TIP3   OH225900   5.927   0.899   1.067  0.2276 -0.6364  0.8062
 1422TIP3    H125901   5.958   0.911   0.977  1.9638 -1.1730  1.2938
 1422TIP3    H225902   6.007   0.887   1.119 -0.6555  0.8745  2.6440
 1423TIP3   OH225903   5.790   5.929   6.387 -0.5396  0.3221 -0.4901
 1423TIP3    H125904   5.706   5.905   6.427  0.3633  0.2542  1.5081
 1423TIP3    H225905   5.800   6.022   6.406  0.0267  0.2315 -0.3186
 1424TIP3   OH225906   3.003   3.224   2.096 -0.3797 -0.0158  0.0607
 1424TIP3    H125907   2.914   3.224   2.129 -0.3359 -1.2700  0.2514
 1424TIP3    H225908   2.995   3.190   2.006 -0.3465  2.1117 -0.8055
 1425TIP3   OH225909   4.303   4.895   7.237  0.3368  0.1662  0.2472
 1425TIP3    H125910   4.221   4.851   7.212  0.6587  0.2894 -1.1162
 1425TIP3    H225911   4.357   4.890   7.158  2.2498 -1.2554  1.5580
 1426TIP3   OH225912   1.647   4.785   7.147  0.0800 -0.2247  0.1975
 1426TIP3    H125913   1.698   4.844   7.204  1.5029 -1.8286  0.6682
 1426TIP3    H225914   1.684   4.800   7.059 -1.1283  1.1895 -0.1157
 1427TIP3   OH225915   6.062   1.855   7.937  1.1669  0.1032 -0.2494
 1427TIP3    H125916   5.995   1.793   7.966  1.6728  0.1373  1.0698
 1427TIP3    H225917   6.012   1.932   7.907  0.6098  0.2958  1.1107
 1428TIP3   OH225918   6.966   7.035   1.241 -0.4429 -0.5171 -0.0707
 1428TIP3    H125919   7.028   7.056   1.171  1.5621 -0.2473  1.6729
 1428TIP3    H225920   7.018   6.986   1.305 -0.9576  2.7065  3.1588
 1429TIP3   OH225921   2.994   0.943   1.831  0.2284  0.1480 -0.7512
 1429TIP3    H125922   2.969   1.004   1.761 -2.0937 -1.1356 -1.1426
 1429TIP3    H225923   2.988   0.995   1.911  1.3252  1.2111 -1.3213
 1430TIP3   OH225924   3.315   2.361   7.555  0.3048  0.6924 -0.5147
 1430TIP3    H125925   3.392   2.366   7.497 -0.7309 -1.2853 -2.1579
 1430TIP3    H225926   3.350   2.332   7.639  1.7188  2.7388 -0.3158
 1431TIP3   OH225927   5.091   1.429   8.035 -0.0113  0.1146  0.2196
 1431TIP3    H125928   5.021   1.421   7.970  0.8577 -2.2669 -0.5208
 1431TIP3    H225929   5.082   1.351   8.089 -0.2227  1.6667  2.5466
 1432TIP3   OH225930   0.873   0.087   1.450  0.3317 -0.5716  0.3920
 1432TIP3    H125931   0.825   0.031   1.510  0.0480 -0.1095  0.5986
 1432TIP3    H225932   0.826   0.171   1.452 -0.3618 -0.8809 -1.3272
 1433TIP3   OH225933   0.928   2.901   7.358  0.2567 -0.1688 -0.2394
 1433TIP3    H125934   0.941   2.950   7.276  1.0067 -1.1306 -0.7146
 1433TIP3    H225935   0.945   2.965   7.427  0.7026  0.3823 -0.8490
 1434TIP3   OH225936   4.054   6.183   0.265  0.6791 -0.1367  0.3952
 1434TIP3    H125937   4.070   6.264   0.215  0.6252 -0.2182  0.2438
 1434TIP3    H225938   4.141   6.148   0.282  0.6765 -0.8603 -0.8931
 1435TIP3   OH225939   4.864   2.733   2.436  0.1156  0.1785 -0.2251
 1435TIP3    H125940   4.905   2.656   2.474 -0.4812 -0.1241 -0.1906
 1435TIP3    H225941   4.935   2.798   2.431  0.3253  0.0642  0.9425
 1436TIP3   OH225942   1.630   4.318   0.005  0.2074  0.2298 -0.1177
 1436TIP3    H125943   1.602   4.390   0.061  0.3493 -0.2757  0.6183
 1436TIP3    H225944   1.602   4.343  -0.083  1.5055  1.8536 -0.1232
 1437TIP3   OH225945   0.250   4.464   2.419 -0.1618 -0.3363  0.2812
 1437TIP3    H125946   0.256   4.387   2.477  0.4703  1.4309  2.7407
 1437TIP3    H225947   0.166   4.504   2.441 -0.3079 -0.0952 -0.6817
 1438TIP3   OH225948   1.838   1.197   0.170  0.1506  0.3038 -0.4981
 1438TIP3    H125949   1.811   1.253   0.243 -0.0504  1.5014 -1.4755
 1438TIP3    H225950   1.930   1.178   0.188 -0.4877 -1.4469  1.3331
 1439TIP3   OH225951   2.270   1.795   1.864  0.2808  0.0243 -0.0702
 1439TIP3    H125952   2.225   1.738   1.927 -0.1369 -1.9858 -2.0901
 1439TIP3    H225953   2.359   1.762   1.860  0.3997  0.3641 -0.3012
 1440TIP3   OH225954   5.353   1.446   2.171 -0.1110  0.2323 -0.0777
 1440TIP3    H125955   5.359   1.429   2.265  0.0967  1.8350  0.2198
 1440TIP3    H225956   5.411   1.381   2.132 -0.7273 -0.9122  0.8245
 1441TIP3   OH225957   2.325   5.407   2.340  0.0628  0.4497  0.2255
 1441TIP3    H125958   2.298   5.355   2.416  0.5863  1.1969  0.9483
 1441TIP3    H225959   2.413   5.437   2.363  0.9825 -0.7820 -1.4668
 1442TIP3   OH225960   0.571   0.884   6.954  0.3575  0.0533  0.3183
 1442TIP3    H125961   0.489   0.838   6.935  0.6325 -0.1644 -0.3773
 1442TIP3    H225962   0.547   0.949   7.020  0.1797 -1.8231  2.2179
 1443TIP3   OH225963   4.263   0.639   7.681 -0.0480  0.1383  0.4051
 1443TIP3    H125964   4.183   0.613   7.726 -0.1958 -1.6900 -0.7960
 1443TIP3    H225965   4.247   0.729   7.653 -0.3257  0.9883  3.0533
 1444TIP3   OH225966   2.178   1.719   0.256 -0.1801  0.1484 -0.1593
 1444TIP3    H125967   2.120   1.777   0.208 -0.5952 -1.4404 -1.6826
 1444TIP3    H225968   2.128   1.695   0.334 -0.1655  1.4503  0.2741
 1445TIP3   OH225969   2.399   7.014   6.471  0.7160  0.2455  0.0742
 1445TIP3    H125970   2.433   6.932   6.506  1.9160  0.7221  0.0629
 1445TIP3    H225971   2.305   7.010   6.488  0.7038 -1.2658 -0.2059
 1446TIP3   OH225972   6.089   3.063   7.846 -0.0276 -0.1893 -0.7730
 1446TIP3    H125973   6.089   3.001   7.773  0.1209  0.1101 -1.0288
 1446TIP3    H225974   6.015   3.037   7.900 -0.3406 -0.2087 -1.2074
 1447TIP3   OH225975   0.769   5.585   0.158 -0.7808 -0.1094  0.1300
 1447TIP3    H125976   0.701   5.646   0.129 -0.1962  0.4226 -0.1675
 1447TIP3    H225977   0.800   5.621   0.241 -0.3720  0.0580 -0.0910
 1448TIP3   OH225978   0.303   6.104   1.441  0.8389  0.3206 -0.1100
 1448TIP3    H125979   0.326   6.026   1.493  0.5454  0.2632 -0.0676
 1448TIP3    H225980   0.225   6.139   1.483 -1.3194 -1.4915 -2.2777
 1449TIP3   OH225981   4.779   3.026   0.667 -0.0428  0.2764 -0.3487
 1449TIP3    H125982   4.708   3.064   0.718  0.1998 -1.9695  1.8787
 1449TIP3    H225983   4.741   2.948   0.626  0.6985  0.0085 -0.5520
 1450TIP3   OH225984   3.580   2.419   6.961 -0.0861 -0.5822  0.0718
 1450TIP3    H125985   3.530   2.405   6.880  0.9946  1.6308 -1.0638
 1450TIP3    H225986   3.523   2.470   7.017  0.3365  0.7952 -0.6967
 1451TIP3   OH225987   6.990   5.532   6.132  0.1088  0.3182 -0.0144
 1451TIP3    H125988   6.953   5.444   6.128 -0.1291  0.4518 -2.4521
 1451TIP3    H225989   7.081   5.521   6.106 -0.0447  0.8175 -0.8135
 1452TIP3   OH225990   5.317   3.002   7.098  0.1536 -0.3826 -0.0969
 1452TIP3    H125991   5.397   2.980   7.050  0.3926 -1.5684  0.7914
 1452TIP3    H225992   5.254   2.936   7.069 -0.9863  1.4212 -1.9001
 1453TIP3   OH225993   5.673   1.896   2.054 -0.4280  0.6691  0.8418
 1453TIP3    H125994   5.699   1.827   2.116  1.5477 -1.2408 -1.8713
 1453TIP3    H225995   5.725   1.972   2.080 -0.1186  0.1169  1.9007
 1454TIP3   OH225996   1.727   0.887   0.778  0.0343 -0.3272 -0.2573
 1454TIP3    H125997   1.743   0.799   0.812 -0.4339 -0.4630 -0.3832
 1454TIP3    H225998   1.646   0.879   0.728  0.6760 -0.1144 -1.3692
 1455TIP3   OH225999   6.554   3.865   7.563  0.0537 -0.4024  0.4135
 1455TIP3    H126000   6.514   3.915   7.634  0.4321  1.3049 -0.5477
 1455TIP3    H226001   6.504   3.889   7.485  1.1287 -0.4422 -0.3022
 1456TIP3   OH226002   5.870   1.637   7.653  0.0547  0.2284 -0.0485
 1456TIP3    H126003   5.854   1.616   7.561 -0.5996 -1.0363  0.3316
 1456TIP3    H226004   5.874   1.732   7.655  3.6965  0.3264 -1.9781
 1457TIP3   OH226005   0.231   2.108   6.589  0.6767 -0.1718  0.3955
 1457TIP3    H126006   0.155   2.151   6.550  0.3568 -1.6822 -0.7661
 1457TIP3    H226007   0.306   2.153   6.551  0.3629  0.0322  0.0033
 1458TIP3   OH226008   6.373   5.934   1.957  0.0561 -0.1187 -0.2073
 1458TIP3    H126009   6.442   5.876   1.988 -1.1218 -2.2763 -1.4314
 1458TIP3    H226010   6.336   5.973   2.037 -0.3988 -2.5816  0.8606
 1459TIP3   OH226011   2.557   1.039   0.680  0.3719  0.0638  0.0122
 1459TIP3    H126012   2.589   0.955   0.647 -2.1596 -0.4178 -1.5117
 1459TIP3    H226013   2.562   1.031   0.775 -1.6725 -2.7318  0.0225
 1460TIP3   OH226014   2.536   6.017   7.487  0.1632  0.0482 -0.5028
 1460TIP3    H126015   2.506   6.022   7.396 -1.8275 -1.1429  0.0283
 1460TIP3    H226016   2.519   5.927   7.513  0.6805  0.3713  1.0683
 1461TIP3   OH226017   0.960   5.691   7.204  0.0343 -0.0991  0.4887
 1461TIP3    H126018   0.866   5.680   7.188 -0.4041 -0.1398  2.7714
 1461TIP3    H226019   0.966   5.716   7.296  2.3172 -0.9219  0.6342
 1462TIP3   OH226020   6.136   1.295   2.255  0.3214 -0.4413 -0.7047
 1462TIP3    H126021   6.207   1.330   2.201 -1.0104  1.3859 -1.4001
 1462TIP3    H226022   6.175   1.224   2.305  2.0018 -1.1541 -2.9161
 1463TIP3   OH226023   6.387   6.258   1.277  1.0102  0.1920 -0.2116
 1463TIP3    H126024   6.347   6.305   1.350 -1.0271  0.6751 -1.5794
 1463TIP3    H226025   6.439   6.325   1.231  0.0007  0.5838 -0.8092
 1464TIP3   OH226026   0.285   6.490   1.457  0.2803 -0.0008  0.1747
 1464TIP3    H126027   0.262   6.439   1.535  0.9048  0.0121  0.3719
 1464TIP3    H226028   0.242   6.574   1.470 -0.5412 -0.3854 -0.0295
 1465TIP3   OH226029   0.633   2.146   0.578 -0.3226 -0.4048  0.3739
 1465TIP3    H126030   0.638   2.231   0.621 -0.2757 -0.5032  0.5644
 1465TIP3    H226031   0.544   2.143   0.541 -0.2476 -0.1840  0.1792
 1466TIP3   OH226032   5.096   0.667   1.395 -0.1899 -0.2627  0.2810
 1466TIP3    H126033   5.079   0.692   1.486  0.8524  0.4172  0.3062
 1466TIP3    H226034   5.132   0.579   1.400 -0.7473 -0.4845  0.4651
 1467TIP3   OH226035   1.003   1.443   7.805 -0.1793  0.4809 -0.1333
 1467TIP3    H126036   1.082   1.440   7.753 -0.7289  1.1417 -1.0377
 1467TIP3    H226037   1.034   1.442   7.896  0.8798  1.0956 -0.4679
 1468TIP3   OH226038   2.520   1.800   7.694  0.1252 -0.0504 -0.0138
 1468TIP3    H126039   2.536   1.869   7.629  1.9964  1.4205  1.8746
 1468TIP3    H226040   2.438   1.826   7.737  0.1464  0.2857 -0.1750
 1469TIP3   OH226041   3.587   6.655   7.235 -0.4387 -0.1099 -0.1102
 1469TIP3    H126042   3.541   6.731   7.270 -1.8195 -0.1465 -1.7332
 1469TIP3    H226043   3.520   6.603   7.191  0.9792 -0.6193 -1.8121
 1470TIP3   OH226044   3.760   6.475   6.996 -0.1098 -0.2885 -0.4381
 1470TIP3    H126045   3.794   6.453   6.909 -0.6904 -0.3690 -0.6439
 1470TIP3    H226046   3.673   6.510   6.980 -0.5964 -1.1724  0.1809
 1471TIP3   OH226047   0.964   4.407   1.361 -0.0240  0.0267  0.3943
 1471TIP3    H126048   0.894   4.404   1.297  1.4656 -1.1126 -1.2877
 1471TIP3    H226049   0.989   4.316   1.373  2.6031  0.4908 -0.8035
 1472TIP3   OH226050   3.963   5.684   1.408  0.8731 -0.3581  0.2805
 1472TIP3    H126051   3.958   5.779   1.402  0.4068 -0.4545 -2.1225
 1472TIP3    H226052   3.872   5.656   1.418  0.7788 -0.5848 -1.0092
 1473TIP3   OH226053   1.425   6.134   1.321  0.0090  0.0921 -0.3676
 1473TIP3    H126054   1.419   6.048   1.364  0.0009  1.3882  2.3991
 1473TIP3    H226055   1.341   6.175   1.338  1.0485  1.7698  0.9632
 1474TIP3   OH226056   1.646   7.036   1.539  0.6077  0.3498  0.1213
 1474TIP3    H126057   1.617   7.021   1.629  1.0317  2.0070  0.5705
 1474TIP3    H226058   1.713   7.104   1.546  1.0061  0.1562 -1.4043
 1475TIP3   OH226059   5.906   2.842   0.903 -0.3162 -0.1230  0.1979
 1475TIP3    H126060   5.834   2.893   0.940  0.1813 -0.0583  1.1070
 1475TIP3    H226061   5.967   2.830   0.976 -0.1378 -1.5023 -0.1595
 1476TIP3   OH226062   6.451   0.051   0.085 -0.0711 -0.2233  0.1710
 1476TIP3    H126063   6.532   0.093   0.054 -0.9187  0.5997 -1.0356
 1476TIP3    H226064   6.455  -0.038   0.049 -0.6211  0.4429 -1.6435
 1477TIP3   OH226065   5.478   3.027   7.854 -0.2119  0.0684 -0.0466
 1477TIP3    H126066   5.471   2.939   7.891 -0.7157 -0.1305 -0.5851
 1477TIP3    H226067   5.398   3.036   7.801 -0.8377  1.3622  1.0786
 1478TIP3   OH226068   3.714   6.603   7.575 -0.2788  0.0337  0.3564
 1478TIP3    H126069   3.679   6.533   7.519 -1.8291  0.5096  0.6782
 1478TIP3    H226070   3.767   6.656   7.516  0.8427 -1.3426  0.0898
 1479TIP3   OH226071   2.169   0.080   1.956  0.9365  0.3104  0.9319
 1479TIP3    H126072   2.145   0.020   2.028 -0.1969 -2.1724 -1.3312
 1479TIP3    H226073   2.092   0.136   1.946  1.3376  1.0889  1.9751
 1480TIP3   OH226074   3.023   2.095   0.016  0.6814  0.3805 -0.1934
 1480TIP3    H126075   2.949   2.151   0.040  0.7240  0.0327  0.7726
 1480TIP3    H226076   3.100   2.143   0.045  0.7666  0.1889 -0.1008
 1481TIP3   OH226077   4.745   1.902   1.491  0.4981  0.1570 -0.0568
 1481TIP3    H126078   4.723   1.973   1.552 -0.2198 -0.2705  0.1950
 1481TIP3    H226079   4.827   1.866   1.525 -0.3491 -0.6697  1.2083
 1482TIP3   OH226080   0.852   3.072   2.182  0.3693 -0.5213 -0.2577
 1482TIP3    H126081   0.850   3.043   2.091  0.4688 -2.6444  0.3529
 1482TIP3    H226082   0.861   2.991   2.232 -0.3760  0.5384  1.6814
 1483TIP3   OH226083   3.790   4.889   2.117 -0.3885  0.3042  0.9546
 1483TIP3    H126084   3.839   4.817   2.076 -0.7007  0.6264 -0.0124
 1483TIP3    H226085   3.767   4.947   2.044 -0.3920  1.2426  1.6794
 1484TIP3   OH226086   3.250   5.156   0.229  0.0484  0.0648  0.1891
 1484TIP3    H126087   3.165   5.161   0.184 -0.7300 -2.1370  1.2672
 1484TIP3    H226088   3.229   5.167   0.321  1.0728  0.2879  0.4052
 1485TIP3   OH226089   3.247   2.558   1.975  0.3954  0.2688  0.9192
 1485TIP3    H126090   3.199   2.511   1.906  1.2666  2.1239 -1.0427
 1485TIP3    H226091   3.320   2.500   1.997  0.7782  0.1364 -0.6003
 1486TIP3   OH226092   2.595   5.492   1.050  0.0344 -0.3448  0.4831
 1486TIP3    H126093   2.599   5.537   0.966 -0.7842  0.2046  0.7333
 1486TIP3    H226094   2.506   5.458   1.056 -0.2450  0.5051  1.5642
 1487TIP3   OH226095   3.214   1.862   0.774  0.3357  0.2095 -0.5012
 1487TIP3    H126096   3.188   1.828   0.859 -1.4793 -0.4975 -1.2938
 1487TIP3    H226097   3.286   1.805   0.747 -0.1719 -0.6182 -0.1495
 1488TIP3   OH226098   1.919   5.709   7.667 -0.0549 -0.0397 -0.4266
 1488TIP3    H126099   1.835   5.750   7.688 -0.3438 -0.5005 -0.6775
 1488TIP3    H226100   1.984   5.771   7.699 -0.4790 -0.4392  1.2909
 1489TIP3   OH226101   1.061   6.117   1.232 -0.4541  0.0494  0.3170
 1489TIP3    H126102   1.106   6.193   1.268  2.6551 -1.6268  0.2964
 1489TIP3    H226103   1.044   6.061   1.308  1.3821 -1.1772 -0.1257
 1490TIP3   OH226104   3.529   6.894   7.602 -0.6047 -0.2827  0.7064
 1490TIP3    H126105   3.553   6.906   7.510  1.0226 -0.0303  1.1347
 1490TIP3    H226106   3.531   6.799   7.615 -3.4903 -0.5427 -0.1460
 1491TIP3   OH226107   4.968   5.054   1.324 -0.4841  0.2101  0.8519
 1491TIP3    H126108   5.038   5.119   1.321  0.7208 -1.0781 -1.0521
 1491TIP3    H226109   4.931   5.053   1.236  0.6112 -2.7208  0.3048
 1492TIP3   OH226110   4.993   3.215   1.198  0.1654 -0.1553 -0.4243
 1492TIP3    H126111   4.951   3.157   1.262  0.0471 -0.2666 -0.6012
 1492TIP3    H226112   5.080   3.231   1.235 -0.7312  1.7996  1.0237
 1493TIP3   OH226113   3.012   5.470   0.534 -0.3101  0.4240  0.0563
 1493TIP3    H126114   3.071   5.483   0.608 -0.0334  3.1957 -0.5393
 1493TIP3    H226115   3.042   5.388   0.493  1.8167  0.7151  0.9227
 1494TIP3   OH226116   1.697   2.385   7.437 -0.6594 -0.1781  0.0040
 1494TIP3    H126117   1.761   2.456   7.433 -0.6408 -0.1672  0.4295
 1494TIP3    H226118   1.649   2.390   7.354  0.2346 -0.5062 -0.5566
 1495TIP3   OH226119   4.576   0.466   6.944  0.8787 -0.1455  0.1617
 1495TIP3    H126120   4.596   0.539   7.003 -0.1199  0.5562 -0.3299
 1495TIP3    H226121   4.621   0.488   6.862  2.9165 -1.5048  0.8522
 1496TIP3   OH226122   4.271   3.029   1.198  0.3213 -0.2480  0.3082
 1496TIP3    H126123   4.196   3.031   1.139  0.1280  1.9779  0.5338
 1496TIP3    H226124   4.276   3.118   1.233  3.2498 -0.1993  0.0579
 1497TIP3   OH226125   1.087   4.028   7.271 -0.4319  0.1534  0.2320
 1497TIP3    H126126   1.129   3.995   7.351  0.1557 -0.0254 -0.1398
 1497TIP3    H226127   0.999   3.993   7.273 -0.4272  0.1696  0.8179
 1498TIP3   OH226128   3.851   2.517   0.634  0.2874 -0.0043  0.7516
 1498TIP3    H126129   3.761   2.487   0.638  0.9969 -2.4210  0.6546
 1498TIP3    H226130   3.880   2.494   0.545  1.0113  0.6856  0.7967
 1499TIP3   OH226131   1.853   0.490   0.379  1.3751 -0.0072 -0.5017
 1499TIP3    H126132   1.942   0.523   0.388  1.4574 -0.8785  3.0586
 1499TIP3    H226133   1.850   0.412   0.433 -1.8912  0.7839  0.6945
 1500TIP3   OH226134   6.600   2.823   0.228  0.5167 -0.5147  0.1435
 1500TIP3    H126135   6.532   2.860   0.171  0.8111  0.3258  0.3251
 1500TIP3    H226136   6.568   2.735   0.249 -0.1493 -0.4102 -0.3797
 1501TIP3   OH226137   3.868   0.717   0.004  0.0241 -0.6985  0.1981
 1501TIP3    H126138   3.951   0.676   0.029  0.5517  0.1621 -0.1014
 1501TIP3    H226139   3.820   0.648  -0.042  1.2922 -0.7434 -1.1423
 1502TIP3   OH226140   2.647   0.263   0.883 -0.1506  0.2828 -0.1676
 1502TIP3    H126141   2.652   0.255   0.787 -0.2393  1.2218 -0.2601
 1502TIP3    H226142   2.715   0.204   0.915  1.7481  1.9353 -0.9179
 1503TIP3   OH226143   4.492   0.503   0.294  0.6496 -0.2930 -0.1789
 1503TIP3    H126144   4.579   0.535   0.315  1.1390 -1.7134  0.0371
 1503TIP3    H226145   4.485   0.515   0.199  1.9555 -2.1371 -0.5672
 1504TIP3   OH226146   4.717   4.432   2.654 -0.0040  0.3841 -0.0770
 1504TIP3    H126147   4.669   4.450   2.735 -0.8772 -0.3046 -0.4207
 1504TIP3    H226148   4.725   4.337   2.652  0.7696  0.4461 -0.3874
 1505TIP3   OH226149   1.396   3.673   8.183 -0.2445 -0.8236  0.2102
 1505TIP3    H126150   1.325   3.684   8.246 -0.0570 -2.2372  0.6904
 1505TIP3    H226151   1.353   3.678   8.098 -0.8044 -0.9032  0.4797
 1506TIP3   OH226152   3.791   6.406   1.311  0.4934 -0.2607 -0.0264
 1506TIP3    H126153   3.820   6.426   1.222  2.4432 -0.1146  0.5984
 1506TIP3    H226154   3.766   6.314   1.308  0.1677 -0.1548 -0.8034
 1507TIP3   OH226155   6.056   2.122   7.024 -0.0308 -0.1845  0.3238
 1507TIP3    H126156   5.971   2.087   7.052  0.0777  1.3401  2.9040
 1507TIP3    H226157   6.099   2.147   7.106  1.8093  1.5290 -1.0871
 1508TIP3   OH226158   4.265   5.673   7.841  0.0340  0.2178 -0.4893
 1508TIP3    H126159   4.297   5.619   7.914 -1.9146  0.2042  0.4275
 1508TIP3    H226160   4.313   5.755   7.849 -1.7764  1.1610  2.3970
 1509TIP3   OH226161   6.005   6.693   0.610  0.0496 -0.3969  0.8165
 1509TIP3    H126162   6.015   6.622   0.674 -0.0791  0.5171  1.8889
 1509TIP3    H226163   5.960   6.763   0.658  0.4153  0.5181 -0.1246
 1510TIP3   OH226164   2.023   6.418   6.784  0.1023 -0.0541  0.2331
 1510TIP3    H126165   1.951   6.394   6.843  0.6506 -0.4512  0.7526
 1510TIP3    H226166   2.011   6.363   6.707  2.0882 -3.1539  1.9134
 1511TIP3   OH226167   2.228   5.032   1.378  0.0350 -0.3681 -0.1685
 1511TIP3    H126168   2.252   4.970   1.447 -3.2242 -1.3298  0.2245
 1511TIP3    H226169   2.143   5.066   1.404 -0.4894  0.6166 -2.8541
 1512TIP3   OH226170   5.784   6.195   1.013 -0.2911  0.5896  0.4738
 1512TIP3    H126171   5.827   6.261   0.958  1.7177  0.9996  2.4025
 1512TIP3    H226172   5.750   6.245   1.087 -0.2082 -0.3261  1.1392
 1513TIP3   OH226173   6.163   0.448   7.399 -0.0136  0.0053 -0.0662
 1513TIP3    H126174   6.101   0.508   7.357  1.7253  0.5531 -2.0559
 1513TIP3    H226175   6.245   0.499   7.403  0.4741 -0.8738  1.9417
 1514TIP3   OH226176   2.195   4.452   0.538 -0.2748  0.4240 -0.7678
 1514TIP3    H126177   2.226   4.406   0.460 -0.1383 -0.7880 -0.0150
 1514TIP3    H226178   2.270   4.506   0.565 -0.0027  0.1361 -0.9378
 1515TIP3   OH226179   1.551   0.599   0.904 -0.4916 -0.2651 -0.1857
 1515TIP3    H126180   1.531   0.587   0.811  0.3365  0.1849 -0.4331
 1515TIP3    H226181   1.647   0.609   0.907 -0.3986 -1.2066  0.8169
 1516TIP3   OH226182   1.824   0.744   0.141 -0.0717  0.8993  0.3295
 1516TIP3    H126183   1.912   0.768   0.168  0.4100 -0.8970  0.4498
 1516TIP3    H226184   1.770   0.759   0.219  0.8867 -1.8862  1.6770
 1517TIP3   OH226185   3.173   2.518   7.909 -0.6485  0.5977  0.0128
 1517TIP3    H126186   3.131   2.440   7.874  1.3669 -0.3095 -0.5284
 1517TIP3    H226187   3.212   2.489   7.991  0.9047  0.7586 -0.6444
 1518TIP3   OH226188   1.911   5.595   0.386  0.4726 -0.4294 -0.4767
 1518TIP3    H126189   1.930   5.540   0.462  1.7863 -0.2427 -0.6412
 1518TIP3    H226190   1.820   5.622   0.398  1.1224  0.9930  1.9535
 1519TIP3   OH226191   6.374   6.288   7.693 -0.1685  0.3039  0.1789
 1519TIP3    H126192   6.421   6.285   7.776  1.1676  0.3571 -0.5484
 1519TIP3    H226193   6.283   6.305   7.717 -0.2014 -1.7191  1.7547
 1520TIP3   OH226194   5.587   0.124   1.672  1.1110 -0.2974  0.6682
 1520TIP3    H126195   5.531   0.148   1.598  1.4230 -0.9362  0.2096
 1520TIP3    H226196   5.662   0.080   1.632  0.6660 -1.8391  1.4186
 1521TIP3   OH226197   6.911   5.794   1.471 -0.1479  0.0017  0.2754
 1521TIP3    H126198   6.901   5.741   1.550  0.1411  0.1929  0.4443
 1521TIP3    H226199   6.892   5.883   1.499 -1.8607 -0.1531 -0.2834
 1522TIP3   OH226200   3.919   4.748   7.838 -0.1083  0.2328 -0.0105
 1522TIP3    H126201   3.915   4.658   7.870  0.9418  0.3198  0.4088
 1522TIP3    H226202   3.988   4.789   7.891 -0.9827  1.4536  0.2292
 1523TIP3   OH226203   0.835   4.710   7.671  0.0862 -0.1601  0.2888
 1523TIP3    H126204   0.848   4.744   7.582  2.5482 -1.0230  0.2341
 1523TIP3    H226205   0.816   4.788   7.724 -1.1802  0.3920 -0.9231
 1524TIP3   OH226206   5.500   3.649   7.599 -0.0816  0.6034  0.1672
 1524TIP3    H126207   5.468   3.601   7.523  1.4500  0.5505 -0.4819
 1524TIP3    H226208   5.590   3.618   7.611  0.2475  1.7996  1.0055
 1525TIP3   OH226209   1.931   4.842   0.853  0.2572 -0.3469  0.5059
 1525TIP3    H126210   1.886   4.837   0.769  0.5814 -0.8169  0.3569
 1525TIP3    H226211   1.956   4.934   0.861  0.0526 -0.2610  0.1784
 1526TIP3   OH226212   3.165   4.027   1.123  0.3976 -0.6557 -0.3365
 1526TIP3    H126213   3.154   3.981   1.040 -0.1866  0.6746 -1.0268
 1526TIP3    H226214   3.243   4.082   1.111 -0.6745  0.8670 -0.6842
 1527TIP3   OH226215   3.209   6.080   7.370 -0.2952  0.0624 -0.5298
 1527TIP3    H126216   3.245   6.008   7.319 -1.2031 -0.0010 -1.1156
 1527TIP3    H226217   3.137   6.040   7.420  0.1752  0.2551  0.3307
 1528TIP3   OH226218   6.423   6.094   6.434 -0.0252 -0.0093 -0.6374
 1528TIP3    H126219   6.431   6.039   6.357 -1.3823 -0.3480 -0.5666
 1528TIP3    H226220   6.459   6.042   6.505 -0.1521 -0.3117 -0.7921
 1529TIP3   OH226221   2.053   0.827   0.317 -0.8029  0.3432  0.1624
 1529TIP3    H126222   2.085   0.915   0.339 -0.5040 -0.3329  2.7153
 1529TIP3    H226223   2.001   0.800   0.393  0.3059 -2.2511  0.1019
 1530TIP3   OH226224   5.526   3.310   7.790 -0.0124 -0.2774 -0.5628
 1530TIP3    H126225   5.552   3.223   7.820  2.7301  0.1348 -1.4995
 1530TIP3    H226226   5.562   3.317   7.701  2.8763  2.9524  0.6513
 1531TIP3   OH226227   4.117   2.863   2.689 -0.3414  0.5524  0.3445
 1531TIP3    H126228   4.024   2.857   2.665  0.2486 -0.3861 -2.0550
 1531TIP3    H226229   4.141   2.954   2.670 -0.6559  0.6720  0.5153
 1532TIP3   OH226230   5.833   5.915   8.196 -0.0954  0.4852 -0.1304
 1532TIP3    H126231   5.913   5.963   8.213  0.0930  0.3944 -0.7094
 1532TIP3    H226232   5.770   5.947   8.260  0.1794  1.1215 -0.1765
 1533TIP3   OH226233   4.789   6.696   1.029  0.2038 -0.3679  0.4244
 1533TIP3    H126234   4.768   6.709   1.121  0.8830 -0.9958  0.6771
 1533TIP3    H226235   4.829   6.609   1.025  2.3291  0.5729 -0.0937
 1534TIP3   OH226236   0.293   1.381   7.096 -0.2794 -0.0099 -0.0475
 1534TIP3    H126237   0.324   1.431   7.172  0.8297  0.9013 -1.0627
 1534TIP3    H226238   0.223   1.435   7.059 -0.0720  0.0880 -0.3000
 1535TIP3   OH226239   2.863   5.434   0.905 -0.2789 -0.7080  0.1647
 1535TIP3    H126240   2.816   5.444   0.988 -0.6649 -2.0863  0.1337
 1535TIP3    H226241   2.887   5.524   0.881 -0.6141 -0.2279  1.4942
 1536TIP3   OH226242   2.152   0.471   0.682  0.1505  0.1991  0.0574
 1536TIP3    H126243   2.107   0.387   0.682  0.7636 -0.1970 -2.0140
 1536TIP3    H226244   2.234   0.453   0.728 -0.0416 -0.1474  0.2729
 1537TIP3   OH226245   3.140   0.718   8.127  0.0625 -0.0105 -0.1260
 1537TIP3    H126246   3.183   0.771   8.194  1.3211 -1.0395 -0.0886
 1537TIP3    H226247   3.048   0.718   8.152  0.4020  0.2321  1.2054
 1538TIP3   OH226248   3.246   3.269   1.007  0.4319 -0.7814 -0.0880
 1538TIP3    H126249   3.271   3.295   1.095 -1.0697 -0.4941  0.2880
 1538TIP3    H226250   3.182   3.198   1.020  1.1588 -1.6359 -0.9887
 1539TIP3   OH226251   3.350   0.673   0.710  0.4056  0.4824 -0.4175
 1539TIP3    H126252   3.299   0.675   0.791 -1.1479  1.3801 -1.3580
 1539TIP3    H226253   3.318   0.596   0.663 -0.5583  1.3540 -1.2589
 1540TIP3   OH226254   0.796   6.459   2.650 -0.4027 -0.7161 -0.8955
 1540TIP3    H126255   0.883   6.438   2.616  0.3489 -1.6600  1.4102
 1540TIP3    H226256   0.781   6.394   2.719 -1.7269  1.1592  0.6870
 1541TIP3   OH226257   0.725   5.653   1.637 -0.3559 -0.1734  0.1378
 1541TIP3    H126258   0.631   5.637   1.651 -0.3381  1.8657  3.7913
 1541TIP3    H226259   0.729   5.690   1.549 -3.4151  2.0073  0.7368
 1542TIP3   OH226260   5.583   4.483   3.145  0.2647  0.8374  0.3337
 1542TIP3    H126261   5.633   4.421   3.091 -1.1230  1.1237 -1.3527
 1542TIP3    H226262   5.564   4.556   3.087 -2.4255  0.5740  0.7305
 1543TIP3   OH226263   3.546   3.720   1.210 -0.0080 -0.1078  0.3848
 1543TIP3    H126264   3.523   3.704   1.118 -1.5549  0.0484  0.7232
 1543TIP3    H226265   3.471   3.687   1.260  0.7977 -0.1572  1.5999
 1544TIP3   OH226266   7.022   0.254   7.082 -0.4635 -0.0880 -0.0424
 1544TIP3    H126267   7.075   0.175   7.086  0.8703  0.7724  0.0859
 1544TIP3    H226268   6.935   0.227   7.112  0.4662 -1.0967  1.9693
 1545TIP3   OH226269   2.150   0.018   1.281  0.2565 -0.0327 -0.1829
 1545TIP3    H126270   2.167   0.004   1.188 -0.5943  1.2563 -0.5556
 1545TIP3    H226271   2.055   0.009   1.291  0.4525 -1.4129  0.8153
 1546TIP3   OH226272   1.168   0.177   6.710  0.0430  0.1797 -0.3166
 1546TIP3    H126273   1.222   0.135   6.777 -1.5375 -1.0246  0.2587
 1546TIP3    H226274   1.201   0.142   6.627  0.8354  0.2924 -0.0589
 1547TIP3   OH226275   5.044   1.618   1.688 -0.5911 -0.4454  0.0558
 1547TIP3    H126276   5.004   1.680   1.748 -0.5847 -1.3849  1.0629
 1547TIP3    H226277   4.975   1.554   1.670 -0.7965  0.1597 -1.4646
 1548TIP3   OH226278   0.445   1.249   1.561 -0.6223 -0.1322  0.0802
 1548TIP3    H126279   0.476   1.337   1.537 -1.2900  0.0794 -0.0157
 1548TIP3    H226280   0.526   1.199   1.576 -0.2335  0.5432  0.3166
 1549TIP3   OH226281   6.468   1.002   1.989  0.0125 -0.3342 -0.5609
 1549TIP3    H126282   6.390   1.034   2.035  1.1781  1.5489  0.2269
 1549TIP3    H226283   6.532   0.990   2.059  1.2241  0.7254 -1.4479
 1550TIP3   OH226284   3.215   2.297   1.193  0.0705  0.1320  0.1682
 1550TIP3    H126285   3.294   2.337   1.155  0.5175 -0.6148  0.2832
 1550TIP3    H226286   3.204   2.342   1.277 -0.0023  0.6900 -0.1358
 1551TIP3   OH226287   1.535   0.438   7.553  0.5182  0.2180 -0.2043
 1551TIP3    H126288   1.567   0.452   7.642  1.6281 -2.3859 -0.0875
 1551TIP3    H226289   1.449   0.480   7.551  0.6085  0.5949  2.0109
 1552TIP3   OH226290   2.218   2.318   0.664 -0.1822  0.1700  0.0398
 1552TIP3    H126291   2.134   2.346   0.628 -0.0111 -0.6623 -1.0739
 1552TIP3    H226292   2.226   2.366   0.747 -1.8312  0.1164  0.2672
 1553TIP3   OH226293   3.882   2.638   0.216 -0.5880 -0.5151 -0.5802
 1553TIP3    H126294   3.966   2.649   0.172 -0.0516 -0.7988  0.3431
 1553TIP3    H226295   3.881   2.547   0.244 -0.7120 -0.2297  0.3872
 1554TIP3   OH226296   0.715   3.572   7.293  0.0385 -0.5352 -0.1601
 1554TIP3    H126297   0.679   3.520   7.364 -0.4252  1.3590  1.0806
 1554TIP3    H226298   0.638   3.611   7.250  0.3501 -1.1199 -1.2863
 1555TIP3   OH226299   6.672   0.780   7.165 -0.1592 -0.0737  0.5726
 1555TIP3    H126300   6.764   0.768   7.139 -0.7675  0.4159 -2.1252
 1555TIP3    H226301   6.636   0.839   7.098 -2.0992  0.9679  2.3962
 1556TIP3   OH226302   0.704   5.701   0.397  0.9096  0.2882  0.4231
 1556TIP3    H126303   0.752   5.751   0.463  2.6004 -0.3992 -0.2262
 1556TIP3    H226304   0.639   5.763   0.363  1.4989  1.3406  1.1441
 1557TIP3   OH226305   5.818   1.968   0.769 -0.2919 -0.1653  0.1646
 1557TIP3    H126306   5.879   1.902   0.735  1.5980  0.6203  1.8179
 1557TIP3    H226307   5.751   1.976   0.700  0.4132 -2.4258 -0.8976
 1558TIP3   OH226308   1.529   0.007   6.879 -0.0087  0.0434 -0.5374
 1558TIP3    H126309   1.553  -0.030   6.964 -1.6770  0.2203  0.0656
 1558TIP3    H226310   1.574  -0.048   6.815  1.7180  0.2341  0.4535
 1559TIP3   OH226311   6.497   4.528   1.352 -0.0983  0.1293 -0.2260
 1559TIP3    H126312   6.550   4.586   1.407  0.1344 -1.6861  1.5940
 1559TIP3    H226313   6.415   4.519   1.401  0.6619 -2.7067  0.6900
 1560TIP3   OH226314   2.925   0.380   7.311  0.2006  0.2970  0.0002
 1560TIP3    H126315   2.964   0.448   7.256 -0.3321  1.2196  0.7280
 1560TIP3    H226316   2.987   0.307   7.306  1.0487  1.0205 -0.4004
 1561TIP3   OH226317   6.236   5.331   7.167 -0.2787 -0.4979 -0.0270
 1561TIP3    H126318   6.213   5.423   7.182  2.0399  0.1916 -0.2739
 1561TIP3    H226319   6.153   5.288   7.148 -1.3114  1.7930 -1.0548
 1562TIP3   OH226320   0.891   5.428   1.659 -0.8831  0.0580  0.0873
 1562TIP3    H126321   0.982   5.459   1.661 -0.2250 -1.3764 -2.6469
 1562TIP3    H226322   0.839   5.507   1.643  0.2620  0.5171 -1.7164
 1563TIP3   OH226323   0.849   6.121   7.556  0.2451  0.2706 -0.0055
 1563TIP3    H126324   0.803   6.063   7.616 -0.1177 -0.1866 -0.7065
 1563TIP3    H226325   0.894   6.184   7.612 -1.3474  0.8271  0.7116
 1564TIP3   OH226326   2.164   4.881   6.375  0.2674 -0.1998  0.2238
 1564TIP3    H126327   2.238   4.880   6.315  0.2536 -0.9824  0.2134
 1564TIP3    H226328   2.093   4.921   6.325  0.3796 -0.4436 -0.1308
 1565TIP3   OH226329   5.237   4.381   3.380 -0.0649  0.0372 -0.0285
 1565TIP3    H126330   5.272   4.432   3.306  0.0860 -0.1342 -0.0756
 1565TIP3    H226331   5.158   4.340   3.345  1.5808 -2.4815 -1.0437
 1566TIP3   OH226332   6.864   2.810   8.009  0.0496 -0.0457 -0.1900
 1566TIP3    H126333   6.868   2.904   8.021 -0.8705  0.2261 -1.6874
 1566TIP3    H226334   6.801   2.779   8.074 -1.3573  0.7142 -1.1341
 1567TIP3   OH226335   2.965   2.820   6.832  0.1514  0.3425 -0.1985
 1567TIP3    H126336   2.882   2.808   6.878 -0.2887  1.3630 -0.6927
 1567TIP3    H226337   2.989   2.732   6.803 -1.5428  0.1876 -1.3512
 1568TIP3   OH226338   5.187   0.513   1.853  0.3396 -0.3164 -0.1534
 1568TIP3    H126339   5.143   0.543   1.933  1.6049 -0.4439  0.6153
 1568TIP3    H226340   5.190   0.418   1.862  1.2143 -0.2747  0.0480
 1569TIP3   OH226341   1.869   1.051   7.841  0.2974  0.1413  0.6245
 1569TIP3    H126342   1.887   1.100   7.761 -0.0330  0.9606  1.0391
 1569TIP3    H226343   1.840   1.118   7.904 -0.3019 -0.6071  1.1565
 1570TIP3   OH226344   5.820   1.535   7.397 -0.4808 -0.8947  0.1911
 1570TIP3    H126345   5.739   1.485   7.412 -1.1660  0.0009 -0.3672
 1570TIP3    H226346   5.819   1.552   7.302  0.5746 -1.2058  0.1141
 1571TIP3   OH226347   5.461   3.158   1.226 -0.5265  0.1391 -0.0070
 1571TIP3    H126348   5.437   3.186   1.137  1.4489 -0.4919 -0.7876
 1571TIP3    H226349   5.549   3.122   1.217  0.9483  2.6015  2.6882
 1572TIP3   OH226350   2.255   5.067   7.745 -0.3071  0.4618  0.1058
 1572TIP3    H126351   2.236   4.974   7.755  0.6559  0.3697  1.2126
 1572TIP3    H226352   2.191   5.111   7.801  0.1455  0.3757  0.6998
 1573TIP3   OH226353   1.022   5.248   2.024  0.0086 -0.1471  0.3924
 1573TIP3    H126354   0.989   5.229   1.936 -1.8806 -0.1174  1.0510
 1573TIP3    H226355   1.058   5.165   2.054 -1.2206 -0.6997  0.3635
 1574TIP3   OH226356   4.862   3.309   0.166  0.6733  0.1992 -0.3225
 1574TIP3    H126357   4.778   3.267   0.147  1.9909 -2.0827 -1.5436
 1574TIP3    H226358   4.840   3.401   0.181 -1.8778 -0.0451 -1.9840
 1575TIP3   OH226359   6.074   3.578   1.225  0.3872 -0.2439  0.2223
 1575TIP3    H126360   6.016   3.629   1.282 -0.0524 -0.7500  0.2360
 1575TIP3    H226361   6.093   3.637   1.151  0.5934  0.2508  0.6632
 1576TIP3   OH226362   0.858   2.657   1.461 -0.7174  1.0043 -0.4027
 1576TIP3    H126363   0.888   2.577   1.504 -1.4653 -0.2935 -2.1973
 1576TIP3    H226364   0.938   2.701   1.433 -0.2953  0.9679  0.7039
 1577TIP3   OH226365   1.124   4.589   1.234  0.1201 -0.0782  0.1177
 1577TIP3    H126366   1.072   4.541   1.298 -0.7319  0.8831  0.1729
 1577TIP3    H226367   1.065   4.656   1.201  1.3450  1.0740  0.1987
 1578TIP3   OH226368   0.190   4.003   2.583  0.0308  0.0605 -0.3274
 1578TIP3    H126369   0.106   3.984   2.624  1.1506 -1.7532  1.3061
 1578TIP3    H226370   0.255   3.961   2.640  1.9218 -0.2997 -2.5783
 1579TIP3   OH226371   2.245   2.163   1.058  0.0742  1.1680  0.2912
 1579TIP3    H126372   2.151   2.144   1.058 -0.1305  1.9454 -1.3163
 1579TIP3    H226373   2.284   2.094   1.112 -1.0875 -1.1350 -1.5848
 1580TIP3   OH226374   5.619   4.776   1.369 -0.2466 -0.1795 -0.2014
 1580TIP3    H126375   5.701   4.793   1.323  0.1028  1.1622  0.8540
 1580TIP3    H226376   5.593   4.688   1.341  1.0816 -0.2688 -1.2291
 1581TIP3   OH226377   2.937   4.780   1.156 -0.2349  0.1638 -0.1762
 1581TIP3    H126378   2.861   4.800   1.100  0.2081  0.8879 -0.5362
 1581TIP3    H226379   3.001   4.742   1.096 -0.1450 -0.0267  0.0404
 1582TIP3   OH226380   2.451   4.682   1.547  0.2423  0.4208  0.2358
 1582TIP3    H126381   2.403   4.650   1.470  2.8366  0.8880 -1.7037
 1582TIP3    H226382   2.429   4.775   1.552  0.2634  0.4425 -0.0830
 1583TIP3   OH226383   3.454   5.566   1.673 -0.6881 -0.1311  0.1005
 1583TIP3    H126384   3.441   5.484   1.721 -0.9441 -0.0106  0.2359
 1583TIP3    H226385   3.505   5.621   1.733 -0.4565 -0.2167 -0.0177
 1584TIP3   OH226386   1.535   5.036   0.776  0.1187 -0.5778  0.6242
 1584TIP3    H126387   1.615   5.044   0.829 -0.1338 -0.7720  1.0426
 1584TIP3    H226388   1.472   5.092   0.822 -0.5532 -1.9393  1.4101
 1585TIP3   OH226389   1.472   2.467   1.758  0.5612  0.4233  0.5523
 1585TIP3    H126390   1.480   2.551   1.712 -1.3316  0.0526 -0.5806
 1585TIP3    H226391   1.490   2.401   1.690 -1.4632 -0.1220  0.4992
 1586TIP3   OH226392   5.858   6.451   2.137 -0.4711  0.1540 -0.3088
 1586TIP3    H126393   5.904   6.369   2.122 -2.4379 -0.9629 -0.6162
 1586TIP3    H226394   5.887   6.480   2.223  1.3202 -0.0900 -0.7956
 1587TIP3   OH226395   2.007   1.958   8.208 -0.6982  0.0131  0.2652
 1587TIP3    H126396   1.940   1.943   8.142 -1.6838  0.6612  1.0915
 1587TIP3    H226397   1.966   1.928   8.290 -0.1098  0.7436  0.8344
 1588TIP3   OH226398   3.869   6.228   7.302 -0.3154 -0.1324  0.2816
 1588TIP3    H126399   3.850   6.135   7.311  1.7267 -0.8161 -1.7284
 1588TIP3    H226400   3.835   6.252   7.216  0.5059  0.6158  0.1553
 1589TIP3   OH226401   3.410   2.474   0.359 -0.0466  0.2136  0.4637
 1589TIP3    H126402   3.453   2.415   0.420 -0.9295 -0.7583  0.1816
 1589TIP3    H226403   3.454   2.558   0.371  1.5642 -0.6051  0.5385
 1590TIP3   OH226404   2.685   0.390   5.894  0.5157  0.0044 -0.1356
 1590TIP3    H126405   2.732   0.346   5.824 -0.6900 -0.8482 -0.4509
 1590TIP3    H226406   2.608   0.428   5.851 -0.3149 -0.6404  0.7146
 1591TIP3   OH226407   2.576   4.993   0.208  0.1648 -0.2669  0.5272
 1591TIP3    H126408   2.543   5.072   0.250 -0.7667 -0.6882  0.6104
 1591TIP3    H226409   2.554   5.004   0.116 -0.3635 -0.6284  0.6102
 1592TIP3   OH226410   4.682   1.825   1.206  0.1992 -0.5985  0.3244
 1592TIP3    H126411   4.675   1.856   1.297 -0.2494 -1.0106  0.4299
 1592TIP3    H226412   4.768   1.857   1.177  0.3212 -0.4129  0.8728
 1593TIP3   OH226413   4.800   5.107   1.116  0.0037 -0.1105 -0.3095
 1593TIP3    H126414   4.733   5.175   1.118  1.2690  1.1697  0.6843
 1593TIP3    H226415   4.826   5.102   1.024  1.7222  2.7100 -0.0951
 1594TIP3   OH226416   5.114   2.740   7.823 -0.3997  0.0693  0.7884
 1594TIP3    H126417   5.135   2.651   7.797 -1.1372 -0.3811  1.6904
 1594TIP3    H226418   5.046   2.768   7.762  0.0832  0.1403  0.2849
 1595TIP3   OH226419   3.072   1.643   1.679 -0.2387 -0.3507 -0.1129
 1595TIP3    H126420   3.115   1.619   1.597  0.8166 -3.1485  1.1279
 1595TIP3    H226421   3.140   1.684   1.731 -0.9175  1.4579 -0.5821
 1596TIP3   OH226422   3.484   4.879   6.786 -0.5574  0.5222 -0.0943
 1596TIP3    H126423   3.491   4.808   6.850  0.1520  1.3464  0.7739
 1596TIP3    H226424   3.453   4.837   6.706 -0.7831 -0.6502  0.5960
 1597TIP3   OH226425   6.586   3.286   0.649  0.5043 -0.0728 -0.3084
 1597TIP3    H126426   6.602   3.242   0.566  0.5370 -2.9622  1.0825
 1597TIP3    H226427   6.674   3.299   0.686  0.5345  1.9032 -1.0155
 1598TIP3   OH226428   2.644   0.853   0.176  0.0049 -0.0129 -1.0095
 1598TIP3    H126429   2.657   0.900   0.093 -0.7713  1.0946 -0.5322
 1598TIP3    H226430   2.729   0.857   0.220  0.3921 -0.5140 -1.6849
 1599TIP3   OH226431   1.045   6.005   1.482  0.0409  0.4287  0.5770
 1599TIP3    H126432   1.069   6.072   1.546 -2.2223  0.8525  1.0365
 1599TIP3    H226433   0.998   5.939   1.532 -1.0801  0.3683 -0.5095
 1600TIP3   OH226434   2.021   6.308   6.540 -0.0046 -0.8515 -0.2567
 1600TIP3    H126435   1.961   6.234   6.541  0.4814 -1.2451 -0.0151
 1600TIP3    H226436   2.045   6.319   6.448  0.5539 -1.5145 -0.1971
 1601TIP3   OH226437   3.548   6.691   0.419  0.2832 -0.7804 -0.0949
 1601TIP3    H126438   3.529   6.603   0.451  3.3925 -1.2124  0.8821
 1601TIP3    H226439   3.613   6.725   0.480  1.6450  0.8898 -2.3295
 1602TIP3   OH226440   1.015   0.754   1.520  0.0064  0.1122 -0.2885
 1602TIP3    H126441   1.048   0.711   1.441 -2.2697 -2.6190  0.0646
 1602TIP3    H226442   0.933   0.794   1.493  1.4193  3.2890 -0.2566
 1603TIP3   OH226443   6.953   4.581   7.891 -0.1004 -0.2002  0.2630
 1603TIP3    H126444   7.030   4.626   7.925 -0.5290 -0.0090  1.0113
 1603TIP3    H226445   6.909   4.546   7.969 -0.6377 -0.5160 -0.1713
 1604TIP3   OH226446   5.829   4.723   7.154 -0.0359 -0.0453 -0.0263
 1604TIP3    H126447   5.781   4.643   7.132 -1.8507  1.2484 -1.0976
 1604TIP3    H226448   5.865   4.753   7.070  1.3603 -0.1648  0.5085
 1605TIP3   OH226449   6.371   6.576   7.859  0.3411  0.0656  0.1026
 1605TIP3    H126450   6.447   6.573   7.801  2.0695 -1.6308  2.2670
 1605TIP3    H226451   6.402   6.622   7.937 -2.2096  3.2325 -0.5337
 1606TIP3   OH226452   1.527   5.894   7.095 -0.3417 -0.2906  0.3884
 1606TIP3    H126453   1.514   5.800   7.081  0.6090 -0.5193  0.9624
 1606TIP3    H226454   1.445   5.934   7.067 -0.5004 -1.2238 -0.5579
 1607TIP3   OH226455   4.870   6.166   1.990 -0.4681  0.1291  0.2994
 1607TIP3    H126456   4.909   6.129   1.911 -0.9069  1.8715 -0.7723
 1607TIP3    H226457   4.805   6.228   1.959 -0.3140  1.2257  2.0165
 1608TIP3   OH226458   4.671   5.373   3.136 -0.6312 -0.3412 -0.1194
 1608TIP3    H126459   4.702   5.366   3.046 -1.9561  2.7066 -0.9443
 1608TIP3    H226460   4.748   5.351   3.190  0.6849 -0.5073 -1.9761
 1609TIP3   OH226461   0.483   5.501   1.233 -0.7394 -0.4530  0.2055
 1609TIP3    H126462   0.525   5.423   1.269  0.3353  0.3081  0.6819
 1609TIP3    H226463   0.464   5.479   1.142  2.0389 -0.3898 -0.4686
 1610TIP3   OH226464   2.705   0.625   2.386 -0.5106  0.0184  0.0521
 1610TIP3    H126465   2.720   0.689   2.316 -0.7829  0.8264  0.7209
 1610TIP3    H226466   2.693   0.542   2.339 -0.9852  0.5929 -0.8907
 1611TIP3   OH226467   6.585   1.997   6.739  0.5632  0.5675  0.2785
 1611TIP3    H126468   6.573   2.021   6.831 -1.1959 -0.3653  0.3444
 1611TIP3    H226469   6.542   2.067   6.691  2.6921  1.7987  0.0386
 1612TIP3   OH226470   4.097   3.491   1.221  0.4776  0.0340 -0.4306
 1612TIP3    H126471   4.115   3.497   1.127  2.3050  0.9517 -0.0651
 1612TIP3    H226472   4.042   3.567   1.240 -1.1392 -0.9425 -0.9645
 1613TIP3   OH226473   0.831   1.272   7.320  0.4451  0.1632 -0.8023
 1613TIP3    H126474   0.741   1.240   7.331  1.2121 -1.9522 -0.0990
 1613TIP3    H226475   0.832   1.311   7.233  0.0553 -4.6105 -3.2959
 1614TIP3   OH226476   1.183   4.365   7.923 -0.0019  0.1601 -0.3421
 1614TIP3    H126477   1.203   4.413   7.843 -1.1918  2.2015  0.5002
 1614TIP3    H226478   1.097   4.398   7.951  0.7240  0.1512  2.1937
 1615TIP3   OH226479   1.334   2.477   0.692 -0.0238  0.2579 -0.2647
 1615TIP3    H126480   1.321   2.492   0.786  0.5722  1.0334 -0.2944
 1615TIP3    H226481   1.340   2.565   0.654  2.2033 -0.0152 -0.6638
 1616TIP3   OH226482   4.845   3.912   7.927  0.4508 -0.4261  0.2228
 1616TIP3    H126483   4.921   3.970   7.920 -0.0630  0.1673 -0.5639
 1616TIP3    H226484   4.833   3.877   7.839 -1.8360  1.6325 -0.3817
 1617TIP3   OH226485   3.223   2.501   6.981 -0.0985  0.1457  0.2073
 1617TIP3    H126486   3.218   2.434   6.913 -0.0402  1.5686 -1.2618
 1617TIP3    H226487   3.162   2.471   7.049 -0.5231 -1.0803 -0.6830
 1618TIP3   OH226488   0.491   0.159   8.023 -0.3310  1.1068  0.2537
 1618TIP3    H126489   0.478   0.209   8.103 -1.5998  1.0030  0.1300
 1618TIP3    H226490   0.434   0.083   8.032  1.1267 -0.0449  0.1836
 1619TIP3   OH226491   2.205   2.048   7.371 -0.8596  0.1316 -0.1647
 1619TIP3    H126492   2.188   2.062   7.465 -1.1379  0.6658 -0.2947
 1619TIP3    H226493   2.300   2.044   7.365 -0.8099  0.7894  0.0501
 1620TIP3   OH226494   6.345   0.028   7.155  0.5214 -0.9745  0.2206
 1620TIP3    H126495   6.410   0.035   7.225  1.8382 -3.2902 -0.6583
 1620TIP3    H226496   6.371   0.093   7.091 -0.1205  0.4895  1.3844
 1621TIP3   OH226497   2.430   6.510   7.721 -0.2142 -0.1125  0.5117
 1621TIP3    H126498   2.463   6.597   7.701 -1.9071  0.2359 -1.0234
 1621TIP3    H226499   2.489   6.450   7.675  0.7959  0.2043  1.3581
 1622TIP3   OH226500   3.827   6.971   7.682 -0.7647 -0.4348  0.1787
 1622TIP3    H126501   3.788   6.988   7.768  1.7964  1.6766  1.0694
 1622TIP3    H226502   3.848   6.878   7.683 -0.6688 -0.4301  1.9218
 1623TIP3   OH226503   0.854   6.847   8.223 -0.0359  0.0094  0.7074
 1623TIP3    H126504   0.880   6.800   8.302 -1.8993 -1.1021  0.7106
 1623TIP3    H226505   0.768   6.811   8.200  0.4910  0.1934 -1.8977
 1624TIP3   OH226506   5.440   3.631   0.253  0.1055 -0.2270  0.5387
 1624TIP3    H126507   5.372   3.605   0.315 -1.2868 -0.6512 -1.1046
 1624TIP3    H226508   5.515   3.575   0.275 -0.9271 -1.5625  0.7396
 1625TIP3   OH226509   0.016   0.039   0.237 -0.0344 -0.5071 -0.3322
 1625TIP3    H126510  -0.064  -0.001   0.271  0.2346 -0.2430  0.6562
 1625TIP3    H226511  -0.008   0.076   0.153 -0.9858 -0.3131  0.0192
 1626TIP3   OH226512   2.895   3.586   1.566 -0.6399 -0.5498  0.1756
 1626TIP3    H126513   2.962   3.649   1.540 -3.3127  1.7145 -1.7081
 1626TIP3    H226514   2.900   3.516   1.501 -0.7464  0.0838 -0.5126
 1627TIP3   OH226515   1.570   0.762   1.505  0.5360 -0.0206 -0.1586
 1627TIP3    H126516   1.613   0.844   1.528  0.8216 -0.0062 -0.7145
 1627TIP3    H226517   1.489   0.789   1.461 -0.1190 -0.0473  0.9816
 1628TIP3   OH226518   4.154   6.105   1.024  0.0441 -0.8019 -0.4204
 1628TIP3    H126519   4.189   6.152   1.100 -0.6088 -1.2134  0.1433
 1628TIP3    H226520   4.198   6.145   0.949 -1.2454  1.5003 -0.0787
 1629TIP3   OH226521   3.862   5.667   6.432  0.3047 -0.3394  0.2618
 1629TIP3    H126522   3.848   5.756   6.401 -0.3432 -0.3090  0.6212
 1629TIP3    H226523   3.955   5.663   6.453  0.4012  0.1539 -0.0662
 1630TIP3   OH226524   4.165   1.206   7.112  0.2072 -0.5037 -0.3088
 1630TIP3    H126525   4.213   1.288   7.100  0.5896 -0.6392  0.2295
 1630TIP3    H226526   4.217   1.141   7.065 -0.4280 -0.3410 -1.2688
 1631TIP3   OH226527   1.122   3.611   8.077  0.2607 -0.2128  0.1936
 1631TIP3    H126528   1.093   3.551   8.146  1.2538  0.0291  0.8386
 1631TIP3    H226529   1.109   3.562   7.996 -3.0247  0.2619  0.2767
 1632TIP3   OH226530   4.675   4.629   7.955  0.2531 -0.3116 -0.2238
 1632TIP3    H126531   4.717   4.697   7.901  0.4918  0.1771  0.5609
 1632TIP3    H226532   4.587   4.620   7.918  0.7193 -0.6825 -1.3050
 1633TIP3   OH226533   6.815   1.069   7.321 -0.3203  1.1095  0.0601
 1633TIP3    H126534   6.818   1.160   7.351  1.2354  1.0108  0.2413
 1633TIP3    H226535   6.847   1.072   7.231 -0.5457  0.7659 -0.0358
 1634TIP3   OH226536   5.020   2.665   8.083 -0.5015 -0.0368  0.4335
 1634TIP3    H126537   5.050   2.698   7.998 -0.9109  0.1040  0.3376
 1634TIP3    H226538   5.099   2.637   8.128 -0.2234  0.4077  0.2283
 1635TIP3   OH226539   3.546   6.772   0.145  0.4095  0.0793  0.7500
 1635TIP3    H126540   3.480   6.731   0.089  0.3068  1.4938 -0.2294
 1635TIP3    H226541   3.521   6.747   0.234 -0.6465 -0.5092  0.3064
 1636TIP3   OH226542   0.905   0.434   1.155 -0.2893  0.2162  0.3909
 1636TIP3    H126543   0.895   0.492   1.080 -0.0777  0.5418  0.6134
 1636TIP3    H226544   0.827   0.451   1.208 -0.7401 -0.4495 -0.0464
 1637TIP3   OH226545   0.268   4.631   1.689 -0.1467  0.3566  0.2170
 1637TIP3    H126546   0.290   4.624   1.782 -0.8436 -2.9633  0.2585
 1637TIP3    H226547   0.346   4.669   1.649  1.0969 -0.3050  1.8742
 1638TIP3   OH226548   1.645   0.448   7.794 -0.0350  0.2269 -0.0584
 1638TIP3    H126549   1.723   0.413   7.837 -0.5316 -2.1697 -0.9403
 1638TIP3    H226550   1.580   0.454   7.864  0.4409  0.6385  0.3576
 1639TIP3   OH226551   5.959   2.480   1.536  0.1064  0.0603 -0.0274
 1639TIP3    H126552   5.939   2.503   1.627  2.0332 -0.0422  0.4671
 1639TIP3    H226553   6.036   2.532   1.514  1.0924 -1.6273 -0.7981
 1640TIP3   OH226554   3.054   1.975   7.639 -0.4534  0.0368 -0.0252
 1640TIP3    H126555   3.116   1.956   7.710 -0.4616  0.8514  0.2098
 1640TIP3    H226556   3.109   2.003   7.566 -0.4553 -0.6549 -0.2959
 1641TIP3   OH226557   2.907   4.354   1.469  0.3355 -0.4106  0.3670
 1641TIP3    H126558   2.815   4.377   1.465  0.5012  0.1583 -0.5739
 1641TIP3    H226559   2.909   4.269   1.514 -0.7309 -0.9183 -0.4907
 1642TIP3   OH226560   0.696   1.525   7.591 -0.6103 -0.3444  0.6435
 1642TIP3    H126561   0.750   1.454   7.627  0.7591  0.5171  0.3745
 1642TIP3    H226562   0.606   1.494   7.599 -0.0303 -2.2191  0.2969
 1643TIP3   OH226563   0.134   3.791   8.198  0.0456  0.4096  0.8524
 1643TIP3    H126564   0.103   3.713   8.152  2.2666  2.6927 -5.6163
 1643TIP3    H226565   0.053   3.837   8.222 -1.4460 -0.8263 -1.3769
 1644TIP3   OH226566   6.874   2.977   1.191 -0.2064  0.1478 -0.8660
 1644TIP3    H126567   6.936   2.913   1.155  2.1497  1.6398  0.2991
 1644TIP3    H226568   6.901   3.060   1.153 -2.2119  0.7285 -1.1192
 1645TIP3   OH226569   0.476   3.599   8.184 -0.4024  0.6703  0.0327
 1645TIP3    H126570   0.425   3.519   8.167 -1.2726  1.4322 -1.0765
 1645TIP3    H226571   0.430   3.642   8.256 -0.1524  0.3770  0.3743
 1646TIP3   OH226572   7.049   0.740   1.624 -0.1661  0.4440  0.1754
 1646TIP3    H126573   7.075   0.825   1.659 -1.6391  1.3329 -0.7549
 1646TIP3    H226574   6.969   0.718   1.671  0.6357 -0.8693  0.9983
 1647TIP3   OH226575   0.691   3.390   2.362  0.2799 -0.1716  0.1970
 1647TIP3    H126576   0.626   3.449   2.402 -0.5630 -2.3688  2.3396
 1647TIP3    H226577   0.639   3.324   2.317  0.9283 -1.8144  1.7162
 1648TIP3   OH226578   5.098   0.853   2.089 -0.1953 -0.4029 -0.6226
 1648TIP3    H126579   5.127   0.942   2.110  0.0398 -0.2411 -1.5830
 1648TIP3    H226580   5.019   0.841   2.143  0.9903 -0.4462  1.2039
 1649TIP3   OH226581   1.911   2.933   0.948 -0.2787 -0.4418  0.4255
 1649TIP3    H126582   1.974   3.004   0.965  1.2550 -1.7791  0.6453
 1649TIP3    H226583   1.952   2.880   0.880 -0.2635 -2.3593  1.8181
 1650TIP3   OH226584   6.632   4.281   2.356  0.2582  0.0490  0.4523
 1650TIP3    H126585   6.584   4.334   2.292  1.2521  0.4707  0.0380
 1650TIP3    H226586   6.603   4.191   2.339 -0.5226  0.3140  0.3421
 1651TIP3   OH226587   3.709   2.880   2.330 -0.3373 -0.3221  0.0412
 1651TIP3    H126588   3.739   2.966   2.361  0.0896  0.2145 -1.7096
 1651TIP3    H226589   3.615   2.879   2.351 -0.2633  0.4126  0.4586
 1652TIP3   OH226590   3.892   0.319   7.923 -0.9019  0.0479 -0.1753
 1652TIP3    H126591   3.982   0.304   7.954  0.7520  1.6672 -3.6310
 1652TIP3    H226592   3.864   0.233   7.891  0.3859 -0.0816 -1.0885
 1653TIP3   OH226593   5.167   4.935   3.231  0.1737  0.6087  0.3044
 1653TIP3    H126594   5.218   4.957   3.153  1.1928  1.8264  1.2838
 1653TIP3    H226595   5.223   4.877   3.282 -0.3916  0.0129  0.2683
 1654TIP3   OH226596   6.951   4.293   3.017 -0.1324  0.5582 -0.1724
 1654TIP3    H126597   6.889   4.323   3.083 -1.3199  0.1395 -1.0811
 1654TIP3    H226598   6.936   4.198   3.011 -1.3871  0.8244 -2.3514
 1655TIP3   OH226599   3.778   1.035   1.261  0.6557  0.1899  0.4102
 1655TIP3    H126600   3.763   1.006   1.351  0.0725 -1.6410 -0.2393
 1655TIP3    H226601   3.872   1.028   1.248  0.6327 -0.5258  0.5848
 1656TIP3   OH226602   2.405   4.533   1.264 -0.0327  0.2375  0.2143
 1656TIP3    H126603   2.314   4.504   1.253 -0.5242  1.9939 -0.7276
 1656TIP3    H226604   2.454   4.481   1.201 -0.5186 -0.1568  0.1502
 1657TIP3   OH226605   2.474   6.511   7.040 -0.4232 -0.0869 -0.1679
 1657TIP3    H126606   2.531   6.465   6.979  1.4375  0.3934  1.1120
 1657TIP3    H226607   2.457   6.448   7.110  0.6395  0.5544  0.6907
 1658TIP3   OH226608   0.213   2.808   1.378 -0.2869  0.2755  0.3008
 1658TIP3    H126609   0.156   2.789   1.452  1.8883  0.3290  2.1055
 1658TIP3    H226610   0.223   2.903   1.378 -2.1746  0.5573 -1.6624
 1659TIP3   OH226611   3.327   4.837   0.729  0.7508 -0.0554  0.1590
 1659TIP3    H126612   3.387   4.815   0.658 -0.5570 -0.3863 -0.8905
 1659TIP3    H226613   3.242   4.804   0.699 -0.1147  1.1370  1.2160
 1660TIP3   OH226614   0.644   2.713   7.035  0.4755 -0.5035 -0.0207
 1660TIP3    H126615   0.581   2.658   6.989 -0.0886  0.1549 -0.0426
 1660TIP3    H226616   0.671   2.660   7.110  0.1033 -0.9019 -0.1651
 1661TIP3   OH226617   2.391   3.805   1.478 -0.3720 -0.1045  0.2402
 1661TIP3    H126618   2.406   3.891   1.439 -0.7999 -0.6976 -1.2878
 1661TIP3    H226619   2.377   3.746   1.403 -1.6757 -1.2073  1.2942
 1662TIP3   OH226620   0.565   3.963   0.824  0.2116 -0.0419  0.2532
 1662TIP3    H126621   0.508   3.892   0.856 -0.0561 -0.3468 -0.8608
 1662TIP3    H226622   0.629   3.919   0.769  0.2577  0.5453 -0.1662
 1663TIP3   OH226623   1.028   6.131   2.113  0.4804 -0.3769  0.2372
 1663TIP3    H126624   1.029   6.175   2.198 -0.5966 -0.5255  0.3344
 1663TIP3    H226625   0.980   6.191   2.056  1.3315 -0.2021 -0.3267
 1664TIP3   OH226626   0.575   3.737   2.268  0.0307  0.2806  0.3654
 1664TIP3    H126627   0.500   3.780   2.226 -0.5299 -0.8470  0.1858
 1664TIP3    H226628   0.550   3.727   2.359  0.2664  0.5609  0.4624
 1665TIP3   OH226629   1.248   0.011   7.961 -0.2258  0.1156 -0.4812
 1665TIP3    H126630   1.271  -0.079   7.984  1.0090  0.2453 -1.1367
 1665TIP3    H226631   1.152   0.012   7.963 -0.2460 -1.0786  0.0189
 1666TIP3   OH226632   6.723   5.353   1.138  0.2852 -0.3941 -0.1066
 1666TIP3    H126633   6.673   5.295   1.196 -0.7836  1.0770  0.5150
 1666TIP3    H226634   6.799   5.378   1.190  0.3155 -0.5661 -0.0649
 1667TIP3   OH226635   3.747   0.546   8.044 -0.3054 -0.0729  0.2774
 1667TIP3    H126636   3.653   0.543   8.026 -0.0684  0.6110 -1.1860
 1667TIP3    H226637   3.784   0.476   7.990  0.1794  0.5935 -0.2685
 1668TIP3   OH226638   4.447   2.929   1.406 -0.3686  0.4687 -0.6997
 1668TIP3    H126639   4.386   2.952   1.337 -0.3704 -0.6288 -1.0672
 1668TIP3    H226640   4.506   2.865   1.367 -0.0066  0.2730  0.1401
 1669TIP3   OH226641   3.044   3.507   1.108 -0.0229  0.1256 -0.3082
 1669TIP3    H126642   3.099   3.438   1.070  1.6735  1.9282 -1.3377
 1669TIP3    H226643   3.023   3.475   1.196 -0.0627 -2.0666 -1.0598
 1670TIP3   OH226644   2.169   3.395   7.853 -0.4147  0.5281 -0.1621
 1670TIP3    H126645   2.129   3.402   7.766 -3.3198  0.7029  1.0687
 1670TIP3    H226646   2.187   3.302   7.864  0.3784  0.5548 -1.0803
 1671TIP3   OH226647   6.203   3.636   2.761 -0.2012 -0.1757  0.1373
 1671TIP3    H126648   6.235   3.632   2.852 -1.6042 -1.2808  0.6102
 1671TIP3    H226649   6.118   3.593   2.763 -0.3583 -0.0354 -1.6880
 1672TIP3   OH226650   2.992   1.681   1.282 -0.0335 -0.2932 -0.3333
 1672TIP3    H126651   2.915   1.656   1.332 -0.6820 -0.6884 -1.4881
 1672TIP3    H226652   3.066   1.663   1.341 -0.7135 -1.4899  0.1905
 1673TIP3   OH226653   2.653   0.321   2.342 -1.0524  0.6417  0.5615
 1673TIP3    H126654   2.707   0.282   2.411  1.9584  1.3776 -1.1866
 1673TIP3    H226655   2.656   0.257   2.270 -1.4655  1.2718 -0.0303
 1674TIP3   OH226656   3.604   0.260   0.217  0.1478 -0.9202  0.1855
 1674TIP3    H126657   3.538   0.303   0.162  1.8902  0.7507 -0.7049
 1674TIP3    H226658   3.645   0.195   0.159  0.4604 -0.7460  0.2125
 1675TIP3   OH226659   0.215   2.147   0.744 -0.1659 -0.4785  0.1960
 1675TIP3    H126660   0.214   2.052   0.728  1.4028 -0.4473 -0.3055
 1675TIP3    H226661   0.252   2.156   0.832  0.0728 -0.3387  0.0849
 1676TIP3   OH226662   3.474   4.981   0.380  0.0027 -0.3371  0.3702
 1676TIP3    H126663   3.404   4.916   0.382  0.3993 -0.7658  0.3821
 1676TIP3    H226664   3.511   4.974   0.292 -0.2348  0.1806  0.2215
 1677TIP3   OH226665   4.549   6.228   8.150  0.0572 -0.8951 -0.2433
 1677TIP3    H126666   4.597   6.300   8.108  0.2528 -0.3471  0.8741
 1677TIP3    H226667   4.459   6.239   8.120  0.2238 -0.6243 -0.6544
 1678TIP3   OH226668   4.299   4.269   0.350 -0.4444 -0.1287  0.0131
 1678TIP3    H126669   4.254   4.242   0.270  0.4138  0.0117 -0.5344
 1678TIP3    H226670   4.229   4.285   0.413 -1.1730  0.4371 -0.9222
 1679TIP3   OH226671   4.490   5.664   1.002 -0.3200  0.2057  0.2248
 1679TIP3    H126672   4.510   5.708   1.084  0.1241 -0.1430  0.3071
 1679TIP3    H226673   4.517   5.573   1.016  0.0722  0.2142 -0.4213
 1680TIP3   OH226674   5.902   4.276   1.670  0.1332  0.4348  0.2566
 1680TIP3    H126675   5.916   4.334   1.744  1.0659 -0.2271  0.6159
 1680TIP3    H226676   5.927   4.328   1.593 -1.9563  1.5262  0.2471
 1681TIP3   OH226677   0.253   5.694   2.081 -0.5552  0.0382 -0.0599
 1681TIP3    H126678   0.255   5.755   2.154 -0.3687  0.2740 -0.2579
 1681TIP3    H226679   0.247   5.607   2.122  0.2053  0.1260  0.2572
 1682TIP3   OH226680   4.767   5.232   7.794 -0.1621 -0.2746 -0.5119
 1682TIP3    H126681   4.713   5.154   7.806  1.3014 -1.3861 -0.9249
 1682TIP3    H226682   4.706   5.305   7.805 -1.7690 -1.4745 -1.1061
 1683TIP3   OH226683   3.486   1.716   7.428  0.5223 -0.1767  0.1803
 1683TIP3    H126684   3.575   1.746   7.447  0.3997  2.1054 -2.2932
 1683TIP3    H226685   3.429   1.783   7.466  0.0141  0.0105 -0.8697
 1684TIP3   OH226686   0.996   5.514   7.763 -0.2308 -0.6823 -0.0113
 1684TIP3    H126687   0.903   5.494   7.765 -0.3353 -0.3077  2.2677
 1684TIP3    H226688   1.038   5.432   7.737 -1.0533 -1.9087  2.2093
 1685TIP3   OH226689   3.175   3.298   7.323 -0.2410 -0.1027  0.0701
 1685TIP3    H126690   3.192   3.223   7.266  0.6753 -0.0197  0.2214
 1685TIP3    H226691   3.261   3.339   7.335 -0.8383  1.4401 -0.6528
 1686TIP3   OH226692   3.851   1.492   1.336 -0.6015 -0.4481  0.0705
 1686TIP3    H126693   3.828   1.536   1.418  2.8100  0.2352  0.8229
 1686TIP3    H226694   3.824   1.553   1.267  0.9755  1.3978  0.9722
 1687TIP3   OH226695   1.111   4.198   6.368 -0.0942  0.0780  0.0503
 1687TIP3    H126696   1.172   4.236   6.431 -0.4095  0.1009  0.3447
 1687TIP3    H226697   1.105   4.263   6.297 -0.9454  0.7812  0.7387
 1688TIP3   OH226698   3.211   1.507   0.677  0.3816  0.1608 -0.1029
 1688TIP3    H126699   3.214   1.421   0.635 -1.6895  0.5034 -1.1194
 1688TIP3    H226700   3.117   1.527   0.682  0.5903  0.7696  3.5119
 1689TIP3   OH226701   3.093   0.538   0.333 -0.1752 -0.8919 -0.4329
 1689TIP3    H126702   3.043   0.524   0.252 -0.5327 -0.0631 -0.3649
 1689TIP3    H226703   3.147   0.460   0.342  0.7612 -0.4815 -2.1209
 1690TIP3   OH226704   2.231   1.614   7.263 -0.0914  0.3009  0.4937
 1690TIP3    H126705   2.204   1.639   7.352  0.7347  1.9045  0.3404
 1690TIP3    H226706   2.204   1.687   7.209  1.5125  0.4431 -0.1809
 1691TIP3   OH226707   4.265   5.567   0.872  0.3189  0.6599  0.0235
 1691TIP3    H126708   4.331   5.630   0.902  0.2875  0.7753 -0.1527
 1691TIP3    H226709   4.267   5.498   0.938  2.3643 -0.5752 -1.2358
 1692TIP3   OH226710   5.790   4.440   7.073  0.1843  0.3014  0.4050
 1692TIP3    H126711   5.743   4.363   7.041 -0.9543  0.2882  2.0045
 1692TIP3    H226712   5.778   4.506   7.004 -1.9070  0.1726  0.5910
 1693TIP3   OH226713   1.395   4.567   1.314 -0.1853  0.0113  0.5297
 1693TIP3    H126714   1.327   4.558   1.247  1.1914  1.0827 -1.0864
 1693TIP3    H226715   1.435   4.480   1.319  2.1781  0.7316 -2.8990
 1694TIP3   OH226716   5.259   6.516   7.560 -0.1293  0.0130  0.8471
 1694TIP3    H126717   5.301   6.448   7.613 -0.5369 -0.6039  0.3815
 1694TIP3    H226718   5.293   6.503   7.472 -0.1656  0.4565  0.7628
 1695TIP3   OH226719   1.262   4.327   6.570 -0.0882  0.4230  0.1552
 1695TIP3    H126720   1.227   4.412   6.597  1.6257  1.8151 -1.6849
 1695TIP3    H226721   1.314   4.297   6.644 -0.7775  0.9185  0.8546
 1696TIP3   OH226722   0.657   1.057   1.214  0.3304 -0.1542 -0.0670
 1696TIP3    H126723   0.692   1.002   1.284  0.3600 -2.1574 -1.5658
 1696TIP3    H226724   0.694   1.144   1.230  0.0279 -0.4384  2.5722
 1697TIP3   OH226725   1.473   1.336   1.129  0.0353  0.2628 -0.3092
 1697TIP3    H126726   1.389   1.375   1.109  0.0977  0.7165  0.2655
 1697TIP3    H226727   1.524   1.407   1.168  0.2340 -0.3195  0.5320
 1698TIP3   OH226728   0.304   6.678   7.617  0.1771  0.9892  0.1353
 1698TIP3    H126729   0.227   6.670   7.673  0.7311  2.2120  1.1177
 1698TIP3    H226730   0.286   6.754   7.562  0.0525  0.3712 -0.6984
 1699TIP3   OH226731   4.538   3.525   2.091  0.3578  0.1750  0.1292
 1699TIP3    H126732   4.448   3.509   2.062  0.5977 -2.0257  0.3624
 1699TIP3    H226733   4.534   3.523   2.186  0.8534 -1.7787  0.1589
 1700TIP3   OH226734   5.228   4.762   8.221  0.3025  0.5364  0.1347
 1700TIP3    H126735   5.135   4.750   8.239  0.0063  0.3663 -1.3582
 1700TIP3    H226736   5.251   4.844   8.265 -0.8443  1.1909 -0.4490
 1701TIP3   OH226737   6.855   4.031   7.443 -0.3409 -0.1106 -0.7857
 1701TIP3    H126738   6.840   4.103   7.382 -1.1704 -0.8835 -1.5144
 1701TIP3    H226739   6.871   4.075   7.527  0.2177  0.9472 -1.4199
 1702TIP3   OH226740   5.274   4.917   7.445 -0.0122 -0.4182  0.0356
 1702TIP3    H126741   5.270   4.962   7.529  0.7927 -0.5322  0.1442
 1702TIP3    H226742   5.347   4.856   7.454  0.4313 -0.0508 -0.9250
 1703TIP3   OH226743   4.911   6.563   1.888 -0.4414 -0.0684 -0.0789
 1703TIP3    H126744   4.877   6.597   1.971 -1.2102  0.2986 -0.5294
 1703TIP3    H226745   4.836   6.521   1.846  0.1535 -1.0506 -0.1928
 1704TIP3   OH226746   6.128   2.035   7.491  0.1942  0.5819 -0.1553
 1704TIP3    H126747   6.195   2.000   7.549  0.5107 -2.4729 -2.1586
 1704TIP3    H226748   6.176   2.092   7.431  0.7916 -0.3587 -0.6024
 1705TIP3   OH226749   2.611   3.884   1.804  0.6198 -0.6055  0.7315
 1705TIP3    H126750   2.619   3.963   1.750  0.4144  0.1457  1.7700
 1705TIP3    H226751   2.700   3.851   1.812  0.7151 -0.4476  0.3516
 1706TIP3   OH226752   4.953   6.783   0.377 -0.0309  0.0319 -0.3534
 1706TIP3    H126753   5.023   6.766   0.441  0.1510  0.6293 -0.3887
 1706TIP3    H226754   4.872   6.780   0.428 -0.2360 -2.8652 -0.6618
 1707TIP3   OH226755   0.681   6.846   0.714  0.0962 -0.0791  0.2915
 1707TIP3    H126756   0.650   6.937   0.707  0.6007  0.0961  0.2987
 1707TIP3    H226757   0.761   6.843   0.661 -0.3216 -0.7154 -0.3165
 1708TIP3   OH226758   1.968   3.711   1.101  0.4583  0.0354  0.7209
 1708TIP3    H126759   2.015   3.721   1.018 -1.8324  0.6944 -0.5592
 1708TIP3    H226760   1.976   3.618   1.121  1.9068  0.0479  0.3366
 1709TIP3   OH226761   4.293   3.774   0.986  0.0497 -0.2224 -0.3846
 1709TIP3    H126762   4.379   3.757   0.947  0.3015  1.8124 -0.8678
 1709TIP3    H226763   4.252   3.838   0.927 -1.1930 -0.0553  0.6088
 1710TIP3   OH226764   0.073   2.671   8.005 -0.5062  0.3195  0.0581
 1710TIP3    H126765   0.001   2.673   7.942  1.1054  0.0904 -1.9093
 1710TIP3    H226766   0.133   2.605   7.971  0.9169  0.9171  1.2887
 1711TIP3   OH226767   0.346   2.154   0.491  0.4265 -0.1149  0.1399
 1711TIP3    H126768   0.325   2.135   0.583  0.4950  2.2255  0.6932
 1711TIP3    H226769   0.323   2.074   0.445  0.7277 -1.5101  2.2295
 1712TIP3   OH226770   1.587   4.983   0.497  0.2614  0.1137  0.4929
 1712TIP3    H126771   1.508   5.017   0.456  1.7508  2.1194 -0.8618
 1712TIP3    H226772   1.579   5.007   0.589 -0.0742  1.5783  0.0981
 1713TIP3   OH226773   0.776   5.198   0.440  0.4300 -0.3606  0.1198
 1713TIP3    H126774   0.728   5.177   0.520  2.1202 -3.0642  0.5459
 1713TIP3    H226775   0.714   5.181   0.369 -0.6927  0.8812  0.7465
 1714TIP3   OH226776   7.010   1.910   7.647 -0.0549 -0.9414  0.4599
 1714TIP3    H126777   7.038   1.825   7.680  0.2459 -0.8903  0.3345
 1714TIP3    H226778   6.936   1.934   7.703  0.8632 -0.5529  1.5337
 1715TIP3   OH226779   6.185   4.757   0.837  0.4541  0.6883  0.2851
 1715TIP3    H126780   6.150   4.772   0.750  0.6120 -0.8340 -0.0705
 1715TIP3    H226781   6.250   4.687   0.825  1.4734  1.3956  1.4043
 1716TIP3   OH226782   6.946   6.894   2.647 -0.4635  0.5451 -0.5920
 1716TIP3    H126783   6.982   6.808   2.665  1.3805  1.0460 -1.6678
 1716TIP3    H226784   7.009   6.956   2.683 -1.8219  1.4732  0.2932
 1717TIP3   OH226785   0.561   3.969   8.045 -0.3168  0.1797 -0.6384
 1717TIP3    H126786   0.505   3.948   7.970 -0.2895  0.9979 -0.9047
 1717TIP3    H226787   0.503   4.015   8.106 -0.4197 -0.7692  0.0033
 1718TIP3   OH226788   3.891   2.805   0.616 -0.5058  0.0976 -0.4356
 1718TIP3    H126789   3.875   2.713   0.637 -1.4990  0.3996  0.1961
 1718TIP3    H226790   3.955   2.803   0.545 -1.0116 -1.0988 -0.8794
 1719TIP3   OH226791   1.948   3.777   2.512  0.5138  0.3418 -0.3066
 1719TIP3    H126792   1.991   3.709   2.459  0.2304 -0.4831  0.4839
 1719TIP3    H226793   2.018   3.816   2.564  0.4066 -0.7923  0.7567
 1720TIP3   OH226794   4.565   2.251   0.858  0.2812 -0.4023  0.0653
 1720TIP3    H126795   4.635   2.201   0.816  0.8651  0.0397  0.4999
 1720TIP3    H226796   4.484   2.208   0.829  0.7637 -1.5282  0.3618
 1721TIP3   OH226797   1.751   0.690   6.699  0.4645  0.9630 -0.3084
 1721TIP3    H126798   1.658   0.690   6.680  0.3186  1.9130  0.3394
 1721TIP3    H226799   1.794   0.684   6.613 -0.1862  1.5043 -0.6751
 1722TIP3   OH226800   4.652   0.244   7.373  0.2340 -0.4912  0.5631
 1722TIP3    H126801   4.599   0.174   7.412 -0.3720  0.4670  1.5233
 1722TIP3    H226802   4.740   0.229   7.406  0.6180 -2.0910 -1.0266
 1723TIP3   OH226803   6.194   3.171   1.748  0.2809  0.9200 -0.0351
 1723TIP3    H126804   6.143   3.121   1.683 -0.2228  2.1933 -0.6431
 1723TIP3    H226805   6.177   3.127   1.831  0.2827 -0.2436 -0.6241
 1724TIP3   OH226806   6.453   2.575   1.906  0.4006 -0.0988  0.0575
 1724TIP3    H126807   6.484   2.657   1.944  0.1645  0.4820 -0.9817
 1724TIP3    H226808   6.421   2.525   1.981  1.5324  0.3023  0.8408
 1725TIP3   OH226809   1.703   5.951   1.343 -0.4573 -0.0086  0.2974
 1725TIP3    H126810   1.704   6.041   1.311  0.6297  0.0717  0.4920
 1725TIP3    H226811   1.647   5.904   1.281 -0.3406  0.6261 -0.3096
 1726TIP3   OH226812   2.800   0.774   2.182 -0.1287 -0.0555  0.8587
 1726TIP3    H126813   2.893   0.786   2.199 -0.1979  0.1015  1.1406
 1726TIP3    H226814   2.774   0.850   2.130  0.3098 -1.0656 -0.8895
 1727TIP3   OH226815   2.702   6.530   6.670 -0.1842 -0.1526  0.3464
 1727TIP3    H126816   2.671   6.486   6.749  0.8472 -2.1430 -0.2948
 1727TIP3    H226817   2.783   6.485   6.648  0.2093  1.2059 -1.1621
 1728TIP3   OH226818   4.601   4.320   7.547 -0.4741 -0.0576 -0.2703
 1728TIP3    H126819   4.554   4.302   7.466 -0.3677  1.8173 -0.7889
 1728TIP3    H226820   4.646   4.403   7.531  0.4210 -0.1885  1.3381
 1729TIP3   OH226821   0.186   6.245   2.280  0.6366  0.3072  0.3431
 1729TIP3    H126822   0.166   6.253   2.187  1.1773  2.8121  0.3581
 1729TIP3    H226823   0.113   6.194   2.316 -0.4596  0.7161 -1.1784
 1730TIP3   OH226824   3.164   3.334   7.642 -0.3910 -0.4685 -0.1970
 1730TIP3    H126825   3.244   3.384   7.624 -1.1972  0.6322 -0.8945
 1730TIP3    H226826   3.155   3.275   7.568 -0.1158 -0.7454 -0.0113
 1731TIP3   OH226827   4.523   2.619   7.870  0.2221 -0.0171 -0.6056
 1731TIP3    H126828   4.526   2.525   7.884 -2.5750 -0.3393 -1.6981
 1731TIP3    H226829   4.615   2.646   7.873  1.0116 -2.4923  1.2468
 1732TIP3   OH226830   0.618   3.243   7.659 -0.5784  0.1746  0.8546
 1732TIP3    H126831   0.697   3.225   7.711 -1.2685 -0.0080  1.8751
 1732TIP3    H226832   0.567   3.162   7.664 -0.6111  0.1091 -0.2337
 1733TIP3   OH226833   3.191   4.127   7.801 -0.4306 -0.3694 -0.3409
 1733TIP3    H126834   3.124   4.192   7.776 -0.0391 -0.1882 -0.9366
 1733TIP3    H226835   3.232   4.102   7.718 -1.3643 -2.2730 -0.2671
 1734TIP3   OH226836   4.862   1.505   1.970 -0.1376 -0.6199  0.7743
 1734TIP3    H126837   4.946   1.505   2.016  0.2371 -2.3276  0.1607
 1734TIP3    H226838   4.825   1.418   1.986 -2.8186  0.7137  2.7418
 1735TIP3   OH226839   4.868   6.210   7.677  0.3359  0.0917  0.0417
 1735TIP3    H126840   4.869   6.298   7.639 -0.9834 -0.2729 -0.9150
 1735TIP3    H226841   4.960   6.189   7.692  0.6852  1.4998 -0.0290
 1736TIP3   OH226842   5.521   2.079   7.329 -0.5371  0.3864 -0.4558
 1736TIP3    H126843   5.434   2.077   7.370 -0.0881 -1.5399  0.5125
 1736TIP3    H226844   5.562   1.996   7.356  2.3164  2.0295  0.6964
 1737TIP3   OH226845   4.925   4.781   7.024 -0.3772  0.2644 -0.3370
 1737TIP3    H126846   4.872   4.855   7.054  1.8056  1.5652  0.5666
 1737TIP3    H226847   4.980   4.818   6.956 -0.4497 -1.0000 -1.1064
 1738TIP3   OH226848   2.175   3.500   8.122 -0.0243 -0.4347  0.1831
 1738TIP3    H126849   2.173   3.464   8.033  0.4685  0.2735 -0.1299
 1738TIP3    H226850   2.187   3.594   8.109 -0.6763 -0.2304  0.9891
 1739TIP3   OH226851   0.555   4.124   0.381 -0.2715  0.1778  0.2809
 1739TIP3    H126852   0.572   4.075   0.301 -0.1956  2.2065 -1.0174
 1739TIP3    H226853   0.606   4.079   0.448  0.0024 -1.3250 -0.8653
 1740TIP3   OH226854   6.442   0.761   2.697  0.0890 -0.1795  0.0452
 1740TIP3    H126855   6.530   0.750   2.730 -0.6734 -1.1761  1.8664
 1740TIP3    H226856   6.388   0.701   2.748 -1.3823 -1.0137 -2.2978
 1741TIP3   OH226857   2.172   5.207   1.765 -0.1236  0.2193  0.5272
 1741TIP3    H126858   2.257   5.164   1.771 -0.3207 -0.1520  0.6821
 1741TIP3    H226859   2.179   5.262   1.687 -0.2341 -0.9189 -0.3220
 1742TIP3   OH226860   5.683   4.203   0.752  0.0475  0.1190  0.2137
 1742TIP3    H126861   5.662   4.203   0.845  1.1008 -0.8143  0.4709
 1742TIP3    H226862   5.681   4.111   0.726 -1.3226  0.4467 -0.9596
 1743TIP3   OH226863   2.958   6.261   0.121 -0.7280  1.2238 -0.2825
 1743TIP3    H126864   2.907   6.204   0.063  0.8592 -0.7022  0.1028
 1743TIP3    H226865   2.956   6.217   0.206  0.3249  1.8864  0.1001
 1744TIP3   OH226866   5.466   1.371   0.277  0.1559 -0.2039  0.2523
 1744TIP3    H126867   5.415   1.294   0.301  0.9770 -0.6555  0.5558
 1744TIP3    H226868   5.460   1.428   0.354 -0.0426 -0.1664  0.2118
 1745TIP3   OH226869   1.436   5.339   1.092 -0.5415 -0.0022 -0.0638
 1745TIP3    H126870   1.452   5.433   1.097  2.8076 -0.4580  0.0802
 1745TIP3    H226871   1.395   5.326   1.006 -2.0227  1.6400  0.3459
 1746TIP3   OH226872   5.226   0.210   0.368 -0.0249 -0.2636  0.0328
 1746TIP3    H126873   5.276   0.243   0.443 -1.3114  0.6594  0.5291
 1746TIP3    H226874   5.195   0.124   0.396  2.4079 -1.5168 -0.8356
 1747TIP3   OH226875   3.700   1.863   1.234  0.2423  0.2914  0.1580
 1747TIP3    H126876   3.789   1.886   1.208  0.4267 -0.1178  0.4058
 1747TIP3    H226877   3.658   1.831   1.154 -0.2922  2.2347 -0.3882
 1748TIP3   OH226878   1.548   6.795   1.834 -0.2622 -0.0535 -0.1321
 1748TIP3    H126879   1.541   6.731   1.763 -0.6984  0.1001 -0.2279
 1748TIP3    H226880   1.507   6.874   1.799 -3.3169 -0.8610  1.3631
 1749TIP3   OH226881   4.612   5.777   7.700 -0.8119  0.1176 -0.2263
 1749TIP3    H126882   4.579   5.726   7.774 -2.4617  0.3013 -0.8168
 1749TIP3    H226883   4.707   5.783   7.717 -1.1484  0.2930  1.9412
 1750TIP3   OH226884   4.537   4.388   1.777 -1.1894  0.2533 -0.2904
 1750TIP3    H126885   4.591   4.421   1.849 -1.5528 -1.8254  1.0522
 1750TIP3    H226886   4.600   4.356   1.712 -0.8493  1.3766 -0.5222
 1751TIP3   OH226887   5.748   0.166   7.204 -0.2413  0.2027 -0.1290
 1751TIP3    H126888   5.759   0.112   7.126 -2.3326 -0.6064  0.0647
 1751TIP3    H226889   5.786   0.251   7.180 -1.8246  0.3330 -2.4684
 1752TIP3   OH226890   0.653   0.962   0.285 -0.2651  0.4229  0.0118
 1752TIP3    H126891   0.742   0.962   0.250 -0.5526  2.1575 -0.8059
 1752TIP3    H226892   0.665   0.948   0.380  0.8754  0.7254 -0.0690
 1753TIP3   OH226893   4.912   5.372   1.077 -0.2234  0.2557  0.0551
 1753TIP3    H126894   4.979   5.305   1.087 -0.6332 -0.0149  1.2007
 1753TIP3    H226895   4.914   5.421   1.159 -0.3471  1.2727 -0.5221
 1754TIP3   OH226896   0.485   1.572   0.332 -0.0082 -0.0606  0.2291
 1754TIP3    H126897   0.549   1.504   0.312 -0.1471 -0.3371  0.7188
 1754TIP3    H226898   0.511   1.647   0.278  0.5121 -0.2954  0.1581
 1755TIP3   OH226899   0.621   5.178   1.575  0.4046 -0.2942 -0.3456
 1755TIP3    H126900   0.669   5.108   1.619  0.8192  0.1035 -0.1612
 1755TIP3    H226901   0.622   5.251   1.637 -2.4170 -0.9835  0.6383
 1756TIP3   OH226902   2.324   1.912   7.827  0.4262  0.2097 -0.0857
 1756TIP3    H126903   2.402   1.966   7.836  0.5138 -0.1726  2.1011
 1756TIP3    H226904   2.286   1.911   7.915 -0.7685 -1.4967 -0.5736
 1757TIP3   OH226905   5.391   6.687   2.390  0.0522  0.3099 -0.0639
 1757TIP3    H126906   5.319   6.652   2.338  0.6316  0.1554 -0.7713
 1757TIP3    H226907   5.373   6.781   2.397  0.3887  0.4659 -1.2170
 1758TIP3   OH226908   2.220   0.488   1.285 -0.6037  0.2733 -0.0870
 1758TIP3    H126909   2.172   0.416   1.326  0.1581 -0.9752 -1.2897
 1758TIP3    H226910   2.166   0.512   1.209 -0.6647  0.7212  0.0971
 1759TIP3   OH226911   4.749   3.764   2.383 -0.4233 -0.2506 -0.4564
 1759TIP3    H126912   4.766   3.789   2.292 -2.3032 -2.2427 -1.4622
 1759TIP3    H226913   4.794   3.680   2.394  0.6734  0.4678  0.8475
 1760TIP3   OH226914   6.439   0.645   2.220 -0.2807  0.1000  0.2350
 1760TIP3    H126915   6.510   0.703   2.247  1.4496 -2.1772  0.9058
 1760TIP3    H226916   6.466   0.610   2.135 -0.5045 -0.9419  0.5800
 1761TIP3   OH226917   4.308   1.684   7.285 -1.0008 -0.2074  0.2443
 1761TIP3    H126918   4.361   1.678   7.205 -2.0886 -0.0210 -0.5202
 1761TIP3    H226919   4.367   1.658   7.355 -0.5874 -2.4213 -0.8422
 1762TIP3   OH226920   3.695   0.856   0.139 -0.0332  0.1027 -0.2463
 1762TIP3    H126921   3.754   0.796   0.093  0.0584  1.0022 -1.3355
 1762TIP3    H226922   3.747   0.936   0.151 -0.8121  0.6714 -0.6260
 1763TIP3   OH226923   0.162   4.467   6.657 -0.0020 -0.0078  0.1487
 1763TIP3    H126924   0.230   4.523   6.621  1.1733 -1.1598  0.5039
 1763TIP3    H226925   0.083   4.522   6.657  0.8390  1.2518 -0.5505
 1764TIP3   OH226926   1.687   6.480   7.290  0.3986  0.0936 -0.6912
 1764TIP3    H126927   1.648   6.488   7.376  0.0014  0.5779 -0.9119
 1764TIP3    H226928   1.732   6.396   7.292 -0.7282 -0.5248 -0.4602
 1765TIP3   OH226929   6.386   6.255   8.050 -0.2968  0.2749 -0.0881
 1765TIP3    H126930   6.376   6.253   8.145  0.5925  2.4528  0.1183
 1765TIP3    H226931   6.470   6.298   8.036 -1.2644  1.7149 -1.8766
 1766TIP3   OH226932   3.861   2.089   7.391 -0.2394  0.5081 -0.6768
 1766TIP3    H126933   3.868   2.174   7.347 -1.1692  0.8638 -0.1724
 1766TIP3    H226934   3.819   2.032   7.327 -1.1624  0.8970 -0.4258
 1767TIP3   OH226935   1.155   0.008   6.069  0.5895 -0.1830  0.2643
 1767TIP3    H126936   1.162   0.088   6.017  0.6548 -0.4419 -0.1250
 1767TIP3    H226937   1.197  -0.060   6.016 -1.6771 -1.0284 -0.5700
 1768TIP3   OH226938   1.277   2.967   1.786  0.0273 -0.2001  0.0940
 1768TIP3    H126939   1.259   2.887   1.738  1.5881 -0.5033 -0.0120
 1768TIP3    H226940   1.365   2.956   1.820 -0.2338  0.9211  1.2104
 1769TIP3   OH226941   5.231   4.675   7.789 -0.2363  0.0922  0.0127
 1769TIP3    H126942   5.234   4.768   7.764  2.5817  0.4524  1.2218
 1769TIP3    H226943   5.139   4.657   7.806 -0.7572  2.9653  0.7268
 1770TIP3   OH226944   1.217   2.526   1.876 -0.3107  0.4441 -0.4473
 1770TIP3    H126945   1.269   2.492   1.803  0.9333  0.2227  0.5016
 1770TIP3    H226946   1.273   2.592   1.917 -0.6033 -0.0724  0.8460
 1771TIP3   OH226947   2.053   5.201   7.004  0.4718 -0.0392  0.0378
 1771TIP3    H126948   2.149   5.204   7.012  0.6006  1.4845 -1.5921
 1771TIP3    H226949   2.034   5.110   6.982  1.5285 -0.3932  0.5205
 1772TIP3   OH226950   0.513   0.366   6.475  0.2863 -0.2298  0.7172
 1772TIP3    H126951   0.539   0.342   6.386 -0.5202  0.8081  0.1734
 1772TIP3    H226952   0.485   0.284   6.515  2.6068 -1.0819  0.7371
 1773TIP3   OH226953   2.680   2.465   7.243  0.4387 -0.0131 -0.0984
 1773TIP3    H126954   2.688   2.421   7.327  1.2020  2.0228  0.9562
 1773TIP3    H226955   2.591   2.501   7.242  0.7750  0.8544  0.3228
 1774TIP3   OH226956   2.879   6.518   7.513 -0.3136  0.2065  0.1782
 1774TIP3    H126957   2.901   6.438   7.465 -0.0252  0.4455 -0.0905
 1774TIP3    H226958   2.850   6.579   7.445 -0.4192  0.3690  0.3697
 1775TIP3   OH226959   2.777   5.592   1.450  0.0274 -0.3702 -0.2202
 1775TIP3    H126960   2.866   5.626   1.462  0.2811 -1.2948  0.6590
 1775TIP3    H226961   2.723   5.645   1.509  0.1124 -0.2696 -0.2324
 1776TIP3   OH226962   1.067   3.551   6.867  0.2698  0.4415  0.2932
 1776TIP3    H126963   1.127   3.525   6.936 -1.6372 -2.3277  1.0815
 1776TIP3    H226964   0.980   3.540   6.905 -0.8538 -0.1995 -2.2128
 1777TIP3   OH226965   3.841   1.631   8.188  0.0167  0.1848 -0.2937
 1777TIP3    H126966   3.829   1.726   8.181 -0.0052  0.0742 -2.7231
 1777TIP3    H226967   3.928   1.620   8.227  0.3671  1.2163 -0.7599
 1778TIP3   OH226968   2.265   4.968   7.296 -0.2240  0.2945  0.4641
 1778TIP3    H126969   2.236   4.948   7.207  0.7621  1.8549 -0.2486
 1778TIP3    H226970   2.343   5.022   7.285 -0.6359  1.3733  2.2677
 1779TIP3   OH226971   0.186   6.216   1.054  0.2818 -0.7523  0.2556
 1779TIP3    H126972   0.140   6.144   1.011  0.3055 -0.1673 -0.7707
 1779TIP3    H226973   0.264   6.230   1.001 -0.4320  0.9640 -0.4193
 1780TIP3   OH226974   6.876   6.605   1.167 -0.0832 -0.4241 -0.4362
 1780TIP3    H126975   6.833   6.647   1.241  0.5687  0.7065 -0.6691
 1780TIP3    H226976   6.818   6.532   1.143 -1.3266  0.4362 -0.1195
 1781TIP3   OH226977   3.680   2.771   0.361 -0.0763 -0.0078 -0.5300
 1781TIP3    H126978   3.731   2.707   0.311  0.2740 -0.8982  0.9008
 1781TIP3    H226979   3.639   2.719   0.431  0.0795  1.2953  0.5648
 1782TIP3   OH226980   4.835   0.687   7.739 -0.8843  0.1978 -0.2121
 1782TIP3    H126981   4.793   0.719   7.819 -1.1052 -0.2894 -0.1305
 1782TIP3    H226982   4.813   0.752   7.673 -2.4599 -0.4520 -0.3713
 1783TIP3   OH226983   5.315   1.817   7.639 -0.7576  0.0129 -0.2066
 1783TIP3    H126984   5.404   1.787   7.625  0.6486  2.4454  2.4784
 1783TIP3    H226985   5.292   1.865   7.559  0.8840  0.4925 -0.4143
 1784TIP3   OH226986   5.611   3.038   7.213  0.7366 -0.5565  0.2131
 1784TIP3    H126987   5.604   3.127   7.178  1.4547  0.7150  3.0444
 1784TIP3    H226988   5.704   3.027   7.233  0.7607 -2.2198 -0.6820
 1785TIP3   OH226989   6.937   5.806   6.041  0.2605  0.2137 -0.1387
 1785TIP3    H126990   7.020   5.798   5.992 -1.0885 -1.4605 -2.3629
 1785TIP3    H226991   6.921   5.718   6.074 -1.0007  0.3284 -0.4147
 1786TIP3   OH226992   2.723   5.244   6.890  0.8223 -0.4392  0.1170
 1786TIP3    H126993   2.642   5.218   6.847 -0.2623 -0.2016  1.9114
 1786TIP3    H226994   2.758   5.162   6.926  1.4167 -0.5449 -0.6685
 1787TIP3   OH226995   1.774   6.988   7.464 -0.2156  0.6467 -0.5395
 1787TIP3    H126996   1.814   7.025   7.385  1.4062  0.0731 -0.0219
 1787TIP3    H226997   1.738   7.063   7.510 -0.3725  1.0982 -1.3914
 1788TIP3   OH226998   1.928   0.643   7.281 -0.1193 -0.0155 -0.1700
 1788TIP3    H126999   2.002   0.585   7.299  0.0266  0.3489  0.4200
 1788TIP3    H227000   1.945   0.721   7.333 -1.2995 -0.2332  0.5906
 1789TIP3   OH227001   1.714   4.225   7.248  0.3686  0.1911 -0.4202
 1789TIP3    H127002   1.753   4.300   7.294  0.9329  0.3196 -1.0939
 1789TIP3    H227003   1.788   4.179   7.209  0.2497 -1.8302  1.5488
 1790TIP3   OH227004   5.112   3.153   1.715  0.5357  1.0046 -0.6448
 1790TIP3    H127005   5.022   3.153   1.748  1.1416  2.3005  1.1750
 1790TIP3    H227006   5.125   3.064   1.682 -1.8028  1.1293 -2.2282
 1791TIP3   OH227007   0.434   3.911   7.791 -0.0793 -0.4641  0.6414
 1791TIP3    H127008   0.367   3.843   7.782  0.3599 -0.8458  0.2166
 1791TIP3    H227009   0.411   3.976   7.724 -0.0270 -0.5937  0.4971
 1792TIP3   OH227010   4.475   0.696   0.724 -0.2433  0.3021  0.1436
 1792TIP3    H127011   4.417   0.665   0.654  0.3080 -1.5239  0.4375
 1792TIP3    H227012   4.420   0.692   0.803 -0.1221 -0.1311  0.2092
 1793TIP3   OH227013   4.096   3.333   6.800 -1.1742 -0.0436 -0.0694
 1793TIP3    H127014   4.072   3.257   6.747  2.1705 -1.5553  0.3201
 1793TIP3    H227015   4.151   3.297   6.870  0.3651  2.6899  0.2783
 1794TIP3   OH227016   4.849   4.578   0.813  0.8534  0.1311 -0.2027
 1794TIP3    H127017   4.926   4.546   0.765  2.4548  1.2149  1.5088
 1794TIP3    H227018   4.868   4.559   0.905 -0.3730  1.5267  0.3856
 1795TIP3   OH227019   2.693   5.250   1.706 -0.2474  0.1794 -0.2039
 1795TIP3    H127020   2.759   5.244   1.638  1.0398  0.5290  0.9791
 1795TIP3    H227021   2.687   5.161   1.742  0.8204  0.4901  0.7962
 1796TIP3   OH227022   1.240   4.253   1.812  0.3233  0.1805  0.0811
 1796TIP3    H127023   1.232   4.318   1.742  1.9381 -0.6928 -0.9855
 1796TIP3    H227024   1.255   4.170   1.767  0.5799 -0.5599  1.4564
 1797TIP3   OH227025   3.285   5.233   8.104 -0.0842  0.4562  0.2462
 1797TIP3    H127026   3.300   5.141   8.128  0.4075 -0.1392 -2.1580
 1797TIP3    H227027   3.366   5.278   8.128  0.0567  0.0684  0.5094
 1798TIP3   OH227028   4.970   4.818   7.876 -0.4422 -0.1804  0.1199
 1798TIP3    H127029   4.903   4.886   7.889  0.9107  1.7758 -2.2252
 1798TIP3    H227030   4.955   4.787   7.786  1.9182  0.5435 -0.5936
 1799TIP3   OH227031   6.234   3.057   7.460  0.1149  0.4727 -0.3768
 1799TIP3    H127032   6.315   3.107   7.454  0.2993  0.3338  0.7143
 1799TIP3    H227033   6.198   3.060   7.372  1.0136  1.0227 -0.7474
 1800TIP3   OH227034   1.441   4.079   7.620 -0.1104 -0.3022  0.4009
 1800TIP3    H127035   1.397   4.121   7.694  0.6233 -1.7678  1.7351
 1800TIP3    H227036   1.414   4.130   7.544 -3.0738 -0.3454  1.2795
 1801TIP3   OH227037   2.527   4.829   0.663  0.3676 -0.3235  0.5337
 1801TIP3    H127038   2.615   4.868   0.659  0.4980 -0.7028 -2.0906
 1801TIP3    H227039   2.470   4.897   0.628  0.2116 -1.4323 -1.4889
 1802TIP3   OH227040   5.456   1.668   1.815  0.1119  0.2647 -0.0475
 1802TIP3    H127041   5.495   1.650   1.901 -0.9517 -0.0926  0.3729
 1802TIP3    H227042   5.414   1.753   1.825  0.1940  0.3331 -0.2900
 1803TIP3   OH227043   3.442   0.395   1.922  0.0376  0.0453 -0.4265
 1803TIP3    H127044   3.474   0.324   1.867  2.2358  0.4537  0.2276
 1803TIP3    H227045   3.357   0.365   1.953  1.2827 -2.7818  0.6096
 1804TIP3   OH227046   6.171   3.389   8.190  0.3381 -0.3330 -0.1476
 1804TIP3    H127047   6.100   3.368   8.131 -0.6937  0.7792  0.6485
 1804TIP3    H227048   6.130   3.394   8.277  0.8679  2.4943  0.0530
 1805TIP3   OH227049   0.076   3.843   0.591 -0.3342 -0.0779  0.5680
 1805TIP3    H127050   0.002   3.884   0.636  0.5697  1.4130  0.7564
 1805TIP3    H227051   0.153   3.871   0.640  0.3519 -2.2490  0.8708
 1806TIP3   OH227052   3.467   2.413   2.040  0.3059  0.9211 -0.2863
 1806TIP3    H127053   3.541   2.422   2.100  0.7108  1.0870 -0.8034
 1806TIP3    H227054   3.497   2.350   1.975 -0.4244  0.1308  0.1255
 1807TIP3   OH227055   5.595   5.044   7.350  0.2711 -0.0612  0.7290
 1807TIP3    H127056   5.557   5.067   7.266  1.9265 -2.4634 -0.8323
 1807TIP3    H227057   5.590   5.124   7.402  1.2944  2.2821 -2.4674
 1808TIP3   OH227058   0.824   5.790   7.953  0.3577 -0.0324 -0.3255
 1808TIP3    H127059   0.861   5.763   7.869  0.0206  2.3833 -1.3233
 1808TIP3    H227060   0.730   5.775   7.944  0.2089  1.0645 -0.7623
 1809TIP3   OH227061   5.706   1.255   1.076  0.2694 -0.3245 -0.3732
 1809TIP3    H127062   5.662   1.333   1.108  0.3785 -0.3343 -0.1966
 1809TIP3    H227063   5.681   1.186   1.137  1.2943 -0.1240  0.3016
 1810TIP3   OH227064   1.945   0.779   2.069 -0.0728  0.4754  0.2818
 1810TIP3    H127065   1.914   0.862   2.104 -1.2440 -0.0305  0.4725
 1810TIP3    H227066   1.956   0.723   2.145 -3.0371 -0.7688 -0.0654
 1811TIP3   OH227067   3.459   6.743   8.058 -0.5667 -0.1604  0.4515
 1811TIP3    H127068   3.503   6.720   7.976 -1.4909  0.5610 -0.2616
 1811TIP3    H227069   3.366   6.729   8.041 -0.8007  0.3038  1.2739
 1812TIP3   OH227070   5.907   0.642   8.030 -0.0061  0.1940 -0.0018
 1812TIP3    H127071   5.938   0.563   8.074  0.3601 -0.0146 -0.6164
 1812TIP3    H227072   5.984   0.699   8.025  1.0120 -1.1870 -3.4759
 1813TIP3   OH227073   5.888   6.623   1.533 -1.0259  0.3893 -0.6631
 1813TIP3    H127074   5.834   6.671   1.471  0.7354  0.8326 -1.9432
 1813TIP3    H227075   5.968   6.676   1.540 -0.1740 -0.9510  0.0275
 1814TIP3   OH227076   5.310   6.387   6.984  0.3330  0.1675 -0.6165
 1814TIP3    H127077   5.359   6.390   6.903  1.7296  2.6891  0.2152
 1814TIP3    H227078   5.228   6.432   6.964  0.5559  0.5331 -0.7224
 1815TIP3   OH227079   4.399   6.753   0.583  0.5927  0.5702 -0.8448
 1815TIP3    H127080   4.368   6.837   0.616  0.8728  1.0365 -1.7256
 1815TIP3    H227081   4.377   6.690   0.652  1.6032  1.5689  0.4392
 1816TIP3   OH227082   5.021   5.005   7.598  0.6204  0.0224  0.4804
 1816TIP3    H127083   4.951   4.954   7.639  0.3763  0.5414  0.7171
 1816TIP3    H227084   4.995   5.015   7.507  1.3790 -1.5184  0.0712
 1817TIP3   OH227085   4.645   4.333   1.164  0.0979 -0.2993 -0.6649
 1817TIP3    H127086   4.558   4.295   1.165 -0.5637  1.0784  1.0411
 1817TIP3    H227087   4.692   4.289   1.235  0.7499 -0.9395 -1.4859
 1818TIP3   OH227088   6.210   0.267   6.989 -0.0388 -0.1007  0.1931
 1818TIP3    H127089   6.164   0.231   6.913 -0.9787  2.1580 -0.4037
 1818TIP3    H227090   6.166   0.228   7.064 -0.5887 -0.6611 -0.4019
 1819TIP3   OH227091   5.907   1.653   1.992  0.2436 -0.3175  0.1565
 1819TIP3    H127092   5.820   1.677   1.961 -0.4960  0.4600  2.6477
 1819TIP3    H227093   5.962   1.727   1.968  0.0061 -0.3393 -0.4815
 1820TIP3   OH227094   4.028   3.695   0.402  0.0143 -0.2346  0.0899
 1820TIP3    H127095   4.119   3.722   0.417  0.7268 -1.7414 -1.1957
 1820TIP3    H227096   4.030   3.600   0.409 -0.8993 -0.5244 -2.4809
 1821TIP3   OH227097   6.528   0.173   0.612  0.2737  0.0458 -0.0681
 1821TIP3    H127098   6.552   0.110   0.545  0.6777  0.3744 -0.2378
 1821TIP3    H227099   6.540   0.126   0.695  1.4606  0.1745 -0.1505
 1822TIP3   OH227100   3.271   0.833   1.755 -0.1751 -0.0258 -0.0720
 1822TIP3    H127101   3.200   0.800   1.809 -1.1178 -2.2521 -2.4588
 1822TIP3    H227102   3.338   0.765   1.758  1.1005  1.1978  0.6371
 1823TIP3   OH227103   2.482   3.394   1.345  0.3124 -0.0014 -0.4602
 1823TIP3    H127104   2.443   3.480   1.334 -1.0036 -0.7207 -1.7738
 1823TIP3    H227105   2.490   3.383   1.440  2.0823  2.2034 -0.2881
 1824TIP3   OH227106   0.515   5.975   0.707 -0.4016  0.1264  0.1012
 1824TIP3    H127107   0.509   5.963   0.612 -1.3008 -0.3294  0.2069
 1824TIP3    H227108   0.428   5.950   0.740  0.0363 -0.1433  1.0853
 1825TIP3   OH227109   5.330   1.151   1.380 -0.3433  0.2826  0.1237
 1825TIP3    H127110   5.310   1.244   1.370  0.2565  0.5329  1.0854
 1825TIP3    H227111   5.316   1.134   1.473 -0.0592 -0.5017  0.0290
 1826TIP3   OH227112   1.669   4.040   0.743  0.1377  0.9680 -0.3214
 1826TIP3    H127113   1.673   4.105   0.813  0.1548 -0.1501  0.7413
 1826TIP3    H227114   1.701   3.959   0.783 -0.2405  0.2031 -1.5091
 1827TIP3   OH227115   5.442   2.262   1.528 -0.0868 -0.3566  0.1975
 1827TIP3    H127116   5.506   2.196   1.555 -0.5525 -0.5235  0.9323
 1827TIP3    H227117   5.482   2.346   1.551 -0.3409 -0.4815  1.1480
 1828TIP3   OH227118   1.886   6.558   6.230  0.6672 -0.0011  0.1500
 1828TIP3    H127119   1.807   6.504   6.234 -0.9038  2.1501 -0.0452
 1828TIP3    H227120   1.956   6.495   6.214 -1.1324 -1.8976 -0.9576
 1829TIP3   OH227121   6.066   5.085   7.313 -0.1411  0.2954  0.5754
 1829TIP3    H127122   6.005   5.022   7.352 -1.1117  1.2964  0.7442
 1829TIP3    H227123   6.020   5.169   7.320 -0.7824  0.4845 -3.3981
 1830TIP3   OH227124   1.365   6.204   7.397 -0.1471 -0.2884 -0.0790
 1830TIP3    H127125   1.271   6.220   7.397 -0.1911 -0.5119  0.3191
 1830TIP3    H227126   1.396   6.236   7.313 -0.1495  2.2416  0.8115
 1831TIP3   OH227127   2.111   4.021   0.523 -0.4551 -0.0754  0.4515
 1831TIP3    H127128   2.096   3.927   0.533 -0.7560 -0.3003 -1.6426
 1831TIP3    H227129   2.028   4.062   0.545 -0.5489 -0.3609  0.6260
 1832TIP3   OH227130   2.706   5.230   0.795  1.0739 -0.3391 -0.3650
 1832TIP3    H127131   2.760   5.305   0.819  0.5717  0.0878 -0.5417
 1832TIP3    H227132   2.724   5.216   0.702  1.4153 -0.6449 -0.2526
 1833TIP3   OH227133   1.076   3.034   2.732  0.1031 -0.5334 -0.9724
 1833TIP3    H127134   1.009   3.042   2.800  1.0393 -0.1009 -0.0771
 1833TIP3    H227135   1.131   3.111   2.743  1.7653 -1.7232 -0.5618
 1834TIP3   OH227136   2.537   4.623   2.304 -0.3530  0.1098  0.5247
 1834TIP3    H127137   2.516   4.533   2.330 -0.6155  0.5809  2.0666
 1834TIP3    H227138   2.527   4.623   2.209 -1.7565 -1.1345  0.6268
 1835TIP3   OH227139   0.323   4.256   7.156 -0.0683  0.0695  0.1966
 1835TIP3    H127140   0.382   4.300   7.217  0.8524 -0.7042 -0.1190
 1835TIP3    H227141   0.341   4.296   7.071  0.8144 -0.9257 -0.1026
 1836TIP3   OH227142   4.020   0.698   1.522 -0.0454 -0.1012 -0.0505
 1836TIP3    H127143   3.960   0.744   1.463 -0.7892 -1.5140 -0.4680
 1836TIP3    H227144   4.106   0.709   1.482 -0.3286  0.2212 -0.5824
 1837TIP3   OH227145   6.216   0.699   0.778 -0.2645 -0.6479  0.4924
 1837TIP3    H127146   6.232   0.642   0.853  3.0119 -0.1312  0.3103
 1837TIP3    H227147   6.264   0.659   0.706  1.0432  1.5876  0.0259
 1838TIP3   OH227148   3.804   1.870   0.350  0.1571 -0.5105 -1.0272
 1838TIP3    H127149   3.709   1.875   0.360  0.0206 -0.7476 -2.0751
 1838TIP3    H227150   3.818   1.853   0.256  1.3298  2.8628 -1.5900
 1839TIP3   OH227151   5.824   0.010   7.010  0.3941 -0.1395 -0.0906
 1839TIP3    H127152   5.892   0.003   7.077 -1.5055 -0.2184  1.9345
 1839TIP3    H227153   5.788  -0.078   7.003 -0.1757  0.1091 -0.3989
 1840TIP3   OH227154   6.808   4.540   7.384 -0.2366  0.7782 -0.3570
 1840TIP3    H127155   6.789   4.563   7.475  0.3821  0.4119 -0.1226
 1840TIP3    H227156   6.723   4.531   7.343 -0.5528  0.0360  0.4262
 1841TIP3   OH227157   1.151   4.618   7.455  0.7123  0.0869 -0.4449
 1841TIP3    H127158   1.127   4.709   7.440 -3.5676 -1.0439 -1.6552
 1841TIP3    H227159   1.187   4.588   7.371 -0.4303 -0.0130 -0.9045
 1842TIP3   OH227160   5.718   1.687   2.245 -0.0207  0.5325  0.4062
 1842TIP3    H127161   5.716   1.728   2.332 -1.5802 -1.0264  1.1739
 1842TIP3    H227162   5.751   1.599   2.262 -0.6965  0.0917 -0.5104
 1843TIP3   OH227163   5.965   7.017   2.495 -0.7110 -0.4422 -0.0550
 1843TIP3    H127164   6.038   6.988   2.550 -0.2589  0.2405 -0.2790
 1843TIP3    H227165   5.920   6.937   2.470 -0.1059 -0.8621  0.1894
 1844TIP3   OH227166   6.136   0.275   1.133 -0.0699 -0.5153 -0.2065
 1844TIP3    H127167   6.042   0.291   1.135  0.0815  0.3323  0.7247
 1844TIP3    H227168   6.145   0.181   1.147 -0.7897 -0.7066 -0.9574
 1845TIP3   OH227169   4.968   3.215   6.563 -0.1540  0.1455  0.0065
 1845TIP3    H127170   4.985   3.226   6.657  2.9321  1.1171 -0.5617
 1845TIP3    H227171   4.878   3.182   6.559 -0.0987 -0.7875  3.3314
 1846TIP3   OH227172   3.106   1.267   6.761 -0.8207  0.1339  0.5582
 1846TIP3    H127173   3.084   1.299   6.674 -0.4355  1.5602  0.9520
 1846TIP3    H227174   3.062   1.183   6.768 -0.6374 -0.1282 -1.1041
 1847TIP3   OH227175   5.116   5.465   2.483  0.4278  0.1260 -0.0520
 1847TIP3    H127176   5.049   5.530   2.504  0.9607 -0.4376  4.4591
 1847TIP3    H227177   5.188   5.516   2.446 -1.6450  0.9720 -3.3094
 1848TIP3   OH227178   6.157   4.423   1.109  0.2215 -0.1079 -0.4467
 1848TIP3    H127179   6.069   4.384   1.108  0.4840 -0.7480  0.5741
 1848TIP3    H227180   6.142   4.515   1.129 -0.2080 -0.2320 -0.1852
 1849TIP3   OH227181   1.956   0.320   1.109  0.0531  0.3732 -0.3313
 1849TIP3    H127182   1.925   0.290   1.024 -0.6030 -0.3727  0.1536
 1849TIP3    H227183   2.008   0.398   1.090  0.9859 -0.5089 -1.5419
 1850TIP3   OH227184   4.506   0.511   7.674 -0.1921  0.5703 -0.0356
 1850TIP3    H127185   4.421   0.547   7.648 -0.7489 -1.4386 -1.3117
 1850TIP3    H227186   4.525   0.446   7.606  0.5546 -1.7085  2.1925
 1851TIP3   OH227187   3.579   1.210   7.424  0.0605  0.2537  0.0015
 1851TIP3    H127188   3.556   1.302   7.435 -0.0012  0.1734  0.5797
 1851TIP3    H227189   3.502   1.162   7.455  0.6338 -0.0041  1.0653
 1852TIP3   OH227190   0.154   6.688   1.616  0.4546 -0.2803  0.4505
 1852TIP3    H127191   0.132   6.781   1.613 -0.0769 -0.4162 -0.0756
 1852TIP3    H227192   0.166   6.669   1.709  1.5383  0.5303  0.4964
 1853TIP3   OH227193   0.566   0.455   0.215  0.2857  0.1277  0.4219
 1853TIP3    H127194   0.521   0.406   0.284  0.9900  0.9291  1.4823
 1853TIP3    H227195   0.544   0.546   0.231  1.5618  0.4524  0.4242
 1854TIP3   OH227196   6.993   0.843   6.727  0.0419  0.2150  0.2913
 1854TIP3    H127197   6.920   0.857   6.668  0.4490 -0.2658 -0.3321
 1854TIP3    H227198   7.061   0.803   6.673  1.3759  2.0850  0.4571
 1855TIP3   OH227199   3.732   4.739   2.338  0.0143  0.0187 -0.1713
 1855TIP3    H127200   3.762   4.655   2.302  0.4855 -0.1820  0.6504
 1855TIP3    H227201   3.764   4.805   2.276 -0.2285 -0.3952 -0.7437
 1856TIP3   OH227202   4.243   4.900   6.427 -0.2057 -0.1099  0.3997
 1856TIP3    H127203   4.313   4.961   6.446 -0.2332 -0.1207  0.5373
 1856TIP3    H227204   4.174   4.953   6.387  0.6789 -0.4305 -1.6345
 1857TIP3   OH227205   1.571   1.602   0.232  0.0582 -0.1269 -0.0308
 1857TIP3    H127206   1.586   1.510   0.212  0.2701 -0.0010 -0.4676
 1857TIP3    H227207   1.476   1.610   0.241  0.0272 -0.3560 -0.1526
 1858TIP3   OH227208   2.411   0.071   1.387  0.7522 -0.2560 -0.1050
 1858TIP3    H127209   2.366   0.155   1.393  1.2062 -0.0877  1.3549
 1858TIP3    H227210   2.342   0.006   1.377  0.3601  0.2228 -0.5325
 1859TIP3   OH227211   2.220   5.373   1.544 -0.3628 -0.4093 -0.2590
 1859TIP3    H127212   2.218   5.414   1.457 -1.3558 -0.9531 -0.5103
 1859TIP3    H227213   2.313   5.356   1.560 -0.3265 -3.2421 -2.6424
 1860TIP3   OH227214   4.060   4.671   2.453  0.1056 -0.0529 -0.2187
 1860TIP3    H127215   4.110   4.701   2.529 -0.0451  1.4422 -0.6665
 1860TIP3    H227216   3.985   4.625   2.490  0.8768 -0.7580  0.4963
 1861TIP3   OH227217   3.405   1.018   7.485  0.4148 -0.1646 -0.0419
 1861TIP3    H127218   3.413   0.961   7.408  0.5062 -0.6527  0.3243
 1861TIP3    H227219   3.365   0.962   7.552  1.3885 -0.0927  0.6228
 1862TIP3   OH227220   0.535   6.324   0.614 -0.7103  0.0993  0.2581
 1862TIP3    H127221   0.623   6.313   0.577  0.5259  2.2036  2.2878
 1862TIP3    H227222   0.515   6.416   0.599 -2.5151 -0.3088  0.0110
 1863TIP3   OH227223   7.025   3.129   7.942 -0.4837 -0.3576  0.3175
 1863TIP3    H127224   7.011   3.112   7.848 -2.2228  1.0954  0.2682
 1863TIP3    H227225   7.114   3.164   7.946 -0.4233 -0.3239 -0.8166
 1864TIP3   OH227226   1.317   6.573   7.817  0.3948  0.5086 -0.1788
 1864TIP3    H127227   1.328   6.516   7.741  0.9099  0.6648 -0.2317
 1864TIP3    H227228   1.224   6.595   7.818 -0.1964 -1.7709  0.9038
 1865TIP3   OH227229   5.635   3.440   1.121 -0.6885  0.2587  0.5144
 1865TIP3    H127230   5.555   3.404   1.160 -0.4475 -0.2916  0.5075
 1865TIP3    H227231   5.704   3.381   1.151 -0.4508  0.0426 -0.4417
 1866TIP3   OH227232   5.352   6.071   0.014 -0.5059  0.0764  0.2634
 1866TIP3    H127233   5.302   6.148  -0.014 -1.3527 -0.5327  0.0611
 1866TIP3    H227234   5.348   6.074   0.110 -1.5318 -0.3304  0.2501
 1867TIP3   OH227235   1.804   3.478   0.584  0.6180 -0.2142 -0.0916
 1867TIP3    H127236   1.844   3.413   0.641  0.1519 -2.0271 -1.6997
 1867TIP3    H227237   1.843   3.460   0.498  0.3344  1.5479 -0.6096
 1868TIP3   OH227238   6.317   3.722   0.425  0.0260  0.0765 -0.4811
 1868TIP3    H127239   6.394   3.675   0.459  0.3014  0.9712  0.1837
 1868TIP3    H227240   6.294   3.676   0.345 -0.1459 -1.6337  0.4919
 1869TIP3   OH227241   1.972   6.556   2.080  0.3529  0.0688 -0.0796
 1869TIP3    H127242   2.015   6.471   2.088 -0.1725 -0.0743  1.5721
 1869TIP3    H227243   1.950   6.581   2.170 -0.9910  1.1813 -0.6706
 1870TIP3   OH227244   3.326   1.780   6.830  0.4639 -0.1540 -0.9811
 1870TIP3    H127245   3.298   1.827   6.752  2.1801  1.1329 -0.8749
 1870TIP3    H227246   3.284   1.694   6.823  0.4204  0.0033 -3.2000
 1871TIP3   OH227247   1.854   6.833   1.692  0.7178  0.2922  0.1301
 1871TIP3    H127248   1.784   6.873   1.640 -0.1727  0.0691  1.1216
 1871TIP3    H227249   1.935   6.866   1.653  0.0453  3.1723  0.9277
 1872TIP3   OH227250   1.367   3.496   7.820  0.3128 -0.4956 -0.3321
 1872TIP3    H127251   1.390   3.466   7.732  0.7928  0.2331 -0.4589
 1872TIP3    H227252   1.272   3.485   7.824  0.2194 -0.0784 -1.1176
 1873TIP3   OH227253   6.482   3.126   0.853  0.1199 -0.1000  0.1403
 1873TIP3    H127254   6.475   3.151   0.761  0.6445  0.0587  0.1414
 1873TIP3    H227255   6.569   3.155   0.880 -0.1987  0.2666  0.8137
 1874TIP3   OH227256   2.626   0.157   1.795 -0.1403  0.3134 -0.1738
 1874TIP3    H127257   2.703   0.131   1.745 -0.1667  0.4118 -0.2664
 1874TIP3    H227258   2.661   0.180   1.882 -0.1974 -0.6678  0.1289
 1875TIP3   OH227259   1.827   0.157   1.672  0.4003  0.2438 -0.2834
 1875TIP3    H127260   1.907   0.146   1.621 -0.6569  0.5176 -2.1042
 1875TIP3    H227261   1.777   0.223   1.624 -0.0947  1.5361  1.8891
 1876TIP3   OH227262   2.458   5.079   1.232  0.5677  0.1847 -0.1481
 1876TIP3    H127263   2.364   5.085   1.249  0.3508 -0.0802 -1.1660
 1876TIP3    H227264   2.473   4.987   1.215  1.1026  0.1602  0.4271
 1877TIP3   OH227265   3.491   0.076   6.888  0.3659 -0.0189  0.0206
 1877TIP3    H127266   3.410   0.085   6.939  0.1592 -0.3631 -0.2468
 1877TIP3    H227267   3.540   0.156   6.907 -1.1908  1.4855 -1.8916
 1878TIP3   OH227268   3.782   6.853   0.193  0.5953  0.0680  0.2092
 1878TIP3    H127269   3.782   6.887   0.104 -0.6207 -0.3131  0.0430
 1878TIP3    H227270   3.697   6.810   0.202  1.5873 -1.8959  0.7955
 1879TIP3   OH227271   6.893   3.860   0.773  0.2021  0.4745 -0.2541
 1879TIP3    H127272   6.829   3.930   0.782  0.5849  0.6834  1.0594
 1879TIP3    H227273   6.927   3.847   0.862  1.0009 -0.5539 -0.6890
 1880TIP3   OH227274   0.094   4.460   1.599 -0.3104  0.5927 -1.1502
 1880TIP3    H127275   0.060   4.415   1.677 -0.9045 -0.3830 -1.9374
 1880TIP3    H227276   0.150   4.529   1.634  2.2100 -1.8936  0.1616
 1881TIP3   OH227277   3.976   5.148   2.088 -0.3081  0.5112  0.0715
 1881TIP3    H127278   3.917   5.222   2.101  1.4945  1.8391  1.2419
 1881TIP3    H227279   4.017   5.164   2.003 -0.6820  0.2866 -0.1520
 1882TIP3   OH227280   3.792   5.393   2.407 -0.3762  0.2339 -0.0517
 1882TIP3    H127281   3.837   5.462   2.457  1.6784 -0.4306 -0.8898
 1882TIP3    H227282   3.753   5.337   2.474 -0.3043  1.0393  0.6973
 1883TIP3   OH227283   2.231   1.574   6.324 -0.9111 -0.0385 -0.2132
 1883TIP3    H127284   2.279   1.523   6.259 -3.0530 -1.7496 -0.5482
 1883TIP3    H227285   2.249   1.665   6.301  0.7665 -0.6091 -1.3340
 1884TIP3   OH227286   3.627   6.998   0.980 -0.5556  0.0618  0.4055
 1884TIP3    H127287   3.578   6.920   0.953  1.2469 -1.4344  1.2216
 1884TIP3    H227288   3.562   7.068   0.981 -2.2062 -1.3740 -0.5435
 1885TIP3   OH227289   4.260   2.955   7.794 -0.2102  0.3414 -0.5231
 1885TIP3    H127290   4.262   2.913   7.708 -1.7685  0.5113 -0.6694
 1885TIP3    H227291   4.238   2.884   7.855  2.1090 -0.0489 -0.0360
 1886TIP3   OH227292   3.429   0.689   1.222  0.5432 -0.1585  0.4850
 1886TIP3    H127293   3.494   0.747   1.183  0.2034  0.8148  1.3189
 1886TIP3    H227294   3.436   0.705   1.316  0.4420 -1.4873  0.7433
 1887TIP3   OH227295   0.247   0.097   0.364  0.4608 -0.8571  0.1329
 1887TIP3    H127296   0.218   0.086   0.454  1.0753 -0.6781  0.3573
 1887TIP3    H227297   0.168   0.122   0.316  0.4124  0.5768  0.9033
 1888TIP3   OH227298   5.545   3.482   1.798  0.1881 -0.4143 -0.4004
 1888TIP3    H127299   5.454   3.469   1.824  0.1890 -0.8864 -0.6335
 1888TIP3    H227300   5.595   3.427   1.858  0.2426 -0.9592 -0.9501
 1889TIP3   OH227301   2.373   4.645   7.132 -0.2024  0.0577  0.0742
 1889TIP3    H127302   2.449   4.698   7.155  0.2944 -1.0413  1.0834
 1889TIP3    H227303   2.355   4.593   7.210 -2.3275  0.6502  0.0456
 1890TIP3   OH227304   7.059   6.908   7.650  0.3148  0.4555 -0.4601
 1890TIP3    H127305   7.033   6.883   7.561 -0.7121  1.6355 -0.5257
 1890TIP3    H227306   7.082   6.826   7.693 -0.6064 -0.3005 -1.3741
 1891TIP3   OH227307   0.309   3.580   0.246  0.3377 -0.0345  0.2953
 1891TIP3    H127308   0.260   3.498   0.253  1.2476 -0.5172  1.7894
 1891TIP3    H227309   0.244   3.649   0.259 -0.1619 -0.6121  0.9546
 1892TIP3   OH227310   0.770   1.494   1.072 -0.5150  0.3146 -0.5530
 1892TIP3    H127311   0.815   1.572   1.040  0.6985 -0.0463  0.1984
 1892TIP3    H227312   0.798   1.424   1.013 -1.2940  0.3761 -0.9944
 1893TIP3   OH227313   3.432   1.247   1.532  0.4128 -0.8436  0.1324
 1893TIP3    H127314   3.462   1.156   1.537 -0.0547 -1.0909 -1.1370
 1893TIP3    H227315   3.467   1.288   1.611  0.2047 -2.2495  1.0013
 1894TIP3   OH227316   4.520   3.171   2.218  0.4509 -0.3996  0.3759
 1894TIP3    H127317   4.614   3.168   2.235  0.6275 -0.1866 -0.5198
 1894TIP3    H227318   4.481   3.188   2.303  1.1906 -0.9936  0.8465
 1895TIP3   OH227319   4.409   5.194   1.164  0.1383  0.5689 -0.1342
 1895TIP3    H127320   4.350   5.124   1.139  0.1415  0.6130 -0.2646
 1895TIP3    H227321   4.457   5.215   1.084 -0.3415  1.1853 -0.2663
 1896TIP3   OH227322   6.335   5.377   1.766 -0.0239  0.1115 -0.2016
 1896TIP3    H127323   6.296   5.300   1.806 -1.4567  0.0037 -1.6952
 1896TIP3    H227324   6.423   5.350   1.741 -0.3107 -0.8609 -0.1888
 1897TIP3   OH227325   2.920   1.055   1.601 -0.0454  0.5570  0.8322
 1897TIP3    H127326   2.930   0.962   1.580 -1.0756 -0.0725  2.9626
 1897TIP3    H227327   2.841   1.082   1.555 -0.7965 -0.1233  1.6993
 1898TIP3   OH227328   3.341   4.926   7.730  0.1262 -0.3513  0.7906
 1898TIP3    H127329   3.347   4.831   7.735 -1.3310 -0.4215  1.8454
 1898TIP3    H227330   3.429   4.957   7.748  0.7941 -1.5047 -0.3039
 1899TIP3   OH227331   0.443   5.284   8.173  0.1952 -0.3463 -1.0724
 1899TIP3    H127332   0.476   5.348   8.111  0.4816  0.1998 -0.3745
 1899TIP3    H227333   0.486   5.306   8.256 -1.3181 -0.1024 -0.3216
 1900TIP3   OH227334   6.342   3.802   1.921  0.3235 -0.5583 -0.0689
 1900TIP3    H127335   6.290   3.882   1.932  0.5396  0.0025 -2.5695
 1900TIP3    H227336   6.283   3.742   1.875  0.9927 -0.9088 -0.4833
 1901TIP3   OH227337   0.606   3.630   1.028  0.0175 -0.0612 -0.1659
 1901TIP3    H127338   0.685   3.669   1.068 -0.5002  0.6734  0.1691
 1901TIP3    H227339   0.638   3.551   0.984  0.8040 -0.2307  0.6727
 1902TIP3   OH227340   5.725   6.917   7.240  0.2118  0.0225  0.5637
 1902TIP3    H127341   5.708   6.883   7.152  0.8187 -2.1685  1.2284
 1902TIP3    H227342   5.665   6.869   7.297 -1.6651  2.8716  1.2073
 1903TIP3   OH227343   3.510   4.635   1.513  0.1461 -0.2514 -0.0177
 1903TIP3    H127344   3.495   4.545   1.483  3.0903 -0.7790 -0.2317
 1903TIP3    H227345   3.570   4.625   1.587 -1.8016  1.4298  1.9154
 1904TIP3   OH227346   0.254   2.466   7.925  0.1112  0.5238 -0.9751
 1904TIP3    H127347   0.297   2.541   7.964 -0.8538  0.9284 -0.6570
 1904TIP3    H227348   0.322   2.424   7.871  1.0576  0.7805 -0.0150
 1905TIP3   OH227349   5.358   1.239   1.627  0.0723 -0.2263  0.3016
 1905TIP3    H127350   5.301   1.316   1.632  0.4512  0.2025 -1.4082
 1905TIP3    H227351   5.381   1.221   1.718 -0.6602  1.2038  0.8079
 1906TIP3   OH227352   4.805   6.950   6.643  0.2580  0.5418  0.8998
 1906TIP3    H127353   4.818   6.982   6.554  0.2787 -1.3154  0.1736
 1906TIP3    H227354   4.875   6.990   6.694 -0.2517  2.2861  0.2872
 1907TIP3   OH227355   6.431   5.574   0.162  0.3989 -0.4779  0.8512
 1907TIP3    H127356   6.464   5.662   0.180 -2.2376  0.6666  0.5280
 1907TIP3    H227357   6.432   5.531   0.248  1.0767  0.0999  1.1443
 1908TIP3   OH227358   5.902   0.985   8.162  0.7423 -0.5868  0.1819
 1908TIP3    H127359   5.841   1.009   8.092 -0.0536  1.9699  1.6331
 1908TIP3    H227360   5.986   1.021   8.133  0.3005  0.9589  0.7160
 1909TIP3   OH227361   0.924   0.865   7.209  0.1477 -0.2414  0.2389
 1909TIP3    H127362   0.902   0.778   7.176  0.6891 -1.1069  2.0077
 1909TIP3    H227363   0.965   0.910   7.136 -2.0945 -0.6756 -1.3782
 1910TIP3   OH227364   2.170   4.726   1.108 -0.5830  0.0013  0.0398
 1910TIP3    H127365   2.230   4.693   1.175 -1.6564  1.9556  2.0912
 1910TIP3    H227366   2.089   4.744   1.156 -1.4255  1.3761 -1.8067
 1911TIP3   OH227367   4.651   7.047   0.267 -0.6165  0.5776  0.3277
 1911TIP3    H127368   4.634   6.967   0.317  0.2912  1.6521  2.5161
 1911TIP3    H227369   4.738   7.035   0.231 -0.8288  0.2354 -0.0722
 1912TIP3   OH227370   0.338   1.405   2.142  0.4354  0.3252  0.3303
 1912TIP3    H127371   0.297   1.332   2.188  0.2555  0.2157  0.0005
 1912TIP3    H227372   0.416   1.426   2.194  0.1762  0.2780  0.7428
 1913TIP3   OH227373   4.825   6.127   6.870 -1.0279  0.2933  0.3355
 1913TIP3    H127374   4.772   6.203   6.848  0.2766  1.8172  2.1430
 1913TIP3    H227375   4.870   6.105   6.788 -0.7950  1.9989 -0.0227
 1914TIP3   OH227376   3.862   1.558   0.418  0.1023 -0.2031 -0.7886
 1914TIP3    H127377   3.838   1.496   0.349  0.0533  1.3814 -2.2871
 1914TIP3    H227378   3.778   1.594   0.447  0.2073  0.3388 -1.1279
 1915TIP3   OH227379   1.002   1.968   1.633 -0.3611  0.0119  0.3333
 1915TIP3    H127380   0.996   2.038   1.698 -0.5556  0.1254  0.1946
 1915TIP3    H227381   0.931   1.908   1.656  1.9354 -2.0518  2.6747
 1916TIP3   OH227382   3.759   6.898   7.052  0.1354 -0.0033 -0.0812
 1916TIP3    H127383   3.825   6.962   7.077  0.2705 -0.4750  0.8352
 1916TIP3    H227384   3.809   6.819   7.030 -0.1248 -0.5942  1.3326
 1917TIP3   OH227385   3.033   4.315   7.464 -0.3789  0.0361  0.1445
 1917TIP3    H127386   2.972   4.326   7.538 -1.7378  3.4071 -1.2579
 1917TIP3    H227387   3.004   4.235   7.421 -0.8890 -0.8625  2.0595
 1918TIP3   OH227388   0.978   0.012   7.993 -0.2925  0.0924 -0.2635
 1918TIP3    H127389   0.925  -0.068   7.985  0.1551 -0.2567  0.1714
 1918TIP3    H227390   0.924   0.081   7.956 -1.3787 -0.1012  0.9035
 1919TIP3   OH227391   1.864   3.759   7.261  0.5374  0.2074 -0.2885
 1919TIP3    H127392   1.795   3.810   7.304  0.7853 -0.9727  1.6388
 1919TIP3    H227393   1.831   3.669   7.262  0.7008  0.0797 -2.3805
 1920TIP3   OH227394   2.458   3.287   7.379 -0.3538 -0.0989 -0.5806
 1920TIP3    H127395   2.394   3.356   7.391 -0.6550 -0.5987  0.9780
 1920TIP3    H227396   2.504   3.282   7.463  0.4955 -0.9696 -1.0693
 1921TIP3   OH227397   2.647   7.085   1.218  0.1325  0.7690 -0.4929
 1921TIP3    H127398   2.727   7.076   1.270  1.8878  2.6671 -2.6521
 1921TIP3    H227399   2.585   7.129   1.277  0.7621 -0.3841  1.1039
 1922TIP3   OH227400   0.955   2.178   2.199 -0.1139  0.3163  0.1850
 1922TIP3    H127401   0.976   2.254   2.144  1.3104 -0.0674  0.1583
 1922TIP3    H227402   0.904   2.215   2.272 -0.4401  1.1090 -0.4196
 1923TIP3   OH227403   4.326   2.797   2.066  0.4480  0.1233  0.8423
 1923TIP3    H127404   4.249   2.834   2.023 -0.1959 -0.3556  1.5459
 1923TIP3    H227405   4.399   2.851   2.036 -0.1883  0.7087  0.3182
 1924TIP3   OH227406   4.434   4.049   3.015  0.3727  0.2673 -0.0549
 1924TIP3    H127407   4.396   3.966   2.986 -1.0338  1.6699 -2.6299
 1924TIP3    H227408   4.358   4.101   3.041  1.0721  1.2691  0.0090
 1925TIP3   OH227409   0.532   1.704   1.587  0.3053 -0.5764  0.5379
 1925TIP3    H127410   0.514   1.798   1.583 -1.2496 -0.8486  0.4248
 1925TIP3    H227411   0.453   1.663   1.551  0.5799 -1.9572  1.4355
 1926TIP3   OH227412   3.226   1.339   0.156 -0.3677 -0.3734 -0.3729
 1926TIP3    H127413   3.299   1.352   0.217  0.7868  0.9391 -1.9214
 1926TIP3    H227414   3.181   1.261   0.188  1.6988 -1.2227  0.6948
 1927TIP3   OH227415   3.608   2.213   0.037 -0.0080 -0.0039 -0.2400
 1927TIP3    H127416   3.595   2.124   0.071  0.0188 -0.1979 -0.7380
 1927TIP3    H227417   3.688   2.243   0.081 -0.3276 -0.0119  0.3594
 1928TIP3   OH227418   6.304   2.430   7.638 -0.0239 -0.2750  0.2277
 1928TIP3    H127419   6.356   2.483   7.578  0.4283  2.2426  2.6089
 1928TIP3    H227420   6.230   2.400   7.586  0.7337  1.1103 -1.7627
 1929TIP3   OH227421   0.935   1.719   2.103 -1.3049  0.3903 -0.3255
 1929TIP3    H127422   0.984   1.771   2.167 -2.4300  1.4969 -0.3298
 1929TIP3    H227423   1.000   1.694   2.037  0.0548 -1.3332  1.5025
 1930TIP3   OH227424   6.167   4.097   7.606 -0.5873 -0.2291  0.8942
 1930TIP3    H127425   6.162   4.033   7.677 -1.4316 -1.5631 -0.3354
 1930TIP3    H227426   6.148   4.048   7.527 -2.3892  1.7490  0.0040
 1931TIP3   OH227427   7.060   4.229   1.253  0.3062  0.1197  0.0689
 1931TIP3    H127428   7.035   4.282   1.178  1.0852  0.0795 -0.2202
 1931TIP3    H227429   7.112   4.288   1.308  0.4899 -0.1123  0.1435
 1932TIP3   OH227430   6.928   3.233   1.901  0.0331 -0.4124  0.3998
 1932TIP3    H127431   6.901   3.257   1.813  0.0543  1.4406  0.8376
 1932TIP3    H227432   7.023   3.223   1.895 -0.0647 -1.1421  0.0428
 1933TIP3   OH227433   4.598   4.291   7.868 -0.1930  0.7002 -0.9733
 1933TIP3    H127434   4.529   4.252   7.814 -2.0972  1.0139  1.0891
 1933TIP3    H227435   4.635   4.360   7.813 -1.4818  0.4971 -2.1654
 1934TIP3   OH227436   3.061   1.586   0.078  0.0158  0.6351 -0.2681
 1934TIP3    H127437   3.104   1.559   0.159  1.8824 -0.3047 -1.5026
 1934TIP3    H227438   3.030   1.505   0.038 -1.1291  1.1173 -0.4119
 1935TIP3   OH227439   5.326   0.463   0.876 -0.1735 -0.6976  0.4269
 1935TIP3    H127440   5.358   0.466   0.786  1.2220 -1.1954  0.8921
 1935TIP3    H227441   5.238   0.501   0.871  0.9456  1.9816 -0.6602
 1936TIP3   OH227442   5.365   4.072   2.023  0.1100 -0.5514  0.2395
 1936TIP3    H127443   5.347   4.100   1.933  0.8673 -1.0166 -0.0633
 1936TIP3    H227444   5.344   3.979   2.024 -1.4557 -0.2202  0.9879
 1937TIP3   OH227445   4.650   0.304   0.569 -0.2833  0.3752 -0.1806
 1937TIP3    H127446   4.659   0.374   0.634 -0.9056  0.4685 -0.1858
 1937TIP3    H227447   4.618   0.229   0.619 -0.5316  0.3776 -0.3290
 1938TIP3   OH227448   3.489   0.913   8.091 -0.5315  0.4002 -0.2042
 1938TIP3    H127449   3.469   0.972   8.164  1.3454  0.7671  0.0927
 1938TIP3    H227450   3.560   0.958   8.044 -0.0772 -0.9352 -0.8419
 1939TIP3   OH227451   3.499   2.036   1.323  0.2968  0.0592  0.2750
 1939TIP3    H127452   3.550   1.956   1.316 -0.1141 -0.2359  0.5770
 1939TIP3    H227453   3.433   2.029   1.254 -0.8922 -0.7355  1.4276
 1940TIP3   OH227454   2.988   5.672   0.854 -0.3621 -0.4082 -0.0266
 1940TIP3    H127455   2.916   5.719   0.812  0.5958  0.1038 -1.1872
 1940TIP3    H227456   3.037   5.740   0.900 -0.6007 -0.7491  0.7429
 1941TIP3   OH227457   5.224   6.275   0.244 -0.2010 -0.0307  0.0586
 1941TIP3    H127458   5.277   6.338   0.196 -0.4019 -0.9101 -1.3877
 1941TIP3    H227459   5.260   6.275   0.332  0.3272  1.4793 -0.1296
 1942TIP3   OH227460   4.784   3.074   2.334 -0.0843 -0.5883  0.7202
 1942TIP3    H127461   4.866   3.035   2.366 -0.4788 -1.7649  0.3427
 1942TIP3    H227462   4.716   3.010   2.357 -0.7058 -0.2937 -0.2406
 1943TIP3   OH227463   2.378   0.932   6.520  0.0956  0.5345  0.8391
 1943TIP3    H127464   2.285   0.920   6.500  0.5493  0.1923 -1.2423
 1943TIP3    H227465   2.410   0.844   6.541  0.2852  0.3514 -0.1402
 1944TIP3   OH227466   6.128   5.151   6.952 -0.0602 -0.1291  0.5603
 1944TIP3    H127467   6.163   5.070   6.915 -1.6860 -0.5793 -0.0623
 1944TIP3    H227468   6.038   5.129   6.977  0.1411  0.9096  2.3666
 1945TIP3   OH227469   5.700   4.710   0.169 -0.2891  0.2830 -0.2335
 1945TIP3    H127470   5.707   4.783   0.230  1.9515 -0.8040  0.9272
 1945TIP3    H227471   5.790   4.691   0.143 -1.1148  1.1465 -4.5597
 1946TIP3   OH227472   3.542   3.294   0.717 -0.8735 -0.3548 -0.0163
 1946TIP3    H127473   3.624   3.279   0.670 -0.6588 -0.9157  0.5286
 1946TIP3    H227474   3.502   3.369   0.672 -0.7177 -0.9280 -1.1419
 1947TIP3   OH227475   6.794   0.104   7.182  0.1431 -0.3178  0.5686
 1947TIP3    H127476   6.742   0.052   7.243 -1.8446  0.5039 -0.3298
 1947TIP3    H227477   6.749   0.188   7.177  1.1760  0.2001 -0.7997
 1948TIP3   OH227478   3.451   4.976   2.439  0.3161  0.4373  0.2175
 1948TIP3    H127479   3.451   5.064   2.477 -0.7633  0.5533 -0.0182
 1948TIP3    H227480   3.397   4.983   2.361 -1.3825 -0.8353  1.2079
 1949TIP3   OH227481   7.078   2.852   0.281 -0.0188 -0.4485 -0.7827
 1949TIP3    H127482   6.999   2.904   0.298  1.1105  1.3912 -0.9084
 1949TIP3    H227483   7.056   2.800   0.204 -1.1113  0.0275 -0.8195
 1950TIP3   OH227484   1.402   1.947   7.585  0.0376  0.0217  0.0322
 1950TIP3    H127485   1.363   2.008   7.522  1.0343 -0.1666 -0.7992
 1950TIP3    H227486   1.492   1.978   7.596  0.2536 -0.7003  0.3857
 1951TIP3   OH227487   6.430   4.177   1.551 -0.1693  0.0012  0.1870
 1951TIP3    H127488   6.363   4.220   1.498 -1.5098 -0.2180  1.6345
 1951TIP3    H227489   6.431   4.087   1.519 -1.0206 -0.1474  0.5606
 1952TIP3   OH227490   2.277   0.534   6.450 -0.4343  0.4356  0.4117
 1952TIP3    H127491   2.254   0.449   6.414 -0.7041  0.8262 -0.3458
 1952TIP3    H227492   2.205   0.592   6.424  1.4408  1.7528 -2.2564
 1953TIP3   OH227493   4.687   6.032   7.508 -0.6593  0.3063 -0.0976
 1953TIP3    H127494   4.747   6.041   7.582 -0.2409  0.6539 -0.4798
 1953TIP3    H227495   4.690   6.116   7.464 -0.5956 -0.0338 -0.7540
 1954TIP3   OH227496   1.912   0.303   7.567  0.5715  0.2540  0.5171
 1954TIP3    H127497   1.872   0.282   7.482 -2.7368  1.6098  1.5456
 1954TIP3    H227498   1.965   0.381   7.550 -1.4296  1.5784 -0.1291
 1955TIP3   OH227499   2.673   3.288   6.450  0.3459 -0.2764  0.2275
 1955TIP3    H127500   2.720   3.218   6.405  0.9706 -0.0678  0.5338
 1955TIP3    H227501   2.611   3.321   6.385  1.2302  0.0264 -0.4939
 1956TIP3   OH227502   1.724   3.688   7.529  0.2876 -0.0415  0.6666
 1956TIP3    H127503   1.652   3.749   7.513 -0.6862 -1.3652 -0.2413
 1956TIP3    H227504   1.682   3.602   7.533  1.7164 -0.7534  1.0645
 1957TIP3   OH227505   1.105   1.467   7.351 -0.2671 -0.1167  0.1704
 1957TIP3    H127506   1.072   1.377   7.356 -1.4313  0.3587  2.1615
 1957TIP3    H227507   1.162   1.475   7.427  0.3577  0.6499 -0.3726
 1958TIP3   OH227508   1.929   0.795   7.775  0.0269 -0.1666  0.6731
 1958TIP3    H127509   1.894   0.880   7.804  2.7728  1.2780  0.1527
 1958TIP3    H227510   1.921   0.798   7.680  0.5369 -0.2429  0.6214
 1959TIP3   OH227511   4.858   0.918   7.273 -0.1821 -0.8056  0.3958
 1959TIP3    H127512   4.878   1.008   7.248 -0.2646 -0.4644  1.5200
 1959TIP3    H227513   4.878   0.867   7.195  0.0109  0.1627 -0.2084
 1960TIP3   OH227514   1.090   0.519   0.312  0.2584  0.4777 -0.0655
 1960TIP3    H127515   1.102   0.611   0.337  1.2908 -0.3330  2.8005
 1960TIP3    H227516   1.136   0.511   0.228 -1.9899  3.0379 -1.7449
 1961TIP3   OH227517   2.155   2.987   0.645  0.1838 -0.6016 -0.0539
 1961TIP3    H127518   2.220   2.941   0.592  1.2073  0.2840  0.3987
 1961TIP3    H227519   2.102   2.918   0.685 -0.4889 -1.3097 -2.0337
 1962TIP3   OH227520   0.276   2.947   0.415 -0.5006 -0.3182 -0.3311
 1962TIP3    H127521   0.197   2.902   0.443 -0.6626  0.2937  0.2194
 1962TIP3    H227522   0.263   3.038   0.441  0.2189 -0.1312 -0.5846
 1963TIP3   OH227523   4.774   4.965   2.729  0.7827 -0.4914  0.6144
 1963TIP3    H127524   4.717   4.894   2.758 -0.3891 -0.2637 -1.0193
 1963TIP3    H227525   4.760   4.972   2.635  0.5421  2.1432  0.7498
 1964TIP3   OH227526   1.079   4.865   2.049  0.0387  0.0754 -0.3798
 1964TIP3    H127527   1.125   4.794   2.094 -1.9711 -1.0267  0.0868
 1964TIP3    H227528   1.076   4.838   1.957 -3.5833 -2.3173  0.2212
 1965TIP3   OH227529   5.000   3.933   1.704  0.8707 -0.8632  0.0965
 1965TIP3    H127530   4.973   3.846   1.675  1.8555 -1.1831  0.0984
 1965TIP3    H227531   4.918   3.981   1.714  0.3637 -1.4965 -0.8121
 1966TIP3   OH227532   0.664   2.701   0.067 -0.4820  0.8189  0.2754
 1966TIP3    H127533   0.643   2.631   0.128 -2.1570  1.2819  0.2867
 1966TIP3    H227534   0.601   2.770   0.088 -1.4981  0.7736 -2.3032
 1967TIP3   OH227535   2.680   6.815   6.971 -0.3367 -0.5956  0.0473
 1967TIP3    H127536   2.695   6.876   6.898 -0.9922 -1.4924 -0.8587
 1967TIP3    H227537   2.744   6.841   7.037  1.3029 -0.7019 -1.4355
 1968TIP3   OH227538   6.501   6.725   1.009 -0.1522 -0.5993 -0.3681
 1968TIP3    H127539   6.482   6.778   1.086  1.0480  2.5203 -2.0503
 1968TIP3    H227540   6.465   6.775   0.936  1.7276 -1.7244 -2.1712
 1969TIP3   OH227541   1.888   3.867   2.137 -0.4101 -0.0538  0.2849
 1969TIP3    H127542   1.924   3.779   2.146 -1.5063 -0.5809 -0.2855
 1969TIP3    H227543   1.955   3.925   2.173  0.9380 -1.0021 -0.6367
 1970TIP3   OH227544   2.761   0.479   8.154  0.0914  0.2506 -0.5007
 1970TIP3    H127545   2.738   0.538   8.083 -2.2727  0.8569  0.6601
 1970TIP3    H227546   2.698   0.407   8.148  0.8227 -0.4732  0.0863
 1971TIP3   OH227547   2.416   0.249   2.006 -0.2422  0.1142 -0.0448
 1971TIP3    H127548   2.442   0.306   2.078  0.1550  0.4796 -0.4639
 1971TIP3    H227549   2.349   0.191   2.043  0.0438  0.2158  0.6376
 1972TIP3   OH227550   0.260   0.681   1.356  0.1243 -0.4373  0.0283
 1972TIP3    H127551   0.288   0.591   1.345  0.0491 -0.2486 -2.0946
 1972TIP3    H227552   0.324   0.720   1.415  0.1974 -1.8305  0.9034
 1973TIP3   OH227553   2.376   6.521   2.894 -0.3567  0.1493 -0.3361
 1973TIP3    H127554   2.439   6.543   2.826 -2.7383 -0.0655 -2.7442
 1973TIP3    H227555   2.345   6.606   2.926 -0.7290  0.2591 -0.9866
 1974TIP3   OH227556   1.783   3.292   6.728 -0.1527 -0.2047 -0.0353
 1974TIP3    H127557   1.811   3.257   6.813 -0.4710  1.3018  0.7182
 1974TIP3    H227558   1.845   3.362   6.709 -0.4183 -0.1677 -0.7906
 1975TIP3   OH227559   2.416   7.064   0.689  0.2769  0.1938 -0.5254
 1975TIP3    H127560   2.355   7.040   0.619 -0.1718 -1.4574  0.3795
 1975TIP3    H227561   2.473   6.988   0.699  0.8507  0.7160  0.3607
 1976TIP3   OH227562   0.120   6.989   7.199 -0.5257 -0.3331 -0.0926
 1976TIP3    H127563   0.104   7.079   7.228 -0.4288 -0.1902 -0.4753
 1976TIP3    H227564   0.107   6.991   7.104 -1.7928 -1.0173  0.0534
 1977TIP3   OH227565   3.864   3.788   2.181 -0.2403 -0.2996 -0.4865
 1977TIP3    H127566   3.820   3.741   2.252 -0.9982  1.4535  0.2393
 1977TIP3    H227567   3.802   3.785   2.108 -0.7312  0.4448 -0.1074
 1978TIP3   OH227568   6.245   2.741   2.406  0.2616  0.3859 -0.3898
 1978TIP3    H127569   6.290   2.784   2.479 -0.8440  0.8899  0.0109
 1978TIP3    H227570   6.155   2.774   2.411 -0.3134 -1.0802 -0.7947
 1979TIP3   OH227571   5.313   1.914   1.776 -0.1249  0.0557  0.2430
 1979TIP3    H127572   5.352   1.918   1.689 -0.1084  1.1065  0.2847
 1979TIP3    H227573   5.219   1.911   1.761 -0.1214  0.2235  0.1875
 1980TIP3   OH227574   3.771   4.887   1.479  0.3420  0.3609 -0.2961
 1980TIP3    H127575   3.827   4.952   1.522 -0.7224  1.7924 -0.9680
 1980TIP3    H227576   3.692   4.937   1.455 -2.2013 -1.9488  2.4485
 1981TIP3   OH227577   6.301   1.410   1.064  0.0007  0.4031 -0.2022
 1981TIP3    H127578   6.373   1.409   1.001  0.1459 -1.9962 -0.0874
 1981TIP3    H227579   6.224   1.386   1.013 -0.0482 -0.5965  0.3006
 1982TIP3   OH227580   4.910   5.844   7.763  0.0478  0.8076 -0.2664
 1982TIP3    H127581   4.984   5.793   7.730 -1.1603 -1.0412 -0.2777
 1982TIP3    H227582   4.923   5.848   7.857  0.3790  0.8785 -0.3125
 1983TIP3   OH227583   2.465   3.034   1.457  0.6693  0.4509 -0.2948
 1983TIP3    H127584   2.518   3.038   1.537  0.5898 -0.4028 -0.1905
 1983TIP3    H227585   2.385   3.080   1.479  0.6090  0.1349  0.1574
 1984TIP3   OH227586   5.840   4.820   0.761 -0.3317 -0.2758 -0.0201
 1984TIP3    H127587   5.914   4.839   0.703 -0.6401  0.6861 -0.1082
 1984TIP3    H227588   5.794   4.747   0.718 -0.4174  0.2624 -0.8642
 1985TIP3   OH227589   0.346   2.272   6.798  0.4386  0.4546 -0.0395
 1985TIP3    H127590   0.290   2.233   6.732 -0.6480  2.0628 -0.1394
 1985TIP3    H227591   0.328   2.366   6.791  0.1536  0.6686  2.6357
 1986TIP3   OH227592   5.530   2.384   7.583  0.6941  0.5547 -0.6329
 1986TIP3    H127593   5.523   2.341   7.669  1.0762  0.2668 -0.7400
 1986TIP3    H227594   5.606   2.342   7.542 -0.5183 -0.5879 -1.8360
 1987TIP3   OH227595   5.410   2.862   7.343  0.2410 -0.8022 -0.1577
 1987TIP3    H127596   5.493   2.818   7.363  0.2075 -0.6477  0.3147
 1987TIP3    H227597   5.436   2.935   7.285  0.5514 -0.2280  0.6834
 1988TIP3   OH227598   5.892   5.216   2.611  0.2810 -0.0076 -0.1403
 1988TIP3    H127599   5.923   5.166   2.687  0.6369  1.4834  0.7488
 1988TIP3    H227600   5.798   5.201   2.609  0.2260  0.1421  0.7781
 1989TIP3   OH227601   3.507   5.453   0.414 -0.6466 -0.0705 -0.4405
 1989TIP3    H127602   3.461   5.378   0.451  0.6281 -0.1763  1.0343
 1989TIP3    H227603   3.588   5.459   0.464 -1.2597  3.0837  0.3898
 1990TIP3   OH227604   0.420   1.445   7.573 -0.1288 -0.4928  0.1340
 1990TIP3    H127605   0.397   1.400   7.654  1.5719  0.0150  0.9716
 1990TIP3    H227606   0.393   1.536   7.588 -1.4298 -0.7366 -0.6115
 1991TIP3   OH227607   3.494   3.895   7.885  0.1218 -0.4718  0.2740
 1991TIP3    H127608   3.465   3.930   7.970  2.5731  0.1362  0.9554
 1991TIP3    H227609   3.569   3.950   7.862  1.7200 -2.8362 -0.5404
 1992TIP3   OH227610   6.948   5.072   2.419 -0.2275 -0.2469  0.6496
 1992TIP3    H127611   6.973   5.162   2.439 -2.4682  0.7195 -0.5213
 1992TIP3    H227612   7.031   5.026   2.405  0.9587  2.1447 -0.8851
 1993TIP3   OH227613   1.712   0.575   1.390  0.5657  0.0147  0.4086
 1993TIP3    H127614   1.643   0.621   1.437  1.3566 -0.1128  1.7573
 1993TIP3    H227615   1.763   0.644   1.347  1.0528  0.3356  1.4649
 1994TIP3   OH227616   0.112   1.337   8.072 -0.3897  0.4516 -0.2712
 1994TIP3    H127617   0.185   1.281   8.047 -1.1853 -0.0989 -1.4351
 1994TIP3    H227618   0.038   1.305   8.021 -1.7888  0.1866  1.7798
 1995TIP3   OH227619   5.696   4.346   0.018 -0.1620  0.4856 -0.2062
 1995TIP3    H127620   5.718   4.299   0.098  3.1707  1.0805 -0.6591
 1995TIP3    H227621   5.654   4.427   0.048  0.3988  0.3813  0.8946
 1996TIP3   OH227622   4.919   5.648   2.507  0.0678 -0.3643  0.2411
 1996TIP3    H127623   4.951   5.732   2.472 -1.8515 -0.1203 -1.0774
 1996TIP3    H227624   4.824   5.660   2.513  0.0048 -1.6432  2.3423
 1997TIP3   OH227625   6.087   0.148   6.778 -0.5797  0.0996  0.0777
 1997TIP3    H127626   6.126   0.103   6.703 -0.5174 -1.9131  1.2452
 1997TIP3    H227627   5.993   0.144   6.763 -0.5780 -0.5389  0.2474
 1998TIP3   OH227628   2.932   2.473   1.599 -0.0248  0.6357  0.1786
 1998TIP3    H127629   2.928   2.508   1.510 -0.2981  0.7684  0.2408
 1998TIP3    H227630   2.842   2.445   1.618  0.1064  0.2708  0.2790
 1999TIP3   OH227631   1.831   6.283   6.943 -0.4468 -0.4216 -1.2609
 1999TIP3    H127632   1.791   6.197   6.933 -1.1140 -0.1676 -0.8446
 1999TIP3    H227633   1.758   6.342   6.959 -0.2773  0.6478 -3.9165
 2000TIP3   OH227634   5.978   2.260   1.361 -0.0055  0.1328  0.1057
 2000TIP3    H127635   6.067   2.257   1.327 -0.3035  1.0987 -0.8261
 2000TIP3    H227636   5.973   2.343   1.408 -0.5800  0.3879 -0.3819
 2001TIP3   OH227637   5.142   6.571   6.893 -0.4284 -0.6622 -0.0090
 2001TIP3    H127638   5.151   6.666   6.894  2.0368 -0.7404 -2.5964
 2001TIP3    H227639   5.048   6.556   6.888 -0.8172  1.7361 -1.5474
 2002TIP3   OH227640   3.244   1.891   7.830 -0.0912 -0.2193 -0.5234
 2002TIP3    H127641   3.318   1.951   7.826  0.0772 -0.2636  1.2898
 2002TIP3    H227642   3.284   1.805   7.842 -0.4050 -0.3820 -0.6394
 2003TIP3   OH227643   1.281   0.132   0.387  0.1711 -0.6876  0.4466
 2003TIP3    H127644   1.227   0.140   0.308 -1.8225  0.0544  1.8131
 2003TIP3    H227645   1.248   0.053   0.430 -1.4914  0.9624  2.4165
 2004TIP3   OH227646   6.847   2.323   0.603  0.4364  0.1470  0.3094
 2004TIP3    H127647   6.932   2.364   0.587  1.3088 -1.5355  0.3530
 2004TIP3    H227648   6.857   2.233   0.570 -0.7000 -0.6474  1.9593
 2005TIP3   OH227649   4.778   1.031   1.790 -0.5026 -0.2051  0.0749
 2005TIP3    H127650   4.737   0.968   1.730 -1.0072  0.4696 -0.3060
 2005TIP3    H227651   4.774   0.989   1.876 -3.7140  0.5701  0.4224
 2006TIP3   OH227652   3.591   5.331   1.540 -0.0598 -0.2480 -0.4496
 2006TIP3    H127653   3.561   5.353   1.451  0.0204  2.1545  0.0312
 2006TIP3    H227654   3.510   5.325   1.591 -0.0634 -0.7322 -0.5139
 2007TIP3   OH227655   5.563   2.431   2.174 -0.4146  0.2707 -0.5285
 2007TIP3    H127656   5.473   2.418   2.144 -1.5750  0.5431  2.4816
 2007TIP3    H227657   5.557   2.506   2.233  1.9538  0.7076 -0.7640
 2008TIP3   OH227658   3.594   4.812   1.794 -0.2027 -0.4067 -0.3824
 2008TIP3    H127659   3.673   4.867   1.793 -0.4185  0.0660 -3.7344
 2008TIP3    H227660   3.627   4.724   1.778 -0.2491 -0.3326 -0.9228
 2009TIP3   OH227661   5.331   7.021   2.004 -0.2262 -0.1607 -0.2136
 2009TIP3    H127662   5.395   7.002   1.936 -1.3851 -2.5307 -0.7495
 2009TIP3    H227663   5.280   7.094   1.969  1.4054  0.9987 -0.2707
 2010TIP3   OH227664   4.274   3.365   7.316 -0.2305  0.1844 -0.3965
 2010TIP3    H127665   4.367   3.346   7.309 -0.3591 -0.2031 -1.0935
 2010TIP3    H227666   4.237   3.336   7.233 -0.8152  1.2556 -0.5316
 2011TIP3   OH227667   3.564   5.022   1.375  0.1095 -0.7428 -0.1298
 2011TIP3    H127668   3.598   5.111   1.382  0.5538 -0.9458  0.3855
 2011TIP3    H227669   3.471   5.030   1.394 -0.0765 -0.2274 -1.2044
 2012TIP3   OH227670   5.640   6.482   1.177 -0.7721  0.7060  0.1018
 2012TIP3    H127671   5.617   6.396   1.212 -1.9935  0.4525 -1.2326
 2012TIP3    H227672   5.594   6.544   1.233 -0.2996  0.4634  0.7606
 2013TIP3   OH227673   5.090   1.203   0.056 -1.0333  0.0630  0.3121
 2013TIP3    H127674   5.070   1.268   0.124 -1.1826  1.7914 -1.3143
 2013TIP3    H227675   5.185   1.210   0.044 -0.4129 -2.6042  2.5534
 2014TIP3   OH227676   0.741   2.271   1.917 -0.1556 -0.7022  0.2532
 2014TIP3    H127677   0.663   2.239   1.872 -1.1073  0.4254  1.0114
 2014TIP3    H227678   0.707   2.312   1.997  1.2633 -0.5810  0.8267
 2015TIP3   OH227679   0.823   6.994   2.467 -0.1528  0.2602  0.0515
 2015TIP3    H127680   0.852   7.047   2.393 -1.2685 -0.9552 -1.3226
 2015TIP3    H227681   0.904   6.956   2.502  0.2493 -0.6397 -1.7496
 2016TIP3   OH227682   3.740   3.074   7.667  0.1717 -0.0137 -0.0924
 2016TIP3    H127683   3.679   3.001   7.655  0.7780 -0.6076  0.3783
 2016TIP3    H227684   3.756   3.076   7.762  0.5370  0.4185 -0.1618
 2017TIP3   OH227685   0.381   0.743   2.392  0.0723  0.2231  0.3119
 2017TIP3    H127686   0.396   0.680   2.321  2.5688 -0.0430  0.9583
 2017TIP3    H227687   0.288   0.764   2.386 -0.0154 -0.4763 -2.4405
 2018TIP3   OH227688   3.880   2.174   0.069  0.0261  0.1313 -0.6809
 2018TIP3    H127689   3.931   2.226   0.131 -1.6162 -0.1543  1.0106
 2018TIP3    H227690   3.922   2.190  -0.015  1.6493  1.4736  0.3025
 2019TIP3   OH227691   1.151   0.037   2.463  0.1340 -0.1617 -0.8338
 2019TIP3    H127692   1.173  -0.038   2.407 -0.4359 -0.8463 -0.1760
 2019TIP3    H227693   1.102   0.096   2.405 -0.7894 -1.0375 -0.9902
 2020TIP3   OH227694   6.513   3.197   7.426  0.4588 -0.2957  0.7236
 2020TIP3    H127695   6.557   3.174   7.508 -0.3146 -2.0693  0.6793
 2020TIP3    H227696   6.513   3.117   7.375  1.4438  0.9204 -1.3132
 2021TIP3   OH227697   0.661   1.222   7.929  0.3462 -0.1770  0.3220
 2021TIP3    H127698   0.722   1.223   7.854  0.7668 -0.6218  0.6470
 2021TIP3    H227699   0.605   1.298   7.915  0.8268  0.1106 -0.1156
 2022TIP3   OH227700   1.023   0.950   6.963 -0.2776  0.3958 -0.1635
 2022TIP3    H127701   1.072   1.019   6.917  0.4581 -0.1886 -0.2904
 2022TIP3    H227702   1.086   0.879   6.971  0.2869  1.1223  3.4846
 2023TIP3   OH227703   2.743   1.090   7.207 -0.9065 -0.4516  0.0997
 2023TIP3    H127704   2.718   1.008   7.250 -2.0623 -0.1303  0.0646
 2023TIP3    H227705   2.722   1.158   7.271 -2.1608 -0.0068 -0.7321
 2024TIP3   OH227706   3.187   4.405   1.084  0.0290  0.2989  0.3337
 2024TIP3    H127707   3.231   4.411   1.169 -0.8057 -0.7784  0.8635
 2024TIP3    H227708   3.229   4.330   1.041 -2.3710 -1.9601  1.5873
 2025TIP3   OH227709   6.973   6.708   0.067  0.2908 -0.3603 -0.4963
 2025TIP3    H127710   6.923   6.629   0.050 -0.0715  0.3519 -3.2538
 2025TIP3    H227711   7.064   6.678   0.073 -0.0208 -1.1731  0.4273
 2026TIP3   OH227712   4.300   1.849   6.706 -0.2827 -0.1068  0.1605
 2026TIP3    H127713   4.282   1.941   6.727 -2.0394 -0.0184 -1.4829
 2026TIP3    H227714   4.396   1.844   6.704 -0.0790  1.1024  2.4886
 2027TIP3   OH227715   1.604   0.227   8.090 -0.3809 -0.1168  0.2804
 2027TIP3    H127716   1.567   0.140   8.106 -0.5887 -0.1066 -0.1413
 2027TIP3    H227717   1.534   0.275   8.047 -0.2367  0.2373  0.4392
 2028TIP3   OH227718   1.313   1.515   0.335  0.0720  0.7276 -0.0501
 2028TIP3    H127719   1.264   1.442   0.372 -0.9173  0.9763 -0.8450
 2028TIP3    H227720   1.276   1.528   0.248  0.6533  1.7793 -0.1578
 2029TIP3   OH227721   2.709   6.150   0.016  0.4159 -0.5203 -0.0967
 2029TIP3    H127722   2.660   6.232   0.018  1.6371  0.2748 -0.9971
 2029TIP3    H227723   2.678   6.101   0.092 -2.7473 -0.6833 -1.3576
 2030TIP3   OH227724   0.910   1.660   0.372  0.6260  0.0222 -0.1156
 2030TIP3    H127725   0.894   1.606   0.449  0.4573  1.0926  0.6285
 2030TIP3    H227726   0.829   1.710   0.360  0.8938  0.3538 -0.5786
 2031TIP3   OH227727   0.829   4.389   0.281 -0.1660 -0.1342 -0.1177
 2031TIP3    H127728   0.773   4.403   0.205  1.5732 -0.2468 -1.5026
 2031TIP3    H227729   0.826   4.472   0.329  0.2144  0.6729 -1.4086
 2032TIP3   OH227730   5.754   1.410   0.211 -0.3830 -0.4005  0.1935
 2032TIP3    H127731   5.658   1.405   0.214 -0.3503 -1.6431 -0.0178
 2032TIP3    H227732   5.782   1.384   0.299 -0.2415 -0.0469  0.2528
 2033TIP3   OH227733   1.921   5.997   1.537 -0.7147 -0.1213  0.3772
 2033TIP3    H127734   1.902   6.087   1.513  0.8558  0.2394  0.3591
 2033TIP3    H227735   1.860   5.945   1.485 -0.3560  0.8532 -1.0739
 2034TIP3   OH227736   3.479   4.355   0.246 -0.0498 -0.4347 -0.1176
 2034TIP3    H127737   3.500   4.294   0.176  0.0296 -1.0561  0.4472
 2034TIP3    H227738   3.411   4.411   0.208 -0.9059 -1.5543 -0.2915
 2035TIP3   OH227739   4.302   1.889   8.034  0.0435 -0.2289 -0.0695
 2035TIP3    H127740   4.291   1.984   8.027 -0.4947 -0.3179 -0.4904
 2035TIP3    H227741   4.253   1.854   7.960  0.6388 -0.8118 -0.1996
 2036TIP3   OH227742   2.972   0.672   0.583  0.1046 -0.1831  0.3054
 2036TIP3    H127743   2.990   0.611   0.653  1.6182  0.4661  0.5252
 2036TIP3    H227744   3.013   0.633   0.505 -1.9222 -1.1085 -0.3650
 2037TIP3   OH227745   6.799   5.230   0.363  0.0721 -0.1474 -0.0709
 2037TIP3    H127746   6.797   5.325   0.359 -0.8405 -0.1904 -0.8422
 2037TIP3    H227747   6.854   5.210   0.440  1.7551  0.9566 -0.9298
 2038TIP3   OH227748   6.428   3.893   2.256  0.3151  0.0331 -0.5934
 2038TIP3    H127749   6.451   3.814   2.304 -1.0159  0.1425  0.2761
 2038TIP3    H227750   6.504   3.950   2.265  0.6285 -0.4958  0.1901
 2039TIP3   OH227751   0.378   2.381   2.770 -0.5404  0.0807  0.1265
 2039TIP3    H127752   0.371   2.341   2.682 -3.4314  0.4301  0.0768
 2039TIP3    H227753   0.349   2.312   2.829 -1.0260  0.6238  0.5311
 2040TIP3   OH227754   6.711   2.302   7.079 -0.0713 -0.3709 -0.5346
 2040TIP3    H127755   6.729   2.314   7.172 -1.9432 -1.0631 -0.0373
 2040TIP3    H227756   6.707   2.207   7.068  0.4395 -0.3048 -1.4099
 2041TIP3   OH227757   6.692   5.362   8.028 -0.2135  0.3561 -0.3247
 2041TIP3    H127758   6.716   5.381   8.118 -0.4624  2.2607 -0.6263
 2041TIP3    H227759   6.775   5.355   7.982 -0.0980 -0.2234 -0.0403
 2042TIP3   OH227760   3.420   6.685   1.510  0.1121 -0.1673  0.4069
 2042TIP3    H127761   3.441   6.594   1.490  0.7956  0.4534 -2.0103
 2042TIP3    H227762   3.332   6.682   1.546 -0.2341 -1.7062 -0.4751
 2043TIP3   OH227763   1.255   0.491   6.176 -0.1241 -0.1394  0.0797
 2043TIP3    H127764   1.229   0.405   6.207 -1.7804  0.1223 -0.4967
 2043TIP3    H227765   1.287   0.536   6.254  1.5503 -1.5097  0.2497
 2044TIP3   OH227766   1.358   6.363   7.641 -0.0566 -0.4827  0.3489
 2044TIP3    H127767   1.404   6.321   7.568  2.4269  1.8459  0.4150
 2044TIP3    H227768   1.333   6.290   7.698  2.6732 -2.0406 -0.2384
 2045TIP3   OH227769   3.269   1.465   6.868 -0.6711  0.0965 -0.5564
 2045TIP3    H127770   3.343   1.404   6.865 -1.1013 -0.3923 -1.6575
 2045TIP3    H227771   3.202   1.424   6.813 -1.9847  0.2676  0.8759
 2046TIP3   OH227772   0.373   5.825   2.413 -0.5158 -0.6934  0.4101
 2046TIP3    H127773   0.435   5.885   2.372 -1.0610 -1.5458 -1.8277
 2046TIP3    H227774   0.310   5.882   2.457 -0.6787  0.3885 -1.1468
 2047TIP3   OH227775   4.378   6.816   1.664  0.1619 -0.1531  0.2467
 2047TIP3    H127776   4.469   6.786   1.659  0.1855 -0.2780  1.2395
 2047TIP3    H227777   4.358   6.814   1.758 -0.0868  2.1932  0.2902
 2048TIP3   OH227778   4.309   4.850   0.209  0.5907 -0.1444  0.0580
 2048TIP3    H127779   4.258   4.890   0.280  0.7082 -1.0772  0.6818
 2048TIP3    H227780   4.331   4.763   0.242  2.0418  0.0053 -0.4777
 2049TIP3   OH227781   5.518   0.731   6.909  0.5211  0.2969 -0.0996
 2049TIP3    H127782   5.456   0.665   6.942 -0.8852  1.2919 -0.6453
 2049TIP3    H227783   5.533   0.789   6.983  0.4519  0.2977 -0.0854
 2050TIP3   OH227784   4.461   4.100   0.051  0.0892  0.3176 -0.1575
 2050TIP3    H127785   4.426   4.025   0.003  0.2712  1.4154 -2.1202
 2050TIP3    H227786   4.534   4.130  -0.002  1.9750  0.1039  2.1581
 2051TIP3   OH227787   2.109   6.456   0.341 -0.0300  0.4877 -0.4268
 2051TIP3    H127788   2.040   6.390   0.346 -2.3599  2.8228  1.1271
 2051TIP3    H227789   2.093   6.501   0.257 -0.1772  0.7865 -0.2417
 2052TIP3   OH227790   3.180   1.293   1.602  0.3270 -0.3618 -0.2123
 2052TIP3    H127791   3.103   1.237   1.603 -0.3563  0.5093  1.8838
 2052TIP3    H227792   3.250   1.237   1.567 -0.7044 -1.9231  0.1132
 2053TIP3   OH227793   5.833   2.044   7.145  0.1162 -0.1877 -0.0061
 2053TIP3    H127794   5.868   2.036   7.234  0.9060  0.4371 -0.2393
 2053TIP3    H227795   5.811   1.955   7.120  2.1719 -0.7273 -0.0623
 2054TIP3   OH227796   0.025   1.065   7.675  0.3231 -0.0814  0.2692
 2054TIP3    H127797   0.062   1.017   7.750  1.3847 -0.2203 -0.3181
 2054TIP3    H227798  -0.067   1.077   7.697  0.3456 -1.1900  1.0494
 2055TIP3   OH227799   3.907   6.436   6.747  0.4143 -0.2447 -0.3887
 2055TIP3    H127800   3.955   6.516   6.725 -0.1919  0.2061 -0.1016
 2055TIP3    H227801   3.838   6.431   6.680  0.7634 -0.8138 -0.7167
 2056TIP3   OH227802   0.812   6.886   6.979 -1.0571  0.1413  0.4794
 2056TIP3    H127803   0.832   6.831   7.055  0.1914 -0.4724 -0.2556
 2056TIP3    H227804   0.798   6.973   7.015  0.9620  0.1682  1.2949
 2057TIP3   OH227805   5.744   3.489   7.565  0.0783  0.4059 -0.6447
 2057TIP3    H127806   5.777   3.430   7.498  1.9790 -1.0028  1.3933
 2057TIP3    H227807   5.782   3.457   7.647 -2.1142  2.0252  1.1552
 2058TIP3   OH227808   2.891   0.707   8.177  0.2106 -0.2440  0.2662
 2058TIP3    H127809   2.835   0.782   8.197  0.4734 -0.2582  1.0661
 2058TIP3    H227810   2.830   0.635   8.162 -0.1003  0.3254 -1.4860
 2059TIP3   OH227811   3.190   6.313   6.473 -0.3679  0.2075 -0.5851
 2059TIP3    H127812   3.269   6.314   6.527 -0.4855  0.6404 -0.4234
 2059TIP3    H227813   3.220   6.337   6.386 -0.4931  1.5539 -0.2834
 2060TIP3   OH227814   2.330   0.240   6.955 -0.4940  0.0885 -0.6201
 2060TIP3    H127815   2.350   0.199   7.039  1.0132  0.6112 -0.6970
 2060TIP3    H227816   2.409   0.288   6.932 -0.5242 -0.7946 -2.7842
 2061TIP3   OH227817   6.551   2.351   1.107 -0.0723  0.2344  0.4956
 2061TIP3    H127818   6.557   2.442   1.135 -0.8191  0.8035 -1.0802
 2061TIP3    H227819   6.639   2.330   1.074 -0.4067  1.0870 -1.0475
 2062TIP3   OH227820   4.725   3.545   0.235 -0.2054  0.3006  0.2374
 2062TIP3    H127821   4.716   3.593   0.317 -0.4490  2.6339 -1.0629
 2062TIP3    H227822   4.750   3.612   0.171  0.1291 -1.4646 -1.5668
 2063TIP3   OH227823   4.422   1.197   0.247  0.0665  0.2464 -0.0408
 2063TIP3    H127824   4.462   1.175   0.163  0.4228 -0.0986  0.2159
 2063TIP3    H227825   4.491   1.242   0.296 -0.6588  2.0240 -0.5767
 2064TIP3   OH227826   4.253   3.143   0.153 -0.4735 -0.1873  0.0270
 2064TIP3    H127827   4.256   3.228   0.195 -0.7773 -0.8909  1.5568
 2064TIP3    H227828   4.230   3.161   0.062  0.1747  1.3906  0.1491
 2065TIP3   OH227829   6.748   6.358   1.065  0.4177  0.4551  0.0894
 2065TIP3    H127830   6.678   6.293   1.067 -0.0117  0.8785 -0.5144
 2065TIP3    H227831   6.743   6.395   0.976  0.2836  1.6948  0.5884
 2066TIP3   OH227832   0.673   3.836   7.662  0.3527  0.7351 -0.1319
 2066TIP3    H127833   0.674   3.745   7.690  0.7450  0.5750 -0.6405
 2066TIP3    H227834   0.588   3.869   7.688 -0.2304 -0.0916 -0.9308
 2067TIP3   OH227835   1.845   4.407   7.398  0.1603 -0.4739  0.2366
 2067TIP3    H127836   1.908   4.371   7.461  0.6268  0.3877  0.2965
 2067TIP3    H227837   1.783   4.457   7.452  1.7816  2.0646 -0.0504
 2068TIP3   OH227838   0.706   4.062   2.518 -0.0283 -0.2405  0.6174
 2068TIP3    H127839   0.692   3.972   2.547  1.7004 -1.1304 -1.0897
 2068TIP3    H227840   0.723   4.111   2.598  0.5435 -1.7389  1.4459
 2069TIP3   OH227841   5.851   5.643   6.381 -0.1675 -0.0454  0.1312
 2069TIP3    H127842   5.856   5.730   6.340 -0.3826 -0.9560 -1.9854
 2069TIP3    H227843   5.916   5.591   6.334 -1.7805 -1.6630 -0.4173
 2070TIP3   OH227844   6.207   2.089   0.032 -0.4204  0.3595 -0.5448
 2070TIP3    H127845   6.175   2.158   0.091 -0.7226 -0.7173  0.5879
 2070TIP3    H227846   6.151   2.014   0.050  0.3838 -0.4171 -1.2097
 2071TIP3   OH227847   6.418   0.068   7.495 -0.1873 -0.1531  0.2597
 2071TIP3    H127848   6.482   0.101   7.559 -0.1402  1.1867 -0.4341
 2071TIP3    H227849   6.341   0.123   7.509 -0.3991 -0.2792 -0.3997
 2072TIP3   OH227850   7.029   2.897   6.759 -0.1002  0.3696  0.2325
 2072TIP3    H127851   7.095   2.910   6.691 -1.1682  1.2148 -0.6806
 2072TIP3    H227852   6.958   2.957   6.736 -1.8909 -1.5722  0.2944
 2073TIP3   OH227853   1.208   1.915   7.143  0.2595  0.9987 -0.8377
 2073TIP3    H127854   1.259   1.996   7.148 -1.5330  2.1290  0.8227
 2073TIP3    H227855   1.150   1.919   7.220 -0.1370 -1.6988 -0.9079
 2074TIP3   OH227856   4.555   4.129   0.791 -0.5688 -0.1176 -0.3517
 2074TIP3    H127857   4.495   4.174   0.850 -0.1229  0.7211 -0.5184
 2074TIP3    H227858   4.581   4.196   0.728  2.1224  0.1338  0.8966
 2075TIP3   OH227859   2.590   2.802   0.067  0.8800  0.9434  0.1481
 2075TIP3    H127860   2.615   2.893   0.082 -1.4946  1.4105  1.8583
 2075TIP3    H227861   2.614   2.785  -0.024  0.7474  3.5245 -0.4535
 2076TIP3   OH227862   1.032   3.486   7.544 -0.0231  0.3053 -0.2768
 2076TIP3    H127863   1.046   3.557   7.481  1.0615  0.2348 -0.1336
 2076TIP3    H227864   0.938   3.473   7.545 -0.1048  0.7189 -1.4389
 2077TIP3   OH227865   5.901   0.820   6.728  0.6251 -0.6498 -0.0621
 2077TIP3    H127866   5.858   0.850   6.808 -0.3399  0.9655 -1.1140
 2077TIP3    H227867   5.976   0.879   6.718 -0.7213  0.9574 -1.6253
 2078TIP3   OH227868   5.512   3.866   2.418 -0.2317  0.0013 -0.2265
 2078TIP3    H127869   5.421   3.869   2.388  0.2924 -0.0209 -1.9416
 2078TIP3    H227870   5.506   3.847   2.511 -1.9655 -1.7059 -0.6109
 2079TIP3   OH227871   5.854   0.031   0.487  0.1368  0.2183  0.2314
 2079TIP3    H127872   5.814   0.013   0.402  1.2710 -0.9191 -0.1023
 2079TIP3    H227873   5.884  -0.055   0.518  2.3227  0.9828  0.4031
 2080TIP3   OH227874   6.162   1.608   7.721  0.0508 -0.1295  0.2914
 2080TIP3    H127875   6.169   1.516   7.743  1.8256 -0.0855  0.0136
 2080TIP3    H227876   6.068   1.622   7.707 -0.2656 -1.8334  0.5229
 2081TIP3   OH227877   4.762   4.445   1.987 -0.5123 -0.1679 -0.2247
 2081TIP3    H127878   4.791   4.463   2.077  0.1838  0.9248 -0.6435
 2081TIP3    H227879   4.831   4.389   1.951 -0.8600 -0.7195 -0.0464
 2082TIP3   OH227880   2.664   3.287   0.649  0.4798  0.4105 -0.4217
 2082TIP3    H127881   2.585   3.261   0.602  0.2939  0.2907 -0.0517
 2082TIP3    H227882   2.691   3.208   0.696  0.7496  0.4843 -0.4548
 2083TIP3   OH227883   0.136   1.617   7.996 -0.3190 -0.7539  0.0393
 2083TIP3    H127884   0.144   1.528   8.030 -1.5273 -0.6934  0.5268
 2083TIP3    H227885   0.092   1.607   7.912  0.2224 -0.6719 -0.2583
 2084TIP3   OH227886   1.404   0.401   7.961 -0.8807 -0.4085  0.7372
 2084TIP3    H127887   1.330   0.361   7.916 -1.0625 -2.1349  2.4818
 2084TIP3    H227888   1.394   0.495   7.945 -2.6333 -0.7291 -0.2276
 2085TIP3   OH227889   2.234   6.520   1.507 -0.6283 -0.1421  0.2990
 2085TIP3    H127890   2.152   6.486   1.541 -0.2969 -0.5379  0.7303
 2085TIP3    H227891   2.217   6.612   1.488 -1.8057 -0.7422 -1.7687
 2086TIP3   OH227892   2.394   1.374   0.966  0.3361 -0.3409 -0.1519
 2086TIP3    H127893   2.459   1.392   1.034  0.6974 -1.2131 -0.2480
 2086TIP3    H227894   2.445   1.373   0.885 -0.1261  0.8886 -0.4739
 2087TIP3   OH227895   2.937   1.323   1.278 -0.0743 -0.5145 -0.3212
 2087TIP3    H127896   2.854   1.361   1.250  0.1650  0.1365 -0.1561
 2087TIP3    H227897   3.004   1.376   1.235  0.3858  1.7048  2.7843
 2088TIP3   OH227898   3.822   5.835   2.186  0.1677  0.0006  0.1410
 2088TIP3    H127899   3.844   5.813   2.276 -0.5851 -2.9938 -0.2772
 2088TIP3    H227900   3.815   5.930   2.185  2.0896  0.2783  2.7512
 2089TIP3   OH227901   5.518   0.803   7.636  0.5746 -0.0587 -0.1906
 2089TIP3    H127902   5.429   0.787   7.605 -0.5465  1.0095  2.2000
 2089TIP3    H227903   5.536   0.731   7.697  0.3101  1.0323  1.2350
 2090TIP3   OH227904   3.667   0.300   6.242  0.4410 -0.0701  0.0749
 2090TIP3    H127905   3.629   0.365   6.182  0.0513 -1.9151 -1.8083
 2090TIP3    H227906   3.685   0.349   6.322 -1.8421  1.8891 -0.4694
 2091TIP3   OH227907   1.632   3.829   1.046 -0.0165  0.3624 -0.1922
 2091TIP3    H127908   1.546   3.789   1.061 -0.4709  1.2080 -0.4971
 2091TIP3    H227909   1.655   3.868   1.130 -0.2990  0.8163 -0.3205
 2092TIP3   OH227910   5.066   6.166   7.040  0.2249  0.2543 -0.0241
 2092TIP3    H127911   4.972   6.180   7.023 -0.1049 -0.8936  0.7218
 2092TIP3    H227912   5.083   6.078   7.006  0.2617 -0.8522  2.6284
 2093TIP3   OH227913   2.619   1.219   7.885  0.0518 -0.7159  0.2171
 2093TIP3    H127914   2.654   1.294   7.934 -0.7534 -1.1794  1.5608
 2093TIP3    H227915   2.552   1.182   7.943  0.7750 -2.7869 -0.2078
 2094TIP3   OH227916   4.756   1.551   1.488  0.4788  0.6361  0.6329
 2094TIP3    H127917   4.755   1.493   1.564 -1.2630 -1.6360 -0.9462
 2094TIP3    H227918   4.691   1.618   1.508 -2.5475 -1.8399  0.0183
 2095TIP3   OH227919   6.158   5.377   1.168 -0.3465  0.1263  0.8960
 2095TIP3    H127920   6.085   5.340   1.217 -0.8961  1.2273  0.9338
 2095TIP3    H227921   6.185   5.453   1.219 -1.1017  1.4493 -0.5755
 2096TIP3   OH227922   5.878   1.454   0.463  0.7037 -0.7392  0.2893
 2096TIP3    H127923   5.816   1.510   0.509 -1.5574 -2.0999 -0.9018
 2096TIP3    H227924   5.919   1.512   0.398 -1.7435 -0.4138 -1.0699
 2097TIP3   OH227925   0.462   2.213   6.513  0.1642  0.3079 -0.0962
 2097TIP3    H127926   0.487   2.284   6.453 -1.0266  0.2991 -0.6191
 2097TIP3    H227927   0.543   2.191   6.558  1.1376  0.1744 -1.8395
 2098TIP3   OH227928   1.053   1.786   7.415  0.3008  0.4613  0.1588
 2098TIP3    H127929   1.060   1.800   7.510 -0.3689 -0.1486  0.3093
 2098TIP3    H227930   0.983   1.844   7.387 -1.1580 -1.0792  0.4615
 2099TIP3   OH227931   2.690   1.239   0.418 -0.0652  0.1204 -0.6426
 2099TIP3    H127932   2.692   1.333   0.432  0.8498 -0.0981  0.7956
 2099TIP3    H227933   2.635   1.205   0.489  0.2673 -0.5157 -0.6839
 2100TIP3   OH227934   4.834   0.672   1.017 -0.1738 -0.0086  0.0957
 2100TIP3    H127935   4.851   0.587   1.058 -0.9461  0.3679  1.2615
 2100TIP3    H227936   4.808   0.728   1.090 -0.1977  1.0833 -0.7379
 2101TIP3   OH227937   2.981   0.486   0.798 -0.2150  0.4040  0.6723
 2101TIP3    H127938   2.907   0.479   0.859  1.3427 -1.5662  2.5027
 2101TIP3    H227939   3.058   0.472   0.853  1.2731 -1.7085 -1.7557
 2102TIP3   OH227940   6.254   5.774   0.440  0.1025 -0.5139 -0.0536
 2102TIP3    H127941   6.182   5.760   0.379 -0.6238 -0.8846  0.8748
 2102TIP3    H227942   6.332   5.771   0.385 -0.3981 -2.6169 -0.7395
 2103TIP3   OH227943   5.959   2.503   6.981 -0.7105  0.1563 -0.0653
 2103TIP3    H127944   5.899   2.563   6.937 -0.2761  0.0482 -0.8128
 2103TIP3    H227945   6.041   2.511   6.933 -0.3053 -0.1657  0.5586
 2104TIP3   OH227946   1.472   2.839   1.038 -0.5969 -0.3589  0.2041
 2104TIP3    H127947   1.551   2.872   1.082 -0.0914 -1.5496  0.2302
 2104TIP3    H227948   1.506   2.793   0.961 -1.3471 -0.0257 -0.3367
 2105TIP3   OH227949   5.714   2.892   1.999  1.1810 -0.3606  0.1215
 2105TIP3    H127950   5.682   2.920   2.085  1.1400 -0.5800  0.1791
 2105TIP3    H227951   5.734   2.798   2.010 -1.9848 -1.2864 -0.9731
 2106TIP3   OH227952   3.226   0.541   2.498  0.0644  0.3513  0.2767
 2106TIP3    H127953   3.295   0.476   2.486  1.2846  1.8402 -1.2333
 2106TIP3    H227954   3.146   0.490   2.505  0.7378 -1.3235 -2.6034
 2107TIP3   OH227955   5.974   2.501   1.817  0.1690  0.0417 -0.2185
 2107TIP3    H127956   6.049   2.462   1.863 -0.4375  0.1177  0.8595
 2107TIP3    H227957   5.979   2.594   1.838 -0.1949  0.0543 -0.1890
 2108TIP3   OH227958   5.359   3.263   7.149 -0.5189 -0.5478 -0.1644
 2108TIP3    H127959   5.351   3.168   7.161  0.2537 -0.5706  0.2193
 2108TIP3    H227960   5.278   3.299   7.185 -1.1946 -1.1102 -1.0670
 2109TIP3   OH227961   6.735   1.845   7.516 -0.4112  0.3047 -0.1217
 2109TIP3    H127962   6.675   1.884   7.579  2.0494  2.3466  1.1554
 2109TIP3    H227963   6.734   1.751   7.536 -2.3677  0.4250  0.5006
 2110TIP3   OH227964   6.485   1.707   6.847 -0.0895  0.6602  0.0420
 2110TIP3    H127965   6.546   1.717   6.921 -0.3673 -0.4441  0.4437
 2110TIP3    H227966   6.500   1.785   6.793  1.6620  0.4350  0.1390
 2111TIP3   OH227967   2.680   1.909   1.303  0.0070 -0.5300  0.1573
 2111TIP3    H127968   2.729   1.859   1.368  0.0818 -1.1569 -0.3777
 2111TIP3    H227969   2.738   1.914   1.227  0.1977  0.7834  0.3572
 2112TIP3   OH227970   1.376   6.549   1.504 -0.3142  0.0109  0.3824
 2112TIP3    H127971   1.334   6.465   1.484 -1.8717  0.7550  0.3202
 2112TIP3    H227972   1.410   6.580   1.421 -0.0348 -0.4047  0.3408
 2113TIP3   OH227973   1.702   1.872   1.684  0.3369 -0.1277  0.4344
 2113TIP3    H127974   1.639   1.811   1.722  0.4216 -0.5337 -0.0715
 2113TIP3    H227975   1.757   1.899   1.758  0.4494 -0.8401  0.6161
 2114TIP3   OH227976   5.101   2.115   8.206  0.1962 -0.1077 -0.3599
 2114TIP3    H127977   5.068   2.157   8.127  1.4631  1.3312 -0.1633
 2114TIP3    H227978   5.196   2.130   8.203  0.3735 -0.8322  0.9748
 2115TIP3   OH227979   6.315   6.830   7.348 -0.1288  0.1398  0.2286
 2115TIP3    H127980   6.374   6.863   7.281  0.0030  0.0212  0.2849
 2115TIP3    H227981   6.268   6.907   7.379 -1.9746 -0.1273 -1.7018
 2116TIP3   OH227982   6.754   3.077   1.652  0.5553  0.2755 -0.1753
 2116TIP3    H127983   6.786   3.067   1.742  1.3592 -0.9133 -0.5723
 2116TIP3    H227984   6.833   3.071   1.598 -0.0539 -0.1384 -1.0372
 2117TIP3   OH227985   1.827   6.619   6.640 -0.0626 -0.4330  0.0326
 2117TIP3    H127986   1.748   6.568   6.655  0.1595 -0.9116 -0.3904
 2117TIP3    H227987   1.884   6.599   6.714 -1.1967  1.6786  1.5844
 2118TIP3   OH227988   0.020   3.848   7.425 -0.3613 -0.1423  0.6047
 2118TIP3    H127989  -0.046   3.901   7.380  0.3526  0.9113  0.7620
 2118TIP3    H227990   0.065   3.801   7.354 -2.6394 -2.5496  0.6435
 2119TIP3   OH227991   4.344   3.347   7.784  0.3244 -0.1386  0.1066
 2119TIP3    H127992   4.389   3.326   7.866  2.0352  0.2053 -0.6929
 2119TIP3    H227993   4.340   3.264   7.736  1.4626  0.0796 -0.4180
 2120TIP3   OH227994   4.763   2.737   7.821 -0.0543  0.2372 -0.1078
 2120TIP3    H127995   4.762   2.826   7.856  3.1005 -0.6291  2.8228
 2120TIP3    H227996   4.839   2.735   7.763 -0.8173 -0.2517 -1.1042
 2121TIP3   OH227997   6.090   3.076   7.240 -0.0818 -0.3348  0.8738
 2121TIP3    H127998   6.016   3.078   7.180 -0.6546  0.0378  1.5794
 2121TIP3    H227999   6.112   3.168   7.253  1.1808 -0.4683 -0.1296
 2122TIP3   OH228000   0.692   6.620   7.935 -0.0031  0.0795  0.2636
 2122TIP3    H128001   0.697   6.699   7.880  0.4009 -0.1037  0.0370
 2122TIP3    H228002   0.638   6.560   7.885  0.7316 -0.2528 -0.1462
 2123TIP3   OH228003   6.109   7.021   1.697 -0.0536 -0.1752 -0.2109
 2123TIP3    H128004   6.088   6.988   1.784  0.2688 -1.2228 -0.5163
 2123TIP3    H228005   6.182   7.082   1.711 -0.9004  0.7257  0.4055
 2124TIP3   OH228006   3.773   4.967   8.105  0.0970  0.0386 -0.6718
 2124TIP3    H128007   3.859   4.974   8.063 -0.2217  1.5290 -1.1426
 2124TIP3    H228008   3.749   5.058   8.125 -1.5163 -0.3153 -0.8539
 2125TIP3   OH228009   2.780   1.895   7.017  0.5556  0.3577 -0.2149
 2125TIP3    H128010   2.861   1.850   7.041 -0.0847 -1.7310 -1.6415
 2125TIP3    H228011   2.711   1.838   7.052 -0.3876  2.6043  1.8708
 2126TIP3   OH228012   2.337   0.771   6.845 -0.0347 -0.4684 -0.2954
 2126TIP3    H128013   2.255   0.794   6.801  0.8686  3.2332 -0.4002
 2126TIP3    H228014   2.342   0.833   6.918  2.1902 -1.2939  0.3294
 2127TIP3   OH228015   1.313   0.575   7.496 -0.7037 -0.3583 -0.3995
 2127TIP3    H128016   1.309   0.590   7.591  0.7847  1.2373 -0.5278
 2127TIP3    H228017   1.307   0.663   7.459  1.2662 -0.7040 -1.6498
 2128TIP3   OH228018   4.028   1.185   0.680 -0.0133  0.1870 -0.3482
 2128TIP3    H128019   3.940   1.158   0.704  0.3671  0.0892  0.9858
 2128TIP3    H228020   4.032   1.173   0.585 -1.4382  0.2282 -0.4271
 2129TIP3   OH228021   4.136   1.434   0.769  0.4184  0.2980  0.0964
 2129TIP3    H128022   4.152   1.450   0.675 -0.7577 -0.5268 -0.2611
 2129TIP3    H228023   4.089   1.351   0.771  0.5671  0.2351  1.4477
 2130TIP3   OH228024   2.759   4.257   0.099 -0.0743  0.6112  0.0520
 2130TIP3    H128025   2.780   4.332   0.043 -0.8181  0.2217 -0.7647
 2130TIP3    H228026   2.721   4.296   0.178 -0.4713  1.1037 -0.3725
 2131TIP3   OH228027   1.323   5.540   7.578 -0.4204  0.1887 -0.1481
 2131TIP3    H128028   1.321   5.635   7.580  0.1363  0.1975  0.8147
 2131TIP3    H228029   1.301   5.514   7.667  0.9260 -0.5269  0.0093
 2132TIP3   OH228030   6.937   3.309   1.636  0.2590  0.3477 -0.0082
 2132TIP3    H128031   6.870   3.343   1.577 -0.3216 -0.4892  0.1382
 2132TIP3    H228032   6.988   3.249   1.582  1.6499  1.8493 -0.4186
 2133TIP3   OH228033   4.022   6.674   6.710  0.6045 -0.0609 -0.1606
 2133TIP3    H128034   4.100   6.699   6.661  0.1049  0.1619 -0.8655
 2133TIP3    H228035   3.952   6.728   6.673 -0.0475 -0.8707 -0.1479
 2134TIP3   OH228036   5.750   2.275   7.469 -0.2335  0.0898  0.7239
 2134TIP3    H128037   5.838   2.311   7.480 -0.5918  1.8591 -1.3913
 2134TIP3    H228038   5.759   2.210   7.400 -0.3866 -0.6966  1.4286
 2135TIP3   OH228039   1.838   0.636   0.896 -0.0678  0.4339  0.0778
 2135TIP3    H128040   1.908   0.647   0.960  0.1734 -0.3144 -0.0416
 2135TIP3    H228041   1.846   0.545   0.868 -0.9148  0.4192 -0.1437
 2136TIP3   OH228042   4.575   3.164   0.338 -0.0692 -0.1622 -0.3922
 2136TIP3    H128043   4.567   3.166   0.242 -0.0832  0.5994 -0.3794
 2136TIP3    H228044   4.645   3.225   0.357 -0.7172  0.4216  0.1499
 2137TIP3   OH228045   4.554   3.955   7.777  0.6202 -0.6287 -0.5075
 2137TIP3    H128046   4.512   3.879   7.817 -0.1152 -0.7044 -1.3808
 2137TIP3    H228047   4.619   3.984   7.841 -0.9547 -0.3299  0.9937
 2138TIP3   OH228048   1.097   3.497   2.923 -0.1480  0.0815  0.0006
 2138TIP3    H128049   1.164   3.562   2.906 -1.7388  1.7765 -0.1795
 2138TIP3    H228050   1.102   3.437   2.849 -0.0086  1.2402 -0.9657
 2139TIP3   OH228051   0.189   4.784   1.261  0.1480  0.0627  0.0007
 2139TIP3    H128052   0.161   4.703   1.304 -1.4642  0.4175 -0.3142
 2139TIP3    H228053   0.169   4.853   1.325 -2.4358  0.6144 -1.2530
 2140TIP3   OH228054   5.406   5.160   8.120  0.0209 -0.4816 -0.6897
 2140TIP3    H128055   5.330   5.102   8.112 -0.7554  0.6740 -2.2255
 2140TIP3    H228056   5.479   5.108   8.088 -0.2988 -1.2455 -0.2177
 2141TIP3   OH228057   0.949   4.923   0.463  0.1313 -0.2046  0.2012
 2141TIP3    H128058   0.857   4.926   0.435  0.3882  0.0148 -0.6612
 2141TIP3    H228059   0.948   4.963   0.550 -0.5814 -0.1491  0.1803
 2142TIP3   OH228060   7.009   7.080   2.090 -0.7823  0.4524 -0.3249
 2142TIP3    H128061   6.996   7.038   2.175 -2.0039 -0.6326 -1.0178
 2142TIP3    H228062   6.928   7.129   2.075 -0.2652  1.2634 -0.5363
 2143TIP3   OH228063   5.546   6.746   7.336  0.2571 -0.2570  0.0001
 2143TIP3    H128064   5.492   6.765   7.412 -0.3256  0.6415 -0.6106
 2143TIP3    H228065   5.507   6.668   7.297  0.8496 -1.0016  0.8736
 2144TIP3   OH228066   5.034   2.524   1.591  0.4407 -0.0597 -0.6286
 2144TIP3    H128067   5.126   2.506   1.572  0.4191 -0.1207 -0.6746
 2144TIP3    H228068   5.000   2.557   1.508  0.1471 -1.0885 -0.9329
 2145TIP3   OH228069   0.198   4.708   6.498 -0.0474  0.0469 -0.0261
 2145TIP3    H128070   0.103   4.711   6.507 -0.0080 -1.9471  2.1719
 2145TIP3    H228071   0.228   4.791   6.534 -0.9310  0.3905 -0.0609
 2146TIP3   OH228072   4.884   5.471   0.069  0.0735 -0.0188 -0.9899
 2146TIP3    H128073   4.931   5.441   0.147 -0.8467 -0.7116 -0.6871
 2146TIP3    H228074   4.797   5.495   0.102 -0.8638 -1.8207 -2.0203
 2147TIP3   OH228075   5.282   6.895   8.129 -0.0752  0.4575  0.4531
 2147TIP3    H128076   5.272   6.814   8.180  1.5401  0.4172  0.7749
 2147TIP3    H228077   5.289   6.866   8.038  0.2108  0.2528  0.5395
 2148TIP3   OH228078   2.301   4.119   6.883 -0.3157 -0.3948 -0.4735
 2148TIP3    H128079   2.387   4.161   6.871  0.7196 -1.7743  1.5933
 2148TIP3    H228080   2.239   4.191   6.880  1.0286  0.8010 -0.8521
 2149TIP3   OH228081   1.295   6.907   0.435  0.1286  0.5542  0.1622
 2149TIP3    H128082   1.230   6.840   0.412  0.7562  0.4344 -1.4030
 2149TIP3    H228083   1.281   6.923   0.528 -1.9558  0.3224 -0.0507
 2150TIP3   OH228084   0.892   5.283   2.442 -0.4204  0.2739 -0.4585
 2150TIP3    H128085   0.901   5.321   2.355 -2.7183  2.1880  0.0319
 2150TIP3    H228086   0.980   5.255   2.466  0.8532  2.5395 -2.1299
 2151TIP3   OH228087   4.595   0.959   7.391 -0.7655 -0.1743  0.5315
 2151TIP3    H128088   4.684   0.925   7.379 -0.6141  0.0987  0.8473
 2151TIP3    H228089   4.585   0.965   7.486 -0.1091  2.3630  0.5127
 2152TIP3   OH228090   4.396   6.975   0.766 -0.0173  0.6743 -0.2111
 2152TIP3    H128091   4.426   6.894   0.808 -0.5698  1.2676  1.4201
 2152TIP3    H228092   4.464   7.039   0.787  0.3205  0.6981 -1.3284
 2153TIP3   OH228093   4.779   4.174   2.622 -0.2750 -0.8490  0.0072
 2153TIP3    H128094   4.732   4.093   2.643 -0.8681 -0.2445  1.1165
 2153TIP3    H228095   4.780   4.177   2.526  0.2656 -2.4463 -0.0661
 2154TIP3   OH228096   7.064   2.530   2.645 -0.2222 -0.1082 -0.3090
 2154TIP3    H128097   6.998   2.480   2.597 -0.3459 -1.0815  0.8488
 2154TIP3    H228098   7.147   2.503   2.607 -0.3635 -0.3483 -0.4510
 2155TIP3   OH228099   5.927   4.495   2.718  0.0926 -0.1225  0.2525
 2155TIP3    H128100   5.913   4.429   2.651 -0.4453  0.8541 -0.6369
 2155TIP3    H228101   6.004   4.465   2.766  0.1531 -1.1303 -0.4407
 2156TIP3   OH228102   5.724   1.099   0.810 -0.1970 -0.3789  0.5049
 2156TIP3    H128103   5.707   1.134   0.897 -1.1725 -0.7140  0.4638
 2156TIP3    H228104   5.643   1.055   0.786  0.0029 -0.1558 -0.6390
 2157TIP3   OH228105   2.802   6.098   2.174  0.1864 -0.2070 -0.5841
 2157TIP3    H128106   2.737   6.110   2.243 -0.6290 -0.0830 -1.3554
 2157TIP3    H228107   2.751   6.072   2.097  0.9539  0.5939 -1.3914
 2158TIP3   OH228108   0.130   2.663   1.140 -0.2391  0.6724 -0.5521
 2158TIP3    H128109   0.191   2.717   1.188 -0.9464  1.6810 -0.7509
 2158TIP3    H228110   0.060   2.723   1.113 -0.9937 -0.3110 -0.8751
 2159TIP3   OH228111   6.313   6.546   7.295  0.4929 -0.2302 -0.3999
 2159TIP3    H128112   6.284   6.511   7.380  2.8908 -1.1987  0.1126
 2159TIP3    H228113   6.302   6.641   7.303  1.3840 -0.2352  1.3216
 2160TIP3   OH228114   1.139   4.513   0.174  0.4821  0.0418 -0.3160
 2160TIP3    H128115   1.043   4.516   0.167  0.5190  0.8091 -0.6704
 2160TIP3    H228116   1.156   4.522   0.268  0.2236  0.8937 -0.3424
 2161TIP3   OH228117   0.488   4.395   8.026 -0.1880  0.2229  0.1488
 2161TIP3    H128118   0.448   4.393   8.113 -3.2005  1.1892 -1.0942
 2161TIP3    H228119   0.416   4.375   7.966  1.7275 -0.1106 -2.1753
 2162TIP3   OH228120   5.723   6.776   1.391  0.0225 -0.1414 -0.7771
 2162TIP3    H128121   5.636   6.760   1.354 -1.1831  2.1669  0.8057
 2162TIP3    H228122   5.753   6.856   1.348  0.4622  0.2159  0.1843
 2163TIP3   OH228123   2.309   3.290   2.232  0.3620  0.1963  0.0363
 2163TIP3    H128124   2.367   3.252   2.297  0.3263  0.8396  0.4497
 2163TIP3    H228125   2.303   3.383   2.255 -2.8383 -0.2510  1.5845
 2164TIP3   OH228126   0.183   3.834   1.437 -0.7763  0.6705  0.3661
 2164TIP3    H128127   0.257   3.786   1.475 -0.3233  1.0852  0.0072
 2164TIP3    H228128   0.133   3.863   1.513 -0.5128  0.4866  0.6145
 2165TIP3   OH228129   6.202   0.491   1.301  0.0084 -0.1285  0.1969
 2165TIP3    H128130   6.175   0.414   1.251  1.2833  0.1613 -0.9871
 2165TIP3    H228131   6.190   0.564   1.241 -1.0799  0.6155  1.2787
 2166TIP3   OH228132   4.655   5.484   7.770  0.4554 -0.4571 -0.3430
 2166TIP3    H128133   4.732   5.537   7.751 -0.0415  0.0379 -1.0208
 2166TIP3    H228134   4.608   5.480   7.687 -1.1297  0.6950  0.4529
 2167TIP3   OH228135   3.727   0.079   0.060  0.0503  0.1224 -0.2350
 2167TIP3    H128136   3.722   0.006  -0.001 -0.0962 -1.4078  1.5159
 2167TIP3    H228137   3.814   0.116   0.048  0.4615 -0.9237 -0.5056
 2168TIP3   OH228138   0.487   5.931   2.750 -0.3791  0.2424 -0.8225
 2168TIP3    H128139   0.446   5.908   2.833 -1.2523 -0.2363 -1.3669
 2168TIP3    H228140   0.510   5.847   2.711 -0.5817  0.4336 -1.3604
 2169TIP3   OH228141   4.831   0.855   1.463  0.4915 -0.2386  0.0909
 2169TIP3    H128142   4.843   0.801   1.541 -2.3467 -1.0635  0.0591
 2169TIP3    H228143   4.902   0.919   1.468  2.7579 -2.6373  1.2217
 2170TIP3   OH228144   7.075   1.762   6.792  0.2247 -0.2328  0.0276
 2170TIP3    H128145   7.060   1.672   6.822 -1.4689  0.1838  0.5663
 2170TIP3    H228146   7.083   1.755   6.697 -0.0382 -0.9433  0.0499
 2171TIP3   OH228147   5.034   0.531   7.841  0.1785 -0.2736  0.2601
 2171TIP3    H128148   4.963   0.590   7.814  1.6819  1.1989 -0.6704
 2171TIP3    H228149   5.105   0.549   7.780  1.4940 -1.4628  1.3691
 2172TIP3   OH228150   3.607   2.397   0.709 -0.0539 -0.1541 -0.2150
 2172TIP3    H128151   3.649   2.413   0.793  0.0285 -0.9993 -0.0834
 2172TIP3    H228152   3.522   2.442   0.715 -0.5316 -1.1319  0.7601
 2173TIP3   OH228153   0.536   1.105   6.716  0.4975 -0.1010 -0.0504
 2173TIP3    H128154   0.586   1.034   6.757  2.2236  1.1385  0.1398
 2173TIP3    H228155   0.589   1.130   6.640  0.6043  1.7615  0.5795
 2174TIP3   OH228156   0.300   2.419   0.386 -0.0508  0.0421  0.1252
 2174TIP3    H128157   0.315   2.461   0.470  1.7065  0.9077 -0.5761
 2174TIP3    H228158   0.308   2.325   0.404  2.0871  0.2868  0.6308
 2175TIP3   OH228159   5.714   3.365   1.566 -0.3531  0.0634  0.1299
 2175TIP3    H128160   5.693   3.399   1.654 -0.5186 -0.8659  0.4634
 2175TIP3    H228161   5.802   3.397   1.548  0.2646 -0.9295  1.2596
 2176TIP3   OH228162   6.341   5.658   1.825  0.3172 -0.4447 -0.3688
 2176TIP3    H128163   6.360   5.567   1.801  0.9280 -0.5026  0.3078
 2176TIP3    H228164   6.418   5.706   1.795  0.4660 -0.3117  0.2237
 2177TIP3   OH228165   2.707   5.506   0.203 -0.2272 -0.3084  0.0216
 2177TIP3    H128166   2.690   5.597   0.178  0.5532 -0.3393 -0.6705
 2177TIP3    H228167   2.785   5.481   0.153 -0.8171 -1.5709 -0.3126
 2178TIP3   OH228168   2.800   1.194   0.808 -0.2092  0.0373  0.2886
 2178TIP3    H128169   2.791   1.099   0.794  0.3134  0.1029 -0.5481
 2178TIP3    H228170   2.895   1.209   0.807 -0.3114  0.6636 -0.2672
 2179TIP3   OH228171   2.514   5.644   7.160  0.1545 -0.3118  0.0659
 2179TIP3    H128172   2.447   5.662   7.094  0.3074 -2.0298 -0.6005
 2179TIP3    H228173   2.572   5.581   7.118  1.0427 -0.3820  1.3670
 2180TIP3   OH228174   1.119   3.239   1.993  0.2164 -0.0983  0.2483
 2180TIP3    H128175   1.084   3.204   1.911  0.4839 -2.1461  0.9469
 2180TIP3    H228176   1.050   3.223   2.057  0.5693  0.1738  0.7028
 2181TIP3   OH228177   3.915   5.413   2.174  0.3669 -1.1701  0.1476
 2181TIP3    H128178   4.010   5.402   2.181  0.5151  0.5857  1.4183
 2181TIP3    H228179   3.882   5.400   2.262 -0.1877  1.1421  0.3502
 2182TIP3   OH228180   6.249   2.025   1.705 -0.2670 -0.1397 -0.6689
 2182TIP3    H128181   6.167   2.071   1.688 -0.3902 -0.1019  0.0218
 2182TIP3    H228182   6.312   2.094   1.728 -0.6796 -0.3517  1.2757
 2183TIP3   OH228183   2.129   0.435   8.131 -0.0642  0.3656  0.6519
 2183TIP3    H128184   2.167   0.437   8.219 -0.6483 -0.4159  0.9290
 2183TIP3    H228185   2.035   0.444   8.145 -0.1193  0.7752  0.0645
 2184TIP3   OH228186   6.609   5.495   2.889 -0.0135 -0.5124 -0.0777
 2184TIP3    H128187   6.613   5.415   2.836 -1.0334  1.1395 -2.8505
 2184TIP3    H228188   6.516   5.502   2.913 -0.3687  0.8641 -1.6825
 2185TIP3   OH228189   6.643   6.293   7.535  0.2620 -0.3478 -0.2565
 2185TIP3    H128190   6.732   6.281   7.566 -0.5104 -1.0393  1.8938
 2185TIP3    H228191   6.628   6.218   7.476  0.4360 -1.4790  1.0741
 2186TIP3   OH228192   4.228   2.089   2.077  0.7424  0.0706  0.0197
 2186TIP3    H128193   4.295   2.040   2.124 -0.7723 -1.1860  0.9516
 2186TIP3    H228194   4.149   2.079   2.130 -1.1604 -1.6907 -2.8555
 2187TIP3   OH228195   1.084   2.857   1.979 -0.1801 -0.0850  0.3773
 2187TIP3    H128196   1.147   2.919   1.941 -1.3710  1.2651  0.5069
 2187TIP3    H228197   1.131   2.817   2.052  0.2953  1.5114  0.9896
 2188TIP3   OH228198   4.806   2.891   6.670 -0.4816 -0.2014 -0.8926
 2188TIP3    H128199   4.894   2.914   6.699 -0.5891 -1.7468  0.9161
 2188TIP3    H228200   4.765   2.974   6.645  0.7921  0.8140  0.2658
 2189TIP3   OH228201   0.872   3.967   2.176 -0.2701  0.1162  1.0240
 2189TIP3    H128202   0.961   3.947   2.202  0.8941 -0.4145 -2.7526
 2189TIP3    H228203   0.877   4.056   2.141 -0.7336 -0.5212 -0.7967
 2190TIP3   OH228204   6.458   0.625   0.656 -0.4183 -0.2464 -0.1180
 2190TIP3    H128205   6.537   0.589   0.616 -0.2714 -0.5369  0.4117
 2190TIP3    H228206   6.418   0.550   0.701 -0.3795  0.1370  0.5760
 2191TIP3   OH228207   5.160   4.782   1.446 -0.0012  0.5151  0.6132
 2191TIP3    H128208   5.119   4.788   1.532 -1.8038 -0.1003 -0.1511
 2191TIP3    H228209   5.187   4.872   1.426 -1.1383  0.9866  1.1006
 2192TIP3   OH228210   5.633   5.720   1.283  0.5057  0.6110  0.7763
 2192TIP3    H128211   5.673   5.796   1.241 -1.5071  0.8512 -0.8334
 2192TIP3    H228212   5.648   5.648   1.223  2.2414 -0.3220  2.2134
 2193TIP3   OH228213   2.064   4.763   8.077 -0.1668 -0.1592 -0.3058
 2193TIP3    H128214   2.018   4.680   8.080  0.2248 -0.5364 -2.4882
 2193TIP3    H228215   2.155   4.741   8.096  0.1930 -0.5406 -2.1929
 2194TIP3   OH228216   2.236   3.849   7.592 -0.3825 -0.3588  0.5837
 2194TIP3    H128217   2.157   3.796   7.582  0.0474 -0.6602 -1.7307
 2194TIP3    H228218   2.228   3.888   7.679 -4.1215  1.2832 -0.2706
 2195TIP3   OH228219   1.241   6.840   1.543  0.0987  0.2856  0.0906
 2195TIP3    H128220   1.164   6.832   1.486 -0.0829  0.6463  0.2820
 2195TIP3    H228221   1.290   6.759   1.528 -0.4994 -0.1109  0.2354
 2196TIP3   OH228222   1.677   6.704   7.848 -0.0699 -0.0311 -0.2222
 2196TIP3    H128223   1.634   6.660   7.921 -0.6023 -0.0280 -0.5262
 2196TIP3    H228224   1.764   6.664   7.843 -0.2163 -0.3936  0.0845
 2197TIP3   OH228225   4.485   6.783   8.087  0.3072  0.0376 -0.3679
 2197TIP3    H128226   4.568   6.792   8.041 -0.2438 -0.4874 -1.5141
 2197TIP3    H228227   4.489   6.847   8.159 -0.4483  4.1039 -3.5834
 2198TIP3   OH228228   6.185   0.190   0.854  0.2136  0.2539 -0.0738
 2198TIP3    H128229   6.166   0.232   0.938 -0.1998 -1.2077  0.5864
 2198TIP3    H228230   6.115   0.126   0.842  0.0169  0.7216 -1.7554
 2199TIP3   OH228231   6.175   6.841   2.592  0.0533 -0.0778 -0.6942
 2199TIP3    H128232   6.142   6.757   2.558  0.0795 -0.2884 -0.2097
 2199TIP3    H228233   6.268   6.825   2.608  0.0945  0.0961 -0.7574
 2200TIP3   OH228234   0.124   4.920   0.379  0.3487 -0.0896  0.0458
 2200TIP3    H128235   0.115   4.836   0.423 -1.7606  0.2467  0.3776
 2200TIP3    H228236   0.038   4.936   0.339  0.7056  1.8537 -0.0802
 2201TIP3   OH228237   5.733   5.581   2.154 -0.5344  0.7604 -1.4084
 2201TIP3    H128238   5.781   5.549   2.230 -1.8184  1.0737 -0.4404
 2201TIP3    H228239   5.794   5.643   2.112  0.1661  0.6245 -0.6194
 2202TIP3   OH228240   3.385   6.131   2.081  0.3601 -0.5446 -0.0246
 2202TIP3    H128241   3.357   6.043   2.108 -1.7008  0.7147  2.4244
 2202TIP3    H228242   3.453   6.155   2.145  1.4894 -0.5855 -1.1613
 2203TIP3   OH228243   3.916   2.728   6.814  0.1256 -0.1689 -0.0700
 2203TIP3    H128244   3.896   2.703   6.723  2.0125 -1.2940 -0.2467
 2203TIP3    H228245   3.891   2.820   6.820  0.0836 -0.0381 -1.7838
 2204TIP3   OH228246   4.735   0.432   0.019  0.5944  0.3539 -0.3449
 2204TIP3    H128247   4.723   0.349   0.064 -1.1276 -1.4941 -3.8285
 2204TIP3    H228248   4.772   0.408  -0.066  1.9816  3.3928 -0.7086
 2205TIP3   OH228249   5.815   1.175   2.367  0.1339  0.1174 -0.2117
 2205TIP3    H128250   5.722   1.152   2.372  0.1693 -0.1066 -0.5566
 2205TIP3    H228251   5.849   1.123   2.295  0.2519  1.1776 -0.9406
 2206TIP3   OH228252   2.789   6.566   6.974 -0.7811  0.4046  0.3233
 2206TIP3    H128253   2.873   6.581   6.930 -0.3959 -0.6191  0.6692
 2206TIP3    H228254   2.748   6.652   6.978 -0.3439  0.7093 -1.0541
 2207TIP3   OH228255   4.605   5.724   7.387 -0.1076 -0.6409 -0.5687
 2207TIP3    H128256   4.566   5.672   7.317 -2.0426  1.7673 -1.4386
 2207TIP3    H228257   4.698   5.700   7.385 -0.3996 -1.9372 -2.8018
 2208TIP3   OH228258   6.787   4.380   1.603  1.0574  0.2521  0.9953
 2208TIP3    H128259   6.780   4.285   1.597  3.1719  0.1421 -1.1259
 2208TIP3    H228260   6.714   4.406   1.660 -1.4464 -2.3603 -0.7460
 2209TIP3   OH228261   5.317   4.693   0.477  0.2372 -0.3969  0.2124
 2209TIP3    H128262   5.390   4.755   0.472 -0.7790  0.8042 -0.3986
 2209TIP3    H228263   5.346   4.617   0.427  1.0507  0.0868 -0.0681
 2210TIP3   OH228264   5.636   1.106   1.616 -0.1401  0.1105  0.5539
 2210TIP3    H128265   5.603   1.017   1.602 -0.3185  0.1149  0.9401
 2210TIP3    H228266   5.565   1.163   1.586 -0.2311  0.1218  0.7924
 2211TIP3   OH228267   5.648   4.634   0.577  0.9183 -0.6731  0.1945
 2211TIP3    H128268   5.589   4.613   0.649  0.8299  0.0188  0.3310
 2211TIP3    H228269   5.617   4.718   0.544  1.9155 -0.2211  0.3652
 2212TIP3   OH228270   6.725   7.077   1.916 -0.3385  0.0080 -0.1775
 2212TIP3    H128271   6.808   7.037   1.891 -0.1139 -1.6668  2.7457
 2212TIP3    H228272   6.741   7.112   2.004 -2.2969  1.0427 -0.1821
 2213TIP3   OH228273   1.190   5.057   0.065 -0.9086  0.4098  0.0158
 2213TIP3    H128274   1.276   5.043   0.027 -0.3085  0.4526  1.3055
 2213TIP3    H228275   1.161   4.969   0.091 -0.6630  0.5529  0.7904
 2214TIP3   OH228276   5.653   5.493   1.473  0.2809  0.5317  0.2262
 2214TIP3    H128277   5.688   5.534   1.552 -0.6781  1.6592  0.0943
 2214TIP3    H228278   5.692   5.544   1.401 -0.9135  1.2525  0.0603
 2215TIP3   OH228279   4.645   5.445   1.050  0.4090 -0.8664  0.1038
 2215TIP3    H128280   4.738   5.429   1.034  0.8434  0.8491  0.7468
 2215TIP3    H228281   4.641   5.480   1.138 -0.2040  3.6477 -1.4719
 2216TIP3   OH228282   0.190   1.842   1.509 -0.1284  0.5004  1.0126
 2216TIP3    H128283   0.111   1.880   1.548  0.8382  1.9814  1.6133
 2216TIP3    H228284   0.187   1.869   1.418 -0.0411  1.0517  1.1661
 2217TIP3   OH228285   4.599   3.563   1.079 -0.5446  0.2683 -0.4725
 2217TIP3    H128286   4.680   3.518   1.102 -1.2364 -0.4519  0.6149
 2217TIP3    H228287   4.589   3.631   1.146 -1.2036 -0.1213 -0.1642
 2218TIP3   OH228288   4.670   4.007   1.045 -0.4798  0.5725 -0.1647
 2218TIP3    H128289   4.764   3.995   1.041 -0.6041 -1.8206  1.9427
 2218TIP3    H228290   4.642   4.016   0.953  1.3500 -2.7874 -1.1958
 2219TIP3   OH228291   5.777   0.815   7.531 -0.3040 -0.4313 -0.5289
 2219TIP3    H128292   5.685   0.808   7.555 -0.1719 -0.5596 -0.0529
 2219TIP3    H228293   5.777   0.861   7.447 -0.6246  2.4772  0.9477
 2220TIP3   OH228294   4.206   5.504   7.291 -0.4903 -0.1449 -0.0737
 2220TIP3    H128295   4.160   5.450   7.228  0.3462 -0.3635 -0.5156
 2220TIP3    H228296   4.242   5.577   7.239 -0.5799  0.1772  0.3061
 2221TIP3   OH228297   4.708   6.484   2.238 -0.0358  0.1994  0.2514
 2221TIP3    H128298   4.798   6.513   2.250 -0.0349  0.0364  0.6723
 2221TIP3    H228299   4.656   6.564   2.244  0.0373  0.2271  0.5261
 2222TIP3   OH228300   4.407   1.011   1.417 -0.2542  0.2047 -0.2677
 2222TIP3    H128301   4.347   1.068   1.369  1.9349  1.2308 -1.9565
 2222TIP3    H228302   4.422   1.055   1.500 -0.2330  1.0285 -0.6996
 2223TIP3   OH228303   4.686   0.020   1.827 -0.0686  0.1567 -0.1106
 2223TIP3    H128304   4.653   0.110   1.825 -0.4676  0.0260  0.3658
 2223TIP3    H228305   4.646  -0.019   1.905  2.6587  0.5312  1.6281
 2224TIP3   OH228306   6.423   2.854   6.512 -0.0556 -0.2747 -0.6291
 2224TIP3    H128307   6.366   2.788   6.551  0.7148 -0.8081 -0.3908
 2224TIP3    H228308   6.383   2.874   6.428  0.0169 -1.4676 -0.9546
 2225TIP3   OH228309   3.089   2.241   7.865  0.6552 -0.4219 -0.3356
 2225TIP3    H128310   3.081   2.148   7.888 -1.1347  0.1212  1.5316
 2225TIP3    H228311   3.183   2.257   7.860  1.0256 -1.9531  1.0215
 2226TIP3   OH228312   2.906   0.788   7.848 -0.0905 -0.0841 -0.2500
 2226TIP3    H128313   2.845   0.858   7.826  1.1166  0.6395 -1.4722
 2226TIP3    H228314   2.950   0.819   7.928 -1.5547 -0.8065  0.8924
 2227TIP3   OH228315   1.459   2.773   7.904  0.1907  0.0819 -0.0114
 2227TIP3    H128316   1.508   2.708   7.853  1.5733  0.4267  0.8224
 2227TIP3    H228317   1.475   2.856   7.859 -3.6232 -0.3258 -2.5925
 2228TIP3   OH228318   3.170   1.237   0.569  0.6630 -0.3359 -0.4914
 2228TIP3    H128319   3.094   1.179   0.576  0.3375  0.2789  1.6532
 2228TIP3    H228320   3.238   1.194   0.621  0.4374  1.1079  1.0774
 2229TIP3   OH228321   1.780   4.858   7.866 -0.6454 -0.2067  0.4021
 2229TIP3    H128322   1.730   4.776   7.872  0.2876 -0.7670  0.7237
 2229TIP3    H228323   1.714   4.925   7.851 -1.4390 -1.0083  0.2199
 2230TIP3   OH228324   1.804   3.437   1.050 -0.1171  0.0280  0.0194
 2230TIP3    H128325   1.721   3.427   1.097  0.4088 -0.8466  0.7897
 2230TIP3    H228326   1.785   3.407   0.961 -0.8763  0.7885 -0.0982
 2231TIP3   OH228327   6.317   1.084   7.082  0.1054  0.1164 -0.3251
 2231TIP3    H128328   6.252   1.143   7.043  0.6202  0.4092 -0.7518
 2231TIP3    H228329   6.401   1.126   7.065  0.3656  0.1453  0.9279
 2232TIP3   OH228330   5.761   5.266   0.899 -0.0056 -0.2161  0.1178
 2232TIP3    H128331   5.807   5.342   0.863  0.9651 -0.6916  0.3099
 2232TIP3    H228332   5.671   5.276   0.870  0.2005  0.7861 -0.2154
 2233TIP3   OH228333   5.911   4.116   0.523  0.0493  0.5444  0.3296
 2233TIP3    H128334   5.899   4.133   0.430  2.3583 -0.4873 -0.2209
 2233TIP3    H228335   5.848   4.047   0.544  1.5946 -1.4716 -1.2715
 2234TIP3   OH228336   0.177   4.950   7.459 -0.2706 -0.0453  0.3303
 2234TIP3    H128337   0.226   5.009   7.517 -2.2935  0.6375  1.4563
 2234TIP3    H228338   0.118   5.007   7.411 -1.4202 -1.0112  0.5484
 2235TIP3   OH228339   4.231   6.221   8.069  0.4062  0.5833 -0.1470
 2235TIP3    H128340   4.148   6.265   8.088  0.5458  0.6716  0.2710
 2235TIP3    H228341   4.215   6.129   8.091  0.8686  0.8469  1.4115
 2236TIP3   OH228342   4.079   0.370   7.130 -0.1791  0.3590  0.1086
 2236TIP3    H128343   4.169   0.382   7.159  0.1302  0.4222 -0.8432
 2236TIP3    H228344   4.040   0.458   7.138  0.3776  0.7570 -1.1764
 2237TIP3   OH228345   5.357   7.005   0.442  0.5290 -0.0917 -0.2338
 2237TIP3    H128346   5.308   6.993   0.361  1.3177 -1.2325 -0.5699
 2237TIP3    H228347   5.297   6.976   0.511 -0.3116  1.3095 -0.3349
 2238TIP3   OH228348   1.540   5.208   6.752  0.3518 -0.5361 -0.2129
 2238TIP3    H128349   1.600   5.135   6.769 -1.0876 -1.7634 -0.1962
 2238TIP3    H228350   1.510   5.194   6.662  0.7605  0.6019 -0.5537
 2239TIP3   OH228351   3.251   0.269   8.026  0.2104  0.1481  0.6264
 2239TIP3    H128352   3.211   0.355   8.013  0.7637  0.6570  2.1746
 2239TIP3    H228353   3.221   0.218   7.950  1.9120  2.4141 -1.7657
 2240TIP3   OH228354   1.573   4.042   0.092 -0.4094 -0.2687 -0.4818
 2240TIP3    H128355   1.485   4.068   0.117 -0.1472 -0.0547  0.2572
 2240TIP3    H228356   1.603   4.110   0.032 -1.6232 -1.5925 -2.7025
 2241TIP3   OH228357   4.119   4.239   7.724  0.0087  0.0398  0.4036
 2241TIP3    H128358   4.121   4.333   7.705 -0.8672 -0.1612 -0.7219
 2241TIP3    H228359   4.042   4.206   7.679 -0.4541 -1.0077  1.8848
 2242TIP3   OH228360   3.224   6.283   0.000  0.1510  0.3652  0.6106
 2242TIP3    H128361   3.160   6.313   0.064  1.0991  1.7912  0.9358
 2242TIP3    H228362   3.278   6.359  -0.018  0.9565 -0.4539 -0.6437
 2243TIP3   OH228363   5.436   2.286   1.843  0.2609 -0.7035 -0.0951
 2243TIP3    H128364   5.511   2.344   1.839  0.8894 -1.5636 -2.1639
 2243TIP3    H228365   5.363   2.339   1.810  0.6171 -0.7644 -1.0024
 2244TIP3   OH228366   2.825   1.163   0.111 -0.3684  0.0137  0.0763
 2244TIP3    H128367   2.809   1.084   0.058 -0.1398  0.5271 -0.7763
 2244TIP3    H228368   2.738   1.188   0.144 -0.9611  1.1101 -2.1275
 2245TIP3   OH228369   6.061   1.400   0.196  0.0402  0.2072  0.1110
 2245TIP3    H128370   6.056   1.482   0.245  1.0500  0.6243 -0.4551
 2245TIP3    H228371   5.993   1.409   0.129 -1.2540 -0.3074  1.3014
 2246TIP3   OH228372   1.071   0.019   1.732 -0.3569  0.4802  0.4998
 2246TIP3    H128373   1.085  -0.052   1.670  1.5402  1.2219 -0.0173
 2246TIP3    H228374   0.989   0.060   1.704  1.3069  1.9338 -2.7910
 2247TIP3   OH228375   2.463   3.305   8.035 -0.6652 -0.1507  0.3048
 2247TIP3    H128376   2.466   3.212   8.058  0.5036  0.0075  0.8192
 2247TIP3    H228377   2.375   3.332   8.059 -0.6451 -0.8535  1.2174
 2248TIP3   OH228378   6.811   4.477   8.088 -0.2318 -0.1299 -0.3778
 2248TIP3    H128379   6.843   4.389   8.108 -1.8184 -0.7131 -0.2277
 2248TIP3    H228380   6.787   4.513   8.174 -0.3570  0.1315 -0.5218
 2249TIP3   OH228381   2.467   4.417   7.320 -0.4495 -0.2828 -0.1290
 2249TIP3    H128382   2.551   4.392   7.281 -0.4835 -0.1673 -0.2782
 2249TIP3    H228383   2.485   4.422   7.414 -0.5946 -1.5055 -0.0107
 2250TIP3   OH228384   6.712   4.668   2.099  0.1390 -1.1279  0.3639
 2250TIP3    H128385   6.731   4.744   2.154  0.8580 -0.4242 -0.8157
 2250TIP3    H228386   6.788   4.611   2.111 -0.5009 -1.8031  1.4222
 2251TIP3   OH228387   6.388   5.497   6.245 -0.4636 -0.0358  0.3245
 2251TIP3    H128388   6.376   5.423   6.304  0.1509 -0.1236  0.3375
 2251TIP3    H228389   6.482   5.500   6.228 -0.5162  0.5838  0.1191
 2252TIP3   OH228390   5.838   0.547   7.744 -0.2433 -0.1811 -0.0824
 2252TIP3    H128391   5.763   0.569   7.688  0.5635  1.2071 -0.6743
 2252TIP3    H228392   5.830   0.607   7.818  0.5914  0.4145 -0.4536
 2253TIP3   OH228393   4.883   5.585   1.328 -0.6443  0.3925  0.0599
 2253TIP3    H128394   4.976   5.562   1.325 -0.6747 -0.4701  2.7751
 2253TIP3    H228395   4.876   5.640   1.406 -2.0652  2.5081 -1.4568
 2254TIP3   OH228396   3.295   6.450   6.939 -0.6126  0.5283 -0.3389
 2254TIP3    H128397   3.318   6.365   6.903  0.2928 -0.4791  2.3152
 2254TIP3    H228398   3.222   6.481   6.886 -0.3630 -1.4662 -1.9430
 2255TIP3   OH228399   0.733   3.955   1.179 -0.5045 -0.4737  0.1863
 2255TIP3    H128400   0.674   3.903   1.234  0.1155 -2.1091 -0.6425
 2255TIP3    H228401   0.743   3.903   1.099  0.6437  0.6304 -0.4151
 2256TIP3   OH228402   0.875   1.485   7.114 -0.8384 -0.2644  0.0978
 2256TIP3    H128403   0.892   1.515   7.025  0.1984 -0.4947  0.2008
 2256TIP3    H228404   0.784   1.458   7.114 -0.9723  0.1585 -0.7718
 2257TIP3   OH228405   2.210   5.021   1.042  0.0420  0.2012 -0.0395
 2257TIP3    H128406   2.254   5.038   0.959 -0.3577 -0.8063 -0.4698
 2257TIP3    H228407   2.234   4.931   1.064  1.9631  1.1140  2.0767
 2258TIP3   OH228408   4.473   4.771   0.601 -0.4108  0.1524  0.1319
 2258TIP3    H128409   4.386   4.797   0.573  0.4120  1.2839 -1.5742
 2258TIP3    H228410   4.512   4.851   0.636  0.9193  0.4809 -1.8765
 2259TIP3   OH228411   0.768   7.080   1.693  0.0935  0.0503  0.3774
 2259TIP3    H128412   0.789   7.007   1.751 -0.6416 -0.5288 -0.0780
 2259TIP3    H228413   0.683   7.112   1.723  1.1208  1.8228  1.6398
 2260TIP3   OH228414   5.477   6.328   8.110  0.4899 -0.0175  0.3087
 2260TIP3    H128415   5.427   6.274   8.050  1.3141 -0.7089  0.2174
 2260TIP3    H228416   5.554   6.275   8.132  1.1319  0.9579  0.5141
 2261TIP3   OH228417   4.553   4.934   0.811 -0.5290  0.2035  0.3992
 2261TIP3    H128418   4.635   4.887   0.820 -1.1558 -1.0771 -0.3044
 2261TIP3    H228419   4.494   4.893   0.873 -1.5365 -1.0684 -1.2997
 2262TIP3   OH228420   4.951   3.158   2.091 -0.2488 -0.0841  0.3383
 2262TIP3    H128421   4.889   3.136   2.160  0.0693 -0.9157  0.3674
 2262TIP3    H228422   4.899   3.153   2.010 -0.5130  0.4557  0.4699
 2263TIP3   OH228423   6.582   1.696   0.555  0.4773 -0.0452  0.0650
 2263TIP3    H128424   6.590   1.709   0.649 -0.8763 -0.6287  0.2924
 2263TIP3    H228425   6.535   1.613   0.546  2.0597 -0.8593 -1.1707
 2264TIP3   OH228426   2.183   5.854   1.932 -0.3128 -0.3011 -0.6049
 2264TIP3    H128427   2.227   5.785   1.881  1.5413  1.7109 -1.9100
 2264TIP3    H228428   2.151   5.809   2.010  0.3199 -2.7348 -1.6424
 2265TIP3   OH228429   3.219   6.966   2.322 -0.1575 -0.0254 -0.0427
 2265TIP3    H128430   3.303   6.927   2.298 -0.4931 -0.1574 -1.0373
 2265TIP3    H228431   3.157   6.894   2.315 -0.2554 -0.1290  1.4623
 2266TIP3   OH228432   4.590   2.869   2.423 -0.1519  0.2803 -0.5389
 2266TIP3    H128433   4.564   2.863   2.331 -2.1499 -0.9244  0.0317
 2266TIP3    H228434   4.660   2.803   2.433 -1.3668 -1.1060 -0.7920
 2267TIP3   OH228435   2.683   1.107   1.479 -0.0430  0.6450 -0.1357
 2267TIP3    H128436   2.637   1.141   1.402 -0.5951  1.4267  0.5222
 2267TIP3    H228437   2.628   1.034   1.507 -0.4835  1.0936  0.1942
 2268TIP3   OH228438   4.587   6.796   0.391 -0.0764  0.3691  0.0093
 2268TIP3    H128439   4.584   6.719   0.334 -0.3979  0.5189 -0.1838
 2268TIP3    H228440   4.511   6.785   0.449 -0.2664  0.6622 -0.1828
 2269TIP3   OH228441   5.524   6.277   1.336  0.4219 -0.7750 -0.2926
 2269TIP3    H128442   5.606   6.235   1.363  0.4149  0.6449  2.2735
 2269TIP3    H228443   5.457   6.210   1.350  0.9035 -1.3233 -0.5556
 2270TIP3   OH228444   2.853   1.966   1.905  0.1414  0.1461  0.4065
 2270TIP3    H128445   2.831   1.878   1.876  1.9817 -0.1634 -0.1912
 2270TIP3    H228446   2.856   1.960   2.001  2.8824 -1.2119  0.3391
 2271TIP3   OH228447   1.674   6.549   7.549 -0.3110  0.1030  0.6786
 2271TIP3    H128448   1.670   6.640   7.579  0.2059  0.3935 -0.0824
 2271TIP3    H228449   1.761   6.519   7.576  0.4357  0.5852 -1.0487
 2272TIP3   OH228450   3.494   4.147   0.050  0.0096 -0.0375  0.0704
 2272TIP3    H128451   3.494   4.206  -0.025  0.7790  0.1770  0.2234
 2272TIP3    H228452   3.452   4.067   0.018 -0.6925  0.4499 -0.2499
 2273TIP3   OH228453   2.661   6.340   0.827  0.2959 -0.1648  0.6507
 2273TIP3    H128454   2.651   6.260   0.878  0.5535  0.5307  1.8347
 2273TIP3    H228455   2.706   6.400   0.886 -1.3875  1.4176  0.4068
 2274TIP3   OH228456   5.028   3.459   0.457  0.1607 -0.5891  0.1751
 2274TIP3    H128457   5.116   3.460   0.494  0.5094 -2.3645 -0.5001
 2274TIP3    H228458   5.012   3.549   0.430  2.4422 -0.5163 -1.1732
 2275TIP3   OH228459   0.825   0.822   2.761 -0.2435 -0.0864 -0.4089
 2275TIP3    H128460   0.917   0.842   2.746 -0.4715  0.7257 -0.7636
 2275TIP3    H228461   0.777   0.885   2.707 -1.0000 -1.2765 -1.1778
 2276TIP3   OH228462   4.245   6.639   1.334  0.2607  0.4083 -0.2878
 2276TIP3    H128463   4.301   6.635   1.257  1.6630 -1.9443  0.7125
 2276TIP3    H228464   4.174   6.577   1.316 -0.3114  1.0611 -0.3163
 2277TIP3   OH228465   2.673   5.863   7.146 -0.3237 -0.4027  0.3161
 2277TIP3    H128466   2.618   5.785   7.146  0.5973 -1.0770  1.2676
 2277TIP3    H228467   2.716   5.862   7.060 -1.1109 -0.3344 -0.0945
 2278TIP3   OH228468   3.882   0.080   6.198  0.2186 -0.3338 -0.2745
 2278TIP3    H128469   3.828   0.159   6.200 -1.6127 -1.5273  0.2964
 2278TIP3    H228470   3.946   0.093   6.267 -1.2047 -0.0759  1.0456
 2279TIP3   OH228471   0.645   1.795   0.996 -0.5937 -0.4094 -0.6955
 2279TIP3    H128472   0.594   1.722   1.031  0.7668 -0.6896  0.7851
 2279TIP3    H228473   0.736   1.767   1.003  0.0005  1.5889  0.3110
 2280TIP3   OH228474   6.790   6.463   0.051  0.1211 -0.4202  0.2780
 2280TIP3    H128475   6.703   6.436   0.021  0.9763 -1.1295 -1.6670
 2280TIP3    H228476   6.772   6.516   0.129 -2.1309  0.3408 -0.6757
 2281TIP3   OH228477   4.415   0.250   0.410 -0.0158  0.0011 -0.0099
 2281TIP3    H128478   4.487   0.302   0.375  0.0009 -0.1681 -0.2291
 2281TIP3    H228479   4.395   0.290   0.494  0.5120 -0.1114  0.1730
 2282TIP3   OH228480   5.713   2.256   1.314  0.4118  0.2295 -0.2560
 2282TIP3    H128481   5.809   2.256   1.316  0.4074 -0.4151  1.0121
 2282TIP3    H228482   5.688   2.348   1.321  0.9355  0.3300  0.3486
 2283TIP3   OH228483   2.315   2.691   8.088  0.2740 -0.6198  0.5942
 2283TIP3    H128484   2.389   2.632   8.100 -0.4240 -1.8050 -0.7669
 2283TIP3    H228485   2.259   2.648   8.025 -1.5630  0.3042  1.5222
 2284TIP3   OH228486   2.617   2.680   0.431 -0.1315 -0.4043 -0.2399
 2284TIP3    H128487   2.587   2.627   0.504  0.3652 -0.8785 -0.3747
 2284TIP3    H228488   2.659   2.618   0.372  0.0364  0.0690 -0.6272
 2285TIP3   OH228489   3.220   5.084   0.716 -1.0604  0.3214  0.2078
 2285TIP3    H128490   3.258   4.999   0.741  2.4032  1.9034  0.9407
 2285TIP3    H228491   3.189   5.122   0.798  1.1650  1.3769  0.6240
 2286TIP3   OH228492   5.289   6.156   1.145 -0.4008 -0.3125 -0.3207
 2286TIP3    H128493   5.341   6.234   1.130  0.8618 -1.2413 -0.9557
 2286TIP3    H228494   5.200   6.189   1.157  0.3682  1.3531  1.2569
 2287TIP3   OH228495   0.067   3.965   2.275 -0.0155  0.0275 -0.1930
 2287TIP3    H128496   0.096   3.898   2.336 -2.6186 -1.8632 -0.8609
 2287TIP3    H228497   0.035   4.037   2.330  2.5706  0.7300  0.5288
 2288TIP3   OH228498   3.728   6.891   6.378  0.2349 -0.1777  0.0710
 2288TIP3    H128499   3.801   6.887   6.315  1.1351  0.0389  1.0749
 2288TIP3    H228500   3.684   6.973   6.358  0.6695  0.0156 -0.1020
 2289TIP3   OH228501   1.473   6.224   6.773 -1.0838 -0.2588  0.2942
 2289TIP3    H128502   1.381   6.201   6.785 -1.1967 -0.4264 -0.7303
 2289TIP3    H228503   1.520   6.178   6.843 -1.6174 -1.3957 -0.0696
 2290TIP3   OH228504   1.412   5.662   0.571 -0.1995  0.1245  0.1919
 2290TIP3    H128505   1.344   5.620   0.623  0.0849  0.9541  1.2664
 2290TIP3    H228506   1.492   5.614   0.592 -0.2145 -0.0009 -0.0377
 2291TIP3   OH228507   6.325   0.686   7.849  0.0320  0.1218  0.3360
 2291TIP3    H128508   6.266   0.611   7.842  0.5988 -0.2901 -0.1253
 2291TIP3    H228509   6.413   0.649   7.834  0.5735  0.4761  2.3581
 2292TIP3   OH228510   0.845   3.173   7.818  0.1267  0.1915 -0.0386
 2292TIP3    H128511   0.826   3.087   7.856 -0.7934  0.5022  0.2550
 2292TIP3    H228512   0.871   3.227   7.893 -1.9515  0.8803  0.2668
 2293TIP3   OH228513   3.175   5.489   0.747 -0.0227  0.8097  0.3511
 2293TIP3    H128514   3.205   5.445   0.826  0.9685 -0.1973 -0.5612
 2293TIP3    H228515   3.106   5.548   0.778 -1.7178 -1.6624  1.5756
 2294TIP3   OH228516   4.699   6.694   0.654  0.3206 -0.4196  0.0836
 2294TIP3    H128517   4.745   6.777   0.662 -0.1698 -0.0659 -0.6025
 2294TIP3    H228518   4.617   6.716   0.609  1.0800 -1.5706 -2.0049
 2295TIP3   OH228519   5.352   0.229   1.011  0.0990  0.0746 -0.5638
 2295TIP3    H128520   5.282   0.216   1.076  1.6174 -1.4026  0.8700
 2295TIP3    H228521   5.340   0.320   0.982 -1.8852  0.1325  0.2602
 2296TIP3   OH228522   0.133   5.801   7.582  0.1701  0.6982  0.2365
 2296TIP3    H128523   0.164   5.734   7.522 -0.6681 -0.7758  1.3736
 2296TIP3    H228524   0.068   5.851   7.532 -1.2407 -1.1221  0.1696
 2297TIP3   OH228525   3.368   2.121   2.291  0.2299  0.0517 -0.2106
 2297TIP3    H128526   3.421   2.193   2.326 -0.4315 -0.7099  2.6258
 2297TIP3    H228527   3.419   2.043   2.308 -0.9710 -0.5282  0.8911
 2298TIP3   OH228528   6.916   1.713   2.355  0.4359  0.4879 -0.3715
 2298TIP3    H128529   6.904   1.692   2.262 -1.2069  0.4089 -0.1746
 2298TIP3    H228530   6.869   1.795   2.368  0.4751  0.3950  0.4239
 2299TIP3   OH228531   0.324   5.037   1.404 -0.2099 -0.6149 -0.1823
 2299TIP3    H128532   0.339   5.060   1.496  1.2216 -0.0152 -0.5309
 2299TIP3    H228533   0.297   5.119   1.363  0.8258 -0.4735 -0.6134
 2300TIP3   OH228534   2.089   1.085   0.432 -0.7689  0.2393 -0.4363
 2300TIP3    H128535   2.115   1.150   0.367 -1.5112  1.1109  0.1144
 2300TIP3    H228536   2.061   1.136   0.508 -2.7741 -0.6531 -0.5066
 2301TIP3   OH228537   3.941   3.261   1.099 -0.2169  0.1681  0.2154
 2301TIP3    H128538   3.848   3.283   1.104 -0.2450  0.0292  0.3257
 2301TIP3    H228539   3.985   3.328   1.151 -0.2382  0.3323  0.0232
 2302TIP3   OH228540   5.852   4.793   2.410  0.1825 -0.1899 -0.3210
 2302TIP3    H128541   5.911   4.760   2.477 -2.6763  0.4191  2.7128
 2302TIP3    H228542   5.790   4.723   2.396 -0.2217  0.3144 -1.1383
 2303TIP3   OH228543   1.143   0.468   2.383 -0.4080 -0.1709  0.5476
 2303TIP3    H128544   1.190   0.399   2.337 -0.9497 -0.5783  0.5885
 2303TIP3    H228545   1.057   0.430   2.403  0.2595 -0.4843  3.0884
 2304TIP3   OH228546   4.853   0.428   2.282  0.7991 -0.5016 -0.4087
 2304TIP3    H128547   4.947   0.446   2.283  0.6490  1.5896 -4.2279
 2304TIP3    H228548   4.825   0.456   2.195 -3.7021  0.5926  1.1664
 2305TIP3   OH228549   0.588   0.713   8.137 -0.3507  0.1283  0.1145
 2305TIP3    H128550   0.610   0.806   8.139 -2.5932  0.7602 -1.0413
 2305TIP3    H228551   0.564   0.692   8.227 -1.1409  1.0638  0.1430
 2306TIP3   OH228552   6.343   6.182   0.541  0.7808 -0.6982 -0.2550
 2306TIP3    H128553   6.322   6.099   0.584 -1.9507  0.3462  0.6434
 2306TIP3    H228554   6.388   6.233   0.607 -2.4567  0.4959  1.2438
 2307TIP3   OH228555   4.276   1.219   1.300 -0.0668 -0.1864 -0.2339
 2307TIP3    H128556   4.347   1.269   1.339  0.2460  0.5442 -1.6974
 2307TIP3    H228557   4.211   1.284   1.275  0.0712 -0.5498 -1.5983
 2308TIP3   OH228558   5.920   5.039   8.111 -0.4532 -0.0201  0.4992
 2308TIP3    H128559   5.840   4.987   8.106 -0.4522 -0.0900  1.0639
 2308TIP3    H228560   5.989   4.981   8.080 -0.4813 -0.2939  0.9432
 2309TIP3   OH228561   7.013   3.532   1.759 -0.0567 -0.2226 -0.5001
 2309TIP3    H128562   7.038   3.513   1.849 -1.7836  2.0833  0.5692
 2309TIP3    H228563   7.007   3.446   1.717  1.6279 -1.3021  1.3100
 2310TIP3   OH228564   2.832   2.750   1.170  0.1590  0.0818 -0.0548
 2310TIP3    H128565   2.919   2.777   1.142  0.2477  0.5501  0.6483
 2310TIP3    H228566   2.803   2.819   1.229  0.2013 -1.1213  1.4461
 2311TIP3   OH228567   6.742   1.367   1.439  0.0811  0.1817 -0.4171
 2311TIP3    H128568   6.794   1.426   1.493 -0.7152  0.7884 -0.2895
 2311TIP3    H228569   6.716   1.421   1.364 -0.3617 -0.1053 -0.4732
 2312TIP3   OH228570   0.663   5.577   1.910  0.8744  0.4033  0.1699
 2312TIP3    H128571   0.659   5.612   1.999 -0.0644  0.1514  0.2311
 2312TIP3    H228572   0.741   5.618   1.872  0.8633  1.0869  0.8587
 2313TIP3   OH228573   2.833   5.413   7.903 -0.1410 -0.2431 -0.3052
 2313TIP3    H128574   2.766   5.448   7.844 -1.6320  0.2148  1.5436
 2313TIP3    H228575   2.916   5.431   7.858 -1.1674  0.4478 -2.0449
 2314TIP3   OH228576   1.396   4.623   8.106 -0.3466  0.0533 -0.0090
 2314TIP3    H128577   1.469   4.663   8.059  0.5168  0.3994  1.5728
 2314TIP3    H228578   1.325   4.688   8.098  0.4460  1.0622  0.9100
 2315TIP3   OH228579   5.735   3.794   0.981  0.4866  0.1323  0.6501
 2315TIP3    H128580   5.657   3.837   0.946  1.3729  1.6469  0.4881
 2315TIP3    H228581   5.776   3.753   0.905  0.0882 -0.3039  0.6656
 2316TIP3   OH228582   5.475   3.509   8.006  0.6715  0.1692  0.4272
 2316TIP3    H128583   5.394   3.558   7.995  0.8533  0.4712  0.4268
 2316TIP3    H228584   5.470   3.440   7.940 -0.1116 -0.5287  1.1837
 2317TIP3   OH228585   1.772   3.086   0.468  0.2574  0.1821  0.7021
 2317TIP3    H128586   1.792   3.075   0.375 -0.5971 -0.5592  0.5848
 2317TIP3    H228587   1.678   3.104   0.470  0.3785  0.7790  1.3928
 2318TIP3   OH228588   5.504   4.531   0.355 -0.0931  0.0400  0.7954
 2318TIP3    H128589   5.570   4.584   0.400  0.0316  0.4485  0.1458
 2318TIP3    H228590   5.503   4.448   0.403  1.9597 -0.5314 -0.0283
 2319TIP3   OH228591   3.259   3.219   2.066  0.4221  0.0650 -0.0761
 2319TIP3    H128592   3.169   3.251   2.071  0.8329  1.1021  1.4227
 2319TIP3    H228593   3.290   3.219   2.156  2.2446  0.6871 -0.6379
 2320TIP3   OH228594   3.401   5.817   1.129  0.6040 -0.0210 -0.3617
 2320TIP3    H128595   3.390   5.866   1.047  1.4317 -2.0301 -1.7487
 2320TIP3    H228596   3.376   5.727   1.107 -0.9588 -0.3054  2.1051
 2321TIP3   OH228597   6.703   3.518   6.977  0.8287 -0.5777  0.0348
 2321TIP3    H128598   6.700   3.448   7.043 -0.7655 -0.9595 -0.4103
 2321TIP3    H228599   6.648   3.486   6.905 -0.9228  1.5978  0.3056
 2322TIP3   OH228600   3.640   2.596   7.823 -0.6640  0.9490  0.4081
 2322TIP3    H128601   3.695   2.651   7.880 -1.3304  0.5574  1.4545
 2322TIP3    H228602   3.602   2.531   7.882  0.1457 -0.6820 -0.8272
 2323TIP3   OH228603   5.667   1.659   0.376 -0.3063 -0.1790 -1.1509
 2323TIP3    H128604   5.672   1.628   0.466  0.4939  0.5318 -0.9453
 2323TIP3    H228605   5.581   1.702   0.370 -1.8345 -3.0452 -1.6720
 2324TIP3   OH228606   1.358   1.403   1.452 -0.4323 -0.0153 -0.3134
 2324TIP3    H128607   1.393   1.409   1.540 -2.8140 -0.5448  0.7506
 2324TIP3    H228608   1.341   1.494   1.427  1.2114  0.2177 -0.6990
 2325TIP3   OH228609   3.466   4.453   1.096 -0.4719  0.0759 -0.0558
 2325TIP3    H128610   3.417   4.533   1.076 -0.7630 -0.2268 -0.5883
 2325TIP3    H228611   3.543   4.458   1.040 -1.4507 -0.9315 -1.5703
 2326TIP3   OH228612   4.518   5.236   0.034 -0.4749 -0.2613 -0.0792
 2326TIP3    H128613   4.611   5.246   0.014  0.0280  0.6362  2.3286
 2326TIP3    H228614   4.514   5.159   0.091 -0.8724  0.8420  1.4565
 2327TIP3   OH228615   3.794   3.600   0.668  0.8350  0.0635  0.0810
 2327TIP3    H128616   3.763   3.510   0.655 -1.1106  0.8519 -1.0569
 2327TIP3    H228617   3.890   3.593   0.658  0.7116 -1.8388 -0.2176
 2328TIP3   OH228618   5.887   1.866   2.603  0.4642  0.2938 -0.3366
 2328TIP3    H128619   5.799   1.841   2.576  0.3725  0.4675 -0.1984
 2328TIP3    H228620   5.877   1.897   2.693  0.7652 -0.2657 -0.1034
 2329TIP3   OH228621   5.246   3.393   7.482  0.1215 -0.3557  0.1203
 2329TIP3    H128622   5.201   3.334   7.421  0.7159 -1.4309  0.6978
 2329TIP3    H228623   5.260   3.473   7.431  2.2357 -1.8418 -1.8252
 2330TIP3   OH228624   0.681   5.585   7.126  0.2635 -0.3828 -0.4243
 2330TIP3    H128625   0.617   5.651   7.154  1.7656  1.2210 -0.5782
 2330TIP3    H228626   0.644   5.551   7.044 -1.9983 -1.9609  1.1437
 2331TIP3   OH228627   6.459   3.914   1.431 -0.1032 -0.3641 -0.3415
 2331TIP3    H128628   6.460   3.859   1.510  2.9120 -0.2362 -0.1720
 2331TIP3    H228629   6.467   3.852   1.359 -0.0148 -0.3379 -0.3546
 2332TIP3   OH228630   1.148   2.260   7.547 -0.3869 -0.1708  0.3555
 2332TIP3    H128631   1.117   2.351   7.551 -0.4099  0.0775 -2.9040
 2332TIP3    H228632   1.068   2.207   7.554 -0.8870  0.2564 -1.4954
 2333TIP3   OH228633   6.197   6.865   1.057 -0.8753 -0.2449 -0.0086
 2333TIP3    H128634   6.120   6.885   1.109 -1.4435 -2.0673 -0.0582
 2333TIP3    H228635   6.271   6.888   1.114 -1.3606  2.5024 -0.3477
 2334TIP3   OH228636   5.123   3.319   7.255  0.3658 -0.1720 -0.1797
 2334TIP3    H128637   5.100   3.347   7.166  0.0559  0.0151 -0.0375
 2334TIP3    H228638   5.060   3.249   7.275  1.1308 -0.9831 -0.5339
 2335TIP3   OH228639   6.789   2.668   2.680  0.0092 -0.3881 -0.3068
 2335TIP3    H128640   6.811   2.730   2.751  1.0003 -0.8796 -0.1667
 2335TIP3    H228641   6.798   2.719   2.600 -2.7910  0.6700 -0.0689
 2336TIP3   OH228642   2.833   2.664   0.121 -0.2227 -0.2230  0.0588
 2336TIP3    H128643   2.782   2.592   0.159 -1.0050 -0.1207 -0.7492
 2336TIP3    H228644   2.767   2.731   0.100  0.3432  0.2218 -0.3263
 2337TIP3   OH228645   2.231   1.877   7.094 -0.1019 -0.3697 -0.9013
 2337TIP3    H128646   2.151   1.919   7.127  0.7024  1.2990 -0.9859
 2337TIP3    H228647   2.239   1.909   7.004 -0.1546 -1.7660 -1.4213
 2338TIP3   OH228648   0.668   1.918   1.750  0.0131 -0.4274  0.0023
 2338TIP3    H128649   0.714   1.843   1.715 -0.9768 -0.5664 -1.0873
 2338TIP3    H228650   0.588   1.882   1.789 -0.7031  0.0711 -0.9500
 2339TIP3   OH228651   6.100   3.690   0.205 -0.0268 -0.6189 -0.2649
 2339TIP3    H128652   6.141   3.754   0.147 -0.8679 -0.9751 -1.2741
 2339TIP3    H228653   6.091   3.735   0.288  1.6615 -0.2637 -0.2369
 2340TIP3   OH228654   6.019   2.251   0.405 -0.5198 -0.3823 -0.7863
 2340TIP3    H128655   6.048   2.268   0.315  0.4251 -2.0022 -0.8227
 2340TIP3    H228656   5.944   2.192   0.395  0.6632 -2.0105 -0.5183
 2341TIP3   OH228657   6.932   0.585   1.109  0.0366  0.9752  0.6034
 2341TIP3    H128658   6.865   0.646   1.077  1.1866  1.9588 -0.0024
 2341TIP3    H228659   6.972   0.632   1.183  1.5544  1.3879 -0.4457
 2342TIP3   OH228660   1.878   0.621   1.837  0.1478 -0.6649 -0.0028
 2342TIP3    H128661   1.879   0.680   1.912  0.4488 -0.7715  0.0780
 2342TIP3    H228662   1.785   0.600   1.825 -0.0996  0.6536 -0.6872
 2343TIP3   OH228663   3.367   5.234   7.391  0.6138 -0.2585  0.4465
 2343TIP3    H128664   3.407   5.230   7.478 -1.1691 -0.4012  1.3069
 2343TIP3    H228665   3.296   5.298   7.400  0.7027  0.0858 -1.0432
 2344TIP3   OH228666   2.889   5.042   7.281  0.1860 -0.6602  0.1258
 2344TIP3    H128667   2.984   5.046   7.282  0.1707  0.3134 -0.8650
 2344TIP3    H228668   2.863   5.067   7.371  0.8775 -2.6254  0.9092
 2345TIP3   OH228669   3.845   0.730   7.867 -0.4442 -0.3305  0.2288
 2345TIP3    H128670   3.781   0.702   7.933 -1.6686  0.6598 -0.4914
 2345TIP3    H228671   3.882   0.648   7.833 -0.2411 -0.8679  1.6912
 2346TIP3   OH228672   1.336   5.225   0.815 -0.5933  0.3560 -0.5193
 2346TIP3    H128673   1.343   5.263   0.728 -0.7680 -0.0132 -0.6977
 2346TIP3    H228674   1.249   5.184   0.817 -1.6349  2.4666  0.6866
 2347TIP3   OH228675   6.393   1.439   7.010  0.4875  0.6937  0.0924
 2347TIP3    H128676   6.411   1.506   6.944  1.4206  0.7545  0.3988
 2347TIP3    H228677   6.364   1.363   6.960  1.0639  0.7775 -0.3790
 2348TIP3   OH228678   0.688   3.856   0.449  0.2291 -0.4276  0.6219
 2348TIP3    H128679   0.708   3.893   0.363  0.5261  0.5560  1.0991
 2348TIP3    H228680   0.636   3.778   0.430  0.9605 -0.6690 -0.4807
 2349TIP3   OH228681   6.465   0.786   1.598 -0.4075 -0.1137 -0.3782
 2349TIP3    H128682   6.482   0.879   1.612 -0.4341 -0.1891  0.1559
 2349TIP3    H228683   6.472   0.747   1.685 -1.3433 -0.4618 -0.4503
 2350TIP3   OH228684   6.137   0.830   7.976 -0.1827 -0.9238 -0.1911
 2350TIP3    H128685   6.087   0.854   7.898 -1.7494 -2.9633  0.1002
 2350TIP3    H228686   6.213   0.783   7.942 -0.9485 -1.9576 -0.5129
 2351TIP3   OH228687   0.978   5.568   0.949  0.4631  0.0033 -0.1082
 2351TIP3    H128688   0.932   5.642   0.986  1.7525  1.0202 -0.4558
 2351TIP3    H228689   1.020   5.525   1.023  2.9353  1.9590 -0.2440
 2352TIP3   OH228690   5.175   2.376   0.656  0.5367  0.2021 -0.5135
 2352TIP3    H128691   5.175   2.297   0.601 -1.3512 -0.2029 -0.0198
 2352TIP3    H228692   5.230   2.438   0.609 -1.1118 -0.0603 -2.9927
 2353TIP3   OH228693   4.238   0.781   0.865  0.1705 -0.4084  0.1183
 2353TIP3    H128694   4.176   0.812   0.800  0.5302 -0.0267 -0.0487
 2353TIP3    H228695   4.184   0.747   0.937 -0.2389  0.7049  0.3488
 2354TIP3   OH228696   0.538   1.154   2.504 -0.3226  0.2235 -0.3916
 2354TIP3    H128697   0.501   1.075   2.544 -0.1701  1.3557  2.1557
 2354TIP3    H228698   0.633   1.140   2.510 -0.2850  0.0918 -1.1171
 2355TIP3   OH228699   3.958   0.211   0.045 -0.0762 -0.0604  0.3625
 2355TIP3    H128700   4.033   0.260   0.010 -0.6201  1.8507  1.6963
 2355TIP3    H228701   3.997   0.141   0.096  0.7757 -0.0413 -0.2329
 2356TIP3   OH228702   1.819   1.950   1.242  0.0070  0.7624 -0.1648
 2356TIP3    H128703   1.910   1.943   1.214  0.9114  1.6058  2.2646
 2356TIP3    H228704   1.792   2.038   1.216  0.7241  1.4143  1.2141
 2357TIP3   OH228705   1.471   6.911   0.789 -0.5027 -0.0804 -0.0121
 2357TIP3    H128706   1.399   6.953   0.742  0.4034  0.0152 -1.3825
 2357TIP3    H228707   1.499   6.977   0.853 -0.8827  0.3280 -0.2594
 2358TIP3   OH228708   0.672   0.967   8.122  0.0788  0.3959  0.8564
 2358TIP3    H128709   0.758   0.938   8.090  0.2624  0.3730  1.3671
 2358TIP3    H228710   0.643   1.031   8.057  0.2086 -0.0406  0.3576
 2359TIP3   OH228711   1.671   4.686   1.537  0.0401  0.3550 -0.4968
 2359TIP3    H128712   1.699   4.602   1.502  1.3237  0.9102 -0.8488
 2359TIP3    H228713   1.639   4.734   1.461 -0.8353  0.1410 -0.2730
 2360TIP3   OH228714   4.271   1.600   6.900  0.7664 -0.0812 -0.1543
 2360TIP3    H128715   4.222   1.550   6.965 -0.5489  0.5700 -0.6065
 2360TIP3    H228716   4.358   1.611   6.938 -0.1161  0.7453  1.7710
 2361TIP3   OH228717   5.246   5.907   7.571 -0.6974  0.4136  0.3199
 2361TIP3    H128718   5.292   5.973   7.519 -0.0849 -0.8079 -0.7479
 2361TIP3    H228719   5.200   5.854   7.507 -1.7573  0.2231  1.2171
 2362TIP3   OH228720   1.581   4.969   7.404 -0.5113  0.4577  0.2051
 2362TIP3    H128721   1.617   5.053   7.431 -1.0846  0.7672  0.0249
 2362TIP3    H228722   1.647   4.905   7.430  1.1588  1.1693 -1.9264
 2363TIP3   OH228723   4.629   3.375   6.719  0.0151  0.3178  0.2155
 2363TIP3    H128724   4.671   3.459   6.699 -1.2866  1.4569  2.0050
 2363TIP3    H228725   4.536   3.397   6.730 -0.1559 -1.1341  2.0026
 2364TIP3   OH228726   6.539   0.676   7.449 -0.2917 -0.4080  0.0508
 2364TIP3    H128727   6.557   0.583   7.441 -0.0993 -0.2984 -0.9549
 2364TIP3    H228728   6.453   0.687   7.408 -0.3891 -0.1728  0.3158
 2365TIP3   OH228729   2.430   3.894   7.393  0.0199 -0.4230 -0.3732
 2365TIP3    H128730   2.463   3.978   7.425 -0.0718 -0.7979  0.7265
 2365TIP3    H228731   2.379   3.859   7.465 -1.0437 -0.8313 -1.3012
 2366TIP3   OH228732   1.051   5.660   0.477  0.2438  0.2508 -0.0061
 2366TIP3    H128733   1.040   5.566   0.462 -1.8028  0.6611 -1.4809
 2366TIP3    H228734   1.052   5.698   0.389 -1.1294  1.7897  0.5890
 2367TIP3   OH228735   1.334   2.334   7.212 -0.3730  0.5083  0.3879
 2367TIP3    H128736   1.389   2.396   7.164 -0.0526  0.0931  0.2007
 2367TIP3    H228737   1.246   2.348   7.179 -0.8089  2.6935  2.2327
 2368TIP3   OH228738   6.613   1.309   1.682  1.0195 -0.2061 -0.2843
 2368TIP3    H128739   6.661   1.316   1.599  1.9816  0.3434  0.2896
 2368TIP3    H228740   6.527   1.345   1.663  0.6126 -1.7160 -1.4881
 2369TIP3   OH228741   1.274   7.016   6.831 -0.2624  0.1788  0.4746
 2369TIP3    H128742   1.280   7.025   6.736 -2.4456  3.6110  0.5025
 2369TIP3    H228743   1.359   7.046   6.863  0.2153 -0.2610 -0.3301
 2370TIP3   OH228744   4.744   5.853   6.655 -0.3798  0.3421  0.0324
 2370TIP3    H128745   4.808   5.925   6.655 -0.6650  0.6081 -0.6364
 2370TIP3    H228746   4.760   5.806   6.737 -1.1362  2.0093  1.1962
 2371TIP3   OH228747   1.547   3.443   1.849  1.0707  0.0806 -0.1427
 2371TIP3    H128748   1.587   3.520   1.807  1.5690  1.5150  2.7032
 2371TIP3    H228749   1.453   3.454   1.834  1.2682 -0.0441 -1.7046
 2372TIP3   OH228750   3.058   1.309   6.495  0.0866  0.6655 -0.0374
 2372TIP3    H128751   2.971   1.347   6.508  0.5743  2.5422 -1.7617
 2372TIP3    H228752   3.063   1.294   6.401  2.4633  2.9297 -0.3878
 2373TIP3   OH228753   0.412   2.227   1.488 -0.0018  0.1620 -0.5163
 2373TIP3    H128754   0.379   2.234   1.578  1.1464 -1.1764  0.0570
 2373TIP3    H228755   0.466   2.305   1.476 -1.3167  1.0884 -0.5830
 2374TIP3   OH228756   3.607   5.851   1.297 -0.2278 -0.0397 -0.2082
 2374TIP3    H128757   3.619   5.759   1.321 -0.0029  0.3926  1.4256
 2374TIP3    H228758   3.530   5.850   1.239  0.2306 -1.3299 -0.8490
 2375TIP3   OH228759   2.687   2.868   1.389 -0.4918  0.0443 -0.2623
 2375TIP3    H128760   2.682   2.793   1.449  1.5956  1.0594  1.2902
 2375TIP3    H228761   2.601   2.908   1.394 -0.7209 -0.5608  1.2083
 2376TIP3   OH228762   0.172   4.522   0.288 -0.0006  0.2767 -0.5579
 2376TIP3    H128763   0.220   4.540   0.207  0.4731  0.2895 -0.2771
 2376TIP3    H228764   0.229   4.552   0.357 -0.0216 -0.5415 -0.1670
 2377TIP3   OH228765   2.105   0.123   0.047 -0.0192  0.4804 -0.0053
 2377TIP3    H128766   2.016   0.092   0.027  0.6098 -0.4745 -1.4961
 2377TIP3    H228767   2.094   0.178   0.124 -2.0642  1.2237 -0.7562
 2378TIP3   OH228768   0.537   1.164   0.074 -0.1128  0.2191  0.6065
 2378TIP3    H128769   0.485   1.158   0.154 -0.6778 -0.7858  0.1872
 2378TIP3    H228770   0.604   1.096   0.083 -0.8045 -0.6032 -0.1874
 2379TIP3   OH228771   1.697   2.686   7.694 -0.4581  0.5451  0.4405
 2379TIP3    H128772   1.765   2.640   7.744 -1.3979 -1.0005  0.3574
 2379TIP3    H228773   1.691   2.772   7.735 -0.4703 -0.3144  2.3465
 2380TIP3   OH228774   0.366   3.679   1.165  0.0616 -0.5434 -0.1283
 2380TIP3    H128775   0.448   3.639   1.136  1.7085  1.9850  0.7303
 2380TIP3    H228776   0.361   3.761   1.116 -0.9496  0.2573  1.2519
 2381TIP3   OH228777   3.722   5.240   6.999  0.4424  0.9281 -0.7878
 2381TIP3    H128778   3.645   5.183   7.007  1.0411  0.1182 -0.6672
 2381TIP3    H228779   3.787   5.185   6.955  1.6862  0.8458  1.0653
 2382TIP3   OH228780   2.005   2.356   7.599  0.0229 -0.5652  0.5676
 2382TIP3    H128781   2.058   2.368   7.520  1.0643  1.0586  1.4579
 2382TIP3    H228782   1.963   2.271   7.587  1.7500 -1.2839 -0.8301
 2383TIP3   OH228783   3.888   6.034   0.071  0.0344 -0.5722  0.2591
 2383TIP3    H128784   3.914   6.076   0.153 -1.2761 -2.0420  1.4710
 2383TIP3    H228785   3.943   6.077   0.004 -0.5400  2.3590  1.5108
 2384TIP3   OH228786   5.205   3.205   6.413 -0.7522 -0.3508  0.0706
 2384TIP3    H128787   5.113   3.206   6.439 -1.2195  1.3516 -1.4190
 2384TIP3    H228788   5.230   3.298   6.408  0.8313 -0.7588 -0.2702
 2385TIP3   OH228789   4.311   1.039   1.699 -0.0393 -0.3102  0.6571
 2385TIP3    H128790   4.235   1.066   1.648  0.8703  0.3705 -0.3824
 2385TIP3    H228791   4.341   1.120   1.741  0.7470 -0.3481  0.1829
 2386TIP3   OH228792   3.341   0.830   7.660 -0.8300  0.2395 -0.4371
 2386TIP3    H128793   3.329   0.817   7.754  0.7918 -0.0170 -0.2436
 2386TIP3    H228794   3.352   0.742   7.625  0.8749  0.4435 -0.4979
 2387TIP3   OH228795   0.065   6.049   1.594 -0.0460 -0.2847  0.1935
 2387TIP3    H128796  -0.030   6.035   1.587  0.0123 -0.2819 -0.6365
 2387TIP3    H228797   0.098   5.966   1.628 -0.3032 -0.3991  0.1703
 2388TIP3   OH228798   6.753   3.351   2.156 -0.5228  0.2947 -0.3991
 2388TIP3    H128799   6.823   3.350   2.091  1.3643 -0.6622  1.5255
 2388TIP3    H228800   6.763   3.435   2.201  1.4456 -0.9902  1.8281
 2389TIP3   OH228801   6.635   2.160   7.955 -1.0702 -0.4506  0.3868
 2389TIP3    H128802   6.684   2.190   8.032 -0.2092 -0.7956 -0.0111
 2389TIP3    H228803   6.582   2.087   7.987 -0.3694 -0.8967  0.5700
 2390TIP3   OH228804   0.645   3.001   6.923 -0.0971  0.2113 -0.0355
 2390TIP3    H128805   0.727   2.971   6.885 -1.0855 -0.1334 -2.0436
 2390TIP3    H228806   0.621   2.932   6.986  0.9016  0.1051  0.2412
 2391TIP3   OH228807   3.907   2.932   7.472 -0.3324  0.6680 -0.4096
 2391TIP3    H128808   3.915   2.906   7.380  0.1015 -0.2435 -0.1257
 2391TIP3    H228809   3.856   2.862   7.512 -0.6936  1.1639  0.0063
 2392TIP3   OH228810   6.219   6.627   0.430 -0.4511 -0.0913  1.1847
 2392TIP3    H128811   6.205   6.656   0.520 -0.6029  1.5645  0.6665
 2392TIP3    H228812   6.137   6.646   0.385 -0.4142 -0.9916  0.7051
 2393TIP3   OH228813   4.219   0.506   8.184 -0.3319 -0.3449  0.4620
 2393TIP3    H128814   4.182   0.480   8.269 -0.7562 -0.6712  0.1873
 2393TIP3    H228815   4.307   0.537   8.204 -0.9771  1.0592  1.2276
 2394TIP3   OH228816   5.288   1.834   1.134 -0.4031  0.2699  0.1367
 2394TIP3    H128817   5.201   1.834   1.176 -0.0471 -0.1314  0.9049
 2394TIP3    H228818   5.278   1.891   1.058 -1.0763  1.0345  0.7718
 2395TIP3   OH228819   6.711   6.062   6.980 -0.4391 -0.2670  0.1667
 2395TIP3    H128820   6.627   6.093   6.946  0.0363  2.1552  0.9650
 2395TIP3    H228821   6.757   6.027   6.904 -0.9732  1.3026 -0.9250
 2396TIP3   OH228822   2.186   0.682   1.949  0.4785  0.4059  0.4490
 2396TIP3    H128823   2.138   0.609   1.988 -2.3296  1.6431 -0.4296
 2396TIP3    H228824   2.126   0.756   1.954  0.8907  1.2900 -3.6961
 2397TIP3   OH228825   4.598   0.863   1.626 -0.2923 -0.5579  0.0223
 2397TIP3    H128826   4.636   0.852   1.539  0.3104 -0.1578  0.2256
 2397TIP3    H228827   4.526   0.925   1.613 -0.4166 -0.7559 -0.2451
 2398TIP3   OH228828   5.638   0.354   8.221  0.3237 -0.2282 -0.1469
 2398TIP3    H128829   5.587   0.385   8.296  0.0650 -0.3458 -0.2732
 2398TIP3    H228830   5.727   0.344   8.255 -0.0478 -1.5905  0.5228
 2399TIP3   OH228831   3.274   3.717   6.722  0.1683  0.5506 -0.2597
 2399TIP3    H128832   3.279   3.720   6.818  1.3475 -2.1737 -0.1286
 2399TIP3    H228833   3.187   3.682   6.704 -0.1775  1.3703 -0.2277
 2400TIP3   OH228834   5.608   3.346   2.028  0.3158  0.5148 -0.4515
 2400TIP3    H128835   5.518   3.375   2.045 -0.1600 -0.6408 -0.8914
 2400TIP3    H228836   5.661   3.392   2.093 -0.9219 -0.7028  1.5406
 2401TIP3   OH228837   5.012   6.861   1.143  0.3015 -0.4492  0.3723
 2401TIP3    H128838   4.920   6.880   1.159 -0.3098 -2.0498 -0.9228
 2401TIP3    H228839   5.025   6.882   1.050  1.2794 -0.1118  0.5696
 2402TIP3   OH228840   1.198   0.937   2.004  0.1236 -0.5429 -0.4976
 2402TIP3    H128841   1.250   0.857   1.993 -0.5732 -1.4795  2.1269
 2402TIP3    H228842   1.184   0.942   2.099 -4.5034 -0.3855 -0.9889
 2403TIP3   OH228843   0.145   7.046   1.606  0.2654  0.3611  0.2707
 2403TIP3    H128844   0.143   7.077   1.515  0.3580  1.2186  0.5503
 2403TIP3    H228845   0.231   7.007   1.616  0.3574  0.5093  0.0647
 2404TIP3   OH228846   1.361   6.808   6.589 -0.3328  0.3960  0.1290
 2404TIP3    H128847   1.421   6.825   6.516 -0.2879  1.1633  0.3433
 2404TIP3    H228848   1.323   6.723   6.568  0.4379  0.1349 -0.2796
 2405TIP3   OH228849   6.120   6.946   1.986  0.0449 -0.0679 -0.1725
 2405TIP3    H128850   6.090   6.880   2.048  0.8743 -0.5416 -0.2534
 2405TIP3    H228851   6.142   7.022   2.041  0.5131 -0.3874  0.0907
 2406TIP3   OH228852   2.125   2.531   1.234  0.2125 -0.0528  0.2776
 2406TIP3    H128853   2.121   2.548   1.328  1.2952 -1.5305  0.6212
 2406TIP3    H228854   2.216   2.546   1.211  0.1903 -0.7948 -0.3156
 2407TIP3   OH228855   3.365   5.548   1.098 -0.0609 -0.5086  0.5492
 2407TIP3    H128856   3.399   5.499   1.024 -1.5178 -0.9379  0.1463
 2407TIP3    H228857   3.410   5.510   1.174  1.0122 -0.4447 -0.0293
 2408TIP3   OH228858   0.909   2.395   0.856  0.2834 -0.9094  0.1182
 2408TIP3    H128859   0.957   2.338   0.796 -0.0330 -1.9343  0.8198
 2408TIP3    H228860   0.924   2.483   0.822 -0.7322 -1.5220 -2.0814
 2409TIP3   OH228861   1.315   2.240   0.063  0.1746  0.1526  0.2856
 2409TIP3    H128862   1.228   2.245   0.022 -0.0404 -0.9980  0.5626
 2409TIP3    H228863   1.366   2.185   0.004  0.8635  1.1546 -0.0866
 2410TIP3   OH228864   6.219   0.986   0.322  0.2567 -0.1116  0.1005
 2410TIP3    H128865   6.299   0.995   0.270 -0.2407  1.4575 -0.4460
 2410TIP3    H228866   6.159   1.050   0.286 -0.1502  1.0136  2.5546
 2411TIP3   OH228867   2.091   6.091   1.017  0.4028 -0.0943  0.3796
 2411TIP3    H128868   2.038   6.060   0.944 -0.6578 -1.3268  1.6167
 2411TIP3    H228869   2.180   6.063   0.995 -0.1810 -2.2025  0.4014
 2412TIP3   OH228870   4.187   5.597   1.614  0.1403  0.0764  0.2761
 2412TIP3    H128871   4.228   5.684   1.608 -0.5247  0.5613  2.0518
 2412TIP3    H228872   4.094   5.616   1.621 -0.0221 -0.7947  0.4733
 2413TIP3   OH228873   1.997   0.369   1.782  0.0142  0.2009  0.8830
 2413TIP3    H128874   1.917   0.317   1.787  0.2532 -0.6480 -2.0677
 2413TIP3    H228875   1.967   0.460   1.779 -0.8461 -0.0976  0.1042
 2414TIP3   OH228876   2.197   4.337   1.184 -0.4053 -0.0434  0.5939
 2414TIP3    H128877   2.197   4.242   1.193 -0.0191 -0.1165 -0.0682
 2414TIP3    H228878   2.127   4.355   1.122  1.0084 -0.1186 -1.1093
 2415TIP3   OH228879   3.241   1.404   7.286 -0.0630 -0.3639 -0.0922
 2415TIP3    H128880   3.260   1.313   7.262  1.5097  0.0197 -0.4236
 2415TIP3    H228881   3.172   1.398   7.352  1.2712 -1.9047  1.2350
 2416TIP3   OH228882   1.533   3.568   0.840  0.0518 -0.1361 -0.1525
 2416TIP3    H128883   1.609   3.510   0.847  1.2562  1.0298 -2.2953
 2416TIP3    H228884   1.530   3.613   0.925  0.7569 -1.3487  0.5498
 2417TIP3   OH228885   6.965   1.749   1.815 -0.7128  0.2482 -0.1112
 2417TIP3    H128886   7.013   1.667   1.827 -0.8447  0.3302  1.0947
 2417TIP3    H228887   7.033   1.817   1.822 -0.7923  0.2959  0.2471
 2418TIP3   OH228888   0.618   5.427   0.694 -0.3524  0.1506 -0.2762
 2418TIP3    H128889   0.655   5.515   0.701 -1.4411  0.5145  3.4660
 2418TIP3    H228890   0.547   5.436   0.631 -0.3013  1.9334 -0.1398
 2419TIP3   OH228891   1.562   2.584   7.224  0.0394  0.2688  0.2694
 2419TIP3    H128892   1.545   2.609   7.315  3.8043  3.3561  0.3905
 2419TIP3    H228893   1.476   2.591   7.181 -1.1970  2.8358  2.8024
 2420TIP3   OH228894   2.198   1.208   5.965 -0.5841 -0.6415  0.5310
 2420TIP3    H128895   2.212   1.114   5.958 -1.6268 -0.6751 -2.6549
 2420TIP3    H228896   2.106   1.218   5.989 -1.0952 -0.5251 -1.2955
 2421TIP3   OH228897   4.932   0.920   0.836 -0.3435 -0.8915  0.5225
 2421TIP3    H128898   4.863   0.915   0.903 -1.3033  0.5298 -0.2950
 2421TIP3    H228899   4.886   0.903   0.754  0.2933 -0.0824 -0.0184
 2422TIP3   OH228900   3.881   2.496   1.496 -0.3791 -0.1712 -0.4357
 2422TIP3    H128901   3.933   2.473   1.573 -0.4392  0.5973 -0.1600
 2422TIP3    H228902   3.791   2.475   1.521 -0.1690 -2.1459 -1.1545
 2423TIP3   OH228903   3.355   2.832   7.301 -0.6425 -0.0775 -0.6803
 2423TIP3    H128904   3.321   2.760   7.355 -1.1954  2.0052  1.9917
 2423TIP3    H228905   3.419   2.790   7.243 -0.1792 -2.6009  1.4392
 2424TIP3   OH228906   2.923   5.779   2.561 -0.0826 -0.2256 -0.2148
 2424TIP3    H128907   2.893   5.860   2.603  0.2091  0.4348 -1.2124
 2424TIP3    H228908   2.862   5.767   2.488  0.5095 -0.3120 -0.7037
 2425TIP3   OH228909   2.327   2.953   7.266  0.2050 -0.2612 -0.3068
 2425TIP3    H128910   2.360   2.974   7.354  1.8727  2.6113 -1.4752
 2425TIP3    H228911   2.405   2.942   7.213 -0.7770 -1.8749 -1.5204
 2426TIP3   OH228912   1.962   6.751   7.167 -0.4753 -0.4401  0.8641
 2426TIP3    H128913   2.009   6.747   7.250  2.1358  0.3593 -0.4684
 2426TIP3    H228914   2.026   6.724   7.101 -0.2271  4.8721 -1.5993
 2427TIP3   OH228915   1.384   5.684   6.795  0.0891  0.9699 -0.2545
 2427TIP3    H128916   1.331   5.758   6.765 -0.7879 -0.4751 -2.5498
 2427TIP3    H228917   1.466   5.692   6.746 -0.5170 -0.2460 -1.5236
 2428TIP3   OH228918   4.274   7.065   8.099  0.4483  0.1927 -0.1745
 2428TIP3    H128919   4.309   7.043   8.013 -0.7481 -1.2523 -0.3313
 2428TIP3    H228920   4.341   7.035   8.161  0.4754 -0.5155 -0.5399
 2429TIP3   OH228921   4.412   6.324   0.537  0.4296 -0.1804  0.3039
 2429TIP3    H128922   4.382   6.236   0.514 -1.3999  0.4234  0.2118
 2429TIP3    H228923   4.505   6.313   0.560  0.2690 -2.0915  0.1787
 2430TIP3   OH228924   1.504   4.582   2.628  0.5851  0.2445 -0.1808
 2430TIP3    H128925   1.582   4.575   2.573  0.7961  0.9325  0.0293
 2430TIP3    H228926   1.535   4.566   2.717  0.0162 -2.3088 -0.3545
 2431TIP3   OH228927   3.552   5.310   8.108  0.0317 -0.1349  0.8485
 2431TIP3    H128928   3.585   5.282   8.194  0.8808 -0.0816  0.5514
 2431TIP3    H228929   3.595   5.251   8.046 -0.5863 -0.1781  0.4563
 2432TIP3   OH228930   5.991   0.420   0.868  0.6381  0.1426 -0.0612
 2432TIP3    H128931   6.011   0.340   0.820 -0.5008  0.3403 -0.9198
 2432TIP3    H228932   5.899   0.438   0.848  0.4848  0.9379  1.1954
 2433TIP3   OH228933   5.407   4.638   2.464  0.2041 -0.3844 -0.0765
 2433TIP3    H128934   5.367   4.714   2.506  1.3297 -0.1567  0.6042
 2433TIP3    H228935   5.334   4.579   2.447 -0.7921  1.0714 -1.1478
 2434TIP3   OH228936   0.919   2.077   7.563  0.0030  0.0913  1.1106
 2434TIP3    H128937   0.954   1.998   7.603  0.8171  0.5031  1.2244
 2434TIP3    H228938   0.911   2.056   7.470 -0.3666 -0.3239  1.2313
 2435TIP3   OH228939   1.121   2.427   2.639 -0.2216 -0.0314 -0.4516
 2435TIP3    H128940   1.041   2.385   2.672  1.1596 -0.3983  2.8643
 2435TIP3    H228941   1.171   2.356   2.599  0.3682 -0.8542  1.6088
 2436TIP3   OH228942   6.164   3.716   6.777 -0.9087  0.4382 -0.0831
 2436TIP3    H128943   6.161   3.651   6.847 -0.1792 -0.1841 -0.6118
 2436TIP3    H228944   6.250   3.757   6.787 -1.1229  0.9055 -0.1305
 2437TIP3   OH228945   3.780   1.523   2.229  0.7365 -0.2277  0.1555
 2437TIP3    H128946   3.694   1.490   2.203  0.7817  0.5095 -1.0310
 2437TIP3    H228947   3.763   1.607   2.270  0.9532  0.5965 -1.3571
 2438TIP3   OH228948   5.823   5.617   6.896  0.1381 -0.1446  0.2607
 2438TIP3    H128949   5.834   5.590   6.987  1.6045 -1.7536 -0.3242
 2438TIP3    H228950   5.839   5.537   6.845  1.8824  1.2164 -1.4953
 2439TIP3   OH228951   5.950   6.088   7.955  0.3049  0.0692 -0.2223
 2439TIP3    H128952   5.956   6.182   7.975  1.6450 -0.3195  1.4397
 2439TIP3    H228953   6.040   6.062   7.933  0.2121 -1.0824  0.6831
 2440TIP3   OH228954   2.914   6.416   1.053 -0.5939 -0.0651  0.1234
 2440TIP3    H128955   2.962   6.498   1.061 -1.2452  0.3685 -0.3484
 2440TIP3    H228956   2.934   6.384   0.966 -2.3935  0.9369 -0.7146
 2441TIP3   OH228957   0.242   0.366   2.449  0.8017  0.0420 -0.6023
 2441TIP3    H128958   0.315   0.341   2.391  1.2587 -0.7159  0.2592
 2441TIP3    H228959   0.268   0.332   2.535 -1.7594 -2.6311 -0.7574
 2442TIP3   OH228960   0.891   3.057   0.943 -0.7281 -0.1950  0.1541
 2442TIP3    H128961   0.881   3.151   0.949  0.6662 -0.0333  0.2946
 2442TIP3    H228962   0.805   3.025   0.916 -1.5827  0.9731  1.3875
 2443TIP3   OH228963   2.777   0.360   0.646 -0.3217 -0.3145  0.7597
 2443TIP3    H128964   2.802   0.371   0.555 -0.6898 -0.6239  0.6196
 2443TIP3    H228965   2.846   0.403   0.696 -0.5299  0.5608  0.3062
 2444TIP3   OH228966   5.851   1.877   1.293  0.1817 -0.0187 -0.1696
 2444TIP3    H128967   5.854   1.784   1.313  0.0624  0.2655  1.2907
 2444TIP3    H228968   5.816   1.882   1.204  0.9611 -1.3915 -0.5823
 2445TIP3   OH228969   4.585   2.710   1.218  0.3644 -0.8059 -0.3533
 2445TIP3    H128970   4.510   2.742   1.169  0.2763 -1.4690 -0.6627
 2445TIP3    H228971   4.617   2.635   1.168  0.4192 -1.3507  0.4701
 2446TIP3   OH228972   4.926   3.586   7.192  0.5893 -0.2264 -0.5134
 2446TIP3    H128973   4.921   3.671   7.147  1.9369  0.3571  0.3544
 2446TIP3    H228974   4.985   3.534   7.137  2.8098  0.7242  0.8075
 2447TIP3   OH228975   5.687   6.131   2.150  0.4313 -0.6184  0.0406
 2447TIP3    H128976   5.651   6.164   2.068 -2.6558 -0.6098  1.2407
 2447TIP3    H228977   5.656   6.040   2.155 -0.9121 -0.1244  1.8800
 2448TIP3   OH228978   4.670   6.041   0.828  0.0846  0.5527  0.1818
 2448TIP3    H128979   4.639   6.125   0.862 -0.4500 -0.2928  1.8466
 2448TIP3    H228980   4.656   6.048   0.733 -1.2266  1.8199  0.4279
 2449TIP3   OH228981   6.106   6.967   0.269 -0.2589  0.0955  0.1269
 2449TIP3    H128982   6.067   6.880   0.278 -0.8916  0.3745  0.1249
 2449TIP3    H228983   6.031   7.026   0.267  0.1451  0.5982 -0.3942
 2450TIP3   OH228984   3.205   4.110   1.749  0.2996 -0.1656 -0.5344
 2450TIP3    H128985   3.223   4.042   1.814  1.7152 -0.2629 -0.9846
 2450TIP3    H228986   3.284   4.112   1.695  0.8140  2.6910  0.2041
 2451TIP3   OH228987   4.063   4.476   1.225 -0.1057  0.0844  0.0395
 2451TIP3    H128988   3.998   4.506   1.289  1.4348  2.3019  0.6888
 2451TIP3    H228989   4.057   4.381   1.228 -3.2570  0.1906  0.0956
 2452TIP3   OH228990   2.390   4.243   1.790 -0.1795 -0.1506 -0.1015
 2452TIP3    H128991   2.322   4.288   1.741 -1.6799 -1.0864  1.0377
 2452TIP3    H228992   2.378   4.150   1.768  0.6187 -0.3511  0.2644
 2453TIP3   OH228993   6.696   1.003   6.624  0.5304  0.2995  0.2589
 2453TIP3    H128994   6.722   0.917   6.591 -0.2485 -0.2656  1.0511
 2453TIP3    H228995   6.759   1.064   6.586  1.0990 -0.6222 -0.3126
 2454TIP3   OH228996   5.851   1.224   7.359  0.2489 -0.0156 -0.2639
 2454TIP3    H128997   5.772   1.275   7.377  2.2226  2.6509  1.4602
 2454TIP3    H228998   5.872   1.245   7.268  0.7254  1.8939  0.2557
 2455TIP3   OH228999   3.681   4.318   6.845 -0.0571  0.1272 -0.3637
 2455TIP3    H129000   3.644   4.301   6.758 -1.9533  0.1536  0.3794
 2455TIP3    H229001   3.613   4.369   6.890  1.0277  0.4073  1.0341
 2456TIP3   OH229002   6.661   4.976   0.439 -0.4155 -0.4082  0.6994
 2456TIP3    H129003   6.739   4.920   0.436 -1.3902 -1.9471  2.1306
 2456TIP3    H229004   6.692   5.062   0.410  1.5614 -1.2293  0.2021
 2457TIP3   OH229005   1.842   6.381   0.574  0.9620  0.5047  0.1012
 2457TIP3    H129006   1.789   6.417   0.503 -1.6578 -1.3728  0.9493
 2457TIP3    H229007   1.861   6.456   0.630  0.6141  1.5188 -1.0840
 2458TIP3   OH229008   4.839   6.699   7.974  0.6739 -0.7111 -0.2092
 2458TIP3    H129009   4.861   6.607   7.957 -0.3735 -1.0661  0.2692
 2458TIP3    H229010   4.835   6.706   8.069 -1.2301 -0.6937 -0.2526
 2459TIP3   OH229011   4.483   6.963   2.008  0.2263 -0.1869 -0.0229
 2459TIP3    H129012   4.407   6.917   1.972 -0.7434  1.6595 -0.4168
 2459TIP3    H229013   4.481   6.941   2.102 -1.6828  0.9780  0.2564
 2460TIP3   OH229014   5.182   3.980   7.280  0.1698 -0.0214 -0.2207
 2460TIP3    H129015   5.139   3.938   7.354 -2.0460  0.6184 -1.0703
 2460TIP3    H229016   5.210   4.065   7.314 -1.5390  0.5981 -0.2585
 2461TIP3   OH229017   5.361   6.340   0.495  0.0819  0.5040  0.4615
 2461TIP3    H129018   5.455   6.320   0.498  0.2187  0.6726 -1.5254
 2461TIP3    H229019   5.326   6.298   0.574  1.6301 -0.6319  0.6099
 2462TIP3   OH229020   4.475   3.658   0.834 -0.1876  0.8068  0.7188
 2462TIP3    H129021   4.432   3.605   0.766  1.2117  1.6876 -0.9134
 2462TIP3    H229022   4.489   3.596   0.906 -1.1912 -0.3143 -0.0054
 2463TIP3   OH229023   4.410   0.325   0.752  0.4453 -0.0797  0.4321
 2463TIP3    H129024   4.393   0.304   0.844  2.0822 -0.2711  0.7309
 2463TIP3    H229025   4.346   0.393   0.730 -1.4067 -1.5239  1.0484
 2464TIP3   OH229026   0.261   0.239   1.591 -0.0176 -0.0506 -0.2086
 2464TIP3    H129027   0.181   0.281   1.562  0.3074  1.5681  1.0967
 2464TIP3    H229028   0.234   0.184   1.666 -0.2507 -1.3496 -1.2058
 2465TIP3   OH229029   4.909   5.511   7.758 -0.1670  0.0638 -0.1959
 2465TIP3    H129030   4.925   5.450   7.831  1.6609 -0.5772 -1.0887
 2465TIP3    H229031   4.971   5.582   7.773  0.1411 -0.0202 -1.0432
 2466TIP3   OH229032   4.410   5.589   8.073  0.3586 -0.0498  0.1685
 2466TIP3    H129033   4.417   5.631   8.159  1.1243 -0.7131  0.4419
 2466TIP3    H229034   4.477   5.632   8.020  0.1200  0.1214  0.0080
 2467TIP3   OH229035   1.351   2.730   0.612 -1.0773  0.3767 -0.0797
 2467TIP3    H129036   1.381   2.808   0.660  0.2967  1.5592 -2.6183
 2467TIP3    H229037   1.271   2.759   0.568  0.8260  1.4116 -3.1730
 2468TIP3   OH229038   1.680   3.961   7.323 -0.4490  0.0896  0.4343
 2468TIP3    H129039   1.661   3.971   7.416  1.9408 -0.8736  1.0921
 2468TIP3    H229040   1.678   4.051   7.289 -1.9203  0.4005  1.2413
 2469TIP3   OH229041   0.804   0.777   6.964 -0.1759  0.2872  0.1516
 2469TIP3    H129042   0.711   0.798   6.951 -0.3854 -0.6207  0.1055
 2469TIP3    H229043   0.851   0.844   6.913 -0.7871  0.9492  0.4424
 2470TIP3   OH229044   0.178   5.479   6.596 -0.1837 -0.0690  0.0132
 2470TIP3    H129045   0.097   5.437   6.570 -0.6866  0.1458  1.2058
 2470TIP3    H229046   0.228   5.412   6.642  2.2912 -1.5831 -4.2599
 2471TIP3   OH229047   6.534   4.679   7.775 -0.3738  0.0451  0.0782
 2471TIP3    H129048   6.563   4.615   7.710  0.3266 -0.9409  1.3336
 2471TIP3    H229049   6.442   4.657   7.790 -0.2233 -0.4800  0.2677
 2472TIP3   OH229050   6.715   3.202   0.941 -0.0626  0.1900  0.0972
 2472TIP3    H129051   6.768   3.128   0.969 -0.4095 -1.4231 -3.0567
 2472TIP3    H229052   6.773   3.253   0.884 -0.3994  1.3562  0.7547
 2473TIP3   OH229053   1.277   5.349   1.510  0.1726 -0.4572  0.3918
 2473TIP3    H129054   1.212   5.419   1.523 -0.2299 -1.0139  1.4783
 2473TIP3    H229055   1.314   5.335   1.597  1.2999 -0.6030 -0.0986
 2474TIP3   OH229056   1.475   0.264   7.346  0.2957  0.1769  0.1078
 2474TIP3    H129057   1.556   0.241   7.301  0.2770  0.2262  0.0500
 2474TIP3    H229058   1.502   0.329   7.412  0.4476 -0.4506  0.6684
 2475TIP3   OH229059   6.911   3.210   7.003  0.4676 -0.4021 -0.2456
 2475TIP3    H129060   7.001   3.198   6.973  0.7081 -3.4233  1.3058
 2475TIP3    H229061   6.859   3.152   6.948 -0.6370  1.4471 -1.2486
 2476TIP3   OH229062   6.085   6.478   2.670 -0.0356 -0.2272  0.1746
 2476TIP3    H129063   6.105   6.387   2.647  0.3998 -0.6229  1.9281
 2476TIP3    H229064   6.170   6.518   2.686 -0.2363  0.4606 -0.4479
 2477TIP3   OH229065   0.541   0.729   0.195  0.6720  0.2496 -0.2920
 2477TIP3    H129066   0.447   0.745   0.202  0.2053 -2.4801  0.9946
 2477TIP3    H229067   0.581   0.809   0.228 -1.2084  1.0667  0.1600
 2478TIP3   OH229068   2.724   5.790   0.903  0.4677  0.3166 -0.0282
 2478TIP3    H129069   2.659   5.728   0.870  0.5928 -0.1143  0.5217
 2478TIP3    H229070   2.715   5.866   0.846 -1.0078  0.5421  0.4654
 2479TIP3   OH229071   7.064   3.519   0.768 -0.5415 -0.0926  0.1627
 2479TIP3    H129072   7.129   3.563   0.823 -0.4673  0.3931 -0.2989
 2479TIP3    H229073   7.100   3.527   0.679 -1.8259  1.2843 -0.2634
 2480TIP3   OH229074   5.190   2.271   0.914  0.7245 -0.1209 -0.0243
 2480TIP3    H129075   5.262   2.315   0.959  0.9703  0.1634 -0.6857
 2480TIP3    H229076   5.189   2.309   0.826  0.2254 -0.6377 -0.2526
 2481TIP3   OH229077   4.831   3.843   7.162  0.1800 -0.3739 -0.5278
 2481TIP3    H129078   4.763   3.899   7.125  0.5310  0.0557 -0.5396
 2481TIP3    H229079   4.908   3.900   7.167  0.6634 -0.9794 -0.9390
 2482TIP3   OH229080   4.294   0.651   7.357 -0.0707  0.0607  0.2988
 2482TIP3    H129081   4.350   0.680   7.429 -0.4235 -0.5390  0.8265
 2482TIP3    H229082   4.253   0.571   7.390 -0.3060 -0.1683 -0.5367
 2483TIP3   OH229083   1.718   4.526   1.269  0.0794 -0.0076 -0.5107
 2483TIP3    H129084   1.764   4.536   1.186 -0.6047 -2.1881 -1.2177
 2483TIP3    H229085   1.669   4.444   1.260 -2.0902  0.9972  1.0689
 2484TIP3   OH229086   1.662   3.584   6.748 -0.4499  0.2011 -0.2763
 2484TIP3    H129087   1.725   3.587   6.676 -1.2755  0.4644 -1.0194
 2484TIP3    H229088   1.714   3.595   6.827  0.3626  1.1054 -0.9124
 2485TIP3   OH229089   0.573   1.225   7.417  1.0049  0.5733  0.1528
 2485TIP3    H129090   0.520   1.298   7.451 -0.9764 -1.7223  2.4221
 2485TIP3    H229091   0.619   1.192   7.495 -0.2573 -2.2095 -0.1854
 2486TIP3   OH229092   1.838   3.582   0.110  0.1121 -0.5010 -0.1729
 2486TIP3    H129093   1.824   3.518   0.040 -1.8540  0.3009 -0.5967
 2486TIP3    H229094   1.784   3.657   0.084  1.2875  0.8006  0.9898
 2487TIP3   OH229095   1.312   0.488   6.840  0.0255  0.1566 -0.1184
 2487TIP3    H129096   1.345   0.560   6.787  1.7351  1.0100  1.9345
 2487TIP3    H229097   1.384   0.426   6.845 -0.2721 -0.1453  0.7388
 2488TIP3   OH229098   0.196   2.072   8.036 -0.3484 -0.2796 -0.1054
 2488TIP3    H129099   0.273   2.124   8.061 -1.7558  2.2730 -0.6992
 2488TIP3    H229100   0.149   2.058   8.118 -0.3665  0.1226 -0.0443
 2489TIP3   OH229101   5.102   4.783   1.116  0.1895  0.3499  0.1905
 2489TIP3    H129102   5.117   4.870   1.080 -0.4684 -0.2357 -1.5882
 2489TIP3    H229103   5.130   4.790   1.208  0.1577  2.4086  0.0877
 2490TIP3   OH229104   4.740   2.101   1.709 -0.2383  0.2407 -0.0510
 2490TIP3    H129105   4.647   2.099   1.688 -0.2864  2.2077 -0.2417
 2490TIP3    H229106   4.743   2.103   1.805 -0.2134 -3.0890  0.1247
 2491TIP3   OH229107   5.466   2.172   0.737 -0.1475 -0.3674  0.1992
 2491TIP3    H129108   5.475   2.261   0.701 -1.6766 -0.1123  0.3773
 2491TIP3    H229109   5.486   2.182   0.830  1.3592 -0.5530 -0.0863
 2492TIP3   OH229110   4.388   3.764   3.167  0.1743  0.0008  0.0257
 2492TIP3    H129111   4.314   3.792   3.220 -0.3819 -0.8243 -0.3052
 2492TIP3    H229112   4.434   3.700   3.221  0.9759  0.8913  0.4463
 2493TIP3   OH229113   5.714   6.706   0.946 -0.0682 -0.5032 -0.2408
 2493TIP3    H129114   5.729   6.614   0.966 -0.0624 -0.6425 -0.8656
 2493TIP3    H229115   5.619   6.717   0.951 -0.0701 -0.5438 -0.1848
 2494TIP3   OH229116   3.786   5.001   1.835  0.3610  0.2415 -0.1557
 2494TIP3    H129117   3.787   5.096   1.851 -2.1479  0.2593  0.3227
 2494TIP3    H229118   3.871   4.983   1.796  0.3032  2.9754 -1.8358
 2495TIP3   OH229119   3.435   1.561   2.522  0.3616  0.7094 -0.0818
 2495TIP3    H129120   3.505   1.518   2.571 -0.1015  2.0197  1.8360
 2495TIP3    H229121   3.468   1.649   2.504  0.0231  0.6512 -1.0360
 2496TIP3   OH229122   0.074   4.945   1.069 -0.2508  0.4600 -0.3839
 2496TIP3    H129123   0.085   4.865   1.122 -0.8378  2.0623  2.3840
 2496TIP3    H229124   0.152   4.948   1.014  0.5238 -1.2453  0.5353
 2497TIP3   OH229125   4.009   0.731   0.431  0.3368 -0.3079  0.5599
 2497TIP3    H129126   4.025   0.709   0.523  1.0467  2.4367  1.1787
 2497TIP3    H229127   3.930   0.681   0.409 -1.3611  0.7906  3.4623
 2498TIP3   OH229128   6.469   5.193   0.539 -0.1246 -0.1956 -0.1629
 2498TIP3    H129129   6.518   5.113   0.521 -1.8152 -1.1958 -0.4375
 2498TIP3    H229130   6.386   5.164   0.576  0.0566  1.5232  1.8094
 2499TIP3   OH229131   0.325   3.796   2.130 -0.1003  0.6778 -0.0869
 2499TIP3    H129132   0.336   3.726   2.066  0.6010  1.2410 -0.5827
 2499TIP3    H229133   0.284   3.752   2.205 -1.9112  0.2114 -1.2721
 2500TIP3   OH229134   5.014   4.139   0.623 -0.9093  0.6062  0.2829
 2500TIP3    H129135   5.069   4.085   0.567 -0.5796  1.9105 -0.7218
 2500TIP3    H229136   4.925   4.126   0.590 -1.0192 -0.3153  0.9078
 2501TIP3   OH229137   0.055   1.949   0.064 -0.4425  0.3664  0.0474
 2501TIP3    H129138  -0.018   2.010   0.051 -1.6073 -0.7027  1.3426
 2501TIP3    H229139   0.016   1.862   0.059  0.4285 -0.2304  2.1720
 2502TIP3   OH229140   3.578   1.026   1.712 -0.1481  0.7127 -0.2522
 2502TIP3    H129141   3.614   1.091   1.772 -1.1339 -0.2446  1.4357
 2502TIP3    H229142   3.639   0.953   1.716 -1.3957 -0.3131  1.4834
 2503TIP3   OH229143   0.342   2.205   7.502  0.5121  0.2509  0.1788
 2503TIP3    H129144   0.336   2.206   7.407 -0.4327 -0.4754  0.2164
 2503TIP3    H229145   0.356   2.113   7.525  0.6132  0.4005  0.7507
 2504TIP3   OH229146   2.600   5.308   0.477 -0.1172  0.3188 -0.4871
 2504TIP3    H129147   2.575   5.279   0.390 -0.1251 -0.0119 -0.3755
 2504TIP3    H229148   2.686   5.267   0.492  0.3397  1.1587 -0.7295
 2505TIP3   OH229149   4.031   1.105   7.322  0.0029  0.4327 -0.0292
 2505TIP3    H129150   4.075   1.163   7.259  0.1228  0.3152 -0.0529
 2505TIP3    H229151   4.068   1.019   7.306  0.9361  0.6067  1.0131
 2506TIP3   OH229152   1.898   1.078   7.331 -0.2169 -0.3473 -0.3441
 2506TIP3    H129153   1.923   1.046   7.244  0.9529 -2.3782  0.6429
 2506TIP3    H229154   1.963   1.145   7.351  1.4041 -1.9594  0.0999
 2507TIP3   OH229155   2.218   4.125   0.273 -0.3311 -0.0175  0.2795
 2507TIP3    H129156   2.181   4.087   0.353  0.9271 -0.2477  0.7751
 2507TIP3    H229157   2.256   4.208   0.301  0.2686 -0.1784 -0.0402
 2508TIP3   OH229158   2.268   4.254   0.723 -0.2616 -0.9765  0.2682
 2508TIP3    H129159   2.239   4.312   0.653 -0.3601  0.1128  1.1758
 2508TIP3    H229160   2.202   4.265   0.792  0.9194 -0.3807  1.3623
 2509TIP3   OH229161   7.044   4.450   1.080  0.2322  0.3723 -0.8396
 2509TIP3    H129162   7.100   4.475   1.153  0.5053  0.5337 -1.1003
 2509TIP3    H229163   6.992   4.528   1.062 -0.5821 -0.0004 -0.1448
 2510TIP3   OH229164   5.275   1.366   6.776 -0.8214 -0.3987 -0.0421
 2510TIP3    H129165   5.292   1.361   6.682  1.5261  0.1256  0.2748
 2510TIP3    H229166   5.184   1.340   6.786 -1.2147 -0.1845 -2.4858
 2511TIP3   OH229167   3.274   0.937   0.974 -0.4299 -0.3511  0.3166
 2511TIP3    H129168   3.243   0.954   1.062  1.2415 -1.0030  1.0857
 2511TIP3    H229169   3.258   0.843   0.960  3.7782 -1.5763  2.0120
 2512TIP3   OH229170   4.493   7.014   1.062 -0.8326  0.5557  0.0998
 2512TIP3    H129171   4.458   7.024   1.151  1.2028 -0.1893  1.0412
 2512TIP3    H229172   4.441   6.944   1.023 -1.5994  0.7379  0.7675
 2513TIP3   OH229173   1.981   4.406   1.019  0.1491  0.8562 -0.4637
 2513TIP3    H129174   1.900   4.454   1.035 -1.1062 -1.5877  1.2906
 2513TIP3    H229175   2.012   4.438   0.935 -1.0926  3.8931  0.1109
 2514TIP3   OH229176   3.229   6.110   0.432  0.6097 -0.6313  0.2092
 2514TIP3    H129177   3.261   6.121   0.343 -0.0206 -0.5329 -0.0030
 2514TIP3    H229178   3.303   6.137   0.487  0.0097  2.2921 -0.2533
 2515TIP3   OH229179   1.425   4.987   8.137 -0.2194 -0.2417 -0.4575
 2515TIP3    H129180   1.458   5.059   8.084 -3.3186  1.1576 -0.6952
 2515TIP3    H229181   1.495   4.969   8.199  1.0235  2.3746 -0.9634
 2516TIP3   OH229182   5.195   3.452   2.765  0.1501  0.6766  0.4563
 2516TIP3    H129183   5.230   3.404   2.840 -1.6722 -0.1905  0.7987
 2516TIP3    H229184   5.230   3.541   2.775  1.1458  0.1942  1.4790
 2517TIP3   OH229185   4.097   3.235   7.448 -0.3781  0.1946  0.1258
 2517TIP3    H129186   4.158   3.291   7.400  0.7183  1.3520  2.6706
 2517TIP3    H229187   4.152   3.167   7.487 -1.0849 -0.1522  0.5477
 2518TIP3   OH229188   3.913   4.459   7.888  0.6641 -0.1596  0.5397
 2518TIP3    H129189   3.887   4.461   7.796  0.8313 -1.2449  0.4616
 2518TIP3    H229190   3.847   4.406   7.931 -0.7785  2.2416  1.5285
 2519TIP3   OH229191   1.638   5.218   1.222  0.5482  0.1220 -0.4732
 2519TIP3    H129192   1.561   5.261   1.183 -0.1867 -0.7012  0.0205
 2519TIP3    H229193   1.666   5.278   1.292 -0.7333 -0.3658  0.5041
 2520TIP3   OH229194   1.653   6.379   6.215  0.1082  0.7349  0.4202
 2520TIP3    H129195   1.644   6.333   6.132 -0.1150  0.6839  0.4735
 2520TIP3    H229196   1.655   6.310   6.281  0.5738  0.7598  0.4341
 2521TIP3   OH229197   4.082   6.412   1.318 -0.1116 -0.0828  0.2270
 2521TIP3    H129198   3.986   6.415   1.312 -0.0939  0.0191 -0.0272
 2521TIP3    H229199   4.103   6.319   1.323 -0.2387 -0.0965  0.5704
 2522TIP3   OH229200   3.658   4.832   0.131 -0.1075 -0.6760 -0.2928
 2522TIP3    H129201   3.612   4.912   0.105 -1.6410 -1.8571 -1.4382
 2522TIP3    H229202   3.739   4.833   0.080 -0.4995 -0.2513 -0.9243
 2523TIP3   OH229203   1.075   5.488   8.032  0.0040  0.4953 -0.2403
 2523TIP3    H129204   1.047   5.494   7.941 -1.7826 -0.8610  0.1507
 2523TIP3    H229205   1.030   5.559   8.077 -0.6105  0.0214 -0.0988
 2524TIP3   OH229206   6.849   2.830   2.435  0.4807  0.1006 -0.5746
 2524TIP3    H129207   6.853   2.871   2.349  0.0955  0.7159 -0.3042
 2524TIP3    H229208   6.869   2.901   2.497 -2.1965  0.4445  0.0360
 2525TIP3   OH229209   1.052   3.337   0.898 -0.3919 -0.0038 -0.5170
 2525TIP3    H129210   0.961   3.309   0.909  0.0217 -0.5927  2.1545
 2525TIP3    H229211   1.095   3.264   0.853 -0.1664 -2.3168  2.9965
 2526TIP3   OH229212   3.338   4.150   6.525 -0.6930  0.2421  0.2698
 2526TIP3    H129213   3.273   4.081   6.543  0.3020 -1.4161 -1.9571
 2526TIP3    H229214   3.419   4.102   6.505  0.0464  2.0332 -1.4077
 2527TIP3   OH229215   3.572   4.527   1.810  0.3673 -0.8823  0.0616
 2527TIP3    H129216   3.606   4.440   1.833 -1.1941 -1.3394  0.7641
 2527TIP3    H229217   3.480   4.512   1.790  0.3338  0.4592 -0.8790
 2528TIP3   OH229218   2.239   3.599   0.200 -0.1255  0.2390 -0.2390
 2528TIP3    H129219   2.318   3.579   0.250 -0.1482 -3.4768 -1.3911
 2528TIP3    H229220   2.270   3.607   0.110 -0.7274  1.8011 -0.3290
 2529TIP3   OH229221   1.396   6.201   2.619  0.2003 -0.5889  0.0644
 2529TIP3    H129222   1.309   6.161   2.620  1.0214 -2.4788 -0.2801
 2529TIP3    H229223   1.457   6.127   2.631  1.7789  0.6093 -0.2248
 2530TIP3   OH229224   2.639   5.000   1.825 -0.0109 -0.3735 -0.0595
 2530TIP3    H129225   2.668   4.908   1.830  1.6634  0.1228  0.0378
 2530TIP3    H229226   2.628   5.026   1.916  0.2135 -0.2868 -0.0550
 2531TIP3   OH229227   2.623   0.797   1.914  0.2400 -0.4803 -0.3780
 2531TIP3    H129228   2.597   0.776   1.824 -0.6292  1.2864 -0.5926
 2531TIP3    H229229   2.552   0.764   1.968  0.1270 -0.3938 -0.4721
 2532TIP3   OH229230   5.514   3.438   2.599 -0.2302  0.0864 -0.2010
 2532TIP3    H129231   5.466   3.510   2.639 -0.1164  1.4637 -2.3777
 2532TIP3    H229232   5.581   3.414   2.664 -2.0349 -0.0324  1.7255
 2533TIP3   OH229233   0.588   4.888   2.300 -0.2119  0.2240  0.8551
 2533TIP3    H129234   0.595   4.980   2.326 -0.0246  1.4720 -2.9054
 2533TIP3    H229235   0.666   4.873   2.246  0.1027 -2.3899  1.9124
 2534TIP3   OH229236   3.825   1.897   0.076  0.0083  0.4740 -0.3076
 2534TIP3    H129237   3.915   1.892   0.043  0.5219  0.9121  0.9637
 2534TIP3    H229238   3.811   1.990   0.094 -1.3509  0.6851 -2.1574
 2535TIP3   OH229239   7.000   6.156   2.264  0.0694  0.3485  0.6355
 2535TIP3    H129240   6.936   6.221   2.233 -1.0996 -1.7649 -1.8137
 2535TIP3    H229241   6.958   6.116   2.340 -1.0486 -0.1644 -0.2124
 2536TIP3   OH229242   4.800   0.519   2.038  0.7212  0.3369  0.6145
 2536TIP3    H129243   4.796   0.578   1.962  2.5087  1.4767  1.3459
 2536TIP3    H229244   4.708   0.501   2.059  0.1418 -0.4163 -2.0729
 2537TIP3   OH229245   6.965   2.306   7.689  0.2200  0.1081 -0.3223
 2537TIP3    H129246   6.887   2.249   7.691 -0.4081  0.9585  0.0493
 2537TIP3    H229247   7.024   2.268   7.754 -0.3016  0.0257  0.1162
 2538TIP3   OH229248   0.314   6.810   0.985 -0.2954 -0.2167  0.4900
 2538TIP3    H129249   0.365   6.879   0.944  2.1602 -1.4455  1.2985
 2538TIP3    H229250   0.229   6.813   0.941 -0.0323  2.7647 -0.0171
 2539TIP3   OH229251   4.291   6.751   0.263 -0.2768  0.2276  0.3851
 2539TIP3    H129252   4.332   6.835   0.284 -1.4347  0.5544  1.4258
 2539TIP3    H229253   4.197   6.768   0.270 -0.5499 -0.9657 -0.1556
 2540TIP3   OH229254   1.000   1.788   1.326 -0.4020 -0.3263  0.4363
 2540TIP3    H129255   0.919   1.825   1.293  0.0982 -0.7835 -1.3944
 2540TIP3    H229256   0.975   1.745   1.408 -1.5747  1.3423  1.0061
 2541TIP3   OH229257   3.426   2.684   6.929 -0.3042  0.1436  0.1857
 2541TIP3    H129258   3.366   2.723   6.865 -1.3854  1.3174  1.8055
 2541TIP3    H229259   3.370   2.626   6.982  0.1919  0.4440  1.0644
 2542TIP3   OH229260   4.888   1.982   7.723  0.7390  0.5881 -0.1691
 2542TIP3    H129261   4.983   1.971   7.724  0.5408 -2.4204 -2.3245
 2542TIP3    H229262   4.866   1.998   7.631 -0.9571 -0.5909 -0.0153
 2543TIP3   OH229263   1.812   0.754   8.096 -0.2425 -0.5977 -0.3773
 2543TIP3    H129264   1.838   0.846   8.099  1.9987 -1.2103  1.0321
 2543TIP3    H229265   1.814   0.726   8.187 -0.3316 -2.2019 -0.8470
 2544TIP3   OH229266   4.668   5.230   2.655  0.1552 -0.4580  0.3909
 2544TIP3    H129267   4.580   5.192   2.657 -0.1124  0.1638  0.7203
 2544TIP3    H229268   4.726   5.157   2.680 -0.3743 -0.5902  1.2693
 2545TIP3   OH229269   5.149   0.073   1.827 -0.1181  0.3085  0.0341
 2545TIP3    H129270   5.120  -0.018   1.827  1.2281 -0.1874 -1.9963
 2545TIP3    H229271   5.090   0.117   1.767  0.5291  0.2776 -0.6412
 2546TIP3   OH229272   3.048   3.660   0.083  0.1079  0.1356 -0.0431
 2546TIP3    H129273   2.986   3.715   0.131  0.9903 -0.5899  2.0640
 2546TIP3    H229274   3.005   3.574   0.080  1.1064 -0.5039  1.8693
 2547TIP3   OH229275   5.813   0.128   6.762  0.2445 -0.0262 -0.4216
 2547TIP3    H129276   5.827   0.117   6.856  1.0459  1.0234 -0.3986
 2547TIP3    H229277   5.728   0.087   6.746 -0.4671  0.8221  0.9664
 2548TIP3   OH229278   2.444   5.516   8.210 -0.2656  0.2319 -0.1368
 2548TIP3    H129279   2.449   5.549   8.300  1.4088  0.6489 -0.3466
 2548TIP3    H229280   2.535   5.495   8.187 -0.8320 -1.1269 -1.2843
 2549TIP3   OH229281   2.608   6.275   2.480  0.0554  0.1180 -0.1120
 2549TIP3    H129282   2.602   6.307   2.570  0.8367 -0.7048  0.2568
 2549TIP3    H229283   2.548   6.200   2.477  0.8255 -0.5262  0.0565
 2550TIP3   OH229284   1.048   3.124   1.756  0.1589  0.2379 -0.2790
 2550TIP3    H129285   1.137   3.099   1.780  1.0626  1.4582 -2.0964
 2550TIP3    H229286   1.032   3.079   1.673 -0.9422 -0.0211  0.0644
 2551TIP3   OH229287   3.896   5.685   7.422  0.2203  0.5802  0.1237
 2551TIP3    H129288   3.848   5.723   7.496 -1.0118 -3.1424  1.4751
 2551TIP3    H229289   3.984   5.724   7.428 -0.0713  1.0162  3.0617
 2552TIP3   OH229290   2.744   6.459   7.951  0.2415 -0.5590  0.0899
 2552TIP3    H129291   2.735   6.492   8.040 -0.6003 -3.0875  1.0453
 2552TIP3    H229292   2.786   6.530   7.902 -2.1019  2.1388  1.7064
 2553TIP3   OH229293   0.691   5.089   2.522 -0.5958  0.2957  0.4926
 2553TIP3    H129294   0.739   5.137   2.454  0.9770 -1.1695  0.4957
 2553TIP3    H229295   0.701   5.142   2.600 -1.1874  1.2787 -0.0744
 2554TIP3   OH229296   4.368   1.015   0.856 -0.4105 -0.2505 -0.1122
 2554TIP3    H129297   4.339   1.050   0.772  0.7452 -0.9800 -0.8577
 2554TIP3    H229298   4.349   0.921   0.851  0.4391 -0.4427  0.0821
 2555TIP3   OH229299   5.329   2.587   1.005 -0.0098 -0.5854  0.1398
 2555TIP3    H129300   5.315   2.673   1.045 -0.4664 -0.1271 -0.9631
 2555TIP3    H229301   5.394   2.603   0.936  0.3186 -1.2407  0.2887
 2556TIP3   OH229302   5.166   4.233   0.327  0.0237  0.4305  0.5344
 2556TIP3    H129303   5.089   4.286   0.307 -0.0898 -0.3997 -1.4243
 2556TIP3    H229304   5.239   4.281   0.288 -0.0058 -0.5293 -0.7423
 2557TIP3   OH229305   3.019   2.413   7.181 -0.1996  0.0968  0.0260
 2557TIP3    H129306   3.022   2.371   7.266 -1.2483 -1.6811 -0.7653
 2557TIP3    H229307   2.942   2.375   7.138 -0.3012  1.7124 -1.3371
 2558TIP3   OH229308   4.583   2.345   7.908  0.0404  0.3760  0.0830
 2558TIP3    H129309   4.638   2.278   7.866 -0.2701  0.8407 -1.1120
 2558TIP3    H229310   4.636   2.378   7.980 -0.3749 -2.2330  1.7284
 2559TIP3   OH229311   0.345   4.203   1.051  0.5547 -0.7685  0.6500
 2559TIP3    H129312   0.338   4.160   1.136 -1.3545 -1.8981 -0.0000
 2559TIP3    H229313   0.438   4.200   1.030  0.9148 -1.4989  2.1848
 2560TIP3   OH229314   1.077   5.070   1.085  0.0288  0.1381  0.0357
 2560TIP3    H129315   1.102   5.158   1.115  1.6176  0.3062 -1.6131
 2560TIP3    H229316   1.147   5.013   1.118 -1.0883 -0.6039  1.2643
 2561TIP3   OH229317   1.417   5.469   8.220 -0.4565 -0.5657 -0.2858
 2561TIP3    H129318   1.336   5.439   8.261  0.8114 -1.4094  1.7562
 2561TIP3    H229319   1.445   5.543   8.273 -0.7009  0.8041 -1.9821
 2562TIP3   OH229320   3.383   1.585   8.216  0.4239  0.0754 -0.3870
 2562TIP3    H129321   3.454   1.527   8.189  0.4198 -0.5315  0.8193
 2562TIP3    H229322   3.309   1.527   8.231  0.5882  0.2720  1.4323
 2563TIP3   OH229323   6.652   3.572   7.434 -0.0504  0.0293 -0.1099
 2563TIP3    H129324   6.610   3.654   7.462 -0.0872 -0.0695  0.1221
 2563TIP3    H229325   6.618   3.506   7.494  2.4610  0.3808  1.8472
 2564TIP3   OH229326   4.228   0.565   1.987 -0.3727  0.2121  0.4388
 2564TIP3    H129327   4.213   0.538   2.077 -1.9173 -1.8938 -0.3688
 2564TIP3    H229328   4.182   0.648   1.979 -2.1400 -0.6568  1.0547
 2565TIP3   OH229329   3.623   4.952   7.677  0.1435  0.0307 -0.2594
 2565TIP3    H129330   3.695   4.921   7.622  0.1495 -0.5636  0.0752
 2565TIP3    H229331   3.600   5.038   7.641  0.9632  0.1925 -0.4187
 2566TIP3   OH229332   6.005   5.638   0.364 -0.1938 -0.3414  0.1789
 2566TIP3    H129333   5.945   5.606   0.296 -1.5788 -0.8421  1.5921
 2566TIP3    H229334   6.076   5.573   0.366 -1.0161 -1.2481  0.3679
 2567TIP3   OH229335   6.593   0.359   1.803  0.7683  0.8703 -0.2443
 2567TIP3    H129336   6.548   0.370   1.719  2.2754  3.0478 -0.8357
 2567TIP3    H229337   6.679   0.323   1.780  0.2978 -0.9333  0.6483
 2568TIP3   OH229338   1.577   2.011   0.438  0.4295  0.5806 -0.0829
 2568TIP3    H129339   1.595   1.951   0.366  1.7463  0.9020 -0.0422
 2568TIP3    H229340   1.517   2.076   0.400 -1.1690 -0.8194 -0.0729
 2569TIP3   OH229341   6.266   5.110   2.224 -0.2398 -0.5546 -0.0852
 2569TIP3    H129342   6.358   5.085   2.232 -0.2235 -0.3900  0.2671
 2569TIP3    H229343   6.221   5.054   2.287 -0.5488 -1.4559 -1.0592
 2570TIP3   OH229344   3.798   7.048   0.456 -0.4453  0.5158 -0.2741
 2570TIP3    H129345   3.890   7.054   0.484 -1.2226  1.3331  2.4343
 2570TIP3    H229346   3.797   6.978   0.391  1.5151 -2.4820  2.6103
 2571TIP3   OH229347   0.701   6.830   7.746 -0.2940 -0.2514 -0.2470
 2571TIP3    H129348   0.664   6.807   7.660  0.3695 -1.3321 -0.2636
 2571TIP3    H229349   0.682   6.923   7.756 -2.3644 -0.5817 -0.5742
 2572TIP3   OH229350   3.865   0.429   0.175 -0.2394 -0.0929 -0.0567
 2572TIP3    H129351   3.776   0.413   0.206  0.0249 -1.0639  0.2548
 2572TIP3    H229352   3.884   0.353   0.120  0.3163  0.2240 -0.3096
 2573TIP3   OH229353   4.603   3.826   2.892  0.2857  0.1654  0.1435
 2573TIP3    H129354   4.635   3.867   2.811 -1.1330 -1.2224 -1.1638
 2573TIP3    H229355   4.634   3.885   2.961 -0.5809  2.8020 -1.5351
 2574TIP3   OH229356   1.920   0.401   1.385 -0.4167  0.1977 -0.5402
 2574TIP3    H129357   1.897   0.383   1.293 -0.5009  2.1621 -0.9341
 2574TIP3    H229358   1.844   0.448   1.420 -0.2112 -0.1729  0.4368
 2575TIP3   OH229359   1.812   4.543   1.894 -0.3748  1.0015  0.3218
 2575TIP3    H129360   1.741   4.591   1.851 -1.3925  0.1842  1.0450
 2575TIP3    H229361   1.798   4.452   1.868  0.3878  0.8305  0.5053
 2576TIP3   OH229362   3.708   6.965   1.410 -0.1045 -1.2302  0.6487
 2576TIP3    H129363   3.792   7.012   1.408 -0.5349 -0.4050 -1.5470
 2576TIP3    H229364   3.666   6.994   1.491  1.5038 -1.2683  1.5357
 2577TIP3   OH229365   3.565   6.029   7.280  0.3676  0.7157 -0.2151
 2577TIP3    H129366   3.499   6.037   7.212 -1.0832 -1.3352  0.8360
 2577TIP3    H229367   3.640   5.988   7.236 -0.7302 -1.0464 -0.5591
 2578TIP3   OH229368   4.186   3.978   0.841  0.2202  0.2745 -0.0146
 2578TIP3    H129369   4.164   3.986   0.749 -0.3267 -0.4727  0.0318
 2578TIP3    H229370   4.210   4.066   0.869 -3.0306  1.2887 -0.0267
 2579TIP3   OH229371   1.946   4.033   1.816 -0.0600  0.2795  0.1049
 2579TIP3    H129372   1.909   4.122   1.813 -1.5361 -0.2684  1.2365
 2579TIP3    H229373   1.996   4.031   1.897  0.0794  0.1221  0.0137
 2580TIP3   OH229374   0.559   1.313   0.750  0.0284 -0.1013 -0.8749
 2580TIP3    H129375   0.609   1.383   0.792  0.8612 -1.3195  0.2535
 2580TIP3    H229376   0.556   1.243   0.816 -0.6032 -1.2040 -2.0309
 2581TIP3   OH229377   6.884   1.087   0.673  0.0391  0.3729 -0.1154
 2581TIP3    H129378   6.847   1.035   0.601 -0.4793 -0.8388  0.9822
 2581TIP3    H229379   6.972   1.052   0.686  1.1607  2.3484 -1.8302
 2582TIP3   OH229380   4.653   1.081   0.998 -0.0420  0.5003  0.2731
 2582TIP3    H129381   4.623   1.009   0.941  0.0734  0.3595  0.3881
 2582TIP3    H229382   4.638   1.048   1.087 -0.4833  0.8323  0.3230
 2583TIP3   OH229383   0.058   6.875   6.629 -0.5782  0.0664  0.0486
 2583TIP3    H129384   0.061   6.806   6.563  0.5491 -0.8283  1.0027
 2583TIP3    H229385  -0.021   6.855   6.681 -0.0723 -0.7342  0.5354
 2584TIP3   OH229386   2.965   1.451   0.476  0.3431  0.1157  0.4857
 2584TIP3    H129387   3.019   1.372   0.483 -0.1235 -0.8545 -3.9653
 2584TIP3    H229388   2.877   1.422   0.498  0.4197 -0.2181  0.3574
 2585TIP3   OH229389   6.885   2.039   8.198 -0.6017 -0.1653 -0.5188
 2585TIP3    H129390   6.856   1.952   8.225  2.4446 -0.8990  0.9163
 2585TIP3    H229391   6.825   2.099   8.241 -0.6256 -1.5354  1.5199
 2586TIP3   OH229392   5.769   6.593   0.310  0.0475 -0.4854  0.2587
 2586TIP3    H129393   5.712   6.628   0.378  0.8083  0.3393  0.4916
 2586TIP3    H229394   5.710   6.558   0.244 -0.7529  1.3343 -0.0291
 2587TIP3   OH229395   4.053   1.023   8.224 -0.0645  0.0885  0.0882
 2587TIP3    H129396   4.039   1.114   8.248 -0.0077  0.5027 -1.3468
 2587TIP3    H229397   3.971   0.979   8.248 -0.2512  0.5917  0.3937
 2588TIP3   OH229398   0.169   6.013   1.902  0.5365  0.4030  0.2520
 2588TIP3    H129399   0.218   5.981   1.826 -1.8662  1.5245 -1.9418
 2588TIP3    H229400   0.206   6.100   1.919  0.9452  0.2359  0.2364
 2589TIP3   OH229401   1.627   0.671   7.304 -0.0478  0.3550  0.1464
 2589TIP3    H129402   1.607   0.629   7.388 -0.5411  3.2790  1.6017
 2589TIP3    H229403   1.723   0.672   7.300  0.1804  3.4358  2.6146
 2590TIP3   OH229404   1.164   3.233   6.861  0.0399  0.1702  0.3561
 2590TIP3    H129405   1.169   3.277   6.776  1.7644  0.1528  0.4025
 2590TIP3    H229406   1.215   3.289   6.920  2.7567 -2.0148  0.3031
 2591TIP3   OH229407   4.472   3.931   0.611 -0.1220  0.0216  0.1408
 2591TIP3    H129408   4.474   3.990   0.686 -2.0992 -0.5561  0.7169
 2591TIP3    H229409   4.483   3.988   0.535  0.1155  0.8405  0.7774
 2592TIP3   OH229410   6.492   2.054   0.565 -0.0651 -0.0938 -0.1312
 2592TIP3    H129411   6.580   2.047   0.603 -0.5354  0.4981  1.1187
 2592TIP3    H229412   6.434   2.067   0.641 -1.1113  0.5504 -1.0118
 2593TIP3   OH229413   2.883   0.312   0.401 -0.2520  0.4852 -0.6467
 2593TIP3    H129414   2.860   0.276   0.315  1.4432  3.4717 -2.4978
 2593TIP3    H229415   2.979   0.311   0.403 -0.2458  0.3956  1.3120
 2594TIP3   OH229416   3.051   3.310   0.644  0.4353  0.0660 -0.4283
 2594TIP3    H129417   3.139   3.338   0.670  0.2278 -1.2710  1.9917
 2594TIP3    H229418   3.029   3.367   0.571  3.1782  0.6448 -0.9369
 2595TIP3   OH229419   2.171   6.721   2.017 -0.3251  0.3061  0.2801
 2595TIP3    H129420   2.212   6.761   2.094  1.5306 -1.5408  0.3313
 2595TIP3    H229421   2.135   6.638   2.050  0.4493 -0.4845 -0.8043
 2596TIP3   OH229422   5.056   4.209   7.559  0.1239  0.2483 -0.0493
 2596TIP3    H129423   5.134   4.203   7.503 -0.5713  0.4052 -1.0748
 2596TIP3    H229424   5.010   4.287   7.527  0.3244  1.0862  1.5894
 2597TIP3   OH229425   3.103   5.558   1.170 -0.1338  0.0212  0.0243
 2597TIP3    H129426   3.102   5.653   1.179 -0.2850 -0.0958  1.3379
 2597TIP3    H229427   3.191   5.538   1.138  0.2386  0.5219  0.7255
 2598TIP3   OH229428   5.544   3.562   6.886  0.4485  0.2520 -0.2979
 2598TIP3    H129429   5.588   3.634   6.843  2.4599 -0.6869  0.0642
 2598TIP3    H229430   5.589   3.483   6.854 -0.2995 -0.6906  0.8622
 2599TIP3   OH229431   0.637   6.144   0.980  0.1699  0.1862  0.1986
 2599TIP3    H129432   0.549   6.127   0.947  0.5587 -0.6868 -0.4310
 2599TIP3    H229433   0.623   6.173   1.071 -0.7952  0.7465 -0.1125
 2600TIP3   OH229434   3.759   2.748   7.629 -0.2885  0.3634  0.3434
 2600TIP3    H129435   3.756   2.655   7.651 -0.2039  0.2224 -0.2322
 2600TIP3    H229436   3.668   2.773   7.618 -0.4484  0.7625  2.1364
 2601TIP3   OH229437   5.814   2.918   0.362 -0.2915 -0.6177  1.0507
 2601TIP3    H129438   5.843   2.855   0.428  1.6538  0.2597  1.1071
 2601TIP3    H229439   5.849   2.885   0.279  0.8677  0.3906  1.1010
 2602TIP3   OH229440   4.288   3.816   0.147  0.2740  0.3693  0.1858
 2602TIP3    H129441   4.365   3.765   0.171  1.2134  0.4593 -2.3415
 2602TIP3    H229442   4.312   3.860   0.066 -2.6758 -0.1809 -1.1274
 2603TIP3   OH229443   2.230   1.418   1.679  0.1073  0.0164 -0.1756
 2603TIP3    H129444   2.231   1.323   1.663  2.1131  0.3043 -2.2349
 2603TIP3    H229445   2.267   1.456   1.599 -1.0999  2.6033  0.3946
 2604TIP3   OH229446   6.031   7.012   1.425  0.0185 -0.0781 -0.4485
 2604TIP3    H129447   6.049   6.918   1.421 -1.0888 -0.2574 -1.8551
 2604TIP3    H229448   6.086   7.044   1.497 -1.5597 -2.2537  1.8864
 2605TIP3   OH229449   0.171   0.609   1.767  0.0655  0.0962 -0.0729
 2605TIP3    H129450   0.102   0.642   1.711  0.4482  2.1976  0.5895
 2605TIP3    H229451   0.252   0.626   1.719  0.2578 -0.4469  0.0423
 2606TIP3   OH229452   4.445   1.839   1.066 -0.8072 -0.1729 -0.7312
 2606TIP3    H129453   4.442   1.876   0.978 -1.6964  2.3985  0.2782
 2606TIP3    H229454   4.539   1.832   1.086 -0.5965  0.9889 -1.2302
 2607TIP3   OH229455   6.880   5.874   0.369  0.2666  0.0778 -0.2337
 2607TIP3    H129456   6.854   5.816   0.298 -2.3835 -0.6513  1.2012
 2607TIP3    H229457   6.862   5.962   0.336 -0.9983 -0.2546 -0.4788
 2608TIP3   OH229458   4.620   2.426   1.731 -0.1266  0.1685  0.0675
 2608TIP3    H129459   4.606   2.445   1.638  1.1879 -1.4627 -0.5152
 2608TIP3    H229460   4.709   2.392   1.736 -0.0376  0.5309  2.0057
 2609TIP3   OH229461   5.772   3.800   1.621 -0.0510 -1.1724 -0.0305
 2609TIP3    H129462   5.836   3.871   1.634  0.5549 -1.6026 -0.5755
 2609TIP3    H229463   5.759   3.763   1.708 -2.2996  1.1783  0.7645
 2610TIP3   OH229464   0.347   4.776   2.233  0.5464  0.4576 -0.3936
 2610TIP3    H129465   0.437   4.807   2.224  1.3126 -1.3649  0.4549
 2610TIP3    H229466   0.312   4.825   2.307  1.6385 -0.4602  0.7668
 2611TIP3   OH229467   3.867   6.176   0.454  1.0612 -0.0887 -0.8554
 2611TIP3    H129468   3.888   6.083   0.460  0.2939 -0.4530 -2.9422
 2611TIP3    H229469   3.932   6.211   0.394  1.1605  0.6847 -0.3085
 2612TIP3   OH229470   6.881   3.110   7.255  0.2013  0.3860 -0.0701
 2612TIP3    H129471   6.904   3.202   7.268  1.9016 -0.0586  0.3692
 2612TIP3    H229472   6.887   3.098   7.160  0.7949  0.5322 -0.0536
 2613TIP3   OH229473   6.466   6.870   7.086  0.4531  0.0161  0.8921
 2613TIP3    H129474   6.426   6.955   7.101  0.7950 -0.0942  2.6361
 2613TIP3    H229475   6.488   6.870   6.993 -1.0955  1.1366  0.4855
 2614TIP3   OH229476   0.564   4.306   2.444 -0.0729  0.4247 -0.4780
 2614TIP3    H129477   0.588   4.214   2.454 -1.0673  0.0804 -1.0503
 2614TIP3    H229478   0.475   4.311   2.480 -0.1295  1.1029 -0.7016
 2615TIP3   OH229479   5.284   5.968   0.281 -0.2770 -0.0870 -0.0616
 2615TIP3    H129480   5.250   5.957   0.370  0.2050  0.0318  0.1415
 2615TIP3    H229481   5.207   5.960   0.224 -0.7028  0.5795  0.4132
 2616TIP3   OH229482   1.916   1.494   6.680  0.3519  0.0605  0.0426
 2616TIP3    H129483   2.008   1.486   6.654  1.0459 -0.8514  2.4684
 2616TIP3    H229484   1.908   1.582   6.715 -0.1371  0.6680 -1.4941
 2617TIP3   OH229485   5.197   2.119   7.765 -0.1470  0.3932 -0.2806
 2617TIP3    H129486   5.211   2.093   7.674 -1.7261 -1.7441 -0.0169
 2617TIP3    H229487   5.284   2.122   7.804  0.3874 -1.2488 -1.2712
 2618TIP3   OH229488   0.433   2.642   1.349 -0.2025 -0.6206 -0.1060
 2618TIP3    H129489   0.350   2.640   1.396 -0.2162 -0.4195 -0.1247
 2618TIP3    H229490   0.480   2.717   1.384  0.3950 -1.3141  0.6353
 2619TIP3   OH229491   1.978   6.901   0.762 -0.4531 -0.0991 -0.1334
 2619TIP3    H129492   1.990   6.979   0.817  1.3409  0.2389 -0.9368
 2619TIP3    H229493   1.995   6.828   0.821  0.6214  0.2258 -0.0270
 2620TIP3   OH229494   3.091   4.737   0.644  0.9804  0.1511 -0.8411
 2620TIP3    H129495   3.005   4.727   0.686  0.4270  1.3113 -1.6376
 2620TIP3    H229496   3.110   4.651   0.607  0.2686 -0.1873 -0.4435
 2621TIP3   OH229497   5.626   0.766   6.643  0.2395 -0.6335  0.6663
 2621TIP3    H129498   5.572   0.746   6.719  0.1320 -0.1940  0.7107
 2621TIP3    H229499   5.716   0.756   6.673  0.1821 -1.5616  0.5395
 2622TIP3   OH229500   6.835   4.332   0.552  0.6090 -0.6495 -0.2145
 2622TIP3    H129501   6.907   4.327   0.614 -0.4528  0.6545  1.2132
 2622TIP3    H229502   6.833   4.424   0.526 -0.0252 -0.8402 -0.8754
 2623TIP3   OH229503   6.906   0.792   7.385 -0.2565  0.1447 -0.1839
 2623TIP3    H129504   6.916   0.699   7.404 -1.3435  0.3445  1.6494
 2623TIP3    H229505   6.995   0.828   7.393  0.0398 -0.6088 -0.0738
 2624TIP3   OH229506   4.056   0.977   1.229  0.3194 -0.2820  0.0905
 2624TIP3    H129507   4.094   0.903   1.181  1.3440 -0.0159  0.4492
 2624TIP3    H229508   4.084   1.054   1.179  1.4876  0.0054  1.1357
 2625TIP3   OH229509   3.559   4.579   2.089 -0.2285  0.2696 -0.3686
 2625TIP3    H129510   3.653   4.563   2.081 -0.6340 -3.5415  0.8406
 2625TIP3    H229511   3.530   4.598   1.999  1.4394 -0.0702 -0.9987
 2626TIP3   OH229512   4.025   1.537   6.386  0.9509  0.3005  0.2672
 2626TIP3    H129513   4.103   1.559   6.334 -1.0113  2.3757 -2.0956
 2626TIP3    H229514   4.007   1.446   6.364  2.0087  0.1699 -0.1349
 2627TIP3   OH229515   6.325   4.620   7.258 -0.2105 -0.1473  0.4230
 2627TIP3    H129516   6.369   4.629   7.342 -0.8772 -1.5094  0.9425
 2627TIP3    H229517   6.237   4.652   7.273  0.1881  1.3679 -0.2787
 2628TIP3   OH229518   2.706   5.459   8.148  0.9481  0.2563  0.3245
 2628TIP3    H129519   2.737   5.442   8.059  0.8576  0.3280  0.2789
 2628TIP3    H229520   2.785   5.454   8.202  0.6872 -2.0673  0.5842
 2629TIP3   OH229521   4.723   4.088   2.968  0.1456  0.2951  0.0688
 2629TIP3    H129522   4.741   4.182   2.972 -0.2540  0.3616  0.3951
 2629TIP3    H229523   4.631   4.080   2.992 -0.2295 -0.0544 -1.3837
 2630TIP3   OH229524   3.591   4.712   0.819  0.5664  0.3166  0.1266
 2630TIP3    H129525   3.673   4.742   0.780  0.6956 -0.5156 -0.2734
 2630TIP3    H229526   3.526   4.724   0.749  1.0069 -2.2545 -0.8399
 2631TIP3   OH229527   6.129   3.901   7.442  0.2608  0.5103  1.0191
 2631TIP3    H129528   6.069   3.833   7.472  0.9258 -0.0469  1.1048
 2631TIP3    H229529   6.194   3.854   7.389 -0.3197  1.3303 -0.4638
 2632TIP3   OH229530   6.196   5.107   1.435 -0.2380 -0.6875  0.5498
 2632TIP3    H129531   6.195   5.202   1.435 -0.2523 -0.5700 -2.6971
 2632TIP3    H229532   6.288   5.084   1.449  0.0973 -0.0833 -0.5627
 2633TIP3   OH229533   0.848   3.801   0.987  0.4387  0.8658  0.0267
 2633TIP3    H129534   0.940   3.827   0.986  0.7463 -0.1358 -1.2088
 2633TIP3    H229535   0.818   3.816   0.897 -1.0535  2.5618  0.7308
 2634TIP3   OH229536   6.760   3.444   8.218 -0.4682  0.7368  0.1458
 2634TIP3    H129537   6.816   3.427   8.293  2.0265  3.2018 -0.9495
 2634TIP3    H229538   6.775   3.370   8.159 -1.4123 -0.5346  1.4437
 2635TIP3   OH229539   5.830   6.353   0.766  0.2809 -0.2868  0.0991
 2635TIP3    H129540   5.754   6.406   0.745  0.9642  0.3843 -0.7826
 2635TIP3    H229541   5.884   6.356   0.686  1.2398 -0.7096  0.7099
 2636TIP3   OH229542   5.036   0.467   0.487 -0.0010 -0.2239 -0.0261
 2636TIP3    H129543   4.954   0.450   0.441 -0.2984  0.8046  0.0891
 2636TIP3    H229544   5.041   0.399   0.554 -1.3919  0.4306  0.7769
 2637TIP3   OH229545   4.515   6.024   6.672  0.1246 -0.8354  0.2398
 2637TIP3    H129546   4.606   5.995   6.664 -0.1327 -1.1874 -2.5192
 2637TIP3    H229547   4.472   5.955   6.722  1.5608 -0.0178  2.8032
 2638TIP3   OH229548   2.260   2.062   1.890  0.1309 -0.5039  0.0772
 2638TIP3    H129549   2.313   1.983   1.899  0.2189 -0.4501  0.0358
 2638TIP3    H229550   2.194   2.055   1.959 -1.2557 -1.7052 -1.2834
 2639TIP3   OH229551   1.463   0.134   2.357  0.6357 -0.6332 -0.1065
 2639TIP3    H129552   1.394   0.146   2.293  0.9838 -1.1760 -0.5971
 2639TIP3    H229553   1.421   0.150   2.442 -0.2192 -1.4698 -0.3591
 2640TIP3   OH229554   5.538   2.998   0.038  0.0038 -0.3561  0.4908
 2640TIP3    H129555   5.498   2.996   0.125 -0.7149 -1.7062  0.1635
 2640TIP3    H229556   5.545   2.906   0.013 -0.8932  0.0206 -1.3579
 2641TIP3   OH229557   0.669   1.357   0.327  0.1172 -0.5617 -0.1918
 2641TIP3    H129558   0.657   1.281   0.383 -1.1060 -1.8561 -2.0978
 2641TIP3    H229559   0.720   1.325   0.253 -1.2894  0.1503 -1.5397
 2642TIP3   OH229560   0.869   4.923   6.911  0.0097 -0.2328  0.4382
 2642TIP3    H129561   0.802   4.976   6.867 -0.4361 -1.5007 -0.4896
 2642TIP3    H229562   0.927   4.895   6.840  2.5057  2.0882  1.3889
 2643TIP3   OH229563   4.110   0.181   1.160 -0.1116 -0.2087  0.0065
 2643TIP3    H129564   4.108   0.088   1.138  0.8255 -0.5723  1.3143
 2643TIP3    H229565   4.020   0.203   1.184 -0.2961 -0.8414 -0.0928
 2644TIP3   OH229566   5.332   2.596   7.299  0.0726  0.1143 -0.1764
 2644TIP3    H129567   5.330   2.680   7.344 -2.7247  0.0838 -0.0449
 2644TIP3    H229568   5.315   2.617   7.207  0.8149 -0.2070 -0.3953
 2645TIP3   OH229569   3.107   6.757   7.872  0.5236 -0.4096  0.3901
 2645TIP3    H129570   3.160   6.834   7.855 -1.0281  0.2520 -1.8994
 2645TIP3    H229571   3.150   6.687   7.822 -0.4515  0.0355 -1.1380
 2646TIP3   OH229572   3.642   3.042   1.668  0.1848  0.2843  0.2443
 2646TIP3    H129573   3.699   3.094   1.611 -0.1868  2.2151  1.5251
 2646TIP3    H229574   3.699   3.013   1.740  0.3583 -1.0233 -0.3927
 2647TIP3   OH229575   1.879   0.080   1.932  0.0989  0.0800  0.1459
 2647TIP3    H129576   1.879   0.094   1.837  1.4241 -0.0936  0.1046
 2647TIP3    H229577   1.904  -0.011   1.943  0.4620  0.2406  0.6751
 2648TIP3   OH229578   1.388   1.657   1.364 -0.1323  0.3252  0.2829
 2648TIP3    H129579   1.328   1.686   1.432  0.2925  1.7960  0.0663
 2648TIP3    H229580   1.441   1.734   1.344  1.0877 -0.6314 -0.3082
 2649TIP3   OH229581   5.120   5.838   0.523 -0.1088 -0.0386  0.4089
 2649TIP3    H129582   5.154   5.797   0.602 -0.3447 -0.3329  0.3570
 2649TIP3    H229583   5.062   5.772   0.484  0.2325 -0.0120 -0.1616
 2650TIP3   OH229584   6.294   0.127   1.830 -0.0961  0.0286  0.4318
 2650TIP3    H129585   6.281   0.097   1.920 -2.8462  0.3289  0.2206
 2650TIP3    H229586   6.233   0.201   1.820  1.3037  1.0386 -1.2145
 2651TIP3   OH229587   6.798   5.143   6.828  0.1025  0.1252 -0.1592
 2651TIP3    H129588   6.747   5.062   6.821  0.0925  0.2656 -2.2161
 2651TIP3    H229589   6.821   5.165   6.738  1.5674  1.5075  0.5025
 2652TIP3   OH229590   4.498   1.372   1.341  0.3062 -0.5358 -0.5041
 2652TIP3    H129591   4.528   1.366   1.250 -2.3657  0.8486 -1.6039
 2652TIP3    H229592   4.486   1.465   1.356 -1.3505 -0.8695  0.4931
 2653TIP3   OH229593   5.151   6.382   1.341  0.2718 -0.2188 -0.4290
 2653TIP3    H129594   5.152   6.478   1.344  3.7612 -0.1426  1.2628
 2653TIP3    H229595   5.142   6.361   1.249 -0.8876  1.6849 -0.8163
 2654TIP3   OH229596   5.668   1.822   7.342 -0.4082 -0.2492 -0.1486
 2654TIP3    H129597   5.666   1.778   7.257  0.9378  0.5026 -0.5926
 2654TIP3    H229598   5.748   1.874   7.340 -0.9931  0.7485  1.0959
 2655TIP3   OH229599   4.278   6.784   7.891  0.2230 -0.6463 -0.6177
 2655TIP3    H129600   4.329   6.766   7.970  1.5613  0.9028 -1.0762
 2655TIP3    H229601   4.265   6.698   7.851 -0.4521 -1.4663  1.2267
 2656TIP3   OH229602   6.618   5.698   1.679 -0.3833 -0.4697  0.3956
 2656TIP3    H129603   6.692   5.710   1.739 -1.0720 -2.4430  1.7246
 2656TIP3    H229604   6.641   5.620   1.629 -1.2305 -0.6558  0.2937
 2657TIP3   OH229605   6.304   4.296   0.243  0.0384  0.5422  0.1774
 2657TIP3    H129606   6.346   4.241   0.177 -0.3397 -0.1715  0.5104
 2657TIP3    H229607   6.375   4.350   0.278 -0.0056  1.9259 -1.7411
 2658TIP3   OH229608   4.983   1.241   7.297  0.2327 -0.0698 -0.2262
 2658TIP3    H129609   4.952   1.330   7.315  0.8251  0.0866  0.0600
 2658TIP3    H229610   4.982   1.233   7.202 -1.4025 -0.3386 -0.2073
 2659TIP3   OH229611   0.171   0.614   1.028 -0.0882  0.4794  0.2075
 2659TIP3    H129612   0.219   0.584   1.105  0.7958 -1.2764 -0.9605
 2659TIP3    H229613   0.082   0.629   1.060  0.1144 -0.7495  1.4614
 2660TIP3   OH229614   1.410   6.760   7.525 -0.6140 -0.4906 -0.7097
 2660TIP3    H129615   1.443   6.776   7.613 -0.1667 -0.4138 -0.8913
 2660TIP3    H229616   1.431   6.839   7.476  2.1995 -1.7707 -1.7883
 2661TIP3   OH229617   4.702   3.389   1.726 -0.6921 -0.0529 -0.1938
 2661TIP3    H129618   4.778   3.380   1.669 -1.0383 -1.4009 -0.4709
 2661TIP3    H229619   4.731   3.449   1.795  0.0218  0.8894 -1.2740
 2662TIP3   OH229620   0.894   6.720   0.291  0.4525 -0.2293  0.7681
 2662TIP3    H129621   0.867   6.629   0.277 -1.4540  0.3062  0.6884
 2662TIP3    H229622   0.990   6.716   0.295  0.3805 -2.4669  2.3650
 2663TIP3   OH229623   1.135   3.352   2.686  0.0514  0.2678 -0.1791
 2663TIP3    H129624   1.174   3.320   2.605  0.6031  1.3399 -0.3471
 2663TIP3    H229625   1.043   3.368   2.663  0.2389  0.7081 -0.6366
 2664TIP3   OH229626   7.066   7.023   0.975  0.2035  0.0504 -0.0045
 2664TIP3    H129627   6.988   6.970   0.958 -1.0683  1.6095  0.7389
 2664TIP3    H229628   7.137   6.976   0.929 -1.0733 -1.5872 -0.4146
 2665TIP3   OH229629   6.577   3.621   8.102  0.0972  0.8833 -0.3091
 2665TIP3    H129630   6.590   3.596   8.010  0.9457 -0.4817  0.1412
 2665TIP3    H229631   6.647   3.575   8.149  0.0414  2.0276  0.9586
 2666TIP3   OH229632   5.442   3.279   0.584 -0.2646 -0.4275  0.2467
 2666TIP3    H129633   5.387   3.207   0.552  0.3019 -0.5600 -0.4727
 2666TIP3    H229634   5.532   3.250   0.566 -0.0623  1.0254 -1.3270
 2667TIP3   OH229635   7.070   6.271   7.858 -0.3224  0.1762  0.3819
 2667TIP3    H129636   7.074   6.201   7.792 -1.2658  0.0122  0.4758
 2667TIP3    H229637   7.128   6.241   7.928  0.9130  0.4835 -0.4687
 2668TIP3   OH229638   1.467   4.056   2.242  0.1266  0.4949  0.2957
 2668TIP3    H129639   1.486   4.009   2.323  0.3297 -1.0684 -0.6091
 2668TIP3    H229640   1.544   4.040   2.186 -0.1873  1.1966 -0.3641
 2669TIP3   OH229641   4.350   2.370   1.301 -0.3087  0.3498 -0.0281
 2669TIP3    H129642   4.325   2.405   1.387  1.5984  0.7462  0.3961
 2669TIP3    H229643   4.445   2.364   1.304 -0.0740  1.5980 -2.5942
 2670TIP3   OH229644   3.678   3.743   8.159 -0.2462 -0.2107  0.1797
 2670TIP3    H129645   3.620   3.675   8.125  1.5298 -2.5426  1.5676
 2670TIP3    H229646   3.722   3.702   8.233  2.7534  1.6332 -0.4356
 2671TIP3   OH229647   1.783   0.306   2.066  0.5246 -0.1494 -0.0824
 2671TIP3    H129648   1.819   0.313   2.155 -0.5336  1.2349  0.2821
 2671TIP3    H229649   1.849   0.257   2.017  1.3033 -0.6143  1.3734
 2672TIP3   OH229650   7.048   3.964   7.785 -0.1591 -0.3277 -0.1049
 2672TIP3    H129651   6.976   3.914   7.746  0.3029  0.7611 -2.5722
 2672TIP3    H229652   7.006   4.041   7.823 -0.5306 -0.9543  0.7899
 2673TIP3   OH229653   5.090   2.082   1.154  0.0069 -0.3320 -0.2503
 2673TIP3    H129654   5.169   2.109   1.107  0.0425  0.2178  0.1250
 2673TIP3    H229655   5.035   2.160   1.155  0.6062  0.1063  1.8896
 2674TIP3   OH229656   3.628   4.125   7.791 -0.3040  0.4687 -0.6972
 2674TIP3    H129657   3.695   4.181   7.831 -1.8335  2.9721 -1.4161
 2674TIP3    H229658   3.630   4.149   7.698  0.2834 -2.1676 -1.4442
 2675TIP3   OH229659   2.829   5.174   0.517  0.1088 -0.4572 -0.4020
 2675TIP3    H129660   2.909   5.210   0.479 -0.1404 -0.1455 -0.6370
 2675TIP3    H229661   2.855   5.089   0.552  0.0996 -1.2795 -2.2849
 2676TIP3   OH229662   3.591   4.113   1.263  0.1389 -0.1567  0.2011
 2676TIP3    H129663   3.628   4.087   1.178  1.7871 -0.8315  1.0832
 2676TIP3    H229664   3.501   4.139   1.242  0.9099  1.0567 -1.9749
 2677TIP3   OH229665   2.103   4.758   2.844  0.0107  0.0296 -0.1364
 2677TIP3    H129666   2.197   4.766   2.829  0.0875 -0.3830  0.1232
 2677TIP3    H229667   2.094   4.686   2.906 -0.5512 -0.6385 -0.9648
 2678TIP3   OH229668   3.212   1.723   0.999  0.2041  0.4978 -0.0217
 2678TIP3    H129669   3.172   1.654   1.053  1.1533  1.4503  2.0380
 2678TIP3    H229670   3.301   1.693   0.983  0.6035  1.1753  0.8324
 2679TIP3   OH229671   5.524   4.872   0.447 -0.3798  0.0895 -0.6877
 2679TIP3    H129672   5.485   4.955   0.420  0.0803 -0.2680 -2.6281
 2679TIP3    H229673   5.618   4.884   0.430 -0.0871 -0.2741  0.5868
 2680TIP3   OH229674   2.544   3.087   0.025  0.3903  0.5763  0.4917
 2680TIP3    H129675   2.618   3.111   0.080  0.4485  0.1268  0.6162
 2680TIP3    H229676   2.479   3.052   0.086  0.4448  0.1001  0.2846
 2681TIP3   OH229677   1.665   1.441   6.575 -0.7489 -0.1515  0.1422
 2681TIP3    H129678   1.641   1.519   6.626 -1.1174  0.5277 -1.0259
 2681TIP3    H229679   1.760   1.436   6.582 -0.6650  0.7320 -0.2047
 2682TIP3   OH229680   0.223   0.474   6.782 -0.3976  0.7464  0.0884
 2682TIP3    H129681   0.182   0.462   6.696 -1.3240  0.0446  0.6053
 2682TIP3    H229682   0.221   0.387   6.821  2.0188  0.5990 -0.0225
 2683TIP3   OH229683   4.615   5.533   0.156 -0.2268  0.7593  0.2572
 2683TIP3    H129684   4.524   5.504   0.160 -0.8149  2.4912  0.1226
 2683TIP3    H229685   4.640   5.547   0.247  0.1925 -0.4913  0.3520
 2684TIP3   OH229686   6.187   4.672   1.644  0.0577 -0.1440  0.4425
 2684TIP3    H129687   6.242   4.733   1.692 -0.2978  0.1552  0.4730
 2684TIP3    H229688   6.105   4.719   1.630  0.1259 -0.2591 -0.3762
 2685TIP3   OH229689   2.855   6.877   7.173  0.1976 -0.0259  0.0024
 2685TIP3    H129690   2.875   6.961   7.214  1.3498 -0.1887 -0.1914
 2685TIP3    H229691   2.891   6.812   7.232  0.7304 -0.3160 -0.6362
 2686TIP3   OH229692   1.392   0.507   7.191  0.2611  0.7804 -0.4990
 2686TIP3    H129693   1.355   0.478   7.274  0.4703  0.3180 -0.5636
 2686TIP3    H229694   1.465   0.564   7.216  2.0237 -1.4602 -0.3159
 2687TIP3   OH229695   0.697   1.366   1.648  0.7233  0.2731 -0.3054
 2687TIP3    H129696   0.655   1.385   1.731 -1.5193 -0.9128 -1.0774
 2687TIP3    H229697   0.752   1.289   1.665  0.9773  0.5820  0.2692
 2688TIP3   OH229698   4.030   6.969   8.180 -0.1426  0.0761  0.0764
 2688TIP3    H129699   4.024   7.005   8.269  2.0295 -0.5360  0.5275
 2688TIP3    H229700   4.105   7.015   8.141 -0.0777 -0.8105 -0.8759
 2689TIP3   OH229701   6.162   1.743   2.996 -0.1231 -0.2116 -0.0223
 2689TIP3    H129702   6.187   1.822   2.948 -1.2652  0.0953 -0.1473
 2689TIP3    H229703   6.243   1.694   3.006  0.9048  1.6447  1.3327
 2690TIP3   OH229704   2.372   4.754   2.776  0.1961  0.1922  0.0742
 2690TIP3    H129705   2.451   4.806   2.761  0.3048  0.0495  0.1640
 2690TIP3    H229706   2.392   4.667   2.742  0.2899 -0.0121  0.6499
 2691TIP3   OH229707   3.223   1.154   7.997 -0.3920  0.3753  0.4355
 2691TIP3    H129708   3.288   1.099   7.953 -0.4064  0.0470  0.8147
 2691TIP3    H229709   3.255   1.243   7.986  0.1861  0.2066  0.7188
 2692TIP3   OH229710   3.489   5.809   3.021  0.2873  0.5097 -0.1503
 2692TIP3    H129711   3.404   5.841   2.992  0.4805  0.7769 -0.4257
 2692TIP3    H229712   3.499   5.725   2.977 -0.2463  0.0253  0.6194
 2693TIP3   OH229713   2.821   4.561   7.264 -0.2149  0.4314 -0.0540
 2693TIP3    H129714   2.738   4.594   7.228 -0.8346 -1.0278 -0.0551
 2693TIP3    H229715   2.811   4.465   7.262 -0.3551  0.2057  4.1152
 2694TIP3   OH229716   6.472   0.523   1.286 -0.0549  0.2563  0.3273
 2694TIP3    H129717   6.486   0.611   1.251 -1.0966 -0.1686 -1.2868
 2694TIP3    H229718   6.377   0.518   1.300 -0.3419 -1.2908 -1.7085
 2695TIP3   OH229719   2.007   4.541   0.780  0.1747 -0.5202 -0.1777
 2695TIP3    H129720   2.048   4.469   0.731  0.4511 -2.2661  2.4332
 2695TIP3    H229721   2.080   4.585   0.824 -0.1614  0.3922 -0.5118
 2696TIP3   OH229722   2.701   5.802   1.646  0.0436  0.1884  0.0529
 2696TIP3    H129723   2.733   5.888   1.621  0.4228  0.2496  0.7510
 2696TIP3    H229724   2.606   5.811   1.648  0.0894  0.6156  0.2386
 2697TIP3   OH229725   0.555   0.320   7.159 -0.5668  0.7658  0.2923
 2697TIP3    H129726   0.603   0.371   7.094  1.1439  0.0600  0.9366
 2697TIP3    H229727   0.617   0.309   7.231 -1.3400 -1.0332  0.7349
 2698TIP3   OH229728   6.731   6.081   7.917  0.3266 -0.5435 -0.7870
 2698TIP3    H129729   6.727   6.148   7.849 -1.4237  1.1115  0.8498
 2698TIP3    H229730   6.803   6.109   7.974  0.5337 -0.8702 -0.8832
 2699TIP3   OH229731   6.562   5.819   0.244  0.4321 -0.3536 -0.3444
 2699TIP3    H129732   6.570   5.847   0.153  1.0273  1.1976  0.1589
 2699TIP3    H229733   6.616   5.880   0.294  0.6853 -1.5894  0.9933
 2700TIP3   OH229734   5.700   6.132   8.087 -0.0559  0.1366  0.1083
 2700TIP3    H129735   5.740   6.199   8.031  0.5238  0.5012  0.9422
 2700TIP3    H229736   5.770   6.069   8.103 -0.2095  0.0514  0.4506
 2701TIP3   OH229737   1.289   0.785   0.907  0.1682  0.1400 -0.5214
 2701TIP3    H129738   1.332   0.774   0.992  0.2995 -0.6470 -0.6887
 2701TIP3    H229739   1.257   0.698   0.884 -0.9226  0.5666 -0.7220
 2702TIP3   OH229740   4.175   2.674   7.178 -0.4957  0.5371  0.6538
 2702TIP3    H129741   4.087   2.662   7.143  0.1624 -0.6389 -0.6579
 2702TIP3    H229742   4.205   2.586   7.199 -0.3860  1.0771  3.1174
 2703TIP3   OH229743   0.293   4.420   0.580  0.1142  0.2036 -0.1403
 2703TIP3    H129744   0.367   4.408   0.520  0.7645 -1.4177  0.9507
 2703TIP3    H229745   0.329   4.404   0.667 -1.6094 -1.0587  0.3855
 2704TIP3   OH229746   0.975   2.240   7.908  0.1058  0.4011  0.0813
 2704TIP3    H129747   0.923   2.160   7.899  2.2608 -1.1685  0.7524
 2704TIP3    H229748   1.063   2.214   7.880  1.3110  1.9948  2.1568
 2705TIP3   OH229749   0.466   4.060   7.546 -0.3841 -0.1348  1.1616
 2705TIP3    H129750   0.386   4.112   7.558 -1.5900 -2.3788  4.0580
 2705TIP3    H229751   0.466   4.037   7.453 -2.6819  0.5781  0.9196
 2706TIP3   OH229752   0.986   3.849   0.509 -0.4033  0.3835  0.7864
 2706TIP3    H129753   0.891   3.848   0.502 -0.6366  2.6817  2.2959
 2706TIP3    H229754   1.017   3.867   0.420 -1.4348  0.5642  0.4507
 2707TIP3   OH229755   7.015   5.858   6.955 -0.4826  0.4331 -0.4680
 2707TIP3    H129756   7.028   5.896   7.042 -1.5813  0.5075 -0.3209
 2707TIP3    H229757   6.980   5.929   6.902  3.7887  1.5841 -2.1506
 2708TIP3   OH229758   3.691   3.399   2.076  0.0851 -0.1325 -0.0157
 2708TIP3    H129759   3.608   3.409   2.029 -0.1624  0.6380  0.5744
 2708TIP3    H229760   3.686   3.462   2.148  1.0189 -0.3618  0.2625
 2709TIP3   OH229761   1.749   6.304   2.141  0.5929 -0.6743 -0.3031
 2709TIP3    H129762   1.759   6.341   2.228  0.3517 -0.1107 -0.5097
 2709TIP3    H229763   1.677   6.353   2.102 -2.7982 -4.2038  0.9269
 2710TIP3   OH229764   2.354   1.491   7.564  0.2320 -0.7970  0.2534
 2710TIP3    H129765   2.328   1.411   7.520 -0.5038 -1.7140  2.2416
 2710TIP3    H229766   2.450   1.489   7.564  0.2263 -1.2525 -0.3968
 2711TIP3   OH229767   6.217   3.690   1.017  0.2835  0.4677  0.2322
 2711TIP3    H129768   6.184   3.605   0.988 -0.0520  0.8959 -0.6575
 2711TIP3    H229769   6.309   3.690   0.990  0.2766  0.4113  0.2079
 2712TIP3   OH229770   2.940   0.494   2.510  0.7962 -0.1593  0.3834
 2712TIP3    H129771   2.926   0.401   2.492 -0.1878 -0.1580  1.0259
 2712TIP3    H229772   2.868   0.538   2.464  0.6752  0.1875  0.8954
 2713TIP3   OH229773   3.836   4.145   2.159 -0.4608  0.2605 -0.8928
 2713TIP3    H129774   3.914   4.102   2.123  0.0672  0.1008  0.3955
 2713TIP3    H229775   3.870   4.205   2.225 -1.4971 -0.7369  0.5881
 2714TIP3   OH229776   3.315   4.474   1.720 -0.5515 -0.0425 -0.0470
 2714TIP3    H129777   3.302   4.433   1.635 -0.3455  0.7837 -0.4867
 2714TIP3    H229778   3.227   4.497   1.750 -0.7059 -1.0829  0.3662
 2715TIP3   OH229779   1.933   1.249   6.059  0.5781  0.1308 -0.0581
 2715TIP3    H129780   1.962   1.287   6.142  0.4032  0.4028 -0.1185
 2715TIP3    H229781   1.839   1.268   6.055  0.2845 -1.1421  0.3472
 2716TIP3   OH229782   0.879   4.027   7.691 -0.5426 -0.0206 -0.0230
 2716TIP3    H129783   0.834   4.107   7.663 -0.3779 -0.7007 -2.4156
 2716TIP3    H229784   0.808   3.966   7.712 -0.6792  0.1880  0.1320
 2717TIP3   OH229785   6.484   1.510   7.915  0.2290  0.3010  0.3448
 2717TIP3    H129786   6.524   1.585   7.958  0.3812  1.0777 -1.1022
 2717TIP3    H229787   6.463   1.540   7.827  0.3317 -1.3622 -0.2962
 2718TIP3   OH229788   4.681   6.431   0.778 -0.2894  0.3280 -0.3305
 2718TIP3    H129789   4.677   6.521   0.746  1.9002  0.9034  0.7902
 2718TIP3    H229790   4.753   6.392   0.728  3.1213  1.1940  3.3517
 2719TIP3   OH229791   6.736   1.542   8.131 -0.2835 -0.2758  0.3596
 2719TIP3    H129792   6.662   1.483   8.145  0.5605 -0.9647  2.0977
 2719TIP3    H229793   6.809   1.503   8.179  1.1260  0.6124 -0.9397
 2720TIP3   OH229794   5.613   1.375   7.463 -0.4916 -0.5563  0.1692
 2720TIP3    H129795   5.654   1.365   7.549  0.1226  1.4042  0.1560
 2720TIP3    H229796   5.531   1.422   7.481 -1.1430 -1.5148 -0.1793
 2721TIP3   OH229797   6.091   3.278   6.922  0.2122  0.6753 -0.1893
 2721TIP3    H129798   6.175   3.279   6.875 -0.2798 -0.4805 -1.1581
 2721TIP3    H229799   6.026   3.263   6.853 -0.4448 -2.3100  0.9405
 2722TIP3   OH229800   6.804   5.650   7.927 -0.1368  0.3862 -0.2864
 2722TIP3    H129801   6.722   5.645   7.977  0.0576 -0.6477 -0.0650
 2722TIP3    H229802   6.802   5.574   7.870  2.4858 -2.0296  2.5163
 2723TIP3   OH229803   2.156   3.126   0.911  0.4365 -0.0806  0.4631
 2723TIP3    H129804   2.152   3.086   0.825 -1.1148  2.2399 -0.6501
 2723TIP3    H229805   2.239   3.095   0.948  1.2981 -0.8995 -1.9746
 2724TIP3   OH229806   0.755   0.491   6.034  0.5235  0.4234  0.1569
 2724TIP3    H129807   0.755   0.546   5.955 -1.3918  1.3261  0.7423
 2724TIP3    H229808   0.756   0.554   6.106 -0.2078 -0.3433  0.8473
 2725TIP3   OH229809   5.448   6.583   7.961 -0.6674  0.4032 -0.2996
 2725TIP3    H129810   5.402   6.516   8.012 -0.2744 -0.2757 -0.8349
 2725TIP3    H229811   5.378   6.641   7.930 -1.1092 -0.2842 -0.6094
 2726TIP3   OH229812   2.931   7.056   2.336 -0.2925 -0.3482 -0.7460
 2726TIP3    H129813   2.924   6.974   2.384 -0.0837  0.2930  0.4147
 2726TIP3    H229814   3.024   7.075   2.334 -0.4852  1.2108  1.4237
 2727TIP3   OH229815   3.200   5.594   2.991  0.1856 -0.3866  0.1575
 2727TIP3    H129816   3.288   5.600   2.953  0.7896  1.9149  1.6900
 2727TIP3    H229817   3.141   5.596   2.915  1.4148 -0.9218 -0.8555
 2728TIP3   OH229818   1.824   0.330   0.854 -0.2984  0.2550 -0.2614
 2728TIP3    H129819   1.739   0.293   0.881 -0.8495  1.3944 -0.4041
 2728TIP3    H229820   1.833   0.304   0.763 -1.8189  2.4105 -1.1035
 2729TIP3   OH229821   5.971   0.040   0.846 -0.1276  0.0909  0.8727
 2729TIP3    H129822   5.943  -0.051   0.854 -0.2235  0.0699  0.3459
 2729TIP3    H229823   5.890   0.088   0.825  0.2714 -0.0425 -1.1801
 2730TIP3   OH229824   6.166   5.495   2.412 -0.5478  0.3079 -0.2747
 2730TIP3    H129825   6.242   5.492   2.353 -0.0749  3.2200  0.0158
 2730TIP3    H229826   6.202   5.479   2.499  0.2519  3.7314  0.1497
 2731TIP3   OH229827   4.460   5.787   6.812  0.6608 -0.1858 -0.4501
 2731TIP3    H129828   4.500   5.701   6.828  0.8948 -0.2188 -1.1845
 2731TIP3    H229829   4.510   5.848   6.866 -0.8019 -0.7808  1.7127
 2732TIP3   OH229830   6.946   0.573   2.508 -0.3279 -0.1561 -0.2086
 2732TIP3    H129831   6.916   0.485   2.532 -1.8466  0.5377  0.5376
 2732TIP3    H229832   7.027   0.584   2.557 -1.6489 -0.0521  2.0743
 2733TIP3   OH229833   3.533   5.675   0.615  0.0864 -0.2206  1.1991
 2733TIP3    H129834   3.621   5.644   0.640  0.4634  0.9261  1.3644
 2733TIP3    H229835   3.473   5.619   0.664  0.7281 -0.8959  1.2319
 2734TIP3   OH229836   1.733   2.170   1.738  0.3597  0.1447 -0.2907
 2734TIP3    H129837   1.763   2.260   1.748 -0.6332  0.3495  1.1945
 2734TIP3    H229838   1.798   2.117   1.784 -0.7862  0.4718  1.8458
 2735TIP3   OH229839   6.538   6.406   0.085 -0.0505 -0.2976 -0.0407
 2735TIP3    H129840   6.462   6.457   0.111 -0.1524  0.0046 -0.9091
 2735TIP3    H229841   6.513   6.315   0.102  0.0807 -0.0944  1.3742
 2736TIP3   OH229842   4.328   2.465   0.122 -0.1838  0.7633  0.3126
 2736TIP3    H129843   4.268   2.391   0.121 -1.2704  1.4579  3.0679
 2736TIP3    H229844   4.411   2.431   0.088 -0.9271 -1.4162  0.5812
 2737TIP3   OH229845   4.641   5.998   0.482  0.1948  0.0644  0.1793
 2737TIP3    H129846   4.667   5.923   0.429  1.9711 -0.8960  2.2642
 2737TIP3    H229847   4.692   6.071   0.447  2.2594 -0.8050  1.2154
 2738TIP3   OH229848   4.650   3.766   6.688 -0.0656  0.0156  0.4101
 2738TIP3    H129849   4.592   3.829   6.731 -0.0361 -0.1414  0.6824
 2738TIP3    H229850   4.612   3.753   6.601 -0.3358  0.0484  0.5246
 2739TIP3   OH229851   5.805   3.070   0.736  0.2524  0.2434  0.0601
 2739TIP3    H129852   5.802   3.121   0.656  1.6397  1.8317  0.9594
 2739TIP3    H229853   5.894   3.034   0.738 -0.1816 -0.8638  0.2688
 2740TIP3   OH229854   4.393   5.293   2.825  0.2675 -0.4752  0.0546
 2740TIP3    H129855   4.305   5.331   2.826  0.6367  0.4302 -0.8328
 2740TIP3    H229856   4.437   5.331   2.901 -0.6691 -2.4210  1.6962
 2741TIP3   OH229857   1.710   5.077   0.978  0.5810 -0.3754  0.2920
 2741TIP3    H129858   1.703   4.993   1.023  2.5797  0.1098  1.6501
 2741TIP3    H229859   1.684   5.142   1.043 -2.9296  0.0698 -1.3421
 2742TIP3   OH229860   6.277   2.920   7.052 -0.4464  0.0732 -0.9826
 2742TIP3    H129861   6.213   2.949   7.117  0.0502 -0.4693 -0.2318
 2742TIP3    H229862   6.229   2.860   6.995 -0.6125 -0.3480 -0.4116
 2743TIP3   OH229863   5.409   2.885   1.058 -0.2033  0.0142 -0.4866
 2743TIP3    H129864   5.488   2.858   1.104 -0.9298 -3.4179 -0.9996
 2743TIP3    H229865   5.440   2.945   0.991  1.8567 -0.6221 -0.1716
 2744TIP3   OH229866   6.948   4.666   7.624  0.9735  0.8320 -0.1896
 2744TIP3    H129867   6.941   4.631   7.713  0.5142 -1.6773 -1.1312
 2744TIP3    H229868   7.042   4.666   7.605  1.0661  1.2950  0.2538
 2745TIP3   OH229869   1.618   6.219   6.490 -0.2190 -0.4388  0.0742
 2745TIP3    H129870   1.706   6.182   6.504  0.1699 -0.1731 -1.4636
 2745TIP3    H229871   1.576   6.213   6.576  0.9150 -1.5844  0.5953
 2746TIP3   OH229872   4.260   0.300   7.719 -0.1176 -0.1457 -0.2794
 2746TIP3    H129873   4.222   0.241   7.784 -1.1198  2.1355  1.3367
 2746TIP3    H229874   4.289   0.376   7.770 -0.9971  1.7825 -2.4825
 2747TIP3   OH229875   6.020   2.838   1.382 -0.2974  0.0481 -0.2386
 2747TIP3    H129876   6.112   2.815   1.371 -0.2472  0.1407 -0.0215
 2747TIP3    H229877   5.972   2.759   1.357 -0.1598  0.0021 -0.3601
 2748TIP3   OH229878   1.201   4.887   7.377  0.6754  0.3632 -0.0069
 2748TIP3    H129879   1.124   4.930   7.340  0.2099 -0.7511 -0.3703
 2748TIP3    H229880   1.275   4.935   7.339  0.1812  0.2672 -1.1547
 2749TIP3   OH229881   6.746   3.386   1.239  0.0932  0.5301 -0.3471
 2749TIP3    H129882   6.693   3.306   1.233  0.6518  0.0934  0.3034
 2749TIP3    H229883   6.745   3.422   1.151 -0.5242  0.0333 -0.5556
 2750TIP3   OH229884   4.486   2.166   1.581 -0.0665 -0.0713 -0.1705
 2750TIP3    H129885   4.416   2.231   1.582 -0.1954 -0.1803 -1.3273
 2750TIP3    H229886   4.536   2.185   1.502  0.7430 -0.4970  0.2252
 2751TIP3   OH229887   0.855   3.751   1.936  0.1135 -0.4488  0.6129
 2751TIP3    H129888   0.849   3.807   2.014  1.3539 -2.3714  2.2009
 2751TIP3    H229889   0.907   3.801   1.874 -0.8678  1.1217  0.9969
 2752TIP3   OH229890   4.151   6.483   1.038  0.0265 -0.1458 -0.5509
 2752TIP3    H129891   4.063   6.490   1.076 -0.3208 -0.1587 -1.3321
 2752TIP3    H229892   4.198   6.423   1.096 -0.3575  0.1667  0.0899
 2753TIP3   OH229893   2.395   4.464   6.918  0.0351  0.2308  0.7217
 2753TIP3    H129894   2.346   4.502   6.845 -0.3876 -0.5881  0.5626
 2753TIP3    H229895   2.381   4.525   6.991 -1.5046 -0.1337  0.7752
 2754TIP3   OH229896   4.630   3.140   0.073 -0.0468  0.3404  0.0372
 2754TIP3    H129897   4.659   3.051   0.053  0.2447  0.1388  1.2797
 2754TIP3    H229898   4.569   3.162   0.003  1.2058 -0.1711 -1.2435
 2755TIP3   OH229899   6.795   0.202   1.725  0.2244  0.7198  0.6050
 2755TIP3    H129900   6.813   0.146   1.649 -1.7088  0.9745 -0.1036
 2755TIP3    H229901   6.764   0.142   1.792  1.5218  0.5502  1.0880
 2756TIP3   OH229902   5.927   4.009   1.741  0.2772 -0.0913  0.8637
 2756TIP3    H129903   5.920   4.102   1.724  0.9684 -0.2930 -0.6974
 2756TIP3    H229904   6.021   3.991   1.739  0.1157 -0.9892  0.0045
 2757TIP3   OH229905   5.735   2.397   1.853 -0.0139  0.5853  0.0481
 2757TIP3    H129906   5.737   2.353   1.939 -1.4988  1.6757  0.6849
 2757TIP3    H229907   5.820   2.440   1.847 -0.0838  0.9376  1.2345
 2758TIP3   OH229908   2.362   5.813   7.618  0.2635  0.5914  0.2345
 2758TIP3    H129909   2.380   5.773   7.533 -2.4085  2.0450 -1.1443
 2758TIP3    H229910   2.354   5.739   7.678 -0.5255 -0.6845 -1.3643
 2759TIP3   OH229911   2.978   0.425   0.110  0.1288 -0.0006  0.2462
 2759TIP3    H129912   2.933   0.467   0.037 -1.0565  0.0121  0.9517
 2759TIP3    H229913   2.981   0.332   0.085 -0.8840 -0.1084  0.4523
 2760TIP3   OH229914   7.017   2.294   1.768 -0.2243  0.1554 -0.0343
 2760TIP3    H129915   6.980   2.263   1.851  0.1345 -0.7980 -0.2132
 2760TIP3    H229916   7.067   2.372   1.791 -0.6298  0.2525  0.5403
 2761TIP3   OH229917   5.374   0.728   0.944 -0.2586 -0.1082 -0.4212
 2761TIP3    H129918   5.342   0.641   0.969 -0.0402  0.0235  0.3453
 2761TIP3    H229919   5.307   0.789   0.974  1.1697  0.2780  2.3239
 2762TIP3   OH229920   6.718   3.941   7.962  0.2067  0.5887  0.4699
 2762TIP3    H129921   6.641   3.976   7.917  0.9323  0.2355 -1.1305
 2762TIP3    H229922   6.684   3.903   8.043 -1.4697 -0.4239 -0.6384
 2763TIP3   OH229923   0.277   1.540   1.906  0.6191 -0.5155  0.2372
 2763TIP3    H129924   0.364   1.514   1.875  1.2188  0.4122  1.0993
 2763TIP3    H229925   0.266   1.493   1.988 -0.7129 -2.4798 -0.9814
 2764TIP3   OH229926   3.941   5.338   0.811 -0.5602 -0.1953 -0.1639
 2764TIP3    H129927   3.962   5.385   0.892 -1.2510 -0.3682  0.1203
 2764TIP3    H229928   4.026   5.311   0.777 -0.3132 -1.0087  1.0404
 2765TIP3   OH229929   3.667   5.632   2.377  0.3433  0.1700  0.2595
 2765TIP3    H129930   3.718   5.628   2.458 -0.5171 -1.7679  0.7492
 2765TIP3    H229931   3.692   5.553   2.329 -1.7277 -0.5280  0.2416
 2766TIP3   OH229932   5.555   0.071   0.458 -0.0902 -0.1528  0.4087
 2766TIP3    H129933   5.635   0.033   0.495  0.3681  1.6320  1.3511
 2766TIP3    H229934   5.488   0.004   0.471  1.4120 -2.2140 -1.4572
 2767TIP3   OH229935   5.829   5.055   1.474  0.0334 -0.4099  0.1749
 2767TIP3    H129936   5.809   5.003   1.397 -1.2530  2.0386 -1.2783
 2767TIP3    H229937   5.747   5.059   1.523 -0.4881  1.6825 -0.7387
 2768TIP3   OH229938   1.210   1.679   6.066  0.2117 -0.2650  0.2783
 2768TIP3    H129939   1.186   1.684   6.159  0.5980 -1.0065  0.4231
 2768TIP3    H229940   1.303   1.700   6.064  0.1697 -0.1003  0.0387
 2769TIP3   OH229941   3.223   1.651   0.307 -0.2060  0.1959  0.4952
 2769TIP3    H129942   3.194   1.722   0.250 -0.4122  0.0849  0.4611
 2769TIP3    H229943   3.198   1.680   0.395  1.7506  1.2216  0.7751
 2770TIP3   OH229944   7.068   4.364   7.727  0.0238 -0.4121  0.2323
 2770TIP3    H129945   7.039   4.358   7.636 -1.9092  0.5705  0.7231
 2770TIP3    H229946   7.127   4.440   7.727 -1.0909  0.4934  0.0165
 2771TIP3   OH229947   0.887   4.009   0.189  0.0137  0.1619 -0.1230
 2771TIP3    H129948   0.869   4.076   0.256  0.4307  0.8364 -0.6652
 2771TIP3    H229949   0.920   4.059   0.114  3.1547 -0.8275  0.4304
 2772TIP3   OH229950   3.873   2.898   7.168  0.2840  0.4912  0.1876
 2772TIP3    H129951   3.808   2.924   7.103  1.2828  0.8014 -0.7351
 2772TIP3    H229952   3.893   2.807   7.146 -1.2276 -0.2496  1.7003
 2773TIP3   OH229953   5.267   7.004   7.674  0.0213 -0.1307 -0.3498
 2773TIP3    H129954   5.273   6.934   7.609 -0.1671  0.3453 -0.8832
 2773TIP3    H229955   5.299   7.082   7.629 -2.2830  0.7181 -0.6241
 2774TIP3   OH229956   5.145   2.972   1.000 -0.0243  0.1846 -0.4587
 2774TIP3    H129957   5.089   2.895   1.009 -0.3132  0.3450 -0.8579
 2774TIP3    H229958   5.224   2.950   1.049 -1.1414  0.6564  1.6545
 2775TIP3   OH229959   0.889   5.451   1.358  0.2754 -0.7921 -0.1418
 2775TIP3    H129960   0.943   5.423   1.431 -0.0906 -1.4550 -0.1195
 2775TIP3    H229961   0.937   5.525   1.319  0.5876 -0.5907  0.6136
 2776TIP3   OH229962   2.289   4.093   2.413  0.4517 -0.5144  0.7647
 2776TIP3    H129963   2.372   4.122   2.450  2.2328 -2.8795 -0.9754
 2776TIP3    H229964   2.269   4.158   2.346  0.1732  0.7482  2.0206
 2777TIP3   OH229965   4.692   6.720   7.151  0.2445 -1.1093 -0.0685
 2777TIP3    H129966   4.671   6.680   7.066 -1.6433  0.8143 -0.5980
 2777TIP3    H229967   4.766   6.777   7.133 -1.7611  1.3387 -1.1866
 2778TIP3   OH229968   4.197   5.073   7.451 -0.0246  0.3816 -0.6373
 2778TIP3    H129969   4.267   5.093   7.514 -0.7407  1.3097 -0.1075
 2778TIP3    H229970   4.243   5.042   7.373  0.9304  0.1179  0.0075
 2779TIP3   OH229971   6.293   1.985   6.919 -0.1502  0.9456  0.2559
 2779TIP3    H129972   6.260   1.960   6.833  1.3339  3.9154 -1.3291
 2779TIP3    H229973   6.225   2.042   6.955  0.5750  2.2989 -0.4320
 2780TIP3   OH229974   2.922   6.499   0.259 -0.2388  0.0976  0.4565
 2780TIP3    H129975   2.843   6.475   0.307 -1.6582 -0.2398 -1.8782
 2780TIP3    H229976   2.939   6.423   0.202  0.2229  1.1903 -0.9107
 2781TIP3   OH229977   0.124   3.545   7.371 -0.1372  0.1314  0.7084
 2781TIP3    H129978   0.145   3.498   7.290 -0.6700 -0.7105  1.0537
 2781TIP3    H229979   0.185   3.618   7.372 -0.1035  0.1431 -0.4501
 2782TIP3   OH229980   3.987   2.510   7.798 -0.0347  0.3048 -0.3676
 2782TIP3    H129981   4.080   2.521   7.818 -0.6036  1.0442  2.2824
 2782TIP3    H229982   3.974   2.416   7.797  0.7098  0.1984 -0.5778
 2783TIP3   OH229983   4.530   5.602   7.121 -0.3246  0.2591 -0.4574
 2783TIP3    H129984   4.556   5.576   7.032 -1.8771 -0.2365 -0.7970
 2783TIP3    H229985   4.593   5.558   7.178 -0.1464 -0.5558 -1.2535
 2784TIP3   OH229986   0.147   1.316   7.448  0.7187  0.2498 -0.7729
 2784TIP3    H129987   0.222   1.260   7.463  0.1060 -0.7954 -1.4841
 2784TIP3    H229988   0.088   1.264   7.393 -0.2854  1.2379 -0.6815
 2785TIP3   OH229989   6.456   4.782   0.683  0.2559  0.4044  0.7699
 2785TIP3    H129990   6.424   4.701   0.723  0.1281 -0.2411 -0.5862
 2785TIP3    H229991   6.496   4.830   0.755 -1.5738  0.1314  2.0516
 2786TIP3   OH229992   4.553   5.575   1.277  0.1370 -0.1544  0.7004
 2786TIP3    H129993   4.484   5.546   1.337 -1.6620  0.9683 -0.7362
 2786TIP3    H229994   4.573   5.664   1.306  1.6021 -0.7200  1.5749
 2787TIP3   OH229995   6.579   4.630   6.300 -0.4522 -0.0759 -0.0228
 2787TIP3    H129996   6.658   4.592   6.262  0.1772 -0.5324  1.6578
 2787TIP3    H229997   6.569   4.714   6.254  0.9382 -0.0629 -0.3496
 2788TIP3   OH229998   5.506   3.135   1.504 -0.3442 -0.7899  0.1098
 2788TIP3    H129999   5.517   3.225   1.536  1.9285 -1.0457  0.2602
 2788TIP3    H230000   5.490   3.145   1.410  1.5823 -0.2129 -0.2042
 2789TIP3   OH230001   1.948   1.135   2.083 -0.3212 -0.4710  0.0570
 2789TIP3    H130002   1.957   1.052   2.130 -0.5384 -0.0203  0.9175
 2789TIP3    H230003   1.896   1.114   2.006 -0.9477 -1.0153  0.6155
 2790TIP3   OH230004   0.506   2.119   0.860  0.2223  0.8251 -0.2694
 2790TIP3    H130005   0.493   2.035   0.816 -1.0977  1.3563 -0.9409
 2790TIP3    H230006   0.586   2.107   0.912 -0.6671 -1.2939  0.7334
 2791TIP3   OH230007   1.929   1.564   1.050  0.5890 -0.3929 -0.1426
 2791TIP3    H130008   1.996   1.572   0.983  2.6144 -1.2497  1.6421
 2791TIP3    H230009   1.913   1.470   1.057  0.9052 -0.3805  0.9720
 2792TIP3   OH230010   2.494   4.387   2.433 -0.3224  0.0554  0.4571
 2792TIP3    H130011   2.479   4.301   2.473 -0.3474 -0.1776 -0.0518
 2792TIP3    H230012   2.423   4.441   2.468  0.1774  0.0980  1.4317
 2793TIP3   OH230013   5.975   0.609   1.754  0.1208 -0.1073 -0.3211
 2793TIP3    H130014   5.963   0.602   1.659 -0.7211  0.5358 -0.2679
 2793TIP3    H230015   5.887   0.623   1.789  0.5853  1.1012  0.4234
 2794TIP3   OH230016   4.856   3.180   1.791  0.6213 -0.4229 -0.0426
 2794TIP3    H130017   4.835   3.119   1.721 -2.1428 -1.8942  1.8565
 2794TIP3    H230018   4.774   3.227   1.807  1.5184  0.7779  1.3418
 2795TIP3   OH230019   6.684   0.264   0.109 -0.4155 -0.6523  0.1909
 2795TIP3    H130020   6.730   0.216   0.178  1.8308  0.1331 -0.6710
 2795TIP3    H230021   6.702   0.356   0.127 -0.2425 -0.4082 -1.1357
 2796TIP3   OH230022   1.456   1.429   6.402  0.3392 -0.0875 -0.2166
 2796TIP3    H130023   1.388   1.469   6.456  0.1304  0.2181 -0.6956
 2796TIP3    H230024   1.534   1.427   6.458  0.6889  2.0484 -0.5167
 2797TIP3   OH230025   2.486   6.321   7.260 -0.8327 -0.3196  0.0964
 2797TIP3    H130026   2.531   6.330   7.344 -1.1743 -1.6147  0.4338
 2797TIP3    H230027   2.393   6.331   7.282 -1.0588 -2.1991  0.1590
 2798TIP3   OH230028   3.318   2.179   2.639  0.1273  0.0072 -0.7160
 2798TIP3    H130029   3.409   2.190   2.611  0.1521  0.1379 -0.5825
 2798TIP3    H230030   3.298   2.258   2.689 -0.1207  0.0715 -0.9093
 2799TIP3   OH230031   0.620   1.788   2.000 -0.3655  0.7611  0.3896
 2799TIP3    H130032   0.681   1.860   2.015  0.4441  0.1853 -0.0805
 2799TIP3    H230033   0.675   1.710   1.992 -0.9518  0.5056 -2.1198
 2800TIP3   OH230034   2.984   3.398   1.371 -0.0040 -0.0312 -0.2057
 2800TIP3    H130035   3.061   3.367   1.418  0.5935  0.7628 -0.6475
 2800TIP3    H230036   2.917   3.331   1.388  0.2023  0.2092  1.7145
 2801TIP3   OH230037   6.886   4.217   7.894 -0.1800 -0.1197 -0.2868
 2801TIP3    H130038   6.860   4.185   7.808  3.2840 -1.5986 -0.9494
 2801TIP3    H230039   6.949   4.286   7.874  0.4186 -0.2599  1.0806
 2802TIP3   OH230040   0.993   6.724   7.795  0.0201  0.2324 -0.4133
 2802TIP3    H130041   0.920   6.751   7.740  1.8048  0.4494 -2.8649
 2802TIP3    H230042   1.033   6.806   7.824  0.3988  0.1568 -0.7043
 2803TIP3   OH230043   4.525   2.989   7.383  0.6323  0.1883 -0.1955
 2803TIP3    H130044   4.502   2.920   7.446  0.4101 -0.5335 -1.0404
 2803TIP3    H230045   4.480   2.963   7.302 -0.5201  2.0102 -0.1999
 2804TIP3   OH230046   0.840   1.992   0.574 -0.7221  0.6711 -0.2332
 2804TIP3    H130047   0.750   2.014   0.600 -1.4931 -0.1641 -2.0134
 2804TIP3    H230048   0.881   2.077   0.558  0.3460  1.4529  4.7603
 2805TIP3   OH230049   2.934   1.155   0.469  0.3931 -0.1234 -0.2472
 2805TIP3    H130050   2.929   1.073   0.518 -0.0996 -0.1647 -0.3663
 2805TIP3    H230051   2.843   1.180   0.453  0.4594  1.5977  1.6763
 2806TIP3   OH230052   0.634   4.203   7.867 -0.1426 -0.0027  0.4098
 2806TIP3    H130053   0.637   4.127   7.926 -0.8359  0.3225  0.8856
 2806TIP3    H230054   0.586   4.269   7.917  1.7564  1.3010  0.6237
 2807TIP3   OH230055   3.605   1.475   7.802 -0.1026  0.5274  0.8802
 2807TIP3    H130056   3.616   1.402   7.741  0.3300  0.7980  0.6326
 2807TIP3    H230057   3.669   1.458   7.871  2.4555  2.4127 -0.8581
 2808TIP3   OH230058   3.333   6.538   7.872  0.4096  0.0528 -0.5607
 2808TIP3    H130059   3.302   6.572   7.788 -0.2246 -1.6615 -1.0680
 2808TIP3    H230060   3.300   6.448   7.875  0.0492  0.2057  1.7299
 2809TIP3   OH230061   1.057   2.186   8.218 -0.4688  0.6175 -0.0055
 2809TIP3    H130062   0.996   2.228   8.158 -0.9506 -0.8668 -0.5976
 2809TIP3    H230063   1.028   2.095   8.222  0.0436  0.5103  1.8720
 2810TIP3   OH230064   3.250   3.818   1.743  0.4146  0.0290  0.2495
 2810TIP3    H130065   3.296   3.864   1.813 -0.5649  1.2391  0.1171
 2810TIP3    H230066   3.312   3.819   1.670  0.9708 -0.1817  0.7089
 2811TIP3   OH230067   3.151   1.575   7.072 -0.9819  1.0170 -0.0555
 2811TIP3    H130068   3.204   1.553   6.996 -1.1096 -0.0571  0.1401
 2811TIP3    H230069   3.197   1.535   7.146 -1.2954  1.3238  0.3104
 2812TIP3   OH230070   5.223   3.841   7.827  0.7561  0.6040 -0.6387
 2812TIP3    H130071   5.275   3.883   7.759  1.7203  1.1697  0.4103
 2812TIP3    H230072   5.161   3.908   7.855  1.7599  1.1182  0.4704
 2813TIP3   OH230073   1.205   4.547   0.455  0.3408 -0.0121  0.0081
 2813TIP3    H130074   1.199   4.543   0.550 -1.9177 -1.8534 -0.0934
 2813TIP3    H230075   1.274   4.610   0.437  0.4746  0.7823  2.8455
 2814TIP3   OH230076   1.181   4.667   2.243 -0.5170 -0.8331 -0.1615
 2814TIP3    H130077   1.187   4.738   2.307  1.9209 -0.1279 -1.0352
 2814TIP3    H230078   1.097   4.626   2.260 -2.4699  2.7841 -0.1135
 2815TIP3   OH230079   0.285   6.719   1.872 -0.3170  0.2732  0.1103
 2815TIP3    H130080   0.317   6.669   1.947 -1.1195 -0.7095 -0.1756
 2815TIP3    H230081   0.222   6.781   1.909 -0.9352 -0.4121  0.2306
 2816TIP3   OH230082   0.943   6.754   7.429  0.3978  0.3839  0.1875
 2816TIP3    H130083   0.927   6.730   7.337  0.8358  0.3667  0.1122
 2816TIP3    H230084   1.020   6.704   7.453 -0.6670 -0.8766  1.0804
 2817TIP3   OH230085   1.371   5.051   0.305 -0.2902  0.5003  0.1176
 2817TIP3    H130086   1.387   5.139   0.271 -1.0356 -0.1625 -2.1307
 2817TIP3    H230087   1.276   5.044   0.310 -0.2303 -0.0396  0.7015
 2818TIP3   OH230088   6.146   3.676   0.643 -0.8148 -0.1569  0.7284
 2818TIP3    H130089   6.169   3.629   0.723 -0.8222  0.7260  1.2645
 2818TIP3    H230090   6.221   3.662   0.585 -0.4075 -0.0569  1.2234
 2819TIP3   OH230091   6.905   0.529   7.266  0.0329 -0.2161 -0.0980
 2819TIP3    H130092   6.889   0.600   7.204 -1.6951 -0.4059  0.0624
 2819TIP3    H230093   6.993   0.498   7.246  0.8704  2.0176 -0.1133
 2820TIP3   OH230094   1.947   5.021   0.256  0.3085  0.0386 -0.6878
 2820TIP3    H130095   1.919   5.059   0.340 -0.0356  0.5299 -1.0160
 2820TIP3    H230096   1.865   4.993   0.215  0.2579  1.5200 -1.6772
 2821TIP3   OH230097   1.842   3.915   0.321  0.6633  0.3556 -0.4652
 2821TIP3    H130098   1.793   3.872   0.390 -0.0950 -1.8250 -2.2203
 2821TIP3    H230099   1.906   3.849   0.293  1.8714  1.6791 -0.9447
 2822TIP3   OH230100   6.353   1.316   8.078  0.1383 -0.0010 -0.0263
 2822TIP3    H130101   6.346   1.382   8.009 -0.0563  0.1513  0.1359
 2822TIP3    H230102   6.348   1.232   8.032 -2.9766  0.0427  0.0229
 2823TIP3   OH230103   2.127   5.268   6.634  0.0373 -0.2357 -0.2893
 2823TIP3    H130104   2.205   5.296   6.586  2.0462 -0.2812  2.7375
 2823TIP3    H230105   2.149   5.181   6.667 -1.8944 -0.8507 -0.4848
 2824TIP3   OH230106   2.763   0.345   6.694 -0.9118  0.7216 -0.1238
 2824TIP3    H130107   2.810   0.263   6.679  0.1120  1.0501  1.1459
 2824TIP3    H230108   2.797   0.404   6.627 -1.7414  0.0993 -1.1231
 2825TIP3   OH230109   2.462   0.457   2.216  0.3221 -0.2763 -0.1055
 2825TIP3    H130110   2.371   0.436   2.238 -0.1705 -0.2223 -1.9244
 2825TIP3    H230111   2.513   0.418   2.286 -1.0254 -1.3128  0.3476
 2826TIP3   OH230112   4.259   3.271   1.606 -0.1083 -0.0879  0.1343
 2826TIP3    H130113   4.224   3.271   1.695 -0.7119  0.3125 -0.1018
 2826TIP3    H230114   4.335   3.329   1.610 -0.2723  0.1135  0.3358
 2827TIP3   OH230115   1.923   0.455   0.078 -0.3720  0.2345  0.8447
 2827TIP3    H130116   1.878   0.489   0.156  0.6128  1.0677  1.0792
 2827TIP3    H230117   2.015   0.455   0.102 -0.1180 -0.2188 -0.0757
 2828TIP3   OH230118   3.929   0.597   0.713 -0.3927  0.6335  0.0159
 2828TIP3    H130119   3.857   0.658   0.693 -0.3319 -0.1799 -3.2480
 2828TIP3    H230120   3.910   0.520   0.660  1.2821 -0.9079  1.5286
 2829TIP3   OH230121   5.831   0.883   3.167 -0.5085  0.3153  0.2969
 2829TIP3    H130122   5.741   0.910   3.148  0.4816  1.2864 -3.9378
 2829TIP3    H230123   5.828   0.788   3.170 -1.8765  0.3670  1.8962
 2830TIP3   OH230124   6.884   5.859   7.727 -0.2275 -0.3364 -0.3067
 2830TIP3    H130125   6.952   5.894   7.784  1.3268 -1.2608 -1.5182
 2830TIP3    H230126   6.830   5.805   7.785  0.1226  0.3203  0.6510
 2831TIP3   OH230127   6.495   3.549   7.183  0.1294  0.0959 -0.1603
 2831TIP3    H130128   6.563   3.549   7.116 -0.9562  0.4880 -1.2954
 2831TIP3    H230129   6.542   3.531   7.265  1.7205  1.2957 -0.7591
 2832TIP3   OH230130   2.594   2.585   2.692  0.4212 -0.0043 -0.2126
 2832TIP3    H130131   2.584   2.545   2.778  0.4180 -1.4629 -0.8758
 2832TIP3    H230132   2.504   2.593   2.659  0.3513  1.3388  0.2429
 2833TIP3   OH230133   3.679   5.306   7.340 -0.3929 -0.2226 -0.2499
 2833TIP3    H130134   3.715   5.395   7.336  0.0431 -0.1482  2.7526
 2833TIP3    H230135   3.730   5.256   7.277  0.9239  1.1951 -0.3490
 2834TIP3   OH230136   5.405   1.890   1.497  0.8596  0.5073  0.5789
 2834TIP3    H130137   5.485   1.928   1.463  0.2867  0.4997 -0.8490
 2834TIP3    H230138   5.338   1.958   1.484 -0.1946 -0.8874 -2.0723
 2835TIP3   OH230139   1.420   2.341   6.715 -0.1013  0.2161 -0.1634
 2835TIP3    H130140   1.475   2.275   6.758  0.2989  1.2004  0.8771
 2835TIP3    H230141   1.458   2.425   6.741 -1.5812  0.8960 -0.1134
 2836TIP3   OH230142   5.462   2.735   7.884 -0.0347 -0.3706  0.1371
 2836TIP3    H130143   5.497   2.707   7.800  0.6406 -1.4886  0.7664
 2836TIP3    H230144   5.526   2.704   7.948 -1.0142 -0.3711  1.1406
 2837TIP3   OH230145   0.998   0.338   7.372  0.5520  0.0805  0.1932
 2837TIP3    H130146   1.004   0.408   7.308  1.6236  2.1408  2.3848
 2837TIP3    H230147   1.063   0.273   7.345  0.6096  0.6479 -1.0536
 2838TIP3   OH230148   3.968   4.432   7.533 -0.2395  0.0318 -0.5077
 2838TIP3    H130149   3.886   4.480   7.534 -0.8368 -0.9377 -1.1954
 2838TIP3    H230150   4.015   4.463   7.610 -1.2337  0.6067 -0.1124
 2839TIP3   OH230151   0.199   2.545   1.553 -0.1002 -0.2056 -0.5046
 2839TIP3    H130152   0.137   2.548   1.626 -0.9194  2.7296 -1.1589
 2839TIP3    H230153   0.152   2.500   1.483  0.0532 -1.5335  0.2307
 2840TIP3   OH230154   0.317   2.489   6.636  0.4037 -0.3519 -0.0553
 2840TIP3    H130155   0.272   2.567   6.670 -0.8677 -1.8993  2.0226
 2840TIP3    H230156   0.286   2.482   6.545 -0.5445  0.7765  0.1537
 2841TIP3   OH230157   2.432   0.484   0.733  0.7111 -0.0565  0.1360
 2841TIP3    H130158   2.459   0.446   0.817  0.0072 -1.5708 -0.2856
 2841TIP3    H230159   2.467   0.572   0.734  1.2728 -0.2692  1.7544
 2842TIP3   OH230160   0.396   0.332   0.395 -0.1418  0.0312 -0.0545
 2842TIP3    H130161   0.370   0.240   0.389 -2.4298  0.5899  0.0318
 2842TIP3    H230162   0.317   0.380   0.369  1.1623  1.9737 -0.6210
 2843TIP3   OH230163   1.450   2.235   0.306  0.0161  0.0675 -0.7868
 2843TIP3    H130164   1.376   2.277   0.351  0.2899  0.8438 -1.0456
 2843TIP3    H230165   1.433   2.248   0.213 -0.3254 -1.1541 -0.9106
 2844TIP3   OH230166   1.654   2.642   1.623  0.1939  0.2421  0.0192
 2844TIP3    H130167   1.669   2.737   1.627  3.2272 -0.1585  1.6664
 2844TIP3    H230168   1.647   2.623   1.530 -0.2982  2.0512 -0.3553
 2845TIP3   OH230169   2.831   6.545   1.449 -0.4546 -0.0357  0.3104
 2845TIP3    H130170   2.770   6.600   1.498 -0.4372 -0.0367  0.3335
 2845TIP3    H230171   2.917   6.583   1.467 -0.6260  1.5815 -1.7537
 2846TIP3   OH230172   6.295   4.569   2.529 -0.2134 -0.5487  0.4688
 2846TIP3    H130173   6.378   4.610   2.507 -1.6135  0.9700 -2.6922
 2846TIP3    H230174   6.283   4.503   2.460 -1.7925 -0.3971  0.5638
 2847TIP3   OH230175   2.896   1.516   0.771  0.4606  0.2158  0.0987
 2847TIP3    H130176   2.809   1.537   0.736  0.5885  0.5895 -0.0046
 2847TIP3    H230177   2.878   1.471   0.854  0.1606 -0.5087 -0.3528
 2848TIP3   OH230178   3.462   5.029   2.041  0.1382  0.2822 -0.6037
 2848TIP3    H130179   3.435   5.074   1.961 -2.1272  0.1351 -0.0106
 2848TIP3    H230180   3.478   4.938   2.014 -1.8912 -0.0847 -0.7473
 2849TIP3   OH230181   0.505   0.087   1.743  0.6414  0.1423 -0.0564
 2849TIP3    H130182   0.493   0.104   1.649  1.3128  0.5050 -0.0844
 2849TIP3    H230183   0.462   0.161   1.786  1.8826  0.9505 -0.1352
 2850TIP3   OH230184   6.954   0.607   1.999  0.2491  0.5378  0.5049
 2850TIP3    H130185   6.876   0.591   2.052 -1.1711  2.7960 -0.7557
 2850TIP3    H230186   6.952   0.538   1.932  0.8140 -0.9558  1.9603
 2851TIP3   OH230187   5.210   3.618   1.565  0.3860 -0.2136  0.2922
 2851TIP3    H130188   5.270   3.632   1.492  0.6340  0.1266  0.5523
 2851TIP3    H230189   5.207   3.523   1.577 -1.7702 -0.5012 -1.8884
 2852TIP3   OH230190   3.424   2.532   1.597 -0.4679  0.5549 -0.1811
 2852TIP3    H130191   3.406   2.607   1.541 -2.0700  1.8393  1.8879
 2852TIP3    H230192   3.407   2.563   1.686  0.6014 -1.7583  0.9441
 2853TIP3   OH230193   0.061   3.494   1.984  0.2499  0.1558 -0.1036
 2853TIP3    H130194   0.143   3.524   1.944  0.8381 -0.1186  0.8585
 2853TIP3    H230195   0.089   3.431   2.051 -0.7330  0.2468  0.4079
 2854TIP3   OH230196   1.428   2.859   6.525  0.1535 -0.3480  0.2208
 2854TIP3    H130197   1.336   2.857   6.554  0.0158 -0.4165 -0.2145
 2854TIP3    H230198   1.460   2.944   6.555  0.0737 -0.4983  0.7485
 2855TIP3   OH230199   2.205   5.065   0.199  0.0500  0.7867 -0.1747
 2855TIP3    H130200   2.265   5.034   0.266  2.1189 -0.8238 -2.5917
 2855TIP3    H230201   2.118   5.043   0.232  1.1201 -2.1272  0.9942
 2856TIP3   OH230202   6.683   5.058   7.365  0.3467  0.4338 -0.0350
 2856TIP3    H130203   6.638   5.123   7.420 -1.0613  0.1174 -0.7669
 2856TIP3    H230204   6.716   4.993   7.428 -1.5324 -0.1034  0.4862
 2857TIP3   OH230205   6.052   2.468   0.719 -0.0441 -0.4836  0.4732
 2857TIP3    H130206   6.008   2.488   0.637  0.3176 -1.7060 -0.0545
 2857TIP3    H230207   6.126   2.529   0.723  1.2657 -1.8450 -1.2736
 2858TIP3   OH230208   5.582   0.076   7.840 -0.1069 -0.1019  0.4889
 2858TIP3    H130209   5.515   0.136   7.806 -2.1642 -2.2362  0.5141
 2858TIP3    H230210   5.664   0.124   7.832 -1.4008  1.9868 -1.2190
 2859TIP3   OH230211   4.399   1.398   7.082  0.3465  0.3069 -0.3104
 2859TIP3    H130212   4.439   1.484   7.083  1.1250 -0.0463  0.3237
 2859TIP3    H230213   4.449   1.347   7.147 -2.7953  0.6046  2.6774
 2860TIP3   OH230214   5.575   1.733   7.593  0.3683  0.0095  0.0460
 2860TIP3    H130215   5.599   1.736   7.501  0.6316 -0.4526  0.0985
 2860TIP3    H230216   5.596   1.644   7.621  1.9359  0.6443  0.9957
 2861TIP3   OH230217   3.969   6.723   7.639 -0.3553 -0.0262  0.3166
 2861TIP3    H130218   4.027   6.713   7.715  1.4620  0.4398 -0.9256
 2861TIP3    H230219   3.943   6.634   7.616  0.3048 -0.2974  0.5980
 2862TIP3   OH230220   4.901   1.089   0.253 -0.8055 -0.7138  0.3365
 2862TIP3    H130221   4.928   1.004   0.288  1.0206 -0.7089 -0.9370
 2862TIP3    H230222   4.961   1.106   0.181 -1.8796  1.1397 -0.1994
 2863TIP3   OH230223   5.847   6.841   0.035 -0.5413  0.0707 -0.3864
 2863TIP3    H130224   5.753   6.829   0.018 -0.6615 -0.4383  0.5614
 2863TIP3    H230225   5.890   6.793  -0.036 -1.0217 -1.2073  0.1507
 2864TIP3   OH230226   2.525   0.961   2.237  0.7774 -0.4675  0.4894
 2864TIP3    H130227   2.609   1.005   2.245  0.6047 -0.0790  0.2117
 2864TIP3    H230228   2.546   0.867   2.235  0.9959 -0.5492  3.2219
 2865TIP3   OH230229   0.713   6.599   2.036  0.6451  0.0499 -0.0832
 2865TIP3    H130230   0.749   6.557   2.115 -0.9445  1.1476  1.2959
 2865TIP3    H230231   0.664   6.530   1.992 -0.1525 -0.1085  1.0090
 2866TIP3   OH230232   3.136   2.956   7.700 -0.7693 -0.4657 -0.7362
 2866TIP3    H130233   3.048   2.954   7.663 -0.4767  2.2327 -1.8394
 2866TIP3    H230234   3.192   2.982   7.628  0.3617  1.4313  0.7183
 2867TIP3   OH230235   4.077   5.302   7.164  0.2328 -0.2337 -0.0041
 2867TIP3    H130236   4.024   5.328   7.089 -0.4584  1.5376  1.0337
 2867TIP3    H230237   4.014   5.264   7.226  0.5583 -0.3144  0.2801
 2868TIP3   OH230238   2.783   5.449   2.325 -0.2529  0.0845 -0.8122
 2868TIP3    H130239   2.711   5.438   2.263 -1.5057 -0.7737  0.7134
 2868TIP3    H230240   2.739   5.471   2.408  1.0172 -2.8204  0.7688
 2869TIP3   OH230241   4.343   0.223   0.991 -0.2145 -0.4856  0.3289
 2869TIP3    H130242   4.261   0.235   1.038 -1.2184 -0.2187 -1.4224
 2869TIP3    H230243   4.411   0.231   1.059 -1.5622  0.2817  1.6435
 2870TIP3   OH230244   2.778   3.248   1.463  0.1091  0.4846  0.2517
 2870TIP3    H130245   2.776   3.281   1.553 -0.9566 -0.7083  0.6913
 2870TIP3    H230246   2.686   3.247   1.436  0.0532 -2.0642  0.2850
 2871TIP3   OH230247   5.134   3.340   2.185  0.1566 -0.0838 -0.5555
 2871TIP3    H130248   5.149   3.297   2.270  0.8493 -0.0484 -0.6538
 2871TIP3    H230249   5.055   3.298   2.151 -0.7977  0.6860  0.6098
 2872TIP3   OH230250   5.071   5.041   2.748  0.4710  0.2397  0.3089
 2872TIP3    H130251   5.102   4.965   2.797  0.4081  0.6290  0.9770
 2872TIP3    H230252   4.985   5.060   2.786  0.0614  0.0538 -0.5189
 2873TIP3   OH230253   6.315   2.566   0.906  0.4712 -0.4756 -0.6734
 2873TIP3    H130254   6.331   2.492   0.965 -0.8037  0.3451  0.7842
 2873TIP3    H230255   6.388   2.626   0.923 -0.2920  0.1053  0.7052
 2874TIP3   OH230256   0.596   5.757   1.260 -0.5540 -0.4595 -0.4917
 2874TIP3    H130257   0.595   5.793   1.172 -1.6351 -1.0133 -0.7199
 2874TIP3    H230258   0.570   5.666   1.249 -2.4529 -0.0909  0.5751
 2875TIP3   OH230259   2.278   5.353   0.163  0.2441  0.3156  0.4066
 2875TIP3    H130260   2.188   5.336   0.192  0.4940 -0.3451  0.8252
 2875TIP3    H230261   2.285   5.448   0.161 -0.1045  0.3796  1.5384
 2876TIP3   OH230262   4.409   0.480   1.422 -0.9645 -0.4557  0.3229
 2876TIP3    H130263   4.366   0.555   1.462 -0.4932 -0.8630  1.6279
 2876TIP3    H230264   4.375   0.404   1.469 -0.6969 -0.9896 -0.3208
 2877TIP3   OH230265   0.095   0.061   0.586 -0.3413 -0.4852  0.2644
 2877TIP3    H130266   0.017   0.075   0.532  0.3815 -0.4782 -0.8099
 2877TIP3    H230267   0.102  -0.034   0.594  0.2568 -0.5465 -0.7598
 2878TIP3   OH230268   6.656   2.499   0.692 -0.4099  0.2167  0.0511
 2878TIP3    H130269   6.739   2.461   0.665 -0.4944  0.6058 -0.7803
 2878TIP3    H230270   6.597   2.424   0.700  0.1398 -0.1264  1.1797
 2879TIP3   OH230271   0.681   2.837   1.285 -0.8310 -0.0491  1.0599
 2879TIP3    H130272   0.749   2.796   1.231 -1.2252  0.8072 -0.1234
 2879TIP3    H230273   0.674   2.779   1.361 -1.0933 -2.0027 -0.3595
 2880TIP3   OH230274   4.802   4.920   0.079 -0.0501  0.4241  1.1134
 2880TIP3    H130275   4.717   4.964   0.075 -0.2604  0.2059  2.6816
 2880TIP3    H230276   4.783   4.832   0.112  0.8134  0.4621  1.7418
 2881TIP3   OH230277   1.218   1.412   7.026  0.1543 -0.1804 -0.1672
 2881TIP3    H130278   1.231   1.344   7.092  0.1108 -2.0739 -2.0025
 2881TIP3    H230279   1.188   1.489   7.076 -1.0280 -1.8525  1.8611
 2882TIP3   OH230280   1.361   5.360   7.149 -0.3576  0.0431 -0.3473
 2882TIP3    H130281   1.424   5.292   7.126 -0.1196  0.0461  0.3018
 2882TIP3    H230282   1.368   5.370   7.243 -1.1043  0.2677 -0.3041
 2883TIP3   OH230283   6.681   3.353   7.203 -0.0569  0.6965 -0.0822
 2883TIP3    H130284   6.771   3.357   7.235 -0.5484  0.5606  1.3659
 2883TIP3    H230285   6.629   3.326   7.279 -1.2787  0.3978 -0.9848
 2884TIP3   OH230286   0.217   6.290   1.651 -0.7861  0.6765 -0.4126
 2884TIP3    H130287   0.235   6.310   1.743 -0.3373 -3.4091  0.6231
 2884TIP3    H230288   0.138   6.237   1.653  0.6222 -1.6831 -1.9412
 2885TIP3   OH230289   6.887   5.888   1.201  0.1177  0.1680 -0.4043
 2885TIP3    H130290   6.918   5.847   1.282  0.1988 -0.5051 -0.7687
 2885TIP3    H230291   6.907   5.824   1.133 -0.5071  0.4681 -0.8780
 2886TIP3   OH230292   3.424   1.399   0.955  0.0907  0.0297 -0.2974
 2886TIP3    H130293   3.445   1.490   0.935  4.5088 -0.8429 -0.7275
 2886TIP3    H230294   3.509   1.354   0.954 -1.9072 -4.2758 -0.8905
 2887TIP3   OH230295   3.764   3.129   7.328 -0.1517  0.5729 -0.0498
 2887TIP3    H130296   3.795   3.192   7.263 -0.3819  0.7566  0.0181
 2887TIP3    H230297   3.797   3.044   7.297 -1.3938  0.4568 -1.1464
 2888TIP3   OH230298   0.758   6.050   0.432  0.0242 -0.3737 -0.2488
 2888TIP3    H130299   0.668   6.022   0.415  0.3243 -0.9675 -0.9276
 2888TIP3    H230300   0.785   6.001   0.510 -0.3557  0.0675  0.1594
 2889TIP3   OH230301   5.674   6.524   0.070 -0.1735  0.0420  0.0392
 2889TIP3    H130302   5.647   6.571  -0.009  0.0789  1.9390  1.0230
 2889TIP3    H230303   5.764   6.497   0.052 -0.3079 -0.0257 -0.5459
 2890TIP3   OH230304   5.464   0.820   2.027  0.2807 -0.1887  0.1308
 2890TIP3    H130305   5.505   0.888   2.081  1.3895 -2.5084  2.4587
 2890TIP3    H230306   5.536   0.781   1.979 -0.0177 -0.9152  0.2589
 2891TIP3   OH230307   5.842   1.241   7.942  0.0086  0.2252 -0.2337
 2891TIP3    H130308   5.886   1.272   8.021 -0.1209  0.8052 -0.3845
 2891TIP3    H230309   5.750   1.236   7.966 -0.0527  0.5672 -0.4016
 2892TIP3   OH230310   5.596   1.942   0.604 -0.9401 -1.2584 -0.1046
 2892TIP3    H130311   5.558   1.865   0.646 -0.7580 -1.1423  0.2807
 2892TIP3    H230312   5.549   2.016   0.643  0.5731 -1.0190  1.4001
 2893TIP3   OH230313   0.998   0.998   0.624  0.1478  0.7376  0.1751
 2893TIP3    H130314   1.074   1.001   0.681 -1.2466  1.9490  2.1275
 2893TIP3    H230315   1.031   1.026   0.538  2.4148 -1.6503  0.1581
 2894TIP3   OH230316   0.162   3.740   7.780  0.0555  0.0395 -0.3967
 2894TIP3    H130317   0.120   3.655   7.789 -0.6518  0.2769 -1.2898
 2894TIP3    H230318   0.090   3.801   7.766  0.4341  1.0242  1.5915
 2895TIP3   OH230319   4.931   3.732   7.682  0.2831 -0.3611 -0.4033
 2895TIP3    H130320   4.892   3.668   7.622  0.8532 -1.2886  0.1827
 2895TIP3    H230321   4.951   3.681   7.761  2.7973  0.0104 -0.7244
 2896TIP3   OH230322   4.302   5.637   2.096  0.2194  0.6827  0.2022
 2896TIP3    H130323   4.386   5.659   2.055 -0.0606  0.2386 -0.6350
 2896TIP3    H230324   4.297   5.541   2.088 -0.8792  0.8095 -0.7731
 2897TIP3   OH230325   6.577   5.880   1.438 -0.3446  0.3154  0.7688
 2897TIP3    H130326   6.650   5.828   1.405 -1.6369 -0.5415 -0.9300
 2897TIP3    H230327   6.554   5.839   1.521  0.0870 -0.4091  0.5430
 2898TIP3   OH230328   5.626   5.022   6.759  0.1862  0.7788 -0.1499
 2898TIP3    H130329   5.542   5.012   6.714  0.3026 -3.6977  0.2375
 2898TIP3    H230330   5.609   5.089   6.825 -2.5756  1.1859 -1.1081
 2899TIP3   OH230331   2.606   2.985   0.474 -0.3718 -0.0769 -0.1664
 2899TIP3    H130332   2.556   2.904   0.459 -1.8503  0.2678  2.3165
 2899TIP3    H230333   2.539   3.051   0.495  0.9848  0.7130  2.0271
 2900TIP3   OH230334   1.002   5.403   0.721  0.4140  0.7216 -0.3794
 2900TIP3    H130335   1.030   5.320   0.761  1.3825  0.5541 -1.3819
 2900TIP3    H230336   0.954   5.447   0.791 -0.2206 -0.7296  0.1455
 2901TIP3   OH230337   3.934   0.684   7.544 -0.1843  0.1017 -0.7055
 2901TIP3    H130338   3.961   0.598   7.577 -1.9149 -0.5207 -0.8593
 2901TIP3    H230339   3.898   0.667   7.457  0.8672  1.2196 -1.4014
 2902TIP3   OH230340   6.050   0.407   2.238 -0.2541  0.1820  0.1807
 2902TIP3    H130341   6.058   0.448   2.324 -0.1274  0.9834 -0.2096
 2902TIP3    H230342   6.041   0.313   2.257  1.6178  0.1222  1.0077
 2903TIP3   OH230343   5.097   0.368   0.169  0.6027 -0.6979  0.0733
 2903TIP3    H130344   5.138   0.298   0.219  0.1665 -0.0608  1.3726
 2903TIP3    H230345   5.006   0.369   0.198  0.6919  0.6502  0.3830
 2904TIP3   OH230346   0.678   2.356   2.173  0.1715 -0.1201 -0.0399
 2904TIP3    H130347   0.736   2.312   2.235 -1.4987  1.0167  2.4995
 2904TIP3    H230348   0.697   2.449   2.184 -2.2635  0.3158  1.1592
 2905TIP3   OH230349   2.177   1.021   7.509  0.5933 -0.5178 -0.1928
 2905TIP3    H130350   2.234   0.963   7.560  1.4764  0.1970 -0.3386
 2905TIP3    H230351   2.148   1.087   7.571  3.0025  1.3355 -0.8730
 2906TIP3   OH230352   3.835   6.693   7.337  0.2937  0.7555 -0.2621
 2906TIP3    H130353   3.756   6.663   7.293 -0.3817  1.4161  0.4461
 2906TIP3    H230354   3.905   6.679   7.274 -0.2230 -0.7703 -0.5385
 2907TIP3   OH230355   2.087   5.929   7.726 -0.1732 -0.3391 -0.0328
 2907TIP3    H130356   2.005   5.977   7.711 -0.2721 -0.4829  0.0347
 2907TIP3    H230357   2.154   5.981   7.683 -0.0621  0.5654  1.2023
 2908TIP3   OH230358   6.491   4.266   7.762 -0.4699  0.3961 -0.1947
 2908TIP3    H130359   6.513   4.286   7.853 -1.1657 -0.5948  0.2158
 2908TIP3    H230360   6.430   4.336   7.736 -0.0780  0.8177  0.0205
 2909TIP3   OH230361   5.543   0.756   1.167 -0.3898  0.0574 -0.4528
 2909TIP3    H130362   5.512   0.763   1.076 -0.2719  1.1087 -0.4249
 2909TIP3    H230363   5.464   0.752   1.220 -0.4598  0.3177 -0.5402
 2910TIP3   OH230364   0.353   5.650   0.450 -0.6085 -0.6460  0.3676
 2910TIP3    H130365   0.345   5.660   0.545  1.5384 -0.9094  0.6182
 2910TIP3    H230366   0.375   5.738   0.418 -2.1258 -0.3840 -0.0142
 2911TIP3   OH230367   6.336   5.553   8.118 -0.0652  0.1515  0.4412
 2911TIP3    H130368   6.354   5.472   8.070  0.7003  0.1680  0.6939
 2911TIP3    H230369   6.359   5.532   8.209  1.0041  0.9180  0.3617
 2912TIP3   OH230370   0.951   3.098   7.564  1.0916 -0.0726  0.1879
 2912TIP3    H130371   0.915   3.113   7.652  0.0728  0.8995 -0.3787
 2912TIP3    H230372   1.029   3.154   7.560  1.6308 -0.7553  0.7462
 2913TIP3   OH230373   2.394   6.819   7.031  0.1877 -0.4672 -0.1302
 2913TIP3    H130374   2.439   6.862   7.103  0.4378  0.2566 -0.7125
 2913TIP3    H230375   2.446   6.740   7.014 -0.9421 -1.7220  1.7420
 2914TIP3   OH230376   6.705   0.856   7.609  0.9643 -0.6494  0.1294
 2914TIP3    H130377   6.746   0.782   7.653 -0.1025 -1.3638 -0.0460
 2914TIP3    H230378   6.615   0.857   7.643  0.5121 -0.4005 -1.0430
 2915TIP3   OH230379   6.908   6.193   8.121 -0.4243  0.7682  0.5077
 2915TIP3    H130380   6.999   6.200   8.093  0.4192 -1.4769  2.3515
 2915TIP3    H230381   6.906   6.231   8.209 -1.7895  2.6323 -0.2514
 2916TIP3   OH230382   2.013   1.224   7.100  0.0465 -0.0151  0.4106
 2916TIP3    H130383   2.055   1.257   7.021 -0.7819  0.5326  0.1918
 2916TIP3    H230384   2.036   1.289   7.167  0.1418 -0.0937  0.4544
 2917TIP3   OH230385   4.339   0.637   0.492  0.4097  0.1493 -0.3538
 2917TIP3    H130386   4.373   0.570   0.433  0.8408 -1.3671  1.5146
 2917TIP3    H230387   4.349   0.719   0.443  0.5576 -1.0249 -2.4315
 2918TIP3   OH230388   0.470   2.394   0.886 -0.2747  0.1667  0.4927
 2918TIP3    H130389   0.415   2.440   0.949 -2.3735  0.8745 -1.6966
 2918TIP3    H230390   0.440   2.303   0.891 -0.0100  0.0966  0.9028
 2919TIP3   OH230391   1.008   4.118   1.487 -0.3146  0.1653 -0.0156
 2919TIP3    H130392   1.100   4.142   1.479 -0.0872 -0.9045 -1.0451
 2919TIP3    H230393   1.009   4.024   1.508 -1.1449 -0.1770 -1.3443
 2920TIP3   OH230394   6.583   6.009   0.513 -0.1605 -0.6301  0.1582
 2920TIP3    H130395   6.593   6.099   0.481 -0.9029 -1.1632 -1.7216
 2920TIP3    H230396   6.490   5.991   0.503 -0.0137 -1.6273  0.5078
 2921TIP3   OH230397   0.070   3.315   7.510  0.3973 -0.3526 -0.2336
 2921TIP3    H130398   0.113   3.257   7.447 -1.7250 -0.4740 -1.6740
 2921TIP3    H230399   0.084   3.403   7.475 -0.5697 -0.4006 -0.7709
 2922TIP3   OH230400   0.810   3.543   0.062 -1.5134  0.2134  0.3307
 2922TIP3    H130401   0.746   3.498   0.116  0.2645 -1.2119  1.3514
 2922TIP3    H230402   0.828   3.482  -0.009 -0.0887 -0.1476  0.9729
 2923TIP3   OH230403   6.993   2.235   7.102  0.4406 -0.0324 -0.0374
 2923TIP3    H130404   6.959   2.174   7.037  0.5423  0.7293 -0.8344
 2923TIP3    H230405   6.915   2.272   7.143  0.2427  1.3590 -1.5297
 2924TIP3   OH230406   3.472   2.462   0.068  0.2301 -0.5942 -0.6274
 2924TIP3    H130407   3.444   2.452   0.159  0.3382 -0.3289 -0.5648
 2924TIP3    H230408   3.518   2.380   0.048 -0.0446 -0.7731 -0.5364
 2925TIP3   OH230409   5.735   6.226   7.677  0.3710  0.6549 -0.1325
 2925TIP3    H130410   5.739   6.131   7.682  0.0298  0.6214 -0.4420
 2925TIP3    H230411   5.806   6.257   7.734 -0.5716  0.2599  1.2785
 2926TIP3   OH230412   4.176   5.799   0.421  0.2910 -0.4566 -0.2438
 2926TIP3    H130413   4.130   5.719   0.446  1.7634 -0.8444  1.4790
 2926TIP3    H230414   4.186   5.846   0.504  2.9142 -0.3891 -0.5339
 2927TIP3   OH230415   2.897   0.313   7.579 -0.0882  0.6205 -0.2799
 2927TIP3    H130416   2.871   0.359   7.499  2.0589 -0.8602 -1.9295
 2927TIP3    H230417   2.992   0.307   7.574  0.0365 -0.3241  1.9800
 2928TIP3   OH230418   4.329   5.029   2.064 -0.2500 -0.2000  0.2505
 2928TIP3    H130419   4.350   5.120   2.043 -0.0561 -0.3567 -0.2514
 2928TIP3    H230420   4.373   4.978   1.996  0.8649 -0.7649  1.3655
 2929TIP3   OH230421   4.210   4.268   0.068  0.4095 -0.6444  0.2778
 2929TIP3    H130422   4.170   4.272  -0.018  0.4655 -0.1757  0.2724
 2929TIP3    H230423   4.280   4.203   0.059  1.1150  0.1794 -0.3243
 2930TIP3   OH230424   2.690   1.126   2.388  0.4194 -0.0248  0.1499
 2930TIP3    H130425   2.780   1.128   2.421 -0.5055 -0.2944  2.9194
 2930TIP3    H230426   2.658   1.216   2.400 -0.8812 -0.7500  3.1653
 2931TIP3   OH230427   4.237   4.163   7.457 -0.0340 -0.5195 -0.0144
 2931TIP3    H130428   4.203   4.128   7.374 -0.2425  0.9659 -0.5807
 2931TIP3    H230429   4.314   4.214   7.431  0.1182 -0.3482  0.7557
 2932TIP3   OH230430   2.366   5.322   1.120  0.1585  0.5224 -0.2991
 2932TIP3    H130431   2.295   5.355   1.176  1.4730  1.4937  0.8454
 2932TIP3    H230432   2.380   5.232   1.149 -1.0632  0.0678 -1.0327
 2933TIP3   OH230433   4.145   0.853   7.595  0.3942 -0.8085 -0.1036
 2933TIP3    H130434   4.160   0.905   7.516  0.5686 -0.1466  0.3575
 2933TIP3    H230435   4.072   0.795   7.572 -0.8233  0.6875 -0.1493
 2934TIP3   OH230436   3.648   1.282   0.504 -0.1337 -0.4534 -0.3767
 2934TIP3    H130437   3.629   1.209   0.564  0.3623 -1.8603 -1.8481
 2934TIP3    H230438   3.710   1.245   0.441 -0.3218  1.0912 -1.5207
 2935TIP3   OH230439   2.006   2.533   0.915  0.2777 -0.1069 -0.2819
 2935TIP3    H130440   2.080   2.482   0.946 -2.4831 -2.5053  3.2885
 2935TIP3    H230441   1.961   2.475   0.853  0.2347  0.4519 -0.7852
 2936TIP3   OH230442   1.513   3.876   0.332  0.3600 -0.1770 -0.2859
 2936TIP3    H130443   1.558   3.791   0.330  1.5028  0.4109 -0.3634
 2936TIP3    H230444   1.521   3.910   0.243 -1.1346 -0.4909 -0.5644
 2937TIP3   OH230445   6.064   2.022   1.480  0.1532 -0.1970  0.4130
 2937TIP3    H130446   6.015   1.989   1.405  1.2099 -1.5149  0.2537
 2937TIP3    H230447   6.030   2.110   1.495 -0.2246  0.0068 -1.4662
 2938TIP3   OH230448   1.143   5.970   1.939 -0.1164  0.0976 -0.2272
 2938TIP3    H130449   1.189   5.931   2.013 -2.9987 -1.6365  0.8093
 2938TIP3    H230450   1.085   6.036   1.978  0.4593  1.3076 -1.3225
 2939TIP3   OH230451   3.809   1.011   7.918  0.5463  0.1786  0.4178
 2939TIP3    H130452   3.768   1.022   7.832  1.2231 -0.0484  0.0620
 2939TIP3    H230453   3.831   0.918   7.923  0.5867  0.2058  0.8014
 2940TIP3   OH230454   2.094   1.918   6.502 -0.2076  0.0495  0.0127
 2940TIP3    H130455   2.097   1.896   6.409 -0.8512  2.6362 -0.7120
 2940TIP3    H230456   2.166   1.981   6.513  0.3552 -0.8142  1.4723
 2941TIP3   OH230457   4.259   0.035   1.673 -0.4666  0.1232 -0.0311
 2941TIP3    H130458   4.287  -0.012   1.752  0.3135  0.3129 -0.1830
 2941TIP3    H230459   4.240  -0.034   1.610 -1.7389 -0.0507  0.5219
 2942TIP3   OH230460   1.626   2.557   1.369  0.2608  0.4974  0.0583
 2942TIP3    H130461   1.576   2.585   1.293  0.4572 -1.3626 -0.8018
 2942TIP3    H230462   1.712   2.532   1.334  0.7053  0.5484  1.0450
 2943TIP3   OH230463   5.760   4.374   2.964 -0.4121  0.1220 -0.5091
 2943TIP3    H130464   5.823   4.302   2.961 -0.4502  0.0429  0.3585
 2943TIP3    H230465   5.768   4.417   2.878  1.4194  0.6372 -0.1199
 2944TIP3   OH230466   5.052   2.781   0.210  0.0841  0.1912  0.3520
 2944TIP3    H130467   5.131   2.753   0.164 -0.2506 -0.2644  0.0492
 2944TIP3    H230468   5.030   2.708   0.267 -0.3028  0.1885  0.1990
 2945TIP3   OH230469   0.930   3.533   0.724 -0.5368 -0.0945 -0.3269
 2945TIP3    H130470   0.952   3.472   0.794  2.4210 -0.6454 -1.5841
 2945TIP3    H230471   0.890   3.479   0.656 -3.3193  0.4247  0.7791
 2946TIP3   OH230472   5.721   5.852   0.841 -0.3301  0.3157 -0.2630
 2946TIP3    H130473   5.729   5.918   0.773  2.7616  0.3177 -0.0429
 2946TIP3    H230474   5.642   5.803   0.819 -0.0983  1.0828 -3.1382
 2947TIP3   OH230475   2.266   0.851   1.665  0.3726 -0.7334 -0.4769
 2947TIP3    H130476   2.268   0.820   1.575 -2.2139 -1.0354 -0.5074
 2947TIP3    H230477   2.173   0.860   1.686  0.8641 -1.0295  2.2861
 2948TIP3   OH230478   1.270   4.180   2.704  0.1752 -0.0484  0.5099
 2948TIP3    H130479   1.288   4.179   2.610  1.8096  0.6912  0.7708
 2948TIP3    H230480   1.175   4.190   2.710  0.2064  1.6860 -1.0656
 2949TIP3   OH230481   2.250   6.122   7.599  0.1731 -0.2471 -0.3295
 2949TIP3    H130482   2.269   6.167   7.681 -0.6602 -1.4359  0.5356
 2949TIP3    H230483   2.336   6.099   7.564  0.5153 -1.0466  0.9682
 2950TIP3   OH230484   1.115   0.020   7.495 -0.1122 -0.2662  0.1017
 2950TIP3    H130485   1.092  -0.026   7.415  0.4067 -0.3396 -0.0098
 2950TIP3    H230486   1.210   0.010   7.502 -0.1698 -0.4070  0.8099
 2951TIP3   OH230487   4.046   2.441   1.737  0.0511  0.1492 -0.0765
 2951TIP3    H130488   4.084   2.528   1.729  1.1361 -0.3525 -0.6019
 2951TIP3    H230489   3.991   2.446   1.816 -0.9056  1.6468 -0.7954
 2952TIP3   OH230490   1.279   3.802   1.417  0.6083  0.2911 -0.0980
 2952TIP3    H130491   1.264   3.715   1.379 -0.5362  1.2106 -1.9332
 2952TIP3    H230492   1.337   3.845   1.355 -0.1137  1.3633 -0.0463
 2953TIP3   OH230493   0.580   4.595   7.704  0.0652 -0.1332  0.3248
 2953TIP3    H130494   0.580   4.508   7.663  1.0536 -0.5047  1.0841
 2953TIP3    H230495   0.673   4.614   7.717 -0.2105  0.3246  1.6647
 2954TIP3   OH230496   3.394   4.291   7.890 -0.4639  0.5323 -0.5999
 2954TIP3    H130497   3.450   4.250   7.825 -0.2586 -1.6614  0.8399
 2954TIP3    H230498   3.329   4.224   7.911 -0.4708  1.1107  1.4708
 2955TIP3   OH230499   3.918   2.629   7.061 -0.3144  0.3011  0.3142
 2955TIP3    H130500   3.915   2.664   6.973  1.0506 -0.1618  0.0591
 2955TIP3    H230501   3.887   2.539   7.052  1.2202 -0.2379  0.0007
 2956TIP3   OH230502   3.598   1.945   0.651  0.0722 -0.0304 -0.2633
 2956TIP3    H130503   3.636   1.891   0.720  0.0761 -0.6613 -0.7536
 2956TIP3    H230504   3.557   1.883   0.591 -1.0341  0.5887 -0.1751
 2957TIP3   OH230505   3.249   6.291   7.932  0.4038  0.2189  0.6343
 2957TIP3    H130506   3.337   6.258   7.952  1.7228  2.3036 -1.2203
 2957TIP3    H230507   3.198   6.272   8.011  2.4983 -1.0428  1.7896
 2958TIP3   OH230508   1.952   1.290   1.116  0.3813  0.5698 -0.5892
 2958TIP3    H130509   1.917   1.202   1.133 -0.8724  1.1030 -0.3403
 2958TIP3    H230510   2.013   1.305   1.189  1.7195 -0.6364 -1.3956
 2959TIP3   OH230511   3.739   6.022   7.544  0.5131 -0.1982  0.1178
 2959TIP3    H130512   3.742   5.947   7.603 -0.9910  0.3338  0.9200
 2959TIP3    H230513   3.709   6.095   7.599 -1.4068  0.2168 -1.3662
 2960TIP3   OH230514   0.681   0.529   7.524  0.1070  0.1996  0.2308
 2960TIP3    H130515   0.592   0.495   7.518  0.5272 -1.0225  0.5411
 2960TIP3    H230516   0.679   0.612   7.477 -0.9729 -0.2582 -0.5722
 2961TIP3   OH230517   4.568   2.147   1.109 -0.1378 -0.2560  0.5569
 2961TIP3    H130518   4.565   2.192   1.024 -1.3136  0.6353  1.0422
 2961TIP3    H230519   4.485   2.099   1.114 -0.9029  1.1065  1.9133
 2962TIP3   OH230520   3.033   3.096   0.381  0.0651 -0.1880 -0.4444
 2962TIP3    H130521   3.002   3.173   0.429 -0.0633 -0.5746  0.1027
 2962TIP3    H230522   2.962   3.032   0.390  0.4532 -0.6067 -0.3206
 2963TIP3   OH230523   4.558   0.198   6.846 -0.5608 -0.4521 -0.0834
 2963TIP3    H130524   4.639   0.150   6.863 -0.1016 -0.5384 -2.2587
 2963TIP3    H230525   4.562   0.273   6.906  2.1998  0.7134 -1.5590
 2964TIP3   OH230526   4.643   2.814   0.548  0.1456 -0.2189 -0.3080
 2964TIP3    H130527   4.703   2.740   0.556 -1.0787 -1.1554  0.5638
 2964TIP3    H230528   4.558   2.778   0.570 -0.8008  1.0256 -1.7385
 2965TIP3   OH230529   5.952   0.083   7.695 -0.0748 -0.1504  0.5941
 2965TIP3    H130530   5.899   0.106   7.619  0.8875 -0.9936 -0.3488
 2965TIP3    H230531   5.921   0.143   7.764  0.8985  2.5599 -1.1590
 2966TIP3   OH230532   7.023   0.598   7.975  0.0202  0.0988 -0.3073
 2966TIP3    H130533   6.975   0.516   7.986 -0.0684  0.2338  0.3723
 2966TIP3    H230534   7.020   0.639   8.062 -0.2102  0.9716 -0.7171
 2967TIP3   OH230535   1.768   6.995   8.106 -0.1161 -0.0858 -0.1915
 2967TIP3    H130536   1.774   6.962   8.195 -0.7491  2.2272  0.7775
 2967TIP3    H230537   1.682   6.964   8.075 -0.0098 -0.6667  0.0820
 2968TIP3   OH230538   6.221   5.572   2.729  0.0698  0.6586 -0.2655
 2968TIP3    H130539   6.273   5.589   2.808  0.4257  1.0361 -0.5764
 2968TIP3    H230540   6.273   5.509   2.679 -0.6988 -0.4796  0.3339
 2969TIP3   OH230541   2.311   5.213   8.160 -0.1003 -0.4666 -0.1691
 2969TIP3    H130542   2.223   5.186   8.135 -0.9235  0.0268  1.9870
 2969TIP3    H230543   2.299   5.264   8.240  2.2522 -1.3307  0.8257
 2970TIP3   OH230544   6.710   5.051   0.062 -0.1955 -0.7818 -0.3144
 2970TIP3    H130545   6.734   5.044   0.154 -0.9963 -1.0673 -0.1142
 2970TIP3    H230546   6.694   5.144   0.048 -1.7372 -0.9261  0.2951
 2971TIP3   OH230547   6.067   1.672   2.244 -0.2714  0.5626  0.3670
 2971TIP3    H130548   6.028   1.595   2.284  0.1973  0.9837  1.6788
 2971TIP3    H230549   6.005   1.697   2.175 -1.5190  0.2678  1.3359
 2972TIP3   OH230550   1.908   5.269   1.768 -0.2753  0.1592  0.1573
 2972TIP3    H130551   1.867   5.264   1.854 -0.2426 -1.0739  0.1136
 2972TIP3    H230552   2.002   5.268   1.786 -0.2599  0.9517  0.1516
 2973TIP3   OH230553   0.852   5.061   0.090  0.0722  0.0934 -0.0419
 2973TIP3    H130554   0.908   5.132   0.123 -1.0470 -0.0182  2.2663
 2973TIP3    H230555   0.897   4.981   0.117  1.3873 -0.2126 -2.7311
 2974TIP3   OH230556   6.475   0.024   2.657 -0.0297  0.1879 -0.1457
 2974TIP3    H130557   6.542   0.086   2.627 -0.0609 -0.7094 -2.2948
 2974TIP3    H230558   6.508  -0.010   2.739  1.0226  1.4664 -0.0016
 2975TIP3   OH230559   3.244   0.467   1.287  0.2037  0.3432  0.3438
 2975TIP3    H130560   3.338   0.457   1.274 -0.0227 -1.4024 -0.2054
 2975TIP3    H230561   3.234   0.484   1.381  0.9615 -1.8832  0.8876
 2976TIP3   OH230562   5.921   6.571   1.169 -0.1691 -0.4793 -0.4088
 2976TIP3    H130563   5.972   6.491   1.183  2.3066  0.8639 -1.0868
 2976TIP3    H230564   5.830   6.545   1.186  0.8081 -2.7692  1.9885
 2977TIP3   OH230565   1.615   6.938   7.098 -0.2456 -0.2066 -0.5107
 2977TIP3    H130566   1.617   6.842   7.094 -0.2887 -0.1952 -0.8305
 2977TIP3    H230567   1.706   6.963   7.110 -0.3718 -0.3375  0.8754
 2978TIP3   OH230568   5.785   4.868   6.904 -0.4962  0.7440 -0.5540
 2978TIP3    H130569   5.788   4.779   6.870 -1.8909  0.6654 -0.5080
 2978TIP3    H230570   5.743   4.919   6.835  0.5376  1.4425 -0.6989
 2979TIP3   OH230571   0.173   6.880   0.165 -0.2108  0.2115  0.2646
 2979TIP3    H130572   0.092   6.893   0.214 -0.0678 -0.3069  0.6462
 2979TIP3    H230573   0.221   6.963   0.176  0.4352 -0.3548  2.1769
 2980TIP3   OH230574   6.366   1.394   1.600 -0.5511 -0.1828  0.7871
 2980TIP3    H130575   6.331   1.468   1.551 -0.6337 -0.4449  0.4459
 2980TIP3    H230576   6.313   1.390   1.680  0.6054  1.2352  1.6791
 2981TIP3   OH230577   6.460   0.965   7.328  0.5618 -0.4280 -0.3652
 2981TIP3    H130578   6.404   1.022   7.276  0.4883  1.5386  1.6915
 2981TIP3    H230579   6.406   0.888   7.346 -0.2339 -0.0928 -1.2215
 2982TIP3   OH230580   1.504   4.382   7.975 -0.4140 -0.1359 -0.5584
 2982TIP3    H130581   1.447   4.450   8.011  0.2633 -0.3470  1.0247
 2982TIP3    H230582   1.584   4.428   7.950  1.4338 -0.5734  3.6017
 2983TIP3   OH230583   2.572   5.953   1.153 -0.2039 -0.1904 -0.1165
 2983TIP3    H130584   2.541   5.969   1.242 -1.5655  0.7464 -0.7199
 2983TIP3    H230585   2.628   5.876   1.160 -0.4884 -0.2794  1.4991
 2984TIP3   OH230586   0.792   1.062   2.560  0.5197  0.2330 -0.4792
 2984TIP3    H130587   0.807   1.139   2.614 -1.4187  0.6435 -0.4301
 2984TIP3    H230588   0.871   1.053   2.507  0.4298  2.8689 -1.1932
 2985TIP3   OH230589   2.852   3.758   1.241  0.1581 -0.1357  0.0936
 2985TIP3    H130590   2.926   3.709   1.205  0.0195  0.0126 -0.4031
 2985TIP3    H230591   2.775   3.718   1.201 -0.1198 -0.8966  1.3038
 2986TIP3   OH230592   4.059   2.747   1.725 -0.2120 -0.0288 -0.3064
 2986TIP3    H130593   4.037   2.765   1.634 -1.1335  0.4066 -0.0130
 2986TIP3    H230594   4.101   2.827   1.757  2.8667 -1.1978 -1.1386
 2987TIP3   OH230595   1.020   6.989   6.480  0.1346  0.1263 -0.1127
 2987TIP3    H130596   1.031   7.083   6.465 -0.9892  0.3750  0.5300
 2987TIP3    H230597   1.007   6.982   6.575  1.3622 -0.8021  0.0112
 2988TIP3   OH230598   5.062   6.807   7.258  0.1885 -0.4102  0.2444
 2988TIP3    H130599   5.121   6.734   7.240  1.7958  0.8503  0.1712
 2988TIP3    H230600   5.018   6.783   7.340 -2.4060 -3.2609 -1.7035
 2989TIP3   OH230601   3.835   2.604   2.256 -0.2779  0.4340 -0.4802
 2989TIP3    H130602   3.818   2.577   2.347  1.8643  3.5584  1.0316
 2989TIP3    H230603   3.786   2.686   2.246  0.4395  0.7280 -1.7544
 2990TIP3   OH230604   4.775   2.523   0.300  0.3400 -0.8402  0.2478
 2990TIP3    H130605   4.851   2.519   0.242 -0.2882 -2.3810 -0.5427
 2990TIP3    H230606   4.811   2.520   0.388  1.2344 -0.3070 -0.0841
 2991TIP3   OH230607   2.912   0.233   2.423  0.0372 -0.0658 -0.2202
 2991TIP3    H130608   2.976   0.216   2.493  0.2300  0.3992 -0.2807
 2991TIP3    H230609   2.901   0.148   2.380 -0.1033 -0.3659  0.3879
 2992TIP3   OH230610   4.910   1.223   1.138 -0.0316  0.5810  0.5140
 2992TIP3    H130611   4.949   1.146   1.177  2.0218  1.7527  0.9042
 2992TIP3    H230612   4.816   1.207   1.141  0.2906 -1.2506  1.9066
 2993TIP3   OH230613   6.529   5.829   0.987  0.4001  0.3718 -0.5476
 2993TIP3    H130614   6.530   5.768   1.061  1.7848 -0.6174 -1.3283
 2993TIP3    H230615   6.437   5.848   0.973  0.0200 -0.5512  0.5395
 2994TIP3   OH230616   3.812   2.110   1.470  0.4424  0.3549 -0.0021
 2994TIP3    H130617   3.869   2.033   1.475  1.2748  1.0291  1.7228
 2994TIP3    H230618   3.837   2.163   1.546 -0.5108  2.0549 -0.8256
 2995TIP3   OH230619   3.314   5.662   0.022  0.0575 -0.3385  0.1491
 2995TIP3    H130620   3.273   5.746   0.042  0.0705 -0.0742 -0.8912
 2995TIP3    H230621   3.245   5.610  -0.018  0.7653  0.2463 -1.9782
 2996TIP3   OH230622   0.573   4.070   2.757 -0.4980  0.0889  0.3586
 2996TIP3    H130623   0.632   4.034   2.823 -0.4403 -1.3769 -0.4386
 2996TIP3    H230624   0.507   4.001   2.745 -0.4070  0.2399 -1.2178
 2997TIP3   OH230625   5.658   4.198   7.003  0.4334 -0.0948  0.3455
 2997TIP3    H130626   5.576   4.154   7.022  0.0862 -0.1523 -1.2154
 2997TIP3    H230627   5.724   4.147   7.051 -0.3555 -0.3311  1.2176
 2998TIP3   OH230628   6.561   4.702   0.451  0.5076 -0.3569 -0.7043
 2998TIP3    H130629   6.536   4.736   0.537 -1.4036 -2.9700 -0.1183
 2998TIP3    H230630   6.571   4.781   0.397 -0.8572  1.2576  1.2298
 2999TIP3   OH230631   0.215   4.036   1.274  0.1164 -0.1770  0.3658
 2999TIP3    H130632   0.227   3.948   1.310  1.7594 -0.4400 -0.7237
 2999TIP3    H230633   0.189   4.089   1.349  1.4638 -1.0962  1.5379
 3000TIP3   OH230634   6.216   4.142   1.134  0.4433  0.0541 -0.2656
 3000TIP3    H130635   6.289   4.117   1.077 -0.0503 -0.1547 -0.8080
 3000TIP3    H230636   6.202   4.235   1.115  1.4934  0.4905  0.8861
 3001TIP3   OH230637   3.867   3.275   1.891  0.3190  0.0938 -0.1777
 3001TIP3    H130638   3.855   3.195   1.944  0.1330 -0.4213 -0.9795
 3001TIP3    H230639   3.823   3.343   1.941 -0.9799 -0.6349 -0.2581
 3002TIP3   OH230640   0.400   6.091   8.207  0.5158 -0.1029 -0.4958
 3002TIP3    H130641   0.425   6.050   8.124  0.7550  0.3531 -0.6541
 3002TIP3    H230642   0.323   6.143   8.186 -0.1084 -0.8753 -0.1812
 3003TIP3   OH230643   2.154   4.387   1.493  0.4883  0.5715  0.3401
 3003TIP3    H130644   2.144   4.360   1.402 -0.5095 -0.4986  0.7508
 3003TIP3    H230645   2.247   4.410   1.501  0.6220  0.4988 -0.8892
 3004TIP3   OH230646   5.489   0.758   2.979  0.3117  0.5226 -0.2493
 3004TIP3    H130647   5.473   0.739   2.887 -1.2842  3.1285 -0.6117
 3004TIP3    H230648   5.425   0.705   3.027 -1.0698  1.5435 -0.9006
 3005TIP3   OH230649   5.394   0.419   1.634  0.2806  0.0109 -0.3647
 3005TIP3    H130650   5.379   0.394   1.725 -0.2395  1.2744 -0.0781
 3005TIP3    H230651   5.388   0.515   1.634  0.4960  0.0470 -1.6886
 3006TIP3   OH230652   5.650   1.043   7.773 -0.3091  0.1979 -0.0431
 3006TIP3    H130653   5.593   0.973   7.742  0.8660 -0.6833 -0.2632
 3006TIP3    H230654   5.722   0.998   7.818  0.9639  1.1975 -1.0018
 3007TIP3   OH230655   5.252   4.253   7.365 -0.0505 -0.4290 -0.0042
 3007TIP3    H130656   5.256   4.266   7.270  1.2212 -0.5328  0.0121
 3007TIP3    H230657   5.344   4.244   7.392 -0.4175 -0.9364  1.1620
 3008TIP3   OH230658   4.617   5.394   0.681 -0.2151  0.2500  0.6838
 3008TIP3    H130659   4.675   5.436   0.617 -2.3975  1.0847 -0.8431
 3008TIP3    H230660   4.573   5.467   0.724 -0.0238 -0.3742  1.9834
 3009TIP3   OH230661   5.196   0.216   7.325 -0.6615 -0.2899 -0.4990
 3009TIP3    H130662   5.225   0.205   7.415 -1.9066  0.8593  0.0805
 3009TIP3    H230663   5.272   0.252   7.279 -1.0982  2.7856  0.9959
 3010TIP3   OH230664   4.211   5.446   1.834 -0.4149 -0.5624 -0.2479
 3010TIP3    H130665   4.231   5.497   1.756  0.2108 -1.1871 -0.5011
 3010TIP3    H230666   4.131   5.398   1.811 -0.7129 -0.0940 -0.1935
 3011TIP3   OH230667   2.685   4.081   0.744 -0.2541  0.4713  0.2797
 3011TIP3    H130668   2.659   4.030   0.667 -0.9144  1.7294 -0.3601
 3011TIP3    H230669   2.659   4.027   0.818 -0.9114 -0.1394 -0.3714
 3012TIP3   OH230670   2.520   0.900   1.551 -0.3062 -0.4889 -0.2337
 3012TIP3    H130671   2.564   0.822   1.583 -1.3986 -0.9868  0.1031
 3012TIP3    H230672   2.446   0.912   1.611 -0.7858  0.1655 -0.9325
 3013TIP3   OH230673   5.968   4.864   7.848 -0.8114  0.0439 -0.1559
 3013TIP3    H130674   5.980   4.770   7.842  0.4852 -0.0433  2.3280
 3013TIP3    H230675   5.884   4.881   7.806 -1.6675 -2.3837  0.4516
 3014TIP3   OH230676   4.013   3.154   0.512 -0.3701  0.1085 -0.1243
 3014TIP3    H130677   3.995   3.081   0.453 -1.6100  0.1699  0.1598
 3014TIP3    H230678   4.063   3.114   0.584  0.0591 -0.2000 -0.5834
 3015TIP3   OH230679   5.254   5.109   1.359  0.1432 -0.4180  0.2607
 3015TIP3    H130680   5.253   5.187   1.416  0.8238 -0.9731  1.0693
 3015TIP3    H230681   5.331   5.060   1.388  0.1910 -0.9900 -0.7993
 3016TIP3   OH230682   6.218   2.956   0.279  0.0132 -0.0856  0.3869
 3016TIP3    H130683   6.158   2.913   0.340  1.6947 -0.1994  2.0873
 3016TIP3    H230684   6.263   2.884   0.235 -0.6280 -0.0047 -0.4193
 3017TIP3   OH230685   7.007   3.385   0.151  0.5964 -0.6090  1.0933
 3017TIP3    H130686   6.995   3.469   0.196  1.6772 -0.5700  1.3531
 3017TIP3    H230687   7.101   3.383   0.130  0.6194 -1.8231  1.2348
 3018TIP3   OH230688   3.256   1.427   7.985 -0.0326 -0.0436  0.0171
 3018TIP3    H130689   3.178   1.443   8.038 -0.0143 -0.1622  0.0790
 3018TIP3    H230690   3.287   1.515   7.961  0.8593  0.0845  1.5087
 3019TIP3   OH230691   0.124   3.278   0.782  0.1013  0.4437 -0.0039
 3019TIP3    H130692   0.067   3.350   0.806 -0.3662 -0.0419  0.3765
 3019TIP3    H230693   0.210   3.302   0.817  0.2891  1.4451 -1.0828
 3020TIP3   OH230694   2.948   4.973   0.924 -0.3285  0.2131  0.6970
 3020TIP3    H130695   3.014   4.906   0.942  0.1732 -0.1175 -1.9210
 3020TIP3    H230696   2.983   5.053   0.965 -0.1915 -0.7290  2.5275
 3021TIP3   OH230697   0.939   0.329   0.807 -0.0546  0.1391 -0.1911
 3021TIP3    H130698   0.851   0.335   0.846 -0.3303  0.7893 -0.8956
 3021TIP3    H230699   0.923   0.324   0.713  0.6347 -0.7761 -0.2659
 3022TIP3   OH230700   5.388   4.572   6.553 -0.2789 -0.0187 -0.1403
 3022TIP3    H130701   5.311   4.526   6.587 -0.5856  0.6773  0.1311
 3022TIP3    H230702   5.456   4.555   6.618 -0.3832 -0.1035 -0.0528
 3023TIP3   OH230703   4.019   6.401   7.473 -0.0346 -1.0998 -1.0914
 3023TIP3    H130704   4.062   6.471   7.425  1.5606 -1.2640 -0.0021
 3023TIP3    H230705   3.971   6.351   7.407 -1.2550  1.0063 -1.8744
 3024TIP3   OH230706   5.263   1.965   0.886  0.2043  0.2130 -0.3397
 3024TIP3    H130707   5.254   1.920   0.802 -0.7181  0.7635 -0.5443
 3024TIP3    H230708   5.277   2.057   0.863  0.5778  0.2728  0.1078
 3025TIP3   OH230709   2.385   1.973   0.903  0.1350  0.2391  0.1772
 3025TIP3    H130710   2.348   2.061   0.898 -0.3568  0.1999  2.1322
 3025TIP3    H230711   2.480   1.986   0.908 -0.0170  0.8854  2.8499
 3026TIP3   OH230712   2.728   5.411   7.448 -0.2468 -0.1153  0.3144
 3026TIP3    H130713   2.757   5.457   7.526  2.2001 -1.2293  0.1416
 3026TIP3    H230714   2.634   5.395   7.463 -0.0134  0.3823  2.6333
 3027TIP3   OH230715   5.896   0.794   0.609  0.0965 -0.5241 -0.0798
 3027TIP3    H130716   5.936   0.846   0.679 -1.4314  0.7631 -0.1028
 3027TIP3    H230717   5.888   0.706   0.646  0.8237 -0.2582  0.7443
 3028TIP3   OH230718   0.315   0.870   7.069 -0.2908  0.0754 -0.4226
 3028TIP3    H130719   0.254   0.819   7.016  0.8503 -1.5567 -0.2256
 3028TIP3    H230720   0.267   0.888   7.150 -0.8941 -0.1902 -0.7126
 3029TIP3   OH230721   5.268   0.006   0.819 -0.1180  0.0039 -0.8312
 3029TIP3    H130722   5.303  -0.082   0.831  1.6377  0.8867  1.3533
 3029TIP3    H230723   5.313   0.059   0.885 -3.7451  1.8569  0.4067
 3030TIP3   OH230724   6.710   5.439   1.923  0.1140 -0.3605  0.6798
 3030TIP3    H130725   6.761   5.445   2.003 -0.5507  0.5728  1.0550
 3030TIP3    H230726   6.717   5.526   1.884 -1.5822 -0.0338  1.0035
 3031TIP3   OH230727   2.583   2.717   0.820  0.3963 -0.3041  0.1882
 3031TIP3    H130728   2.530   2.641   0.842  1.0526 -1.2303 -1.2484
 3031TIP3    H230729   2.672   2.684   0.814  0.8554  0.8079  0.5518
 3032TIP3   OH230730   4.307   2.714   1.119  0.4160 -0.4712 -0.1413
 3032TIP3    H130731   4.346   2.686   1.036  0.2218 -1.1274 -0.0159
 3032TIP3    H230732   4.263   2.796   1.098  3.6956  1.5453  0.1622
 3033TIP3   OH230733   6.171   2.601   1.191  0.0567  0.1433 -0.0412
 3033TIP3    H130734   6.173   2.661   1.117  2.1677 -0.7132 -0.7460
 3033TIP3    H230735   6.201   2.654   1.265  1.1513  0.1704 -0.4964
 3034TIP3   OH230736   6.935   2.720   0.040  0.4383 -0.4065  0.2216
 3034TIP3    H130737   6.983   2.741  -0.040  0.6388 -1.3020  0.0909
 3034TIP3    H230738   6.855   2.677   0.009 -0.0439  0.2847  0.4705
 3035TIP3   OH230739   5.981   1.709   0.028  0.7147 -0.0772  1.0257
 3035TIP3    H130740   5.977   1.799   0.058 -0.2067  0.1699  0.2192
 3035TIP3    H230741   6.062   1.704  -0.024 -0.3672  0.9353 -0.8531
 3036TIP3   OH230742   6.224   4.280   2.619 -0.0406  0.0708 -0.2342
 3036TIP3    H130743   6.219   4.334   2.698  1.9244 -1.1405  0.7985
 3036TIP3    H230744   6.132   4.263   2.596 -0.6742  1.7307  0.8481
 3037TIP3   OH230745   4.096   6.914   7.429  0.1857  0.2486  0.0183
 3037TIP3    H130746   4.092   6.901   7.334  0.9720 -1.0845  0.1467
 3037TIP3    H230747   4.027   6.858   7.464 -0.0783  0.7115  0.2507
 3038TIP3   OH230748   3.367   3.429   7.050  0.2647 -0.1590  0.1382
 3038TIP3    H130749   3.420   3.505   7.026  1.2892 -1.0723 -0.5999
 3038TIP3    H230750   3.428   3.372   7.096 -0.9509  0.2690  2.4639
 3039TIP3   OH230751   0.537   0.819   7.386 -0.3308  0.2260  0.5265
 3039TIP3    H130752   0.531   0.751   7.318 -0.0669 -1.9786  2.5749
 3039TIP3    H230753   0.463   0.877   7.367 -1.5256 -1.4860 -0.4679
 3040TIP3   OH230754   5.013   6.677   6.614 -1.0210  0.0719  0.3704
 3040TIP3    H130755   5.088   6.693   6.672  0.6702 -0.8037 -1.4362
 3040TIP3    H230756   4.955   6.752   6.629 -0.0723  0.5143  2.2235
 3041TIP3   OH230757   5.038   4.467   0.656 -0.4755  0.1394 -0.0533
 3041TIP3    H130758   5.090   4.387   0.663  0.5430  0.6403 -1.3951
 3041TIP3    H230759   4.960   4.442   0.606 -0.8408 -0.2969  0.7178
 3042TIP3   OH230760   0.383   1.094   0.306 -0.1199  0.2783  0.4216
 3042TIP3    H130761   0.467   1.070   0.345  0.3947  0.8661 -0.3034
 3042TIP3    H230762   0.369   1.185   0.333  1.2023  1.3866 -2.2856
 3043TIP3   OH230763   4.016   2.347   2.327  0.9117 -0.5687  0.4555
 3043TIP3    H130764   3.988   2.358   2.418  0.8052 -2.7002  0.7304
 3043TIP3    H230765   4.096   2.294   2.333 -0.1821 -2.4971 -0.7104
 3044TIP3   OH230766   1.805   1.064   0.587  0.3326 -0.7297  0.1779
 3044TIP3    H130767   1.784   1.010   0.663  1.6339 -1.7234 -0.1182
 3044TIP3    H230768   1.884   1.023   0.550 -0.0930 -0.1005 -1.5272
 3045TIP3   OH230769   6.294   3.277   1.157 -0.2560  0.1778  0.1628
 3045TIP3    H130770   6.229   3.234   1.213 -0.8320 -0.3647 -0.9002
 3045TIP3    H230771   6.244   3.310   1.083  0.8840 -2.0426 -1.7380
 3046TIP3   OH230772   5.047   2.976   6.798 -0.4613  0.1487  0.5878
 3046TIP3    H130773   5.065   3.069   6.813 -0.6706 -0.0932  2.5943
 3046TIP3    H230774   5.097   2.930   6.866 -0.4182 -1.2177 -0.3152
 3047TIP3   OH230775   5.567   2.901   6.961  0.5294  0.2785 -0.5830
 3047TIP3    H130776   5.597   2.919   7.050  1.8926 -1.6561 -0.6092
 3047TIP3    H230777   5.645   2.909   6.906  0.1731 -0.7605 -1.2717
 3048TIP3   OH230778   4.255   0.316   1.613  0.3917  0.0255  0.6694
 3048TIP3    H130779   4.277   0.223   1.610  0.4938  0.0540  0.5565
 3048TIP3    H230780   4.164   0.320   1.584  0.3048 -0.0685  0.9308
 3049TIP3   OH230781   5.713   2.420   7.850 -0.1616  0.1157 -0.0891
 3049TIP3    H130782   5.737   2.509   7.874  0.0921  0.0587 -0.1247
 3049TIP3    H230783   5.630   2.405   7.894 -0.4623  0.5456 -0.5071
 3050TIP3   OH230784   4.768   6.224   7.941 -0.7568  0.1754  0.2988
 3050TIP3    H130785   4.828   6.198   7.871  0.7975  1.2388  1.1569
 3050TIP3    H230786   4.770   6.320   7.940 -2.3736  0.2381  0.4459
 3051TIP3   OH230787   2.210   4.244   2.728 -0.5571  0.1403  0.4854
 3051TIP3    H130788   2.170   4.248   2.641 -1.3683  0.0251  0.8452
 3051TIP3    H230789   2.243   4.154   2.735  1.6736  0.7850 -0.6149
 3052TIP3   OH230790   2.126   0.935   1.183  0.0887 -0.3345 -0.2979
 3052TIP3    H130791   2.191   1.000   1.155 -0.7943 -0.0934 -1.8685
 3052TIP3    H230792   2.050   0.952   1.129 -2.2294  0.9230  3.0333
 3053TIP3   OH230793   2.187   3.756   1.940 -0.1256  0.0372 -0.3172
 3053TIP3    H130794   2.133   3.692   1.989 -0.6734  0.5896 -0.1858
 3053TIP3    H230795   2.269   3.710   1.923 -0.6152 -0.8062 -0.4656
 3054TIP3   OH230796   1.220   0.252   2.239  0.2646 -0.5627  0.2078
 3054TIP3    H130797   1.168   0.181   2.200  2.9860 -2.0388 -1.0365
 3054TIP3    H230798   1.237   0.312   2.166  2.0380 -1.2376  0.0252
 3055TIP3   OH230799   6.373   4.827   1.821  0.5380  0.0425  0.3211
 3055TIP3    H130800   6.371   4.847   1.914 -0.0212  1.9277 -0.0575
 3055TIP3    H230801   6.467   4.819   1.801  0.6375 -1.5476  1.2248
 3056TIP3   OH230802   1.694   4.419   2.277  0.0624 -0.2687 -0.1665
 3056TIP3    H130803   1.604   4.453   2.270  0.4990  0.6937 -1.8142
 3056TIP3    H230804   1.712   4.418   2.370 -1.2380  0.7324  0.1372
 3057TIP3   OH230805   1.148   2.364   1.282  0.5505  0.4398 -0.6641
 3057TIP3    H130806   1.206   2.440   1.291  0.3846  0.4343  0.7401
 3057TIP3    H230807   1.159   2.316   1.364 -0.4146 -0.2958 -0.9461
 3058TIP3   OH230808   4.846   4.472   1.060 -0.3500  0.1170  0.1152
 3058TIP3    H130809   4.881   4.479   1.149  1.6153 -0.3889 -0.5509
 3058TIP3    H230810   4.759   4.434   1.071 -0.0255 -0.2207  1.7971
 3059TIP3   OH230811   0.994   0.722   6.701 -0.6572  0.4538 -0.0656
 3059TIP3    H130812   0.900   0.727   6.712 -0.6719  1.0791 -0.4592
 3059TIP3    H230813   1.007   0.714   6.606 -0.3000  0.7371 -0.0433
 3060TIP3   OH230814   1.892   6.363   0.978 -0.0731 -0.2998 -0.3517
 3060TIP3    H130815   1.831   6.334   0.910  0.5786  0.5324 -1.3216
 3060TIP3    H230816   1.979   6.342   0.944  0.2888  0.5683  0.0016
 3061TIP3   OH230817   3.906   1.667   1.651 -0.0090  0.4498 -0.5324
 3061TIP3    H130818   3.834   1.702   1.599 -0.6291 -0.1486 -0.1010
 3061TIP3    H230819   3.981   1.724   1.631 -0.6116  1.1065 -0.9500
 3062TIP3   OH230820   1.692   3.307   0.838  0.2832 -0.6665  0.5529
 3062TIP3    H130821   1.745   3.234   0.805 -1.9854 -2.4833  0.6605
 3062TIP3    H230822   1.603   3.286   0.809 -0.5121  1.9161  0.9231
 3063TIP3   OH230823   1.009   1.516   1.672 -0.1309 -0.0167 -0.2842
 3063TIP3    H130824   1.032   1.433   1.630  0.5609  0.0030  0.0484
 3063TIP3    H230825   1.031   1.503   1.764 -0.9999  0.1808 -0.0429
 3064TIP3   OH230826   4.819   0.388   0.351  0.5476  0.1690 -0.2547
 3064TIP3    H130827   4.761   0.327   0.304  0.2629  2.5681 -3.3742
 3064TIP3    H230828   4.766   0.420   0.424 -1.1597  0.3548 -1.5102
 3065TIP3   OH230829   0.373   6.127   2.449  0.0430  0.6345 -0.5599
 3065TIP3    H130830   0.342   6.201   2.396  0.4939  0.9305 -0.4226
 3065TIP3    H230831   0.296   6.071   2.459 -0.3231  1.1155 -0.6149
 3066TIP3   OH230832   1.454   6.622   8.180 -0.2857  0.0558  0.0391
 3066TIP3    H130833   1.511   6.699   8.181  0.7266 -0.6733  1.2103
 3066TIP3    H230834   1.379   6.647   8.233 -0.8165  0.8197 -1.0301
 3067TIP3   OH230835   6.528   4.877   2.568  0.5336  0.2348 -0.1054
 3067TIP3    H130836   6.496   4.959   2.606 -1.2272  0.7404 -2.4351
 3067TIP3    H230837   6.465   4.811   2.594  0.7202  0.0680 -0.0712
 3068TIP3   OH230838   0.417   4.737   1.095  0.0902 -0.2211  0.6369
 3068TIP3    H130839   0.356   4.768   1.161  1.3025  0.9821  1.2307
 3068TIP3    H230840   0.492   4.704   1.145  1.5319  1.7714 -0.0796
 3069TIP3   OH230841   6.946   6.832   0.336 -0.7315 -0.0279  0.2089
 3069TIP3    H130842   6.940   6.803   0.245  0.0230  0.5687 -0.0425
 3069TIP3    H230843   6.899   6.915   0.338  0.1343  0.4772  0.1180
 3070TIP3   OH230844   5.750   1.035   1.884 -0.0141 -0.0512  0.0554
 3070TIP3    H130845   5.795   1.086   1.817  0.0631  1.3249  1.0931
 3070TIP3    H230846   5.798   1.056   1.965 -0.3653 -1.3186  0.6155
 3071TIP3   OH230847   3.089   2.874   8.157  0.1515 -0.4586 -0.4168
 3071TIP3    H130848   3.172   2.828   8.169  0.6424  0.8532  1.6236
 3071TIP3    H230849   3.062   2.900   8.245 -1.1753  1.2665 -1.2564
 3072TIP3   OH230850   3.704   1.206   7.675 -0.0057  0.0345 -0.0926
 3072TIP3    H130851   3.789   1.247   7.664  0.0463  0.0134  0.2120
 3072TIP3    H230852   3.660   1.218   7.591  0.3549 -0.0920 -0.2993
 3073TIP3   OH230853   6.029   1.062   3.103  0.5895 -0.2113 -0.6117
 3073TIP3    H130854   5.965   0.993   3.119  0.9419  0.0507  2.6231
 3073TIP3    H230855   5.978   1.143   3.104  0.8038 -0.0624  1.1987
 3074TIP3   OH230856   5.130   0.764   7.660 -0.0505 -0.0691 -0.3837
 3074TIP3    H130857   5.035   0.764   7.667  0.0605 -0.5619  3.3033
 3074TIP3    H230858   5.157   0.850   7.691  0.7136 -0.6623  0.6916
 3075TIP3   OH230859   6.886   0.903   0.230 -0.8571 -0.6554 -0.2817
 3075TIP3    H130860   6.869   0.940   0.317 -4.0539 -1.1737 -0.5497
 3075TIP3    H230861   6.913   0.977   0.176 -0.9644  0.0735  0.6448
 3076TIP3   OH230862   5.503   2.401   8.027  0.4142  0.5487  0.0176
 3076TIP3    H130863   5.563   2.435   8.093 -0.1475 -1.4717  1.6782
 3076TIP3    H230864   5.432   2.465   8.024  1.9997  2.3704 -1.1398
 3077TIP3   OH230865   0.051   3.399   1.085 -0.2483 -0.1633  0.1350
 3077TIP3    H130866   0.081   3.434   1.169 -2.5272 -0.3245  1.0876
 3077TIP3    H230867   0.047   3.475   1.027  1.1207 -0.0124  0.2067
 3078TIP3   OH230868   1.948   5.618   7.069  0.0530 -0.6312 -0.1004
 3078TIP3    H130869   1.906   5.603   7.153 -1.5789  1.1856 -0.5105
 3078TIP3    H230870   1.880   5.656   7.014  1.3413 -0.8226 -1.9372
 3079TIP3   OH230871   2.715   4.738   1.863 -0.5317 -0.1249 -0.0331
 3079TIP3    H130872   2.717   4.702   1.952 -0.2457  0.1619  0.0797
 3079TIP3    H230873   2.804   4.727   1.830 -0.8735 -1.1145 -0.6521
 3080TIP3   OH230874   5.262   4.197   2.240  0.3018 -0.0509  0.0383
 3080TIP3    H130875   5.325   4.188   2.311  1.3869 -1.6638 -1.0638
 3080TIP3    H230876   5.307   4.163   2.163 -1.2101  0.6566 -1.2191
 3081TIP3   OH230877   3.913   1.151   0.275 -0.0697 -0.2801 -0.0373
 3081TIP3    H130878   3.981   1.213   0.247 -2.1389  1.9436 -0.4158
 3081TIP3    H230879   3.850   1.150   0.203 -3.3890  2.3234  2.5047
 3082TIP3   OH230880   4.032   0.467   1.203 -0.3204 -0.1438 -0.1387
 3082TIP3    H130881   3.968   0.415   1.155 -0.5390  1.7239 -2.0220
 3082TIP3    H230882   4.106   0.408   1.218 -1.3069 -1.5057 -0.4995
 3083TIP3   OH230883   6.630   0.780   0.276 -0.5487 -0.4018 -0.4935
 3083TIP3    H130884   6.715   0.817   0.252 -0.2785 -0.4014  0.4184
 3083TIP3    H230885   6.571   0.856   0.281  0.0277 -0.0198  1.4768
 3084TIP3   OH230886   4.588   3.789   1.231 -0.3574 -0.3041 -0.4690
 3084TIP3    H130887   4.607   3.849   1.158 -1.3738  0.9326  0.2434
 3084TIP3    H230888   4.671   3.784   1.279  0.1665 -0.6980 -1.3925
 3085TIP3   OH230889   4.445   1.153   8.197  0.0428 -0.8289 -0.4410
 3085TIP3    H130890   4.530   1.126   8.164 -0.5038 -1.9407 -1.0016
 3085TIP3    H230891   4.391   1.165   8.119 -0.4805 -0.7288 -0.0746
 3086TIP3   OH230892   6.260   1.288   7.670  0.1737  0.4699  0.3866
 3086TIP3    H130893   6.173   1.267   7.636 -0.0564  1.0760  0.5933
 3086TIP3    H230894   6.275   1.223   7.739  0.4408 -0.4634 -0.5149
 3087TIP3   OH230895   1.848   2.296   2.486  0.1125 -0.0993  0.0490
 3087TIP3    H130896   1.778   2.288   2.421  1.6320 -1.5412 -1.5246
 3087TIP3    H230897   1.856   2.390   2.501 -1.5241  0.1519 -0.4018
 3088TIP3   OH230898   5.748   4.014   3.034  0.2703  0.3206  0.2068
 3088TIP3    H130899   5.751   3.963   3.115  1.6948 -1.7486 -1.0607
 3088TIP3    H230900   5.813   4.083   3.047  0.3117  0.1672  0.8973
 3089TIP3   OH230901   4.662   3.439   7.132  0.0375  0.0803 -0.0716
 3089TIP3    H130902   4.742   3.490   7.142  0.3708 -0.1535 -1.3259
 3089TIP3    H230903   4.626   3.433   7.220  0.5840  1.5031  0.2819
 3090TIP3   OH230904   4.432   0.375   7.997  0.4241 -0.5902  0.1319
 3090TIP3    H130905   4.457   0.317   8.069 -0.4336  1.1644  1.9398
 3090TIP3    H230906   4.337   0.383   8.004  0.3038 -0.4852 -1.3006
 3091TIP3   OH230907   1.536   0.230   0.591 -0.4158  0.8380  0.4554
 3091TIP3    H130908   1.565   0.301   0.534 -0.6265  0.3728 -0.2427
 3091TIP3    H230909   1.441   0.226   0.578 -0.1878 -0.9066 -1.1119
 3092TIP3   OH230910   2.568   4.806   7.722 -0.4395 -0.1469  0.1545
 3092TIP3    H130911   2.552   4.841   7.809  0.1033  0.0088  0.2000
 3092TIP3    H230912   2.594   4.715   7.737 -1.0517 -0.3357  0.0976
 3093TIP3   OH230913   3.729   5.909   7.967  0.1993 -0.7768  0.1634
 3093TIP3    H130914   3.768   5.996   7.953 -0.6797 -0.1488  1.4335
 3093TIP3    H230915   3.773   5.853   7.904  1.6130  0.3516  0.0959
 3094TIP3   OH230916   5.895   1.172   2.643  0.4070  0.2706 -0.2871
 3094TIP3    H130917   5.907   1.266   2.653  0.6039  0.4284 -1.8039
 3094TIP3    H230918   5.889   1.158   2.548  2.0423 -1.4204 -0.2043
 3095TIP3   OH230919   6.713   2.673   1.005 -0.3292 -0.0186  0.0323
 3095TIP3    H130920   6.725   2.579   0.988 -0.3431  0.1895 -1.2174
 3095TIP3    H230921   6.701   2.712   0.919  0.5479  1.2690  0.4622
 3096TIP3   OH230922   1.878   0.771   1.204 -0.2428 -0.2092 -0.7568
 3096TIP3    H130923   1.932   0.809   1.273 -1.1729  0.7592 -0.5285
 3096TIP3    H230924   1.795   0.819   1.210 -1.2351 -1.8345 -0.9190
 3097TIP3   OH230925   5.141   4.293   2.501  0.5040  0.2347  0.3352
 3097TIP3    H130926   5.164   4.270   2.411 -2.2617 -0.0168 -0.3983
 3097TIP3    H230927   5.134   4.388   2.501  0.7135  0.2492  0.3306
 3098TIP3   OH230928   5.651   1.106   0.116 -0.0760 -0.4513  0.6804
 3098TIP3    H130929   5.710   1.124   0.189  1.5342 -0.5782 -0.5126
 3098TIP3    H230930   5.701   1.047   0.059 -1.2777 -0.3829 -0.5029
 3099TIP3   OH230931   4.924   2.216   0.868 -0.3907  0.1744 -0.4744
 3099TIP3    H130932   5.012   2.226   0.903 -0.8542  1.8111  0.3580
 3099TIP3    H230933   4.901   2.125   0.885  0.8785 -0.0989 -0.1047
 3100TIP3   OH230934   3.576   0.324   0.742  0.2003 -0.0852 -0.8177
 3100TIP3    H130935   3.573   0.373   0.660 -0.5268  0.3513 -0.5304
 3100TIP3    H230936   3.651   0.264   0.731  0.4570  0.3645 -1.5673
 3101TIP3   OH230937   0.585   3.370   8.036 -0.3480  0.3706  0.1687
 3101TIP3    H130938   0.677   3.385   8.057 -0.3051  0.9305 -0.3822
 3101TIP3    H230939   0.545   3.345   8.119  0.4056 -0.4284  0.3069
 3102TIP3   OH230940   1.099   2.338   2.020 -0.1180 -0.1777 -0.6599
 3102TIP3    H130941   1.150   2.345   2.101 -1.4427  1.4382  0.0937
 3102TIP3    H230942   1.133   2.408   1.965 -0.5018 -0.0445 -0.7308
 3103TIP3   OH230943   1.630   1.390   0.066  0.4991  0.3347  0.1825
 3103TIP3    H130944   1.668   1.461   0.015 -0.7026  1.2301  0.4990
 3103TIP3    H230945   1.700   1.325   0.072  1.4784  1.2944 -0.4863
 3104TIP3   OH230946   0.372   6.577   0.027 -0.2857  0.6428 -0.4489
 3104TIP3    H130947   0.407   6.550   0.112  0.4129  0.8100 -0.6764
 3104TIP3    H230948   0.281   6.546   0.028 -0.0659 -0.0055  0.0601
 3105TIP3   OH230949   2.946   1.035   8.019  0.2706 -0.2795 -0.3398
 3105TIP3    H130950   3.033   1.075   8.020 -1.1128  2.9687  0.0728
 3105TIP3    H230951   2.925   1.027   7.926  0.9647 -1.0689 -0.4419
 3106TIP3   OH230952   6.143   2.751   1.800  0.1420  0.1479  0.6707
 3106TIP3    H130953   6.160   2.728   1.892  0.3481  2.2213  1.2057
 3106TIP3    H230954   6.071   2.814   1.804 -0.9631 -0.9539 -0.7611
 3107TIP3   OH230955   3.384   0.324   2.443 -0.4308  0.4363  0.0672
 3107TIP3    H130956   3.302   0.276   2.433  0.2216 -0.7572  0.2565
 3107TIP3    H230957   3.443   0.262   2.488  1.5082  0.1208 -2.6508
 3108TIP3   OH230958   6.375   0.299   2.812  0.0728  0.6011  0.0850
 3108TIP3    H130959   6.444   0.296   2.879 -0.3771  1.1940  0.5865
 3108TIP3    H230960   6.394   0.225   2.755  1.1670  0.8022  0.1747
 3109TIP3   OH230961   0.770   0.194   7.963  0.0521 -0.2626 -0.0874
 3109TIP3    H130962   0.771   0.232   7.875  0.6396 -1.3537 -0.5863
 3109TIP3    H230963   0.680   0.163   7.974 -0.7386  2.1827  0.7782
 3110TIP3   OH230964   5.083   4.371   1.643  0.8580 -0.0192  0.0308
 3110TIP3    H130965   5.089   4.275   1.641  0.5926 -0.0644  1.1243
 3110TIP3    H230966   5.148   4.398   1.708  1.3590  0.5977 -0.7062
 3111TIP3   OH230967   0.860   0.850   1.125  0.1672  0.6440  0.7705
 3111TIP3    H130968   0.860   0.942   1.099  0.0685  0.3154 -0.4393
 3111TIP3    H230969   0.811   0.848   1.207  0.8394  1.7732  1.2322
 3112TIP3   OH230970   1.368   0.896   1.349  0.6463 -0.1173  0.0540
 3112TIP3    H130971   1.369   0.992   1.349 -0.1853 -0.0979 -0.1919
 3112TIP3    H230972   1.315   0.872   1.273 -1.4244 -0.6972  1.5809
 3113TIP3   OH230973   3.645   2.896   1.400 -0.1661 -0.1199  0.0222
 3113TIP3    H130974   3.612   2.974   1.355  2.8874  1.4403  0.2284
 3113TIP3    H230975   3.680   2.929   1.483  2.4394 -1.4012 -0.4760
 3114TIP3   OH230976   1.440   1.158   1.346 -0.0907 -0.4378  0.0142
 3114TIP3    H130977   1.418   1.222   1.414  2.5451 -0.1486  0.6898
 3114TIP3    H230978   1.423   1.205   1.264 -1.2149 -0.0334  0.4524
 3115TIP3   OH230979   0.047   6.122   7.599  0.5584  0.1497  0.0105
 3115TIP3    H130980   0.022   6.067   7.525  1.7751 -0.2497 -0.1354
 3115TIP3    H230981  -0.011   6.198   7.593  1.1930  0.5522 -1.8802
 3116TIP3   OH230982   3.719   5.316   1.080 -0.4193  0.4116  0.3580
 3116TIP3    H130983   3.766   5.398   1.064 -0.0749  0.0925 -0.2927
 3116TIP3    H230984   3.764   5.277   1.155  0.0152  0.3678  0.0758
 3117TIP3   OH230985   1.958   6.660   2.367 -0.3503  0.5448 -0.2650
 3117TIP3    H130986   1.970   6.616   2.452 -0.3185 -0.5082 -0.7977
 3117TIP3    H230987   2.004   6.743   2.377 -0.5434  0.5376  0.8331
 3118TIP3   OH230988   5.202   5.765   0.781  0.5592 -0.2889 -0.4695
 3118TIP3    H130989   5.118   5.719   0.775 -0.0787  0.9123 -1.1232
 3118TIP3    H230990   5.254   5.712   0.840  0.2636 -2.4965 -2.0726
 3119TIP3   OH230991   3.729   4.567   7.609 -0.1637  0.0214  0.1657
 3119TIP3    H130992   3.693   4.640   7.660  2.3519 -0.1711  2.4537
 3119TIP3    H230993   3.653   4.524   7.571 -1.8432  2.9645 -0.1079
 3120TIP3   OH230994   0.545   1.390   2.328  0.5030 -0.4230 -0.1374
 3120TIP3    H130995   0.542   1.317   2.390  1.6959 -0.9046 -0.6281
 3120TIP3    H230996   0.599   1.457   2.372  0.5472 -0.3808 -0.2562
 3121TIP3   OH230997   5.795   3.695   0.665  0.3399  0.1146  0.5178
 3121TIP3    H130998   5.815   3.673   0.574 -2.3682 -0.6043  0.0099
 3121TIP3    H230999   5.790   3.611   0.710  1.0111  0.4298  1.2046
 3122TIP3   OH231000   2.923   0.944   0.888 -0.0705  0.3428  0.4268
 3122TIP3    H131001   2.948   0.899   0.968 -2.1558  0.6292  1.3104
 3122TIP3    H231002   2.976   1.024   0.888 -0.1087  0.3813  1.5795
 3123TIP3   OH231003   4.897   4.986   7.334  0.0416  0.4422  0.4138
 3123TIP3    H131004   4.859   4.975   7.247 -1.4529 -2.6346  1.3395
 3123TIP3    H231005   4.991   4.994   7.318 -0.2499  0.4730 -1.5000
 3124TIP3   OH231006   4.555   5.195   0.917 -0.5519 -0.4966  0.2030
 3124TIP3    H131007   4.591   5.265   0.861 -0.6288  0.5252  1.3936
 3124TIP3    H231008   4.562   5.116   0.863 -2.2278  0.6939 -1.9418
 3125TIP3   OH231009   3.085   6.519   1.579  0.2996  0.2118  0.2225
 3125TIP3    H131010   3.105   6.499   1.488 -0.5240 -0.4786  0.1752
 3125TIP3    H231011   3.072   6.433   1.620 -1.9217  0.5490  0.3474
 3126TIP3   OH231012   3.239   4.491   0.132 -0.1420  0.3143  0.1204
 3126TIP3    H131013   3.172   4.428   0.102  0.2438 -0.4494  0.8067
 3126TIP3    H231014   3.239   4.559   0.065  0.6278 -1.2696 -1.5955
 3127TIP3   OH231015   3.478   3.594   8.076  0.5290 -0.0772  0.1241
 3127TIP3    H131016   3.443   3.508   8.100  0.0206 -0.0055 -0.3583
 3127TIP3    H231017   3.435   3.616   7.994  0.3763  0.8037  0.4273
 3128TIP3   OH231018   5.375   4.258   6.799  0.2757 -0.2282  0.5877
 3128TIP3    H131019   5.303   4.195   6.807 -0.2503  0.2339 -0.4281
 3128TIP3    H231020   5.332   4.344   6.798  0.7606  0.0196 -0.8807
 3129TIP3   OH231021   3.856   4.260   1.256 -0.5738 -0.4040  0.4832
 3129TIP3    H131022   3.936   4.212   1.233 -0.0387  1.4496 -2.0494
 3129TIP3    H231023   3.864   4.275   1.351  0.9254 -2.2102  0.7115
 3130TIP3   OH231024   3.935   5.247   0.506  0.3226  0.1589  0.0126
 3130TIP3    H131025   3.882   5.199   0.570  0.9236  1.0400  1.2300
 3130TIP3    H231026   3.924   5.200   0.424 -0.7767 -0.8004  0.6918
 3131TIP3   OH231027   6.346   1.966   7.960  0.0931 -0.2660 -0.1097
 3131TIP3    H131028   6.265   1.989   7.915 -0.1204  1.1237  0.8864
 3131TIP3    H231029   6.335   2.003   8.048  1.8434  0.0631  0.0114
 3132TIP3   OH231030   0.949   0.381   7.628  0.2806 -0.6928 -0.0078
 3132TIP3    H131031   0.869   0.431   7.645  0.8935 -0.2162  1.6898
 3132TIP3    H231032   0.958   0.383   7.532  0.0808  2.2103 -0.0700
 3133TIP3   OH231033   5.008   4.839   2.515  0.3362 -0.0021 -0.1807
 3133TIP3    H131034   4.944   4.767   2.515  0.6437 -0.2791  0.1048
 3133TIP3    H231035   5.063   4.823   2.592  1.8112 -0.7259 -1.3207
 3134TIP3   OH231036   4.685   1.215   2.641  0.0332 -0.8021 -0.1160
 3134TIP3    H131037   4.730   1.296   2.665 -0.7369 -0.2853 -0.3936
 3134TIP3    H231038   4.594   1.240   2.630  0.0186 -1.4055 -1.6435
 3135TIP3   OH231039   4.896   0.439   7.583  0.6217  0.2128 -0.1039
 3135TIP3    H131040   4.848   0.499   7.640 -0.6450  0.9407 -1.8292
 3135TIP3    H231041   4.888   0.354   7.626  2.0546  1.1251  2.1486
 3136TIP3   OH231042   0.840   1.171   1.789 -0.0829 -0.4889 -0.0006
 3136TIP3    H131043   0.791   1.137   1.864  0.3476 -0.6139  0.2297
 3136TIP3    H231044   0.906   1.103   1.771  1.0981  0.4054  0.7581
 3137TIP3   OH231045   1.658   5.539   0.655 -0.3538 -0.1232 -0.1942
 3137TIP3    H131046   1.725   5.593   0.698 -0.2966 -0.0055 -0.4296
 3137TIP3    H231047   1.627   5.480   0.724 -0.5645  0.3451  0.1183
 3138TIP3   OH231048   4.734   0.922   0.479 -0.2978 -0.7900  0.1126
 3138TIP3    H131049   4.689   0.985   0.535  1.5135  0.9610 -0.2695
 3138TIP3    H231050   4.779   0.864   0.540  0.5214  0.2368  0.5150
 3139TIP3   OH231051   6.861   4.055   1.622 -0.5598  0.3194  0.2455
 3139TIP3    H131052   6.890   3.964   1.633  1.9617  1.0256  0.0324
 3139TIP3    H231053   6.795   4.050   1.553 -0.8535 -1.4042  0.5998
 3140TIP3   OH231054   2.899   0.681   1.924  0.3054  0.2980  0.3363
 3140TIP3    H131055   2.903   0.770   1.888 -2.4993  0.4718  0.2484
 3140TIP3    H231056   2.871   0.694   2.014 -1.2913 -0.4989 -0.0131
 3141TIP3   OH231057   3.086   1.842   7.033  0.8037 -0.0871 -0.0517
 3141TIP3    H131058   3.104   1.845   6.939  1.8845  0.8760  0.1576
 3141TIP3    H231059   3.100   1.750   7.057 -0.1691 -0.4917 -0.9322
 3142TIP3   OH231060   4.582   3.262   1.134  0.3548  0.2536  0.9755
 3142TIP3    H131061   4.563   3.352   1.162  2.6241  0.9539  0.4079
 3142TIP3    H231062   4.616   3.219   1.212 -1.0389 -0.2602  1.3348
 3143TIP3   OH231063   6.992   1.639   2.611  0.0776  0.2291  0.4329
 3143TIP3    H131064   6.966   1.687   2.532 -0.6682  0.7230  0.9612
 3143TIP3    H231065   6.973   1.548   2.591 -2.0807  0.5551  0.7627
 3144TIP3   OH231066   0.189   6.863   1.265 -0.7546  0.0401  0.0420
 3144TIP3    H131067   0.171   6.795   1.201 -1.0794  0.0109  0.1617
 3144TIP3    H231068   0.116   6.858   1.327 -0.9464  0.7016 -0.1227
 3145TIP3   OH231069   0.498   2.992   7.699 -0.2267 -0.5186 -0.5278
 3145TIP3    H131070   0.414   3.010   7.656 -0.2862 -0.3534 -0.3438
 3145TIP3    H231071   0.521   2.904   7.670 -1.2457 -1.1964  0.6626
 3146TIP3   OH231072   1.780   1.356   6.863  0.4291  0.1795 -0.6630
 3146TIP3    H131073   1.843   1.387   6.798 -0.7101 -1.1481 -2.4898
 3146TIP3    H231074   1.707   1.417   6.858  0.6406  0.5025 -0.0435
 3147TIP3   OH231075   6.812   0.764   1.289  0.4556 -0.0140 -0.0981
 3147TIP3    H131076   6.807   0.826   1.216 -1.8469  0.7775  0.6438
 3147TIP3    H231077   6.895   0.785   1.332  0.7187  1.1281 -1.1024
 3148TIP3   OH231078   2.846   2.546   7.827 -0.7991 -0.3565 -0.3967
 3148TIP3    H131079   2.872   2.459   7.858  1.2192 -0.1235 -1.2930
 3148TIP3    H231080   2.895   2.607   7.882  0.0358  0.1313 -1.6392
 3149TIP3   OH231081   3.138   2.787   1.336 -0.3557 -0.4195  0.5150
 3149TIP3    H131082   3.141   2.836   1.253  0.3434 -0.8795  0.2587
 3149TIP3    H231083   3.229   2.787   1.366 -0.3641 -1.4859  0.5549
 3150TIP3   OH231084   1.132   1.951   0.934 -0.6598  0.4028 -0.0204
 3150TIP3    H131085   1.106   1.866   0.971 -1.1124  1.5030  2.3685
 3150TIP3    H231086   1.049   1.993   0.912 -0.5790  1.0703  0.8870
 3151TIP3   OH231087   6.791   6.089   2.589 -0.4490  0.0845  0.2710
 3151TIP3    H131088   6.854   6.043   2.533 -1.1371 -2.8251  1.7403
 3151TIP3    H231089   6.707   6.079   2.543 -0.9718 -2.0979  1.5791
 3152TIP3   OH231090   0.943   0.728   6.417 -0.2478 -0.0562 -0.1733
 3152TIP3    H131091   0.921   0.820   6.403  0.9955  0.2199 -0.4728
 3152TIP3    H231092   0.868   0.680   6.384 -1.2946  0.8616  0.7846
 3153TIP3   OH231093   3.726   5.971   0.904 -0.3052 -0.4678  0.1262
 3153TIP3    H131094   3.754   5.915   0.832  1.1159  2.9203 -2.2177
 3153TIP3    H231095   3.778   5.940   0.979  1.2209 -1.5777 -1.3069
 3154TIP3   OH231096   0.741   3.759   0.727  0.7062  0.2292 -0.7482
 3154TIP3    H131097   0.820   3.705   0.734  0.6832 -0.1271 -2.8409
 3154TIP3    H231098   0.738   3.786   0.636 -1.7101  0.0538 -0.7749
 3155TIP3   OH231099   1.844   4.174   0.572  0.2151  0.4375  0.4881
 3155TIP3    H131100   1.787   4.134   0.638 -0.7312  0.5089 -0.2685
 3155TIP3    H231101   1.784   4.206   0.504  1.2021 -0.3275 -0.7898
 3156TIP3   OH231102   4.863   0.875   7.537  0.1681 -0.5894  0.3695
 3156TIP3    H131103   4.901   0.960   7.558  1.2725 -1.1631  0.7851
 3156TIP3    H231104   4.866   0.869   7.442  0.2849 -0.2499  0.3523
 3157TIP3   OH231105   7.032   1.694   1.252  0.2318 -0.2176 -0.1232
 3157TIP3    H131106   7.049   1.688   1.158 -2.6283  0.0873 -0.7489
 3157TIP3    H231107   7.033   1.788   1.270 -1.0957 -0.1653 -0.2728
 3158TIP3   OH231108   4.203   0.350   0.202  0.4953  0.5103  0.0717
 3158TIP3    H131109   4.134   0.323   0.264  0.2920 -2.8908 -1.4190
 3158TIP3    H231110   4.281   0.360   0.256 -0.2191  0.1526  1.2106
 3159TIP3   OH231111   3.701   1.233   8.047 -0.1653  0.0676 -0.0150
 3159TIP3    H131112   3.740   1.170   7.986 -1.2401  0.0814 -0.7521
 3159TIP3    H231113   3.726   1.318   8.011  2.6025  0.1596  1.8312
 3160TIP3   OH231114   1.505   6.202   1.049  0.2291 -0.1470  0.3139
 3160TIP3    H131115   1.462   6.183   1.132 -0.0665  0.9678  0.4441
 3160TIP3    H231116   1.529   6.117   1.013 -0.5297 -0.6952  1.0731
 3161TIP3   OH231117   2.476   4.288   8.153 -0.1971  0.2142 -0.4523
 3161TIP3    H131118   2.510   4.348   8.087 -0.3746  0.3073 -0.4598
 3161TIP3    H231119   2.473   4.339   8.233  0.3723 -0.0073 -0.2834
 3162TIP3   OH231120   4.416   4.717   6.893 -0.9842  0.0456 -0.5234
 3162TIP3    H131121   4.333   4.714   6.939 -1.4779  0.7690 -1.3350
 3162TIP3    H231122   4.394   4.698   6.801 -0.2942  0.4620 -0.7855
 3163TIP3   OH231123   2.773   3.408   0.274 -0.6925  0.1726  0.0973
 3163TIP3    H131124   2.691   3.359   0.281 -1.6299  1.3746 -1.6352
 3163TIP3    H231125   2.839   3.342   0.253 -1.6678 -0.5234 -0.8955
 3164TIP3   OH231126   2.237   4.591   0.887  0.2319  0.3856 -0.4911
 3164TIP3    H131127   2.222   4.639   0.968 -1.7339 -2.7329  1.1702
 3164TIP3    H231128   2.327   4.560   0.895  0.3605  0.8665  0.0376
 3165TIP3   OH231129   1.714   0.458   1.643  0.5647  0.1029 -0.3034
 3165TIP3    H131130   1.734   0.543   1.603 -1.6972  0.9573  0.2241
 3165TIP3    H231131   1.673   0.408   1.572 -0.7703  0.5548  0.1187
 3166TIP3   OH231132   3.991   1.612   7.655  0.3342 -0.1472 -0.4464
 3166TIP3    H131133   3.915   1.564   7.623 -1.1975  0.6346  1.7831
 3166TIP3    H231134   4.025   1.558   7.726  0.6890  0.4448 -0.1599
 3167TIP3   OH231135   5.789   5.963   1.636  0.0505 -0.6299  0.1329
 3167TIP3    H131136   5.700   5.964   1.671  1.0621  0.2733  2.9464
 3167TIP3    H231137   5.801   5.873   1.606 -1.2603 -1.2320  1.2684
 3168TIP3   OH231138   1.190   3.357   2.417 -0.8579 -0.9893 -0.0460
 3168TIP3    H131139   1.142   3.318   2.344  0.0643  0.0687 -1.2563
 3168TIP3    H231140   1.165   3.449   2.416  0.8932 -0.4825 -0.4863
 3169TIP3   OH231141   2.138   3.449   7.582  0.3475  0.1664 -0.3654
 3169TIP3    H131142   2.070   3.510   7.553  0.8246  0.8605 -0.0522
 3169TIP3    H231143   2.220   3.490   7.556  0.7415  0.3377  1.0636
 3170TIP3   OH231144   0.207   5.162   7.087  0.0936  0.2291  0.6661
 3170TIP3    H131145   0.139   5.139   7.023  0.9480  0.1014 -0.2276
 3170TIP3    H231146   0.233   5.251   7.063  1.0762 -0.1576  0.2125
 3171TIP3   OH231147   2.105   0.000   6.469 -0.3172 -0.3309 -0.4226
 3171TIP3    H131148   2.111   0.043   6.383 -0.0939  0.0113 -0.2368
 3171TIP3    H231149   2.021  -0.046   6.466  0.3418 -1.5369 -1.3799
 3172TIP3   OH231150   2.676   4.135   1.638  0.1879 -0.6997  0.0458
 3172TIP3    H131151   2.767   4.141   1.607 -0.5220 -0.3464 -2.0719
 3172TIP3    H231152   2.660   4.218   1.683  0.3572  0.0114 -1.1766
 3173TIP3   OH231153   1.334   5.288   0.558 -0.4310 -0.0967 -0.4397
 3173TIP3    H131154   1.427   5.284   0.537 -0.5747  0.8557 -1.3626
 3173TIP3    H231155   1.290   5.254   0.480 -0.8777  0.0995 -0.2793
 3174TIP3   OH231156   4.415   5.235   0.560 -0.1312 -0.0433  0.0254
 3174TIP3    H131157   4.503   5.272   0.554 -0.7777  1.7948  1.0222
 3174TIP3    H231158   4.360   5.310   0.584 -2.4159 -0.5036 -3.1053
 3175TIP3   OH231159   2.479   0.185   7.318  0.2250  0.3197  0.3464
 3175TIP3    H131160   2.396   0.178   7.365  0.9136  1.1638  1.7588
 3175TIP3    H231161   2.540   0.132   7.370  0.2793 -1.5772 -1.5073
 3176TIP3   OH231162   4.117   5.659   6.393 -0.6540 -0.2783  0.1529
 3176TIP3    H131163   4.172   5.581   6.388  0.3687  0.0985  3.3894
 3176TIP3    H231164   4.168   5.727   6.347 -0.3037 -0.8529 -0.3245
 3177TIP3   OH231165   2.513   4.784   1.256  0.0447 -0.3145 -0.3367
 3177TIP3    H131166   2.548   4.786   1.167  0.5532 -0.6316 -0.1449
 3177TIP3    H231167   2.491   4.692   1.271  1.3224 -0.5231  0.3863
 3178TIP3   OH231168   3.005   3.148   6.890  0.7126 -0.6427  0.0884
 3178TIP3    H131169   3.029   3.236   6.862  0.0808 -0.7148 -0.7141
 3178TIP3    H231170   3.058   3.090   6.836 -0.0771 -0.7718 -0.5660
 3179TIP3   OH231171   4.762   4.329   1.411 -0.5519  0.5592  0.5358
 3179TIP3    H131172   4.731   4.275   1.484 -1.6557  0.0415 -0.2730
 3179TIP3    H231173   4.715   4.412   1.422 -0.3994  0.6301  0.6503
 3180TIP3   OH231174   4.886   5.097   2.933  0.2428  0.3244 -0.1145
 3180TIP3    H131175   4.814   5.057   2.883 -0.7436 -1.2087  2.3365
 3180TIP3    H231176   4.856   5.186   2.951  0.6781  0.9590 -2.2365
 3181TIP3   OH231177   4.976   5.522   2.172  0.6955 -0.7881  0.3257
 3181TIP3    H131178   5.009   5.435   2.194 -1.0239 -1.0454  2.1912
 3181TIP3    H231179   4.906   5.538   2.236  0.1834  1.4876 -0.7025
 3182TIP3   OH231180   5.356   2.948   6.767  0.0731  0.1152 -0.5361
 3182TIP3    H131181   5.432   2.955   6.824 -0.8438  2.3748  0.5611
 3182TIP3    H231182   5.314   2.867   6.792 -0.3598  1.0816  2.1913
 3183TIP3   OH231183   3.887   2.183   1.733 -0.2651 -0.3096  0.7125
 3183TIP3    H131184   3.902   2.274   1.761  0.7715  0.4992 -2.1460
 3183TIP3    H231185   3.971   2.140   1.746 -0.1047 -0.2300 -0.0138
 3184TIP3   OH231186   5.071   3.205   0.306  0.4991  0.1565  0.4585
 3184TIP3    H131187   4.999   3.240   0.254 -0.2847 -0.5012  1.0791
 3184TIP3    H231188   5.057   3.241   0.394  0.3832 -0.7107  0.8080
 3185TIP3   OH231189   0.302   5.854   1.177  0.1082  0.2667 -0.0428
 3185TIP3    H131190   0.343   5.932   1.215 -0.7137 -0.1179  1.7217
 3185TIP3    H231191   0.218   5.885   1.143  0.3432  0.3967 -0.5029
 3186TIP3   OH231192   4.936   3.521   7.488 -0.4988 -0.2843  0.6308
 3186TIP3    H131193   4.983   3.438   7.478 -1.8798 -1.2377  1.5235
 3186TIP3    H231194   4.933   3.557   7.400  0.2329 -1.1332  0.2366
 3187TIP3   OH231195   4.499   3.017   1.049  0.0483  0.1124  0.4352
 3187TIP3    H131196   4.551   3.094   1.072 -0.1749  0.0297  1.2646
 3187TIP3    H231197   4.420   3.024   1.103 -0.5819 -0.0252 -0.4419
 3188TIP3   OH231198   3.981   4.736   0.296 -0.2388 -0.1299  0.0832
 3188TIP3    H131199   3.943   4.788   0.225  0.0183 -1.0729 -0.7625
 3188TIP3    H231200   3.990   4.648   0.260  0.7640 -0.4185  0.9783
 3189TIP3   OH231201   6.960   5.350   1.295  0.4638  0.1230  0.0810
 3189TIP3    H131202   6.994   5.429   1.253  2.6256 -0.1221  1.2541
 3189TIP3    H231203   7.031   5.287   1.290  0.5439 -0.2024  3.2727
 3190TIP3   OH231204   4.996   0.119   8.123  0.2351 -0.1809 -0.0190
 3190TIP3    H131205   5.081   0.150   8.152 -0.1294 -0.3817  1.3408
 3190TIP3    H231206   4.947   0.199   8.103  0.1811  0.0256  0.8866
 3191TIP3   OH231207   0.417   2.305   1.229 -0.6294  0.0491 -0.5792
 3191TIP3    H131208   0.423   2.259   1.313 -0.2977 -1.7047 -1.5049
 3191TIP3    H231209   0.486   2.371   1.234  0.4271 -1.0377 -0.0208
 3192TIP3   OH231210   6.855   6.778   7.401 -0.1444 -0.6995 -0.2695
 3192TIP3    H131211   6.773   6.822   7.424  2.2139  3.7264  0.8135
 3192TIP3    H231212   6.863   6.793   7.306 -0.0606 -0.0166 -0.1638
 3193TIP3   OH231213   5.143   4.571   2.512  0.5972  0.8064 -0.1122
 3193TIP3    H131214   5.130   4.647   2.456 -1.4671  1.0248  0.5632
 3193TIP3    H231215   5.154   4.608   2.600 -0.4004  0.3680  0.2163
 3194TIP3   OH231216   1.261   3.491   1.805  0.1110 -0.1150 -0.0068
 3194TIP3    H131217   1.179   3.442   1.797 -0.5485  0.9637 -0.0745
 3194TIP3    H231218   1.243   3.575   1.763  2.1350 -0.8477 -2.6032
 3195TIP3   OH231219   4.289   2.147   0.080  0.3079 -0.0039  0.6384
 3195TIP3    H131220   4.290   2.083   0.151  1.2342 -0.3091  0.3641
 3195TIP3    H231221   4.375   2.139   0.039 -0.0445  0.4938 -0.2304
 3196TIP3   OH231222   3.723   0.922   6.436 -0.1964 -0.1414 -0.1284
 3196TIP3    H131223   3.725   0.846   6.493  1.7445  1.2913  1.9177
 3196TIP3    H231224   3.630   0.939   6.421 -0.7110 -1.6194  1.1319
 3197TIP3   OH231225   2.111   1.023   6.789 -0.0467  0.2411 -0.2420
 3197TIP3    H131226   2.120   1.117   6.772  0.4948  0.5230  1.4655
 3197TIP3    H231227   2.085   1.017   6.881 -0.5106 -1.2758 -0.4455
 3198TIP3   OH231228   5.935   5.648   2.626  0.0930 -0.8268  0.3359
 3198TIP3    H131229   5.852   5.665   2.671 -0.1328 -2.8647  0.7893
 3198TIP3    H231230   5.989   5.605   2.692  1.0693 -0.6204 -0.3207
 3199TIP3   OH231231   0.833   5.160   7.520 -0.1012  0.0763 -0.3355
 3199TIP3    H131232   0.781   5.239   7.533  0.7489  0.7143 -0.7173
 3199TIP3    H231233   0.859   5.164   7.428  0.8605 -0.0765 -0.0779
 3200TIP3   OH231234   1.675   1.337   6.228 -0.1369 -0.4709 -0.5245
 3200TIP3    H131235   1.690   1.429   6.248 -2.4460 -0.3664  1.2405
 3200TIP3    H231236   1.583   1.322   6.251  0.1680 -3.2325 -0.7007
 3201TIP3   OH231237   3.228   3.837   2.192  0.2210 -0.8226 -0.2289
 3201TIP3    H131238   3.281   3.758   2.181 -0.5729 -1.0496 -3.4770
 3201TIP3    H231239   3.157   3.811   2.250 -0.6336 -2.9039 -2.0887
 3202TIP3   OH231240   0.698   1.067   7.583 -0.1443 -0.1263 -0.1349
 3202TIP3    H131241   0.750   1.126   7.637 -0.8526 -0.3085  0.7801
 3202TIP3    H231242   0.759   1.000   7.554  0.2255 -0.1229  0.6020
 3203TIP3   OH231243   2.047   2.984   1.533  0.4030 -0.2611  0.2897
 3203TIP3    H131244   2.042   3.055   1.598 -0.1151  0.4003 -0.4658
 3203TIP3    H231245   2.045   2.904   1.586  0.3933  0.2723  1.1214
 3204TIP3   OH231246   6.046   3.868   0.443 -0.0873  0.2514 -0.3181
 3204TIP3    H131247   6.076   3.797   0.499 -1.7640 -0.1413  0.1542
 3204TIP3    H231248   6.110   3.938   0.456  0.0174 -0.1219  1.4603
 3205TIP3   OH231249   2.877   4.890   7.715 -0.3102  0.0973 -0.6852
 3205TIP3    H131250   2.854   4.962   7.656 -0.6136  0.2090 -0.4368
 3205TIP3    H231251   2.793   4.845   7.731 -0.4053  0.6121  0.3781
 3206TIP3   OH231252   5.609   6.780   8.131 -0.3198  0.4826  0.2183
 3206TIP3    H131253   5.526   6.808   8.094 -0.8079 -1.0786  0.0442
 3206TIP3    H231254   5.670   6.783   8.057 -0.2615  1.4461  0.3013
 3207TIP3   OH231255   4.777   3.917   0.552 -0.2638 -0.0062 -0.0541
 3207TIP3    H131256   4.753   3.926   0.645 -0.0942 -0.7049  0.0588
 3207TIP3    H231257   4.749   4.000   0.513  0.7955  0.8194  0.8640
 3208TIP3   OH231258   6.119   2.757   0.476 -0.7643 -0.5368  0.0970
 3208TIP3    H131259   6.156   2.673   0.451  1.0734 -0.0150  0.9234
 3208TIP3    H231260   6.133   2.762   0.571 -0.7577  0.7311  0.0419
 3209TIP3   OH231261   3.976   5.206   7.704 -0.2158 -0.4238  0.2709
 3209TIP3    H131262   3.978   5.111   7.691  0.1479 -0.4646  0.5829
 3209TIP3    H231263   4.069   5.230   7.711 -0.3317 -0.1442  0.8789
 3210TIP3   OH231264   1.018   3.951   1.805  0.0122 -0.2745  0.5621
 3210TIP3    H131265   1.035   4.019   1.870 -0.0580  0.7120 -0.4264
 3210TIP3    H231266   1.097   3.949   1.751 -0.5090 -0.0466 -0.2193
 3211TIP3   OH231267   1.896   2.755   1.943 -0.1938  0.5520  0.7404
 3211TIP3    H131268   1.926   2.754   1.852 -0.8555  1.9592  0.4868
 3211TIP3    H231269   1.970   2.792   1.992  0.5553 -1.1373  0.9618
 3212TIP3   OH231270   1.319   4.661   1.567 -0.2110 -0.2562 -0.4052
 3212TIP3    H131271   1.382   4.638   1.499  0.2022  0.2666 -0.2032
 3212TIP3    H231272   1.268   4.733   1.529 -1.5095 -1.4663 -1.0417
 3213TIP3   OH231273   0.426   0.012   7.461 -0.1737  0.0549  0.1787
 3213TIP3    H131274   0.475   0.004   7.543 -3.0039 -0.0053  2.0304
 3213TIP3    H231275   0.412   0.106   7.450  0.8389  0.1207 -0.6982
 3214TIP3   OH231276   5.361   2.152   1.196 -0.4850 -1.0154  0.0378
 3214TIP3    H131277   5.387   2.092   1.266  0.6068 -0.6918 -0.0770
 3214TIP3    H231278   5.375   2.239   1.234  2.1332 -0.7828 -1.2233
 3215TIP3   OH231279   4.419   6.329   1.798 -0.0408  0.8988 -0.0864
 3215TIP3    H131280   4.424   6.324   1.893  0.2182 -1.0079 -0.1487
 3215TIP3    H231281   4.367   6.407   1.780 -1.1603  0.5986  1.6537
 3216TIP3   OH231282   1.798   5.686   7.291  0.2286  0.8992  0.6010
 3216TIP3    H131283   1.835   5.630   7.359  1.9051  1.0748 -0.1266
 3216TIP3    H231284   1.705   5.691   7.312  0.3491 -0.7426  1.6717
 3217TIP3   OH231285   5.559   6.097   6.701 -0.2934  0.0209  0.1297
 3217TIP3    H131286   5.521   6.024   6.651  0.3546 -0.6552  0.5988
 3217TIP3    H231287   5.543   6.074   6.793  0.8826 -0.0884  0.3227
 3218TIP3   OH231288   1.521   3.524   7.257  0.0792 -0.2108  0.4461
 3218TIP3    H131289   1.615   3.532   7.272  0.0021  1.2697  0.2583
 3218TIP3    H231290   1.513   3.513   7.162 -0.0620  2.8982  0.0180
 3219TIP3   OH231291   2.719   1.710   0.307 -0.8157  0.1713  0.5446
 3219TIP3    H131292   2.793   1.744   0.357 -0.1692  0.2588 -0.4444
 3219TIP3    H231293   2.742   1.726   0.216 -0.5722 -2.7607  0.0182
 3220TIP3   OH231294   0.064   1.572   7.492  0.0655 -0.0844  0.4113
 3220TIP3    H131295   0.099   1.488   7.463  1.9305  0.6864  0.2756
 3220TIP3    H231296   0.067   1.627   7.413  0.1170  0.4887  0.8073
 3221TIP3   OH231297   2.964   5.241   2.346  0.0870 -0.0135 -0.0701
 3221TIP3    H131298   2.913   5.322   2.347 -0.6060 -0.4454 -0.1788
 3221TIP3    H231299   2.952   5.204   2.434  1.1252  0.4413  0.2758
 3222TIP3   OH231300   1.138   0.680   6.921 -0.2898 -0.1255  0.0558
 3222TIP3    H131301   1.080   0.702   6.848  1.6731  1.1116 -1.2129
 3222TIP3    H231302   1.185   0.602   6.891 -2.8157 -2.6714  2.0501
 3223TIP3   OH231303   6.568   5.656   7.623  0.8307 -0.7649 -0.2271
 3223TIP3    H131304   6.644   5.601   7.641  1.4895  0.0176 -0.5914
 3223TIP3    H231305   6.561   5.713   7.698  0.7234 -0.6979 -0.2878
 3224TIP3   OH231306   2.681   1.678   0.718 -0.3860  0.3697 -0.0964
 3224TIP3    H131307   2.726   1.763   0.724  0.8722 -0.2760 -0.1258
 3224TIP3    H231308   2.593   1.696   0.752  0.2337  1.4211  1.0664
 3225TIP3   OH231309   3.126   0.518   7.936  0.1134 -0.0534 -0.0080
 3225TIP3    H131310   3.035   0.516   7.906  0.6423  0.1700 -1.6886
 3225TIP3    H231311   3.125   0.582   8.007 -0.7274  1.2442 -1.1368
 3226TIP3   OH231312   3.482   5.488   7.496 -0.2964  0.6178  0.1027
 3226TIP3    H131313   3.461   5.451   7.410 -0.2049 -0.7763  0.6493
 3226TIP3    H231314   3.516   5.576   7.477 -0.6651  0.4922 -1.2452
 3227TIP3   OH231315   5.963   6.198   2.144  0.2175  0.2669 -0.1112
 3227TIP3    H131316   5.869   6.181   2.135  0.1571 -0.0986  1.0317
 3227TIP3    H231317   6.000   6.116   2.177  0.7835  0.6940  0.3439
 3228TIP3   OH231318   5.489   1.740   0.800 -0.6813  0.0316  0.1506
 3228TIP3    H131319   5.506   1.809   0.864 -0.2598  0.6978 -0.6643
 3228TIP3    H231320   5.399   1.712   0.819 -0.3615 -0.2035  1.4130
 3229TIP3   OH231321   3.398   5.991   7.062  0.0748 -0.3550  0.4708
 3229TIP3    H131322   3.362   5.903   7.079 -3.6825  1.0665  0.8916
 3229TIP3    H231323   3.357   6.017   6.980  1.2098  0.9948  0.3106
 3230TIP3   OH231324   4.447   3.452   1.614 -0.0362  0.2671  0.2237
 3230TIP3    H131325   4.528   3.417   1.651 -0.4643  1.3295  2.3104
 3230TIP3    H231326   4.473   3.531   1.567  0.2865 -0.1266 -0.2705
 3231TIP3   OH231327   3.718   1.945   7.178  0.3240 -0.2526  0.5498
 3231TIP3    H131328   3.662   1.889   7.124  1.4624 -1.7417  0.8609
 3231TIP3    H231329   3.798   1.894   7.191  0.6342  0.6449  2.4712
 3232TIP3   OH231330   4.663   0.856   0.854 -0.0311  0.3364  0.2950
 3232TIP3    H131331   4.713   0.790   0.902  0.7139  0.7539  0.1006
 3232TIP3    H231332   4.600   0.805   0.803  0.2947 -0.2088  0.4256
 3233TIP3   OH231333   5.503   5.899   8.042 -0.1981  0.2917  0.0087
 3233TIP3    H131334   5.584   5.919   7.997 -0.3232  2.0133  0.4585
 3233TIP3    H231335   5.505   5.955   8.120 -0.7228 -1.3976  1.2892
 3234TIP3   OH231336   1.415   6.994   1.684  0.0398 -0.5226 -0.8076
 3234TIP3    H131337   1.452   7.069   1.636 -1.0669 -1.0112 -2.5398
 3234TIP3    H231338   1.338   6.969   1.632 -2.8027  0.4393  2.5512
 3235TIP3   OH231339   4.763   4.477   7.735  0.4490  0.4338 -0.5952
 3235TIP3    H131340   4.784   4.425   7.659  1.7841  0.5645 -0.3381
 3235TIP3    H231341   4.810   4.560   7.722 -2.5119  2.1150 -1.5645
 3236TIP3   OH231342   0.932   1.269   0.651 -0.6577  0.0121 -0.3230
 3236TIP3    H131343   1.022   1.296   0.630 -1.1394  1.2860 -0.8342
 3236TIP3    H231344   0.933   1.174   0.642 -0.0192  0.1820 -3.0797
 3237TIP3   OH231345   5.279   0.104   8.090  0.6765  0.6591 -0.5669
 3237TIP3    H131346   5.312   0.015   8.095  0.0066  0.3571 -1.3198
 3237TIP3    H231347   5.343   0.151   8.036  0.6342  0.4492 -0.7969
 3238TIP3   OH231348   5.553   4.196   0.271  0.2510 -0.2575 -0.2739
 3238TIP3    H131349   5.580   4.228   0.357  1.9477 -1.4391 -0.3035
 3238TIP3    H231350   5.468   4.237   0.255  0.0737  0.2797  1.7897
 3239TIP3   OH231351   1.004   5.787   1.691  0.0737 -0.1194  0.0248
 3239TIP3    H131352   1.009   5.806   1.784 -1.7160  2.2742 -0.2798
 3239TIP3    H231353   0.918   5.746   1.680 -0.1255  0.4648 -0.6743
 3240TIP3   OH231354   1.393   6.190   0.608  0.8877  0.7126  0.0235
 3240TIP3    H131355   1.445   6.269   0.591 -0.6022  1.6886 -0.1310
 3240TIP3    H231356   1.447   6.119   0.572  1.7340  1.7735 -0.9166
 3241TIP3   OH231357   6.742   4.077   0.955  0.2493  0.2830 -0.0084
 3241TIP3    H131358   6.649   4.058   0.944  0.6758 -0.7600 -2.4753
 3241TIP3    H231359   6.769   4.023   1.029 -0.7806 -0.7102 -0.3268
 3242TIP3   OH231360   0.797   3.089   8.223  0.0737  0.6830  0.0402
 3242TIP3    H131361   0.819   3.163   8.167 -1.7877  2.2165  1.2073
 3242TIP3    H231362   0.744   3.127   8.293 -2.8853 -2.0332 -0.4957
 3243TIP3   OH231363   4.138   5.376   2.558 -0.3107  0.2718  0.4286
 3243TIP3    H131364   4.162   5.373   2.650  1.4258  1.8649  0.0589
 3243TIP3    H231365   4.126   5.468   2.538 -0.4749 -0.0271 -1.0000
 3244TIP3   OH231366   6.160   5.572   7.276  0.5212 -0.0292 -0.2124
 3244TIP3    H131367   6.202   5.550   7.359  1.2186  1.0504 -0.2625
 3244TIP3    H231368   6.164   5.668   7.272  1.0665 -0.0955 -1.7745
 3245TIP3   OH231369   3.704   1.799   0.971 -0.0309  0.1658 -0.6223
 3245TIP3    H131370   3.750   1.735   0.918 -0.8914  0.9223 -2.3680
 3245TIP3    H231371   3.767   1.870   0.983 -0.0470  0.2890 -1.2381
 3246TIP3   OH231372   0.710   6.791   1.831  0.3616  0.2737 -0.6070
 3246TIP3    H131373   0.709   6.735   1.909  0.5189  0.2730 -0.6050
 3246TIP3    H231374   0.775   6.858   1.851 -1.0491  1.4942  0.1202
 3247TIP3   OH231375   4.458   1.653   1.316  0.1805 -0.0756  0.5471
 3247TIP3    H131376   4.378   1.658   1.264  0.2565 -0.3396  0.4069
 3247TIP3    H231377   4.498   1.740   1.307 -1.1732  0.8082  2.3357
 3248TIP3   OH231378   4.859   6.254   1.638  0.4346 -0.0241 -0.2656
 3248TIP3    H131379   4.784   6.310   1.657 -0.2445 -0.8440 -0.4759
 3248TIP3    H231380   4.841   6.172   1.684  0.4773 -0.7629 -1.5131
 3249TIP3   OH231381   0.569   5.032   0.921 -0.0710 -0.2857  0.3502
 3249TIP3    H131382   0.655   4.995   0.941  0.7640  1.3130 -0.1290
 3249TIP3    H231383   0.574   5.123   0.951 -2.0153 -0.4457  1.3838
 3250TIP3   OH231384   6.255   6.127   1.749  0.5123 -0.1745 -0.0696
 3250TIP3    H131385   6.160   6.125   1.743  0.4234  0.7954  0.7621
 3250TIP3    H231386   6.277   6.064   1.817  0.3465  0.6781  0.7876
 3251TIP3   OH231387   2.251   6.332   0.067  0.1819  0.3059 -0.0501
 3251TIP3    H131388   2.256   6.346   0.162  0.5586 -0.0753 -0.0083
 3251TIP3    H231389   2.182   6.390   0.037  1.4272  1.9769  0.1675
 3252TIP3   OH231390   5.702   3.647   7.915 -0.1869  1.1546  0.0140
 3252TIP3    H131391   5.641   3.591   7.963  1.0116 -0.2108  0.0193
 3252TIP3    H231392   5.669   3.736   7.929 -0.3315  0.7716  2.7757
 3253TIP3   OH231393   5.430   3.905   7.649 -0.3807 -0.1545  0.9747
 3253TIP3    H131394   5.436   3.813   7.625 -0.3031  0.4098 -1.4215
 3253TIP3    H231395   5.507   3.945   7.608 -1.2460  1.2103  0.6186
 3254TIP3   OH231396   2.605   3.468   7.840 -0.2007  0.0159 -0.4207
 3254TIP3    H131397   2.566   3.429   7.918 -0.3264  0.1505 -0.4157
 3254TIP3    H231398   2.532   3.511   7.795 -0.1602 -0.2223 -0.7119
 3255TIP3   OH231399   0.605   3.490   7.549  0.1983  0.0966  0.3071
 3255TIP3    H131400   0.599   3.399   7.575  0.5716  0.5235  2.0168
 3255TIP3    H231401   0.519   3.527   7.568  0.3638  0.3305  0.6253
 3256TIP3   OH231402   1.771   1.929   0.651 -0.1334 -0.0927 -0.4906
 3256TIP3    H131403   1.708   1.945   0.581 -0.2831 -1.8724 -0.8024
 3256TIP3    H231404   1.856   1.944   0.609 -0.2699  1.1401 -0.3848
 3257TIP3   OH231405   4.815   1.922   2.071 -0.1237  0.4502  0.6707
 3257TIP3    H131406   4.738   1.937   2.125 -0.9460  0.5002 -0.4805
 3257TIP3    H231407   4.879   1.986   2.102 -1.1061  1.5050  0.5837
 3258TIP3   OH231408   2.660   4.312   2.212  0.5986  0.3815  0.6019
 3258TIP3    H131409   2.593   4.294   2.146 -0.1921 -2.3088  1.9846
 3258TIP3    H231410   2.609   4.332   2.291  1.3625 -1.4871  1.6221
 3259TIP3   OH231411   4.146   6.544   7.792 -0.3471  0.1682 -0.5049
 3259TIP3    H131412   4.067   6.515   7.839 -1.1796  0.7873 -1.4939
 3259TIP3    H231413   4.188   6.462   7.764 -1.2896 -0.1531 -1.0143
 3260TIP3   OH231414   5.752   3.141   7.972  0.5530  0.1202  0.0412
 3260TIP3    H131415   5.689   3.157   8.043 -0.3806  0.8015 -0.9008
 3260TIP3    H231416   5.712   3.071   7.920  0.7154  0.3435 -0.3914
 3261TIP3   OH231417   3.308   5.234   1.218  0.3231 -0.0153 -0.0569
 3261TIP3    H131418   3.287   5.173   1.290 -1.6618 -0.0970 -0.6347
 3261TIP3    H231419   3.300   5.180   1.139  0.0795  0.6304 -0.4768
 3262TIP3   OH231420   6.526   5.401   1.344 -0.3398  0.1262 -0.0672
 3262TIP3    H131421   6.440   5.399   1.385  0.6016 -0.2860  2.0400
 3262TIP3    H231422   6.551   5.309   1.335 -1.2374  0.0972 -3.3529
 3263TIP3   OH231423   6.111   0.093   7.984 -0.3083 -0.1837  0.5280
 3263TIP3    H131424   6.194   0.083   7.938 -0.4483 -0.2249  0.2845
 3263TIP3    H231425   6.132   0.071   8.075  0.0627  0.3307  0.5735
 3264TIP3   OH231426   4.091   0.921   7.854  0.1839  0.2216 -0.0069
 3264TIP3    H131427   4.028   0.853   7.878  1.7567 -0.6706  1.8907
 3264TIP3    H231428   4.125   0.893   7.769 -0.5817 -0.3004 -0.1566
 3265TIP3   OH231429   1.397   3.225   1.695 -0.9010 -0.3424  0.3648
 3265TIP3    H131430   1.402   3.148   1.637 -1.2069  0.0479 -0.1959
 3265TIP3    H231431   1.404   3.189   1.783  0.5751 -0.8627  0.0633
 3266TIP3   OH231432   0.404   2.651   1.715  0.4374  0.1252  0.5159
 3266TIP3    H131433   0.354   2.637   1.634 -0.0861  2.2661  0.4011
 3266TIP3    H231434   0.443   2.566   1.734 -1.4328 -1.0647 -0.6347
 3267TIP3   OH231435   6.432   2.583   8.130 -0.2826 -0.5235 -0.5017
 3267TIP3    H131436   6.428   2.557   8.038 -1.5207 -1.5543 -0.1911
 3267TIP3    H231437   6.352   2.547   8.169  0.2916 -0.2509  1.0182
 3268TIP3   OH231438   5.857   0.632   6.949  0.4548 -0.2845  0.7608
 3268TIP3    H131439   5.825   0.722   6.958  0.4854 -0.2165  0.1917
 3268TIP3    H231440   5.802   0.593   6.882  0.1412 -0.8396  1.3286
 3269TIP3   OH231441   4.104   1.816   7.124 -0.2966 -0.0104  0.2093
 3269TIP3    H131442   4.143   1.735   7.158 -0.2232  0.3543  1.0098
 3269TIP3    H231443   4.090   1.798   7.031  3.1483  0.3301 -0.5036
 3270TIP3   OH231444   0.819   2.183   1.250 -0.1614 -0.5039  0.3179
 3270TIP3    H131445   0.799   2.249   1.317 -0.1081  0.3118 -0.4374
 3270TIP3    H231446   0.768   2.211   1.173 -0.4739 -1.6027  0.1170
 3271TIP3   OH231447   0.357   3.354   8.201  0.4778  0.0738 -0.0717
 3271TIP3    H131448   0.296   3.336   8.272  0.2163 -0.0044 -0.3141
 3271TIP3    H231449   0.326   3.300   8.128  0.2205  0.8256 -0.5270
 3272TIP3   OH231450   0.073   7.053   6.913 -0.3919  0.7528  0.2612
 3272TIP3    H131451  -0.023   7.055   6.913 -0.4070  3.2334 -0.7095
 3272TIP3    H231452   0.095   6.980   6.855 -1.6453 -0.6644  1.4938
 3273TIP3   OH231453   3.129   1.686   7.601 -0.6509 -0.2461 -0.4294
 3273TIP3    H131454   3.140   1.751   7.531 -1.6917  0.3159 -0.0994
 3273TIP3    H231455   3.098   1.737   7.676  0.0019 -0.9173  0.3051
 3274TIP3   OH231456   6.824   3.939   0.324 -0.2498  0.6683 -0.7863
 3274TIP3    H131457   6.857   3.923   0.236 -3.4954 -0.7887 -1.8784
 3274TIP3    H231458   6.835   4.033   0.337  0.2226  0.9317 -2.7946
 3275TIP3   OH231459   1.602   5.957   1.867 -0.3553 -0.1124 -0.0458
 3275TIP3    H131460   1.581   5.941   1.959 -1.5453  4.2236  0.6924
 3275TIP3    H231461   1.517   5.955   1.823  0.0045 -0.5523 -0.7291
 3276TIP3   OH231462   2.421   0.386   1.013  0.3908  0.2541 -0.0685
 3276TIP3    H131463   2.482   0.320   0.980  1.5644  1.3736 -0.2290
 3276TIP3    H231464   2.372   0.341   1.082  1.0948 -0.8026 -0.2281
 3277TIP3   OH231465   1.710   2.951   0.763  0.0200  0.3685  0.1776
 3277TIP3    H131466   1.772   2.930   0.693 -1.4862 -1.3933 -0.6883
 3277TIP3    H231467   1.765   2.968   0.839  1.6087  0.1528 -0.8812
 3278TIP3   OH231468   2.652   2.184   8.095 -0.5267 -0.0561  0.5288
 3278TIP3    H131469   2.746   2.192   8.105 -0.2826 -0.4506 -1.0766
 3278TIP3    H231470   2.623   2.132   8.169  0.5854 -0.3235  0.7826
 3279TIP3   OH231471   0.539   5.389   1.745  0.3504 -0.5388  0.1042
 3279TIP3    H131472   0.551   5.458   1.810 -0.3514 -1.0306  0.7723
 3279TIP3    H231473   0.547   5.434   1.660  2.3939 -0.0805  0.4858
 3280TIP3   OH231474   0.694   1.914   2.348 -0.5538  0.3539  0.6202
 3280TIP3    H131475   0.713   2.001   2.384  0.0388  0.8959 -0.9455
 3280TIP3    H231476   0.684   1.929   2.254 -1.1950 -1.1612  0.4350
 3281TIP3   OH231477   6.172   4.163   3.361 -0.2416 -0.2203  0.3742
 3281TIP3    H131478   6.104   4.104   3.328  0.5980 -1.2162  0.3663
 3281TIP3    H231479   6.131   4.250   3.361 -0.6209 -0.3030 -2.3078
 3282TIP3   OH231480   3.393   3.571   2.185  0.3398 -0.1556 -0.2680
 3282TIP3    H131481   3.377   3.494   2.239  0.7145 -0.1125 -0.0899
 3282TIP3    H231482   3.437   3.633   2.243  1.3016 -0.3389 -0.7753
 3283TIP3   OH231483   1.182   2.808   0.389 -0.2801  0.1384 -0.3097
 3283TIP3    H131484   1.102   2.784   0.342  0.2676 -0.6914 -0.8462
 3283TIP3    H231485   1.246   2.828   0.320  0.0728  0.4809  0.1076
 3284TIP3   OH231486   5.517   6.032   6.957 -0.1230 -0.3372 -0.0997
 3284TIP3    H131487   5.603   6.043   6.999 -0.1934 -1.1000  0.2601
 3284TIP3    H231488   5.466   5.982   7.020 -0.0541 -1.9935 -1.3033
 3285TIP3   OH231489   3.153   0.119   0.748  0.0621  0.1180 -0.4512
 3285TIP3    H131490   3.238   0.160   0.731 -0.4199  1.6298  0.5018
 3285TIP3    H231491   3.153   0.040   0.694  2.2972 -0.2478 -0.0346
 3286TIP3   OH231492   0.675   1.834   8.137 -0.5442  0.7033 -1.0485
 3286TIP3    H131493   0.746   1.769   8.137 -1.6458 -0.8666  3.4773
 3286TIP3    H231494   0.719   1.917   8.156  0.3251  0.1981 -0.7717
 3287TIP3   OH231495   2.807   4.906   0.714  0.8204  0.4343 -0.0507
 3287TIP3    H131496   2.839   4.967   0.780 -0.7724 -0.5583  1.7766
 3287TIP3    H231497   2.843   4.821   0.740  1.6988  0.2969 -1.6022
 3288TIP3   OH231498   2.342   5.590   1.763 -0.4040  0.3709  0.1145
 3288TIP3    H131499   2.350   5.513   1.819 -0.8121  0.3552  0.1513
 3288TIP3    H231500   2.346   5.556   1.674  1.9517  0.5513  0.0883
 3289TIP3   OH231501   0.114   2.081   6.821  0.2951 -0.1122 -0.4710
 3289TIP3    H131502   0.169   2.075   6.743 -1.0779 -1.6441 -1.4005
 3289TIP3    H231503   0.027   2.053   6.791 -0.1270 -1.4358  1.7439
 3290TIP3   OH231504   4.934   1.453   0.975 -0.8453 -0.4069 -0.3156
 3290TIP3    H131505   4.884   1.506   1.037 -0.2477 -0.2676  0.0560
 3290TIP3    H231506   4.927   1.364   1.008  0.0078 -0.2498  0.3387
 3291TIP3   OH231507   5.660   1.944   0.164 -0.1779  0.3562 -0.4535
 3291TIP3    H131508   5.622   1.876   0.109 -2.7869  1.1000  0.2717
 3291TIP3    H231509   5.590   2.009   0.174  1.9683  2.8503 -0.5680
 3292TIP3   OH231510   6.236   3.978   1.697  0.7968 -0.3560  0.2846
 3292TIP3    H131511   6.314   3.927   1.674  0.8566  0.0385 -0.4050
 3292TIP3    H231512   6.221   4.034   1.621  0.9725  0.9676  1.1891
 3293TIP3   OH231513   2.388   1.702   8.095 -0.2357  0.1788 -0.2247
 3293TIP3    H131514   2.482   1.688   8.108 -0.0665  0.8088 -0.6952
 3293TIP3    H231515   2.372   1.676   8.005 -0.3734  0.7178 -0.3597
 3294TIP3   OH231516   4.757   3.551   2.656 -0.3311  0.1388  0.3846
 3294TIP3    H131517   4.801   3.630   2.625 -0.5419  1.0156  2.2151
 3294TIP3    H231518   4.815   3.480   2.630  0.7141  1.0324  0.1966
 3295TIP3   OH231519   0.216   0.374   7.989 -0.3339 -0.3201 -0.5296
 3295TIP3    H131520   0.222   0.282   8.013  0.7967 -0.3172 -0.7458
 3295TIP3    H231521   0.218   0.421   8.073  1.0566 -0.4178 -0.4934
 3296TIP3   OH231522   1.733   5.573   0.087 -0.6975  0.4285  0.1818
 3296TIP3    H131523   1.764   5.483   0.095 -1.1642  0.2993  0.5957
 3296TIP3    H231524   1.752   5.597  -0.003 -0.9345 -0.2284 -0.0518
 3297TIP3   OH231525   6.002   6.012   1.240  0.0921 -0.2319  0.4063
 3297TIP3    H131526   5.985   5.953   1.166  0.8664 -0.6276  0.5285
 3297TIP3    H231527   5.916   6.035   1.273 -0.2324 -1.0730  0.1715
 3298TIP3   OH231528   5.257   2.214   0.471 -0.2419 -0.6490  0.1922
 3298TIP3    H131529   5.328   2.232   0.409 -0.2781 -1.7468 -0.1894
 3298TIP3    H231530   5.271   2.124   0.499 -0.5053 -0.3222  1.4416
 3299TIP3   OH231531   1.559   6.100   8.038  0.4005 -0.2293  0.1945
 3299TIP3    H131532   1.610   6.087   7.958  1.2566 -2.6535  1.0424
 3299TIP3    H231533   1.468   6.086   8.011  0.8436 -3.5812 -0.0293
 3300TIP3   OH231534   3.099   0.060   1.781 -0.2536  0.4859 -0.7712
 3300TIP3    H131535   3.149   0.104   1.850 -1.4242 -0.0311  0.4538
 3300TIP3    H231536   3.161  -0.000   1.742  0.4913  0.9165 -0.2843
 3301TIP3   OH231537   5.514   0.738   8.114  0.7045  0.2457 -0.7202
 3301TIP3    H131538   5.424   0.756   8.140  0.3654 -0.3073 -1.4715
 3301TIP3    H231539   5.563   0.737   8.196  0.0593  0.7110 -0.3230
 3302TIP3   OH231540   4.382   6.529   0.740 -0.2787  0.1716 -0.1346
 3302TIP3    H131541   4.412   6.464   0.677 -0.5983  0.3843 -0.5063
 3302TIP3    H231542   4.291   6.505   0.759 -0.5035  0.6978 -0.5227
 3303TIP3   OH231543   3.425   6.606   7.574 -0.3226  0.3736 -0.6394
 3303TIP3    H131544   3.364   6.678   7.557  0.3566  1.0173 -0.3965
 3303TIP3    H231545   3.398   6.537   7.513  0.7184  1.8486 -2.9000
 3304TIP3   OH231546   3.625   6.083   0.338 -0.1171 -0.4706 -0.0006
 3304TIP3    H131547   3.564   6.148   0.304  0.3098 -1.0684 -2.0258
 3304TIP3    H231548   3.693   6.134   0.382 -0.1111  0.4242 -1.0074
 3305TIP3   OH231549   5.845   4.134   0.262 -0.3428 -0.2254 -0.3138
 3305TIP3    H131550   5.751   4.116   0.251 -0.5272  1.1125 -1.0071
 3305TIP3    H231551   5.888   4.066   0.211 -0.9053 -1.0259  0.2338
 3306TIP3   OH231552   5.747   2.113   0.427  0.0006 -0.0559  0.3202
 3306TIP3    H131553   5.666   2.164   0.418 -0.3636 -0.7470 -0.5932
 3306TIP3    H231554   5.721   2.036   0.477  0.0333 -0.3979 -0.1857
 3307TIP3   OH231555   1.504   6.780   1.378  0.0488 -0.6374  0.6543
 3307TIP3    H131556   1.524   6.755   1.288  1.0057  1.6593  0.1426
 3307TIP3    H231557   1.562   6.727   1.432 -0.0857 -1.5783 -0.0961
 3308TIP3   OH231558   2.186   2.580   1.808  0.0563 -0.5301  0.1543
 3308TIP3    H131559   2.169   2.486   1.809 -2.9270 -0.0754  2.0193
 3308TIP3    H231560   2.223   2.599   1.894  0.0785  0.1041  0.0128
 3309TIP3   OH231561   2.846   5.566   7.242  0.4419 -0.0630  0.0370
 3309TIP3    H131562   2.791   5.554   7.165  1.8647  0.5017 -1.1316
 3309TIP3    H231563   2.797   5.527   7.314 -1.9087  1.3041 -0.7249
 3310TIP3   OH231564   1.486   0.645   1.178 -0.6325 -0.0123  0.6445
 3310TIP3    H131565   1.494   0.634   1.083 -0.6309  1.9031  0.3822
 3310TIP3    H231566   1.546   0.716   1.199 -2.2464  1.0934  1.7466
 3311TIP3   OH231567   0.742   6.061   1.399  0.1256  0.3794 -0.0230
 3311TIP3    H131568   0.795   6.131   1.436 -0.3560  0.4241  0.5889
 3311TIP3    H231569   0.723   6.089   1.309 -0.2504  1.1408  0.2908
 3312TIP3   OH231570   4.503   0.158   7.661  0.1599  0.0996  0.1645
 3312TIP3    H131571   4.437   0.225   7.677 -0.6214 -0.6753  0.2672
 3312TIP3    H231572   4.459   0.093   7.606  0.0042 -1.6953  2.3047
 3313TIP3   OH231573   2.266   0.271   1.726 -0.1934 -0.1606  0.9216
 3313TIP3    H131574   2.273   0.296   1.634  2.0300 -0.5109  0.9453
 3313TIP3    H231575   2.174   0.283   1.747 -0.4840  1.3403 -0.9434
 3314TIP3   OH231576   6.995   6.660   6.902 -0.0028 -0.1866 -0.7935
 3314TIP3    H131577   6.941   6.686   6.827 -2.3994  1.6495  1.3825
 3314TIP3    H231578   6.978   6.567   6.913 -0.5991 -0.2039 -1.7676
 3315TIP3   OH231579   2.179   6.609   7.749 -0.5828 -0.0301  0.6793
 3315TIP3    H131580   2.190   6.703   7.766 -1.0991  1.4833 -5.0688
 3315TIP3    H231581   2.269   6.575   7.747  0.0490  1.5051 -1.2924
 3316TIP3   OH231582   6.882   0.152   1.408 -0.2390  0.2981 -0.2472
 3316TIP3    H131583   6.921   0.079   1.360 -0.8105 -0.2945  0.1725
 3316TIP3    H231584   6.804   0.175   1.357  0.3668  1.1524 -0.8140
 3317TIP3   OH231585   6.412   2.590   7.442  0.1392 -0.1475  0.1553
 3317TIP3    H131586   6.334   2.629   7.404 -0.3178 -1.9338 -0.8704
 3317TIP3    H231587   6.463   2.664   7.473 -0.4689  1.3069 -2.0457
 3318TIP3   OH231588   7.067   6.900   1.444  0.7057  0.3271  0.1618
 3318TIP3    H131589   7.006   6.842   1.490  0.6984  1.8007  2.1190
 3318TIP3    H231590   7.124   6.934   1.513  3.9391 -1.1266 -1.5885
 3319TIP3   OH231591   4.432   4.639   7.843 -0.2501 -0.0412 -0.2782
 3319TIP3    H131592   4.402   4.727   7.823 -0.9573 -0.0241  0.7358
 3319TIP3    H231593   4.437   4.595   7.759 -0.3679  0.8215 -0.7465
 3320TIP3   OH231594   2.960   6.913   0.275 -0.7711 -0.7129  0.3670
 3320TIP3    H131595   3.020   6.973   0.230 -0.7264  0.0774  1.4289
 3320TIP3    H231596   2.873   6.940   0.246 -0.7469 -0.1572  0.7996
 3321TIP3   OH231597   6.968   3.758   1.601 -0.0796 -0.6015  0.2481
 3321TIP3    H131598   7.001   3.678   1.644  0.8828 -0.4413 -0.1690
 3321TIP3    H231599   6.948   3.731   1.512 -0.4284 -0.5282  0.3009
 3322TIP3   OH231600   0.927   5.375   0.067  0.1919  0.3076 -0.0204
 3322TIP3    H131601   0.900   5.342  -0.019  0.1206  0.0494  0.0995
 3322TIP3    H231602   0.877   5.456   0.078  0.3211  0.4266 -0.2903
 3323TIP3   OH231603   0.481   3.424   1.460 -0.1461 -0.1828  0.0687
 3323TIP3    H131604   0.462   3.367   1.386  1.6196  0.9043 -1.3076
 3323TIP3    H231605   0.562   3.390   1.496  0.2528  0.6864  0.0127
 3324TIP3   OH231606   4.213   3.960   7.640 -0.1969 -0.0640  0.0808
 3324TIP3    H131607   4.181   4.036   7.591  0.0863  0.6453  0.9743
 3324TIP3    H231608   4.303   3.950   7.612 -0.5667 -0.8005 -0.9022
 3325TIP3   OH231609   6.811   0.560   6.275 -0.1411  0.3323  0.3094
 3325TIP3    H131610   6.861   0.599   6.346  0.4296  0.5768 -0.2156
 3325TIP3    H231611   6.732   0.527   6.317 -0.5097  1.7780  0.8345
 3326TIP3   OH231612   2.835   3.242   7.101  0.0419  0.2139 -0.2773
 3326TIP3    H131613   2.890   3.210   7.031  0.1551 -1.6494  0.5913
 3326TIP3    H231614   2.756   3.274   7.057  0.8701  0.8639 -1.3497
 3327TIP3   OH231615   6.288   1.871   0.877  0.0196  0.0970 -0.2637
 3327TIP3    H131616   6.215   1.876   0.939 -0.7369 -2.6051 -0.7989
 3327TIP3    H231617   6.365   1.860   0.932 -0.1550  1.2682  0.2564
 3328TIP3   OH231618   5.008   3.729   0.369  0.4255  0.3788 -0.2238
 3328TIP3    H131619   4.925   3.746   0.414 -0.4093  2.0005 -2.2107
 3328TIP3    H231620   5.072   3.781   0.417 -0.0301  0.4479  0.3228
 3329TIP3   OH231621   2.835   5.111   7.553 -0.0120  0.2349 -0.0146
 3329TIP3    H131622   2.797   5.198   7.537 -1.7566 -0.1002  1.8504
 3329TIP3    H231623   2.926   5.129   7.575 -0.3593  1.6340  0.4202
 3330TIP3   OH231624   0.969   2.923   7.872  0.0535  0.1396  0.3920
 3330TIP3    H131625   1.017   2.997   7.837 -1.3673  1.4883  1.1339
 3330TIP3    H231626   1.019   2.896   7.950  0.3466  0.6079  0.3663
 3331TIP3   OH231627   1.054   5.379   7.245 -0.1483  0.5407  0.0047
 3331TIP3    H131628   1.120   5.318   7.278  1.0813  0.7047 -1.9554
 3331TIP3    H231629   1.099   5.427   7.175 -2.2653  0.8560 -1.2251
 3332TIP3   OH231630   4.614   5.693   7.955  0.1079 -0.3456  0.7990
 3332TIP3    H131631   4.645   5.783   7.964  0.0293  0.2597 -3.2936
 3332TIP3    H231632   4.692   5.640   7.972  1.5777  0.8149 -1.7996
 3333TIP3   OH231633   1.814   1.758   6.792 -0.2276  0.0391 -0.1540
 3333TIP3    H131634   1.726   1.721   6.782 -0.6761  1.3618 -1.5550
 3333TIP3    H231635   1.804   1.826   6.858  0.0937 -0.7793  0.7593
 3334TIP3   OH231636   6.227   1.592   1.436 -0.5160  0.6793  0.3764
 3334TIP3    H131637   6.143   1.599   1.391 -0.0065  0.6832 -0.5980
 3334TIP3    H231638   6.223   1.660   1.504 -2.0218 -0.5292  1.5942
 3335TIP3   OH231639   2.523   7.025   7.506 -0.0888  0.4383  0.4009
 3335TIP3    H131640   2.599   7.051   7.558  0.5043  1.0501 -0.7242
 3335TIP3    H231641   2.451   7.019   7.570  0.2843  2.5417  1.1193
 3336TIP3   OH231642   2.518   0.107   6.314 -0.4037  0.1099 -0.5538
 3336TIP3    H131643   2.546   0.041   6.251 -0.1400 -0.4659  0.1509
 3336TIP3    H231644   2.460   0.060   6.374  0.9773  0.1165  0.8614
 3337TIP3   OH231645   6.009   4.518   7.496 -0.2633  0.3711  0.4301
 3337TIP3    H131646   6.085   4.460   7.492 -0.4337  0.2261 -1.2161
 3337TIP3    H231647   6.001   4.541   7.589  1.2265 -0.3423  0.7556
 3338TIP3   OH231648   6.736   6.805   2.478  0.5843 -0.4020  0.6782
 3338TIP3    H131649   6.826   6.832   2.497  0.2908 -0.1394  1.7591
 3338TIP3    H231650   6.745   6.718   2.438  1.2933 -0.6226  1.2930
 3339TIP3   OH231651   5.263   3.271   7.936 -0.5574  0.1399 -0.2131
 3339TIP3    H131652   5.181   3.306   7.972 -0.6321  0.4574 -0.6822
 3339TIP3    H231653   5.319   3.259   8.013 -1.6116 -1.7071  0.3551
 3340TIP3   OH231654   5.268   3.493   1.864 -0.2621 -0.1324 -1.0996
 3340TIP3    H131655   5.298   3.506   1.954 -0.1686 -1.5633 -0.9095
 3340TIP3    H231656   5.173   3.492   1.871 -0.3355  1.7588 -1.3283
 3341TIP3   OH231657   0.856   5.816   0.604 -0.4107  0.2047  0.4015
 3341TIP3    H131658   0.904   5.756   0.547 -2.2176 -0.0456 -0.9349
 3341TIP3    H231659   0.918   5.837   0.674  1.5911 -0.1491 -1.1758
 3342TIP3   OH231660   1.989   6.276   7.825  0.0100 -0.1814  0.5340
 3342TIP3    H131661   1.974   6.205   7.763 -0.5035  0.6241 -0.2974
 3342TIP3    H231662   2.081   6.299   7.814 -0.2972  0.5846 -0.6583
 3343TIP3   OH231663   4.547   4.982   0.125  0.5268  0.4526  0.1000
 3343TIP3    H131664   4.472   4.936   0.161  0.5344  0.4201  0.0749
 3343TIP3    H231665   4.534   4.980   0.031 -0.4061  2.0771  0.1443
 3344TIP3   OH231666   6.169   3.669   1.758  0.4890 -0.0050  0.1861
 3344TIP3    H131667   6.182   3.677   1.664 -0.6412  1.7345  0.1246
 3344TIP3    H231668   6.074   3.663   1.768  0.6680 -2.7124  1.1105
 3345TIP3   OH231669   6.150   2.533   8.148  0.3807  0.3295  0.0510
 3345TIP3    H131670   6.097   2.461   8.113  0.8509 -1.0956  2.0372
 3345TIP3    H231671   6.137   2.528   8.242  1.1300  2.3514  0.3085
 3346TIP3   OH231672   1.801   2.873   6.872 -0.1585  0.2645 -0.0149
 3346TIP3    H131673   1.709   2.855   6.854  0.5102 -3.4016 -0.6875
 3346TIP3    H231674   1.822   2.818   6.948  1.6430  0.4104 -0.3455
 3347TIP3   OH231675   2.442   0.980   1.318  0.2110 -0.3353 -0.5058
 3347TIP3    H131676   2.359   0.934   1.326 -0.7325  1.4336  0.7114
 3347TIP3    H231677   2.491   0.957   1.397 -0.9293  1.8234  0.9555
 3348TIP3   OH231678   3.450   1.180   6.974  0.3830 -0.0194 -0.4148
 3348TIP3    H131679   3.446   1.098   6.925  2.7486 -0.2497 -0.3229
 3348TIP3    H231680   3.489   1.242   6.913 -2.0119  1.3113 -0.7234
 3349TIP3   OH231681   3.260   1.442   7.693 -0.5026 -0.1429 -0.2840
 3349TIP3    H131682   3.242   1.428   7.786  0.0740 -0.2953 -0.1941
 3349TIP3    H231683   3.214   1.524   7.672 -1.7593 -0.7989 -0.2005
 3350TIP3   OH231684   0.184   0.082   7.695  0.1843  0.6056  0.0143
 3350TIP3    H131685   0.261   0.126   7.730  0.3059 -1.5226  2.7784
 3350TIP3    H231686   0.212  -0.009   7.682 -1.3112  0.2358 -0.8229
 3351TIP3   OH231687   2.078   4.757   7.512 -0.2690  0.0332 -0.6300
 3351TIP3    H131688   2.163   4.748   7.469 -0.8273  2.4755 -2.4766
 3351TIP3    H231689   2.099   4.785   7.601  0.8981 -4.6105  0.8338
 3352TIP3   OH231690   5.432   1.250   7.795 -0.3818  0.1119 -0.0140
 3352TIP3    H131691   5.492   1.181   7.767  0.5501  0.8664  0.0924
 3352TIP3    H231692   5.435   1.246   7.891  0.7852  1.2190  0.0176
 3353TIP3   OH231693   3.545   2.680   1.068  0.2921 -0.2064  0.2976
 3353TIP3    H131694   3.492   2.759   1.075 -0.1813 -0.6125  1.5591
 3353TIP3    H231695   3.625   2.708   1.025 -0.8643  0.4519 -1.5147
 3354TIP3   OH231696   5.881   3.495   1.782  0.6932 -0.4730 -0.1792
 3354TIP3    H131697   5.870   3.423   1.844  1.6602 -0.1742  0.3668
 3354TIP3    H231698   5.862   3.574   1.833  1.2012 -0.2462 -0.3270
 3355TIP3   OH231699   5.973   2.019   6.505 -0.4571 -0.3452 -0.2965
 3355TIP3    H131700   5.993   2.099   6.554  0.9047 -0.0071 -1.3421
 3355TIP3    H231701   5.878   2.023   6.491 -0.5326  0.6647  0.3687
 3356TIP3   OH231702   2.720   1.747   1.548 -0.4736  0.1214 -0.1635
 3356TIP3    H131703   2.680   1.828   1.580 -0.0069  0.4805 -0.4810
 3356TIP3    H231704   2.731   1.693   1.627 -0.0216  0.6975  0.1699
 3357TIP3   OH231705   3.079   0.106   6.868 -0.8297 -0.0355  0.1321
 3357TIP3    H131706   3.125   0.109   6.784 -0.7545  0.6658  0.1950
 3357TIP3    H231707   3.020   0.031   6.860 -0.8618  0.0593 -0.5689
 3358TIP3   OH231708   2.497   6.045   2.277 -0.1482  0.0487  0.3279
 3358TIP3    H131709   2.550   6.017   2.203 -0.3248  0.0100  0.2187
 3358TIP3    H231710   2.458   6.128   2.249 -1.4321 -0.7205 -0.1923
 3359TIP3   OH231711   1.983   3.391   2.436 -0.1412  0.0422 -0.0814
 3359TIP3    H131712   2.046   3.463   2.443  0.2950 -0.4044  0.7641
 3359TIP3    H231713   1.900   3.428   2.468 -0.1113  0.3986 -0.4166
 3360TIP3   OH231714   2.427   6.235   7.983  0.1943 -0.0186  0.2050
 3360TIP3    H131715   2.471   6.170   7.929  0.9903  0.0925  0.7027
 3360TIP3    H231716   2.498   6.279   8.031 -0.4664  0.0168  1.1954
 3361TIP3   OH231717   3.179   3.968   6.658  0.2119 -0.1265 -0.0993
 3361TIP3    H131718   3.090   3.966   6.694 -0.4908 -1.0316 -1.7972
 3361TIP3    H231719   3.209   3.877   6.664  1.1348  0.2082  0.6534
 3362TIP3   OH231720   0.149   5.664   1.044  0.1121 -0.1485 -0.0071
 3362TIP3    H131721   0.209   5.597   1.009  0.2891  0.0938 -0.1729
 3362TIP3    H231722   0.201   5.713   1.107  0.1086  0.1045 -0.1990
 3363TIP3   OH231723   3.016   5.496   6.578  0.1087  0.6249  0.0191
 3363TIP3    H131724   3.106   5.517   6.600  0.2104  1.5815 -1.1969
 3363TIP3    H231725   2.995   5.420   6.633  1.9712 -0.2459 -0.3764
 3364TIP3   OH231726   4.958   2.110   0.222  0.0504  0.0637  0.2958
 3364TIP3    H131727   4.875   2.119   0.175 -0.0935 -0.2143  0.4960
 3364TIP3    H231728   5.023   2.102   0.152 -0.1239 -0.0074  0.1385
 3365TIP3   OH231729   0.853   3.822   7.296 -0.4108  0.2576  0.0633
 3365TIP3    H131730   0.811   3.737   7.309  0.5674 -0.4794 -1.3436
 3365TIP3    H231731   0.832   3.845   7.206  0.0132  1.1340  0.1841
 3366TIP3   OH231732   1.563   4.248   1.566 -0.5869  0.7783  0.4272
 3366TIP3    H131733   1.532   4.260   1.476 -1.0755  0.0533  0.4875
 3366TIP3    H231734   1.509   4.177   1.600 -0.1159  0.7644  1.1589
 3367TIP3   OH231735   2.664   3.690   1.424  0.3170  0.4513  0.6827
 3367TIP3    H131736   2.699   3.624   1.485  0.7843 -0.2454 -0.3025
 3367TIP3    H231737   2.741   3.718   1.373 -0.6167 -2.2150 -2.5842
 3368TIP3   OH231738   4.983   2.809   1.741 -0.1736 -0.6415 -0.5014
 3368TIP3    H131739   4.932   2.796   1.661 -0.8925 -1.3439  0.0507
 3368TIP3    H231740   5.072   2.782   1.718 -0.3689 -0.8019 -1.0766
 3369TIP3   OH231741   6.177   3.311   7.817  0.0625  0.6125  0.1852
 3369TIP3    H131742   6.149   3.220   7.827  1.2775  0.0491 -1.1563
 3369TIP3    H231743   6.098   3.359   7.795 -0.2972 -0.4591 -0.9462
 3370TIP3   OH231744   4.818   3.019   1.559 -0.5869 -0.2158  0.4174
 3370TIP3    H131745   4.848   2.929   1.556 -0.2941 -0.3256  3.4894
 3370TIP3    H231746   4.753   3.025   1.490  0.8580 -2.1630 -1.2196
 3371TIP3   OH231747   4.971   2.453   0.059 -0.0679 -0.0432  0.5831
 3371TIP3    H131748   5.066   2.453   0.073 -0.2093 -0.2445  1.5743
 3371TIP3    H231749   4.958   2.515  -0.013  0.8925 -0.6317 -0.1274
 3372TIP3   OH231750   0.376   1.139   6.386 -0.4247  0.1568  0.0885
 3372TIP3    H131751   0.297   1.190   6.402 -0.3425  1.2895 -2.5390
 3372TIP3    H231752   0.350   1.074   6.320  0.4387 -0.5773  0.4505
 3373TIP3   OH231753   6.750   5.490   1.547 -0.2752  0.3372  0.2359
 3373TIP3    H131754   6.794   5.573   1.528 -1.2570  1.0962  1.1507
 3373TIP3    H231755   6.821   5.426   1.555  0.6883  1.5432  1.7762
 3374TIP3   OH231756   6.964   1.745   0.816  0.5137 -0.5067  0.0703
 3374TIP3    H131757   6.955   1.699   0.732 -1.2981 -1.0266  0.5009
 3374TIP3    H231758   7.054   1.726   0.844  1.6680  0.8574 -2.3689
 3375TIP3   OH231759   3.954   5.693   7.854  0.1395 -0.0395 -0.1029
 3375TIP3    H131760   3.985   5.780   7.831  0.9766 -0.0975  0.7864
 3375TIP3    H231761   3.884   5.675   7.791  0.7344  0.8008 -1.0143
 3376TIP3   OH231762   4.050   3.415   7.752 -0.4654  0.4819  0.1434
 3376TIP3    H131763   4.052   3.506   7.724  1.4822  0.9117  1.5163
 3376TIP3    H231764   4.128   3.404   7.805  1.1619 -2.8095 -2.5371
 3377TIP3   OH231765   5.216   5.123   1.930  0.2793  0.2833  0.0286
 3377TIP3    H131766   5.255   5.057   1.988  1.0536  0.3923 -0.3418
 3377TIP3    H231767   5.224   5.205   1.978  3.0950  0.7936 -1.0962
 3378TIP3   OH231768   7.044   0.773   0.716  1.2009 -0.2413 -0.4891
 3378TIP3    H131769   7.069   0.691   0.757  0.1492 -0.6115 -0.5677
 3378TIP3    H231770   6.951   0.763   0.696  0.9425  1.1518 -0.0648
 3379TIP3   OH231771   4.854   5.588   8.056 -0.5602  0.4187 -0.2100
 3379TIP3    H131772   4.858   5.552   8.145 -1.8784  0.2347 -0.2025
 3379TIP3    H231773   4.928   5.549   8.010 -0.2311  0.0367  0.6364
 3380TIP3   OH231774   4.280   4.589   1.337 -0.6311  0.5668  0.3431
 3380TIP3    H131775   4.295   4.501   1.369 -0.1170  0.0365 -1.2661
 3380TIP3    H231776   4.201   4.582   1.283 -1.1759  1.3162  1.0185
 3381TIP3   OH231777   5.546   2.631   0.833  0.3321 -0.0763  0.3411
 3381TIP3    H131778   5.577   2.715   0.802  0.1876 -0.0044  0.3913
 3381TIP3    H231779   5.610   2.605   0.900  0.1404  0.1970  0.6351
 3382TIP3   OH231780   4.299   4.488   1.983 -0.1595  0.0450  0.1883
 3382TIP3    H131781   4.301   4.540   2.064  1.8987 -1.2076  1.0209
 3382TIP3    H231782   4.371   4.522   1.931  0.5529 -1.2502  0.2974
 3383TIP3   OH231783   0.542   4.324   2.810 -0.4796 -0.2206  0.1690
 3383TIP3    H131784   0.630   4.342   2.843 -0.6619  1.0335 -0.0111
 3383TIP3    H231785   0.553   4.247   2.754  1.1039  1.6315 -2.2790
 3384TIP3   OH231786   2.700   2.145   1.785 -0.6493 -0.1417  0.3731
 3384TIP3    H131787   2.734   2.066   1.827 -0.2493 -0.2241 -0.0992
 3384TIP3    H231788   2.677   2.203   1.858  0.4280 -0.1170  0.7121
 3385TIP3   OH231789   4.188   1.805   1.865 -0.7887 -0.4658 -0.3841
 3385TIP3    H131790   4.249   1.784   1.936 -3.0303 -1.2917  1.4125
 3385TIP3    H231791   4.224   1.760   1.788  0.4691 -1.5209  0.7809
 3386TIP3   OH231792   2.040   3.029   1.933 -0.0355  0.0636 -0.0194
 3386TIP3    H131793   2.060   3.034   2.026  2.0615 -0.8934 -0.3480
 3386TIP3    H231794   2.099   3.093   1.892 -0.5237  0.0703 -0.7308
 3387TIP3   OH231795   2.599   1.694   1.007  0.5955 -0.0579  0.3225
 3387TIP3    H131796   2.535   1.697   0.937  1.0121  2.4381 -0.0765
 3387TIP3    H231797   2.659   1.624   0.983 -1.9915 -2.5846  0.8124
 3388TIP3   OH231798   1.771   1.356   7.942  0.8482 -0.0301 -0.0170
 3388TIP3    H131799   1.781   1.412   7.865  1.4684 -0.6162 -0.3746
 3388TIP3    H231800   1.838   1.388   8.003  0.1462  0.6412  0.4164
 3389TIP3   OH231801   1.150   4.484   0.978  0.3367 -0.4105  1.4437
 3389TIP3    H131802   1.055   4.484   0.963  0.4192 -1.2499  0.8378
 3389TIP3    H231803   1.160   4.517   1.068 -0.3200  2.8521  0.4765
 3390TIP3   OH231804   2.843   2.922   8.079 -0.7712 -0.1859 -0.0922
 3390TIP3    H131805   2.798   2.850   8.034  0.4869 -0.7489 -0.5126
 3390TIP3    H231806   2.936   2.901   8.070 -0.1275  2.8404 -2.6764
 3391TIP3   OH231807   4.010   2.060   2.727 -0.1927 -0.0197 -0.5621
 3391TIP3    H131808   3.923   2.086   2.757 -0.0898 -0.8595  0.5352
 3391TIP3    H231809   4.010   2.078   2.633 -0.5484  2.6974 -0.1229
 3392TIP3   OH231810   0.186   1.692   0.252  0.7231 -0.0259 -0.2611
 3392TIP3    H131811   0.099   1.691   0.212  0.2692  2.6827  0.4321
 3392TIP3    H231812   0.185   1.620   0.315 -0.7550 -0.4897 -0.7721
 3393TIP3   OH231813   5.075   4.239   0.869 -0.3520  0.2503 -0.1371
 3393TIP3    H131814   5.056   4.173   0.936  2.0270 -1.0990 -0.6866
 3393TIP3    H231815   5.043   4.200   0.788 -1.6182  1.1182 -0.0891
 3394TIP3   OH231816   4.127   4.541   8.081 -0.1406  0.5540  0.5607
 3394TIP3    H131817   4.048   4.505   8.041  0.4504  1.3584 -1.4357
 3394TIP3    H231818   4.195   4.475   8.063  0.1527  0.9714  0.1260
 3395TIP3   OH231819   3.257   0.759   0.304 -0.0155  0.2842 -0.4048
 3395TIP3    H131820   3.222   0.670   0.308  0.3057  0.1904  0.6215
 3395TIP3    H231821   3.237   0.789   0.215 -0.7211 -0.5679 -0.5470
 3396TIP3   OH231822   5.461   0.946   0.769 -0.1892  0.3735  0.1921
 3396TIP3    H131823   5.462   1.023   0.825  1.0397 -1.0898  2.3665
 3396TIP3    H231824   5.477   0.873   0.829  0.0526 -1.4423 -1.9413
 3397TIP3   OH231825   4.426   4.850   1.870 -0.2955  0.0535 -0.1118
 3397TIP3    H131826   4.447   4.761   1.897 -1.0608 -0.3872 -0.9150
 3397TIP3    H231827   4.464   4.859   1.782  1.1193  1.0573  0.5660
 3398TIP3   OH231828   3.078   3.303   8.108  0.5656 -0.5712 -0.0373
 3398TIP3    H131829   3.083   3.223   8.056  2.5638 -0.9721  0.6759
 3398TIP3    H231830   3.089   3.374   8.045 -0.4909 -0.8658 -0.5747
 3399TIP3   OH231831   5.327   0.139   2.681  0.5097  0.1540  0.2628
 3399TIP3    H131832   5.264   0.068   2.673  1.0735 -0.2781 -0.5064
 3399TIP3    H231833   5.285   0.214   2.639  1.1699 -0.5964 -1.8584
 3400TIP3   OH231834   1.385   2.325   7.699  0.7772 -0.1685 -0.5689
 3400TIP3    H131835   1.302   2.295   7.661  0.8717  0.1212 -1.0033
 3400TIP3    H231836   1.393   2.416   7.671  2.3893 -0.8402 -2.5094
 3401TIP3   OH231837   5.577   3.961   6.642 -0.0682 -0.4728  0.2660
 3401TIP3    H131838   5.509   3.918   6.693 -0.1877 -2.7153 -1.6268
 3401TIP3    H231839   5.629   3.889   6.607  1.8308  1.1033 -0.3186
 3402TIP3   OH231840   3.443   6.874   7.315 -0.0756  0.0181  0.0298
 3402TIP3    H131841   3.474   6.945   7.258 -0.1819 -0.4675 -0.6433
 3402TIP3    H231842   3.348   6.875   7.303 -0.0707 -0.2816 -0.0395
 3403TIP3   OH231843   4.300   6.648   7.351  0.4630 -0.7370 -0.4751
 3403TIP3    H131844   4.364   6.708   7.390  0.8322 -1.0662 -0.5608
 3403TIP3    H231845   4.250   6.702   7.290 -0.6960 -0.0153  1.0574
 3404TIP3   OH231846   4.365   5.780   6.246  0.0239  0.0123 -0.2006
 3404TIP3    H131847   4.447   5.767   6.199 -0.0713 -3.5827  0.3915
 3404TIP3    H231848   4.386   5.762   6.337 -0.8375  2.1561  0.4998
 3405TIP3   OH231849   1.889   7.027   7.227  0.3149  0.8279  1.1708
 3405TIP3    H131850   1.917   6.957   7.167  0.2345  0.7366  1.2391
 3405TIP3    H231851   1.969   7.077   7.244  0.1223  1.5002  0.1469
 3406TIP3   OH231852   7.004   1.607   0.581 -0.1119  0.1635  0.2244
 3406TIP3    H131853   7.099   1.601   0.593 -0.2887  0.3456  1.9594
 3406TIP3    H231854   6.973   1.517   0.595 -0.2038  0.1008 -0.3615
 3407TIP3   OH231855   3.368   4.630   7.723 -0.1230 -0.3266 -0.5339
 3407TIP3    H131856   3.324   4.552   7.688  3.1420 -1.7412 -1.9550
 3407TIP3    H231857   3.380   4.612   7.816 -1.9031 -0.1559 -0.2386
 3408TIP3   OH231858   3.008   2.804   2.041 -0.0884 -0.4633  0.2432
 3408TIP3    H131859   2.985   2.761   1.959 -0.3904  1.2325 -0.6087
 3408TIP3    H231860   2.935   2.863   2.058  0.7559  0.4323  0.8391
 3409TIP3   OH231861   2.777   4.773   2.138  0.3977 -0.4195  0.4863
 3409TIP3    H131862   2.799   4.856   2.181  0.0709 -0.3701  0.5573
 3409TIP3    H231863   2.704   4.738   2.189 -0.6935  0.1382 -0.6356
 3410TIP3   OH231864   3.457   3.535   0.591  0.7528 -0.1454  0.0568
 3410TIP3    H131865   3.479   3.625   0.614 -1.5114  0.2822  0.8745
 3410TIP3    H231866   3.381   3.514   0.646 -0.0181 -1.8587 -1.5211
 3411TIP3   OH231867   3.566   2.349   1.460  0.0941 -0.2058 -0.4314
 3411TIP3    H131868   3.488   2.349   1.515 -0.3187 -0.1691 -1.0094
 3411TIP3    H231869   3.580   2.442   1.438 -1.2047 -0.4164 -2.4062
 3412TIP3   OH231870   4.479   0.288   1.224  0.0789  0.0877 -0.0265
 3412TIP3    H131871   4.464   0.364   1.279 -1.4118 -0.4930  0.4384
 3412TIP3    H231872   4.514   0.221   1.284  0.1460  0.0057 -0.1556
 3413TIP3   OH231873   1.189   6.303   7.016  0.1242  0.1667 -0.1772
 3413TIP3    H131874   1.193   6.259   6.931  0.1194 -1.3896  0.5794
 3413TIP3    H231875   1.262   6.266   7.066 -2.0503 -1.8857  1.7580
 3414TIP3   OH231876   4.758   6.723   1.295 -0.3981  0.3143  0.9006
 3414TIP3    H131877   4.674   6.705   1.337 -0.9321 -0.3357 -0.3835
 3414TIP3    H231878   4.817   6.747   1.367 -1.4685 -0.0120  1.9056
 3415TIP3   OH231879   1.028   3.820   7.827 -0.0174  0.2312 -0.4930
 3415TIP3    H131880   0.984   3.740   7.800 -0.4458  0.9260 -1.9465
 3415TIP3    H231881   0.973   3.891   7.793  0.0626  1.1782  1.2032
 3416TIP3   OH231882   0.868   4.645   0.109  0.7243 -0.6487 -0.1997
 3416TIP3    H131883   0.843   4.580   0.044  0.7579  0.9476 -1.8940
 3416TIP3    H231884   0.799   4.639   0.176  1.8147 -3.7945  0.8341
 3417TIP3   OH231885   0.662   6.247   1.898  0.2098 -0.1099  0.0917
 3417TIP3    H131886   0.624   6.172   1.853  0.8430 -0.0384 -0.5749
 3417TIP3    H231887   0.606   6.320   1.873 -0.8435 -0.4696  1.3262
 3418TIP3   OH231888   6.622   5.943   8.194  0.0434  0.4126 -0.5352
 3418TIP3    H131889   6.698   5.888   8.176  0.4632  0.0381  2.0845
 3418TIP3    H231890   6.618   6.002   8.118  0.7812 -1.8316 -2.4526
 3419TIP3   OH231891   5.469   5.216   2.167  0.8684  0.1314 -0.0145
 3419TIP3    H131892   5.556   5.197   2.202  1.1582 -0.2537 -0.9149
 3419TIP3    H231893   5.433   5.131   2.144  1.7908  0.4577 -3.1807
 3420TIP3   OH231894   1.680   2.480   0.155  0.0164 -0.1634 -0.3358
 3420TIP3    H131895   1.631   2.471   0.074 -0.9508 -0.0360  0.2203
 3420TIP3    H231896   1.678   2.574   0.174 -1.1536 -0.3672  0.6621
 3421TIP3   OH231897   1.662   5.704   0.325 -0.4343 -0.3491 -0.1195
 3421TIP3    H131898   1.661   5.668   0.236 -0.5741 -0.3495 -0.1167
 3421TIP3    H231899   1.577   5.681   0.362 -1.1629  1.3126 -0.6576
 3422TIP3   OH231900   6.679   3.509   7.877  0.3907  0.6385  0.3147
 3422TIP3    H131901   6.637   3.496   7.793 -0.4760 -0.6323  0.9261
 3422TIP3    H231902   6.733   3.431   7.890  0.3664  0.7336  1.0243
 3423TIP3   OH231903   3.579   0.916   7.017  0.1478 -0.3790 -0.6384
 3423TIP3    H131904   3.625   0.998   7.034  0.7235 -0.8164 -0.0791
 3423TIP3    H231905   3.530   0.898   7.097 -1.9629  0.6680 -1.6030
 3424TIP3   OH231906   6.637   6.603   1.848  0.5693 -0.6363 -0.4188
 3424TIP3    H131907   6.596   6.689   1.840  1.4190 -0.2937 -1.3731
 3424TIP3    H231908   6.731   6.621   1.842  1.0854 -1.1686  3.3975
 3425TIP3   OH231909   2.710   5.504   2.618  0.3574  0.1923  0.0292
 3425TIP3    H131910   2.675   5.588   2.649  0.2661 -0.3687  1.5361
 3425TIP3    H231911   2.636   5.443   2.626  1.0969 -0.5789  1.4209
 3426TIP3   OH231912   0.589   3.509   2.122  0.1432 -0.3990  0.2540
 3426TIP3    H131913   0.671   3.488   2.079 -1.3403 -0.5031 -2.7959
 3426TIP3    H231914   0.611   3.578   2.185  3.1491 -3.1085  2.4804
 3427TIP3   OH231915   7.041   3.105   6.553  0.2671  0.2289  0.3894
 3427TIP3    H131916   7.133   3.080   6.559  0.6449  1.2841 -0.6526
 3427TIP3    H231917   7.000   3.036   6.501  0.6683  0.2281  0.0712
 3428TIP3   OH231918   0.322   3.419   2.094  0.3602 -0.0980 -0.5619
 3428TIP3    H131919   0.406   3.464   2.106  0.7418 -1.0535  0.6570
 3428TIP3    H231920   0.341   3.328   2.117 -1.7439  0.2474  3.6197
 3429TIP3   OH231921   3.257   0.992   1.544  0.8807 -0.7291  0.6038
 3429TIP3    H131922   3.267   0.930   1.616  0.6426  2.0625  3.2265
 3429TIP3    H231923   3.164   0.988   1.521  0.7715 -0.9752  1.0782
 3430TIP3   OH231924   6.637   3.774   2.000  0.0485 -0.4695 -0.0496
 3430TIP3    H131925   6.550   3.740   2.020  0.5146 -1.4288  0.3958
 3430TIP3    H231926   6.651   3.752   1.908 -0.1166 -0.4452 -0.0803
 3431TIP3   OH231927   3.566   4.365   7.355  0.0244  0.0283  0.1232
 3431TIP3    H131928   3.549   4.324   7.270  0.6764  0.5381 -0.2581
 3431TIP3    H231929   3.555   4.459   7.339  0.2762  0.1352  0.5674
 3432TIP3   OH231930   2.454   3.174   2.425 -0.5106  0.1727 -0.4205
 3432TIP3    H131931   2.399   3.129   2.489 -1.7859  0.5258 -1.2341
 3432TIP3    H231932   2.512   3.106   2.391 -3.0450 -1.1941 -2.3544
 3433TIP3   OH231933   2.468   4.614   1.987 -0.0192 -0.5903 -0.5041
 3433TIP3    H131934   2.497   4.684   1.928  1.3583  0.5599  1.4087
 3433TIP3    H231935   2.378   4.637   2.008  0.8717  1.7095  1.3786
 3434TIP3   OH231936   1.835   3.915   7.605  0.3290  0.6063 -0.3905
 3434TIP3    H131937   1.884   3.911   7.687  0.0369  0.8361 -0.2068
 3434TIP3    H231938   1.787   3.833   7.601  1.0854  0.1709 -0.7963
 3435TIP3   OH231939   3.422   4.704   2.350  0.3930  0.0164 -0.9133
 3435TIP3    H131940   3.458   4.673   2.267  0.4440 -1.2914 -0.4158
 3435TIP3    H231941   3.470   4.786   2.367  0.1924  0.4489 -2.2834
 3436TIP3   OH231942   6.403   6.382   6.934 -0.2858 -0.1826 -0.0698
 3436TIP3    H131943   6.493   6.360   6.910 -0.5379 -0.4133 -0.8224
 3436TIP3    H231944   6.363   6.411   6.853 -0.8683  0.0229  0.2849
 3437TIP3   OH231945   7.072   6.307   0.594  0.0121 -0.2654 -0.5190
 3437TIP3    H131946   7.078   6.232   0.653  0.3397 -0.1311 -0.3816
 3437TIP3    H231947   7.154   6.305   0.544  0.7244  0.9016  0.5598
 3438TIP3   OH231948   2.372   2.549   1.117  0.1420 -0.2862 -0.0990
 3438TIP3    H131949   2.403   2.638   1.100 -0.9356  0.1236 -0.0297
 3438TIP3    H231950   2.451   2.495   1.117  0.6752  0.4608 -1.4887
 3439TIP3   OH231951   4.758   0.841   7.956 -1.2159 -0.7436  0.1103
 3439TIP3    H131952   4.673   0.822   7.996 -1.7605  1.4175  0.1299
 3439TIP3    H231953   4.811   0.875   8.028 -1.4741  1.0612 -0.4874
 3440TIP3   OH231954   4.070   3.606   2.041 -0.5621 -0.1736 -0.0887
 3440TIP3    H131955   4.044   3.682   2.093  0.3094 -0.0780  0.2208
 3440TIP3    H231956   3.999   3.595   1.978 -0.6054  1.0085 -0.2610
 3441TIP3   OH231957   2.204   3.545   6.273  0.4070 -0.0548  0.0841
 3441TIP3    H131958   2.178   3.488   6.346 -0.0115 -0.0972 -0.0954
 3441TIP3    H231959   2.279   3.501   6.234 -1.4827 -1.9167 -1.7063
 3442TIP3   OH231960   6.572   6.723   8.005 -0.7843 -0.3961  0.5841
 3442TIP3    H131961   6.598   6.702   8.094 -1.2615  0.8666  1.0461
 3442TIP3    H231962   6.590   6.817   7.996 -0.3000 -0.5983 -0.8092
 3443TIP3   OH231963   5.676   4.308   3.339  0.6489 -0.3664 -0.5526
 3443TIP3    H131964   5.640   4.368   3.273  1.8256  0.0665 -0.8204
 3443TIP3    H231965   5.634   4.333   3.421 -1.5734 -1.5324 -1.2598
 3444TIP3   OH231966   2.515   2.255   1.455 -0.0871 -0.4250 -0.4764
 3444TIP3    H131967   2.465   2.274   1.376 -0.9961  0.8520  0.3542
 3444TIP3    H231968   2.450   2.219   1.516 -0.3777  2.2944  1.0128
 3445TIP3   OH231969   4.810   2.982   7.952 -0.4206  0.0338 -0.4885
 3445TIP3    H131970   4.794   2.975   8.046 -0.9130  2.9600 -0.2792
 3445TIP3    H231971   4.900   3.015   7.946 -0.3144 -0.3466 -1.0698
 3446TIP3   OH231972   0.306   0.846   0.257  0.2592  0.2022  0.0607
 3446TIP3    H131973   0.228   0.806   0.296 -0.1528  1.1640  0.2566
 3446TIP3    H231974   0.308   0.935   0.292  1.5684  0.1370  0.2198
 3447TIP3   OH231975   2.264   6.836   7.854  0.0508  0.3878 -0.0150
 3447TIP3    H131976   2.316   6.916   7.853  1.5766 -0.5653  0.4326
 3447TIP3    H231977   2.256   6.814   7.947  1.4816 -1.1100 -0.2197
 3448TIP3   OH231978   0.552   4.602   1.289 -0.2337  0.3268 -0.3500
 3448TIP3    H131979   0.498   4.523   1.289  1.2152 -0.7223  0.8843
 3448TIP3    H231980   0.526   4.649   1.368  2.2043 -1.3981  1.6352
 3449TIP3   OH231981   0.449   1.733   2.501 -0.8372  0.1562  0.0188
 3449TIP3    H131982   0.389   1.807   2.507 -1.4817 -0.4282  1.1591
 3449TIP3    H231983   0.411   1.667   2.559  0.5093 -0.5181  0.1676
 3450TIP3   OH231984   1.943   0.991   1.008  0.3118  0.1757  0.0328
 3450TIP3    H131985   1.992   1.006   0.927 -0.4677 -0.6078 -0.6111
 3450TIP3    H231986   1.875   0.928   0.983  1.0557 -1.3528  1.6787
 3451TIP3   OH231987   1.130   4.143   7.596 -0.0672 -0.1749  0.8757
 3451TIP3    H131988   1.058   4.089   7.630  0.4075 -0.3005  1.7274
 3451TIP3    H231989   1.116   4.229   7.634 -0.1953  0.0068  0.4214
 3452TIP3   OH231990   5.616   1.041   7.443  1.1894 -0.7716  0.2817
 3452TIP3    H131991   5.612   0.982   7.518 -0.0832  1.5357  2.1459
 3452TIP3    H231992   5.709   1.060   7.433  1.5259 -2.2937  0.2459
 3453TIP3   OH231993   5.111   6.057   0.924  0.4371  0.2802 -0.2405
 3453TIP3    H131994   5.193   6.011   0.939  0.2337  0.1953  0.7212
 3453TIP3    H231995   5.052   5.990   0.889  0.7625  0.3342 -0.9005
 3454TIP3   OH231996   5.956   1.525   1.725  0.2289  0.6897 -0.1910
 3454TIP3    H131997   5.956   1.617   1.699 -0.0874  1.6115  2.7440
 3454TIP3    H231998   6.021   1.520   1.795 -0.5251 -1.0697  0.4438
 3455TIP3   OH231999   2.120   6.915   1.645  0.3119  0.2723 -0.0412
 3455TIP3    H132000   2.118   6.894   1.739 -1.6940 -1.4382 -0.3911
 3455TIP3    H232001   2.181   6.988   1.639  0.1865  0.7356  2.6655
 3456TIP3   OH232002   0.760   2.301   7.660 -0.0457 -0.0347 -0.4659
 3456TIP3    H132003   0.802   2.224   7.621 -0.1538 -0.4994  0.3198
 3456TIP3    H232004   0.758   2.282   7.754 -1.0298  0.4596 -0.3741
 3457TIP3   OH232005   5.877   0.353   7.564 -0.7296 -0.7117 -0.1491
 3457TIP3    H132006   5.870   0.419   7.633  0.2042  0.2492 -0.9548
 3457TIP3    H232007   5.903   0.401   7.486  0.7117 -2.0963 -0.5974
 3458TIP3   OH232008   6.991   3.077   0.910  0.3689 -0.3387  0.1817
 3458TIP3    H132009   7.077   3.114   0.930 -0.4752  2.6316 -1.0705
 3458TIP3    H232010   7.004   3.027   0.830  1.0389 -0.4510  0.3553
 3459TIP3   OH232011   1.556   3.212   6.983 -0.1227 -0.0656  0.1833
 3459TIP3    H132012   1.632   3.170   6.945 -0.3876 -1.4783  1.1354
 3459TIP3    H232013   1.585   3.242   7.069 -0.5361 -0.2635  0.3952
 3460TIP3   OH232014   3.127   6.877   1.339 -0.3035  0.6514  0.1695
 3460TIP3    H132015   3.221   6.896   1.335  0.0420 -1.0449 -0.2799
 3460TIP3    H232016   3.112   6.846   1.428 -0.1512 -0.3990 -0.1580
 3461TIP3   OH232017   6.657   3.443   1.898 -0.7245 -0.6118 -0.0683
 3461TIP3    H132018   6.654   3.400   1.984 -0.2342  1.3659  0.9981
 3461TIP3    H232019   6.583   3.407   1.850 -1.1752 -1.5567  1.2903
 3462TIP3   OH232020   1.584   0.456   0.442 -0.6077 -0.0058 -0.0148
 3462TIP3    H132021   1.533   0.484   0.365  1.1936  1.5195 -0.7330
 3462TIP3    H232022   1.674   0.479   0.420 -0.1430  1.5221  2.9896
 3463TIP3   OH232023   4.605   6.475   1.208 -0.3920 -0.0272  0.2368
 3463TIP3    H132024   4.641   6.562   1.223  0.4744 -0.6200  1.8391
 3463TIP3    H232025   4.510   6.486   1.218 -0.2896  0.7461  0.3875
 3464TIP3   OH232026   1.346   2.586   1.406 -0.1869 -0.4825  0.4373
 3464TIP3    H132027   1.429   2.579   1.452 -0.2634 -0.4250  0.5838
 3464TIP3    H232028   1.353   2.667   1.355  0.6554 -1.5046 -1.1676
 3465TIP3   OH232029   2.242   5.495   1.276 -0.1337  0.3041  0.4855
 3465TIP3    H132030   2.155   5.524   1.304  0.2185  0.4757  1.4338
 3465TIP3    H232031   2.254   5.535   1.190 -0.1235  2.0893  1.2676
 3466TIP3   OH232032   6.350   2.422   2.926  0.2293  0.0788  0.4246
 3466TIP3    H132033   6.337   2.363   2.852 -0.9256  0.9120 -0.0655
 3466TIP3    H232034   6.377   2.505   2.887  1.1570  0.0957  1.0609
 3467TIP3   OH232035   4.083   4.026   1.977 -0.0091 -0.1846  0.0725
 3467TIP3    H132036   4.157   4.068   1.933 -0.6634 -0.3783 -1.2837
 3467TIP3    H232037   4.048   3.966   1.911 -1.6388  0.2292  0.5201
 3468TIP3   OH232038   6.276   3.331   7.312 -0.1605 -0.8499  0.1217
 3468TIP3    H132039   6.296   3.372   7.227  1.4598  1.8472  1.6601
 3468TIP3    H232040   6.355   3.282   7.334 -0.8906 -2.2368 -0.2409
 3469TIP3   OH232041   0.615   3.313   6.923  0.5570 -0.0853  0.4003
 3469TIP3    H132042   0.631   3.221   6.905  0.8867 -0.4091  2.0868
 3469TIP3    H232043   0.521   3.324   6.916  0.6402 -0.1795 -1.2505
 3470TIP3   OH232044   4.313   1.026   6.953  0.4776 -0.8551 -0.6446
 3470TIP3    H132045   4.385   0.967   6.974  0.6980 -0.3252  0.1083
 3470TIP3    H232046   4.339   1.067   6.870  2.3724  1.3743  0.9452
 3471TIP3   OH232047   1.066   5.158   0.819  0.3532 -0.3349 -0.0188
 3471TIP3    H132048   1.048   5.132   0.910  1.0321  0.5499  0.3843
 3471TIP3    H232049   1.010   5.101   0.767  0.4354 -1.3170  0.9186
 3472TIP3   OH232050   3.269   2.789   2.133 -0.4056  0.0417 -0.1947
 3472TIP3    H132051   3.281   2.709   2.083  1.4937 -0.4920  1.0008
 3472TIP3    H232052   3.178   2.815   2.116 -0.4858 -1.2808 -2.1179
 3473TIP3   OH232053   4.199   6.206   6.455  0.1666 -0.0510 -0.9028
 3473TIP3    H132054   4.271   6.250   6.410  1.5899  0.0774  1.3170
 3473TIP3    H232055   4.196   6.118   6.416  2.4702 -0.5191 -0.1638
 3474TIP3   OH232056   3.718   3.387   1.583  0.2366  0.1026  0.0255
 3474TIP3    H132057   3.797   3.334   1.596 -0.1417 -0.6492 -0.6230
 3474TIP3    H232058   3.729   3.426   1.497 -0.1428 -0.0922 -0.1133
 3475TIP3   OH232059   2.027   5.084   0.583  0.7341 -0.3263 -0.7196
 3475TIP3    H132060   1.943   5.076   0.539  0.0881  1.8853 -0.0383
 3475TIP3    H232061   2.005   5.091   0.676  1.7206 -0.3870 -0.4659
 3476TIP3   OH232062   7.039   0.018   6.486 -0.0107 -0.1304 -0.0515
 3476TIP3    H132063   7.025   0.011   6.392  0.1480  2.3218 -0.3430
 3476TIP3    H232064   7.118  -0.033   6.503  0.7459  0.4973 -1.5110
 3477TIP3   OH232065   5.666   0.593   1.628  0.3928  0.1111  0.3702
 3477TIP3    H132066   5.574   0.619   1.626  0.3690  0.4049  2.6420
 3477TIP3    H232067   5.701   0.623   1.544 -1.6539 -0.4456 -0.7646
 3478TIP3   OH232068   3.211   7.007   0.127  0.0432 -0.4229  0.2605
 3478TIP3    H132069   3.285   6.963   0.085  1.0379  1.0250  0.4474
 3478TIP3    H232070   3.239   7.098   0.136 -1.0588 -0.2138  1.9496
 3479TIP3   OH232071   1.332   5.901   1.477 -0.0941  0.0947  0.0415
 3479TIP3    H132072   1.238   5.899   1.493 -0.0232 -0.7548  0.3771
 3479TIP3    H232073   1.371   5.895   1.564  0.2814  1.0132 -0.0471
 3480TIP3   OH232074   0.489   0.851   6.626 -0.7871  0.7880  0.3903
 3480TIP3    H132075   0.414   0.832   6.570  0.4794  1.1505 -1.5493
 3480TIP3    H232076   0.499   0.946   6.620 -0.2414  0.7540  0.6870
 3481TIP3   OH232077   4.797   2.234   0.010  0.3524  0.0701 -0.0590
 3481TIP3    H132078   4.800   2.209  -0.083  0.6667 -0.6219  0.1282
 3481TIP3    H232079   4.865   2.301   0.018  0.3298  0.1270 -0.3302
 3482TIP3   OH232080   5.259   2.611   0.549 -0.3852  0.3647 -0.4715
 3482TIP3    H132081   5.230   2.696   0.581  0.7839  0.3778  0.6221
 3482TIP3    H232082   5.332   2.631   0.491 -0.1721  0.1230 -0.2897
 3483TIP3   OH232083   0.640   3.131   1.731 -0.1580  0.8513 -0.1622
 3483TIP3    H132084   0.701   3.057   1.724  0.2024  1.1884 -0.6655
 3483TIP3    H232085   0.633   3.148   1.825 -1.5282 -0.8700  0.0920
 3484TIP3   OH232086   4.111   0.509   2.232 -0.7063  0.0784 -0.1347
 3484TIP3    H132087   4.054   0.564   2.284 -1.5807  0.3740 -1.3621
 3484TIP3    H232088   4.194   0.509   2.279 -0.9543  1.7093  0.3644
 3485TIP3   OH232089   0.434   2.542   6.932 -0.1134 -0.2177 -0.0377
 3485TIP3    H132090   0.387   2.585   6.861  0.1736 -1.7485 -1.2009
 3485TIP3    H232091   0.366   2.517   6.994 -0.2848  1.8608  0.6826
 3486TIP3   OH232092   3.945   0.046   7.888  0.2505 -0.3552  0.4802
 3486TIP3    H132093   3.853   0.047   7.911 -0.7827 -1.5892 -2.9147
 3486TIP3    H232094   3.968  -0.047   7.883  0.8950 -0.1564 -1.1105
 3487TIP3   OH232095   0.583   5.400   2.372  0.4198 -0.1501  0.4670
 3487TIP3    H132096   0.675   5.379   2.357  0.1943 -1.1213  0.4326
 3487TIP3    H232097   0.534   5.323   2.343 -0.5185  0.8971 -0.8661
 3488TIP3   OH232098   5.395   0.360   7.997  0.4477  0.4194  0.4964
 3488TIP3    H132099   5.337   0.412   8.052  1.2308  1.9914 -0.1263
 3488TIP3    H232100   5.480   0.364   8.039  0.6155 -0.0016  0.2096
 3489TIP3   OH232101   5.177   7.003   2.600  0.2030  0.2929  0.2310
 3489TIP3    H132102   5.137   6.990   2.514  0.6656  2.4878 -0.3722
 3489TIP3    H232103   5.122   6.952   2.660 -0.5586 -0.6911 -1.2435
 3490TIP3   OH232104   4.108   2.558   0.737 -0.6084 -0.3622 -0.0553
 3490TIP3    H132105   4.021   2.533   0.705 -1.0716 -0.3333  1.1312
 3490TIP3    H232106   4.158   2.476   0.737 -1.5553 -1.0104  2.0396
 3491TIP3   OH232107   4.318   5.067   0.755 -0.1932 -0.1497 -0.1189
 3491TIP3    H132108   4.400   5.020   0.769 -1.0708 -1.4638  0.8456
 3491TIP3    H232109   4.331   5.113   0.672  1.5299 -0.2677  0.0468
 3492TIP3   OH232110   5.442   4.712   6.323  0.3515 -0.4912  0.1317
 3492TIP3    H132111   5.431   4.653   6.397 -0.6887 -0.5266 -0.0315
 3492TIP3    H232112   5.524   4.684   6.281 -0.4017 -2.2059 -0.2680
 3493TIP3   OH232113   4.503   4.687   8.180 -0.4942  0.7235 -0.3191
 3493TIP3    H132114   4.445   4.617   8.211 -0.3958  0.5541 -0.5160
 3493TIP3    H232115   4.545   4.650   8.103  0.4717  0.5536  0.2708
 3494TIP3   OH232116   2.064   1.656   6.934  0.0625 -0.5110 -0.2447
 3494TIP3    H132117   2.002   1.727   6.916 -0.8789 -1.1299  0.4538
 3494TIP3    H232118   2.150   1.697   6.929 -0.4470  0.5926 -0.2462
 3495TIP3   OH232119   5.694   1.731   7.971 -0.1807 -0.5360 -0.1615
 3495TIP3    H132120   5.712   1.710   8.063  1.2294  2.6939  0.4417
 3495TIP3    H232121   5.605   1.766   7.973 -0.5857 -1.5277 -0.2667
 3496TIP3   OH232122   3.868   3.629   7.850 -0.4006 -0.0377  0.0792
 3496TIP3    H132123   3.856   3.684   7.772 -2.3371  1.2051  1.1785
 3496TIP3    H232124   3.929   3.679   7.905 -0.2993 -0.1467  0.0672
 3497TIP3   OH232125   3.192   5.537   0.285  0.1992  0.3059 -0.3110
 3497TIP3    H132126   3.285   5.552   0.269  0.2839 -0.9800 -1.1638
 3497TIP3    H232127   3.190   5.472   0.355 -0.0473  0.0983 -0.5083
 3498TIP3   OH232128   3.693   5.465   6.831  0.1621 -0.6150  0.1176
 3498TIP3    H132129   3.688   5.425   6.917  1.7993  1.7718  1.4342
 3498TIP3    H232130   3.782   5.448   6.801  0.3030  0.4123 -0.0926
 3499TIP3   OH232131   3.868   1.709   7.233 -0.2379  0.7377  0.0628
 3499TIP3    H132132   3.869   1.615   7.215 -0.2072  0.7021  0.2486
 3499TIP3    H232133   3.952   1.741   7.200  0.0978  0.5624  0.7333
 3500TIP3   OH232134   5.111   0.252   7.598  0.2462 -0.0073 -0.0888
 3500TIP3    H132135   5.170   0.326   7.610  0.7656 -0.4153 -0.0790
 3500TIP3    H232136   5.095   0.219   7.686  0.4271 -0.2193 -0.1344
 3501TIP3   OH232137   1.447   0.017   6.200 -0.1373 -0.1386  0.2535
 3501TIP3    H132138   1.397  -0.062   6.178 -1.9763  0.4127  2.1186
 3501TIP3    H232139   1.465   0.058   6.116 -2.2178 -0.7732 -0.5786
 3502TIP3   OH232140   3.707   4.808   7.125 -0.0632 -0.1526 -0.1649
 3502TIP3    H132141   3.636   4.815   7.061 -0.0312 -0.3931 -0.2265
 3502TIP3    H232142   3.786   4.792   7.073 -0.2095 -1.4873 -0.0105
 3503TIP3   OH232143   4.751   1.574   1.164 -0.1665  0.3948 -0.4592
 3503TIP3    H132144   4.712   1.661   1.177  1.8339  1.0238  2.1848
 3503TIP3    H232145   4.727   1.525   1.243  0.9938 -0.5147 -0.6416
 3504TIP3   OH232146   0.595   3.940   1.970 -0.0797  0.3520  0.1649
 3504TIP3    H132147   0.581   3.968   2.061 -1.1577  0.1983  0.0605
 3504TIP3    H232148   0.666   3.995   1.939  0.3690  0.3379  1.1375
 3505TIP3   OH232149   6.001   1.142   0.198  0.1930  0.0483 -0.7620
 3505TIP3    H132150   5.924   1.133   0.142 -1.9387  0.5637  1.8224
 3505TIP3    H232151   6.001   1.235   0.223  0.1186 -0.4385  1.2102
 3506TIP3   OH232152   5.623   1.340   2.156  0.7431 -0.3362 -0.2881
 3506TIP3    H132153   5.650   1.373   2.242 -0.0695  0.2207 -0.2259
 3506TIP3    H232154   5.694   1.364   2.097  1.6630 -1.4186  0.3689
 3507TIP3   OH232155   0.674   5.726   2.147 -0.0752  0.0880 -0.0404
 3507TIP3    H132156   0.687   5.678   2.228 -0.7724 -1.4414 -0.7958
 3507TIP3    H232157   0.754   5.778   2.137  2.4464 -3.5602 -0.8942
 3508TIP3   OH232158   1.119   3.351   0.508  0.4236  0.0905 -0.4786
 3508TIP3    H132159   1.206   3.380   0.482  0.4814 -1.3751 -2.1296
 3508TIP3    H232160   1.059   3.398   0.450  0.0719  1.2028  0.7479
 3509TIP3   OH232161   0.941   6.468   0.657 -0.3903  0.1484  0.2265
 3509TIP3    H132162   0.851   6.500   0.657  0.1280  1.7430 -1.6448
 3509TIP3    H232163   0.950   6.420   0.575  0.8104  1.1894 -0.2899
 3510TIP3   OH232164   3.458   2.945   8.198 -0.3865  0.4771 -0.1367
 3510TIP3    H132165   3.464   2.882   8.270 -0.3827  0.6913  0.0541
 3510TIP3    H232166   3.423   3.024   8.239 -0.4934  0.5634 -0.3963
 3511TIP3   OH232167   2.529   4.243   0.495 -0.3322  0.3205  0.6214
 3511TIP3    H132168   2.586   4.171   0.522  1.5554  2.3230  2.3392
 3511TIP3    H232169   2.464   4.250   0.565  0.6634  1.4348  1.4808
 3512TIP3   OH232170   6.734   4.201   7.670 -0.0925 -0.2034 -0.4759
 3512TIP3    H132171   6.647   4.233   7.692  0.0871 -0.1073  0.0927
 3512TIP3    H232172   6.776   4.274   7.624  0.3932  0.4853  1.0085
 3513TIP3   OH232173   5.989   0.206   1.577  0.0878 -0.3567  0.1862
 3513TIP3    H132174   5.935   0.137   1.539  0.9959 -1.3615  0.6877
 3513TIP3    H232175   5.997   0.183   1.669 -0.0988  0.7672  0.5071
 3514TIP3   OH232176   3.765   4.098   7.182  0.1394  0.2174 -0.2554
 3514TIP3    H132177   3.684   4.148   7.188  0.1453  0.3301 -0.9702
 3514TIP3    H232178   3.736   4.007   7.172  0.0514  0.3831 -1.7704
 3515TIP3   OH232179   5.638   0.776   0.122  0.2552 -0.7288  0.0791
 3515TIP3    H132180   5.613   0.864   0.148 -0.9354 -0.9086 -0.3867
 3515TIP3    H232181   5.575   0.719   0.165 -0.8256 -1.1293 -1.8885
 3516TIP3   OH232182   5.641   5.303   7.423  0.6523  0.2408  0.3797
 3516TIP3    H132183   5.716   5.334   7.372 -0.2089  0.8058 -0.5778
 3516TIP3    H232184   5.669   5.315   7.514  2.7324 -2.0225  0.1568
 3517TIP3   OH232185   3.374   0.762   6.945 -0.4700  0.4921 -0.1905
 3517TIP3    H132186   3.457   0.809   6.941 -0.2601  0.3310  1.6040
 3517TIP3    H232187   3.308   0.831   6.952 -0.3962  0.5895 -0.4417
 3518TIP3   OH232188   6.561   1.237   6.759  0.2780 -0.6025 -0.3359
 3518TIP3    H132189   6.561   1.284   6.676 -1.3972 -1.4755 -0.8891
 3518TIP3    H232190   6.586   1.148   6.737 -1.2736 -1.1283 -0.1488
 3519TIP3   OH232191   5.012   1.317   2.390  0.2648  0.4011  0.5933
 3519TIP3    H132192   5.044   1.351   2.306  0.3706  1.1698  0.9382
 3519TIP3    H232193   5.057   1.370   2.456 -1.8624  1.7183  1.1075
 3520TIP3   OH232194   3.540   5.062   0.897  0.2218 -0.2293 -0.1006
 3520TIP3    H132195   3.628   5.038   0.926  0.4831  1.1279  0.2909
 3520TIP3    H232196   3.519   4.998   0.829  1.5419 -0.5199 -0.2601
 3521TIP3   OH232197   4.069   2.891   8.103  0.2952 -0.0431 -0.0016
 3521TIP3    H132198   4.045   2.958   8.168  1.0398  0.7829 -0.5479
 3521TIP3    H232199   4.154   2.859   8.133  1.9722  2.2617 -1.9345
 3522TIP3   OH232200   1.687   4.649   7.431  0.2784 -0.0880  0.2220
 3522TIP3    H132201   1.615   4.637   7.370  1.0453  1.2608 -1.0227
 3522TIP3    H232202   1.647   4.643   7.518 -1.1565 -0.2375 -0.4265
 3523TIP3   OH232203   4.957   0.029   7.192  0.0245 -0.0074 -0.5370
 3523TIP3    H132204   4.870   0.024   7.153 -1.1078 -0.0599  1.8055
 3523TIP3    H232205   4.961  -0.048   7.250  1.2741  0.4783  0.0435
 3524TIP3   OH232206   6.097   2.765   0.750 -0.1924  0.0621 -0.4972
 3524TIP3    H132207   6.010   2.788   0.780 -0.1393 -0.1177 -0.1997
 3524TIP3    H232208   6.154   2.782   0.825  0.3280  2.0301 -1.2839
 3525TIP3   OH232209   4.562   2.750   1.808  0.2509 -0.3328 -0.0918
 3525TIP3    H132210   4.632   2.765   1.872 -0.2560  0.6389  0.2550
 3525TIP3    H232211   4.566   2.656   1.790  2.3334 -0.1517 -0.8826
 3526TIP3   OH232212   4.764   5.156   0.612  0.1277  0.1011 -0.1338
 3526TIP3    H132213   4.707   5.232   0.623  0.4074  1.3134 -4.7474
 3526TIP3    H232214   4.710   5.091   0.567  0.3603 -1.9197  2.2993
 3527TIP3   OH232215   2.096   4.808   6.654 -0.4363 -0.7018  0.1201
 3527TIP3    H132216   2.121   4.824   6.563 -0.3517 -2.3389 -0.1678
 3527TIP3    H232217   2.008   4.846   6.661  0.1219  0.7374 -0.2019
 3528TIP3   OH232218   4.292   5.733   7.563  0.2038 -0.0036  0.3915
 3528TIP3    H132219   4.276   5.735   7.657  0.5581  0.4466  0.4479
 3528TIP3    H232220   4.220   5.681   7.527  0.3277 -0.5792  0.9611
 3529TIP3   OH232221   1.890   2.003   6.668  0.0484  0.2367 -0.2549
 3529TIP3    H132222   1.866   1.918   6.705 -1.5778  0.9439  0.3942
 3529TIP3    H232223   1.970   1.986   6.618  0.4497 -1.4160  0.8857
 3530TIP3   OH232224   1.162   4.576   0.709  0.0003 -0.1925  0.9235
 3530TIP3    H132225   1.156   4.668   0.732 -0.6409 -0.5160  2.1728
 3530TIP3    H232226   1.173   4.531   0.793  0.8271 -1.2148  0.2942
 3531TIP3   OH232227   3.083   1.983   0.566 -0.0600 -0.3113  0.1433
 3531TIP3    H132228   3.117   1.926   0.636  2.8443 -0.4774 -1.2613
 3531TIP3    H232229   3.030   1.924   0.512 -0.4242 -0.7138  0.9135
 3532TIP3   OH232230   4.216   5.113   7.865  0.2639  0.4831 -0.1680
 3532TIP3    H132231   4.229   5.141   7.956 -1.7580  0.9671  0.0058
 3532TIP3    H232232   4.263   5.179   7.814  1.7052  0.0243  0.4962
 3533TIP3   OH232233   1.126   3.883   2.211  0.1357  0.3284 -0.4661
 3533TIP3    H132234   1.165   3.866   2.125  0.5337  1.2317 -0.4729
 3533TIP3    H232235   1.194   3.857   2.273 -0.2349 -0.5382 -0.3987
 3534TIP3   OH232236   5.836   1.478   2.383 -0.1035  0.5079 -0.3548
 3534TIP3    H132237   5.884   1.396   2.390  0.3837  0.8358  0.2737
 3534TIP3    H232238   5.744   1.453   2.394 -0.0212 -0.0296 -0.8321
 3535TIP3   OH232239   6.307   6.519   0.155  0.3395  0.7190  0.1830
 3535TIP3    H132240   6.345   6.593   0.203 -1.2863  1.7874 -0.0793
 3535TIP3    H232241   6.224   6.553   0.121  0.7114 -0.4581 -2.0943
 3536TIP3   OH232242   2.539   6.795   1.710  0.5934  0.1663 -1.0216
 3536TIP3    H132243   2.511   6.731   1.645 -0.0720 -2.2178  1.4266
 3536TIP3    H232244   2.486   6.776   1.787  2.9599  1.2266  1.0084
 3537TIP3   OH232245   6.120   4.554   1.392  0.3067  0.8198  0.1622
 3537TIP3    H132246   6.162   4.582   1.473  3.1897  0.3461 -1.0149
 3537TIP3    H232247   6.074   4.631   1.360  1.3892  1.8253  0.9417
 3538TIP3   OH232248   3.677   1.321   0.979  0.2269 -0.3129 -0.0809
 3538TIP3    H132249   3.681   1.301   1.073  0.1983  2.5497  0.6181
 3538TIP3    H232250   3.724   1.248   0.938  1.7230 -0.8257  2.3077
 3539TIP3   OH232251   5.443   1.527   7.822 -0.1454 -0.5109 -0.6233
 3539TIP3    H132252   5.429   1.527   7.917  1.3669 -0.8809 -0.3715
 3539TIP3    H232253   5.460   1.435   7.800  0.9775 -0.2419 -0.9879
 3540TIP3   OH232254   0.735   0.234   7.350  0.3785  0.1102  0.7480
 3540TIP3    H132255   0.754   0.140   7.359  0.3632  0.1119  0.7941
 3540TIP3    H232256   0.809   0.277   7.393 -0.2030  0.1114  1.7716
 3541TIP3   OH232257   0.577   2.370   7.435 -0.4385 -0.1185 -0.3119
 3541TIP3    H132258   0.654   2.364   7.493 -0.2277  0.9882 -0.4420
 3541TIP3    H232259   0.503   2.347   7.491 -0.2508  1.0627  0.4585
 3542TIP3   OH232260   1.038   5.162   1.432  0.1085 -0.4150  0.4732
 3542TIP3    H132261   0.963   5.147   1.375 -0.3109  1.7431  0.3679
 3542TIP3    H232262   1.103   5.204   1.374  0.6941 -0.6391  0.9677
 3543TIP3   OH232263   3.152   4.701   8.136 -0.0915 -0.1764 -0.0613
 3543TIP3    H132264   3.118   4.764   8.071 -1.4907 -0.6450  0.1874
 3543TIP3    H232265   3.176   4.624   8.084 -0.1863 -0.1429 -0.1561
 3544TIP3   OH232266   4.938   1.716   2.628 -0.1312  0.0699  0.7982
 3544TIP3    H132267   5.009   1.772   2.597 -0.7145 -0.2366 -1.2306
 3544TIP3    H232268   4.867   1.777   2.649 -0.5127  0.1943 -0.7180
 3545TIP3   OH232269   2.350   2.097   0.623  0.2525 -0.7063  0.0481
 3545TIP3    H132270   2.315   2.183   0.647 -3.0063 -1.8947  0.0362
 3545TIP3    H232271   2.340   2.044   0.702 -1.0962 -1.9420 -0.8895
 3546TIP3   OH232272   4.327   2.224   0.438 -0.0461 -0.0537  0.3428
 3546TIP3    H132273   4.367   2.142   0.467 -1.3546 -1.1977 -0.9550
 3546TIP3    H232274   4.387   2.257   0.371  0.1644 -0.2729  0.4198
 3547TIP3   OH232275   5.312   5.663   1.099 -0.3992 -0.4874 -0.1169
 3547TIP3    H132276   5.386   5.609   1.074  0.5213  0.4749  0.4562
 3547TIP3    H232277   5.314   5.666   1.194  0.1847  1.3374 -0.1515
 3548TIP3   OH232278   4.532   1.030   7.676  0.0975 -0.1133 -0.5281
 3548TIP3    H132279   4.476   0.982   7.737  0.7482 -0.9522 -0.5886
 3548TIP3    H232280   4.609   1.055   7.727 -0.1811  0.7946 -0.5223
 3549TIP3   OH232281   1.870   4.962   8.120  0.0502 -0.0837 -0.0737
 3549TIP3    H132282   1.920   4.881   8.114 -0.4254 -0.7202  3.1497
 3549TIP3    H232283   1.801   4.952   8.054 -0.0614 -2.3629  0.3242
 3550TIP3   OH232284   3.592   4.810   2.832  0.6467 -0.1219  0.3927
 3550TIP3    H132285   3.519   4.776   2.884  0.2974  1.0282  0.7044
 3550TIP3    H232286   3.579   4.773   2.745 -0.9864  0.9151  0.1436
 3551TIP3   OH232287   6.295   3.751   7.252 -0.1467  0.0109 -0.3485
 3551TIP3    H132288   6.352   3.676   7.241  1.4484  1.0153  0.6611
 3551TIP3    H232289   6.330   3.817   7.192 -1.7908 -0.1440 -1.5549
 3552TIP3   OH232290   0.946   3.420   7.169 -0.2232 -0.0130  0.1478
 3552TIP3    H132291   0.900   3.444   7.249 -2.5918  0.7680 -1.3558
 3552TIP3    H232292   0.908   3.476   7.102  0.4115 -1.8687 -1.8781
 3553TIP3   OH232293   0.555   5.742   8.032  0.0530 -0.0894  0.4394
 3553TIP3    H132294   0.572   5.775   8.120  0.2245  1.8355 -0.2734
 3553TIP3    H232295   0.517   5.816   7.985 -1.7181 -1.5792 -0.6358
 3554TIP3   OH232296   2.104   3.818   6.279  0.3320 -0.3596  0.1763
 3554TIP3    H132297   2.141   3.730   6.270  0.6505 -0.2653  0.5247
 3554TIP3    H232298   2.144   3.868   6.207 -0.4418 -0.6862 -0.4961
 3555TIP3   OH232299   4.183   6.217   1.618 -0.4132  0.0260 -0.2746
 3555TIP3    H132300   4.192   6.217   1.713  0.1034  0.4708 -0.3256
 3555TIP3    H232301   4.118   6.285   1.600 -0.1049  0.3143 -0.2843
 3556TIP3   OH232302   1.490   2.558   6.870 -0.2999  0.3078  0.1349
 3556TIP3    H132303   1.429   2.558   6.944 -0.2346 -0.5602  0.2013
 3556TIP3    H232304   1.516   2.650   6.860  0.4754  0.2995  1.8489
 3557TIP3   OH232305   2.636   2.484   1.075  0.4091  0.9747  0.1777
 3557TIP3    H132306   2.651   2.425   1.001  1.0251  2.0278 -0.5744
 3557TIP3    H232307   2.720   2.486   1.121 -0.0325  0.1619  1.0499
 3558TIP3   OH232308   3.207   2.612   1.038 -0.1065  0.1430 -0.4233
 3558TIP3    H132309   3.188   2.575   1.124 -1.4011  0.2884 -0.6286
 3558TIP3    H232310   3.157   2.557   0.977  0.0210  0.6428 -0.9866
 3559TIP3   OH232311   0.976   2.191   1.826 -0.0538 -0.1349 -0.6926
 3559TIP3    H132312   0.890   2.211   1.862  0.4006 -0.5460  0.7052
 3559TIP3    H232313   1.036   2.246   1.876  0.6708 -1.1996 -0.3594
 3560TIP3   OH232314   6.835   3.364   0.742  0.2105  0.1216 -0.0384
 3560TIP3    H132315   6.898   3.427   0.777 -0.0893  0.4145 -0.0218
 3560TIP3    H232316   6.883   3.317   0.675  0.1914  0.9559 -0.6530
 3561TIP3   OH232317   6.903   4.038   2.922  0.2743  1.0694 -0.1440
 3561TIP3    H132318   6.927   3.950   2.949 -0.4168  0.8102 -0.3534
 3561TIP3    H232319   6.966   4.061   2.853  1.1878  1.2066  0.7148
 3562TIP3   OH232320   0.635   6.415   7.134  0.1136 -0.3365  0.1835
 3562TIP3    H132321   0.604   6.413   7.044 -0.0810  1.2929  0.1954
 3562TIP3    H232322   0.730   6.405   7.127  0.1941  0.6430 -0.2774
 3563TIP3   OH232323   0.956   4.975   7.251 -0.5049  1.0787 -0.0063
 3563TIP3    H132324   0.914   5.043   7.198  0.1310  0.9046 -0.7448
 3563TIP3    H232325   0.977   4.905   7.188 -0.3048  0.6009  0.5831
 3564TIP3   OH232326   0.820   3.226   7.328 -0.2526 -0.3839  0.0076
 3564TIP3    H132327   0.867   3.184   7.400 -0.5883  0.0285  0.4858
 3564TIP3    H232328   0.873   3.209   7.250  0.9380  0.4856  0.5993
 3565TIP3   OH232329   0.225   2.997   0.114  0.4711 -0.3188  0.1961
 3565TIP3    H132330   0.184   2.938   0.176  0.7860 -0.0252  0.6882
 3565TIP3    H232331   0.172   2.989   0.035 -1.6158  1.3244  1.3302
 3566TIP3   OH232332   4.150   1.273   0.273 -0.8481 -0.0089 -0.1101
 3566TIP3    H132333   4.212   1.201   0.259 -1.8944 -1.1478  0.8711
 3566TIP3    H232334   4.198   1.352   0.247 -0.0818 -1.1587 -2.4672
 3567TIP3   OH232335   6.606   6.783   0.084  0.4083  0.0613 -0.5394
 3567TIP3    H132336   6.658   6.730   0.144 -0.9738  0.9956  1.6134
 3567TIP3    H232337   6.526   6.803   0.133  0.0069  2.4580 -1.9868
 3568TIP3   OH232338   3.474   1.464   7.507  0.0462  0.5810  0.3455
 3568TIP3    H132339   3.418   1.444   7.582  0.9803  0.7955  1.1179
 3568TIP3    H232340   3.470   1.559   7.500  0.3670  0.5999  0.4403
 3569TIP3   OH232341   5.477   3.875   0.872 -0.1206 -0.5195  0.2020
 3569TIP3    H132342   5.388   3.888   0.907 -0.3131 -2.0591  0.3651
 3569TIP3    H232343   5.468   3.800   0.812  0.7866  0.2481 -0.9380
 3570TIP3   OH232344   6.837   3.721   0.073  0.1017 -0.3642 -0.0246
 3570TIP3    H132345   6.744   3.731   0.094  0.2395  0.8408  0.0948
 3570TIP3    H232346   6.838   3.676  -0.011 -0.5606 -1.3414  0.4795
 3571TIP3   OH232347   5.745   2.650   2.107 -0.2834 -0.3166  0.0593
 3571TIP3    H132348   5.819   2.608   2.152  0.1462  0.5623  0.1878
 3571TIP3    H232349   5.682   2.668   2.177 -0.2471 -0.2890  0.0853
 3572TIP3   OH232350   5.526   0.624   7.856  0.7972  0.6237  0.1590
 3572TIP3    H132351   5.527   0.673   7.938  0.5357 -0.3098  0.7358
 3572TIP3    H232352   5.445   0.573   7.859  0.3993  1.1318 -1.0292
 3573TIP3   OH232353   6.707   4.937   1.465  0.2017 -0.8848 -0.6418
 3573TIP3    H132354   6.754   5.014   1.497 -2.1180  0.5040 -0.3326
 3573TIP3    H232355   6.772   4.888   1.416  1.8995  1.0153 -0.4215
 3574TIP3   OH232356   4.951   2.538   2.024 -0.8654 -0.5873  0.0935
 3574TIP3    H132357   4.998   2.475   2.078  0.4810 -1.1985 -1.6674
 3574TIP3    H232358   4.937   2.492   1.941  0.2915  1.4314 -1.3127
 3575TIP3   OH232359   3.619   0.160   7.413  0.4365 -0.0131  0.3670
 3575TIP3    H132360   3.653   0.243   7.380 -1.3591  1.4321  1.9182
 3575TIP3    H232361   3.651   0.095   7.351  0.2256  2.0759 -2.1229
 3576TIP3   OH232362   1.041   0.183   1.270  0.2365  0.9129  0.4836
 3576TIP3    H132363   1.007   0.272   1.265 -1.8256  0.3376  2.5017
 3576TIP3    H232364   0.995   0.144   1.345  2.0042 -1.4576  0.4484
 3577TIP3   OH232365   4.967   1.755   6.909 -0.0169  0.0105  0.3731
 3577TIP3    H132366   5.018   1.690   6.958 -0.7377  0.0681  1.2350
 3577TIP3    H232367   4.876   1.735   6.931 -0.5792 -1.3605 -2.6413
 3578TIP3   OH232368   6.766   1.221   0.921 -0.2755 -0.1815 -0.2883
 3578TIP3    H132369   6.812   1.158   0.976 -1.4269 -1.9535 -1.2325
 3578TIP3    H232370   6.773   1.184   0.832 -1.8159  0.4842 -0.7232
 3579TIP3   OH232371   4.415   6.013   7.336 -0.5805  0.1834  0.2598
 3579TIP3    H132372   4.462   6.097   7.327 -2.2524  1.0541 -0.9153
 3579TIP3    H232373   4.332   6.036   7.378 -1.2721 -0.8030 -0.5237
 3580TIP3   OH232374   5.009   6.047   1.770 -0.5999 -0.1958 -0.3230
 3580TIP3    H132375   5.082   5.986   1.762 -0.5953 -0.6304  2.1604
 3580TIP3    H232376   5.016   6.103   1.693  1.0363 -1.5863 -1.2630
 3581TIP3   OH232377   0.327   6.212   7.879  0.1326 -0.4446  0.0681
 3581TIP3    H132378   0.265   6.229   7.950  2.6045  3.2938  1.6375
 3581TIP3    H232379   0.283   6.245   7.800 -0.2026  1.4944  1.0181
 3582TIP3   OH232380   4.370   0.809   0.297 -0.0964  0.2405  0.5329
 3582TIP3    H132381   4.461   0.790   0.274 -0.1847 -0.3234  0.6560
 3582TIP3    H232382   4.328   0.831   0.213 -0.0889 -0.4825  0.3325
 3583TIP3   OH232383   3.979   0.440   1.505  0.0023 -0.5020 -0.2259
 3583TIP3    H132384   4.004   0.451   1.413 -0.6726  1.9406 -0.1994
 3583TIP3    H232385   3.992   0.527   1.543 -1.0271 -1.1305  1.6644
 3584TIP3   OH232386   4.117   1.118   0.953  0.0486 -0.0947 -0.3975
 3584TIP3    H132387   4.041   1.090   0.903 -0.3831  1.2281 -0.5210
 3584TIP3    H232388   4.190   1.070   0.914 -0.8950 -2.8142  0.9295
 3585TIP3   OH232389   5.566   3.685   1.187 -0.5252  0.2930 -0.5357
 3585TIP3    H132390   5.621   3.736   1.127 -1.8088 -0.1886 -2.2177
 3585TIP3    H232391   5.613   3.603   1.199 -0.5643  0.1203 -1.4811
 3586TIP3   OH232392   3.973   4.424   0.807  0.0858  0.1129  0.0309
 3586TIP3    H132393   4.061   4.447   0.835  0.2305  0.3873 -0.6266
 3586TIP3    H232394   3.915   4.480   0.859  0.4211  1.8634 -1.3916
 3587TIP3   OH232395   0.928   0.891   8.056  1.0006 -0.5285 -0.3919
 3587TIP3    H132396   1.010   0.938   8.041  0.7149 -0.0415 -0.4527
 3587TIP3    H232397   0.955   0.808   8.096  1.5319 -0.4402 -0.5522
 3588TIP3   OH232398   4.745   3.887   2.625  0.5894  0.1160  0.2400
 3588TIP3    H132399   4.754   3.838   2.543  2.1581 -0.2188  0.5768
 3588TIP3    H232400   4.835   3.898   2.656  0.6679  5.1999 -0.9313
 3589TIP3   OH232401   4.166   3.678   7.701  0.8927 -0.3905  0.1584
 3589TIP3    H132402   4.148   3.767   7.672 -0.8899 -0.6434  0.3831
 3589TIP3    H232403   4.237   3.648   7.645 -0.9268 -0.0852 -2.4658
 3590TIP3   OH232404   6.326   1.732   1.918 -0.1222  0.1680 -0.0991
 3590TIP3    H132405   6.410   1.710   1.876 -0.2143 -2.6947  0.9650
 3590TIP3    H232406   6.273   1.768   1.847  1.8519  1.7889 -0.8616
 3591TIP3   OH232407   4.115   3.039   1.597 -0.1684  0.1308  0.1412
 3591TIP3    H132408   4.189   2.991   1.633 -1.3143 -2.0196 -0.2559
 3591TIP3    H232409   4.143   3.131   1.598  3.3550 -0.7464 -2.0019
 3592TIP3   OH232410   0.582   6.604   1.624  0.3165  0.2051  0.0116
 3592TIP3    H132411   0.538   6.540   1.681  3.4749 -0.7483  1.6349
 3592TIP3    H232412   0.607   6.675   1.682  1.1568  0.5661 -0.7615
 3593TIP3   OH232413   4.996   2.256   0.441  0.5008 -0.4436  0.4764
 3593TIP3    H132414   5.088   2.232   0.449  0.3080 -0.9729  1.1380
 3593TIP3    H232415   4.967   2.211   0.361  1.0928  0.6474 -0.3809
 3594TIP3   OH232416   0.283   5.300   0.740  0.0520 -0.2998  0.7065
 3594TIP3    H132417   0.264   5.212   0.708 -0.9860 -0.5001  1.8043
 3594TIP3    H232418   0.228   5.358   0.687  0.4730 -0.3371  0.2216
 3595TIP3   OH232419   1.457   6.126   0.203  0.2724 -0.1267 -0.5964
 3595TIP3    H132420   1.470   6.210   0.158 -0.2062 -0.5768 -1.6019
 3595TIP3    H232421   1.367   6.130   0.234  0.5422  0.1024  0.1729
 3596TIP3   OH232422   5.164   6.280   0.748 -0.2004 -0.2946 -0.1613
 3596TIP3    H132423   5.166   6.219   0.822 -1.8228 -1.5389 -1.1100
 3596TIP3    H232424   5.087   6.256   0.698 -0.0551  1.5959 -1.4014
 3597TIP3   OH232425   3.442   0.356   7.503 -0.0374  0.4596 -0.0734
 3597TIP3    H132426   3.500   0.408   7.559  0.1196 -1.3765  1.5727
 3597TIP3    H232427   3.490   0.274   7.489 -1.9548 -0.8940  0.8851
 3598TIP3   OH232428   5.700   4.015   1.963 -0.5231  0.1670  0.5188
 3598TIP3    H132429   5.785   4.011   1.918 -0.1531 -1.4777  1.2685
 3598TIP3    H232430   5.636   4.003   1.893 -0.0081 -1.1187  0.2356
 3599TIP3   OH232431   0.527   1.382   6.826 -0.5286 -0.3797  0.1663
 3599TIP3    H132432   0.553   1.307   6.772  0.0520  0.6375 -1.0097
 3599TIP3    H232433   0.571   1.457   6.786 -0.2426  0.4553  1.9425
 3600TIP3   OH232434   5.564   5.353   6.993  0.0584  0.2406 -0.0847
 3600TIP3    H132435   5.656   5.379   6.995 -0.2887  1.6244 -0.3788
 3600TIP3    H232436   5.535   5.375   6.905 -0.1970 -1.5931 -0.4805
 3601TIP3   OH232437   2.615   4.790   7.416  0.7449  0.0971  0.7010
 3601TIP3    H132438   2.590   4.877   7.445 -3.4455 -0.5886 -0.1886
 3601TIP3    H232439   2.606   4.792   7.321 -0.6063 -1.5178  0.7410
 3602TIP3   OH232440   1.261   0.309   7.041 -0.3208 -0.1372  0.4897
 3602TIP3    H132441   1.259   0.353   6.956 -1.2091  0.8817  1.0037
 3602TIP3    H232442   1.308   0.371   7.098 -2.3032  0.6002  1.4283
 3603TIP3   OH232443   6.200   0.521   2.035 -0.6027  0.1995  0.2874
 3603TIP3    H132444   6.143   0.478   2.099 -1.5774  2.5453  1.1046
 3603TIP3    H232445   6.159   0.504   1.950 -0.9257 -0.4908  0.5745
 3604TIP3   OH232446   6.754   1.927   2.399 -0.4935  0.4112 -0.1186
 3604TIP3    H132447   6.690   1.862   2.426  0.6668 -0.9022 -0.4177
 3604TIP3    H232448   6.787   1.964   2.481 -0.3863 -0.1656  0.1052
 3605TIP3   OH232449   3.477   4.654   0.543 -0.0588  0.3639 -0.1572
 3605TIP3    H132450   3.386   4.627   0.527 -1.4321  2.9051  2.3237
 3605TIP3    H232451   3.514   4.668   0.456 -2.2932  0.0143 -1.2304
 3606TIP3   OH232452   3.168   4.283   6.968 -0.0982 -0.1647  0.2740
 3606TIP3    H132453   3.244   4.229   6.952  0.0879  0.3714 -0.7346
 3606TIP3    H232454   3.145   4.319   6.882  1.9416  4.1796  1.2782
 3607TIP3   OH232455   0.889   2.088   0.863  0.5170  0.5131  0.1085
 3607TIP3    H132456   0.898   2.122   0.773 -0.2054  1.0205  0.2205
 3607TIP3    H232457   0.829   2.150   0.906  1.9842  1.1157  1.3834
 3608TIP3   OH232458   3.061   5.688   1.895  0.0915 -0.3514  0.3059
 3608TIP3    H132459   3.036   5.625   1.964 -0.1970 -1.2147 -0.5631
 3608TIP3    H232460   3.039   5.643   1.813 -0.5939  1.0865 -0.3328
 3609TIP3   OH232461   1.206   2.380   2.263 -0.0760  0.1726  0.2772
 3609TIP3    H132462   1.176   2.304   2.312  0.8605  0.6874  1.7191
 3609TIP3    H232463   1.286   2.408   2.308  0.2127  1.3427 -0.8879
 3610TIP3   OH232464   3.315   5.633   1.436 -0.1452 -0.1970 -0.1929
 3610TIP3    H132465   3.354   5.546   1.435  0.6794  0.1453  0.6583
 3610TIP3    H232466   3.350   5.674   1.515 -2.8785 -0.1704  1.1277
 3611TIP3   OH232467   4.071   0.016   0.517 -0.1090 -0.2780  0.1553
 3611TIP3    H132468   4.110  -0.071   0.519 -1.9032 -1.1399 -0.4248
 3611TIP3    H232469   4.100   0.057   0.599  0.6618 -1.4406  0.4922
 3612TIP3   OH232470   1.922   6.761   7.506  0.3229  0.3762 -0.0186
 3612TIP3    H132471   1.938   6.789   7.596  0.2528  0.3767 -0.0069
 3612TIP3    H232472   1.863   6.828   7.470  1.9832  1.5554 -0.7041
 3613TIP3   OH232473   0.760   1.924   1.260  0.4515 -0.1084  0.4879
 3613TIP3    H132474   0.702   1.891   1.192  1.1005 -0.7101  0.2151
 3613TIP3    H232475   0.767   2.018   1.242 -1.9069  0.3541  1.6504
 3614TIP3   OH232476   4.519   5.099   7.857 -0.6364  0.0928  0.1223
 3614TIP3    H132477   4.537   5.185   7.894 -0.4406  0.1926 -0.2050
 3614TIP3    H232478   4.528   5.038   7.931  2.6940 -0.0892 -0.3049
 3615TIP3   OH232479   1.023   5.538   6.613 -0.0286  0.2958  0.4797
 3615TIP3    H132480   1.032   5.612   6.552  0.0086  0.6746  0.9383
 3615TIP3    H232481   0.961   5.568   6.679 -0.2496 -0.2006  0.5022
 3616TIP3   OH232482   2.683   6.167   1.025 -0.1379 -0.3274  0.0144
 3616TIP3    H132483   2.629   6.103   1.073 -0.8162  0.6302  0.5658
 3616TIP3    H232484   2.702   6.235   1.089 -0.9648  0.9268 -1.0339
 3617TIP3   OH232485   0.483   4.816   1.471  0.5196 -0.1143 -0.2962
 3617TIP3    H132486   0.436   4.870   1.408  0.8654  0.1022 -0.3726
 3617TIP3    H232487   0.457   4.849   1.556  0.6177  0.0774 -0.3406
 3618TIP3   OH232488   5.021   1.262   1.603 -0.1850  0.0121 -0.6240
 3618TIP3    H132489   5.022   1.344   1.554  0.3112 -0.2793 -1.1083
 3618TIP3    H232490   5.002   1.289   1.693  1.4787  0.8265 -0.4775
 3619TIP3   OH232491   2.751   1.423   8.047 -0.2136 -0.2741 -0.3156
 3619TIP3    H132492   2.792   1.399   8.130 -0.5750 -0.5291 -0.2059
 3619TIP3    H232493   2.723   1.514   8.060  1.1302  0.2196 -0.7240
 3620TIP3   OH232494   2.238   6.055   1.310  0.2867 -0.1168  0.1191
 3620TIP3    H132495   2.163   6.113   1.296  1.4331  1.1246 -1.2861
 3620TIP3    H232496   2.230   5.990   1.240  0.7771  0.3133 -0.3408
 3621TIP3   OH232497   1.528   1.855   6.898  0.3126 -0.1239 -0.2514
 3621TIP3    H132498   1.464   1.814   6.838  0.1092 -0.3243  0.0973
 3621TIP3    H232499   1.488   1.847   6.984  0.9257 -0.4804  0.0072
 3622TIP3   OH232500   4.089   0.894   1.820 -0.6654 -0.0537  0.1544
 3622TIP3    H132501   4.168   0.928   1.779 -1.7599  1.3657 -0.9068
 3622TIP3    H232502   4.085   0.802   1.793  1.1792 -0.4813  1.1966
 3623TIP3   OH232503   3.521   2.441   7.998 -0.5074  0.3862  0.4988
 3623TIP3    H132504   3.457   2.487   8.051  0.3095  1.7415  0.3479
 3623TIP3    H232505   3.605   2.456   8.043 -0.1971 -0.8875  0.3960
 3624TIP3   OH232506   1.513   0.412   0.174  0.1426 -0.3298  0.2990
 3624TIP3    H132507   1.558   0.330   0.194  1.2005  0.1932  0.1683
 3624TIP3    H232508   1.549   0.439   0.089 -0.2711  0.2126  0.2868
 3625TIP3   OH232509   2.130   1.608   2.009  0.1847  0.4107 -0.3104
 3625TIP3    H132510   2.113   1.669   2.081 -1.2824 -0.2212 -0.0957
 3625TIP3    H232511   2.187   1.542   2.047 -0.2061  0.3327  0.1454
 3626TIP3   OH232512   5.443   6.737   6.735  0.3392  0.0376 -0.6862
 3626TIP3    H132513   5.481   6.793   6.668 -0.5462  0.7343 -0.6303
 3626TIP3    H232514   5.348   6.752   6.729  0.0037 -1.8878 -1.0503
 3627TIP3   OH232515   1.391   4.494   6.975  0.4676 -0.6108  0.5884
 3627TIP3    H132516   1.398   4.548   6.896 -0.7161  0.1116  0.9451
 3627TIP3    H232517   1.437   4.413   6.953  0.9788 -0.0531 -0.5016
 3628TIP3   OH232518   4.506   1.698   7.667  0.2240  0.1647  0.4466
 3628TIP3    H132519   4.546   1.611   7.677  3.2603  0.9301 -2.8841
 3628TIP3    H232520   4.540   1.749   7.740  1.2441 -0.6040  0.5347
 3629TIP3   OH232521   5.216   4.468   8.139 -0.0383 -0.0606  0.1213
 3629TIP3    H132522   5.140   4.519   8.111  0.1504 -0.7726 -1.8677
 3629TIP3    H232523   5.277   4.532   8.175 -0.3907  0.9487 -1.0268
 3630TIP3   OH232524   3.395   6.384   1.399  0.0053  0.7273  0.2880
 3630TIP3    H132525   3.393   6.305   1.344  0.4928  0.0451  1.2144
 3630TIP3    H232526   3.325   6.439   1.365 -1.1728 -0.6435  0.4061
 3631TIP3   OH232527   2.908   4.146   1.979  0.2949  0.3364  0.1914
 3631TIP3    H132528   2.979   4.197   2.017  0.7002 -0.1774  0.1420
 3631TIP3    H232529   2.842   4.210   1.955  1.3658  0.9820 -1.1207
 3632TIP3   OH232530   0.856   3.899   8.146  0.4649  0.0039 -0.3175
 3632TIP3    H132531   0.832   3.818   8.190  1.1892  0.7297  1.5026
 3632TIP3    H232532   0.777   3.925   8.098 -0.4398 -0.7034  0.7552
 3633TIP3   OH232533   2.544   5.630   0.757 -0.3439 -0.0199 -0.0710
 3633TIP3    H132534   2.613   5.584   0.710 -0.8542 -0.5775 -0.2971
 3633TIP3    H232535   2.463   5.602   0.714 -0.6275  1.9477 -0.9268
 3634TIP3   OH232536   3.905   6.833   1.275  0.1708 -0.6992 -0.0877
 3634TIP3    H132537   3.855   6.751   1.271 -0.8497 -0.0726 -0.4738
 3634TIP3    H232538   3.862   6.885   1.342  0.6766 -0.3731 -0.0078
 3635TIP3   OH232539   6.058   1.072   7.806 -0.1656  0.1722  0.6657
 3635TIP3    H132540   6.029   0.996   7.756  0.2943  0.9371 -0.8060
 3635TIP3    H232541   5.980   1.127   7.813 -0.4491 -0.3280  1.5642
 3636TIP3   OH232542   3.731   3.441   7.977  0.0457 -0.4137  0.2148
 3636TIP3    H132543   3.662   3.417   7.915  0.2358 -1.8036  0.5182
 3636TIP3    H232544   3.792   3.494   7.926 -0.4848 -0.4118 -0.4254
 3637TIP3   OH232545   1.249   3.396   6.615  0.4893 -0.1319 -0.0341
 3637TIP3    H132546   1.226   3.484   6.643  0.9189 -0.5759  1.8925
 3637TIP3    H232547   1.345   3.398   6.605  0.3302  0.0980 -1.9573
 3638TIP3   OH232548   0.926   5.943   0.219 -0.7500 -0.8007 -0.2483
 3638TIP3    H132549   0.879   5.969   0.298  1.3785 -0.9033  1.1180
 3638TIP3    H232550   0.986   6.015   0.200 -0.5550 -1.1877 -1.2221
 3639TIP3   OH232551   6.345   5.929   0.647  0.2492 -0.2366  0.3037
 3639TIP3    H132552   6.295   5.872   0.589 -1.7564  0.3734  1.3523
 3639TIP3    H232553   6.415   5.873   0.680 -1.4201 -2.0344  1.0206
 3640TIP3   OH232554   2.825   0.317   1.209  0.2357 -0.3974  0.7754
 3640TIP3    H132555   2.841   0.257   1.137  1.4650  0.3682  0.3747
 3640TIP3    H232556   2.786   0.394   1.168  0.2722 -0.2386  1.0377
 3641TIP3   OH232557   5.201   5.325   0.092 -0.3888 -0.0586 -0.3601
 3641TIP3    H132558   5.242   5.377   0.024  2.9209 -0.4586  1.1383
 3641TIP3    H232559   5.129   5.279   0.048 -0.0866  1.7130 -2.8941
 3642TIP3   OH232560   6.433   4.724   2.760 -0.3928 -0.8233 -0.1400
 3642TIP3    H132561   6.515   4.712   2.808 -0.9301 -2.6679  0.3945
 3642TIP3    H232562   6.373   4.661   2.799 -1.3020 -1.3597 -2.2497
 3643TIP3   OH232563   2.723   6.644   8.160 -0.2093  0.5547  0.3587
 3643TIP3    H132564   2.679   6.725   8.135  3.2264  2.4343 -0.2660
 3643TIP3    H232565   2.775   6.669   8.237  1.1898 -0.9582 -0.0522
 3644TIP3   OH232566   5.899   6.797   6.754  0.2052 -0.1464 -0.2554
 3644TIP3    H132567   5.982   6.805   6.800  0.1527 -0.5609 -0.0802
 3644TIP3    H232568   5.919   6.746   6.675  0.0094 -0.7741  0.0927
 3645TIP3   OH232569   6.086   3.115   1.275 -0.1026 -0.2399 -0.0679
 3645TIP3    H132570   6.084   3.094   1.368  0.6436 -0.0527 -0.0026
 3645TIP3    H232571   6.041   3.199   1.268  1.2196  0.5474  0.3674
 3646TIP3   OH232572   1.950   3.120   7.207 -0.3112  0.4581  0.0398
 3646TIP3    H132573   1.873   3.138   7.261  0.4263  0.2542  1.1945
 3646TIP3    H232574   2.013   3.188   7.231  0.2380  0.0147 -0.1142
 3647TIP3   OH232575   3.230   0.896   0.082 -0.2157 -0.1569 -0.6705
 3647TIP3    H132576   3.304   0.955   0.090 -0.7712  0.4839 -0.0552
 3647TIP3    H232577   3.153   0.954   0.080 -0.7764 -0.8484 -0.0067
 3648TIP3   OH232578   4.007   6.873   1.687  0.5601  0.0853 -0.1107
 3648TIP3    H132579   4.087   6.869   1.738  2.0135  2.0624 -2.0188
 3648TIP3    H232580   3.975   6.963   1.699 -1.6476 -0.7695  0.9160
 3649TIP3   OH232581   2.794   2.226   7.440  0.3567 -0.3353  0.3360
 3649TIP3    H132582   2.882   2.262   7.446  0.0565  0.1803  2.1524
 3649TIP3    H232583   2.792   2.181   7.355  1.9542  0.6878 -0.2914
 3650TIP3   OH232584   5.349   5.918   0.990 -0.6791  0.3523 -0.2477
 3650TIP3    H132585   5.382   5.995   1.036  3.0028 -0.9710 -0.3472
 3650TIP3    H232586   5.342   5.851   1.058 -0.5499 -0.1134 -0.6862
 3651TIP3   OH232587   2.601   5.108   2.101  0.0684  0.2375 -0.0788
 3651TIP3    H132588   2.536   5.038   2.097  0.7262 -0.5506  1.8431
 3651TIP3    H232589   2.670   5.074   2.157  2.1514  1.0884 -1.9722
 3652TIP3   OH232590   5.686   0.068   6.452  0.4231  0.6901  0.3527
 3652TIP3    H132591   5.598   0.038   6.428 -0.2714  2.8581 -0.0565
 3652TIP3    H232592   5.692   0.051   6.546  0.2336 -0.9666  0.0993
 3653TIP3   OH232593   7.019   1.710   0.120 -0.0737 -0.4477  0.8286
 3653TIP3    H132594   6.926   1.732   0.126 -0.3421 -1.1083 -0.5986
 3653TIP3    H232595   7.022   1.616   0.106  0.7607 -0.3276  0.0368
 3654TIP3   OH232596   4.670   1.227   7.216  0.3614  0.1453 -0.0889
 3654TIP3    H132597   4.730   1.167   7.173  0.4154 -1.2799  1.8488
 3654TIP3    H232598   4.720   1.309   7.224  0.4206  0.4124 -2.4060
 3655TIP3   OH232599   4.952   2.627   7.403 -0.3753 -0.3458  0.0559
 3655TIP3    H132600   4.955   2.548   7.349 -0.4901 -0.5385  0.3287
 3655TIP3    H232601   5.040   2.633   7.441  0.0980  0.4963 -1.1500
 3656TIP3   OH232602   2.089   0.116   5.762 -0.2680  0.1947 -0.0206
 3656TIP3    H132603   2.031   0.134   5.836 -1.9290  1.7256 -1.6091
 3656TIP3    H232604   2.169   0.165   5.782 -1.4086  2.1511 -0.0920
 3657TIP3   OH232605   3.727   1.751   1.481  0.3518 -0.1085 -0.5920
 3657TIP3    H132606   3.734   1.792   1.395  0.6676  3.3688  0.9230
 3657TIP3    H232607   3.638   1.772   1.510 -0.2394 -2.4186 -0.5077
 3658TIP3   OH232608   2.635   2.040   0.969  0.3649 -0.2289 -0.2070
 3658TIP3    H132609   2.691   1.965   0.986  0.9086 -0.1413 -1.5287
 3658TIP3    H232610   2.686   2.116   0.999  1.1357 -0.1159 -1.7288
 3659TIP3   OH232611   6.734   5.274   7.609 -0.7959  0.5537  0.0074
 3659TIP3    H132612   6.739   5.368   7.622  0.1896  0.0570  5.9916
 3659TIP3    H232613   6.821   5.250   7.576  0.0659  1.5330  1.4783
 3660TIP3   OH232614   5.992   1.898   1.956 -0.5317  0.9813  0.0154
 3660TIP3    H132615   6.061   1.956   1.989 -1.5105  2.1953  0.0067
 3660TIP3    H232616   5.919   1.957   1.935 -1.8388 -0.3374  0.6939
 3661TIP3   OH232617   1.875   1.517   7.721 -0.2418 -0.0298  0.0368
 3661TIP3    H132618   1.876   1.545   7.629 -0.3718  1.6965  0.5179
 3661TIP3    H232619   1.917   1.589   7.768 -3.9567  1.2354  1.8201
 3662TIP3   OH232620   7.051   1.849   6.516  0.0994 -0.0410 -0.0197
 3662TIP3    H132621   7.026   1.939   6.497 -0.8570  0.0702  1.5933
 3662TIP3    H232622   6.975   1.797   6.488  0.2414 -0.2533 -0.0103
 3663TIP3   OH232623   4.417   6.549   2.052  0.7502  0.1580  0.1519
 3663TIP3    H132624   4.367   6.612   2.001 -1.8599 -0.8728  1.2599
 3663TIP3    H232625   4.480   6.602   2.101  0.0916  1.6492 -0.5527
 3664TIP3   OH232626   2.299   1.130   7.900 -0.0270 -0.0627  0.0074
 3664TIP3    H132627   2.226   1.113   7.960 -1.0357  2.7290 -0.2483
 3664TIP3    H232628   2.299   1.057   7.839 -1.6044 -0.9083  0.9649
 3665TIP3   OH232629   5.691   6.925   6.641 -0.7239  0.3310 -0.3388
 3665TIP3    H132630   5.691   6.888   6.552  0.6044 -3.3436  1.0026
 3665TIP3    H232631   5.775   6.897   6.678 -2.2632 -0.5159  2.8760
 3666TIP3   OH232632   5.268   4.424   1.834  0.3522  0.2706 -0.2109
 3666TIP3    H132633   5.282   4.517   1.848  1.1331  0.1156  0.1117
 3666TIP3    H232634   5.357   4.387   1.827  0.1217 -0.7441  1.6573
 3667TIP3   OH232635   1.787   3.308   1.838  0.3806 -0.1951  0.2329
 3667TIP3    H132636   1.696   3.331   1.857 -0.2721 -0.5023 -2.1977
 3667TIP3    H232637   1.820   3.381   1.787  2.1155  0.7215  2.5298
 3668TIP3   OH232638   1.728   2.361   0.419 -0.3714 -0.1971  0.6348
 3668TIP3    H132639   1.706   2.397   0.333 -0.6921 -1.3033  0.2448
 3668TIP3    H232640   1.669   2.405   0.480  1.5754  2.5790  0.7394
 3669TIP3   OH232641   6.548   5.696   8.013  0.5679  0.1297 -0.1670
 3669TIP3    H132642   6.527   5.787   7.991  1.3297  0.3088 -0.1878
 3669TIP3    H232643   6.465   5.659   8.045  0.2034  0.7673 -0.3557
 3670TIP3   OH232644   6.190   0.923   0.590  0.5797  0.4824 -0.1894
 3670TIP3    H132645   6.256   0.862   0.622 -0.9527 -1.1441 -0.0256
 3670TIP3    H232646   6.216   0.942   0.500  0.5248 -1.2210 -0.5823
 3671TIP3   OH232647   4.076   0.832   2.127 -0.0107  0.3782  0.0301
 3671TIP3    H132648   4.056   0.843   2.034  0.2686  0.6322 -0.0016
 3671TIP3    H232649   4.151   0.890   2.142 -1.2187  1.7770  0.8302
 3672TIP3   OH232650   1.779   6.419   2.384  0.3273 -0.1343 -0.3754
 3672TIP3    H132651   1.818   6.500   2.415  1.0561 -0.3943 -0.6018
 3672TIP3    H232652   1.780   6.360   2.459  0.4406 -0.1647 -0.4004
 3673TIP3   OH232653   6.186   2.632   1.499  0.3743 -0.3233  0.3593
 3673TIP3    H132654   6.263   2.576   1.508  0.1423 -0.7149 -0.0332
 3673TIP3    H232655   6.204   2.707   1.555  1.1975 -0.2396  0.0000
 3674TIP3   OH232656   0.879   0.481   2.102 -0.0804  0.1269 -0.2770
 3674TIP3    H132657   0.809   0.424   2.071 -1.0922  1.1651  0.0121
 3674TIP3    H232658   0.954   0.459   2.047 -0.4050 -1.5094 -0.1358
 3675TIP3   OH232659   1.856   0.303   5.797  0.6114  0.1161  0.3397
 3675TIP3    H132660   1.897   0.262   5.874  0.7212 -0.1341  0.1477
 3675TIP3    H232661   1.763   0.306   5.819  0.7213  0.6643  0.7681
 3676TIP3   OH232662   5.698   5.931   0.219 -0.5282 -0.0439  0.0162
 3676TIP3    H132663   5.622   5.982   0.244 -1.5083 -0.6783 -1.5298
 3676TIP3    H232664   5.662   5.849   0.186  0.9656 -1.7595  2.2908
 3677TIP3   OH232665   4.748   2.317   7.089  1.1098 -0.1918  0.2770
 3677TIP3    H132666   4.660   2.297   7.121  0.8992 -0.5788 -0.5294
 3677TIP3    H232667   4.783   2.233   7.060  1.0454  0.2296 -1.0982
 3678TIP3   OH232668   4.343   1.447   7.737  0.1342 -0.2187 -0.4136
 3678TIP3    H132669   4.302   1.361   7.746 -0.4825  0.1587  0.4922
 3678TIP3    H232670   4.346   1.462   7.643 -1.7128 -0.3139 -0.5218
 3679TIP3   OH232671   4.308   5.747   7.182  0.0211  0.2057 -0.1846
 3679TIP3    H132672   4.382   5.707   7.137  0.3396  1.1182 -0.4912
 3679TIP3    H232673   4.341   5.832   7.211 -0.0656 -0.4616  2.0623
 3680TIP3   OH232674   5.378   6.890   1.604  0.1391 -0.4888 -0.1834
 3680TIP3    H132675   5.422   6.932   1.530  0.4218  0.1974  0.3651
 3680TIP3    H232676   5.440   6.822   1.633  0.4487 -0.1284  0.0130
 3681TIP3   OH232677   6.180   3.993   2.245  0.6607 -0.0272 -0.9423
 3681TIP3    H132678   6.134   3.913   2.271  0.2975 -0.0053 -1.4909
 3681TIP3    H232679   6.271   3.966   2.232  0.6009 -0.2852 -0.8136
 3682TIP3   OH232680   3.742   0.133   1.560 -0.1137 -0.5277  0.0774
 3682TIP3    H132681   3.763   0.188   1.635  1.5859 -1.7599  0.5695
 3682TIP3    H232682   3.827   0.107   1.525 -0.8818 -0.4642 -1.9275
 3683TIP3   OH232683   2.116   6.627   0.112  0.0062 -0.3415  0.0518
 3683TIP3    H132684   2.048   6.593   0.054  0.0239 -0.7337  0.2597
 3683TIP3    H232685   2.069   6.691   0.166 -0.6331 -1.8794  1.4128
 3684TIP3   OH232686   0.270   1.316   0.082  0.0781  0.5020  0.5234
 3684TIP3    H132687   0.202   1.306   0.014 -0.0058  1.0684  0.5150
 3684TIP3    H232688   0.342   1.360   0.037 -0.5047  2.1346  1.1091
 3685TIP3   OH232689   4.477   7.012   1.488 -0.3418  0.3232  0.4108
 3685TIP3    H132690   4.468   6.941   1.551  0.2191 -0.6647 -0.5832
 3685TIP3    H232691   4.407   6.998   1.425 -0.3789  0.8001  0.3420
 3686TIP3   OH232692   4.115   3.223   2.124  0.1431  0.0770  0.6875
 3686TIP3    H132693   4.158   3.162   2.184 -0.5746  0.8541  2.0302
 3686TIP3    H232694   4.025   3.192   2.119  0.0912  0.2776  0.3669
 3687TIP3   OH232695   5.856   4.896   1.266  0.9124  0.3933 -0.3147
 3687TIP3    H132696   5.950   4.880   1.266  1.3765  2.6113  1.5497
 3687TIP3    H232697   5.841   4.949   1.187  1.6143  1.7651  0.4469
 3688TIP3   OH232698   1.457   4.294   2.478  0.6010  0.6694  0.1627
 3688TIP3    H132699   1.418   4.260   2.398  0.8594  0.4574  0.1273
 3688TIP3    H232700   1.501   4.375   2.452  0.2683  0.8601  0.1850
 3689TIP3   OH232701   4.206   2.937   7.508  0.3924  0.5035  0.0235
 3689TIP3    H132702   4.201   2.859   7.454 -0.2942  0.6030 -0.0617
 3689TIP3    H232703   4.117   2.951   7.540  0.3613  1.6411 -0.5097
 3690TIP3   OH232704   5.720   5.175   2.263  0.8604 -0.2536 -0.1414
 3690TIP3    H132705   5.788   5.233   2.296  1.1405  0.1306 -1.3555
 3690TIP3    H232706   5.759   5.087   2.270  1.0249 -0.1522  0.2600
 3691TIP3   OH232707   6.805   5.868   0.626  0.1875 -0.0679 -0.1429
 3691TIP3    H132708   6.860   5.866   0.547 -0.0426  0.2834 -0.3151
 3691TIP3    H232709   6.734   5.928   0.604  0.6804  0.8547  0.6869
 3692TIP3   OH232710   1.833   6.241   1.492  0.2307  0.3175  0.0011
 3692TIP3    H132711   1.761   6.270   1.436 -0.8317 -0.2339  1.0298
 3692TIP3    H232712   1.801   6.254   1.581  0.7954 -1.3810  0.4937
 3693TIP3   OH232713   0.521   6.910   6.976  0.5756 -0.3310 -0.2240
 3693TIP3    H132714   0.615   6.895   6.963  0.5598 -1.5657  0.8344
 3693TIP3    H232715   0.479   6.860   6.907  0.6460 -2.4303  1.1553
 3694TIP3   OH232716   0.180   3.288   0.194  0.3859  0.6182  0.3135
 3694TIP3    H132717   0.191   3.275   0.289 -0.4043 -0.1938  0.3016
 3694TIP3    H232718   0.173   3.200   0.158  2.4814  0.8302 -0.7534
 3695TIP3   OH232719   1.164   5.300   6.589  0.1164 -0.1151  0.2043
 3695TIP3    H132720   1.121   5.246   6.522 -0.5042 -1.0978  1.3476
 3695TIP3    H232721   1.102   5.372   6.605  0.6847  0.6527 -0.9074
 3696TIP3   OH232722   5.203   4.669   0.720 -0.0076  0.1791 -0.0732
 3696TIP3    H132723   5.244   4.679   0.635 -0.0630  0.9834 -0.0085
 3696TIP3    H232724   5.161   4.583   0.716  1.3495 -0.5074 -0.2724
 3697TIP3   OH232725   0.338   2.435   7.661 -0.1804  0.5591  0.0566
 3697TIP3    H132726   0.252   2.474   7.646 -0.0688  0.9782  0.4887
 3697TIP3    H232727   0.330   2.346   7.627 -0.9548  0.4251  0.5655
 3698TIP3   OH232728   3.205   6.742   1.656  0.2612 -0.1303 -0.3787
 3698TIP3    H132729   3.171   6.657   1.628 -2.2131  0.5572  0.3174
 3698TIP3    H232730   3.147   6.769   1.727  0.8995  2.2203 -0.6646
 3699TIP3   OH232731   6.087   0.732   1.216 -0.7615  0.4525 -0.4001
 3699TIP3    H132732   6.058   0.728   1.307 -1.3180  0.3829 -0.5752
 3699TIP3    H232733   6.170   0.780   1.219  1.8274 -3.6134  0.7708
 3700TIP3   OH232734   2.167   5.723   2.172  0.0799  0.1964 -0.2872
 3700TIP3    H132735   2.189   5.633   2.198 -0.5932 -0.0321 -0.4754
 3700TIP3    H232736   2.212   5.778   2.235  3.0676 -0.1171 -1.9220
 3701TIP3   OH232737   6.745   1.335   7.405  0.6810  0.6676  0.2139
 3701TIP3    H132738   6.651   1.344   7.420  0.6475  1.5816 -0.4360
 3701TIP3    H232739   6.780   1.423   7.420  1.2203  0.6574 -0.9245
 3702TIP3   OH232740   1.059   6.467   7.863 -0.3578  0.3600  0.4802
 3702TIP3    H132741   1.016   6.551   7.847 -0.5457  0.1733 -0.0071
 3702TIP3    H232742   1.035   6.446   7.954 -3.1815 -0.8059 -0.4381
 3703TIP3   OH232743   1.618   4.781   1.270  0.3407 -0.3492 -0.5572
 3703TIP3    H132744   1.588   4.798   1.181  0.9562 -0.6321 -0.8253
 3703TIP3    H232745   1.632   4.686   1.272  1.9956 -0.1356 -0.7013
 3704TIP3   OH232746   3.987   6.653   8.190 -0.0384 -0.0725 -0.2155
 3704TIP3    H132747   3.927   6.643   8.265 -1.0687  1.1325 -0.8394
 3704TIP3    H232748   4.035   6.733   8.210 -0.3288  0.2609 -0.8393
 3705TIP3   OH232749   1.229   3.830   7.644 -0.4669  0.0044 -0.4197
 3705TIP3    H132750   1.254   3.922   7.634  2.7338 -0.5147  1.3801
 3705TIP3    H232751   1.161   3.831   7.711 -0.2706  1.0778 -0.2080
 3706TIP3   OH232752   0.613   6.706   0.379  0.8730 -0.4818 -0.0109
 3706TIP3    H132753   0.565   6.642   0.326  0.4814  0.9563 -1.4698
 3706TIP3    H232754   0.695   6.719   0.333  1.6392 -1.0899  1.1493
 3707TIP3   OH232755   3.003   4.816   1.781 -0.0818  1.0346 -0.1938
 3707TIP3    H132756   3.033   4.895   1.827 -1.5607  1.9707 -0.7825
 3707TIP3    H232757   2.983   4.846   1.692 -0.0900 -0.1417 -0.6029
 3708TIP3   OH232758   1.979   6.460   1.601 -0.7348  0.3979 -0.2129
 3708TIP3    H132759   1.942   6.376   1.573 -1.3538 -0.4252  2.7419
 3708TIP3    H232760   1.916   6.493   1.666  1.7290  0.8468  2.1033
 3709TIP3   OH232761   3.523   6.941   1.623  0.3420  0.0304 -0.5052
 3709TIP3    H132762   3.495   6.861   1.579  0.2818  0.4663 -1.2754
 3709TIP3    H232763   3.527   6.917   1.715 -0.8963 -0.5125 -0.5795
 3710TIP3   OH232764   0.386   4.088   6.603  0.6508  0.2546  0.5595
 3710TIP3    H132765   0.331   4.053   6.533  1.2008  0.7961 -0.1623
 3710TIP3    H232766   0.455   4.024   6.614  0.0053 -0.3317  1.3325
 3711TIP3   OH232767   3.145   3.386   6.864 -0.6437 -0.2589 -0.5249
 3711TIP3    H132768   3.113   3.476   6.869 -0.5521 -0.1623 -1.6045
 3711TIP3    H232769   3.214   3.382   6.931  0.2263  0.8371 -1.3298
 3712TIP3   OH232770   6.899   3.668   7.282  0.0416 -0.1563 -0.0111
 3712TIP3    H132771   6.962   3.660   7.353  0.9996  0.6964 -0.7185
 3712TIP3    H232772   6.837   3.597   7.296  1.8923 -1.8582 -0.0047
 3713TIP3   OH232773   3.999   0.976   6.426 -0.1847  0.8837 -0.2014
 3713TIP3    H132774   4.035   0.888   6.437 -0.2592  0.7652 -0.8739
 3713TIP3    H232775   3.904   0.963   6.434 -0.1691  0.9733  0.1407
 3714TIP3   OH232776   5.406   1.622   0.100  0.4262 -0.2494 -0.3132
 3714TIP3    H132777   5.457   1.590   0.175  1.6904 -0.9623 -1.4214
 3714TIP3    H232778   5.461   1.690   0.060 -1.0360  1.4290  0.4144
 3715TIP3   OH232779   5.856   2.040   7.889 -0.2052 -0.0807  0.1256
 3715TIP3    H132780   5.786   2.063   7.950 -1.2830 -0.4901 -0.9050
 3715TIP3    H232781   5.863   2.115   7.830  2.0167  1.0641  1.7101
 3716TIP3   OH232782   2.150   5.313   0.504 -0.4338  0.2924  0.1796
 3716TIP3    H132783   2.130   5.314   0.410  0.1230  0.0477  0.0493
 3716TIP3    H232784   2.093   5.245   0.540 -1.4643  1.1640  0.2218
 3717TIP3   OH232785   4.198   5.128   1.471 -0.1603  0.0506  0.2861
 3717TIP3    H132786   4.255   5.159   1.400  0.9729 -2.9928 -0.2758
 3717TIP3    H232787   4.256   5.124   1.548 -0.2901 -0.5838  0.3542
 3718TIP3   OH232788   6.681   6.981   1.274  0.3618 -0.3551 -0.0321
 3718TIP3    H132789   6.644   7.050   1.328 -0.8090 -0.2144 -0.9649
 3718TIP3    H232790   6.771   7.009   1.256  0.4811  0.0137  1.0906
 3719TIP3   OH232791   2.035   2.074   0.820  0.0550 -0.2948  0.1775
 3719TIP3    H132792   2.026   1.980   0.806  2.9834 -0.5294 -0.9307
 3719TIP3    H232793   2.031   2.085   0.915  3.3488 -2.1717  0.6695
 3720TIP3   OH232794   2.131   2.308   1.850  0.0476 -0.1033  0.6112
 3720TIP3    H132795   2.042   2.288   1.880 -1.4047  0.6982 -2.6685
 3720TIP3    H232796   2.170   2.222   1.832 -1.1662 -0.4484 -0.5583
 3721TIP3   OH232797   3.449   0.517   1.485  0.5665 -0.2382 -0.1471
 3721TIP3    H132798   3.499   0.599   1.491  0.6188 -0.2200 -0.7911
 3721TIP3    H232799   3.503   0.460   1.431  0.6951 -0.8326  0.5967
 3722TIP3   OH232800   5.172   3.478   0.871 -0.3527 -0.5712  0.1250
 3722TIP3    H132801   5.077   3.491   0.873 -0.2402  0.2281  1.2104
 3722TIP3    H232802   5.183   3.387   0.843 -1.3334  0.0982 -2.8777
 3723TIP3   OH232803   6.951   1.261   7.946 -0.4493  0.4824  0.0606
 3723TIP3    H132804   6.931   1.234   7.856  1.1844  0.8973 -0.4661
 3723TIP3    H232805   6.877   1.315   7.972 -1.3812 -0.3892 -0.6904
 3724TIP3   OH232806   3.177   4.355   2.460 -0.2648  0.0856  0.2072
 3724TIP3    H132807   3.221   4.272   2.480 -1.7916 -1.1799 -1.4160
 3724TIP3    H232808   3.096   4.353   2.510 -1.3708 -0.4827 -1.5228
 3725TIP3   OH232809   0.716   2.281   1.020 -0.3018  0.5834  0.2519
 3725TIP3    H132810   0.636   2.334   1.019 -0.8869 -0.2797  0.1282
 3725TIP3    H232811   0.777   2.328   0.964 -1.2528  0.4572 -0.9124
 3726TIP3   OH232812   3.641   3.096   0.355 -0.3367 -0.3612  0.4735
 3726TIP3    H132813   3.676   3.081   0.443  1.0212 -2.6463 -0.3802
 3726TIP3    H232814   3.590   3.018   0.335  0.7462 -0.6819 -1.3487
 3727TIP3   OH232815   0.924   1.722   8.141  0.9661 -0.0780  0.1006
 3727TIP3    H132816   0.989   1.788   8.165  2.0088 -1.0258 -0.0336
 3727TIP3    H232817   0.930   1.716   8.046  1.5620 -1.0385  0.1897
 3728TIP3   OH232818   0.347   5.194   0.421 -0.7567  0.4167 -0.2501
 3728TIP3    H132819   0.339   5.284   0.451 -1.2404  0.5442 -0.7528
 3728TIP3    H232820   0.310   5.142   0.493 -0.1556  0.5907  0.1885
 3729TIP3   OH232821   6.837   4.883   7.517  0.4491  0.0836 -0.6390
 3729TIP3    H132822   6.899   4.816   7.542  1.8060  1.9877  1.5344
 3729TIP3    H232823   6.775   4.887   7.589 -0.7554 -0.0934 -1.6267
 3730TIP3   OH232824   4.530   2.439   7.399 -0.0427  0.0226 -0.1274
 3730TIP3    H132825   4.466   2.411   7.465 -1.0354 -0.5116 -1.2957
 3730TIP3    H232826   4.525   2.372   7.331  2.0390 -0.2244 -0.0883
 3731TIP3   OH232827   0.173   2.098   1.902 -0.1173  0.3181 -0.5492
 3731TIP3    H132828   0.163   2.093   1.997 -0.1041  0.4481 -0.5409
 3731TIP3    H232829   0.164   2.191   1.882 -0.7371  0.2197 -0.7455
 3732TIP3   OH232830   6.342   3.074   0.605  0.2905 -0.5524  0.5113
 3732TIP3    H132831   6.355   2.985   0.573 -0.2263  0.1208 -1.7053
 3732TIP3    H232832   6.377   3.130   0.536 -0.7589  0.9891  1.1818
 3733TIP3   OH232833   4.495   6.517   7.849  0.0400  0.0546  0.2612
 3733TIP3    H132834   4.505   6.594   7.793  0.4890  0.3380  0.7158
 3733TIP3    H232835   4.550   6.536   7.926 -2.7694  0.9643  2.2174
 3734TIP3   OH232836   0.672   2.415   0.691 -0.3417  0.0255 -0.5656
 3734TIP3    H132837   0.737   2.458   0.746 -0.9951  1.2641 -0.7017
 3734TIP3    H232838   0.607   2.381   0.752  0.4539 -1.2959 -0.4245
 3735TIP3   OH232839   6.811   2.751   0.526  0.1423 -0.0259  0.1447
 3735TIP3    H132840   6.824   2.839   0.490 -1.1287 -0.2549 -0.9804
 3735TIP3    H232841   6.815   2.694   0.449  1.2996 -1.0126  0.9047
 3736TIP3   OH232842   6.849   1.150   1.344 -0.6238  0.3838  0.6171
 3736TIP3    H132843   6.800   1.227   1.373 -0.2468  0.7376  0.3195
 3736TIP3    H232844   6.938   1.165   1.375 -0.0668  1.0511 -1.1910
 3737TIP3   OH232845   0.759   5.069   1.269 -0.0275  0.2795 -0.0966
 3737TIP3    H132846   0.728   5.009   1.337 -0.0143  0.3652 -0.0147
 3737TIP3    H232847   0.805   5.014   1.206  1.3634  0.4077  0.7745
 3738TIP3   OH232848   5.886   3.311   0.894 -0.1945  0.6603 -0.1757
 3738TIP3    H132849   5.869   3.232   0.844  0.7092  0.6271 -0.4567
 3738TIP3    H232850   5.809   3.366   0.880 -0.1621  0.4572 -1.2179
 3739TIP3   OH232851   3.589   3.776   0.682  0.3078 -0.7539 -0.3007
 3739TIP3    H132852   3.620   3.848   0.627  2.1890 -0.9648  0.4284
 3739TIP3    H232853   3.652   3.705   0.667 -0.4131 -1.5813  0.4571
 3740TIP3   OH232854   6.979   2.551   7.813 -0.3516  0.0338  0.0293
 3740TIP3    H132855   6.958   2.485   7.746  0.9268  0.1428 -0.5101
 3740TIP3    H232856   6.935   2.519   7.891 -0.4524 -1.0344 -0.4313
 3741TIP3   OH232857   1.214   2.539   0.937  0.2104  0.1135 -0.3871
 3741TIP3    H132858   1.201   2.455   0.981  2.9238 -0.8730 -1.2688
 3741TIP3    H232859   1.188   2.604   1.001  0.7363 -1.3400  1.3737
 3742TIP3   OH232860   0.358   5.553   2.332 -0.9072 -0.4372 -0.3982
 3742TIP3    H132861   0.443   5.513   2.353 -2.0670 -2.6402  0.3277
 3742TIP3    H232862   0.369   5.645   2.356  1.3298 -0.6151 -0.5097
 3743TIP3   OH232863   1.459   3.310   7.971 -0.0877  0.4854 -0.5868
 3743TIP3    H132864   1.369   3.311   8.004 -0.3180  1.8784 -1.2061
 3743TIP3    H232865   1.469   3.392   7.924  1.5678  0.4221 -0.4217
 3744TIP3   OH232866   2.739   6.004   8.021  0.3498  0.0903 -0.5537
 3744TIP3    H132867   2.664   5.946   8.019  0.1400  0.3466 -2.4836
 3744TIP3    H232868   2.718   6.069   8.088 -1.7678  0.8824 -1.8838
 3745TIP3   OH232869   3.326   6.747   1.986 -0.6500  0.2000 -0.5964
 3745TIP3    H132870   3.240   6.785   2.003 -1.0969  0.1911 -2.5613
 3745TIP3    H232871   3.359   6.722   2.072 -1.6927  2.1492  0.4375
 3746TIP3   OH232872   2.247   4.864   7.025  0.6462 -0.2935  0.1968
 3746TIP3    H132873   2.297   4.789   7.055  0.5006 -0.5421 -0.1742
 3746TIP3    H232874   2.156   4.836   7.029  0.5227  0.1954  0.9757
 3747TIP3   OH232875   2.334   2.277   7.994 -0.3865 -0.5693  0.0408
 3747TIP3    H132876   2.322   2.325   7.912 -0.0385 -1.3543 -0.4858
 3747TIP3    H232877   2.287   2.194   7.980  2.3175 -2.1247 -0.6602
 3748TIP3   OH232878   4.168   6.140   1.352  0.3034 -0.3884  0.1872
 3748TIP3    H132879   4.201   6.163   1.438  2.0040 -1.0923 -0.2383
 3748TIP3    H232880   4.240   6.094   1.310 -0.2073  0.5704 -1.8892
 3749TIP3   OH232881   5.995   5.434   2.049  0.0006 -0.7104 -0.0489
 3749TIP3    H132882   6.023   5.343   2.041  1.9500 -0.2988  1.2601
 3749TIP3    H232883   6.004   5.454   2.143  1.5367  1.3549 -0.5533
 3750TIP3   OH232884   4.932   5.148   6.375  0.0351  0.0681 -0.2774
 3750TIP3    H132885   4.967   5.059   6.373 -1.0817 -0.3830 -0.2612
 3750TIP3    H232886   5.003   5.202   6.340  1.0628 -0.7002  0.5671
 3751TIP3   OH232887   1.303   1.093   6.898  0.1613 -0.0608 -0.3621
 3751TIP3    H132888   1.374   1.156   6.912 -0.8041  0.6814  1.6123
 3751TIP3    H232889   1.239   1.141   6.846 -0.7311  0.7984  1.4355
 3752TIP3   OH232890   2.922   6.844   8.046  1.0550  0.1898 -0.2614
 3752TIP3    H132891   2.942   6.784   8.117 -1.1079 -1.2861 -0.7984
 3752TIP3    H232892   2.950   6.799   7.967 -0.6751 -0.2294 -0.6806
 3753TIP3   OH232893   2.741   0.953   8.176 -0.2276  0.5728 -0.0858
 3753TIP3    H132894   2.676   0.956   8.107  0.2847 -0.0615 -0.6144
 3753TIP3    H232895   2.823   0.977   8.133  0.1318 -0.0368  0.2421
 3754TIP3   OH232896   4.003   6.623   2.390  0.9620 -0.5503  0.3833
 3754TIP3    H132897   4.042   6.553   2.442 -2.3720 -1.1433  2.3745
 3754TIP3    H232898   3.909   6.607   2.394 -0.0025  3.8149  0.6442
 3755TIP3   OH232899   3.664   0.351   6.585 -0.6901 -0.3668  0.3060
 3755TIP3    H132900   3.605   0.280   6.611 -0.5607 -1.2626 -1.5926
 3755TIP3    H232901   3.616   0.431   6.603 -1.9232 -1.0348  0.1102
 3756TIP3   OH232902   5.900   6.874   1.105  0.0881 -0.3288 -0.2778
 3756TIP3    H132903   5.834   6.821   1.061 -0.8812 -0.0337  0.7709
 3756TIP3    H232904   5.970   6.812   1.127 -1.3518 -1.4197  1.5952
 3757TIP3   OH232905   5.286   0.512   7.651  0.7767 -0.3572  0.2413
 3757TIP3    H132906   5.339   0.502   7.572 -1.6238 -2.5634 -1.2281
 3757TIP3    H232907   5.246   0.599   7.642 -0.1091 -0.9027 -1.4278
 3758TIP3   OH232908   5.826   3.827   7.567  0.3807  0.8628 -0.2515
 3758TIP3    H132909   5.846   3.824   7.474 -3.2026  1.6937 -1.1945
 3758TIP3    H232910   5.845   3.738   7.598  1.4633  0.5176 -1.8087
 3759TIP3   OH232911   0.054   5.825   1.333  0.0947  0.1696 -0.2626
 3759TIP3    H132912  -0.003   5.852   1.406 -0.2707 -1.4283  0.0929
 3759TIP3    H232913   0.091   5.906   1.300 -0.1124  0.9921  1.4027
 3760TIP3   OH232914   0.168   4.691   3.008 -0.1949 -0.0766 -0.3370
 3760TIP3    H132915   0.254   4.712   3.045 -0.5087  0.0487  0.3531
 3760TIP3    H232916   0.169   4.729   2.920 -0.5945  2.6287  0.7098
 3761TIP3   OH232917   6.313   1.882   1.421 -0.0196 -0.5100  0.1042
 3761TIP3    H132918   6.252   1.938   1.469  0.9329  1.5398 -0.9696
 3761TIP3    H232919   6.257   1.832   1.361 -0.7680  0.4370 -0.0095
 3762TIP3   OH232920   1.835   1.043   8.159 -0.0878  0.0649 -0.0028
 3762TIP3    H132921   1.838   1.105   8.232 -1.0042  0.1680 -0.0473
 3762TIP3    H232922   1.747   1.052   8.123 -0.1125 -0.9992 -0.2411
 3763TIP3   OH232923   0.924   4.706   2.455  0.4594  0.3656 -0.1240
 3763TIP3    H132924   0.919   4.656   2.373 -0.1829 -0.1301  0.2119
 3763TIP3    H232925   0.952   4.793   2.427  1.1673 -0.0550 -0.7667
 3764TIP3   OH232926   0.371   2.567   1.068 -0.1010 -1.0644 -0.4439
 3764TIP3    H132927   0.388   2.580   1.162  0.1546  0.3283 -0.6457
 3764TIP3    H232928   0.276   2.568   1.060 -0.1279 -1.4163 -0.1681
 3765TIP3   OH232929   1.848   2.151   0.279  0.0449  0.1240  0.6221
 3765TIP3    H132930   1.801   2.223   0.321  0.5070  0.1493  1.1063
 3765TIP3    H232931   1.911   2.122   0.345 -0.1232 -0.7095  0.4190
 3766TIP3   OH232932   2.143   3.219   1.164 -0.7634  0.0176  0.2968
 3766TIP3    H132933   2.142   3.200   1.070 -0.8887  0.6715  0.1650
 3766TIP3    H232934   2.160   3.134   1.205 -2.9686 -0.7288 -0.1999
 3767TIP3   OH232935   2.967   2.667   0.401 -0.4394  0.0750  0.3466
 3767TIP3    H132936   2.958   2.682   0.306  1.6947 -0.7459 -0.0507
 3767TIP3    H232937   2.934   2.747   0.441 -0.6603  0.7724 -1.1444
 3768TIP3   OH232938   2.205   3.865   6.924 -0.4093 -0.1208 -0.4184
 3768TIP3    H132939   2.256   3.803   6.872  0.1432 -0.2102  0.2087
 3768TIP3    H232940   2.257   3.946   6.921 -0.6517  0.0327 -0.4590
 3769TIP3   OH232941   5.547   3.272   2.967  0.1373 -0.4884  0.0630
 3769TIP3    H132942   5.598   3.295   2.890 -1.1760  0.3067 -0.6042
 3769TIP3    H232943   5.611   3.268   3.038  1.2126 -0.1599 -0.8653
 3770TIP3   OH232944   4.085   3.979   0.579 -0.3136 -0.1485 -0.1646
 3770TIP3    H132945   4.014   4.043   0.570  1.0485  1.2000 -2.3144
 3770TIP3    H232946   4.066   3.913   0.512 -1.5767 -1.9844  1.8781
 3771TIP3   OH232947   3.652   5.733   1.974 -0.3174 -0.0264 -0.2341
 3771TIP3    H132948   3.646   5.820   1.935 -1.9575 -0.6505 -1.5220
 3771TIP3    H232949   3.663   5.749   2.068  0.4495  1.5464 -0.5755
 3772TIP3   OH232950   0.535   6.205   1.259 -0.1046  0.2931 -0.0600
 3772TIP3    H132951   0.580   6.273   1.308  1.0444 -1.0122  0.7718
 3772TIP3    H232952   0.481   6.159   1.324  0.6605 -0.8160 -0.1771
 3773TIP3   OH232953   1.984   5.938   6.389 -0.1926 -0.0076 -0.0479
 3773TIP3    H132954   1.916   5.938   6.322 -0.2418  1.3463 -0.0304
 3773TIP3    H232955   2.011   5.846   6.397 -0.7153 -0.2890 -1.3679
 3774TIP3   OH232956   3.304   3.439   0.799 -0.4969 -0.3209  0.0433
 3774TIP3    H132957   3.289   3.365   0.858  0.0348 -1.2507 -0.9530
 3774TIP3    H232958   3.243   3.507   0.829 -1.1856 -1.2559  0.8105
 3775TIP3   OH232959   1.348   2.859   0.145  0.0738  0.4743 -0.4361
 3775TIP3    H132960   1.335   2.929   0.080  0.8205 -0.1097 -1.2349
 3775TIP3    H232961   1.325   2.779   0.099 -1.0771  0.1958  0.5717
 3776TIP3   OH232962   6.923   2.046   0.532 -0.2084 -0.6609 -0.2118
 3776TIP3    H132963   6.964   1.962   0.515 -1.0579 -1.1337  0.0291
 3776TIP3    H232964   6.907   2.046   0.627  0.8539  0.2655 -0.0184
 3777TIP3   OH232965   4.824   3.294   7.924 -0.1309 -0.5987  0.1201
 3777TIP3    H132966   4.734   3.262   7.930 -0.3969  0.0397 -0.3454
 3777TIP3    H232967   4.867   3.260   8.002 -1.1414  0.2249  1.0699
 3778TIP3   OH232968   4.051   5.462   7.966  0.2372 -0.2484 -0.5614
 3778TIP3    H132969   4.041   5.422   7.880 -0.0174 -0.0331 -0.6332
 3778TIP3    H232970   4.049   5.556   7.949 -1.3911 -0.1750 -0.1555
 3779TIP3   OH232971   5.494   5.021   1.816 -0.1135  0.2115 -0.3774
 3779TIP3    H132972   5.573   5.061   1.779 -0.9131 -0.1938 -2.6775
 3779TIP3    H232973   5.433   5.093   1.828  0.7475  0.6289  2.0198
 3780TIP3   OH232974   4.095   5.556   8.210 -0.1560 -0.2150 -0.0229
 3780TIP3    H132975   4.052   5.638   8.183 -1.5529 -0.8645  0.1515
 3780TIP3    H232976   4.101   5.505   8.130 -0.2405 -0.3579  0.0616
 3781TIP3   OH232977   4.552   2.892   0.273  0.1148  0.6158 -0.0923
 3781TIP3    H132978   4.533   2.982   0.300 -0.8349 -0.2687  2.4607
 3781TIP3    H232979   4.612   2.859   0.339  1.1502 -0.4056 -1.4837
 3782TIP3   OH232980   1.231   1.260   0.595  0.8186 -0.9749 -0.1490
 3782TIP3    H132981   1.309   1.205   0.584  3.0717  1.5698  1.6750
 3782TIP3    H232982   1.251   1.315   0.671 -2.3615  0.5748 -0.2552
 3783TIP3   OH232983   0.222   0.218   6.915  0.6529 -0.8997 -0.1852
 3783TIP3    H132984   0.306   0.196   6.955  0.0505 -1.2219  0.9614
 3783TIP3    H232985   0.183   0.133   6.895 -0.7549 -0.9495  2.2746
 3784TIP3   OH232986   4.170   6.911   1.464 -0.3032 -0.2048  0.2692
 3784TIP3    H132987   4.106   6.893   1.533 -0.6958  1.4477  0.3593
 3784TIP3    H232988   4.206   6.825   1.443 -2.7692 -1.2670  0.0021
 3785TIP3   OH232989   0.039   2.428   8.167 -0.3649 -0.0476  0.0493
 3785TIP3    H132990   0.097   2.498   8.137 -0.9777  1.0767  1.3719
 3785TIP3    H232991   0.095   2.374   8.224  0.0541 -0.5218 -0.7991
 3786TIP3   OH232992   3.989   0.424   7.600 -0.6363 -0.2914 -0.0724
 3786TIP3    H132993   3.953   0.340   7.572 -0.5584  0.0271 -1.1904
 3786TIP3    H232994   4.083   0.417   7.584 -0.8996  0.8831 -2.7426
 3787TIP3   OH232995   2.345   5.017   0.529 -0.2169 -0.8856 -0.1441
 3787TIP3    H132996   2.295   5.096   0.550 -0.2318 -0.5974 -1.2267
 3787TIP3    H232997   2.281   4.946   0.538 -0.1087 -0.8492  1.2179
 3788TIP3   OH232998   1.729   3.401   7.598 -0.1639 -0.3153 -0.5313
 3788TIP3    H132999   1.798   3.361   7.545  1.5157 -0.1248  1.3891
 3788TIP3    H233000   1.745   3.369   7.687 -2.1783  0.2702  0.1082
 3789TIP3   OH233001   1.264   1.637   1.600 -0.0815  0.3733  0.2516
 3789TIP3    H133002   1.314   1.582   1.660 -1.6961  1.9098  3.2267
 3789TIP3    H233003   1.173   1.622   1.624 -0.7117  2.1136 -0.8661
 3790TIP3   OH233004   5.534   6.271   2.414 -0.2126 -0.1469  0.1023
 3790TIP3    H133005   5.512   6.323   2.491 -0.6365  1.0002 -0.7500
 3790TIP3    H233006   5.468   6.202   2.412  0.2834 -0.6685  1.1924
 3791TIP3   OH233007   5.232   6.183   6.734  0.1970 -0.8423 -0.2478
 3791TIP3    H133008   5.211   6.204   6.825 -0.8167 -1.4305 -0.3292
 3791TIP3    H233009   5.326   6.203   6.726  0.0927  0.1215  0.6489
 3792TIP3   OH233010   1.306   0.130   4.870  0.0350  0.3649 -0.4318
 3792TIP3    H133011   1.358   0.101   4.945 -0.7106  0.5755  0.1777
 3792TIP3    H233012   1.221   0.152   4.907  0.0028  1.5626 -1.1616
 3793TIP3   OH233013   1.696   6.165   0.358  0.0999 -0.3099 -0.5160
 3793TIP3    H133014   1.637   6.143   0.286  1.9942 -0.4991 -2.1036
 3793TIP3    H233015   1.651   6.235   0.405 -2.0991 -1.5582 -0.6351
 3794TIP3   OH233016   1.558   3.337   6.546 -0.0872  0.1225  0.7722
 3794TIP3    H133017   1.521   3.420   6.515  0.5499  0.0319 -0.2416
 3794TIP3    H233018   1.636   3.363   6.596 -0.6034  0.2028  1.5666
 3795TIP3   OH233019   0.370   3.750   7.279 -0.3186 -0.2286  0.0184
 3795TIP3    H133020   0.392   3.840   7.301 -1.1574  0.2277 -0.9527
 3795TIP3    H233021   0.444   3.719   7.226 -0.2533  0.0426 -0.0498
 3796TIP3   OH233022   6.102   4.605   1.940 -0.6999 -0.3083  0.4577
 3796TIP3    H133023   6.130   4.602   1.848  0.7267 -0.4894  0.8744
 3796TIP3    H233024   6.010   4.578   1.938 -0.6570 -0.4297 -0.8954
 3797TIP3   OH233025   2.823   5.610   7.638  0.5890  0.0015 -0.2334
 3797TIP3    H133026   2.819   5.673   7.710  2.3157  2.6138 -2.2205
 3797TIP3    H233027   2.785   5.657   7.563 -1.0380 -2.5481 -1.1396
 3798TIP3   OH233028   3.061   4.262   0.466 -0.3300 -0.2310  0.3347
 3798TIP3    H133029   3.029   4.240   0.379 -0.8402  0.0712  0.4400
 3798TIP3    H233030   3.156   4.261   0.458 -0.3570  1.1618 -0.5822
 3799TIP3   OH233031   7.045   5.403   7.270  0.2662 -0.5216  0.1754
 3799TIP3    H133032   6.950   5.415   7.265  0.3717  0.1043 -0.7530
 3799TIP3    H233033   7.079   5.463   7.204  1.3175 -0.6677  0.5719
 3800TIP3   OH233034   3.400   5.855   1.652  0.0089 -0.1001  0.1945
 3800TIP3    H133035   3.482   5.807   1.640  0.4273  0.7505 -0.4098
 3800TIP3    H233036   3.384   5.852   1.746  0.6658 -0.3704  0.3000
 3801TIP3   OH233037   0.300   1.359   7.813  0.8596  0.0270 -0.1996
 3801TIP3    H133038   0.254   1.280   7.843  0.9273 -0.6887 -1.8946
 3801TIP3    H233039   0.232   1.426   7.809  0.8399  0.1531  1.4555
 3802TIP3   OH233040   2.394   4.613   0.623 -0.6516  0.5509  0.0369
 3802TIP3    H133041   2.466   4.673   0.601  0.5044 -0.6373  0.4686
 3802TIP3    H233042   2.396   4.606   0.718 -0.0316 -1.0327 -0.0712
 3803TIP3   OH233043   6.611   0.438   8.033 -0.1253 -0.4811 -0.4339
 3803TIP3    H133044   6.574   0.366   7.981  0.9136  0.6174 -2.8634
 3803TIP3    H233045   6.642   0.397   8.113 -0.5584 -2.5287 -1.2593
 3804TIP3   OH233046   5.426   6.434   0.123  0.8323 -0.8568  0.3757
 3804TIP3    H133047   5.514   6.470   0.125 -0.4102  2.7730 -1.0228
 3804TIP3    H233048   5.417   6.398   0.034  0.3366  0.6414 -0.2107
 3805TIP3   OH233049   1.666   6.066   6.904 -0.2019  0.2501 -0.7770
 3805TIP3    H133050   1.719   6.002   6.857  2.0175  0.4554  1.3056
 3805TIP3    H233051   1.624   6.016   6.974  0.4263  0.7961 -0.0002
 3806TIP3   OH233052   6.994   5.543   1.084 -0.0526 -0.1429 -0.2092
 3806TIP3    H133053   6.973   5.492   1.006 -2.5767  1.8112 -0.9382
 3806TIP3    H233054   7.069   5.596   1.058  1.2945 -1.9076 -0.1052
 3807TIP3   OH233055   4.327   4.853   1.302 -0.2902 -0.3100  0.1134
 3807TIP3    H133056   4.322   4.758   1.312  0.4238 -0.3637  0.0586
 3807TIP3    H233057   4.312   4.888   1.389  0.5024 -0.5295  0.3498
 3808TIP3   OH233058   5.088   3.836   0.694 -0.1196  0.1746 -0.0560
 3808TIP3    H133059   5.126   3.845   0.781 -1.2177  0.5728  0.4022
 3808TIP3    H233060   4.996   3.814   0.709 -0.1665 -0.4450 -1.1236
 3809TIP3   OH233061   3.155   3.753   8.077  0.1324  0.1356  0.1830
 3809TIP3    H133062   3.132   3.722   8.164  0.1961 -0.0799  0.1245
 3809TIP3    H233063   3.114   3.690   8.017 -0.5571  0.7096  0.0360
 3810TIP3   OH233064   4.604   5.946   6.972 -0.1304  0.0562  0.2133
 3810TIP3    H133065   4.689   5.989   6.963  0.3741 -0.5464  1.7227
 3810TIP3    H233066   4.624   5.857   6.999 -1.2353 -0.4031 -0.3737
 3811TIP3   OH233067   0.266   5.270   6.741 -0.1140  0.1135  0.7329
 3811TIP3    H133068   0.340   5.210   6.743  0.9535  1.2129 -1.6602
 3811TIP3    H233069   0.193   5.218   6.709  0.7172 -0.0629 -0.9902
 3812TIP3   OH233070   3.282   1.091   1.245  0.1615  0.5218 -0.0357
 3812TIP3    H133071   3.369   1.107   1.281  0.2596 -0.0144 -0.0175
 3812TIP3    H233072   3.252   1.012   1.291  0.1513  0.0248 -0.8754
 3813TIP3   OH233073   5.975   6.046   1.820 -0.0398  0.4506  0.5440
 3813TIP3    H133074   5.922   6.121   1.845  0.7371  1.5509 -0.9327
 3813TIP3    H233075   5.943   6.022   1.733  0.5100 -0.1790  0.5053
 3814TIP3   OH233076   3.523   3.224   7.472  0.0038 -0.2586  0.4580
 3814TIP3    H133077   3.611   3.200   7.500 -0.6839 -1.0575  2.0760
 3814TIP3    H233078   3.521   3.204   7.378  1.5023 -0.3006  0.4099
 3815TIP3   OH233079   4.425   3.635   1.381  0.7863  0.4542 -0.3071
 3815TIP3    H133080   4.366   3.688   1.435  2.9418  0.7325  2.0002
 3815TIP3    H233081   4.452   3.694   1.310 -1.8394  0.2088 -1.6081
 3816TIP3   OH233082   1.873   0.199   6.443 -0.3935  0.2716  0.2341
 3816TIP3    H133083   1.915   0.283   6.462  0.1624  0.2179 -0.6808
 3816TIP3    H233084   1.942   0.148   6.399 -0.6782 -0.7160  0.8997
 3817TIP3   OH233085   3.828   1.464   7.972  0.0656 -0.1426  0.0304
 3817TIP3    H133086   3.848   1.509   8.054  0.3373  0.4954 -0.3803
 3817TIP3    H233087   3.913   1.451   7.931  0.0025 -1.1361  0.1855
 3818TIP3   OH233088   3.627   6.398   0.838  0.2559 -0.0650  0.3193
 3818TIP3    H133089   3.645   6.329   0.774  0.7191  0.5315 -0.2001
 3818TIP3    H233090   3.533   6.391   0.856 -0.0060  0.1523 -0.8798
 3819TIP3   OH233091   3.231   0.206   0.152 -0.0021  0.5332 -0.6059
 3819TIP3    H133092   3.280   0.253   0.085  1.3020 -0.9910 -0.7699
 3819TIP3    H233093   3.144   0.195   0.114  0.5323  0.2536 -1.7978
 3820TIP3   OH233094   5.491   2.425   0.653  0.0158  0.4311 -0.3257
 3820TIP3    H133095   5.536   2.460   0.729 -1.1321 -0.6289  0.8984
 3820TIP3    H233096   5.422   2.489   0.634 -1.9146 -0.8726  1.7475
 3821TIP3   OH233097   5.981   0.306   0.451  0.0118 -0.6776 -0.1299
 3821TIP3    H133098   6.044   0.304   0.524  0.5270  0.7080 -0.5150
 3821TIP3    H233099   5.932   0.224   0.460  0.6229 -0.9181  1.2834
 3822TIP3   OH233100   4.738   4.164   0.413 -0.6297 -0.0773  0.8242
 3822TIP3    H133101   4.647   4.159   0.384 -0.5274  0.3957  0.4046
 3822TIP3    H233102   4.755   4.257   0.424 -0.0112 -0.1191  0.2773
 3823TIP3   OH233103   1.840   0.935   2.249  0.5095  0.6224  0.6958
 3823TIP3    H133104   1.811   0.855   2.292 -1.4864 -0.2264 -1.9843
 3823TIP3    H233105   1.796   1.005   2.297  0.0439 -0.1018  1.3505
 3824TIP3   OH233106   4.556   0.179   1.513  0.4681 -0.4141  0.1835
 3824TIP3    H133107   4.539   0.206   1.604  0.8036 -2.1610  0.7953
 3824TIP3    H233108   4.521   0.090   1.507  2.4386 -1.1794 -0.7283
 3825TIP3   OH233109   4.359   6.670   1.079 -0.2123  0.0773 -0.0690
 3825TIP3    H133110   4.312   6.595   1.044 -1.1625  0.8305 -0.4435
 3825TIP3    H233111   4.398   6.712   1.003  0.0738  0.1280  0.1042
 3826TIP3   OH233112   1.559   6.335   1.428  0.6275  0.6028  0.0302
 3826TIP3    H133113   1.527   6.297   1.347 -0.2153  2.6540 -0.6579
 3826TIP3    H233114   1.495   6.308   1.494  0.8201 -0.3178 -0.1544
 3827TIP3   OH233115   3.870   3.091   1.488  0.1699 -0.0200 -0.2266
 3827TIP3    H133116   3.907   3.178   1.495 -0.9547  0.3556  1.7851
 3827TIP3    H233117   3.937   3.033   1.523  0.8619  0.0300 -1.4332
 3828TIP3   OH233118   3.504   7.082   0.444 -0.0992  0.1470 -0.1316
 3828TIP3    H133119   3.588   7.036   0.445 -0.2889 -0.2091  1.2629
 3828TIP3    H233120   3.495   7.113   0.354  0.9218 -0.9240 -0.6328
 3829TIP3   OH233121   2.782   0.100   0.261  0.5747  0.1656 -0.3172
 3829TIP3    H133122   2.747   0.087   0.349 -0.9139  1.3826 -0.6899
 3829TIP3    H233123   2.721   0.053   0.204  1.8085 -1.0445 -0.6914
 3830TIP3   OH233124   3.277   6.605   0.081  0.4094  0.8521 -0.5157
 3830TIP3    H133125   3.182   6.616   0.088  0.5432  2.8410 -1.2080
 3830TIP3    H233126   3.307   6.598   0.172  0.0499  5.3680  0.1534
 3831TIP3   OH233127   5.782   2.963   7.473  0.1036  0.5872  0.1940
 3831TIP3    H133128   5.836   2.919   7.408 -0.7102 -0.2374  0.0536
 3831TIP3    H233129   5.766   3.050   7.436 -1.1463 -0.1917 -1.1906
 3832TIP3   OH233130   0.172   6.735   6.936 -0.4719  0.4490 -0.5779
 3832TIP3    H133131   0.081   6.704   6.928 -0.0354 -0.5659 -1.9342
 3832TIP3    H233132   0.222   6.657   6.959 -0.1252  1.3214  2.0795
 3833TIP3   OH233133   2.550   6.292   7.542  0.0150  0.6797  0.4984
 3833TIP3    H133134   2.559   6.204   7.506  2.6017  2.6268 -4.6467
 3833TIP3    H233135   2.616   6.297   7.611  1.0936 -0.8739 -0.3793
 3834TIP3   OH233136   3.113   3.984   0.827  0.8185  0.3132  0.2337
 3834TIP3    H133137   3.063   3.903   0.821 -0.3990  0.9461  1.1861
 3834TIP3    H233138   3.176   3.980   0.756 -1.2296 -0.1038 -1.6526
 3835TIP3   OH233139   3.468   6.178   7.493  0.2262 -0.1917 -0.0130
 3835TIP3    H133140   3.503   6.131   7.417  0.0293  1.0047 -0.8688
 3835TIP3    H233141   3.507   6.265   7.487  2.5124 -0.8525  2.8743
 3836TIP3   OH233142   2.912   0.037   8.034 -0.0185  1.0111  0.3894
 3836TIP3    H133143   2.909  -0.058   8.047 -0.4588  1.0029  0.2564
 3836TIP3    H233144   2.983   0.051   7.972 -1.5484  0.5387 -1.5581
 3837TIP3   OH233145   7.075   4.000   0.108 -0.0839 -0.4695 -0.0345
 3837TIP3    H133146   6.987   4.024   0.079  0.9863  0.5589 -2.7251
 3837TIP3    H233147   7.101   4.071   0.166 -0.1242  0.5335 -1.2102
 3838TIP3   OH233148   4.500   3.719   2.622 -0.0987 -0.0493  0.0032
 3838TIP3    H133149   4.558   3.787   2.589 -0.9895  1.0168  0.5569
 3838TIP3    H233150   4.558   3.652   2.656  0.8022  0.5895 -0.2458
 3839TIP3   OH233151   5.747   5.295   7.667  0.5923 -0.7662  0.3829
 3839TIP3    H133152   5.775   5.384   7.690 -0.1299 -0.3955 -0.1498
 3839TIP3    H233153   5.829   5.246   7.660  1.2079  0.4299 -1.6787
 3840TIP3   OH233154   5.604   6.773   2.010 -0.1575 -1.2760  0.0085
 3840TIP3    H133155   5.618   6.751   2.102 -0.2959  0.0679  0.3718
 3840TIP3    H233156   5.641   6.861   2.000 -1.4561 -0.7964 -0.8486
 3841TIP3   OH233157   0.321   5.248   1.112  0.0926  0.8725 -0.0865
 3841TIP3    H133158   0.388   5.248   1.180  0.5778  0.4262 -0.5539
 3841TIP3    H233159   0.369   5.235   1.031 -0.0646  4.7342 -0.9714
 3842TIP3   OH233160   5.878   5.533   2.364 -0.2192  0.3619  0.1555
 3842TIP3    H133161   5.960   5.483   2.375 -0.5811 -0.0228  1.2663
 3842TIP3    H233162   5.878   5.594   2.438 -1.2541 -0.1144  0.5652
 3843TIP3   OH233163   6.470   3.224   1.841 -0.4259 -0.2348  0.1198
 3843TIP3    H133164   6.441   3.203   1.930 -2.0575  1.1644 -0.0380
 3843TIP3    H233165   6.391   3.217   1.788  0.2335  0.3439 -0.9669
 3844TIP3   OH233166   6.373   4.512   0.818  0.0835 -0.2562  0.4686
 3844TIP3    H133167   6.314   4.447   0.780 -0.3295 -0.4665  1.4451
 3844TIP3    H233168   6.460   4.486   0.788 -0.4067  0.9804 -2.3246
 3845TIP3   OH233169   5.925   5.406   2.894  0.0744  0.1048 -0.0341
 3845TIP3    H133170   5.882   5.490   2.911  1.0215  0.3821  1.1926
 3845TIP3    H233171   5.892   5.378   2.809  0.9698  2.5099 -1.2416
 3846TIP3   OH233172   0.031   1.966   1.695 -0.4934 -0.1326  0.2899
 3846TIP3    H133173  -0.024   2.042   1.679 -0.2176 -0.0642 -0.3422
 3846TIP3    H233174   0.095   1.997   1.760  0.4834  0.6044 -0.9886
 3847TIP3   OH233175   3.215   5.803   2.450  0.3657 -0.5692 -0.0301
 3847TIP3    H133176   3.259   5.755   2.520 -0.4083 -1.7274 -0.2962
 3847TIP3    H233177   3.122   5.800   2.474  0.3444  1.5213  0.3469
 3848TIP3   OH233178   3.585   6.041   1.559  0.1181  0.0297  0.4043
 3848TIP3    H133179   3.499   5.999   1.566 -0.2641  0.9279  1.4145
 3848TIP3    H233180   3.569   6.132   1.581  1.2016  0.3887 -0.2140
 3849TIP3   OH233181   1.326   2.127   7.393  0.9112  0.2638  0.2638
 3849TIP3    H133182   1.268   2.176   7.452 -0.4642 -0.1706 -0.6811
 3849TIP3    H233183   1.346   2.189   7.323  0.9968  0.1749  0.2107
 3850TIP3   OH233184   2.310   4.092   1.497  0.1522  0.6897  0.3023
 3850TIP3    H133185   2.255   4.162   1.533  0.0872  1.1411 -0.6457
 3850TIP3    H233186   2.341   4.044   1.574 -1.6016  0.3949  0.8675
 3851TIP3   OH233187   6.273   6.221   1.018 -0.8602  0.2489 -0.5413
 3851TIP3    H133188   6.245   6.130   1.020 -2.4260  0.6885 -0.5017
 3851TIP3    H233189   6.315   6.236   1.103  1.7361 -1.0574 -1.4885
 3852TIP3   OH233190   4.630   0.974   2.326  0.0053 -0.0450 -0.8120
 3852TIP3    H133191   4.685   0.999   2.400  0.3454 -0.3507 -0.9590
 3852TIP3    H233192   4.572   1.050   2.313 -0.6916 -0.3555  0.3470
 3853TIP3   OH233193   1.872   2.488   2.041  0.5258 -0.5054  0.0470
 3853TIP3    H133194   1.780   2.469   2.061  0.0841  1.6557  0.3442
 3853TIP3    H233195   1.872   2.578   2.010  2.8403  0.5844  2.7259
 3854TIP3   OH233196   3.415   2.933   2.330 -0.0431 -0.4110  0.0359
 3854TIP3    H133197   3.341   2.873   2.321 -0.2425 -0.2632  0.6082
 3854TIP3    H233198   3.377   3.020   2.315  0.5088 -0.4901 -2.2069
 3855TIP3   OH233199   5.617   5.300   6.567  0.6286  0.1113  0.3977
 3855TIP3    H133200   5.686   5.257   6.516  0.3198  2.9328 -2.7456
 3855TIP3    H233201   5.542   5.241   6.559  0.9988 -0.1856 -1.3840
 3856TIP3   OH233202   6.542   0.882   2.353 -0.1064 -0.1301 -0.0208
 3856TIP3    H133203   6.637   0.893   2.350 -0.1723  0.2207 -1.7218
 3856TIP3    H233204   6.520   0.895   2.445  1.5947 -1.2714  0.6006
 3857TIP3   OH233205   0.148   2.396   1.972 -0.1942 -0.2732  0.3668
 3857TIP3    H133206   0.232   2.413   2.014 -0.3988  0.0684  0.6433
 3857TIP3    H233207   0.086   2.451   2.020 -0.3597  0.4690 -0.6650
 3858TIP3   OH233208   2.454   6.046   7.231 -0.0718 -0.1910  0.0429
 3858TIP3    H133209   2.451   6.131   7.187  0.5806 -0.3040 -0.2240
 3858TIP3    H233210   2.518   5.996   7.181 -1.4647 -1.3306 -0.6804
 3859TIP3   OH233211   1.549   1.053   6.169 -0.2637  0.7292  0.4414
 3859TIP3    H133212   1.623   1.023   6.115  0.3708  1.0629  1.1059
 3859TIP3    H233213   1.560   1.148   6.172  0.2452  0.6502  1.8957
 3860TIP3   OH233214   3.318   3.033   7.511 -0.2954 -0.5477  0.8161
 3860TIP3    H133215   3.342   2.966   7.446  0.6481  0.2766  0.2760
 3860TIP3    H233216   3.361   3.113   7.480 -0.4468  0.0481  2.0658
 3861TIP3   OH233217   1.096   6.416   0.008  0.8014 -0.1450  0.1080
 3861TIP3    H133218   1.105   6.358   0.084  0.2852  0.6544  0.7997
 3861TIP3    H233219   1.013   6.390  -0.033  1.8109 -1.6047 -1.1098
 3862TIP3   OH233220   3.175   4.381   1.487 -0.0616  0.4431 -0.3920
 3862TIP3    H133221   3.188   4.313   1.421 -1.8130 -1.1162  0.7550
 3862TIP3    H233222   3.082   4.405   1.479 -0.3258  0.1902  1.4805
 3863TIP3   OH233223   3.510   2.620   7.575 -0.3578  0.1281  0.0719
 3863TIP3    H133224   3.535   2.545   7.521 -0.4295 -0.3560  0.6977
 3863TIP3    H233225   3.521   2.589   7.665  0.1765  1.0568  0.3417
 3864TIP3   OH233226   1.309   0.137   1.297 -0.0766  0.3274  0.2909
 3864TIP3    H133227   1.220   0.160   1.270 -0.4758 -0.7604  0.6327
 3864TIP3    H233228   1.357   0.220   1.293 -1.6988  1.5099  2.5778
 3865TIP3   OH233229   6.446   0.229   7.944  0.3236  0.1727 -1.3705
 3865TIP3    H133230   6.457   0.143   7.983  0.5693  0.5309 -0.6312
 3865TIP3    H233231   6.517   0.235   7.880  0.4943 -0.0559 -1.2048
 3866TIP3   OH233232   0.047   2.911   2.237 -0.6490  0.2032 -0.5984
 3866TIP3    H133233   0.027   3.001   2.261 -2.7661  0.0374 -1.5240
 3866TIP3    H233234   0.053   2.865   2.321  0.3336  1.1481 -0.1224
 3867TIP3   OH233235   4.534   6.945   6.547  0.1897 -0.2915  0.0947
 3867TIP3    H133236   4.504   6.895   6.623 -0.1449 -0.7081 -0.3067
 3867TIP3    H233237   4.628   6.953   6.560 -0.0297  0.7182  1.1818
 3868TIP3   OH233238   1.644   2.838   7.151 -0.2408  0.1079  0.4011
 3868TIP3    H133239   1.608   2.750   7.156 -1.5661  0.4671 -1.5991
 3868TIP3    H233240   1.581   2.893   7.197 -0.8447  0.3629 -0.7106
 3869TIP3   OH233241   4.234   0.355   7.447 -0.4981 -0.2988  0.4480
 3869TIP3    H133242   4.257   0.327   7.535  0.2058 -1.7209 -0.1494
 3869TIP3    H233243   4.194   0.278   7.407 -1.1770  0.4429 -0.3567
 3870TIP3   OH233244   3.664   4.212   1.961 -0.1494 -0.9353 -0.2805
 3870TIP3    H133245   3.578   4.187   1.996  0.1151  1.4473  2.4651
 3870TIP3    H233246   3.726   4.192   2.031  0.7288  2.2050  0.0239
 3871TIP3   OH233247   3.216   4.513   7.934  0.1675  0.5491 -0.0162
 3871TIP3    H133248   3.134   4.475   7.901  0.2489  0.8172 -0.5318
 3871TIP3    H233249   3.279   4.440   7.930  0.0642  0.4590 -0.0201
 3872TIP3   OH233250   3.444   3.902   8.188 -0.1272 -0.5167 -0.6316
 3872TIP3    H133251   3.395   3.825   8.218 -1.6791 -0.0877 -1.9460
 3872TIP3    H233252   3.524   3.866   8.151  0.3824 -1.2775  1.1273
 3873TIP3   OH233253   3.770   6.949   7.418 -0.1959  0.0806 -0.7653
 3873TIP3    H133254   3.787   6.947   7.512 -1.1352 -0.3021 -0.5928
 3873TIP3    H233255   3.785   6.860   7.388 -0.4325  0.0772 -0.8776
 3874TIP3   OH233256   6.032   2.335   7.481 -0.3502  0.1638 -0.2285
 3874TIP3    H133257   6.001   2.374   7.399  0.3460 -0.0844 -0.6259
 3874TIP3    H233258   6.124   2.314   7.464 -0.2036  0.0795  0.6120
 3875TIP3   OH233259   5.966   5.127   2.911  0.9573  0.1532  0.4095
 3875TIP3    H133260   5.916   5.084   2.981 -0.3560  0.0604 -0.5549
 3875TIP3    H233261   5.942   5.219   2.917  0.2514  0.0284 -0.3824
 3876TIP3   OH233262   6.938   1.997   0.802  0.2562  0.3614 -0.1892
 3876TIP3    H133263   6.941   1.902   0.814 -1.3712  0.3306  0.2006
 3876TIP3    H233264   6.986   2.032   0.877  1.0175 -0.1314 -0.4247
 3877TIP3   OH233265   5.357   1.503   7.501 -0.6536  0.0783 -0.2043
 3877TIP3    H133266   5.336   1.549   7.582 -0.1456  0.5060 -0.3074
 3877TIP3    H233267   5.287   1.528   7.440 -0.7449  0.1790 -0.0588
 3878TIP3   OH233268   3.247   0.811   2.557 -0.5035 -0.0406 -0.2859
 3878TIP3    H133269   3.261   0.718   2.539 -2.0297 -0.4557  0.5212
 3878TIP3    H233270   3.154   0.818   2.577 -0.1970  1.4746  0.7836
 3879TIP3   OH233271   5.981   2.495   2.172 -0.0026  0.3169  0.1667
 3879TIP3    H133272   6.019   2.427   2.117 -1.6189  0.0259 -0.6655
 3879TIP3    H233273   5.938   2.448   2.243  0.6553  0.6035  0.7663
 3880TIP3   OH233274   1.973   3.740   7.015  0.2084  0.2025  0.2117
 3880TIP3    H133275   1.945   3.756   7.105 -1.6048  1.4936 -0.5061
 3880TIP3    H233276   2.053   3.791   7.006  0.6589 -0.3026  1.2000
 3881TIP3   OH233277   3.684   2.263   7.782  0.3400 -0.0946  0.4851
 3881TIP3    H133278   3.597   2.301   7.769  1.4389  2.2794 -0.6258
 3881TIP3    H233279   3.742   2.318   7.729  2.3150 -2.6494 -0.2313
 3882TIP3   OH233280   5.102   0.593   0.857  0.0881 -0.0013 -0.8687
 3882TIP3    H133281   5.087   0.651   0.783 -4.3827  1.2858  0.7231
 3882TIP3    H233282   5.035   0.526   0.850  1.5693 -1.7219  0.4144
 3883TIP3   OH233283   2.554   3.686   7.603 -0.2467  0.3618  0.1577
 3883TIP3    H133284   2.643   3.697   7.636  0.6796 -0.2303 -1.9695
 3883TIP3    H233285   2.498   3.720   7.672  1.4709 -1.5965  2.6798
 3884TIP3   OH233286   3.861   4.781   0.837 -0.6540 -0.1003  0.0399
 3884TIP3    H133287   3.871   4.808   0.745  0.3155 -0.4232  0.0385
 3884TIP3    H233288   3.894   4.856   0.886 -3.0290  0.9212  0.2267
 3885TIP3   OH233289   5.080   2.118   7.104 -0.2638  0.2818  0.2401
 3885TIP3    H133290   5.129   2.191   7.064  1.2781 -1.2401 -0.8122
 3885TIP3    H233291   5.074   2.141   7.196 -0.7857  2.2309 -0.2120
 3886TIP3   OH233292   5.460   3.709   1.677  0.0155  0.4474  0.1303
 3886TIP3    H133293   5.528   3.648   1.704  1.7391  1.5621 -1.4767
 3886TIP3    H233294   5.381   3.656   1.670  1.0129 -1.1635  0.6920
 3887TIP3   OH233295   3.920   1.791   1.952  0.8139 -0.3022  0.7103
 3887TIP3    H133296   3.896   1.700   1.933 -0.9089  0.7829 -3.2793
 3887TIP3    H233297   4.004   1.804   1.908 -0.6367  0.8107 -2.0166
 3888TIP3   OH233298   1.498   4.349   1.972  0.4959  0.1237 -0.8072
 3888TIP3    H133299   1.493   4.366   1.878  0.7802 -0.0499 -0.8559
 3888TIP3    H233300   1.588   4.317   1.986  0.6123  0.6182 -0.4028
 3889TIP3   OH233301   4.609   4.752   2.772  0.0165  0.8126 -0.2755
 3889TIP3    H133302   4.514   4.753   2.783  0.0239  3.3293  0.2458
 3889TIP3    H233303   4.638   4.677   2.824 -1.8085 -1.7225 -2.6666
 3890TIP3   OH233304   0.366   3.090   6.870 -0.1109  0.3034 -0.4719
 3890TIP3    H133305   0.364   3.180   6.903 -0.1855 -0.2923  1.2733
 3890TIP3    H233306   0.457   3.063   6.880 -0.2800 -0.1268 -0.0529
 3891TIP3   OH233307   3.054   6.227   7.701 -0.3907  0.1207 -0.1859
 3891TIP3    H133308   3.149   6.222   7.704 -0.4120 -0.1306  0.2183
 3891TIP3    H233309   3.026   6.198   7.788 -0.7553  2.4931  0.5558
 3892TIP3   OH233310   3.319   6.972   0.837  0.7932  0.1812  0.3732
 3892TIP3    H133311   3.224   6.979   0.844  0.8569  0.4837  0.9361
 3892TIP3    H233312   3.346   7.053   0.793  0.8393  0.3335  0.6782
 3893TIP3   OH233313   6.008   1.366   7.540  0.2829 -0.0260  0.0969
 3893TIP3    H133314   5.938   1.300   7.537  0.1335  0.1480 -0.2959
 3893TIP3    H233315   5.974   1.439   7.488  1.1820 -0.3535 -0.9841
 3894TIP3   OH233316   3.578   0.076   7.675  0.3957 -0.5637  0.1602
 3894TIP3    H133317   3.621   0.116   7.599 -1.4944  1.5441  0.0953
 3894TIP3    H233318   3.545  -0.008   7.643 -0.3818  0.2930 -1.4146
 3895TIP3   OH233319   3.608   0.605   7.554  0.3907  0.9753 -0.2804
 3895TIP3    H133320   3.656   0.676   7.597  1.4209 -0.0960  0.4150
 3895TIP3    H233321   3.642   0.605   7.464  0.2466  1.4712 -0.3391
 3896TIP3   OH233322   2.725   4.795   1.566 -0.1686 -0.3189  0.2039
 3896TIP3    H133323   2.784   4.738   1.617 -1.6783 -2.0440  0.1302
 3896TIP3    H233324   2.640   4.751   1.571 -1.1174  1.3024 -0.9584
 3897TIP3   OH233325   3.193   3.688   7.455 -0.3207 -0.0505  0.5715
 3897TIP3    H133326   3.268   3.699   7.513  0.1986 -0.0275 -0.0884
 3897TIP3    H233327   3.231   3.687   7.367 -1.0415 -0.5047  0.2525
 3898TIP3   OH233328   5.023   2.096   1.856 -0.2676  0.2451 -0.6083
 3898TIP3    H133329   4.950   2.081   1.916 -0.7274  1.2233 -0.9059
 3898TIP3    H233330   5.069   2.172   1.893  0.2616 -0.0080 -0.7384
 3899TIP3   OH233331   0.310   1.818   7.305  0.1483  0.0944  0.1296
 3899TIP3    H133332   0.293   1.913   7.305 -0.3536  0.0320  1.8442
 3899TIP3    H233333   0.229   1.780   7.268  0.4760  0.3213 -0.8688
 3900TIP3   OH233334   5.471   1.712   2.475 -0.6003 -0.3798 -0.1864
 3900TIP3    H133335   5.508   1.632   2.511  1.6439  0.9733  0.7077
 3900TIP3    H233336   5.546   1.771   2.464 -2.3068  2.1027  0.5193
 3901TIP3   OH233337   0.943   3.466   0.341 -0.6074 -0.0220  0.3288
 3901TIP3    H133338   0.958   3.556   0.314 -1.4464 -0.6185 -2.4520
 3901TIP3    H233339   0.848   3.456   0.343 -0.5396 -1.1073 -0.5465
 3902TIP3   OH233340   0.995   4.972   8.051 -0.6103 -0.2264 -0.1555
 3902TIP3    H133341   1.037   4.886   8.052 -2.9058 -1.4348  0.7797
 3902TIP3    H233342   1.001   5.003   8.141  0.7431  0.9296 -0.6068
 3903TIP3   OH233343   0.715   0.916   0.552 -0.7635  0.5046  0.4622
 3903TIP3    H133344   0.810   0.922   0.552 -0.7069 -0.1869 -0.3887
 3903TIP3    H233345   0.696   0.842   0.610 -0.8413  1.2240  1.3737
 3904TIP3   OH233346   0.358   3.837   0.116 -0.2002  0.4614  0.4002
 3904TIP3    H133347   0.272   3.828   0.075  0.3806 -2.7129 -0.3402
 3904TIP3    H233348   0.340   3.827   0.210 -0.5217 -2.1173  0.1285
 3905TIP3   OH233349   0.731   4.911   1.790 -0.1250 -0.6072  0.1227
 3905TIP3    H133350   0.778   4.984   1.831 -2.2295  1.2721 -0.6097
 3905TIP3    H233351   0.797   4.841   1.783  2.2176  1.4586  0.1529
 3906TIP3   OH233352   1.318   3.525   0.429  0.1423 -0.3050  0.8610
 3906TIP3    H133353   1.277   3.579   0.496 -1.7483 -0.8646  0.1940
 3906TIP3    H233354   1.406   3.507   0.464  0.7651  2.8735  1.2418
 3907TIP3   OH233355   4.919   0.142   1.677  0.1845 -0.0083 -0.3424
 3907TIP3    H133356   4.848   0.106   1.729 -0.0803  1.3710  0.2782
 3907TIP3    H233357   4.898   0.117   1.587  0.0324 -1.3865  0.0514
 3908TIP3   OH233358   2.749   6.260   2.817 -0.0842 -0.2541  0.7449
 3908TIP3    H133359   2.803   6.330   2.781  1.3997  0.5234  4.0357
 3908TIP3    H233360   2.685   6.305   2.871 -0.8443 -1.3619  0.7989
 3909TIP3   OH233361   6.744   6.133   2.848 -0.1049 -0.2871 -0.0827
 3909TIP3    H133362   6.782   6.120   2.761 -0.8007  2.3759 -0.8668
 3909TIP3    H233363   6.658   6.090   2.842 -0.2997  0.1891 -0.8425
 3910TIP3   OH233364   0.226   6.641   7.262 -0.3951 -0.2547  0.5110
 3910TIP3    H133365   0.315   6.612   7.282  0.2190 -0.4600 -2.1394
 3910TIP3    H233366   0.234   6.735   7.246 -0.5198 -0.3949 -0.3956
 3911TIP3   OH233367   6.704   2.714   6.981  0.2773 -0.0445 -0.2278
 3911TIP3    H133368   6.615   2.690   6.957  0.0683  0.1374  0.3436
 3911TIP3    H233369   6.733   2.771   6.909 -0.4979  0.8544  0.1386
 3912TIP3   OH233370   1.735   4.785   1.769 -0.1809  0.3582  0.2895
 3912TIP3    H133371   1.703   4.757   1.683  1.3578 -2.4472  0.4865
 3912TIP3    H233372   1.658   4.816   1.815 -1.9942 -2.4436 -0.5797
 3913TIP3   OH233373   1.889   6.033   0.799  0.5957 -0.3706  0.7521
 3913TIP3    H133374   1.824   6.103   0.802  2.3297  1.6300 -2.4122
 3913TIP3    H233375   1.839   5.954   0.782 -1.1347  1.1722 -2.1077
 3914TIP3   OH233376   4.554   3.394   2.794 -0.5444  0.2765 -0.6234
 3914TIP3    H133377   4.627   3.453   2.778 -0.9942  1.2196  0.6637
 3914TIP3    H233378   4.505   3.394   2.712 -0.0919  1.0406 -0.9014
 3915TIP3   OH233379   0.638   5.845   0.077 -0.4362  0.1386  0.2467
 3915TIP3    H133380   0.593   5.848   0.162  0.0526  1.5341  0.4899
 3915TIP3    H233381   0.713   5.904   0.088  2.1201 -2.8503  0.1775
 3916TIP3   OH233382   2.179   3.451   0.643  0.2897  0.4144  0.0920
 3916TIP3    H133383   2.094   3.456   0.688 -1.1907  0.2735 -2.4625
 3916TIP3    H233384   2.168   3.381   0.579  2.2053  0.7013 -0.6222
 3917TIP3   OH233385   5.312   3.864   0.074  0.4436 -0.3395 -0.5334
 3917TIP3    H133386   5.301   3.813  -0.006 -0.3867 -1.4429  0.2404
 3917TIP3    H233387   5.339   3.799   0.139  2.0673  0.6915 -0.1109
 3918TIP3   OH233388   5.352   4.368   0.150  0.5455  0.0997  0.5218
 3918TIP3    H133389   5.298   4.336   0.078 -0.5123 -2.9141  2.4854
 3918TIP3    H233390   5.393   4.447   0.115 -0.7460 -0.5842 -2.9664
 3919TIP3   OH233391   6.344   0.439   0.402  0.1581 -0.2467  0.2420
 3919TIP3    H133392   6.306   0.375   0.463 -1.7164 -0.6780 -1.2813
 3919TIP3    H233393   6.312   0.412   0.316  1.8038  1.0079 -0.8227
 3920TIP3   OH233394   5.269   3.073   7.638 -0.1289 -0.0268 -0.5138
 3920TIP3    H133395   5.174   3.076   7.650 -0.0240  2.0332  0.2891
 3920TIP3    H233396   5.282   3.037   7.551 -1.4799 -3.3700  0.5272
 3921TIP3   OH233397   3.532   1.289   1.818 -0.6578 -0.1713 -0.5130
 3921TIP3    H133398   3.566   1.297   1.907  0.1358 -1.3654 -0.6787
 3921TIP3    H233399   3.472   1.363   1.808  0.4996  0.9417  0.4348
 3922TIP3   OH233400   6.029   3.862   0.884  0.2004 -0.1457  0.3156
 3922TIP3    H133401   6.024   3.822   0.798  0.3084  1.7096 -0.5902
 3922TIP3    H233402   6.109   3.826   0.923  0.8533  0.0076 -0.8707
 3923TIP3   OH233403   5.166   4.114   1.228 -0.2013  0.4411 -0.3459
 3923TIP3    H133404   5.097   4.078   1.172 -1.0935 -0.0227  1.0039
 3923TIP3    H233405   5.144   4.207   1.235 -0.6307  0.3151 -0.0046
 3924TIP3   OH233406   0.568   6.918   7.267  0.0354  0.1573 -0.5108
 3924TIP3    H133407   0.531   6.913   7.179  2.1951  0.2542 -1.4625
 3924TIP3    H233408   0.512   6.982   7.312 -0.5956  0.7445 -2.0559
 3925TIP3   OH233409   1.492   5.919   0.518 -0.3270  0.0508 -0.7194
 3925TIP3    H133410   1.559   5.907   0.450 -0.8774  0.6036 -1.3689
 3925TIP3    H233411   1.463   5.831   0.539 -0.2130 -0.1198 -1.2646
 3926TIP3   OH233412   0.922   6.961   1.942  0.0988  0.2761  0.2709
 3926TIP3    H133413   0.978   6.996   1.873 -2.4602  0.0166 -2.0960
 3926TIP3    H233414   0.984   6.927   2.007  2.6712  0.7137 -1.7568
 3927TIP3   OH233415   6.085   2.684   7.931 -0.0593  0.2652 -0.9110
 3927TIP3    H133416   6.152   2.711   7.868 -0.1644  1.2277 -0.6306
 3927TIP3    H233417   6.132   2.629   7.993  0.3694  0.5239 -0.9992
 3928TIP3   OH233418   0.374   4.700   0.349  0.6393  0.3598  0.1490
 3928TIP3    H133419   0.311   4.772   0.341  0.1063 -0.0313  0.7070
 3928TIP3    H233420   0.396   4.698   0.443  0.7891 -0.0796  0.1088
 3929TIP3   OH233421   6.900   3.997   1.249  0.0357  0.0022  0.2541
 3929TIP3    H133422   6.950   4.078   1.258  0.9597 -0.6145  0.7714
 3929TIP3    H233423   6.831   4.004   1.315  0.6014  0.0137  0.8459
 3930TIP3   OH233424   6.662   3.143   1.318 -0.0310  0.3277 -0.0691
 3930TIP3    H133425   6.713   3.073   1.277 -0.6393 -0.3295  0.2815
 3930TIP3    H233426   6.695   3.146   1.408  0.3230  0.8173 -0.2121
 3931TIP3   OH233427   1.564   3.254   1.286  0.1184 -0.5651  1.1130
 3931TIP3    H133428   1.578   3.288   1.374 -1.3322 -1.7784  1.8573
 3931TIP3    H233429   1.496   3.312   1.249 -0.2729 -0.8865  1.3184
 3932TIP3   OH233430   3.152   6.498   1.258 -0.4450 -1.0155  0.3805
 3932TIP3    H133431   3.119   6.551   1.185  0.3601  0.4447  1.0378
 3932TIP3    H233432   3.159   6.409   1.221 -0.6425 -0.4406 -1.1334
 3933TIP3   OH233433   3.270   2.950   0.434 -0.1446  1.0881 -0.0650
 3933TIP3    H133434   3.302   3.020   0.491 -0.2903 -0.2726  1.7902
 3933TIP3    H233435   3.177   2.967   0.425  0.1223  2.1083 -1.1210
 3934TIP3   OH233436   4.579   6.275   0.192 -0.4052  0.1484 -0.2943
 3934TIP3    H133437   4.489   6.273   0.225 -0.3161  0.5135 -0.0208
 3934TIP3    H233438   4.570   6.260   0.098 -0.9737  2.4785 -0.6717
 3935TIP3   OH233439   1.714   4.563   7.922 -0.3037  0.4670 -0.1601
 3935TIP3    H133440   1.784   4.561   7.987  0.0574 -1.2010 -0.5539
 3935TIP3    H233441   1.760   4.569   7.838 -0.5944 -0.7657 -0.4309
 3936TIP3   OH233442   0.310   2.370   0.092  0.1736 -0.1162  0.3113
 3936TIP3    H133443   0.352   2.428   0.028  3.4728 -2.1444  0.3942
 3936TIP3    H233444   0.305   2.422   0.172  1.1105  0.7391 -0.1631
 3937TIP3   OH233445   6.615   5.120   6.476  0.1479 -0.4262  0.0903
 3937TIP3    H133446   6.703   5.149   6.499 -0.8404  0.3957  3.3410
 3937TIP3    H233447   6.616   5.026   6.492  0.5404 -0.5069 -0.3710
 3938TIP3   OH233448   1.173   5.877   1.185 -0.0401  0.0455  0.5055
 3938TIP3    H133449   1.122   5.958   1.192  0.7579  0.8776 -2.3004
 3938TIP3    H233450   1.176   5.858   1.092  2.1634 -1.6866  0.8540
 3939TIP3   OH233451   2.528   1.921   1.707 -0.0144  0.0679 -0.1364
 3939TIP3    H133452   2.550   2.014   1.715 -3.2798  0.8923  0.7951
 3939TIP3    H233453   2.433   1.920   1.692 -0.0808 -3.1358 -0.2549
 3940TIP3   OH233454   0.596   3.113   2.260 -0.1616  0.1837 -0.3276
 3940TIP3    H133455   0.566   3.036   2.212  1.4166 -2.0520  2.0073
 3940TIP3    H233456   0.688   3.122   2.235 -0.4188  1.6267 -0.8685
 3941TIP3   OH233457   3.981   2.050   2.459 -0.2318  0.3705 -0.0843
 3941TIP3    H133458   4.002   2.045   2.366  0.9331 -1.5286  0.2299
 3941TIP3    H233459   3.891   2.018   2.465 -0.1689  0.0956 -0.5167
 3942TIP3   OH233460   5.241   5.869   1.807  0.4691  0.3925  0.1519
 3942TIP3    H133461   5.234   5.787   1.856 -0.2969  0.6375  0.4613
 3942TIP3    H233462   5.248   5.842   1.715 -1.8694  0.0126  0.0317
 3943TIP3   OH233463   0.149   6.057   0.353 -0.0152  0.7259 -0.4488
 3943TIP3    H133464   0.094   6.020   0.422 -1.4193  0.3500 -1.7463
 3943TIP3    H233465   0.214   5.989   0.334  0.5027  0.9032  0.5978
 3944TIP3   OH233466   0.746   3.295   0.659  0.4719 -0.0625 -0.9955
 3944TIP3    H133467   0.768   3.202   0.649 -1.5988 -0.5784 -1.2969
 3944TIP3    H233468   0.739   3.308   0.753 -0.7946 -0.6607 -0.9814
 3945TIP3   OH233469   3.810   0.462   2.292 -0.4462  0.1428  0.1208
 3945TIP3    H133470   3.902   0.456   2.266 -0.6942 -0.8106 -0.5840
 3945TIP3    H233471   3.811   0.514   2.373  0.5943  1.0628 -0.4665
 3946TIP3   OH233472   6.110   2.748   2.096  0.0385  0.2080 -0.2693
 3946TIP3    H133473   6.069   2.802   2.163 -0.8417 -0.4786 -0.2371
 3946TIP3    H233474   6.086   2.658   2.119  1.0715 -0.1705 -0.5902
 3947TIP3   OH233475   0.278   4.267   7.892  1.2710  0.5890 -0.3971
 3947TIP3    H133476   0.282   4.244   7.800  1.2083 -0.5405 -0.1326
 3947TIP3    H233477   0.248   4.187   7.936 -0.8932  1.7410  0.3586
 3948TIP3   OH233478   2.637   6.793   7.812  0.1286 -0.2038 -0.5421
 3948TIP3    H133479   2.611   6.736   7.740 -0.2388 -1.1321  0.2871
 3948TIP3    H233480   2.730   6.773   7.825 -0.4388 -2.1748  1.0287
 3949TIP3   OH233481   3.671   6.362   8.000 -0.1285 -0.4453  0.2488
 3949TIP3    H133482   3.666   6.440   7.944  0.5171 -0.8942 -0.4414
 3949TIP3    H233483   3.606   6.379   8.069 -1.3135 -0.1039 -0.9024
 3950TIP3   OH233484   3.188   3.070   1.370  0.3479  0.6571 -0.7225
 3950TIP3    H133485   3.107   3.023   1.392 -0.6958  1.9556 -1.6294
 3950TIP3    H233486   3.237   3.073   1.452 -2.0011  2.6545  0.7647
 3951TIP3   OH233487   1.739   6.885   0.114 -0.2194  0.1521  0.0921
 3951TIP3    H133488   1.828   6.881   0.149  0.0676  0.9378 -0.5070
 3951TIP3    H233489   1.683   6.881   0.191  0.3290 -0.5114  0.4673
 3952TIP3   OH233490   2.201   6.381   1.135  0.2047  0.0349  0.2238
 3952TIP3    H133491   2.147   6.323   1.188 -0.6176  1.9347  1.5896
 3952TIP3    H233492   2.205   6.339   1.049 -1.8322 -1.1426  0.6410
 3953TIP3   OH233493   2.829   4.046   0.286 -0.2356 -0.1544 -0.2815
 3953TIP3    H133494   2.818   3.987   0.212  1.0440  0.0981 -0.6865
 3953TIP3    H233495   2.813   4.134   0.250 -1.0606 -0.1452  0.0797
 3954TIP3   OH233496   3.373   4.946   8.090  0.2253 -0.0974  0.2319
 3954TIP3    H133497   3.441   4.900   8.041  0.4556 -0.6878  1.0743
 3954TIP3    H233498   3.301   4.883   8.096 -0.4212  0.5394 -0.6898
 3955TIP3   OH233499   4.781   6.206   2.541  0.2593  0.2728 -0.1049
 3955TIP3    H133500   4.869   6.241   2.551 -0.2159  2.2776 -1.9621
 3955TIP3    H233501   4.724   6.283   2.542 -1.0241 -0.4834 -2.9776
 3956TIP3   OH233502   0.952   3.803   1.541  0.0610  0.3044 -0.2867
 3956TIP3    H133503   0.973   3.797   1.448 -0.6749  1.4507 -0.5469
 3956TIP3    H233504   0.880   3.741   1.554 -0.6177  0.9849 -0.7394
 3957TIP3   OH233505   1.260   6.440   2.225 -0.0651 -0.6196 -0.0534
 3957TIP3    H133506   1.324   6.379   2.263  0.2601  0.0914  0.5706
 3957TIP3    H233507   1.175   6.406   2.253  0.1180 -0.7363  0.3647
 3958TIP3   OH233508   5.786   0.219   0.704  0.1846  0.3548 -0.4494
 3958TIP3    H133509   5.787   0.306   0.663 -1.7773  0.9061  0.5386
 3958TIP3    H233510   5.779   0.159   0.630  0.8937  1.0646 -1.1171
 3959TIP3   OH233511   2.532   6.946   7.245 -0.3024 -0.3391  0.2037
 3959TIP3    H133512   2.618   6.987   7.237 -0.8068  0.4917 -1.2982
 3959TIP3    H233513   2.499   6.977   7.330  0.1785  0.7023  0.0263
 3960TIP3   OH233514   5.348   1.108   7.499  0.0118  0.0022 -0.2419
 3960TIP3    H133515   5.438   1.118   7.528 -0.2470 -2.0052  1.4754
 3960TIP3    H233516   5.299   1.172   7.551  0.4161  1.4009 -1.4812
 3961TIP3   OH233517   1.173   0.341   7.820 -0.0674 -0.3345 -0.0725
 3961TIP3    H133518   1.187   0.253   7.786  0.8106  0.1494 -1.0330
 3961TIP3    H233519   1.084   0.364   7.792  0.5664 -0.0172 -1.9705
 3962TIP3   OH233520   1.088   3.616   2.364 -0.1767  0.3401 -0.0834
 3962TIP3    H133521   1.062   3.647   2.277  1.3085  0.9228 -0.3558
 3962TIP3    H233522   1.156   3.678   2.392  1.1171 -1.2419  0.4293
 3963TIP3   OH233523   1.963   1.492   7.175  0.7304 -0.2303 -0.0046
 3963TIP3    H133524   1.909   1.473   7.098 -0.8748 -0.2200  1.0767
 3963TIP3    H233525   2.032   1.550   7.142 -0.9504  1.2474 -1.0883
 3964TIP3   OH233526   0.123   1.762   0.963 -0.3002  0.2601  0.3764
 3964TIP3    H133527   0.165   1.742   0.880 -2.0828 -0.0561 -0.5052
 3964TIP3    H233528   0.193   1.755   1.028  0.8410 -0.9215 -0.9171
 3965TIP3   OH233529   5.716   7.019   1.945  0.1440  0.1514 -0.3941
 3965TIP3    H133530   5.773   7.055   2.013  0.2989  0.3045 -0.6060
 3965TIP3    H233531   5.744   7.062   1.865 -2.0096  2.2675 -0.1206
 3966TIP3   OH233532   6.546   5.881   7.785 -0.7580 -0.2707 -0.0633
 3966TIP3    H133533   6.584   5.947   7.843  0.4060 -0.0384 -1.0615
 3966TIP3    H233534   6.487   5.930   7.728 -0.7015 -0.2567 -0.1097
 3967TIP3   OH233535   1.241   4.160   1.383 -0.5440 -0.0083  0.0912
 3967TIP3    H133536   1.270   4.069   1.389  0.1975  0.3185  3.2227
 3967TIP3    H233537   1.301   4.200   1.321 -0.1167 -1.3798 -0.4270
 3968TIP3   OH233538   0.389   3.677   1.550  0.0546 -0.1225  0.2146
 3968TIP3    H133539   0.429   3.684   1.637 -0.7867 -0.8471  0.6796
 3968TIP3    H233540   0.416   3.591   1.518  1.5181  0.6997 -0.8639
 3969TIP3   OH233541   7.040   0.915   6.999  0.1876  0.3648  0.3719
 3969TIP3    H133542   6.988   0.995   7.001  0.4244  0.5219  0.2033
 3969TIP3    H233543   7.031   0.882   6.910 -1.6483 -0.9490  0.9838
 3970TIP3   OH233544   0.033   0.359   2.012 -0.3288  0.2355  0.3375
 3970TIP3    H133545   0.013   0.311   2.092  0.1384 -1.1348 -0.3365
 3970TIP3    H233546   0.053   0.291   1.947 -0.4184  1.3183 -0.8716
 3971TIP3   OH233547   3.879   2.379   0.368  0.1962 -0.0654  0.1748
 3971TIP3    H133548   3.801   2.325   0.378 -0.9567  0.3196 -4.4304
 3971TIP3    H233549   3.949   2.316   0.350 -0.0317 -0.2294 -0.1482
 3972TIP3   OH233550   0.386   5.845   7.684  0.2481 -0.1306  0.0931
 3972TIP3    H133551   0.469   5.806   7.656 -0.0421 -2.3201  2.0189
 3972TIP3    H233552   0.326   5.830   7.611  1.2220  0.5164 -0.8776
 3973TIP3   OH233553   1.613   6.844   6.704 -0.0236 -0.1465 -0.1990
 3973TIP3    H133554   1.521   6.849   6.678 -0.2867  0.3723  0.7936
 3973TIP3    H233555   1.629   6.751   6.720 -0.6638 -0.1303  0.5861
 3974TIP3   OH233556   2.765   0.834   0.669  0.2668 -0.3673 -0.1883
 3974TIP3    H133557   2.812   0.768   0.619 -1.6048 -1.6800 -0.3430
 3974TIP3    H233558   2.831   0.876   0.724  1.5745 -2.1454 -0.3387
 3975TIP3   OH233559   4.639   7.055   7.838 -0.4139 -0.3698 -0.0497
 3975TIP3    H133560   4.621   7.136   7.886  0.7029  1.1899 -2.0823
 3975TIP3    H233561   4.714   7.077   7.782 -0.4149 -2.6714 -1.0518
 3976TIP3   OH233562   5.939   0.412   8.185  0.3336 -0.5783 -0.2929
 3976TIP3    H133563   5.941   0.370   8.271  0.6550 -0.5856 -0.3008
 3976TIP3    H233564   5.994   0.356   8.130  0.8193 -0.1234 -0.2867
 3977TIP3   OH233565   0.464   0.363   8.193  0.5360 -0.1160  0.4855
 3977TIP3    H133566   0.373   0.382   8.216  0.1608 -1.1533 -0.0995
 3977TIP3    H233567   0.514   0.382   8.273 -0.2077  0.2566  0.8698
 3978TIP3   OH233568   4.247   1.667   1.644  0.2717 -0.6689  0.1984
 3978TIP3    H133569   4.295   1.585   1.631 -0.3550 -0.8971 -0.7807
 3978TIP3    H233570   4.225   1.696   1.556 -0.4075  0.0181  0.5827
 3979TIP3   OH233571   1.287   4.234   1.003  0.2778 -0.2621 -0.1257
 3979TIP3    H133572   1.223   4.305   0.994  0.2869  0.1129  2.1431
 3979TIP3    H233573   1.350   4.266   1.067 -0.2086 -2.5954  1.6710
 3980TIP3   OH233574   2.378   2.213   7.634  0.3663 -0.3250 -0.0460
 3980TIP3    H133575   2.291   2.197   7.599 -1.6724  0.8061  3.9265
 3980TIP3    H233576   2.414   2.126   7.652 -0.9573 -0.8000  0.4041
 3981TIP3   OH233577   1.005   4.649   7.163 -0.3404 -0.4458  0.3304
 3981TIP3    H133578   0.922   4.619   7.125  0.6590 -0.1710 -2.2482
 3981TIP3    H233579   1.058   4.570   7.172  0.1102 -0.2831 -0.7346
 3982TIP3   OH233580   0.996   4.208   0.420  0.2112  0.0857 -0.2939
 3982TIP3    H133581   0.919   4.239   0.373 -1.9660 -1.6535  1.8592
 3982TIP3    H233582   0.982   4.238   0.510  0.0810 -3.3336  0.9553
 3983TIP3   OH233583   7.070   5.939   7.394 -0.3064  0.4491  0.0605
 3983TIP3    H133584   7.091   5.965   7.304 -0.2316  0.0080 -0.0514
 3983TIP3    H233585   6.999   5.876   7.384 -1.2055  1.3752  0.3900
 3984TIP3   OH233586   6.685   3.156   2.357  0.0266  0.2296 -0.3276
 3984TIP3    H133587   6.646   3.231   2.401 -1.1530 -0.4229 -0.2354
 3984TIP3    H233588   6.691   3.183   2.265 -1.7263 -0.0714 -0.5525
 3985TIP3   OH233589   2.980   5.963   7.512  0.2341  0.2261 -0.0453
 3985TIP3    H133590   2.974   5.954   7.608 -0.0529 -2.2435 -0.2263
 3985TIP3    H233591   2.910   5.907   7.479  0.5070  0.8364 -1.7411
 3986TIP3   OH233592   3.845   0.975   1.563 -0.0830  0.1600  0.0904
 3986TIP3    H133593   3.859   1.038   1.634 -0.1701 -0.2750  0.4989
 3986TIP3    H233594   3.802   0.901   1.605 -0.3177 -0.0209 -0.4605
 3987TIP3   OH233595   2.937   6.194   7.947  0.0019 -0.4343 -0.2919
 3987TIP3    H133596   2.860   6.149   7.981 -1.2648  1.9028  0.1664
 3987TIP3    H233597   2.902   6.274   7.908  2.1498  0.4032 -0.6265
 3988TIP3   OH233598   5.712   3.729   6.368 -0.3943 -0.3454  0.2116
 3988TIP3    H133599   5.788   3.670   6.361  1.2503  1.5967  0.7508
 3988TIP3    H233600   5.644   3.675   6.408  0.9671 -1.9208  0.5459
 3989TIP3   OH233601   1.617   5.343   0.479 -0.2201 -0.1601 -0.0253
 3989TIP3    H133602   1.635   5.427   0.521 -1.8514  0.3321 -0.2308
 3989TIP3    H233603   1.620   5.362   0.385  0.5892 -0.6149 -0.1007
 3990TIP3   OH233604   2.850   4.686   8.022 -0.3960 -0.1043  0.0298
 3990TIP3    H133605   2.804   4.667   7.940 -2.2661  0.3249  0.9312
 3990TIP3    H233606   2.931   4.727   7.995 -0.5478 -0.8178 -1.6387
 3991TIP3   OH233607   2.483   4.502   0.890  0.0412  0.1564  0.0356
 3991TIP3    H133608   2.486   4.440   0.963  1.4448 -0.1700 -0.2626
 3991TIP3    H233609   2.534   4.459   0.820  1.8646  1.9955  0.1396
 3992TIP3   OH233610   7.060   5.193   1.909  0.4347  0.2191 -0.5382
 3992TIP3    H133611   7.123   5.260   1.934  0.6688  0.0731 -0.7249
 3992TIP3    H233612   7.035   5.151   1.991  0.3048  0.5165 -0.4242
 3993TIP3   OH233613   3.206   3.061   0.797 -0.0011 -0.1377  0.4485
 3993TIP3    H133614   3.113   3.057   0.779 -0.0930 -0.2578  0.9334
 3993TIP3    H233615   3.213   3.113   0.877  0.5660  2.3655 -1.1344
 3994TIP3   OH233616   0.443   5.815   1.920 -0.3069  0.2437  0.2803
 3994TIP3    H133617   0.513   5.751   1.934 -0.9145 -0.8229 -1.2500
 3994TIP3    H233618   0.362   5.764   1.931 -0.8017  0.7995 -0.7213
 3995TIP3   OH233619   4.047   0.883   0.709  0.2766  0.3779 -0.1792
 3995TIP3    H133620   4.046   0.945   0.636  0.8020  1.6492  0.8664
 3995TIP3    H233621   3.962   0.838   0.703 -0.8022  2.3021 -0.0423
 3996TIP3   OH233622   0.085   0.833   7.234  0.3032 -0.3638 -0.3238
 3996TIP3    H133623   0.077   0.905   7.297  2.5731  0.9430 -1.4094
 3996TIP3    H233624   0.023   0.856   7.164  1.6675  1.1134 -1.1114
 3997TIP3   OH233625   5.440   0.986   0.505  0.3786 -0.1722 -0.2397
 3997TIP3    H133626   5.416   0.968   0.596 -2.0744  1.0627 -0.5533
 3997TIP3    H233627   5.520   0.935   0.491  0.9115 -0.2894  2.6155
 3998TIP3   OH233628   3.367   6.212   6.829  0.1394 -0.0883 -0.2768
 3998TIP3    H133629   3.410   6.248   6.751  2.4828  0.5408  1.2008
 3998TIP3    H233630   3.315   6.139   6.796  0.3945  0.6569 -2.5200
 3999TIP3   OH233631   6.550   3.338   2.485  0.0616  0.3835  0.8269
 3999TIP3    H133632   6.587   3.425   2.473  1.1350  0.0984  1.8572
 3999TIP3    H233633   6.574   3.314   2.575  0.9268 -1.4788  0.1543
 4000TIP3   OH233634   6.501   6.171   1.559  0.0009  0.2640 -0.2326
 4000TIP3    H133635   6.429   6.151   1.618 -0.2706 -0.2724 -0.7343
 4000TIP3    H233636   6.553   6.237   1.605  0.0515 -0.4722  0.7944
 4001TIP3   OH233637   4.786   2.497   8.038 -0.0598  0.3020  0.1215
 4001TIP3    H133638   4.860   2.557   8.032 -1.1361  1.5940 -0.8213
 4001TIP3    H233639   4.735   2.527   8.113 -0.6136  0.6217 -0.3674
 4002TIP3   OH233640   4.690   1.858   2.626  0.1328 -0.4105  0.5780
 4002TIP3    H133641   4.657   1.891   2.542  0.0886 -1.0168  0.3484
 4002TIP3    H233642   4.633   1.899   2.691 -0.9110 -1.2114  0.1995
 4003TIP3   OH233643   1.276   4.886   1.133  0.3451 -0.2677 -0.9337
 4003TIP3    H133644   1.278   4.820   1.202  1.2418 -0.5039 -1.1650
 4003TIP3    H233645   1.359   4.874   1.087  0.5846  1.0868 -0.9130
 4004TIP3   OH233646   5.636   6.544   0.712  0.8643 -0.0537  0.1392
 4004TIP3    H133647   5.633   6.633   0.676 -0.6012  0.3990  1.2674
 4004TIP3    H233648   5.547   6.528   0.744  1.3666 -1.5473  0.8889
 4005TIP3   OH233649   4.956   2.816   7.628  0.3586 -0.2117  0.0725
 4005TIP3    H133650   5.003   2.754   7.573 -0.3011 -0.4284 -0.2578
 4005TIP3    H233651   4.959   2.898   7.580 -0.2468 -0.4092 -0.3055
 4006TIP3   OH233652   3.324   3.286   1.252 -0.5245  0.2348  0.3019
 4006TIP3    H133653   3.376   3.336   1.315  1.1948  0.6503 -1.3368
 4006TIP3    H233654   3.275   3.224   1.305  1.2229  0.2199  2.0092
 4007TIP3   OH233655   6.520   4.828   1.204  0.4033 -0.4652  0.0521
 4007TIP3    H133656   6.573   4.906   1.222  0.8839 -0.6573 -0.4795
 4007TIP3    H233657   6.480   4.807   1.288  3.8115 -2.2585  1.4463
 4008TIP3   OH233658   1.815   2.570   6.561 -0.4989  0.1988  0.1190
 4008TIP3    H133659   1.742   2.616   6.521 -2.3838 -2.1607  0.5775
 4008TIP3    H233660   1.817   2.484   6.518  0.6870 -0.5371  1.5126
 4009TIP3   OH233661   0.864   1.672   7.872  1.2858  0.2351 -0.5090
 4009TIP3    H133662   0.891   1.584   7.844 -0.8994 -1.6151  2.6659
 4009TIP3    H233663   0.800   1.699   7.807 -1.1034 -2.4192  0.5494
 4010TIP3   OH233664   2.719   6.926   0.110  0.5043  0.5631 -0.5495
 4010TIP3    H133665   2.666   6.968   0.043 -2.1222  0.0746  1.0903
 4010TIP3    H233666   2.657   6.878   0.164  2.5686  0.2970  1.7867
 4011TIP3   OH233667   3.986   4.993   7.193  0.4379  0.0195  0.5301
 4011TIP3    H133668   3.989   4.915   7.138  2.3098 -0.0657  0.6752
 4011TIP3    H233669   3.917   4.975   7.256  0.3489 -1.2204  0.1124
 4012TIP3   OH233670   0.189   1.621   0.653  0.0719  0.6448  1.0439
 4012TIP3    H133671   0.196   1.550   0.717 -0.7997  1.8055  2.4903
 4012TIP3    H233672   0.279   1.642   0.630  0.3525 -1.6711 -0.3411
 4013TIP3   OH233673   1.064   0.658   0.653  0.6887  1.0169 -0.0708
 4013TIP3    H133674   1.125   0.711   0.601  1.7085  0.2186  0.2809
 4013TIP3    H233675   1.119   0.613   0.717  0.0018 -1.2235 -0.9632
 4014TIP3   OH233676   5.934   3.326   1.168  0.0379 -0.1001  0.0330
 4014TIP3    H133677   5.913   3.318   1.075  1.6378 -0.1470 -0.3407
 4014TIP3    H233678   5.989   3.404   1.174 -0.4593  0.1946  1.0254
 4015TIP3   OH233679   2.135   3.650   1.545 -0.3731  0.2619  0.0552
 4015TIP3    H133680   2.053   3.698   1.562  0.4525  1.1627  1.7680
 4015TIP3    H233681   2.179   3.703   1.478 -1.0048 -0.0424 -0.6260
 4016TIP3   OH233682   5.143   4.920   1.681 -0.6752  0.4959  0.3886
 4016TIP3    H133683   5.144   4.912   1.776  0.6588  0.8909  0.4175
 4016TIP3    H233684   5.136   5.014   1.665  2.4042  0.7678  0.1463
 4017TIP3   OH233685   4.181   4.641   0.612 -0.1327 -0.2370 -0.1640
 4017TIP3    H133686   4.193   4.651   0.707  2.9816  2.0796 -0.6393
 4017TIP3    H233687   4.184   4.546   0.598 -1.1819 -0.6621  2.0676
 4018TIP3   OH233688   6.082   5.985   6.472  0.2098  0.2605 -0.0022
 4018TIP3    H133689   6.001   5.939   6.450  0.2230 -0.5099  1.4407
 4018TIP3    H233690   6.149   5.942   6.420 -0.3709  1.4242 -1.8261
 4019TIP3   OH233691   5.147   2.471   7.810 -0.0838  0.5328  0.4487
 4019TIP3    H133692   5.062   2.436   7.839  0.0898  1.4518  2.1858
 4019TIP3    H233693   5.186   2.399   7.759 -1.0355 -0.6850  1.3621
 4020TIP3   OH233694   4.040   4.437   0.222 -0.3634 -0.5647  0.0332
 4020TIP3    H133695   4.101   4.386   0.170  0.4243 -1.3336  1.6415
 4020TIP3    H233696   3.954   4.399   0.203 -0.5798  1.0728 -2.9077
 4021TIP3   OH233697   0.098   6.997   7.941 -0.0429 -0.4251 -0.1852
 4021TIP3    H133698   0.050   7.009   7.859 -0.9147  2.2881  0.6039
 4021TIP3    H233699   0.189   6.986   7.914 -0.2030  1.1491 -1.5165
 4022TIP3   OH233700   1.288   5.085   1.920 -0.7950  0.7708  0.4504
 4022TIP3    H133701   1.271   5.102   1.827 -2.1443  2.4099  0.9623
 4022TIP3    H233702   1.251   4.998   1.935 -0.6619  0.5300 -0.5132
 4023TIP3   OH233703   6.977   0.618   0.338  0.3502 -0.0463  0.5207
 4023TIP3    H133704   6.914   0.547   0.345  0.2789  0.0937  1.3008
 4023TIP3    H233705   6.929   0.688   0.294 -0.5764  0.6491  2.5305
 4024TIP3   OH233706   3.364   2.912   1.157 -0.0145 -0.0521  0.0297
 4024TIP3    H133707   3.287   2.966   1.170  0.1239  0.5886 -1.6129
 4024TIP3    H233708   3.437   2.974   1.154  0.0524 -0.1335 -2.7837
 4025TIP3   OH233709   3.460   0.628   1.777 -0.3971 -0.5757  0.5404
 4025TIP3    H133710   3.444   0.589   1.691 -1.6130 -0.0417  0.4973
 4025TIP3    H233711   3.453   0.554   1.838  2.4462 -1.3386  0.0721
 4026TIP3   OH233712   1.551   4.691   2.904 -0.1345  0.1341 -0.0037
 4026TIP3    H133713   1.590   4.778   2.902 -1.1702  0.6222 -2.8674
 4026TIP3    H233714   1.462   4.706   2.935 -0.1963  0.0360 -0.1330
 4027TIP3   OH233715   6.774   5.552   7.173 -0.0050  0.3892  0.1001
 4027TIP3    H133716   6.696   5.598   7.204  0.3245 -0.5649  2.5931
 4027TIP3    H233717   6.741   5.487   7.111 -0.8794  1.4956 -0.6427
 4028TIP3   OH233718   1.176   5.955   7.398 -0.2044  0.5760 -0.0707
 4028TIP3    H133719   1.166   6.050   7.398  0.7907  0.6909  0.4393
 4028TIP3    H233720   1.239   5.938   7.467 -0.5857 -0.4883  0.0279
 4029TIP3   OH233721   2.285   1.422   0.502 -0.4213 -0.6823  0.7856
 4029TIP3    H133722   2.324   1.338   0.525 -3.9059 -3.2392 -1.5916
 4029TIP3    H233723   2.340   1.456   0.431 -0.4062 -2.3161 -0.0203
 4030TIP3   OH233724   1.820   4.633   1.022  0.0025 -0.1013  0.6817
 4030TIP3    H133725   1.771   4.619   0.941  1.2004  0.8358 -0.2454
 4030TIP3    H233726   1.882   4.702   1.001 -0.0226  0.5693  2.5800
 4031TIP3   OH233727   1.704   1.317   7.651 -0.5558 -0.1513  0.3556
 4031TIP3    H133728   1.780   1.370   7.673  1.9668 -3.5094  0.5079
 4031TIP3    H233729   1.636   1.346   7.712  1.9367  0.1635  3.2035
 4032TIP3   OH233730   6.437   4.380   1.056 -0.5139  0.1502  0.2663
 4032TIP3    H133731   6.384   4.421   0.988 -1.4589  0.4550  1.1428
 4032TIP3    H233732   6.385   4.392   1.136  1.2633  1.2382  1.3229
 4033TIP3   OH233733   6.089   6.100   7.662 -0.3266  0.0498 -0.0530
 4033TIP3    H133734   6.131   6.083   7.746 -0.8037 -0.9430 -0.0130
 4033TIP3    H233735   6.035   6.177   7.677 -0.8269 -0.4447  0.6943
 4034TIP3   OH233736   6.942   1.060   1.098 -0.4375  0.0277 -0.0859
 4034TIP3    H133737   6.888   1.091   1.171 -0.9004  1.5664 -1.0335
 4034TIP3    H233738   7.031   1.063   1.132 -0.7544 -0.8202  0.9096
 4035TIP3   OH233739   6.328   4.949   7.586 -0.0075 -0.4794  0.4916
 4035TIP3    H133740   6.317   5.043   7.571  0.2361 -0.5191  0.0413
 4035TIP3    H233741   6.314   4.938   7.680  0.8626  0.1414  0.7076
 4036TIP3   OH233742   6.500   2.592   2.730 -0.0281 -0.0612 -0.7171
 4036TIP3    H133743   6.594   2.580   2.719  0.3591  0.4450  1.6406
 4036TIP3    H233744   6.488   2.686   2.735 -0.4527 -0.1733  0.5215
 4037TIP3   OH233745   3.166   6.022   0.973 -0.3165  0.3831 -0.1686
 4037TIP3    H133746   3.232   6.001   0.906 -0.3095 -1.9557  0.4751
 4037TIP3    H233747   3.085   6.035   0.924  0.3769  2.2808 -0.8855
 4038TIP3   OH233748   4.399   3.554   7.637  0.1839  0.3182 -0.1125
 4038TIP3    H133749   4.491   3.529   7.648 -0.1474 -0.9746 -0.1217
 4038TIP3    H233750   4.351   3.498   7.699 -0.5186  1.7105  0.6712
 4039TIP3   OH233751   6.182   2.376   1.983 -0.2565 -0.4244  0.2759
 4039TIP3    H133752   6.238   2.397   2.058 -0.0739 -1.7350  0.5422
 4039TIP3    H233753   6.226   2.303   1.940 -0.3078  0.3815 -1.1930
 4040TIP3   OH233754   5.737   1.336   7.681 -0.4400  0.1370 -0.3106
 4040TIP3    H133755   5.715   1.260   7.736  1.4803 -1.3546 -1.4416
 4040TIP3    H233756   5.783   1.396   7.740  0.1679 -0.7089  0.1076
 4041TIP3   OH233757   0.913   0.021   1.048 -0.3037 -0.1303 -0.6615
 4041TIP3    H133758   0.818   0.029   1.048 -0.2690  0.4765 -1.8711
 4041TIP3    H233759   0.942   0.084   1.114 -0.7217 -0.0158 -0.5801
 4042TIP3   OH233760   6.623   5.655   0.488 -0.7745 -0.3697 -0.0110
 4042TIP3    H133761   6.628   5.694   0.575  1.3240 -2.3773  0.8584
 4042TIP3    H233762   6.604   5.729   0.430 -0.0278  1.4030  1.8839
 4043TIP3   OH233763   1.215   6.362   1.320 -0.2247 -0.3173  0.3303
 4043TIP3    H133764   1.152   6.418   1.366 -0.9770 -0.3017 -0.6939
 4043TIP3    H233765   1.211   6.391   1.229  0.6472 -0.8896  0.0986
 4044TIP3   OH233766   5.629   0.389   1.094  0.6332 -0.4159 -0.7537
 4044TIP3    H133767   5.642   0.472   1.048  0.5097  0.3994  0.6277
 4044TIP3    H233768   5.548   0.353   1.057 -0.4532  1.0955  0.0417
 4045TIP3   OH233769   0.304   2.799   7.319 -0.3997 -0.5913 -1.1335
 4045TIP3    H133770   0.256   2.729   7.363  0.8262 -0.4822  0.4493
 4045TIP3    H233771   0.306   2.773   7.227 -0.0273 -2.6079 -0.5908
 4046TIP3   OH233772   1.281   0.020   0.713  0.2852  0.6336 -0.2479
 4046TIP3    H133773   1.186   0.030   0.711  0.2690  0.4186 -0.6344
 4046TIP3    H233774   1.305   0.030   0.805 -0.5018 -2.7978  0.4361
 4047TIP3   OH233775   6.578   5.181   1.986 -0.9197  0.1808  0.3399
 4047TIP3    H133776   6.591   5.270   1.954 -0.5444  0.5837  1.5654
 4047TIP3    H233777   6.652   5.131   1.951 -1.1618  0.3275 -0.3933
 4048TIP3   OH233778   1.440   1.659   6.207 -0.3265 -0.3497  0.1563
 4048TIP3    H133779   1.418   1.579   6.255  0.0871 -1.2453 -1.0979
 4048TIP3    H233780   1.512   1.697   6.257 -1.0341 -0.3224  1.2039
 4049TIP3   OH233781   2.097   3.152   2.575 -0.4572  0.1196 -0.3393
 4049TIP3    H133782   2.174   3.164   2.630 -0.9273 -0.2490  0.4189
 4049TIP3    H233783   2.076   3.239   2.543 -0.1539  0.3381  0.0470
 4050TIP3   OH233784   6.162   0.853   7.517 -0.2209 -0.4738 -0.3745
 4050TIP3    H133785   6.161   0.927   7.456  0.4823 -0.5588 -0.4939
 4050TIP3    H233786   6.184   0.777   7.463  1.1674 -0.4342  0.0858
 4051TIP3   OH233787   0.049   5.566   1.330 -0.4104  0.0319  0.1613
 4051TIP3    H133788   0.059   5.556   1.235  0.7513 -1.8159  0.4229
 4051TIP3    H233789   0.054   5.660   1.345  2.3776  0.2378 -1.3600
 4052TIP3   OH233790   1.207   1.236   0.220 -0.2767 -0.1993  0.1099
 4052TIP3    H133791   1.195   1.177   0.146 -0.1970 -2.1842  1.5808
 4052TIP3    H233792   1.132   1.220   0.277  0.1280  0.5739  0.8961
 4053TIP3   OH233793   6.071   2.804   6.911 -0.4477  0.0082 -0.3006
 4053TIP3    H133794   6.102   2.715   6.897  0.8083  0.1209  1.3994
 4053TIP3    H233795   5.976   2.798   6.903 -0.2475 -0.9331 -2.7890
 4054TIP3   OH233796   5.056   1.003   1.519 -0.3420 -0.0322  0.5126
 4054TIP3    H133797   5.057   1.093   1.551  0.9680 -0.0367  0.5223
 4054TIP3    H233798   5.092   0.951   1.592  1.1140 -0.2501 -0.3303
 4055TIP3   OH233799   5.335   1.418   8.114  0.0680 -0.1574  0.0002
 4055TIP3    H133800   5.252   1.422   8.067 -0.0465 -2.2576 -0.0916
 4055TIP3    H233801   5.322   1.473   8.191 -1.4174 -0.4241 -0.0363
 4056TIP3   OH233802   6.420   1.931   7.427  0.0019 -0.5218 -0.3390
 4056TIP3    H133803   6.371   1.997   7.476  0.5515  0.3608 -0.9383
 4056TIP3    H233804   6.487   1.901   7.488  0.5223  0.3865 -0.4410
 4057TIP3   OH233805   7.054   5.485   1.580  0.3260  0.0386  0.0400
 4057TIP3    H133806   7.087   5.402   1.614 -1.7290 -0.8937 -0.0617
 4057TIP3    H233807   7.091   5.492   1.492  0.0214 -1.1097 -0.1900
 4058TIP3   OH233808   0.132   3.096   1.319 -0.4119 -0.2572  0.1913
 4058TIP3    H133809   0.061   3.158   1.304  0.7149  0.8319 -0.8244
 4058TIP3    H233810   0.137   3.044   1.239 -0.1675 -0.4365  0.3207
 4059TIP3   OH233811   0.743   3.296   1.541  0.7361 -0.1848 -0.0448
 4059TIP3    H133812   0.741   3.246   1.623  1.7895  0.5450  0.4460
 4059TIP3    H233813   0.749   3.229   1.472 -2.9679 -0.9832  0.2196
 4060TIP3   OH233814   2.758   0.103   7.646  0.7800  0.3064  0.1811
 4060TIP3    H133815   2.711   0.126   7.726  0.2688 -1.4810  0.4357
 4060TIP3    H233816   2.810   0.181   7.625 -1.3266  1.8920  0.5699
 4061TIP3   OH233817   0.433   0.204   7.749 -0.3756 -0.4400 -0.0521
 4061TIP3    H133818   0.505   0.254   7.711 -1.8859  2.2623  0.3507
 4061TIP3    H233819   0.444   0.216   7.844 -0.5200 -1.2793  0.0734
 4062TIP3   OH233820   4.098   0.095   2.175 -0.0610 -0.0008  0.8342
 4062TIP3    H133821   4.122   0.147   2.252 -1.4027  0.4212  0.9948
 4062TIP3    H233822   4.179   0.087   2.125 -0.1275  4.0286 -0.2775
 4063TIP3   OH233823   4.285   5.232   0.262 -0.3120 -0.2060  0.7164
 4063TIP3    H133824   4.325   5.223   0.348 -1.0765  1.6993  1.3252
 4063TIP3    H233825   4.212   5.169   0.263 -0.2129 -0.3178  1.3920
 4064TIP3   OH233826   4.889   2.373   1.766 -0.0652 -0.1771  0.4599
 4064TIP3    H133827   4.920   2.440   1.704 -1.3546 -0.3631 -0.4261
 4064TIP3    H233828   4.969   2.343   1.810  0.6460  1.3196  0.2660
 4065TIP3   OH233829   1.753   4.694   2.447  0.3982  0.2738 -0.5782
 4065TIP3    H133830   1.801   4.613   2.433 -0.2945 -0.5242  1.3145
 4065TIP3    H233831   1.781   4.724   2.534 -0.5004  1.2265 -0.5871
 4066TIP3   OH233832   3.765   3.329   0.575 -0.2139 -0.4135 -0.2237
 4066TIP3    H133833   3.773   3.355   0.483  1.1906 -0.5170 -0.1475
 4066TIP3    H233834   3.785   3.236   0.575 -0.3355 -0.4383  0.1678
 4067TIP3   OH233835   1.189   0.155   7.251  0.5557  0.2865 -0.4456
 4067TIP3    H133836   1.264   0.181   7.304  0.6298 -0.0703 -0.3724
 4067TIP3    H233837   1.216   0.173   7.161  0.6728  0.2971 -0.4085
 4068TIP3   OH233838   6.635   3.134   2.690  0.2515  0.4775  0.2508
 4068TIP3    H133839   6.553   3.169   2.723  0.3092  1.5414 -0.6719
 4068TIP3    H233840   6.702   3.167   2.750  0.3444  2.3240 -0.7856
 4069TIP3   OH233841   1.733   4.190   0.292 -0.2300  0.2521 -0.5759
 4069TIP3    H133842   1.694   4.170   0.207 -0.9613  0.3794 -0.2760
 4069TIP3    H233843   1.776   4.108   0.318 -0.1629  0.1566 -0.9750
 4070TIP3   OH233844   2.974   4.178   7.148  0.2305  0.4761  0.0539
 4070TIP3    H133845   2.982   4.092   7.106  0.8193  0.2564  0.5936
 4070TIP3    H233846   3.042   4.231   7.106 -0.3781  0.7922 -0.5408
 4071TIP3   OH233847   2.163   0.426   0.173 -0.0870  0.9096 -0.1189
 4071TIP3    H133848   2.134   0.455   0.260 -0.8172 -1.0349  0.3435
 4071TIP3    H233849   2.258   0.425   0.178 -0.0985 -2.1094  1.7845
 4072TIP3   OH233850   6.592   5.771   2.067  0.4982  0.1709 -0.2457
 4072TIP3    H133851   6.588   5.777   2.163 -2.6400  0.1958 -0.2783
 4072TIP3    H233852   6.642   5.849   2.040 -0.8322  1.6549  1.3063
 4073TIP3   OH233853   7.072   0.211   0.916  0.0309 -0.6985 -0.0860
 4073TIP3    H133854   7.050   0.119   0.923  3.7636 -1.7994 -0.8283
 4073TIP3    H233855   7.116   0.219   0.831 -0.2880  1.8283 -0.1113
 4074TIP3   OH233856   2.126   1.922   2.088 -0.0863  0.1551  0.1364
 4074TIP3    H133857   2.098   1.992   2.148  1.4200 -0.0969  1.1854
 4074TIP3    H233858   2.213   1.898   2.119  0.3020 -0.7108 -1.5556
 4075TIP3   OH233859   7.024   5.203   7.566  0.2510  0.0714  0.1836
 4075TIP3    H133860   7.081   5.146   7.617 -1.6108 -1.1375  1.0514
 4075TIP3    H233861   7.004   5.153   7.486 -0.5001 -0.0366  0.4283
 4076TIP3   OH233862   4.882   6.081   8.153  0.6808 -0.3617 -0.2908
 4076TIP3    H133863   4.843   6.106   8.069  2.6323  2.0050 -0.6065
 4076TIP3    H233864   4.899   5.987   8.144 -1.1531 -0.6228 -1.6529
 4077TIP3   OH233865   2.834   1.679   1.794  0.0704 -0.5353  0.2658
 4077TIP3    H133866   2.842   1.599   1.845 -0.2377 -0.0557  1.0882
 4077TIP3    H233867   2.903   1.673   1.728  1.5966 -0.3915  1.7980
 4078TIP3   OH233868   4.870   0.696   0.605  0.0778 -0.1717 -0.2499
 4078TIP3    H133869   4.961   0.671   0.590  0.6870  1.0650  1.1398
 4078TIP3    H233870   4.842   0.641   0.678  0.3553  0.8123  0.6136
 4079TIP3   OH233871   1.846   3.897   1.260  0.2487  0.1700  0.5578
 4079TIP3    H133872   1.897   3.840   1.203  0.5371 -0.5150  1.4762
 4079TIP3    H233873   1.854   3.984   1.220  1.9663  0.0521  0.5669
 4080TIP3   OH233874   3.986   6.776   0.623 -0.0795  0.0645 -0.2999
 4080TIP3    H133875   4.041   6.842   0.667  3.9342 -1.8004 -2.0484
 4080TIP3    H233876   3.986   6.702   0.683  1.1752 -0.6836 -1.1805
 4081TIP3   OH233877   1.889   1.591   7.435 -0.4869  1.1396 -0.3920
 4081TIP3    H133878   1.969   1.643   7.442  0.6924 -0.7442  0.7168
 4081TIP3    H233879   1.894   1.551   7.348  0.7761 -0.4562  0.3673
 4082TIP3   OH233880   4.043   0.013   0.219 -0.4128  0.2160  0.5298
 4082TIP3    H133881   4.068   0.061   0.298  0.5487  0.1346  0.2957
 4082TIP3    H233882   4.015  -0.073   0.251 -0.3579  0.3010  0.8111
 4083TIP3   OH233883   3.503   5.350   0.930  0.2814 -0.9518 -0.8615
 4083TIP3    H133884   3.586   5.345   0.978 -1.1563 -0.3095  1.8783
 4083TIP3    H233885   3.487   5.260   0.901  1.2840 -1.3452 -0.2634
 4084TIP3   OH233886   1.971   3.767   1.751 -0.0273 -0.4436 -0.1086
 4084TIP3    H133887   1.942   3.844   1.799 -1.2210 -1.5405  0.9907
 4084TIP3    H233888   2.042   3.731   1.804  0.1931 -0.3918 -0.3645
 4085TIP3   OH233889   4.080   1.764   2.751  0.2785  0.3010 -0.2311
 4085TIP3    H133890   4.054   1.856   2.753  0.9494  0.6404 -2.6618
 4085TIP3    H233891   4.031   1.727   2.677  1.2678 -0.8432 -0.3500
 4086TIP3   OH233892   6.618   1.435   6.583 -0.1552 -0.6565 -0.2106
 4086TIP3    H133893   6.643   1.507   6.526  0.8336 -0.1473  0.8246
 4086TIP3    H233894   6.528   1.455   6.610  0.1542  0.2906  0.1817
 4087TIP3   OH233895   4.490   5.426   2.524 -0.6385 -0.0175  0.0651
 4087TIP3    H133896   4.564   5.368   2.509 -1.4907 -1.6529  1.7883
 4087TIP3    H233897   4.417   5.367   2.544 -1.8310  1.6068  0.7158
 4088TIP3   OH233898   0.361   1.112   7.617  0.3210  0.2532 -0.1240
 4088TIP3    H133899   0.439   1.128   7.669 -0.3074  1.6696  0.4327
 4088TIP3    H233900   0.326   1.029   7.649  0.4917  0.6191  1.0308
 4089TIP3   OH233901   0.041   5.922   7.832 -0.1964 -0.0504  0.6353
 4089TIP3    H133902   0.056   5.923   7.737 -0.1674  0.3767  0.6421
 4089TIP3    H233903   0.123   5.954   7.869 -0.9060  1.7720  0.7016
 4090TIP3   OH233904   6.616   4.284   1.254  0.3800  0.6885  1.0488
 4090TIP3    H133905   6.652   4.311   1.170 -1.7570 -1.0402 -0.5619
 4090TIP3    H233906   6.583   4.365   1.294  1.9902  1.6191  0.5720
 4091TIP3   OH233907   1.499   6.243   7.161  0.9439  0.1050 -0.1381
 4091TIP3    H133908   1.569   6.207   7.215  0.5261  0.2232  0.4909
 4091TIP3    H233909   1.543   6.303   7.101  1.6906 -1.5786 -1.3639
 4092TIP3   OH233910   6.493   7.040   7.980  0.4476 -0.1937  0.0763
 4092TIP3    H133911   6.575   7.022   8.026 -0.1168 -1.0705  0.7682
 4092TIP3    H233912   6.521   7.080   7.897  1.5141  0.5573  0.7718
 4093TIP3   OH233913   1.578   6.437   7.806  0.8647  0.5628 -0.1053
 4093TIP3    H133914   1.490   6.472   7.816 -0.0197 -1.5517 -0.0062
 4093TIP3    H233915   1.594   6.441   7.711 -0.2673 -1.0399 -0.4091
 4094TIP3   OH233916   0.702   0.295   0.931 -0.4657 -0.2017 -0.0299
 4094TIP3    H133917   0.612   0.322   0.949 -0.0003  1.6179 -0.1545
 4094TIP3    H233918   0.741   0.282   1.017 -0.9490 -1.4240  0.0168
 4095TIP3   OH233919   6.885   2.071   6.913 -0.2652  0.5841  0.2054
 4095TIP3    H133920   6.911   2.081   6.821  0.6476  1.8464  0.5751
 4095TIP3    H233921   6.937   1.996   6.944 -0.0045  0.6300 -0.1131
 4096TIP3   OH233922   0.658   4.110   7.030  0.0493 -0.1656 -0.4536
 4096TIP3    H133923   0.625   4.124   6.941 -0.1386  0.4106 -0.2968
 4096TIP3    H233924   0.579   4.109   7.085  0.3084  3.1961  0.2004
 4097TIP3   OH233925   0.052   4.720   0.041  0.0906  0.1613 -0.5903
 4097TIP3    H133926   0.068   4.718  -0.053 -0.6341 -0.3802 -0.7177
 4097TIP3    H233927  -0.040   4.747   0.049 -0.2564 -1.0769 -0.1133
 4098TIP3   OH233928   3.543   5.607   6.660 -0.0146  0.4444 -0.3199
 4098TIP3    H133929   3.598   5.554   6.716  0.5624 -0.9238 -2.0764
 4098TIP3    H233930   3.478   5.645   6.719  0.1428 -1.4360  1.1591
 4099TIP3   OH233931   4.962   1.845   0.460  0.6578 -0.0505  0.0609
 4099TIP3    H133932   4.882   1.881   0.420  0.1535 -1.1039  0.0920
 4099TIP3    H233933   4.958   1.873   0.551  1.1872  1.3169 -0.3072
 4100TIP3   OH233934   1.828   5.447   7.486  0.1183 -0.0286 -0.1321
 4100TIP3    H133935   1.868   5.382   7.428  2.6557 -0.0395  1.5101
 4100TIP3    H233936   1.840   5.412   7.574 -0.7141  1.5091  0.6304
 4101TIP3   OH233937   4.966   2.934   0.449 -0.2231  0.5563 -0.1507
 4101TIP3    H133938   4.991   2.992   0.378 -2.3896 -0.1718 -1.5894
 4101TIP3    H233939   4.871   2.941   0.454 -0.1958  0.3296  2.5007
 4102TIP3   OH233940   2.884   6.232   7.464  1.1116 -0.2904 -0.2531
 4102TIP3    H133941   2.940   6.155   7.466  0.6595 -0.6113  1.1692
 4102TIP3    H233942   2.844   6.236   7.551 -0.3177  0.4877 -0.8957
 4103TIP3   OH233943   1.790   1.586   1.522  0.4561 -0.2562  0.2865
 4103TIP3    H133944   1.821   1.522   1.586  2.7889 -0.3208 -0.7813
 4103TIP3    H233945   1.702   1.557   1.499 -1.6201  1.1407  5.1442
 4104TIP3   OH233946   1.350   3.049   6.965  0.5505  0.3775  0.1365
 4104TIP3    H133947   1.286   3.097   6.912 -0.6403 -0.9423  0.3224
 4104TIP3    H233948   1.418   3.113   6.984  1.8513  0.6398 -4.2228
 4105TIP3   OH233949   4.367   3.948   1.632  0.0640 -0.4455 -0.2909
 4105TIP3    H133950   4.311   3.879   1.596 -1.8451  0.3983  0.8990
 4105TIP3    H233951   4.436   3.901   1.679  0.9739 -1.5174 -2.5727
 4106TIP3   OH233952   2.658   6.518   0.592 -0.2323  0.2860  0.8336
 4106TIP3    H133953   2.716   6.587   0.625 -1.8476  2.1902 -0.0503
 4106TIP3    H233954   2.641   6.463   0.669  1.7732  0.3279  1.3701
 4107TIP3   OH233955   1.346   0.055   6.531  0.1064 -0.6277  0.1641
 4107TIP3    H133956   1.322   0.071   6.440 -1.4491 -1.5922  0.3536
 4107TIP3    H233957   1.441   0.068   6.534  0.2117 -0.7111 -1.6120
 4108TIP3   OH233958   3.903   2.079   1.193 -0.1282 -0.5049 -0.7757
 4108TIP3    H133959   3.951   2.101   1.273 -1.7813 -0.6835  0.3246
 4108TIP3    H233960   3.923   2.150   1.132 -1.7354  1.7294  1.1104
 4109TIP3   OH233961   0.798   6.583   6.290 -0.0607  0.3458 -0.2612
 4109TIP3    H133962   0.784   6.534   6.208  0.9362 -0.4629  0.0280
 4109TIP3    H233963   0.759   6.527   6.358 -1.9018  1.5275 -0.2578
 4110TIP3   OH233964   1.204   1.672   1.903  0.2378 -0.2463  0.2443
 4110TIP3    H133965   1.245   1.759   1.911 -1.8821  0.7311  1.3170
 4110TIP3    H233966   1.215   1.632   1.989 -0.9775  0.0265  0.5453
 4111TIP3   OH233967   3.380   2.775   1.464  0.4553 -0.2804  0.1680
 4111TIP3    H133968   3.377   2.806   1.555  0.7237 -1.4758  0.5898
 4111TIP3    H233969   3.427   2.844   1.417 -0.6677  0.8922  0.7030
 4112TIP3   OH233970   2.733   3.313   2.164  0.6274 -0.4222 -0.0775
 4112TIP3    H133971   2.678   3.341   2.238  0.4928 -0.5283 -0.1381
 4112TIP3    H233972   2.791   3.388   2.148 -1.2579  0.8045 -1.7369
 4113TIP3   OH233973   6.053   4.695   2.577  0.1217 -0.2403 -0.4590
 4113TIP3    H133974   6.006   4.630   2.629 -1.5298  0.0824 -1.4559
 4113TIP3    H233975   6.139   4.656   2.560 -0.4485 -1.6860 -0.1196
 4114TIP3   OH233976   5.488   4.379   0.951 -0.2087  0.0716 -0.3453
 4114TIP3    H133977   5.442   4.406   1.031 -1.9992 -0.7216 -1.0535
 4114TIP3    H233978   5.511   4.287   0.967 -0.0513  0.0820 -0.5166
 4115TIP3   OH233979   5.449   2.685   0.374  0.1418 -0.6866  0.3120
 4115TIP3    H133980   5.459   2.632   0.294  0.1425  0.2621 -0.3368
 4115TIP3    H233981   5.468   2.775   0.345  2.6163 -0.6076  1.8842
 4116TIP3   OH233982   4.792   1.198   1.481  0.5642  0.6620  0.3027
 4116TIP3    H133983   4.711   1.186   1.530  1.4862  2.0807  2.3304
 4116TIP3    H233984   4.854   1.232   1.546  1.7962  2.9522 -1.9163
 4117TIP3   OH233985   3.129   3.376   2.320  0.0272 -0.2147  0.5008
 4117TIP3    H133986   3.068   3.443   2.351 -0.7665 -1.0504  0.7777
 4117TIP3    H233987   3.087   3.338   2.244  1.5926  1.2435 -1.1810
 4118TIP3   OH233988   2.779   4.172   1.180  0.0120  0.5479  0.1308
 4118TIP3    H133989   2.853   4.181   1.240 -0.0046  0.9071  0.0982
 4118TIP3    H233990   2.819   4.172   1.093 -0.1591  2.5199  0.0221
 4119TIP3   OH233991   2.719   2.402   2.219  0.6630 -0.7639  0.2443
 4119TIP3    H133992   2.680   2.323   2.256 -1.7642  0.9645  1.7236
 4119TIP3    H233993   2.731   2.460   2.294  3.4564 -0.0793 -0.6352
 4120TIP3   OH233994   6.497   0.023   0.360  0.1318 -0.3361  0.0654
 4120TIP3    H133995   6.471   0.050   0.272 -0.3348 -1.9060 -0.3032
 4120TIP3    H233996   6.592   0.009   0.354  0.2548  0.4493  0.0721
 4121TIP3   OH233997   3.445   3.209   0.122 -0.1176 -0.0045 -0.7399
 4121TIP3    H133998   3.371   3.217   0.182  0.7543 -0.9028  0.5216
 4121TIP3    H233999   3.428   3.272   0.053 -0.2429  2.5150  1.4166
 4122TIP3   OH234000   4.541   6.240   7.750 -0.2739 -0.4914 -0.2828
 4122TIP3    H134001   4.633   6.212   7.752 -0.1995 -0.3930 -1.5437
 4122TIP3    H234002   4.544   6.334   7.767 -0.0523 -0.3284 -1.1862
 4123TIP3   OH234003   6.973   6.825   7.136  0.1280 -0.9317  0.1244
 4123TIP3    H134004   7.022   6.883   7.193 -1.3889  1.2405 -0.6273
 4123TIP3    H234005   7.022   6.825   7.054 -0.4343  0.2562 -0.2354
 4124TIP3   OH234006   0.742   4.064   7.434  0.1802  0.0599  0.3337
 4124TIP3    H134007   0.660   4.051   7.480 -0.2082  0.6855 -0.1655
 4124TIP3    H234008   0.763   3.979   7.397  0.1973 -0.3058  1.1586
 4125TIP3   OH234009   6.054   3.664   2.158  0.6607 -0.6840  0.2031
 4125TIP3    H134010   6.148   3.652   2.168  0.4619 -0.8099  2.4619
 4125TIP3    H234011   6.046   3.738   2.097  2.1754 -1.1711 -0.6456
 4126TIP3   OH234012   5.869   3.230   0.514  0.1415  0.0952  0.8124
 4126TIP3    H134013   5.906   3.304   0.564  0.5046  1.5074 -1.3844
 4126TIP3    H234014   5.899   3.245   0.424  0.0084 -2.6383  0.2246
 4127TIP3   OH234015   4.391   4.201   7.742 -0.0124  0.2018 -0.0203
 4127TIP3    H134016   4.408   4.116   7.701  0.6496 -0.1986  1.0661
 4127TIP3    H234017   4.297   4.215   7.727 -0.1436 -0.7382 -0.1923
 4128TIP3   OH234018   3.777   3.087   0.917 -0.0767 -0.8493  0.2169
 4128TIP3    H134019   3.861   3.105   0.960 -0.1669  1.6164 -0.4809
 4128TIP3    H234020   3.713   3.129   0.973 -0.3699  0.9331 -1.3699
 4129TIP3   OH234021   3.199   5.754   0.565  0.1084 -0.2304  0.4539
 4129TIP3    H134022   3.232   5.667   0.587  1.7759 -0.0932 -1.2585
 4129TIP3    H234023   3.142   5.740   0.490  2.6298  0.3569 -1.7253
 4130TIP3   OH234024   1.606   0.438   5.612 -0.8047 -0.3182 -0.3585
 4130TIP3    H134025   1.548   0.422   5.538  0.5063 -2.3605 -1.0683
 4130TIP3    H234026   1.587   0.366   5.673 -0.6129  0.2971  0.4363
 4131TIP3   OH234027   2.761   4.634   0.470  0.7332  0.0003 -0.2450
 4131TIP3    H134028   2.757   4.726   0.443 -2.5529  0.0226 -0.0722
 4131TIP3    H234029   2.696   4.626   0.540  3.8291 -1.6645  2.7706
 4132TIP3   OH234030   4.060   1.448   7.870  0.0652  0.8078  0.6851
 4132TIP3    H134031   4.073   1.356   7.891 -1.2262  0.4267 -0.0981
 4132TIP3    H234032   4.139   1.491   7.904  0.6488 -0.5535  1.1442
 4133TIP3   OH234033   0.714   6.000   7.773 -0.1169 -0.7792 -0.1911
 4133TIP3    H134034   0.631   6.018   7.818 -0.6591  3.2083 -2.2992
 4133TIP3    H234035   0.781   6.026   7.836 -0.4917 -2.0330  0.7684
 4134TIP3   OH234036   3.480   5.354   1.857  0.5128 -0.0575  0.6527
 4134TIP3    H134037   3.562   5.374   1.900  1.7753 -1.0191 -1.1569
 4134TIP3    H234038   3.479   5.259   1.848 -0.1948  0.0252 -0.4432
 4135TIP3   OH234039   3.301   4.368   7.569  0.2327 -0.0433 -0.5700
 4135TIP3    H134040   3.373   4.310   7.543  0.4263 -0.0338 -0.0878
 4135TIP3    H234041   3.222   4.323   7.542  0.4078 -0.2372 -0.7619
 4136TIP3   OH234042   6.608   1.721   0.852 -0.4844 -0.2591 -0.6905
 4136TIP3    H134043   6.541   1.734   0.918  2.4782  2.4104  2.1705
 4136TIP3    H234044   6.670   1.661   0.893 -0.1605 -1.2206 -2.4870
 4137TIP3   OH234045   4.866   4.062   1.315  0.3595  0.1856 -0.2245
 4137TIP3    H134046   4.850   4.153   1.340  0.0395 -0.0950  0.6211
 4137TIP3    H234047   4.810   4.011   1.373  1.2012 -0.5981 -0.0799
 4138TIP3   OH234048   6.048   6.628   0.087 -0.4879  0.0206  0.2956
 4138TIP3    H134049   6.066   6.649  -0.004  1.4243 -0.0309  0.6285
 4138TIP3    H234050   6.001   6.705   0.121  1.2440  1.2617 -0.0288
 4139TIP3   OH234051   2.573   3.277   7.628 -0.2440 -0.1724  0.1301
 4139TIP3    H134052   2.608   3.337   7.694 -2.0451 -1.7897  2.7443
 4139TIP3    H234053   2.631   3.201   7.631 -0.0332 -0.0474 -0.5767
 4140TIP3   OH234054   4.605   6.874   7.525  0.2711 -0.2210  0.3744
 4140TIP3    H134055   4.692   6.914   7.527  0.4938 -0.6094 -0.8259
 4140TIP3    H234056   4.594   6.837   7.613  1.3589 -0.2642  0.5101
 4141TIP3   OH234057   2.409   5.825   1.638  0.0892 -0.1514  0.1191
 4141TIP3    H134058   2.323   5.856   1.610  0.1833  0.1412  0.1571
 4141TIP3    H234059   2.390   5.746   1.689 -0.1037 -0.5265 -0.5189
 4142TIP3   OH234060   3.988   5.014   1.625 -0.2222  0.3212 -0.0729
 4142TIP3    H134061   4.028   4.928   1.611 -1.1856 -0.1582  0.0325
 4142TIP3    H234062   4.045   5.075   1.579  0.0685 -0.4702 -0.7873
 4143TIP3   OH234063   6.796   4.340   0.961 -0.1392 -0.0825  0.1980
 4143TIP3    H134064   6.752   4.255   0.967 -1.9278  0.8585  1.9675
 4143TIP3    H234065   6.884   4.323   0.993 -0.1539 -1.4354 -0.3837
 4144TIP3   OH234066   4.497   3.560   8.151 -0.1562  0.4590  0.1015
 4144TIP3    H134067   4.585   3.594   8.136  0.6085 -0.9640  1.1415
 4144TIP3    H234068   4.485   3.567   8.246 -0.8611 -0.0935  0.0570
 4145TIP3   OH234069   5.624   6.249   0.547 -0.3772 -0.2531  0.4565
 4145TIP3    H134070   5.713   6.284   0.539  0.7990 -2.5507  2.4288
 4145TIP3    H234071   5.595   6.278   0.633 -0.3824 -1.8749  1.0207
 4146TIP3   OH234072   4.555   3.991   2.268  0.3747 -0.0602  0.0664
 4146TIP3    H134073   4.525   4.024   2.352  0.1331  0.7236 -0.3193
 4146TIP3    H234074   4.476   3.989   2.214  0.6984  0.3307 -0.4268
 4147TIP3   OH234075   5.632   3.495   0.046  0.0243  0.2183  0.4671
 4147TIP3    H134076   5.704   3.558   0.036 -0.7315  1.3025  1.5231
 4147TIP3    H234077   5.572   3.515  -0.026 -1.2132  2.1765  1.9196
 4148TIP3   OH234078   6.084   1.475   8.054  0.2173 -0.0405 -0.9428
 4148TIP3    H134079   6.018   1.490   7.986  0.6304 -0.1201 -1.3666
 4148TIP3    H234080   6.121   1.562   8.071 -1.8007  0.5073  1.2055
 4149TIP3   OH234081   0.495   1.787   0.768  0.0064  0.1750 -0.6212
 4149TIP3    H134082   0.522   1.714   0.713  0.6968  0.1164 -0.2064
 4149TIP3    H234083   0.550   1.781   0.846 -0.1114  0.9838 -0.4639
 4150TIP3   OH234084   2.316   7.048   0.014 -0.1560 -0.2041 -0.2379
 4150TIP3    H134085   2.247   7.114   0.023  0.6784  0.9348 -1.7731
 4150TIP3    H234086   2.279   6.985  -0.049 -0.3163 -0.3232 -0.0257
 4151TIP3   OH234087   1.201   4.356   7.285  0.2178 -0.6535 -0.1751
 4151TIP3    H134088   1.151   4.293   7.337  1.5293 -1.2744  0.4087
 4151TIP3    H234089   1.279   4.374   7.339  0.5305  0.4162 -0.9532
 4152TIP3   OH234090   2.488   3.759   0.005  0.3422 -0.4114  0.2331
 4152TIP3    H134091   2.518   3.844  -0.026  0.5631 -0.4564  0.3183
 4152TIP3    H234092   2.551   3.697  -0.032  1.2675 -0.3688  1.6458
 4153TIP3   OH234093   6.196   5.688   0.089 -0.1077 -0.3977 -0.3575
 4153TIP3    H134094   6.260   5.644   0.033  0.9920  0.7981 -0.0979
 4153TIP3    H234095   6.145   5.617   0.128 -0.8027 -1.2970 -2.7068
 4154TIP3   OH234096   5.317   3.051   0.477 -0.0520  0.3681 -0.3851
 4154TIP3    H134097   5.265   2.997   0.536 -0.4023  0.7821 -0.3093
 4154TIP3    H234098   5.287   3.027   0.389  0.7981 -0.5855 -0.4249
 4155TIP3   OH234099   3.118   1.990   1.934 -0.2234 -0.3928 -0.0483
 4155TIP3    H134100   3.098   2.056   2.000 -0.7643  3.2448 -3.4919
 4155TIP3    H234101   3.034   1.947   1.915 -0.3984 -0.2555  0.4166
 4156TIP3   OH234102   5.701   3.325   7.103 -0.3203 -0.0013  0.0313
 4156TIP3    H134103   5.672   3.351   7.016 -0.8512  0.6491  0.3903
 4156TIP3    H234104   5.769   3.389   7.126 -0.0127 -0.3143 -0.0016
 4157TIP3   OH234105   1.649   0.517   2.215 -0.1123 -0.1906 -0.6265
 4157TIP3    H134106   1.587   0.536   2.145 -1.3715 -2.0668 -0.0763
 4157TIP3    H234107   1.684   0.430   2.195  0.4406 -0.2302  0.4188
 4158TIP3   OH234108   1.846   2.500   7.178 -0.1186  0.2893 -0.3149
 4158TIP3    H134109   1.796   2.580   7.169  1.2498  1.0736 -1.3744
 4158TIP3    H234110   1.840   2.458   7.092 -0.9594 -0.8403  0.2783
 4159TIP3   OH234111   6.575   5.710   7.253  0.4480 -0.1413  0.1169
 4159TIP3    H134112   6.518   5.660   7.311  0.2269 -1.2137 -0.9893
 4159TIP3    H234113   6.516   5.747   7.188  0.8257  0.1050 -0.0901
 4160TIP3   OH234114   0.032   6.636   0.469 -0.1135  0.6925 -0.0688
 4160TIP3    H134115  -0.001   6.620   0.557  2.0506  0.4578  0.7336
 4160TIP3    H234116  -0.043   6.675   0.423 -1.7954 -0.6608  1.3672
 4161TIP3   OH234117   0.399   6.609   0.739 -0.1903 -0.0327  0.1377
 4161TIP3    H134118   0.428   6.677   0.678 -1.8754 -0.0451 -0.7297
 4161TIP3    H234119   0.331   6.562   0.692 -4.5517  2.4665  3.2518
 4162TIP3   OH234120   3.368   3.317   8.102 -0.1331 -0.0258  0.1173
 4162TIP3    H134121   3.427   3.251   8.066 -1.0274 -0.7121 -0.1269
 4162TIP3    H234122   3.288   3.308   8.051 -0.3927  1.0208  0.3141
 4163TIP3   OH234123   1.489   3.451   0.142 -0.1673 -0.5017  0.2041
 4163TIP3    H134124   1.500   3.454   0.047 -0.5877 -0.0659  0.1626
 4163TIP3    H234125   1.397   3.476   0.156 -1.1016 -3.7506  0.5511
 4164TIP3   OH234126   5.868   2.431   0.016  0.0423  0.2991  0.3159
 4164TIP3    H134127   5.874   2.356  -0.043  2.5222 -0.9929  2.0345
 4164TIP3    H234128   5.811   2.400   0.087  0.0612  0.4905  0.4135
 4165TIP3   OH234129   5.750   3.124   1.289  0.7944  0.1467  0.1381
 4165TIP3    H134130   5.818   3.192   1.296  1.3058 -0.3980  0.5579
 4165TIP3    H234131   5.759   3.089   1.201 -0.0853  1.2466 -0.4159
 4166TIP3   OH234132   3.778   2.402   1.243 -0.3337 -0.1435  0.0099
 4166TIP3    H134133   3.850   2.426   1.184 -0.9175  1.2872 -0.1793
 4166TIP3    H234134   3.792   2.456   1.321 -0.0292 -1.4226  0.8526
 4167TIP3   OH234135   5.389   0.101   7.512  0.2122  0.4068 -0.1595
 4167TIP3    H134136   5.467   0.121   7.459  1.1185 -1.0168  0.5875
 4167TIP3    H234137   5.392   0.164   7.584 -0.0261  1.1565 -0.7881
 4168TIP3   OH234138   1.325   2.474   8.023 -0.4867 -0.0196 -1.1839
 4168TIP3    H134139   1.336   2.382   8.000  1.0884  0.4718 -2.6415
 4168TIP3    H234140   1.244   2.500   7.979 -0.1202 -0.3549 -2.0950
 4169TIP3   OH234141   5.309   6.892   1.141  0.4906 -0.4651 -0.1484
 4169TIP3    H134142   5.312   6.848   1.056 -0.4930  1.4775 -1.2787
 4169TIP3    H234143   5.232   6.854   1.184  0.3914 -0.7487 -0.5631
 4170TIP3   OH234144   4.799   2.752   1.940 -0.1194 -0.1065  0.0891
 4170TIP3    H134145   4.864   2.782   1.876 -0.3689  0.3096  0.0318
 4170TIP3    H234146   4.834   2.668   1.972  0.6375  0.3008  0.3416
 4171TIP3   OH234147   5.944   5.758   7.233 -0.0607 -0.0365 -0.3692
 4171TIP3    H134148   5.901   5.843   7.244  2.6211  1.3022  1.0823
 4171TIP3    H234149   6.028   5.768   7.279  0.5644 -3.3644 -0.5030
 4172TIP3   OH234150   6.081   5.302   7.801  0.4506  0.8663  0.4964
 4172TIP3    H134151   6.103   5.395   7.806  0.1230  0.9713  0.0473
 4172TIP3    H234152   6.050   5.280   7.889  0.4923  1.1910  0.5929
 4173TIP3   OH234153   3.960   5.477   6.634  0.3785  0.2568 -0.3071
 4173TIP3    H134154   4.026   5.540   6.663  1.2699 -0.2725 -1.1261
 4173TIP3    H234155   3.911   5.523   6.566 -0.6894  0.9457  0.8683
 4174TIP3   OH234156   5.558   0.361   0.494  0.2607 -0.2127 -0.1495
 4174TIP3    H134157   5.563   0.267   0.512 -1.0758 -0.3701 -0.5512
 4174TIP3    H234158   5.478   0.390   0.537 -0.4499  0.3222 -1.7515
 4175TIP3   OH234159   1.361   1.934   2.001  0.5157  0.1602  0.0585
 4175TIP3    H134160   1.373   2.011   1.946 -2.4548  0.6046 -0.1341
 4175TIP3    H234161   1.281   1.952   2.051  1.7895 -1.2576  2.8044
 4176TIP3   OH234162   0.207   0.471   0.046 -0.0294 -0.3162  0.0918
 4176TIP3    H134163   0.175   0.478   0.136  0.5289 -0.4019  0.2980
 4176TIP3    H234164   0.187   0.557   0.007 -0.3085 -0.2926  0.2809
 4177TIP3   OH234165   5.348   5.546   2.366 -0.3529 -0.3291  0.0386
 4177TIP3    H134166   5.410   5.547   2.292  0.5706  0.2309  0.7991
 4177TIP3    H234167   5.355   5.633   2.404 -0.1965 -0.8685  1.2818
 4178TIP3   OH234168   3.486   1.002   1.383 -0.0673  0.1738  0.1475
 4178TIP3    H134169   3.414   1.021   1.444  0.8074  1.0192  0.9629
 4178TIP3    H234170   3.528   0.924   1.419  0.8170  1.0160  1.0183
 4179TIP3   OH234171   4.566   0.108   0.794  0.0419 -0.3831 -0.0478
 4179TIP3    H134172   4.494   0.169   0.775  0.8347  0.1916 -1.4094
 4179TIP3    H234173   4.570   0.104   0.889 -0.3671  1.3274  0.0900
 4180TIP3   OH234174   5.468   5.767   0.221 -0.0164 -0.0588 -0.6979
 4180TIP3    H134175   5.425   5.852   0.232 -0.5202 -0.3682 -0.2785
 4180TIP3    H234176   5.454   5.722   0.304 -2.9924 -2.0317 -2.1086
 4181TIP3   OH234177   1.527   0.749   6.189  0.2039  0.6044 -0.0495
 4181TIP3    H134178   1.449   0.803   6.199  0.4793  1.0125 -0.0809
 4181TIP3    H234179   1.576   0.790   6.118  0.3924  0.2897 -0.1002
 4182TIP3   OH234180   3.271   4.026   2.947 -0.3787  0.0055 -0.7007
 4182TIP3    H134181   3.361   4.029   2.979 -0.7046  0.1146  0.2273
 4182TIP3    H234182   3.280   4.010   2.853  0.6311  1.0871 -0.8147
 4183TIP3   OH234183   5.729   5.149   1.762 -0.1597 -0.3907  0.1614
 4183TIP3    H134184   5.820   5.123   1.776  0.0488 -1.3132 -2.3500
 4183TIP3    H234185   5.713   5.217   1.827  2.0246 -0.8219  1.2573
 4184TIP3   OH234186   5.004   1.470   1.410  0.6720 -0.1040 -0.3677
 4184TIP3    H134187   4.975   1.385   1.375 -0.4070 -0.2057  0.7322
 4184TIP3    H234188   4.924   1.520   1.422  1.3476  1.3055 -1.5203
 4185TIP3   OH234189   0.866   7.080   0.347 -0.1409  0.1934 -0.1477
 4185TIP3    H134190   0.773   7.063   0.332 -0.1468  0.1708 -0.0873
 4185TIP3    H234191   0.900   6.998   0.384  0.3870 -0.5782 -2.2186
 4186TIP3   OH234192   6.489   0.200   2.214 -0.1930 -0.1609 -0.0341
 4186TIP3    H134193   6.578   0.169   2.199  0.7754  1.7479  1.2038
 4186TIP3    H234194   6.474   0.264   2.144  0.1627  0.8490  0.7770
 4187TIP3   OH234195   2.590   6.794   0.307  0.3678 -0.3550  0.1096
 4187TIP3    H134196   2.518   6.846   0.344 -0.4672 -1.7684  0.5387
 4187TIP3    H234197   2.646   6.774   0.382  0.5414 -0.2971 -0.0052
 4188TIP3   OH234198   1.060   4.414   7.631  0.1217  0.0373  0.5104
 4188TIP3    H134199   1.115   4.483   7.593  1.6746 -1.3263  0.1853
 4188TIP3    H234200   0.996   4.394   7.562  0.9603 -0.2658 -0.1938
 4189TIP3   OH234201   3.817   6.577   0.171  0.2538 -0.6577  0.6731
 4189TIP3    H134202   3.739   6.619   0.206 -0.2403 -0.0013 -1.1480
 4189TIP3    H234203   3.854   6.530   0.246 -2.5400 -2.0346  1.3174
 4190TIP3   OH234204   4.120   5.177   0.966 -0.1795  0.4338 -0.1874
 4190TIP3    H134205   4.048   5.114   0.961 -0.3258  0.4082  1.5752
 4190TIP3    H234206   4.183   5.147   0.901 -0.2845 -1.5105  0.5421
 4191TIP3   OH234207   4.600   2.562   1.475  0.9595  0.1504 -0.4204
 4191TIP3    H134208   4.569   2.584   1.387 -0.1351  1.1591  0.1869
 4191TIP3    H234209   4.520   2.545   1.525  1.6121 -1.5149  0.1298
 4192TIP3   OH234210   2.245   4.230   7.598  0.2679  0.3741  0.1630
 4192TIP3    H134211   2.300   4.179   7.538 -0.9338 -0.3259 -0.3839
 4192TIP3    H234212   2.290   4.223   7.682  1.9347  1.2963 -0.6018
 4193TIP3   OH234213   3.666   4.011   1.010 -0.3146  0.6496 -0.2135
 4193TIP3    H134214   3.624   3.937   0.965 -1.1982  0.9710  0.0557
 4193TIP3    H234215   3.679   4.076   0.941  1.5281 -0.1652 -0.6956
 4194TIP3   OH234216   1.979   4.740   7.263  0.0456 -0.0370 -0.0236
 4194TIP3    H134217   2.031   4.733   7.343  0.6171 -0.0448 -0.3917
 4194TIP3    H234218   1.992   4.656   7.218  1.8943  0.9115 -1.4133
 4195TIP3   OH234219   0.817   5.949   7.352  0.4694 -0.4157  0.0143
 4195TIP3    H134220   0.880   5.886   7.386  0.9337  0.0915  0.0867
 4195TIP3    H234221   0.817   6.021   7.414  1.1809  0.4308 -0.9337
 4196TIP3   OH234222   1.889   7.069   1.229 -0.4549  0.1933 -0.0122
 4196TIP3    H134223   1.872   6.988   1.276 -0.1801  0.4497  0.5308
 4196TIP3    H234224   1.810   7.082   1.175 -0.9459  0.1138  0.6788
 4197TIP3   OH234225   2.587   1.981   0.072 -0.2822 -0.3836 -0.0092
 4197TIP3    H134226   2.515   1.938   0.118 -0.7820  0.7611  0.3191
 4197TIP3    H234227   2.623   2.043   0.135  2.3179 -2.2890  0.5088
 4198TIP3   OH234228   2.372   6.100   0.129  0.3953 -0.0428  0.1559
 4198TIP3    H134229   2.344   6.187   0.100 -1.7478 -0.9285 -0.6243
 4198TIP3    H234230   2.305   6.041   0.096  1.3780 -1.9230  1.3501
 4199TIP3   OH234231   2.534   0.920   7.969  0.2117  0.7478 -0.6263
 4199TIP3    H134232   2.571   0.945   7.885  0.0842  0.6062 -0.7242
 4199TIP3    H234233   2.464   0.984   7.984 -1.0693 -0.3905 -1.5496
 4200TIP3   OH234234   5.936   0.768   0.095 -0.4478 -0.1924  0.0262
 4200TIP3    H134235   5.919   0.838   0.032  1.4619 -1.3092 -1.8555
 4200TIP3    H234236   5.849   0.739   0.123 -1.3027  1.5298 -0.7382
 4201TIP3   OH234237   4.844   5.588   7.274 -0.6656  0.5872  0.0510
 4201TIP3    H134238   4.890   5.514   7.315  0.6762  2.0642  1.3691
 4201TIP3    H234239   4.862   5.578   7.181 -0.2418 -0.5629  0.2279
 4202TIP3   OH234240   0.378   2.674   2.372 -0.1155  0.1781  0.2230
 4202TIP3    H134241   0.471   2.670   2.390 -0.1445  0.9259  0.6079
 4202TIP3    H234242   0.371   2.667   2.276  0.2569 -0.8490  0.2694
 4203TIP3   OH234243   3.107   5.398   7.346  0.0490 -0.0161 -0.2213
 4203TIP3    H134244   3.017   5.367   7.359  0.0908  0.0317  0.2214
 4203TIP3    H234245   3.112   5.418   7.253 -0.1793 -0.7024 -0.3860
 4204TIP3   OH234246   2.893   4.151   0.918  0.0218 -0.5253 -0.4674
 4204TIP3    H134247   2.965   4.095   0.888  1.4406  0.7407  0.4153
 4204TIP3    H234248   2.824   4.138   0.854  1.5243 -0.8056 -2.1016
 4205TIP3   OH234249   4.320   2.219   7.962 -0.2367 -0.0052  0.0444
 4205TIP3    H134250   4.310   2.177   7.877  0.3464 -0.7945  0.3531
 4205TIP3    H234251   4.405   2.263   7.958  1.6347 -3.1214  1.4241
 4206TIP3   OH234252   0.054   5.968   0.010  0.2240 -0.3529  0.1204
 4206TIP3    H134253   0.145   5.939   0.006  0.0187 -1.0110  0.1391
 4206TIP3    H234254   0.057   6.061  -0.011  0.7649 -0.6369 -1.1272
 4207TIP3   OH234255   3.594   1.553   0.502 -0.6461 -0.3734 -0.2701
 4207TIP3    H134256   3.652   1.481   0.527  0.6932  0.0741 -1.8725
 4207TIP3    H234257   3.536   1.515   0.436 -0.4007 -0.1906 -0.6001
 4208TIP3   OH234258   2.726   6.354   1.239 -0.2388  0.6830  0.3385
 4208TIP3    H134259   2.747   6.397   1.322 -1.0144  2.0404 -0.1377
 4208TIP3    H234260   2.796   6.381   1.180 -0.6363  1.1833  0.0850
 4209TIP3   OH234261   2.043   1.754   7.795 -0.0709 -0.2197  0.4185
 4209TIP3    H134262   2.047   1.807   7.875 -1.3695  0.1016  0.2979
 4209TIP3    H234263   1.978   1.798   7.740 -0.5184 -1.4280 -0.0626
 4210TIP3   OH234264   5.402   0.338   7.152 -0.1501  0.2274 -0.0607
 4210TIP3    H134265   5.486   0.356   7.110 -0.1348  1.1155  0.3350
 4210TIP3    H234266   5.351   0.418   7.139 -1.5140 -0.8426 -1.6540
 4211TIP3   OH234267   6.885   6.048   1.595 -0.0710 -0.7306  0.0274
 4211TIP3    H134268   6.878   6.036   1.689  1.3897 -0.4615  0.1895
 4211TIP3    H234269   6.861   6.140   1.580 -0.1426 -0.7281  0.1642
 4212TIP3   OH234270   3.373   4.693   2.923  0.2171  0.6706  0.5274
 4212TIP3    H134271   3.305   4.627   2.936 -0.9323  1.6417 -0.3564
 4212TIP3    H234272   3.333   4.774   2.954  1.2832  1.1156  0.7680
 4213TIP3   OH234273   6.362   0.692   0.244  0.2286  0.1601 -0.1603
 4213TIP3    H134274   6.345   0.614   0.297 -2.0484  0.1889 -0.7552
 4213TIP3    H234275   6.454   0.711   0.259  0.1899 -1.0825  2.0948
 4214TIP3   OH234276   0.066   1.546   2.210 -0.2996  0.6740  0.0291
 4214TIP3    H134277   0.126   1.474   2.190 -1.6546 -0.4130 -0.2747
 4214TIP3    H234278   0.085   1.568   2.301  0.4635  0.2633 -0.0190
 4215TIP3   OH234279   4.301   2.871   0.169  0.1430  0.4936  0.2348
 4215TIP3    H134280   4.284   2.964   0.156 -0.3081  0.4481  0.4617
 4215TIP3    H234281   4.390   2.867   0.203  0.4583  0.7798 -0.5409
 4216TIP3   OH234282   2.895   4.667   0.820  0.1998  0.3558 -0.3530
 4216TIP3    H134283   2.927   4.581   0.848  1.0038  0.9409  0.5875
 4216TIP3    H234284   2.821   4.685   0.879 -0.5108 -0.0452 -1.1034
 4217TIP3   OH234285   4.320   0.951   2.178  0.6721 -0.1200 -0.2346
 4217TIP3    H134286   4.337   1.029   2.230  1.6147  0.5124 -1.4583
 4217TIP3    H234287   4.385   0.888   2.207  0.3753 -0.2178  0.2367
 4218TIP3   OH234288   6.303   0.850   1.139  0.2079 -0.3083 -0.4636
 4218TIP3    H134289   6.299   0.945   1.145 -1.7312 -0.3547 -0.4815
 4218TIP3    H234290   6.392   0.827   1.169 -0.0926  1.3235  1.8789
 4219TIP3   OH234291   3.076   5.235   0.949  0.3776  0.3025 -0.5542
 4219TIP3    H134292   3.004   5.297   0.940  1.0360  1.1986  0.0634
 4219TIP3    H234293   3.061   5.192   1.033  0.4616  0.3704 -0.5034
 4220TIP3   OH234294   1.264   2.616   0.024  0.2077 -0.3169 -0.5817
 4220TIP3    H134295   1.331   2.570  -0.027 -0.0560 -0.8956 -0.4195
 4220TIP3    H234296   1.197   2.550   0.040  0.8220 -0.5017  1.5378
 4221TIP3   OH234297   2.831   5.864   1.899  0.2906 -0.9328  0.6750
 4221TIP3    H134298   2.792   5.810   1.830  0.4729  1.1498 -1.1918
 4221TIP3    H234299   2.913   5.820   1.921  1.0179 -0.8699 -1.6275
 4222TIP3   OH234300   2.862   7.074   1.376 -0.6956  0.1386  0.2776
 4222TIP3    H134301   2.852   7.099   1.468 -0.0422 -1.0511  0.7014
 4222TIP3    H234302   2.935   7.127   1.344  1.0430 -1.4846  1.3171
 4223TIP3   OH234303   3.393   4.188   1.043 -0.0155 -0.0292  0.1949
 4223TIP3    H134304   3.432   4.145   0.967  0.7408 -0.4329  0.7964
 4223TIP3    H234305   3.448   4.265   1.058 -0.5413  0.3960 -0.0442
 4224TIP3   OH234306   4.810   1.428   1.718  0.2803  0.5565  0.0071
 4224TIP3    H134307   4.823   1.485   1.794  1.5112 -1.4077  1.3456
 4224TIP3    H234308   4.757   1.356   1.751 -0.1456  0.2399 -1.3163
 4225TIP3   OH234309   4.014   1.805   6.857  0.0034  0.1794  0.3038
 4225TIP3    H134310   3.922   1.776   6.859  0.7386 -2.6549 -1.1967
 4225TIP3    H234311   4.011   1.886   6.806 -1.7260  0.5267  0.8670
 4226TIP3   OH234312   6.161   1.773   1.210 -0.5003 -0.8301  0.2424
 4226TIP3    H134313   6.134   1.858   1.174  1.2722  0.2198  1.2478
 4226TIP3    H234314   6.119   1.709   1.152  0.2637  0.7391 -2.2389
 4227TIP3   OH234315   5.247   5.795   1.504 -0.0536  0.0619 -0.0637
 4227TIP3    H134316   5.297   5.719   1.472 -0.9231 -0.3247 -0.5326
 4227TIP3    H234317   5.293   5.870   1.468  0.3196 -0.2809 -0.3188
 4228TIP3   OH234318   1.190   1.060   1.762  0.1884  0.3416 -0.9107
 4228TIP3    H134319   1.234   0.992   1.712  0.3344 -0.1347 -0.1544
 4228TIP3    H234320   1.160   1.016   1.842 -2.0527  0.5272 -1.5686
 4229TIP3   OH234321   3.059   3.889   0.402  0.0908 -0.6496  0.2492
 4229TIP3    H134322   3.133   3.879   0.342 -0.3602 -0.0993 -0.4070
 4229TIP3    H234323   2.997   3.944   0.355  0.2936  0.9090  1.7023
 4230TIP3   OH234324   5.144   1.473   2.572  0.3131  0.0335  0.4959
 4230TIP3    H134325   5.223   1.447   2.525  0.6316  1.4169  0.2248
 4230TIP3    H234326   5.153   1.568   2.584 -1.4478  0.2776  0.1811
 4231TIP3   OH234327   4.775   4.819   0.915  0.0207  0.2592  0.7129
 4231TIP3    H134328   4.805   4.731   0.894 -0.6370  0.1754  0.0870
 4231TIP3    H234329   4.834   4.877   0.867 -1.9821  0.0598 -2.2574
 4232TIP3   OH234330   6.436   1.178   0.636 -1.3765  0.0017 -0.1876
 4232TIP3    H134331   6.373   1.173   0.563 -3.2056  0.1430  1.2906
 4232TIP3    H234332   6.399   1.121   0.703  0.3410 -0.2445  0.5999
 4233TIP3   OH234333   3.479   5.148   6.869  0.3104  0.3352  0.3087
 4233TIP3    H134334   3.444   5.128   6.955 -3.2200 -2.1154 -1.4474
 4233TIP3    H234335   3.500   5.063   6.831 -0.2288  1.1385 -1.9716
 4234TIP3   OH234336   4.087   2.220   1.351  0.2643 -0.1076  0.6263
 4234TIP3    H134337   4.129   2.235   1.436 -0.6358 -0.2301  1.1059
 4234TIP3    H234338   4.147   2.258   1.287  0.5004  0.8477  1.4010
 4235TIP3   OH234339   2.722   0.885   6.624 -0.0439  0.5328 -0.2487
 4235TIP3    H134340   2.735   0.808   6.568  2.0086  1.9400 -1.8287
 4235TIP3    H234341   2.643   0.927   6.589  0.2520  0.4765 -0.9990
 4236TIP3   OH234342   4.279   4.849   7.779  0.0553  0.2200 -0.0021
 4236TIP3    H134343   4.255   4.941   7.793  0.7132  0.5493 -0.9236
 4236TIP3    H234344   4.256   4.833   7.687 -0.5389 -0.7039  0.2937
 4237TIP3   OH234345   6.594   0.127   1.357  0.1248 -0.4929  0.1761
 4237TIP3    H134346   6.584   0.199   1.418  0.0962 -1.6760  1.6395
 4237TIP3    H234347   6.576   0.165   1.271  1.1745  1.4604  0.7608
 4238TIP3   OH234348   0.240   1.858   6.597 -0.5327  0.5258  0.7562
 4238TIP3    H134349   0.147   1.843   6.581 -1.1907  1.1858  3.4479
 4238TIP3    H234350   0.254   1.951   6.578 -0.3039  0.3299 -0.0630
 4239TIP3   OH234351   5.561   6.121   1.899 -0.3379 -0.3484 -0.4239
 4239TIP3    H134352   5.485   6.097   1.952  0.0328 -0.2128  0.1743
 4239TIP3    H234353   5.527   6.125   1.809 -1.3669  1.1477  0.0003
 4240TIP3   OH234354   0.629   1.180   2.151 -0.0122  0.4468 -0.3362
 4240TIP3    H134355   0.713   1.211   2.183  0.3561  2.4842 -2.9004
 4240TIP3    H234356   0.564   1.238   2.191  0.0139  0.2684 -0.0350
 4241TIP3   OH234357   0.695   0.058   2.002  0.7380 -0.0098 -0.4135
 4241TIP3    H134358   0.715   0.132   1.944  3.6982  0.3163  0.8221
 4241TIP3    H234359   0.769  -0.002   1.990 -0.3160 -1.5798  0.5028
 4242TIP3   OH234360   6.259   5.119   8.117  0.2769  0.5507  0.7558
 4242TIP3    H134361   6.296   5.066   8.187  1.0426  0.3142  0.1811
 4242TIP3    H234362   6.253   5.060   8.042 -1.1563  0.6181  0.7973
 4243TIP3   OH234363   6.668   4.163   0.153  0.0910 -0.5118 -0.0242
 4243TIP3    H134364   6.737   4.189   0.213 -0.3533 -1.7146  1.0491
 4243TIP3    H234365   6.714   4.124   0.079  0.6109  0.2227 -0.0956
 4244TIP3   OH234366   1.455   7.061   7.454  0.3547  0.0847 -0.1677
 4244TIP3    H134367   1.505   7.027   7.529  0.8989  0.0038 -0.5643
 4244TIP3    H234368   1.475   7.155   7.453  0.8266 -0.0183 -0.5726
 4245TIP3   OH234369   2.220   0.777   1.415  0.0542  0.4866  0.5838
 4245TIP3    H134370   2.195   0.809   1.329 -0.8267 -1.9954 -0.1800
 4245TIP3    H234371   2.224   0.682   1.405 -2.8933 -0.1968  3.9548
 4246TIP3   OH234372   4.228   1.593   1.179 -0.1704  0.5362  0.1155
 4246TIP3    H134373   4.221   1.498   1.166 -1.9013  0.2329  2.5628
 4246TIP3    H234374   4.138   1.624   1.175  0.1518  1.7224  1.5520
 4247TIP3   OH234375   0.032   4.126   7.259  0.1029  0.4644  0.0526
 4247TIP3    H134376  -0.026   4.052   7.241 -1.9030  1.9065  0.2339
 4247TIP3    H234377   0.120   4.092   7.246 -0.6438 -2.3552  1.5629
 4248TIP3   OH234378   3.617   0.106   1.234  0.0375 -0.0342 -0.3382
 4248TIP3    H134379   3.527   0.076   1.217 -0.0454  0.7597 -1.3672
 4248TIP3    H234380   3.653   0.039   1.292 -2.2556  1.2628  2.8705
 4249TIP3   OH234381   3.820   1.146   2.097 -0.1888 -0.0613 -0.4334
 4249TIP3    H134382   3.836   1.119   2.188  0.3202  1.0396 -0.1818
 4249TIP3    H234383   3.746   1.207   2.104  0.4344  0.7320 -0.6278
 4250TIP3   OH234384   3.713   2.985   1.962 -0.4221  0.2611 -0.0056
 4250TIP3    H134385   3.731   2.911   2.021  0.9476  0.5307 -0.0386
 4250TIP3    H234386   3.622   3.007   1.978 -1.1177 -1.9148 -0.5330
 4251TIP3   OH234387   0.109   3.653   0.970  0.2097 -0.0586  0.3427
 4251TIP3    H134388   0.190   3.702   0.957  0.4729 -0.2920  1.0149
 4251TIP3    H234389   0.064   3.700   1.040  0.1011 -0.3296  0.4570
 4252TIP3   OH234390   4.220   2.610   2.254 -0.0285 -0.4163  0.2034
 4252TIP3    H134391   4.271   2.644   2.181 -1.2873 -0.4903 -0.7524
 4252TIP3    H234392   4.267   2.638   2.332  0.8776  0.4326 -0.6225
 4253TIP3   OH234393   3.571   5.730   0.322  0.4151  0.2128  0.1993
 4253TIP3    H134394   3.534   5.733   0.410 -1.0967 -0.9313 -0.3383
 4253TIP3    H234395   3.557   5.639   0.293  0.0365  0.7797 -1.5357
 4254TIP3   OH234396   3.599   1.767   8.111 -0.1538 -0.5443  0.2560
 4254TIP3    H134397   3.648   1.685   8.112 -1.1084 -1.1291  0.3638
 4254TIP3    H234398   3.655   1.829   8.064  0.9019 -1.0503  0.8242
 4255TIP3   OH234399   5.494   0.076   0.128  0.1515 -0.8498  0.7170
 4255TIP3    H134400   5.431   0.125   0.075  0.7367  0.0688  0.8342
 4255TIP3    H234401   5.477   0.105   0.218 -0.3528 -1.8530  0.9562
 4256TIP3   OH234402   5.471   0.532   2.008  0.1928 -0.1547 -0.2372
 4256TIP3    H134403   5.388   0.567   1.975  0.0163 -0.7073 -0.3907
 4256TIP3    H234404   5.517   0.501   1.930  0.9667  0.9961 -0.2646
 4257TIP3   OH234405   1.603   2.924   7.749  0.6894  0.2074 -0.3262
 4257TIP3    H134406   1.673   2.981   7.779 -0.6631  1.3320  0.8360
 4257TIP3    H234407   1.575   2.961   7.666  2.1570 -0.9107 -1.3871
 4258TIP3   OH234408   6.178   4.107   1.925  0.1261  0.2647 -0.1657
 4258TIP3    H134409   6.254   4.141   1.972  1.6457 -0.0240 -2.2622
 4258TIP3    H234410   6.215   4.065   1.847 -2.1927  0.0789 -1.2562
 4259TIP3   OH234411   1.802   2.621   8.035 -0.1955 -0.4275 -0.3380
 4259TIP3    H134412   1.883   2.624   8.085 -0.5417  0.5542  0.1874
 4259TIP3    H234413   1.780   2.712   8.019 -0.4671 -0.7093 -1.6955
 4260TIP3   OH234414   6.169   1.620   2.539  0.3314  0.4715 -0.4759
 4260TIP3    H134415   6.263   1.626   2.556  0.2138 -1.3699  1.2226
 4260TIP3    H234416   6.139   1.549   2.596 -1.6116 -0.9132 -3.0231
 4261TIP3   OH234417   6.493   2.947   2.323 -0.3694  0.2418 -0.7694
 4261TIP3    H134418   6.554   3.018   2.342  1.0354 -1.2691  0.7214
 4261TIP3    H234419   6.535   2.868   2.357 -3.4863 -0.8182  1.1129
 4262TIP3   OH234420   5.967   1.631   2.848 -0.3308  0.6113 -0.7299
 4262TIP3    H134421   5.907   1.703   2.869  0.1786  1.0438 -0.7515
 4262TIP3    H234422   6.043   1.646   2.904  0.1845  0.6276 -1.4297
 4263TIP3   OH234423   0.749   5.230   7.849 -0.7504 -0.1859  0.3844
 4263TIP3    H134424   0.715   5.319   7.842  1.4196  0.8344  1.8154
 4263TIP3    H234425   0.759   5.215   7.943  1.5715 -0.8032  0.1052
 4264TIP3   OH234426   0.386   1.933   1.687 -0.4482 -0.3696 -0.4545
 4264TIP3    H134427   0.310   1.882   1.659  0.3633 -1.3495 -0.9352
 4264TIP3    H234428   0.394   2.001   1.620 -0.0715 -1.1251 -1.2008
 4265TIP3   OH234429   2.570   0.053   6.791 -0.2720 -0.4558 -0.2192
 4265TIP3    H134430   2.584   0.105   6.870 -0.2790 -0.1312 -0.4254
 4265TIP3    H234431   2.511   0.107   6.738  0.1612 -0.4219 -0.6746
 4266TIP3   OH234432   5.714   2.900   7.739  0.5280 -0.1316  0.0425
 4266TIP3    H134433   5.624   2.931   7.728  0.0859 -1.6056 -0.7006
 4266TIP3    H234434   5.746   2.887   7.650  1.4240  0.1808  0.3096
 4267TIP3   OH234435   1.415   2.200   7.943  0.2307  0.1306  0.2140
 4267TIP3    H134436   1.501   2.190   7.984  0.8919 -0.6592 -1.3085
 4267TIP3    H234437   1.434   2.233   7.855 -1.2242  3.2745  0.9268
 4268TIP3   OH234438   4.740   5.603   0.531  0.3548  0.3363 -0.3859
 4268TIP3    H134439   4.702   5.648   0.606 -0.9355  0.1956 -0.9175
 4268TIP3    H234440   4.719   5.659   0.456 -1.9340 -1.3998 -1.1639
 4269TIP3   OH234441   6.759   6.928   0.733 -0.3677  0.1101  0.2761
 4269TIP3    H134442   6.742   6.870   0.659  0.9057 -0.0418  0.0838
 4269TIP3    H234443   6.789   6.869   0.803  0.1316  0.4374  0.3416
 4270TIP3   OH234444   1.043   3.982   3.043  0.0487  0.2047  0.3121
 4270TIP3    H134445   1.060   4.077   3.044  2.1299 -0.1037 -0.3335
 4270TIP3    H234446   1.113   3.947   2.988 -1.8160 -1.5264 -1.0804
 4271TIP3   OH234447   5.885   5.082   7.049  0.2181 -0.5157 -0.9852
 4271TIP3    H134448   5.849   5.008   7.001 -1.6371 -0.1944 -0.1548
 4271TIP3    H234449   5.887   5.054   7.140  0.4659  0.0956 -0.7941
 4272TIP3   OH234450   3.037   1.349   8.156  0.3368 -0.1390 -0.0329
 4272TIP3    H134451   2.988   1.280   8.111  0.9683  0.7239 -2.1838
 4272TIP3    H234452   3.101   1.303   8.209 -0.4222 -1.2193 -0.0310
 4273TIP3   OH234453   2.795   4.874   0.317 -0.3457  1.1025 -0.9106
 4273TIP3    H134454   2.849   4.900   0.243  0.4642 -0.9978 -1.1256
 4273TIP3    H234455   2.706   4.899   0.292  0.0222  1.1049 -2.2835
 4274TIP3   OH234456   1.947   5.678   1.077  0.4449 -0.2466 -0.1788
 4274TIP3    H134457   1.970   5.750   1.137 -1.2955  1.1119 -1.0719
 4274TIP3    H234458   1.950   5.600   1.132 -2.1823  1.0709  2.0634
 4275TIP3   OH234459   1.818   5.915   7.141 -0.2419  0.4837  0.4478
 4275TIP3    H134460   1.769   5.871   7.071 -1.7897  1.5003  0.8503
 4275TIP3    H234461   1.799   5.863   7.219 -0.7499  0.9196  0.6177
 4276TIP3   OH234462   0.658   6.753   7.501 -0.1045  0.5898  0.4596
 4276TIP3    H134463   0.750   6.733   7.488 -0.1217  0.4880  0.4960
 4276TIP3    H234464   0.637   6.815   7.431 -0.4102 -0.5980 -0.5203
 4277TIP3   OH234465   3.605   3.071   1.208 -0.6339  0.4716  0.1133
 4277TIP3    H134466   3.624   3.142   1.270 -2.2822  0.5722  0.5642
 4277TIP3    H234467   3.581   3.117   1.128  1.5552  0.3406 -0.6813
 4278TIP3   OH234468   5.596   1.338   0.560  0.0561 -0.3497  0.2315
 4278TIP3    H134469   5.631   1.272   0.501 -0.4994 -0.1959 -0.2809
 4278TIP3    H234470   5.669   1.361   0.618  0.5525 -0.6271 -0.2838
 4279TIP3   OH234471   3.546   3.438   0.329 -0.4096 -0.2697  0.2160
 4279TIP3    H134472   3.472   3.463   0.274 -2.2965 -1.9953  1.7997
 4279TIP3    H234473   3.528   3.479   0.414  1.0875  0.2336  0.3217
 4280TIP3   OH234474   5.208   3.460   0.156 -0.0208  0.1052 -0.0797
 4280TIP3    H134475   5.274   3.529   0.159  2.1073 -1.7403 -1.3366
 4280TIP3    H234476   5.220   3.412   0.238  2.2826 -1.8913 -1.4386
 4281TIP3   OH234477   5.512   3.877   0.406 -0.1147  0.5471  0.0869
 4281TIP3    H134478   5.511   3.949   0.343  1.3802  0.2785 -0.3066
 4281TIP3    H234479   5.595   3.832   0.388  0.7538  0.9173  2.7429
 4282TIP3   OH234480   1.969   4.480   0.349 -0.1630 -0.0608 -0.1036
 4282TIP3    H134481   2.016   4.423   0.410  0.2463  0.1625 -0.2059
 4282TIP3    H234482   1.966   4.565   0.394 -2.8842 -0.7197  1.1289
 4283TIP3   OH234483   5.581   4.332   7.998  0.2450 -0.1483  0.0896
 4283TIP3    H134484   5.627   4.324   8.081  0.8980 -1.0999 -0.3528
 4283TIP3    H234485   5.488   4.335   8.023  0.4258  4.3568  1.2014
 4284TIP3   OH234486   0.694   0.539   1.305 -0.6376 -0.1635  0.3747
 4284TIP3    H134487   0.599   0.533   1.298 -0.5625  0.5537 -2.0034
 4284TIP3    H234488   0.711   0.633   1.316 -0.1251  0.2078 -2.7537
 4285TIP3   OH234489   5.424   0.274   7.725  0.0240  0.4704  0.3549
 4285TIP3    H134490   5.434   0.324   7.807  1.9020  2.0703 -0.7339
 4285TIP3    H234491   5.365   0.327   7.672 -0.6861 -0.2453  0.4126
 4286TIP3   OH234492   4.329   4.234   0.986  0.1129 -0.0309 -0.5200
 4286TIP3    H134493   4.359   4.235   1.077 -1.3611 -0.3941 -0.0111
 4286TIP3    H234494   4.351   4.322   0.953 -0.8718  0.7015  0.7121
 4287TIP3   OH234495   4.115   1.793   7.486 -0.4047  0.7972 -0.3505
 4287TIP3    H134496   4.058   1.737   7.539  0.5866  0.7542  0.7084
 4287TIP3    H234497   4.157   1.732   7.424  0.4293  0.4014  0.5855
 4288TIP3   OH234498   2.950   2.579   1.333  0.2991 -0.3461 -0.3117
 4288TIP3    H134499   2.911   2.632   1.264 -1.4993  0.4142  1.1997
 4288TIP3    H234500   3.036   2.618   1.348 -0.6724  1.7631  0.2429
 4289TIP3   OH234501   3.714   6.132   1.323  0.6696  0.0501 -0.2150
 4289TIP3    H134502   3.716   6.055   1.266 -0.0731 -0.6369  0.6434
 4289TIP3    H234503   3.681   6.099   1.407  2.0598  0.9471  0.7461
 4290TIP3   OH234504   5.398   5.582   1.380  0.4149 -0.2832  0.0234
 4290TIP3    H134505   5.484   5.614   1.355 -0.2087  1.6437  0.2106
 4290TIP3    H234506   5.416   5.499   1.426  2.2573  0.6768  1.1514
 4291TIP3   OH234507   4.137   2.844   0.404 -0.2510 -0.4820 -0.5993
 4291TIP3    H134508   4.054   2.866   0.362 -0.4854 -3.0848 -1.6890
 4291TIP3    H234509   4.188   2.800   0.336  1.0482 -1.1254  0.7292
 4292TIP3   OH234510   5.263   6.650   0.010  0.2685  0.5029  0.7159
 4292TIP3    H134511   5.337   6.606   0.052 -0.7905 -0.8785  1.2222
 4292TIP3    H234512   5.186   6.610   0.050 -0.7604  1.4487 -0.2573
 4293TIP3   OH234513   0.091   6.799   0.821 -0.4198  0.7265 -0.0855
 4293TIP3    H134514   0.084   6.704   0.811  0.9217  0.4581  1.0945
 4293TIP3    H234515   0.127   6.830   0.738  2.1060 -0.2412  0.5503
 4294TIP3   OH234516   3.754   1.455   0.167 -0.0221 -0.2081  0.2271
 4294TIP3    H134517   3.668   1.497   0.179  0.0880  0.1518 -0.2271
 4294TIP3    H234518   3.793   1.501   0.093 -0.6858 -2.3584 -1.5702
 4295TIP3   OH234519   3.561   1.402   6.306 -0.5686 -0.1180 -0.3699
 4295TIP3    H134520   3.542   1.364   6.393 -1.1600 -0.4500 -0.6338
 4295TIP3    H234521   3.567   1.496   6.322 -0.6332 -0.1795  0.0408
 4296TIP3   OH234522   1.707   4.911   2.833 -0.5433 -1.3762 -0.0037
 4296TIP3    H134523   1.767   4.843   2.802  1.3235  0.2033 -0.0803
 4296TIP3    H234524   1.683   4.959   2.755 -1.4088 -1.5902  0.1250
 4297TIP3   OH234525   4.684   4.962   7.506 -0.0602  0.4219  0.2665
 4297TIP3    H134526   4.764   4.955   7.454 -0.4510 -0.6326 -0.2200
 4297TIP3    H234527   4.618   4.996   7.446 -0.1467  0.6129  0.4686
 4298TIP3   OH234528   4.103   5.657   1.144 -0.1012 -0.0554  0.0877
 4298TIP3    H134529   4.062   5.658   1.231 -2.0270 -0.1523 -0.7521
 4298TIP3    H234530   4.129   5.566   1.131  1.0290  0.1346  0.8994
 4299TIP3   OH234531   3.437   2.424   1.124  0.5425 -0.7537  0.4700
 4299TIP3    H134532   3.528   2.397   1.109  0.5584 -2.3449  2.8331
 4299TIP3    H234533   3.435   2.517   1.102  2.9831 -0.4450  1.2687
 4300TIP3   OH234534   1.984   5.554   1.383  0.4569  0.5772  0.4030
 4300TIP3    H134535   1.952   5.478   1.431 -0.0162 -0.4932 -1.4828
 4300TIP3    H234536   1.912   5.618   1.387 -0.8101 -0.6533 -1.2925
 4301TIP3   OH234537   4.378   3.153   0.518  0.1950 -0.3481  0.4356
 4301TIP3    H134538   4.452   3.148   0.457 -0.4020 -2.8096 -0.2078
 4301TIP3    H234539   4.367   3.064   0.549 -2.0652  0.0941  1.0681
 4302TIP3   OH234540   5.600   4.008   0.051 -0.2379 -0.2348 -0.4310
 4302TIP3    H134541   5.539   4.049   0.111 -0.5455  1.9554 -2.1009
 4302TIP3    H234542   5.651   4.081   0.016  2.5293 -1.8376 -0.0381
 4303TIP3   OH234543   4.713   4.067   1.887  0.8465  0.1168 -0.1290
 4303TIP3    H134544   4.747   4.098   1.971 -1.2199  2.3820 -0.0248
 4303TIP3    H234545   4.649   4.000   1.910  1.4813 -0.4927 -0.0606
 4304TIP3   OH234546   5.552   1.464   1.224 -0.2260  0.7144 -0.1021
 4304TIP3    H134547   5.478   1.427   1.271 -0.1276  0.7916  0.1138
 4304TIP3    H234548   5.546   1.558   1.239  1.0005  0.5679  1.5123
 4305TIP3   OH234549   5.885   0.435   1.425 -0.0261  0.5534 -0.1875
 4305TIP3    H134550   5.923   0.371   1.485 -0.2253  0.2799 -0.3547
 4305TIP3    H234551   5.884   0.391   1.340  0.2883  0.9532 -0.4037
 4306TIP3   OH234552   4.124   1.171   1.544  0.0655 -0.1147 -0.6923
 4306TIP3    H134553   4.072   1.126   1.478 -0.1528 -0.3431 -0.3671
 4306TIP3    H234554   4.149   1.253   1.502 -0.5964  0.0194 -0.8391
 4307TIP3   OH234555   3.774   2.513   8.133  0.2509  0.5514 -0.7059
 4307TIP3    H134556   3.829   2.585   8.103 -0.0457  1.1161  0.0775
 4307TIP3    H234557   3.732   2.546   8.213  0.3683 -0.6132 -0.1421
 4308TIP3   OH234558   1.069   1.317   1.909 -0.6397  0.2735 -0.8125
 4308TIP3    H134559   0.977   1.294   1.893 -0.9170  0.4750  0.3755
 4308TIP3    H234560   1.071   1.342   2.001  0.7202 -0.2769 -0.6767
 4309TIP3   OH234561   1.247   1.333   6.634  0.0752 -0.3552  0.0249
 4309TIP3    H134562   1.315   1.352   6.698 -0.7324 -0.9293  1.0883
 4309TIP3    H234563   1.177   1.395   6.654 -0.4070 -0.8971  0.0651
 4310TIP3   OH234564   0.441   5.498   7.959 -0.0473  0.5464 -0.2519
 4310TIP3    H134565   0.472   5.581   7.996  1.1077 -0.3592  0.9287
 4310TIP3    H234566   0.389   5.523   7.883  1.4082  2.3039 -0.7366
 4311TIP3   OH234567   4.886   4.578   1.644  0.2657 -0.4100  0.2165
 4311TIP3    H134568   4.952   4.512   1.664 -0.8600 -1.6666 -0.0478
 4311TIP3    H234569   4.870   4.569   1.550 -0.9900 -0.8363  0.4488
 4312TIP3   OH234570   6.472   0.052   6.621 -0.5937 -0.2263 -0.4576
 4312TIP3    H134571   6.425   0.092   6.548 -1.8592 -0.9997 -0.1000
 4312TIP3    H234572   6.427   0.086   6.699  1.0815  1.0211  0.0168
 4313TIP3   OH234573   2.201   4.068   1.014 -0.2135 -0.1897  0.3073
 4313TIP3    H134574   2.259   4.036   0.944  1.5058  1.2781  0.9788
 4313TIP3    H234575   2.256   4.067   1.093 -1.3533  0.5315  1.1468
 4314TIP3   OH234576   1.798   6.817   6.425  0.3321  0.0519  0.3266
 4314TIP3    H134577   1.815   6.762   6.502 -0.6511 -0.6562  0.0555
 4314TIP3    H234578   1.705   6.838   6.430  0.0240 -0.7978 -1.1617
 4315TIP3   OH234579   2.819   6.073   2.482 -0.2198 -0.0603 -0.4007
 4315TIP3    H134580   2.744   6.129   2.464  0.3882  0.4829 -1.3086
 4315TIP3    H234581   2.822   6.067   2.578 -0.6498  0.9805 -0.3067
 4316TIP3   OH234582   5.373   4.742   7.989 -0.5345  0.2817 -0.2347
 4316TIP3    H134583   5.297   4.754   8.047 -0.9627  2.6105 -1.1399
 4316TIP3    H234584   5.337   4.699   7.911 -0.8022  0.7585 -0.3808
 4317TIP3   OH234585   1.602   5.265   1.742  0.5348  0.7466  0.6067
 4317TIP3    H134586   1.511   5.294   1.728  0.9508  2.2455  0.8762
 4317TIP3    H234587   1.604   5.234   1.832  0.2488  0.5130  0.5354
 4318TIP3   OH234588   2.458   6.228   6.532 -0.4885 -1.2528  0.0919
 4318TIP3    H134589   2.400   6.303   6.548  1.1853 -0.1661  1.4679
 4318TIP3    H234590   2.478   6.233   6.439  0.6969  0.9208  0.4032
 4319TIP3   OH234591   6.669   6.918   1.698  0.4848 -0.1325  0.3074
 4319TIP3    H134592   6.584   6.898   1.738 -0.1164 -0.0161 -0.8771
 4319TIP3    H234593   6.658   7.005   1.660  1.4929  0.3502  1.0623
 4320TIP3   OH234594   2.090   0.430   6.048 -0.3442  0.0647  0.1992
 4320TIP3    H134595   2.032   0.354   6.039 -1.9622  0.9880  2.0280
 4320TIP3    H234596   2.103   0.461   5.958 -2.7302 -0.2187 -0.3217
 4321TIP3   OH234597   0.381   4.918   1.718 -0.6638 -0.2981  0.5174
 4321TIP3    H134598   0.304   4.883   1.764  0.3856  0.3794  2.9146
 4321TIP3    H234599   0.433   4.960   1.786  1.9883 -0.9271 -0.9812
 4322TIP3   OH234600   6.368   5.149   7.351 -0.1342 -0.1377 -0.1958
 4322TIP3    H134601   6.332   5.180   7.434 -0.0409 -1.9106  0.5362
 4322TIP3    H234602   6.337   5.213   7.287 -2.2855 -0.0630  0.8234
 4323TIP3   OH234603   4.447   3.058   8.099 -0.0065  0.2273 -0.0046
 4323TIP3    H134604   4.357   3.057   8.067  0.1918  1.0754 -0.6141
 4323TIP3    H234605   4.487   2.979   8.063 -0.5447 -0.2388  0.4062
 4324TIP3   OH234606   3.844   3.383   0.277 -0.2122 -0.1484 -0.6204
 4324TIP3    H134607   3.835   3.479   0.275 -1.7242 -0.2623 -0.0825
 4324TIP3    H234608   3.929   3.368   0.318 -0.1409  0.9537 -0.3323
 4325TIP3   OH234609   3.139   2.712   0.666  0.0247 -0.0616 -0.0264
 4325TIP3    H134610   3.163   2.638   0.610  0.0748  0.1974 -0.3457
 4325TIP3    H234611   3.221   2.758   0.680 -0.0380  0.0313  0.0321
 4326TIP3   OH234612   2.252   4.362   8.000  0.1814 -0.3463  0.0540
 4326TIP3    H134613   2.318   4.333   8.064  0.3415 -0.1978 -0.0418
 4326TIP3    H234614   2.186   4.293   8.001  0.5420 -0.6991 -0.1509
 4327TIP3   OH234615   0.003   0.609   7.577 -0.0524  0.5314 -0.3356
 4327TIP3    H134616   0.060   0.594   7.652  0.4539  3.2573 -0.0813
 4327TIP3    H234617   0.062   0.635   7.506 -0.6561 -0.5730 -1.2772
 4328TIP3   OH234618   3.005   0.600   2.772  0.0116  0.2611  0.1559
 4328TIP3    H134619   3.005   0.685   2.728  0.0391  0.8969  1.3395
 4328TIP3    H234620   2.975   0.538   2.705 -0.6183  1.2977 -0.5536
 4329TIP3   OH234621   1.302   6.107   8.014  0.3377  0.5996  0.3821
 4329TIP3    H134622   1.296   6.202   8.011 -0.4570  0.6475  2.1552
 4329TIP3    H234623   1.286   6.085   8.106  1.9233 -1.1628  0.3011
 4330TIP3   OH234624   3.716   0.761   1.694  0.0452  0.4776 -0.0541
 4330TIP3    H134625   3.774   0.734   1.765  0.4284  0.3333 -0.4176
 4330TIP3    H234626   3.628   0.748   1.729  0.2205 -0.5231  0.0604
 4331TIP3   OH234627   5.513   4.706   2.998 -0.3404 -0.5147  0.0773
 4331TIP3    H134628   5.441   4.766   3.016 -1.8027 -2.0171 -0.4733
 4331TIP3    H234629   5.540   4.726   2.909 -0.0607  0.0403  0.2802
 4332TIP3   OH234630   2.573   0.073   0.058  0.1894 -0.3199  0.1717
 4332TIP3    H134631   2.494   0.029   0.026  1.3076 -1.0698 -1.7878
 4332TIP3    H234632   2.585   0.146  -0.003 -0.0331  0.9852  1.6387
 4333TIP3   OH234633   1.825   2.633   0.648 -0.0264  0.2053  0.2937
 4333TIP3    H134634   1.736   2.655   0.618 -0.7806 -0.8027  1.6607
 4333TIP3    H234635   1.864   2.587   0.574 -0.3955  1.2254 -0.5667
 4334TIP3   OH234636   6.325   5.097   1.822  0.1535  0.1174  0.5035
 4334TIP3    H134637   6.332   5.003   1.806 -1.3537 -0.4237  2.6428
 4334TIP3    H234638   6.391   5.115   1.889 -0.4582  0.2956  1.0684
 4335TIP3   OH234639   3.095   1.183   0.848  0.1336 -0.4268  0.0444
 4335TIP3    H134640   3.178   1.172   0.803 -0.0343  2.0707 -1.0133
 4335TIP3    H234641   3.110   1.256   0.909 -1.7104  1.3987 -1.5301
 4336TIP3   OH234642   6.695   5.476   0.892  0.2544  0.4449 -0.2154
 4336TIP3    H134643   6.725   5.449   0.979 -1.0740  3.4395  1.3552
 4336TIP3    H234644   6.600   5.471   0.897  0.0934  2.0402 -0.9169
 4337TIP3   OH234645   5.237   1.956   0.422 -0.0905 -0.1243  0.1188
 4337TIP3    H134646   5.163   1.956   0.361  0.2950  3.5061 -0.5930
 4337TIP3    H234647   5.210   1.898   0.493 -2.2904 -1.2920 -1.5443
 4338TIP3   OH234648   5.664   3.195   2.693  0.4158 -0.3448  0.1226
 4338TIP3    H134649   5.687   3.283   2.724  1.2224 -0.6538  0.4210
 4338TIP3    H234650   5.742   3.165   2.646 -0.8482  0.2067 -2.4945
 4339TIP3   OH234651   0.382   3.401   1.824 -0.2720  0.2687 -0.3686
 4339TIP3    H134652   0.364   3.357   1.906 -0.1080 -0.5267 -0.7493
 4339TIP3    H234653   0.356   3.492   1.839  2.1127  0.7515  1.3951
 4340TIP3   OH234654   5.594   3.000   2.224  0.3797 -0.1332  0.6163
 4340TIP3    H134655   5.585   2.961   2.311 -2.2442 -0.6320  0.2158
 4340TIP3    H234656   5.555   3.087   2.233 -1.2376 -0.7089 -0.3149
 4341TIP3   OH234657   1.163   6.779   0.712  0.0731  0.0091 -0.7961
 4341TIP3    H134658   1.193   6.701   0.760  0.8175  0.1713 -0.9829
 4341TIP3    H234659   1.115   6.830   0.777  0.8750  0.1185 -0.2781
 4342TIP3   OH234660   6.705   2.615   8.137  0.1623 -0.0040  0.4123
 4342TIP3    H134661   6.714   2.529   8.097 -0.8279  0.2719 -0.4210
 4342TIP3    H234662   6.612   2.624   8.156  0.2513  0.8884  0.4954
 4343TIP3   OH234663   0.368   1.084   1.181 -0.3871  0.2049  0.3295
 4343TIP3    H134664   0.454   1.063   1.217 -1.3068 -3.6456  0.7180
 4343TIP3    H234665   0.354   1.017   1.114 -1.3398  3.3930 -2.9990
 4344TIP3   OH234666   6.120   4.170   7.277  0.8169 -0.0965  0.1122
 4344TIP3    H134667   6.144   4.229   7.349  0.6421 -1.2455  1.1350
 4344TIP3    H234668   6.155   4.085   7.303  0.3933 -0.6226 -0.9856
 4345TIP3   OH234669   1.314   0.193   2.590  0.4593  0.6723 -0.0841
 4345TIP3    H134670   1.263   0.126   2.543 -0.2441  0.9203  0.3139
 4345TIP3    H234671   1.361   0.144   2.658  1.3226  0.3417 -0.9012
 4346TIP3   OH234672   1.197   5.797   0.923  0.4712 -0.1183  0.4494
 4346TIP3    H134673   1.165   5.728   0.865 -1.3100  0.8433  0.2095
 4346TIP3    H234674   1.182   5.878   0.874  2.8428  0.4713  0.5789
 4347TIP3   OH234675   0.790   5.324   1.127  0.1312 -0.3627  0.1818
 4347TIP3    H134676   0.812   5.386   1.197 -1.4857 -1.9151  2.1899
 4347TIP3    H234677   0.802   5.238   1.166 -0.8590 -1.2961 -1.4577
 4348TIP3   OH234678   4.859   5.357   7.527 -0.0642 -0.0238 -0.0760
 4348TIP3    H134679   4.816   5.294   7.585  1.9861 -1.3364  0.1201
 4348TIP3    H234680   4.882   5.431   7.584  1.0192 -0.8611  0.6215
 4349TIP3   OH234681   0.350   6.893   8.011 -0.4919 -0.3294  0.2559
 4349TIP3    H134682   0.277   6.846   8.053 -0.2745 -0.5790  0.3627
 4349TIP3    H234683   0.428   6.858   8.055 -0.3002 -0.1746  0.0372
 4350TIP3   OH234684   1.724   0.494   6.899 -0.4458 -0.0619  0.8721
 4350TIP3    H134685   1.723   0.555   6.824 -0.6688 -1.8813 -0.6725
 4350TIP3    H234686   1.666   0.423   6.872  0.7374 -1.5446  2.1217
 4351TIP3   OH234687   0.514   4.795   6.202  0.7344 -0.3796 -0.5061
 4351TIP3    H134688   0.461   4.854   6.257  1.8848 -0.7979  1.1285
 4351TIP3    H234689   0.464   4.714   6.200 -0.0008  0.0714 -1.3007
 4352TIP3   OH234690   6.173   5.418   0.352  0.6281  0.1263 -0.7996
 4352TIP3    H134691   6.263   5.419   0.384  1.1180 -0.4795 -2.0716
 4352TIP3    H234692   6.157   5.327   0.327 -0.4508  0.1642 -0.3268
 4353TIP3   OH234693   5.314   3.744   1.312 -0.4341  0.5768 -0.5149
 4353TIP3    H134694   5.282   3.691   1.240 -0.1344 -0.7593  0.2992
 4353TIP3    H234695   5.408   3.727   1.314 -0.7684 -1.6654  1.8698
 4354TIP3   OH234696   3.512   1.378   8.153 -0.4638 -0.1140 -0.1190
 4354TIP3    H134697   3.427   1.337   8.138 -1.8483  2.8644 -1.1668
 4354TIP3    H234698   3.576   1.314   8.124 -2.4966 -1.1473 -2.6611
 4355TIP3   OH234699   0.951   4.229   0.007  0.5552 -0.3947 -0.1825
 4355TIP3    H134700   0.906   4.312  -0.006  0.1857 -0.3774  1.0720
 4355TIP3    H234701   1.043   4.251   0.012  0.4989 -0.1202 -0.3607
 4356TIP3   OH234702   5.326   4.570   3.191 -0.0115 -0.5985 -0.2372
 4356TIP3    H134703   5.337   4.630   3.117 -1.6188  2.1584  1.5463
 4356TIP3    H234704   5.410   4.526   3.200  0.3940 -0.6231 -3.3268
 4357TIP3   OH234705   2.924   4.387   2.238  0.2085 -0.1049  0.0933
 4357TIP3    H134706   2.834   4.357   2.229  0.1891  0.3330 -1.2746
 4357TIP3    H234707   2.917   4.475   2.274 -0.0215  0.6954 -1.8219
 4358TIP3   OH234708   5.393   4.456   7.578  0.5233 -0.2901  0.2220
 4358TIP3    H134709   5.367   4.419   7.662 -2.9536  0.5437 -0.3511
 4358TIP3    H234710   5.409   4.380   7.523  0.4918 -0.8591  0.9790
 4359TIP3   OH234711   6.510   3.417   7.628 -0.2081  0.5334 -0.1435
 4359TIP3    H134712   6.515   3.322   7.636  0.4174  0.5845  0.1182
 4359TIP3    H234713   6.422   3.439   7.658 -0.7461 -0.0590 -1.2057
 4360TIP3   OH234714   3.376   3.952   1.323  0.0601  0.3113  0.0100
 4360TIP3    H134715   3.455   3.907   1.293  1.1596  1.4102  1.1549
 4360TIP3    H234716   3.305   3.908   1.277  1.3314 -0.6766 -1.0962
 4361TIP3   OH234717   2.148   0.545   1.583  0.5393 -0.1044  0.1071
 4361TIP3    H134718   2.232   0.541   1.629  0.6527 -0.2181 -0.1125
 4361TIP3    H234719   2.117   0.454   1.581 -0.4950  0.1611  1.8672
 4362TIP3   OH234720   0.460   1.550   0.623 -0.1806  0.2001  0.1802
 4362TIP3    H134721   0.447   1.460   0.652 -0.0572  0.1200 -0.0153
 4362TIP3    H234722   0.481   1.543   0.530  0.2748  0.4018  0.2657
 4363TIP3   OH234723   6.787   5.481   0.336  0.4598 -0.2448 -0.6041
 4363TIP3    H134724   6.735   5.545   0.387  1.8231  0.4578 -0.0391
 4363TIP3    H234725   6.861   5.532   0.303  0.5121 -1.1036 -1.8652
 4364TIP3   OH234726   4.908   0.512   1.241 -0.0254  0.0120 -0.4747
 4364TIP3    H134727   4.846   0.484   1.308 -1.3279  1.2843 -1.0941
 4364TIP3    H234728   4.947   0.592   1.276  0.0781  0.0922 -0.7645
 4365TIP3   OH234729   2.600   1.608   7.495 -0.0996  0.0623 -0.3498
 4365TIP3    H134730   2.567   1.659   7.568  0.7275 -0.5718  0.4920
 4365TIP3    H234731   2.691   1.637   7.484  0.0153 -0.3747 -0.6280
 4366TIP3   OH234732   0.942   6.902   0.594  0.3278  0.6280  0.0096
 4366TIP3    H134733   1.013   6.837   0.593 -0.5899 -0.4049  0.7507
 4366TIP3    H234734   0.977   6.975   0.645  0.1294 -0.7548  2.2199
 4367TIP3   OH234735   3.484   0.655   0.048  0.1322 -0.2833 -0.1878
 4367TIP3    H134736   3.549   0.724   0.060 -0.2970  0.0754  0.1061
 4367TIP3    H234737   3.435   0.682  -0.031 -0.2503 -0.0733  0.1163
 4368TIP3   OH234738   2.724   0.967   1.209  0.1177  0.2568 -0.0492
 4368TIP3    H134739   2.718   0.908   1.285 -0.1989  0.5495  0.1535
 4368TIP3    H234740   2.806   0.941   1.166  0.0532 -0.2402  0.1160
 4369TIP3   OH234741   5.013   4.284   2.806 -0.1377 -0.1783 -0.3972
 4369TIP3    H134742   4.978   4.268   2.718  1.0222  0.8774 -1.0881
 4369TIP3    H234743   4.937   4.282   2.863 -0.6884 -3.2991 -1.0252
 4370TIP3   OH234744   5.933   4.284   2.524 -0.3582 -0.5495  0.1953
 4370TIP3    H134745   5.960   4.304   2.435  1.0800 -0.3990  0.6266
 4370TIP3    H234746   5.901   4.194   2.521  1.0067 -1.0406 -0.2290
 4371TIP3   OH234747   6.295   0.562   2.824 -0.1575  0.0273 -0.0077
 4371TIP3    H134748   6.208   0.561   2.784  0.3836 -1.2499 -1.2208
 4371TIP3    H234749   6.331   0.475   2.807  1.6026  0.7272 -0.1083
 4372TIP3   OH234750   6.552   1.884   7.706 -0.0577 -0.2925  0.5930
 4372TIP3    H134751   6.592   1.882   7.793  1.5884  0.8892 -0.0862
 4372TIP3    H234752   6.511   1.971   7.701  1.9512  0.6738 -0.6201
 4373TIP3   OH234753   0.897   4.591   0.476 -0.4536 -0.2639 -0.0739
 4373TIP3    H134754   0.858   4.678   0.466  0.7832  0.1434 -1.9023
 4373TIP3    H234755   0.990   4.605   0.459 -0.0073 -1.7531  0.9376
 4374TIP3   OH234756   0.194   0.070   1.347  0.1908 -0.4449  0.6481
 4374TIP3    H134757   0.226  -0.004   1.296  1.2270 -0.3144  1.0823
 4374TIP3    H234758   0.155   0.129   1.283  0.4972 -0.7862  0.1473
 4375TIP3   OH234759   2.904   3.222   7.365  0.3005  0.1451  0.0323
 4375TIP3    H134760   2.993   3.257   7.364  1.8827 -3.4333 -1.2903
 4375TIP3    H234761   2.869   3.241   7.278  0.1229  0.7036  0.2218
 4376TIP3   OH234762   2.627   5.389   2.117  0.1732 -0.6943 -0.0231
 4376TIP3    H134763   2.596   5.301   2.141  1.7360 -0.8205  1.7648
 4376TIP3    H234764   2.653   5.381   2.025  1.2189 -2.4006  0.3872
 4377TIP3   OH234765   2.257   4.007   0.003 -0.2251  0.2066 -0.1418
 4377TIP3    H134766   2.335   4.056  -0.022  1.0916 -1.9308 -0.5176
 4377TIP3    H234767   2.250   4.019   0.098  1.0082 -0.1393  0.0098
 4378TIP3   OH234768   3.300   1.915   7.512 -0.3511 -0.2107  0.2912
 4378TIP3    H134769   3.256   1.990   7.471 -1.0503  0.2437  1.8020
 4378TIP3    H234770   3.338   1.951   7.593  1.5378 -0.9325 -0.2098
 4379TIP3   OH234771   3.170   6.929   7.265 -0.3471 -0.7726  0.2432
 4379TIP3    H134772   3.137   6.874   7.194  0.1286 -1.0596  0.2399
 4379TIP3    H234773   3.192   7.012   7.224  0.4538 -1.1225 -0.0590
 4380TIP3   OH234774   5.524   2.624   1.896  0.3474  0.3531 -0.1486
 4380TIP3    H134775   5.594   2.628   1.831  1.4423 -0.1103  0.9440
 4380TIP3    H234776   5.570   2.613   1.979 -0.9287  2.4517  0.9094
 4381TIP3   OH234777   5.474   0.455   7.449  0.0150 -0.1142 -0.3314
 4381TIP3    H134778   5.541   0.389   7.435  0.6910  0.3959  0.3840
 4381TIP3    H234779   5.501   0.529   7.396 -0.2352 -0.0729 -0.4026
 4382TIP3   OH234780   6.055   1.544   1.109  0.0430  0.6172  0.1155
 4382TIP3    H134781   6.051   1.526   1.015 -0.6013  1.8744 -0.1234
 4382TIP3    H234782   6.141   1.511   1.136  0.6654  1.1599 -1.1176
 4383TIP3   OH234783   5.161   1.897   2.132 -0.3218  0.5043 -0.0811
 4383TIP3    H134784   5.100   1.971   2.135  0.5620  1.2576 -0.1477
 4383TIP3    H234785   5.134   1.841   2.205 -0.6169  1.2097  0.3679
 4384TIP3   OH234786   0.442   0.911   7.960 -0.4729  0.2649 -0.3087
 4384TIP3    H134787   0.473   0.883   7.874 -0.3489 -0.2355 -0.1000
 4384TIP3    H234788   0.465   0.840   8.019  0.6407  1.1615  0.3888
 4385TIP3   OH234789   0.360   1.536   7.314 -0.1610  0.4092 -0.2592
 4385TIP3    H134790   0.338   1.626   7.335  1.8768  0.8438  0.2220
 4385TIP3    H234791   0.349   1.489   7.397  1.2497  0.7497  0.1376
 4386TIP3   OH234792   5.331   6.048   1.391  0.7096  0.3123  0.1610
 4386TIP3    H134793   5.247   6.047   1.437  0.5444 -0.7995 -0.1484
 4386TIP3    H234794   5.309   6.064   1.300  0.8398  0.0207  0.0796
 4387TIP3   OH234795   4.971   2.749   1.019  0.1323  0.2619  0.9498
 4387TIP3    H134796   4.894   2.785   0.977 -0.4296 -1.1743  0.6941
 4387TIP3    H234797   5.001   2.679   0.960  0.7772 -0.1502  1.7389
 4388TIP3   OH234798   1.507   0.118   0.211 -0.0927  0.1304 -0.2239
 4388TIP3    H134799   1.459   0.150   0.287  0.7007  0.6281  0.0859
 4388TIP3    H234800   1.535   0.030   0.236  0.0783  0.2533  0.0237
 4389TIP3   OH234801   1.148   0.216   8.142  0.1938  0.0473 -0.4299
 4389TIP3    H134802   1.194   0.174   8.071  0.9342  0.6225 -0.3043
 4389TIP3    H234803   1.096   0.146   8.182 -1.3423 -0.0104 -2.3743
 4390TIP3   OH234804   2.957   0.817   7.320  0.6079 -0.0475  0.2333
 4390TIP3    H134805   2.861   0.809   7.316  0.6260 -1.0249  1.0929
 4390TIP3    H234806   2.974   0.848   7.408  1.0222  1.8424 -0.4843
 4391TIP3   OH234807   1.529   6.487   1.726 -0.0538  0.4839 -0.3847
 4391TIP3    H134808   1.589   6.415   1.704 -0.9475  0.0127 -1.3586
 4391TIP3    H234809   1.489   6.511   1.643 -1.2937  0.7226  0.2573
 4392TIP3   OH234810   1.225   5.323   0.120 -0.3911 -0.4897  0.0262
 4392TIP3    H134811   1.197   5.233   0.107 -0.4399 -1.1618  3.7124
 4392TIP3    H234812   1.144   5.372   0.136 -0.1648 -0.5045  1.3080
 4393TIP3   OH234813   2.368   0.148   6.057  0.1669 -0.5560 -0.0975
 4393TIP3    H134814   2.309   0.074   6.070  2.3227 -3.0172 -2.9218
 4393TIP3    H234815   2.330   0.196   5.983 -1.2543  1.3638  1.7591
 4394TIP3   OH234816   3.174   2.426   1.736 -0.3419  0.0597  0.3583
 4394TIP3    H134817   3.090   2.457   1.700 -0.1983  0.7448  0.5871
 4394TIP3    H234818   3.161   2.332   1.749  0.0637 -0.5097 -2.7216
 4395TIP3   OH234819   6.453   5.103   1.502  0.3634 -0.4369  0.3440
 4395TIP3    H134820   6.507   5.025   1.483  1.4508  0.8792 -2.6048
 4395TIP3    H234821   6.496   5.144   1.577  1.9694 -0.8270 -0.3142
 4396TIP3   OH234822   1.472   6.442   0.902  0.1408  0.0880 -0.0539
 4396TIP3    H134823   1.377   6.438   0.897  0.0571 -0.7385  1.5438
 4396TIP3    H234824   1.497   6.360   0.944  1.4026  1.0768  1.2137
 4397TIP3   OH234825   0.718   1.855   0.376 -0.0546 -0.4702 -0.3754
 4397TIP3    H134826   0.766   1.906   0.441 -0.0185  0.2764 -0.9754
 4397TIP3    H234827   0.730   1.903   0.294 -0.5407 -1.1093 -0.8296
 4398TIP3   OH234828   3.357   6.244   0.848  0.0148 -0.7684 -0.2876
 4398TIP3    H134829   3.291   6.273   0.911 -0.7792 -1.4819 -0.7764
 4398TIP3    H234830   3.425   6.203   0.902 -0.7193 -1.4904  0.1107
 4399TIP3   OH234831   1.285   6.516   6.575 -0.2518  0.1729  0.1785
 4399TIP3    H134832   1.322   6.501   6.488  0.7513 -1.2513  0.8143
 4399TIP3    H234833   1.209   6.458   6.579 -0.5498  0.5543  0.1081
 4400TIP3   OH234834   3.460   2.725   1.875  0.1050  0.4971 -0.1052
 4400TIP3    H134835   3.466   2.820   1.877  1.0279  0.4576  1.5291
 4400TIP3    H234836   3.408   2.703   1.952  1.7904 -0.3619  0.8701
 4401TIP3   OH234837   0.773   4.137   1.853  0.0715  0.2895 -0.2215
 4401TIP3    H134838   0.867   4.126   1.870  0.1363  0.9955 -0.0666
 4401TIP3    H234839   0.769   4.180   1.768 -0.0118  2.0175  0.6044
 4402TIP3   OH234840   1.712   2.315   0.875  0.0700  0.1275  0.4425
 4402TIP3    H134841   1.647   2.318   0.805 -0.1993 -2.1537  0.5264
 4402TIP3    H234842   1.796   2.318   0.829 -0.0954  0.0759  0.1310
 4403TIP3   OH234843   2.053   3.758   0.546  0.2158  0.3400  0.2954
 4403TIP3    H134844   1.958   3.750   0.543  0.3905 -2.3690 -1.1882
 4403TIP3    H234845   2.081   3.753   0.455  1.9103 -2.0820  0.8612
 4404TIP3   OH234846   0.052   6.613   1.147  0.0313 -0.8164 -0.8437
 4404TIP3    H134847  -0.039   6.613   1.178  0.4271 -0.0239  0.3847
 4404TIP3    H234848   0.102   6.576   1.220  0.9234  0.5857 -0.7025
 4405TIP3   OH234849   3.045   5.684   1.478  0.1807  0.5874 -0.4707
 4405TIP3    H134850   3.130   5.679   1.435  1.3351 -2.3078  1.8149
 4405TIP3    H234851   3.046   5.768   1.523  1.2828  1.1398 -1.4615
 4406TIP3   OH234852   7.048   0.290   2.293 -0.0692 -0.7240  0.2899
 4406TIP3    H134853   6.959   0.269   2.320  0.0525 -2.3701 -0.4476
 4406TIP3    H234854   7.103   0.248   2.359  0.1677 -0.5985  0.1720
 4407TIP3   OH234855   5.340   5.453   0.546  0.9721  0.0190  0.1050
 4407TIP3    H134856   5.356   5.361   0.524  1.4251 -0.1635  1.1484
 4407TIP3    H234857   5.408   5.501   0.499  1.4736 -0.2911  0.5076
 4408TIP3   OH234858   5.344   4.948   3.027 -0.0560  0.0007 -0.4223
 4408TIP3    H134859   5.413   5.003   2.990  0.5290 -0.5930 -0.2355
 4408TIP3    H234860   5.305   4.904   2.952  0.0594  0.0133 -0.4895
 4409TIP3   OH234861   5.255   5.588   7.118  0.6674  0.6824 -0.0678
 4409TIP3    H134862   5.302   5.521   7.168  1.7172  0.1437 -1.7037
 4409TIP3    H234863   5.320   5.656   7.102  0.2215  1.0553 -0.3243
 4410TIP3   OH234864   5.994   6.109   0.058 -0.0949 -0.0680  0.1754
 4410TIP3    H134865   6.025   6.096   0.148  1.2243  1.1284 -0.0688
 4410TIP3    H234866   5.974   6.203   0.053 -0.5232 -0.1989 -0.6652
 4411TIP3   OH234867   6.478   2.999   7.220 -0.5628  0.7788  0.0846
 4411TIP3    H134868   6.477   3.078   7.166 -0.4284  0.8454  0.1792
 4411TIP3    H234869   6.414   2.941   7.179 -1.5411  1.3919  0.6998
 4412TIP3   OH234870   2.605   6.152   0.465 -0.0346  0.6438 -0.1585
 4412TIP3    H134871   2.670   6.206   0.510 -1.4493  1.2627  1.2683
 4412TIP3    H234872   2.531   6.211   0.448 -2.0416 -0.9080  2.3350
 4413TIP3   OH234873   5.659   5.586   1.770  0.3692 -0.6295 -0.4422
 4413TIP3    H134874   5.754   5.589   1.780  0.4705 -0.3360 -1.4442
 4413TIP3    H234875   5.634   5.675   1.746 -0.0944 -0.8314 -0.7369
 4414TIP3   OH234876   5.704   3.388   6.766  0.0880 -0.0409 -0.1408
 4414TIP3    H134877   5.785   3.339   6.749  0.4009  0.6080 -0.5895
 4414TIP3    H234878   5.638   3.345   6.712  0.3298 -0.0374 -0.4387
 4415TIP3   OH234879   4.273   3.266   1.316  0.2994 -0.1409  0.3347
 4415TIP3    H134880   4.236   3.261   1.404  0.3009  0.2904  0.3594
 4415TIP3    H234881   4.295   3.358   1.304 -0.3104 -0.0799 -0.3703
 4416TIP3   OH234882   5.641   4.057   7.549  0.7425 -0.2986 -0.4475
 4416TIP3    H134883   5.672   4.121   7.613  0.1834 -0.5040  0.0425
 4416TIP3    H234884   5.694   3.979   7.566  1.0197 -0.1531 -0.6481
 4417TIP3   OH234885   0.264   2.154   1.043  0.7917  0.2364 -0.5713
 4417TIP3    H134886   0.329   2.212   1.085  1.1555  0.4806 -1.4537
 4417TIP3    H234887   0.308   2.069   1.039  0.6634  0.1525 -0.2466
 4418TIP3   OH234888   5.300   0.876   7.346  0.2044  0.4406 -0.3647
 4418TIP3    H134889   5.305   0.955   7.400  1.2838  0.4157 -0.3974
 4418TIP3    H234890   5.389   0.865   7.312  0.2656 -1.1773  0.2249
 4419TIP3   OH234891   2.192   4.565   6.742  0.2752  0.0648 -0.1518
 4419TIP3    H134892   2.162   4.653   6.717  1.1665 -0.0813 -1.8624
 4419TIP3    H234893   2.153   4.507   6.677  0.0835 -0.7533  0.6839
 4420TIP3   OH234894   0.902   2.744   7.581 -0.3438 -0.4379  0.5392
 4420TIP3    H134895   0.832   2.778   7.637  0.5881  0.6100  1.1237
 4420TIP3    H234896   0.904   2.804   7.506 -0.8877 -1.2114 -0.1120
 4421TIP3   OH234897   5.698   0.809   2.275  0.8348 -0.1383 -0.5871
 4421TIP3    H134898   5.641   0.734   2.257  2.4446 -1.0848 -1.9689
 4421TIP3    H234899   5.775   0.795   2.221  3.1918  0.2108  2.3850
 4422TIP3   OH234900   2.066   0.180   1.496 -0.1088 -0.3069  0.6058
 4422TIP3    H134901   2.104   0.116   1.437  1.8863 -0.2196  1.7395
 4422TIP3    H234902   2.013   0.236   1.439  0.8753 -0.8766 -0.9158
 4423TIP3   OH234903   5.085   4.366   1.303 -0.3427 -0.8321  0.0448
 4423TIP3    H134904   5.050   4.349   1.391 -1.0085 -0.6351 -0.1755
 4423TIP3    H234905   5.083   4.461   1.295  1.9643 -0.6640  0.7056
 4424TIP3   OH234906   1.076   6.571   1.454  0.3916  0.7761  0.4151
 4424TIP3    H134907   0.991   6.600   1.487  0.2589  1.2289 -0.3071
 4424TIP3    H234908   1.102   6.639   1.392  1.5136  0.8954  0.9993
 4425TIP3   OH234909   5.931   2.525   0.497  0.3890 -0.0379  0.1572
 4425TIP3    H134910   5.944   2.440   0.454 -1.0885 -0.3367  0.2446
 4425TIP3    H234911   5.911   2.585   0.425 -3.0500 -0.7311  0.3384
 4426TIP3   OH234912   0.935   0.462   1.749 -0.0097  0.4129  0.0278
 4426TIP3    H134913   0.863   0.513   1.713 -0.1584  1.8120  2.0998
 4426TIP3    H234914   1.007   0.525   1.758  0.4648 -0.2161  0.8063
 4427TIP3   OH234915   1.889   4.121   1.071  0.6697 -0.2483 -0.2197
 4427TIP3    H134916   1.911   4.212   1.051 -0.4214 -0.0487 -0.5677
 4427TIP3    H234917   1.970   4.073   1.053  0.5206  0.2811 -2.6887
 4428TIP3   OH234918   6.928   5.317   0.830  0.3026  0.0598 -0.3033
 4428TIP3    H134919   6.898   5.226   0.825  1.0813 -0.1860 -0.7666
 4428TIP3    H234920   6.848   5.369   0.831 -0.1541 -0.5472 -1.9100
 4429TIP3   OH234921   2.161   4.410   1.760 -0.4888 -0.0775  0.1904
 4429TIP3    H134922   2.186   4.495   1.797  0.4038 -1.2510  2.4369
 4429TIP3    H234923   2.118   4.433   1.677  1.0469  2.4681 -0.0343
 4430TIP3   OH234924   5.232   6.737   7.914 -0.0050 -0.2089  0.4534
 4430TIP3    H134925   5.162   6.770   7.857 -1.6976  2.4164  3.6871
 4430TIP3    H234926   5.189   6.670   7.968  0.0526  1.0102  2.0733
 4431TIP3   OH234927   4.636   4.629   0.408  0.3737 -0.0622  0.5599
 4431TIP3    H134928   4.559   4.668   0.449  0.3098 -0.0658  0.4437
 4431TIP3    H234929   4.603   4.554   0.359 -0.0189  1.6259 -1.9229
 4432TIP3   OH234930   7.081   0.768   1.353  0.5838  0.6561 -0.5768
 4432TIP3    H134931   7.175   0.771   1.336  0.8725 -2.5714 -0.1904
 4432TIP3    H234932   7.072   0.708   1.427 -1.8514 -0.5826 -1.7653
 4433TIP3   OH234933   2.354   1.896   2.376  0.7668 -0.6699  0.1631
 4433TIP3    H134934   2.335   1.961   2.443 -2.1359 -1.5642  0.3731
 4433TIP3    H234935   2.442   1.917   2.345  0.4131  2.5548  1.0559
 4434TIP3   OH234936   2.574   6.283   1.954  0.1184  0.4243 -0.4457
 4434TIP3    H134937   2.625   6.363   1.964  1.6770 -0.5342 -0.3360
 4434TIP3    H234938   2.532   6.270   2.039  1.1578  0.2856  0.0622
 4435TIP3   OH234939   6.265   5.833   6.374  0.1254 -0.1539  0.0403
 4435TIP3    H134940   6.309   5.797   6.450  1.8129  0.2798 -0.6962
 4435TIP3    H234941   6.335   5.857   6.314 -1.0575  1.6191 -0.7262
 4436TIP3   OH234942   6.942   5.102   2.144 -0.0129 -0.2709 -0.7468
 4436TIP3    H134943   6.931   5.063   2.231 -0.4099  0.0625 -0.6472
 4436TIP3    H234944   6.901   5.188   2.150  2.1326  0.7841 -0.5494
 4437TIP3   OH234945   2.886   2.322   0.910 -0.1366 -0.1905  0.3026
 4437TIP3    H134946   2.901   2.340   1.003  1.8267  0.3150 -0.0531
 4437TIP3    H234947   2.959   2.266   0.885  0.2139  0.8889 -1.2394
 4438TIP3   OH234948   6.475   4.779   7.097 -0.1776  0.2552 -0.0983
 4438TIP3    H134949   6.424   4.709   7.138  0.0573 -0.0258 -0.2899
 4438TIP3    H234950   6.437   4.789   7.010  0.1156  0.0178 -0.2569
 4439TIP3   OH234951   0.028   3.489   7.766 -0.3573  0.3807  0.0517
 4439TIP3    H134952  -0.024   3.537   7.702  0.4425 -1.8954 -2.4974
 4439TIP3    H234953   0.046   3.405   7.724  1.8718 -0.5093  2.5186
 4440TIP3   OH234954   2.149   6.728   6.479 -0.0105 -0.2249  0.0565
 4440TIP3    H134955   2.204   6.765   6.547 -1.4093 -0.3802  1.3141
 4440TIP3    H234956   2.071   6.698   6.524 -0.8739 -0.5845 -1.5796
 4441TIP3   OH234957   5.347   6.116   7.416  0.4367 -0.0660  0.0588
 4441TIP3    H134958   5.407   6.166   7.471  1.9684 -1.1778 -0.5266
 4441TIP3    H234959   5.329   6.173   7.342  1.6428 -0.0977 -0.2782
 4442TIP3   OH234960   2.113   5.941   0.133 -0.5922  0.2318 -0.2586
 4442TIP3    H134961   2.116   5.996   0.212 -1.8871  0.7003 -0.5127
 4442TIP3    H234962   2.019   5.933   0.114 -0.2913  0.1118 -1.7423
 4443TIP3   OH234963   6.833   2.668   1.357  0.4272 -0.4220 -0.1875
 4443TIP3    H134964   6.875   2.724   1.422  1.0196 -0.8000 -0.2434
 4443TIP3    H234965   6.800   2.729   1.291  2.2987 -0.1955 -0.9726
 4444TIP3   OH234966   4.515   3.444   3.314 -0.0115 -0.2465 -0.2877
 4444TIP3    H134967   4.424   3.446   3.287  0.2043  0.7735 -1.0206
 4444TIP3    H234968   4.560   3.395   3.245  0.3880  1.5474 -1.3908
 4445TIP3   OH234969   1.753   5.124   7.761 -0.6408  0.3312 -0.7091
 4445TIP3    H134970   1.841   5.097   7.787 -0.2786  3.0348  1.3294
 4445TIP3    H234971   1.759   5.138   7.666  0.7293 -0.7951 -0.8147
 4446TIP3   OH234972   4.543   0.557   1.919  0.1954  0.3025  0.5655
 4446TIP3    H134973   4.513   0.647   1.908  1.4946  0.8007  0.9083
 4446TIP3    H234974   4.466   0.510   1.953 -0.6836  1.1167 -0.2408
 4447TIP3   OH234975   3.209   0.443   0.658  0.2488 -0.6411 -0.3876
 4447TIP3    H134976   3.249   0.372   0.607  0.8403  1.0730 -2.4728
 4447TIP3    H234977   3.115   0.429   0.650  0.3556 -1.0018 -1.0931
 4448TIP3   OH234978   2.298   1.043   1.899  0.0735 -0.1772 -0.0774
 4448TIP3    H134979   2.389   1.073   1.900  0.0120  0.0058  0.2814
 4448TIP3    H234980   2.303   0.955   1.861  0.4754 -0.3905  0.4434
 4449TIP3   OH234981   1.931   6.265   0.269  0.1136 -0.2554 -0.5422
 4449TIP3    H134982   1.985   6.190   0.246 -0.6974 -0.6149 -1.3544
 4449TIP3    H234983   1.849   6.227   0.302  0.7426  0.2631  1.7829
 4450TIP3   OH234984   4.087   1.710   0.391 -0.6648 -0.3400  0.4093
 4450TIP3    H134985   3.999   1.676   0.406 -1.3878  1.8011  1.5566
 4450TIP3    H234986   4.104   1.766   0.467  1.3067  0.0644 -0.2641
 4451TIP3   OH234987   6.918   4.770   0.837 -0.8865 -0.1678 -0.0659
 4451TIP3    H134988   6.877   4.684   0.825 -1.8026  0.2539 -0.0937
 4451TIP3    H234989   6.904   4.791   0.929  1.0232 -0.8619  0.4214
 4452TIP3   OH234990   4.886   6.350   0.608 -0.3897  0.2356  0.0911
 4452TIP3    H134991   4.921   6.262   0.594 -3.6730 -1.1402 -0.4855
 4452TIP3    H234992   4.894   6.393   0.523 -0.5520 -0.2518 -0.1767
 4453TIP3   OH234993   4.156   0.124   7.342 -0.1551 -0.3278  0.5320
 4453TIP3    H134994   4.138   0.065   7.415  0.5840 -1.5152 -0.2210
 4453TIP3    H234995   4.076   0.121   7.288 -1.2006  1.4878  1.8415
 4454TIP3   OH234996   1.463   5.927   2.105 -0.3335  0.1593  0.3480
 4454TIP3    H134997   1.406   5.994   2.144 -0.6766  0.8942 -1.3162
 4454TIP3    H234998   1.452   5.851   2.161 -1.0112  1.0687  1.5064
 4455TIP3   OH234999   3.042   4.861   2.132  0.3069 -0.6310 -0.4321
 4455TIP3    H135000   3.047   4.924   2.060  0.7734  0.3080  0.3997
 4455TIP3    H235001   2.952   4.827   2.128  0.0598  0.0619 -0.9183
 4456TIP3   OH235002   5.875   0.259   1.947 -0.1841  0.3862 -0.1487
 4456TIP3    H135003   5.800   0.303   1.907 -1.1080  0.1857  1.2630
 4456TIP3    H235004   5.836   0.205   2.017  0.8935 -2.4722 -1.5708
 4457TIP3   OH235005   4.147   2.372   2.027 -0.3222 -0.6175 -0.0364
 4457TIP3    H135006   4.197   2.414   1.958 -0.6542  0.1330  0.1657
 4457TIP3    H235007   4.192   2.289   2.043  0.4416 -0.2686 -0.3352
 4458TIP3   OH235008   6.726   3.419   1.506  0.0574 -0.2232 -0.3590
 4458TIP3    H135009   6.642   3.433   1.549  0.1131 -1.0601  0.0470
 4458TIP3    H235010   6.708   3.428   1.413 -1.1061 -3.1565 -0.5156
 4459TIP3   OH235011   0.079   4.701   0.550  0.2939  0.2500  0.4686
 4459TIP3    H135012   0.058   4.757   0.625 -0.4241  0.2244  0.2941
 4459TIP3    H235013   0.104   4.617   0.589 -0.3946  0.1342  0.6776
 4460TIP3   OH235014   1.195   1.983   6.399 -0.3713 -0.1336  0.5446
 4460TIP3    H135015   1.235   2.067   6.420 -1.1201  1.2264 -2.7908
 4460TIP3    H235016   1.269   1.924   6.384  0.1804  0.2425  1.6602
 4461TIP3   OH235017   1.466   0.778   8.203  0.4914 -0.0016  0.0279
 4461TIP3    H135018   1.509   0.809   8.282  1.0426  1.4062 -0.8002
 4461TIP3    H235019   1.502   0.690   8.190 -0.1049 -0.5284  1.6757
 4462TIP3   OH235020   3.852   0.081   1.973  0.5035 -0.0538 -0.3240
 4462TIP3    H135021   3.809   0.007   2.017 -0.3662  1.8105  2.1555
 4462TIP3    H235022   3.932   0.095   2.023  1.8292 -0.6518 -2.1681
 4463TIP3   OH235023   6.562   4.430   2.126 -0.4144  0.0198 -0.0993
 4463TIP3    H135024   6.494   4.429   2.058 -0.9131  0.3552  0.3823
 4463TIP3    H235025   6.589   4.521   2.132 -1.1996  0.2091  0.9374
 4464TIP3   OH235026   1.903   3.554   6.590  0.2948  0.1678  0.1056
 4464TIP3    H135027   1.994   3.526   6.584 -0.2974 -1.6918 -0.7641
 4464TIP3    H235028   1.879   3.581   6.502 -0.0007  0.7055  0.3410
 4465TIP3   OH235029   2.431   0.710   2.088 -0.1746  0.1378  0.0636
 4465TIP3    H135030   2.343   0.726   2.055  0.6648 -1.4187 -3.3783
 4465TIP3    H235031   2.420   0.640   2.153 -1.3642 -1.7109 -1.9818
 4466TIP3   OH235032   0.700   2.711   2.084 -0.8193 -0.1080 -0.1503
 4466TIP3    H135033   0.773   2.671   2.131 -1.6933  0.3480  1.6929
 4466TIP3    H235034   0.736   2.734   1.998  0.4961 -2.1204 -0.2173
 4467TIP3   OH235035   6.825   4.606   0.516 -0.3016 -0.8818  0.4491
 4467TIP3    H135036   6.849   4.614   0.609  2.6174 -0.5065 -0.2374
 4467TIP3    H235037   6.746   4.659   0.507  0.6620  1.0386  2.3078
 4468TIP3   OH235038   5.435   6.911   2.592 -0.2817 -0.2667 -0.2062
 4468TIP3    H135039   5.345   6.943   2.589 -0.2986 -0.3906 -1.4835
 4468TIP3    H235040   5.485   6.984   2.629 -0.8955 -0.2181  0.5630
 4469TIP3   OH235041   3.525   4.393   0.621 -0.1481 -0.3094  0.5778
 4469TIP3    H135042   3.617   4.367   0.621 -0.1569 -0.3647  1.4237
 4469TIP3    H235043   3.526   4.488   0.612 -0.1061 -0.4970 -2.2168
 4470TIP3   OH235044   3.566   4.377   8.084 -0.2149  0.0359 -0.0844
 4470TIP3    H135045   3.510   4.366   8.007  0.2553  0.2325 -0.4584
 4470TIP3    H235046   3.573   4.472   8.094 -0.5386  0.0125  0.4012
 4471TIP3   OH235047   6.774   1.955   1.933 -0.0494  0.4082 -0.7907
 4471TIP3    H135048   6.731   1.996   1.857 -2.0847 -1.2418 -0.6126
 4471TIP3    H235049   6.849   1.908   1.895 -0.3709  0.5344 -1.6176
 4472TIP3   OH235050   0.622   3.967   0.180  0.0204 -0.3661  0.2047
 4472TIP3    H135051   0.708   3.950   0.141 -0.3332  1.6386 -1.6834
 4472TIP3    H235052   0.560   3.921   0.123 -0.3022  0.0464  0.2182
 4473TIP3   OH235053   1.769   5.699   1.463 -0.4129  0.1509  0.1946
 4473TIP3    H135054   1.723   5.742   1.391  1.8070  2.3584 -0.0336
 4473TIP3    H235055   1.701   5.685   1.530 -1.9218  0.7821 -1.1436
 4474TIP3   OH235056   5.401   4.088   7.051 -0.0763  0.1424  0.6758
 4474TIP3    H135057   5.362   4.075   6.964 -0.7101 -0.4867  1.0479
 4474TIP3    H235058   5.333   4.134   7.101  0.7134  1.5427  0.5115
 4475TIP3   OH235059   2.418   3.173   1.959  0.0433 -0.3208  0.2578
 4475TIP3    H135060   2.334   3.208   1.930 -0.2008  1.4922  2.8305
 4475TIP3    H235061   2.399   3.131   2.042  1.4904 -0.9820  0.2825
 4476TIP3   OH235062   3.596   5.588   6.405 -0.0320 -0.1199  0.2337
 4476TIP3    H135063   3.691   5.592   6.399  0.0323 -0.9325  0.5429
 4476TIP3    H235064   3.576   5.613   6.495 -0.2192  1.3887 -0.2054
 4477TIP3   OH235065   0.582   5.302   0.969  0.4820  0.4732  0.0654
 4477TIP3    H135066   0.650   5.305   1.036 -0.0832 -0.2712  0.6910
 4477TIP3    H235067   0.616   5.356   0.898  2.0158 -0.4267  0.0867
 4478TIP3   OH235068   2.380   6.659   1.863 -0.5462 -0.0885  0.0450
 4478TIP3    H135069   2.303   6.669   1.920 -0.4203 -1.6752  0.5266
 4478TIP3    H235070   2.451   6.635   1.922 -0.3654 -1.5596 -0.7225
 4479TIP3   OH235071   1.944   0.852   7.478 -0.3537  0.2544 -0.0093
 4479TIP3    H135072   2.035   0.875   7.493 -0.5191  1.7653 -1.0810
 4479TIP3    H235073   1.907   0.928   7.432 -2.7043  0.6077  2.2179
 4480TIP3   OH235074   6.905   6.003   0.865 -0.3509  0.4564 -0.0120
 4480TIP3    H135075   6.841   5.951   0.816 -1.3588  0.2951  1.4170
 4480TIP3    H235076   6.854   6.044   0.935  1.5103 -2.0656  3.0848
 4481TIP3   OH235077   3.003   2.010   7.972  0.8499 -0.1665 -0.0563
 4481TIP3    H135078   3.000   2.036   8.064  2.7883 -0.3729  0.0920
 4481TIP3    H235079   3.044   1.923   7.973 -2.1731 -1.7770 -0.8590
 4482TIP3   OH235080   4.430   4.074   1.198 -0.8033  0.2697  0.1340
 4482TIP3    H135081   4.385   3.990   1.207  0.0541 -0.2469 -0.3004
 4482TIP3    H235082   4.514   4.052   1.158 -0.6838  1.3756 -0.2410
 4483TIP3   OH235083   1.053   0.529   7.137 -0.0203 -0.0368 -0.2250
 4483TIP3    H135084   1.067   0.583   7.059 -0.6030  0.2350 -0.1520
 4483TIP3    H235085   1.122   0.463   7.134  0.9833  0.9864 -0.0756
 4484TIP3   OH235086   5.097   3.460   8.107  0.0338  0.6057  0.1883
 4484TIP3    H135087   5.094   3.489   8.198 -1.2993  0.7193  0.1326
 4484TIP3    H235088   5.032   3.390   8.102  1.7034 -0.9917 -0.1692
 4485TIP3   OH235089   6.185   4.043   2.987  0.1545  0.1916  0.0065
 4485TIP3    H135090   6.230   4.122   3.018  1.0347 -0.9983  2.0032
 4485TIP3    H235091   6.218   4.030   2.898 -0.1561  2.1334 -0.4474
 4486TIP3   OH235092   0.990   1.136   0.349  0.3243 -0.6237  0.0250
 4486TIP3    H135093   1.011   1.049   0.315 -0.9980 -0.9623  0.0204
 4486TIP3    H235094   0.920   1.168   0.293  0.8027  0.4650  0.0228
 4487TIP3   OH235095   5.998   6.713   8.048 -0.4466 -0.4426 -0.0043
 4487TIP3    H135096   6.018   6.781   7.983 -1.3232 -0.5955 -0.4367
 4487TIP3    H235097   6.019   6.631   8.005 -0.5666 -0.5199  0.0861
 4488TIP3   OH235098   0.731   6.469   1.235  0.6044 -0.1848 -0.0007
 4488TIP3    H135099   0.789   6.440   1.164  1.3007  3.4834 -1.1517
 4488TIP3    H235100   0.645   6.479   1.193  0.3185 -0.6970  0.4413
 4489TIP3   OH235101   2.843   4.554   1.680  0.1379  0.4233  0.5362
 4489TIP3    H135102   2.762   4.509   1.702 -1.7955  3.9345  1.3091
 4489TIP3    H235103   2.852   4.542   1.585 -2.5540  1.7001  0.0336
 4490TIP3   OH235104   2.971   5.165   2.623  0.1767 -0.6134 -0.1575
 4490TIP3    H135105   2.963   5.244   2.676  2.3054 -0.8933  0.6533
 4490TIP3    H235106   2.935   5.096   2.678 -1.1639 -0.3326 -0.6442
 4491TIP3   OH235107   3.766   6.095   2.123  0.1901  0.0558  0.3666
 4491TIP3    H135108   3.828   6.168   2.119  1.6752 -1.2050 -2.7649
 4491TIP3    H235109   3.692   6.129   2.174  2.0196  2.7310  1.4477
 4492TIP3   OH235110   3.176   0.363   1.999 -0.5517 -0.4437  0.2025
 4492TIP3    H135111   3.189   0.269   2.010  0.1588 -0.2053  1.5719
 4492TIP3    H235112   3.127   0.390   2.076 -0.7492  0.3179 -0.1746
 4493TIP3   OH235113   6.366   2.987   7.988  0.0627 -0.0962 -0.2950
 4493TIP3    H135114   6.366   3.063   7.930  1.3167 -0.1805 -0.4288
 4493TIP3    H235115   6.388   2.913   7.931  0.6033 -0.2891  0.1553
 4494TIP3   OH235116   2.394   0.348   1.459 -0.0685 -0.3415  0.2754
 4494TIP3    H135117   2.480   0.382   1.482 -0.4266  0.6131  0.2450
 4494TIP3    H235118   2.353   0.417   1.408 -0.1465 -1.5356 -1.3561
 4495TIP3   OH235119   1.871   3.695   6.340 -0.4119  0.4244 -0.0654
 4495TIP3    H135120   1.954   3.740   6.323  0.3430 -0.0065  2.0798
 4495TIP3    H235121   1.804   3.758   6.316  0.5638  1.2762 -0.6245
 4496TIP3   OH235122   4.183   6.835   2.529  0.1185 -0.3185 -0.3832
 4496TIP3    H135123   4.100   6.789   2.516 -0.0732 -0.3032  0.7451
 4496TIP3    H235124   4.238   6.804   2.457 -1.2597  0.6463 -1.9281
 4497TIP3   OH235125   2.757   7.016   2.016  0.2150  0.0722 -0.2977
 4497TIP3    H135126   2.708   6.941   2.049  2.0278 -0.9594  0.1725
 4497TIP3    H235127   2.794   6.985   1.933  0.7055  0.5515 -0.2615
 4498TIP3   OH235128   4.415   2.838   7.168  0.3243  0.5122 -0.3457
 4498TIP3    H135129   4.410   2.899   7.094  0.8712  0.1926 -0.6490
 4498TIP3    H235130   4.334   2.788   7.163  0.3428  0.5171 -0.7107
 4499TIP3   OH235131   0.703   2.932   2.806 -0.5998 -0.6286 -1.0777
 4499TIP3    H135132   0.616   2.908   2.839  0.6739 -2.0328  1.5906
 4499TIP3    H235133   0.687   3.006   2.748 -3.4837 -0.2319  0.0549
 4500TIP3   OH235134   2.474   5.015   7.574  0.1492  0.0511  0.1362
 4500TIP3    H135135   2.522   4.940   7.610  0.5889  0.0056 -0.5322
 4500TIP3    H235136   2.402   5.029   7.636  2.0338  1.2820  2.2319
 4501TIP3   OH235137   0.427   2.650   2.081  0.0343 -0.2801  0.0767
 4501TIP3    H135138   0.422   2.555   2.092  0.6547 -0.2100  1.0941
 4501TIP3    H235139   0.519   2.668   2.064 -0.3118  0.0099 -1.6571
 4502TIP3   OH235140   1.808   3.056   1.786 -0.1424  0.1528  0.0563
 4502TIP3    H135141   1.876   3.021   1.844  0.0696 -0.2075 -0.3993
 4502TIP3    H235142   1.816   3.151   1.793  0.1141  0.1092  0.3468
 4503TIP3   OH235143   2.605   3.363   1.092  0.0339  0.0992 -0.2594
 4503TIP3    H135144   2.561   3.317   1.021  1.4119 -0.1682 -0.9760
 4503TIP3    H235145   2.550   3.348   1.169 -1.6483  0.6492 -1.3044
 4504TIP3   OH235146   6.264   3.241   0.297  0.5780 -0.2543 -0.2734
 4504TIP3    H135147   6.262   3.145   0.297  2.5456 -0.3672 -1.8666
 4504TIP3    H235148   6.186   3.267   0.248  1.3230 -1.1781 -2.0366
 4505TIP3   OH235149   6.526   6.185   6.699  0.3126  0.3024  0.1496
 4505TIP3    H135150   6.529   6.093   6.674  1.5853  0.5552 -0.6971
 4505TIP3    H235151   6.616   6.208   6.719  0.0674  1.4536  0.0361
 4506TIP3   OH235152   0.846   5.562   6.829 -0.4512 -0.4448 -0.2302
 4506TIP3    H135153   0.863   5.468   6.832 -1.7381 -0.7459 -1.5265
 4506TIP3    H235154   0.760   5.572   6.869  0.0402  0.3088  0.6847
 4507TIP3   OH235155   3.537   6.969   6.121 -0.2819 -0.0209 -0.5397
 4507TIP3    H135156   3.523   7.023   6.199  0.5756 -3.7122  2.4087
 4507TIP3    H235157   3.632   6.967   6.111 -0.3023 -1.0483 -0.5382
 4508TIP3   OH235158   3.981   6.347   8.167  0.0852  0.0263  0.1909
 4508TIP3    H135159   3.960   6.436   8.137  0.5097  0.1030  0.1045
 4508TIP3    H235160   4.034   6.361   8.246  4.3118  0.0590 -2.3219
 4509TIP3   OH235161   3.270   1.606   2.039  0.2180  0.4464 -0.0323
 4509TIP3    H135162   3.341   1.572   2.094  0.6470  0.3181 -0.6498
 4509TIP3    H235163   3.256   1.538   1.973 -1.7020 -0.3315  1.1085
 4510TIP3   OH235164   4.103   5.838   7.364 -0.6552 -0.2251 -0.5272
 4510TIP3    H135165   4.163   5.807   7.297 -0.8124  2.6220 -2.1458
 4510TIP3    H235166   4.153   5.905   7.412 -1.8648  0.7443 -0.5801
 4511TIP3   OH235167   1.929   0.804   0.559  0.0393  0.1472 -0.7189
 4511TIP3    H135168   1.981   0.846   0.627 -0.5974  1.4856 -1.0293
 4511TIP3    H235169   1.899   0.722   0.599  0.1678  0.6226  0.3911
 4512TIP3   OH235170   1.526   6.876   6.377 -0.1165 -0.2585  0.4994
 4512TIP3    H135171   1.520   6.829   6.294  2.1999 -1.2759  0.8361
 4512TIP3    H235172   1.500   6.966   6.356  0.2564 -0.5336 -1.2959
 4513TIP3   OH235173   3.241   1.437   1.836 -0.2283  0.2283 -0.0421
 4513TIP3    H135174   3.314   1.490   1.803  0.5187  0.6611  2.1377
 4513TIP3    H235175   3.198   1.404   1.757  1.1494  1.5510 -1.4227
 4514TIP3   OH235176   2.313   0.049   1.048 -0.0219  0.1270 -0.4114
 4514TIP3    H135177   2.299  -0.040   1.017  1.3720  0.2906 -1.6813
 4514TIP3    H235178   2.372   0.040   1.123 -0.4046 -0.0628 -0.1367
 4515TIP3   OH235179   5.006   6.093   0.588 -0.1567 -0.0311  0.3655
 4515TIP3    H135180   4.977   6.052   0.670  2.8613 -1.2389  0.9644
 4515TIP3    H235181   5.057   6.025   0.544  1.5684  1.8158 -0.6206
 4516TIP3   OH235182   3.644   5.937   0.094  0.2108 -0.3312 -0.4631
 4516TIP3    H135183   3.642   5.942   0.190 -0.7616  0.5876 -0.5189
 4516TIP3    H235184   3.727   5.977   0.070  0.9471 -1.5086  0.0354
 4517TIP3   OH235185   1.219   2.948   6.667 -0.4360  0.2702 -0.6362
 4517TIP3    H135186   1.266   3.010   6.723  1.4558  0.0263 -1.8727
 4517TIP3    H235187   1.182   3.002   6.597  2.0589 -0.0076 -2.2751
 4518TIP3   OH235188   1.335   1.270   1.880 -0.1550  0.7526 -0.8222
 4518TIP3    H135189   1.319   1.194   1.824 -0.0441 -0.0142  0.1514
 4518TIP3    H235190   1.247   1.299   1.906 -0.1819  0.0432 -0.0426
 4519TIP3   OH235191   0.139   1.983   0.330  0.3224 -0.3329 -0.2102
 4519TIP3    H135192   0.093   2.065   0.311  1.0615  0.0353 -0.4622
 4519TIP3    H235193   0.070   1.921   0.353 -0.0860  1.0572  2.7707
 4520TIP3   OH235194   6.607   1.482   7.161 -0.1622  0.6117  0.4928
 4520TIP3    H135195   6.668   1.449   7.096  0.7353 -0.8384  1.9768
 4520TIP3    H235196   6.521   1.471   7.121  0.1933 -2.3782  0.3502
 4521TIP3   OH235197   2.439   3.743   7.877  0.3594  0.4142 -0.3599
 4521TIP3    H135198   2.393   3.726   7.959  1.3886 -2.3357 -0.2710
 4521TIP3    H235199   2.456   3.837   7.879 -0.6490  0.6290  2.0165
 4522TIP3   OH235200   0.469   0.901   2.586 -0.0378  0.5721  0.1964
 4522TIP3    H135201   0.449   0.836   2.519  0.3177  0.2693  0.3788
 4522TIP3    H235202   0.405   0.883   2.656  0.8166 -0.3812  0.7690
 4523TIP3   OH235203   1.117   5.140   0.390 -0.3907  0.1462  0.0616
 4523TIP3    H135204   1.048   5.204   0.404  0.5736  0.9677  1.2270
 4523TIP3    H235205   1.089   5.062   0.439 -1.0159  0.0615 -0.4175
 4524TIP3   OH235206   6.341   2.300   8.021 -0.1509  0.3773  0.5350
 4524TIP3    H135207   6.415   2.345   7.979  0.2714 -1.2416 -0.5739
 4524TIP3    H235208   6.382   2.241   8.084 -0.3061 -1.7686 -1.2703
 4525TIP3   OH235209   4.050   2.947   1.009  0.1905 -0.7250  0.2030
 4525TIP3    H135210   3.992   2.953   1.086 -0.4211  1.4021 -0.3583
 4525TIP3    H235211   4.049   2.854   0.986 -0.4646 -1.2475  2.1112
 4526TIP3   OH235212   6.926   0.108   7.481  0.2375 -0.1039 -0.2798
 4526TIP3    H135213   7.018   0.101   7.456  0.3487 -1.9731  0.5107
 4526TIP3    H235214   6.912   0.203   7.491  2.0745  0.2342 -0.3866
 4527TIP3   OH235215   6.789   0.698   1.746  0.0028 -0.5513 -0.5768
 4527TIP3    H135216   6.753   0.663   1.665  1.9506  0.3750 -1.9375
 4527TIP3    H235217   6.803   0.621   1.801 -2.3041 -1.0906 -0.6717
 4528TIP3   OH235218   4.350   1.104   0.546  0.4990 -0.4213 -0.1960
 4528TIP3    H135219   4.399   1.080   0.467  0.0516  1.0733 -0.9688
 4528TIP3    H235220   4.260   1.077   0.528 -0.0170  1.6676 -1.0882
 4529TIP3   OH235221   5.635   5.450   2.916 -0.2103 -0.0814 -0.0573
 4529TIP3    H135222   5.647   5.361   2.880 -2.0222 -0.0718 -0.8100
 4529TIP3    H235223   5.568   5.489   2.860 -0.1556  1.4290  0.8790
 4530TIP3   OH235224   6.166   1.764   1.697  0.2932  0.3879 -0.4573
 4530TIP3    H135225   6.198   1.855   1.693  0.0500  0.6513  2.1127
 4530TIP3    H235226   6.072   1.771   1.677  0.0808  0.8527  0.6560
 4531TIP3   OH235227   4.794   0.400   1.661  0.0401 -0.1139  0.2003
 4531TIP3    H135228   4.842   0.317   1.661  1.1926  0.4996  1.6773
 4531TIP3    H235229   4.802   0.433   1.572  0.4422 -1.0992 -0.1416
 4532TIP3   OH235230   0.128   0.566   2.604  0.0296 -0.0434 -0.3624
 4532TIP3    H135231   0.156   0.651   2.568 -1.1038  0.3239 -0.4231
 4532TIP3    H235232   0.145   0.504   2.533 -2.3833  0.7026 -1.7330
 4533TIP3   OH235233   6.552   1.800   8.002  0.4735  0.5767 -0.2960
 4533TIP3    H135234   6.480   1.859   7.979  0.0339  0.3042  0.3655
 4533TIP3    H235235   6.586   1.835   8.084  0.3895  0.0722 -0.0422
 4534TIP3   OH235236   6.561   4.427   0.361 -0.1863  0.7240 -0.1131
 4534TIP3    H135237   6.584   4.516   0.389 -1.2878  0.7484  0.7925
 4534TIP3    H235238   6.584   4.372   0.437  0.3187  0.2517 -0.5999
 4535TIP3   OH235239   2.231   6.314   7.378 -0.2714  0.1559  0.0050
 4535TIP3    H135240   2.211   6.246   7.443  0.6269  0.0142  0.1523
 4535TIP3    H235241   2.197   6.394   7.416  2.1683  0.4948  1.7762
 4536TIP3   OH235242   1.235   0.968   6.526 -0.3061 -0.2268  0.1851
 4536TIP3    H135243   1.205   0.887   6.567 -0.1823  0.1407  1.0231
 4536TIP3    H235244   1.156   1.022   6.518 -0.5605 -0.7695 -1.2188
 4537TIP3   OH235245   0.225   5.106   0.175 -0.5557 -0.0094  0.5412
 4537TIP3    H135246   0.186   5.036   0.228 -1.5784 -0.0340 -0.2122
 4537TIP3    H235247   0.271   5.161   0.238 -1.3039 -0.3269  1.3925
 4538TIP3   OH235248   5.705   4.195   2.662 -0.3467 -0.8185 -0.2175
 4538TIP3    H135249   5.625   4.244   2.683 -0.4201 -0.6484 -0.8675
 4538TIP3    H235250   5.749   4.248   2.596 -0.6050 -1.7969 -1.1944
 4539TIP3   OH235251   1.441   1.473   1.719  0.3984  0.3317  0.0028
 4539TIP3    H135252   1.392   1.408   1.769  0.2527  1.6791  1.6972
 4539TIP3    H235253   1.503   1.511   1.782  1.8009  0.5388 -1.4173
 4540TIP3   OH235254   0.482   0.341   1.873  0.7800 -0.1196 -0.0423
 4540TIP3    H135255   0.467   0.424   1.828 -0.0998 -0.4095 -0.2962
 4540TIP3    H235256   0.529   0.365   1.953  3.1480  0.3496 -1.4474
 4541TIP3   OH235257   6.290   4.829   0.469 -0.5961  0.0860 -0.4444
 4541TIP3    H135258   6.337   4.780   0.536  1.3927  1.9612 -0.3622
 4541TIP3    H235259   6.325   4.795   0.386  0.7578  1.2642 -0.3884
 4542TIP3   OH235260   0.878   0.573   8.049  0.3299 -0.2891  0.4283
 4542TIP3    H135261   0.870   0.487   8.090 -0.9628 -0.4754 -0.1821
 4542TIP3    H235262   0.800   0.621   8.075  0.2122  0.1092 -0.5847
 4543TIP3   OH235263   2.628   0.362   6.932  0.0530 -0.0864  0.3349
 4543TIP3    H135264   2.680   0.360   6.851 -2.0641 -2.3404 -1.1280
 4543TIP3    H235265   2.568   0.436   6.920  0.6596  0.4444  0.5097
 4544TIP3   OH235266   3.923   1.314   7.587 -0.1525  0.4867 -0.0258
 4544TIP3    H135267   4.001   1.282   7.633  0.5762 -0.4521 -1.7993
 4544TIP3    H235268   3.943   1.301   7.494 -0.7117  4.1982 -0.8198
 4545TIP3   OH235269   0.553   3.622   0.401 -0.1547 -0.4600  0.5191
 4545TIP3    H135270   0.466   3.611   0.362  0.1886  0.3129 -0.4922
 4545TIP3    H235271   0.587   3.533   0.409  0.1129 -0.6205 -1.7831
 4546TIP3   OH235272   2.982   6.727   1.842 -0.7646 -0.3377  0.0655
 4546TIP3    H135273   2.921   6.786   1.797 -2.1201 -1.5356  0.2426
 4546TIP3    H235274   3.030   6.783   1.902  0.3915  1.1459 -2.0901
 4547TIP3   OH235275   6.989   5.049   0.283  0.5041 -0.0388  0.1889
 4547TIP3    H135276   6.925   5.120   0.272  1.6010  0.7005 -1.8875
 4547TIP3    H235277   6.942   4.970   0.256 -0.5669 -0.0943  2.0294
 4548TIP3   OH235278   2.830   7.055   0.686  0.0994 -0.3336  0.3862
 4548TIP3    H135279   2.913   7.100   0.676 -0.9619  1.7578  0.4643
 4548TIP3    H235280   2.765   7.114   0.647 -1.2217 -2.4789 -0.8919
 4549TIP3   OH235281   5.487   5.636   7.485 -0.5283  0.4036  0.2809
 4549TIP3    H135282   5.547   5.700   7.523 -1.0391  0.4927  0.9657
 4549TIP3    H235283   5.414   5.688   7.451 -0.2921  0.2855 -0.4125
 4550TIP3   OH235284   1.102   2.033   1.247 -0.3174  0.5628  0.2416
 4550TIP3    H135285   1.075   1.943   1.265 -0.5760  0.6322  0.2168
 4550TIP3    H235286   1.020   2.082   1.244 -0.1765  0.8027  0.2713
 4551TIP3   OH235287   6.409   5.321   1.077  0.2674  0.1114 -0.5054
 4551TIP3    H135288   6.317   5.322   1.101  0.0132 -0.0525 -1.4567
 4551TIP3    H235289   6.454   5.360   1.153 -0.7318  1.7537 -0.7073
 4552TIP3   OH235290   6.845   1.670   2.090  0.1636 -0.3283 -0.7057
 4552TIP3    H135291   6.884   1.720   2.018  1.4543  0.4999  0.5118
 4552TIP3    H235292   6.755   1.700   2.094  0.3104  0.2405 -1.4256
 4553TIP3   OH235293   4.611   6.114   1.728 -0.2340  0.2284 -0.3152
 4553TIP3    H135294   4.545   6.182   1.717  0.8416  1.7996  2.1993
 4553TIP3    H235295   4.628   6.111   1.822  2.2112 -1.1285 -0.7065
 4554TIP3   OH235296   2.475   4.990   2.362  0.0902 -0.1521 -0.1547
 4554TIP3    H135297   2.539   4.966   2.430 -2.5957  1.2958  3.2163
 4554TIP3    H235298   2.400   4.934   2.379 -0.3403 -0.5093 -2.7991
 4555TIP3   OH235299   6.191   2.339   0.218  0.5560 -0.4672 -0.0210
 4555TIP3    H135300   6.166   2.431   0.204 -0.1282 -0.4261  1.2923
 4555TIP3    H235301   6.249   2.342   0.294  2.7718 -0.8439 -1.6102
 4556TIP3   OH235302   4.606   2.349   6.853 -0.4485  0.9466  0.3728
 4556TIP3    H135303   4.608   2.276   6.791  0.8514  1.4133 -0.1786
 4556TIP3    H235304   4.544   2.322   6.920  0.7969 -1.1592  0.7600
 4557TIP3   OH235305   5.044   1.854   1.307  0.5790  0.4381 -0.1058
 4557TIP3    H135306   5.058   1.937   1.261  0.7673  0.4975  0.0552
 4557TIP3    H235307   5.035   1.879   1.399 -0.9725  0.4368 -0.2355
 4558TIP3   OH235308   3.686   5.611   1.475  0.0813  0.3391  0.3187
 4558TIP3    H135309   3.629   5.544   1.513  0.5285  0.3695  1.0661
 4558TIP3    H235310   3.701   5.673   1.546  0.3268  0.8034 -0.1326
 4559TIP3   OH235311   2.359   5.925   0.628 -0.2768 -0.2705  0.2636
 4559TIP3    H135312   2.373   6.002   0.573 -1.1594  0.7592  1.4166
 4559TIP3    H235313   2.446   5.889   0.642  0.2189  0.8765  0.1928
 4560TIP3   OH235314   5.222   3.116   8.198 -0.8300  0.7448  0.1681
 4560TIP3    H135315   5.296   3.175   8.209  0.5259 -0.9989  1.0709
 4560TIP3    H235316   5.227   3.058   8.274 -1.5338 -1.0567 -1.0761
 4561TIP3   OH235317   1.027   4.326   0.652 -0.2777  0.0347  0.6211
 4561TIP3    H135318   0.940   4.337   0.690  0.4325  0.6486  2.1607
 4561TIP3    H235319   1.068   4.412   0.660  0.5256 -0.2822  0.0541
 4562TIP3   OH235320   4.585   4.566   1.418 -0.6765  0.8131 -0.4511
 4562TIP3    H135321   4.493   4.590   1.408 -0.8190  0.8999  0.8120
 4562TIP3    H235322   4.625   4.589   1.334 -1.4440  2.5547 -0.3915
 4563TIP3   OH235323   1.640   0.281   1.465 -0.2017 -0.3692  0.1100
 4563TIP3    H135324   1.605   0.327   1.389 -0.3600  1.3596  1.1734
 4563TIP3    H235325   1.563   0.245   1.509 -0.2778  0.0608  0.3344
 4564TIP3   OH235326   4.443   4.278   7.317  0.3414 -0.3053 -0.0327
 4564TIP3    H135327   4.436   4.233   7.233  0.6235  0.1590 -0.3117
 4564TIP3    H235328   4.446   4.371   7.294  2.5561 -0.2440  0.3338
 4565TIP3   OH235329   3.900   2.955   0.312 -0.2432  0.4593  0.7100
 4565TIP3    H135330   3.821   2.905   0.333 -1.1019  2.5306  2.7959
 4565TIP3    H235331   3.880   2.998   0.229 -1.0477  0.4299  0.8842
 4566TIP3   OH235332   2.781   7.034   5.880 -0.2309 -0.9098 -0.1341
 4566TIP3    H135333   2.743   7.112   5.919 -1.7944 -1.5046 -0.4184
 4566TIP3    H235334   2.717   7.005   5.815  2.2982  0.1437 -3.3993
 4567TIP3   OH235335   0.512   2.718   7.575 -0.0395 -0.2034 -0.1838
 4567TIP3    H135336   0.541   2.760   7.494  0.6224  0.3731  0.3394
 4567TIP3    H235337   0.447   2.653   7.547  1.4022 -1.1906 -1.3478
 4568TIP3   OH235338   0.653   5.035   0.263  0.9237  0.0761  0.8960
 4568TIP3    H135339   0.733   5.030   0.210  0.4910  0.5756  0.1745
 4568TIP3    H235340   0.587   5.071   0.203 -0.5436 -2.7418  0.6107
 4569TIP3   OH235341   6.582   3.782   0.211  0.0123  0.3984 -0.2865
 4569TIP3    H135342   6.619   3.822   0.290  1.9112 -1.1090 -0.3479
 4569TIP3    H235343   6.535   3.705   0.243 -0.2499  0.4568 -0.5274
 4570TIP3   OH235344   0.218   4.971   6.597  0.0683  0.5334 -0.3861
 4570TIP3    H135345   0.290   4.982   6.658 -0.0852 -0.5198  0.0017
 4570TIP3    H235346   0.146   5.021   6.635 -1.2165 -2.9623  2.3516
 4571TIP3   OH235347   5.987   4.496   2.344  0.0084 -0.0497  0.0020
 4571TIP3    H135348   5.914   4.556   2.358  0.1485  0.2844 -0.6474
 4571TIP3    H235349   6.064   4.553   2.336  0.3059 -0.3834  0.4534
 4572TIP3   OH235350   4.314   2.731   2.480 -0.0653  0.0113  0.1648
 4572TIP3    H135351   4.383   2.778   2.526 -1.0517 -0.0897  1.8434
 4572TIP3    H235352   4.239   2.734   2.540 -0.8786 -1.6726 -0.6849
 4573TIP3   OH235353   3.115   5.432   7.848  0.3510  0.2029 -0.2843
 4573TIP3    H135354   3.206   5.403   7.858 -0.0054 -1.0303 -0.4217
 4573TIP3    H235355   3.113   5.475   7.763  0.4106 -1.5090 -1.2009
 4574TIP3   OH235356   1.249   5.329   7.431  0.0034  0.5074  0.2329
 4574TIP3    H135357   1.276   5.404   7.484  1.1448 -0.9443  1.7923
 4574TIP3    H235358   1.191   5.279   7.488 -0.8757  0.2518 -0.8484
 4575TIP3   OH235359   0.976   5.387   0.460 -0.2226 -0.1387 -0.6049
 4575TIP3    H135360   0.992   5.396   0.554 -0.0238 -2.2061 -0.4054
 4575TIP3    H235361   0.895   5.336   0.454 -0.5157  0.4099 -1.5735
 4576TIP3   OH235362   1.451   0.769   7.033 -1.0083  0.5636  0.5156
 4576TIP3    H135363   1.545   0.789   7.040 -0.8968  1.2546 -1.9076
 4576TIP3    H235364   1.447   0.673   7.034 -0.4600  0.5383  2.1486
 4577TIP3   OH235365   5.860   5.701   0.590  0.0976  0.3039  0.1759
 4577TIP3    H135366   5.894   5.702   0.501 -4.1574 -1.2107 -1.6896
 4577TIP3    H235367   5.809   5.782   0.598  1.5067  1.1183  1.8623
 4578TIP3   OH235368   5.282   1.436   1.355  0.3303 -0.0729 -0.1627
 4578TIP3    H135369   5.191   1.463   1.356  0.3647  0.0861 -0.6745
 4578TIP3    H235370   5.325   1.491   1.420 -0.0796 -0.6859  0.6375
 4579TIP3   OH235371   0.007   4.385   1.837 -0.5471 -0.0683 -0.4122
 4579TIP3    H135372   0.050   4.377   1.922  1.5118  1.1019 -1.2645
 4579TIP3    H235373  -0.061   4.451   1.851  1.2831  1.8675 -0.1360
 4580TIP3   OH235374   4.815   0.056   1.431  0.4649 -0.0400  0.2344
 4580TIP3    H135375   4.795  -0.009   1.363  0.6754  1.2212 -1.0919
 4580TIP3    H235376   4.730   0.095   1.453  0.4994  0.1424  0.0535
 4581TIP3   OH235377   6.111   4.382   0.405  0.1123 -0.2520  0.3451
 4581TIP3    H135378   6.173   4.411   0.473  2.5481 -2.1851 -0.8753
 4581TIP3    H235379   6.165   4.369   0.327 -2.1660 -0.5074 -1.2872
 4582TIP3   OH235380   4.996   5.942   0.262 -0.5864 -0.2181 -0.4145
 4582TIP3    H135381   4.948   5.998   0.323 -1.7382 -0.7814 -0.7688
 4582TIP3    H235382   5.027   5.869   0.316 -0.5611 -0.1001 -0.2697
 4583TIP3   OH235383   1.425   4.740   0.501 -0.2962 -0.2732 -0.1133
 4583TIP3    H135384   1.450   4.806   0.436  0.7482 -0.2358  0.3048
 4583TIP3    H235385   1.481   4.665   0.481 -0.8977 -0.7377 -0.0715
 4584TIP3   OH235386   6.690   4.900   7.732  0.5814  0.4185  0.0984
 4584TIP3    H135387   6.631   4.825   7.734  2.6552 -1.3013  0.6642
 4584TIP3    H235388   6.661   4.956   7.804 -1.9360  1.0232 -1.2630
 4585TIP3   OH235389   0.876   0.628   0.943  0.5055  0.2058 -0.6702
 4585TIP3    H135390   0.885   0.719   0.970 -0.1842  0.2135 -0.4433
 4585TIP3    H235391   0.960   0.607   0.902  1.1604  0.5355  0.4553
 4586TIP3   OH235392   2.765   1.934   0.735 -0.2347  0.4920  0.3582
 4586TIP3    H135393   2.827   2.000   0.766  0.4223 -0.1550  0.4364
 4586TIP3    H235394   2.701   1.984   0.684  0.7092  1.0907 -0.2809
 4587TIP3   OH235395   1.651   0.131   6.578 -0.5015  0.3827 -0.3956
 4587TIP3    H135396   1.734   0.158   6.539 -0.4701 -1.0402 -1.4064
 4587TIP3    H235397   1.677   0.069   6.646 -0.7213 -0.4890 -1.0797
 4588TIP3   OH235398   1.355   4.146   7.890 -0.3545 -0.2548  0.1365
 4588TIP3    H135399   1.276   4.197   7.909  0.8802  1.3545  1.1991
 4588TIP3    H235400   1.427   4.205   7.912  1.1762 -2.5365  1.6131
 4589TIP3   OH235401   6.162   6.898   6.906 -0.0122  0.2537  0.6433
 4589TIP3    H135402   6.236   6.836   6.905 -0.5935 -0.4631  1.2009
 4589TIP3    H235403   6.176   6.952   6.828  1.7228  0.8818  1.3496
 4590TIP3   OH235404   3.257   1.779   1.819  0.3417  0.8563 -0.0483
 4590TIP3    H135405   3.236   1.867   1.852  0.8918  0.8006  0.4587
 4590TIP3    H235406   3.289   1.731   1.896 -0.4652  0.0394 -0.2034
 4591TIP3   OH235407   2.617   0.336   7.817 -0.0031 -0.1308  0.6463
 4591TIP3    H135408   2.678   0.410   7.816 -0.6273  0.4017  1.1421
 4591TIP3    H235409   2.569   0.343   7.735  0.7168 -0.6660  0.1621
 4592TIP3   OH235410   3.946   5.637   1.790  0.3667 -0.4215 -0.4951
 4592TIP3    H135411   3.850   5.641   1.791  0.1581 -3.3140 -0.4878
 4592TIP3    H235412   3.970   5.628   1.882  0.6948  0.7731 -0.4577
 4593TIP3   OH235413   6.799   1.161   2.615  0.8246  0.4410 -0.0767
 4593TIP3    H135414   6.712   1.120   2.616  0.3441  1.4003  1.4632
 4593TIP3    H235415   6.854   1.098   2.569 -0.6228 -0.3188 -0.8439
 4594TIP3   OH235416   0.587   3.859   6.363  0.2219 -0.2822 -0.9319
 4594TIP3    H135417   0.630   3.831   6.443 -0.6573  0.2829 -0.2393
 4594TIP3    H235418   0.624   3.803   6.294 -0.6928 -2.3810  0.2083
 4595TIP3   OH235419   2.085   1.231   7.644  0.2820  0.3478 -0.2045
 4595TIP3    H135420   2.125   1.305   7.692 -0.3330  0.1068  0.7097
 4595TIP3    H235421   2.074   1.264   7.555  1.7552  0.7015 -0.2831
 4596TIP3   OH235422   5.277   0.842   1.814 -0.5063 -0.1277 -0.2267
 4596TIP3    H135423   5.190   0.813   1.841  0.1305 -1.7549  0.1619
 4596TIP3    H235424   5.332   0.831   1.892  0.6528 -1.8853 -1.2118
 4597TIP3   OH235425   6.837   4.660   1.087  0.4765  0.1929  0.2948
 4597TIP3    H135426   6.749   4.624   1.098  0.8655 -0.8736  0.0158
 4597TIP3    H235427   6.858   4.698   1.172  0.0410 -0.2168  0.5887
 4598TIP3   OH235428   2.166   0.482   7.708 -0.1358 -0.0816  0.7957
 4598TIP3    H135429   2.135   0.407   7.760  0.6096  0.2744  1.7969
 4598TIP3    H235430   2.195   0.545   7.773  1.7796 -0.0214 -0.0465
 4599TIP3   OH235431   3.581   7.069   7.180  0.2045 -0.8301  0.4737
 4599TIP3    H135432   3.609   7.152   7.142 -0.9801  0.4393  2.2114
 4599TIP3    H235433   3.627   7.002   7.129  3.8742  0.9353  1.1180
 4600TIP3   OH235434   3.907   3.918   1.777  0.0560 -0.0450  0.4982
 4600TIP3    H135435   3.925   3.904   1.684  0.7184  1.2934  0.4077
 4600TIP3    H235436   3.843   3.989   1.779  2.1409  1.9401  1.0913
 4601TIP3   OH235437   6.635   4.005   2.546 -0.2652  0.7916  0.3386
 4601TIP3    H135438   6.624   3.962   2.631  1.4679 -0.1818  0.1180
 4601TIP3    H235439   6.646   3.932   2.484 -0.9601  1.4957 -0.6426
 4602TIP3   OH235440   0.425   3.435   2.495 -0.4907 -0.6278  0.4638
 4602TIP3    H135441   0.375   3.513   2.470 -0.0188 -0.7847 -1.1009
 4602TIP3    H235442   0.368   3.389   2.557 -1.6474 -0.0496 -0.1305
 4603TIP3   OH235443   2.998   0.084   2.115 -0.4215  0.6757 -0.3798
 4603TIP3    H135444   2.934   0.066   2.184 -1.2473  2.0241 -0.7717
 4603TIP3    H235445   2.946   0.111   2.040  0.5475  0.4354 -1.1596
 4604TIP3   OH235446   3.882   1.891   7.868 -0.4538 -0.1265  0.1040
 4604TIP3    H135447   3.806   1.845   7.831  0.8220 -1.0989 -1.4692
 4604TIP3    H235448   3.848   1.976   7.896 -2.0088 -0.2972 -1.1230
 4605TIP3   OH235449   3.879   2.702   7.989 -0.6234  0.2434 -0.4253
 4605TIP3    H135450   3.948   2.761   8.020 -1.3572  0.7515  0.2993
 4605TIP3    H235451   3.918   2.656   7.915  0.5526  0.3888  0.0768
 4606TIP3   OH235452   0.254   6.888   7.448 -0.5278 -0.0577 -0.4400
 4606TIP3    H135453   0.188   6.917   7.384  0.8366  0.8054 -1.5249
 4606TIP3    H235454   0.315   6.961   7.453  2.0083 -1.9354 -1.8149
 4607TIP3   OH235455   3.729   3.121   2.476 -0.1969  0.0345 -0.5237
 4607TIP3    H135456   3.646   3.169   2.472  0.5377  1.2792 -1.6876
 4607TIP3    H235457   3.789   3.179   2.522  0.4047 -0.2443 -0.9415
 4608TIP3   OH235458   0.101   2.927   8.122 -0.1712 -0.1251  0.0111
 4608TIP3    H135459   0.032   2.979   8.080 -0.0639 -0.2316 -0.2978
 4608TIP3    H235460   0.100   2.844   8.075 -0.8671 -0.6998  0.9953
 4609TIP3   OH235461   1.063   0.668   1.254  0.2038 -0.1710  0.3668
 4609TIP3    H135462   1.058   0.588   1.201  0.8815  0.4162 -0.6099
 4609TIP3    H235463   0.988   0.720   1.226  0.9647  0.4540 -0.5729
 4610TIP3   OH235464   3.477   1.042   0.123  0.5703  0.4479  0.1611
 4610TIP3    H135465   3.552   0.985   0.138  1.0482  1.4115  1.6165
 4610TIP3    H235466   3.513   1.131   0.129 -0.2231  0.9414 -1.7019
 4611TIP3   OH235467   3.940   4.104   7.559  0.6503  0.0159 -0.0916
 4611TIP3    H135468   3.893   4.187   7.552  0.5221  0.0632  1.0367
 4611TIP3    H235469   3.992   4.099   7.479  0.8779  1.3322 -0.0629
 4612TIP3   OH235470   1.275   0.390   1.968  0.0279  0.4106  0.2336
 4612TIP3    H135471   1.357   0.383   1.919 -1.2656  1.3142 -2.2315
 4612TIP3    H235472   1.232   0.305   1.954 -0.0876  0.4561  0.3097
 4613TIP3   OH235473   6.580   5.305   1.696  0.0650 -0.2935 -0.3058
 4613TIP3    H135474   6.596   5.371   1.628 -1.0326  0.4356  0.1132
 4613TIP3    H235475   6.657   5.309   1.752  0.1392  0.4594 -0.4431
 4614TIP3   OH235476   0.290   3.927   6.379  0.3089  0.1039 -0.2744
 4614TIP3    H135477   0.304   3.870   6.455  1.0732  1.6568  0.7975
 4614TIP3    H235478   0.320   3.876   6.304 -2.9116 -2.5518  0.0009
 4615TIP3   OH235479   5.546   1.084   1.237  0.1778  0.3310 -0.4178
 4615TIP3    H135480   5.463   1.105   1.280  0.4205 -1.5222  1.0597
 4615TIP3    H235481   5.522   1.029   1.163  0.0925 -0.6129  0.2953
 4616TIP3   OH235482   2.817   3.779   0.191 -0.3941 -0.6546 -0.3186
 4616TIP3    H135483   2.748   3.714   0.177 -0.8701  0.2631 -2.9325
 4616TIP3    H235484   2.814   3.798   0.285 -2.7897 -1.6379 -0.1203
 4617TIP3   OH235485   2.730   2.499   2.464  0.3393  0.3544  0.2863
 4617TIP3    H135486   2.770   2.416   2.488  1.5935  1.4072  2.1092
 4617TIP3    H235487   2.681   2.525   2.542 -1.1702  0.7078 -0.7332
 4618TIP3   OH235488   5.251   2.651   1.368 -0.5600 -0.2243 -0.0301
 4618TIP3    H135489   5.343   2.628   1.361 -0.6300 -0.0212 -2.4928
 4618TIP3    H235490   5.251   2.745   1.385 -0.3686 -0.5909  2.4853
 4619TIP3   OH235491   6.155   1.517   0.529  0.1698 -0.1611 -0.1790
 4619TIP3    H135492   6.062   1.495   0.518 -0.7924  3.4790 -0.9359
 4619TIP3    H235493   6.163   1.538   0.622  0.1718 -0.2734 -0.1539
 4620TIP3   OH235494   5.908   4.084   6.832  0.0655 -0.3993  0.7298
 4620TIP3    H135495   6.002   4.099   6.841  0.3417 -0.4783 -1.4943
 4620TIP3    H235496   5.901   3.991   6.811 -0.4855 -0.2958  0.4517
 4621TIP3   OH235497   1.106   1.538   8.039  0.6946 -0.2274 -0.0945
 4621TIP3    H135498   1.127   1.513   8.129  2.1520 -0.3741 -0.4511
 4621TIP3    H235499   1.147   1.624   8.028  1.7124 -0.8116 -1.0239
 4622TIP3   OH235500   5.031   6.813   7.711 -0.5332  0.5889 -0.5436
 4622TIP3    H135501   4.968   6.842   7.777 -1.2309  0.2478 -1.0494
 4622TIP3    H235502   5.082   6.892   7.691 -1.0003  0.9482 -0.3458
 4623TIP3   OH235503   3.694   5.953   6.939  0.2070  0.5790  0.6594
 4623TIP3    H135504   3.663   6.043   6.936 -1.0863  0.1286 -1.3354
 4623TIP3    H235505   3.616   5.901   6.960  0.3479 -0.2847 -0.8178
 4624TIP3   OH235506   3.623   5.196   7.581  0.3891 -0.3524 -0.3756
 4624TIP3    H135507   3.628   5.275   7.636  0.1834 -0.0580 -0.7756
 4624TIP3    H235508   3.641   5.227   7.493  0.5793 -0.8043 -0.4979
 4625TIP3   OH235509   3.476   1.554   0.240  0.1235  0.2434  0.1227
 4625TIP3    H135510   3.457   1.571   0.148 -0.0566  1.2425  0.3257
 4625TIP3    H235511   3.392   1.566   0.284  0.1315 -0.5873  0.3787
 4626TIP3   OH235512   4.405   6.032   7.634 -0.1163  0.1928  0.3041
 4626TIP3    H135513   4.455   6.104   7.673 -0.5604  0.8093 -0.2349
 4626TIP3    H235514   4.320   6.071   7.613 -1.3294 -1.1339  2.3797
 4627TIP3   OH235515   0.829   3.887   7.036  0.3809 -0.4727  0.5288
 4627TIP3    H135516   0.778   3.968   7.041  2.9962  1.3176  0.3941
 4627TIP3    H235517   0.787   3.836   6.966 -1.0609  0.9772  0.2754
 4628TIP3   OH235518   5.293   2.460   2.155 -0.7982  0.5058 -0.2731
 4628TIP3    H135519   5.214   2.416   2.187 -1.6485  0.5679 -2.1584
 4628TIP3    H235520   5.310   2.529   2.219 -1.9108  0.0827  0.4990
 4629TIP3   OH235521   0.372   6.923   2.631  0.0700 -0.3025 -0.4449
 4629TIP3    H135522   0.430   6.905   2.706  0.6051  1.3984 -0.3850
 4629TIP3    H235523   0.431   6.933   2.557 -0.3797 -1.0483 -0.9064
 4630TIP3   OH235524   5.746   2.563   6.625 -0.1098 -0.1452 -0.0530
 4630TIP3    H135525   5.708   2.592   6.542  2.0473 -0.3582 -1.2067
 4630TIP3    H235526   5.722   2.470   6.631  1.5617 -0.7386 -1.6395
 4631TIP3   OH235527   5.091   3.739   6.934  0.4518  0.0324 -0.6760
 4631TIP3    H135528   5.042   3.813   6.897 -1.0166 -0.3298  0.4402
 4631TIP3    H235529   5.145   3.777   7.002 -0.1280  0.1345 -0.2611
 4632TIP3   OH235530   3.204   3.935   7.266 -0.0728  0.6207 -0.0941
 4632TIP3    H135531   3.147   3.957   7.193 -0.0553  0.1684 -0.2531
 4632TIP3    H235532   3.193   3.840   7.277  0.7815  0.4910 -0.2548
 4633TIP3   OH235533   1.771   2.903   8.025 -0.3828 -0.4002 -0.3731
 4633TIP3    H135534   1.723   2.956   8.088  0.9779  0.3894  0.0517
 4633TIP3    H235535   1.837   2.963   7.989 -0.0741 -1.2825 -1.3424
 4634TIP3   OH235536   4.220   2.356   7.239  0.0744  0.3056  0.0793
 4634TIP3    H135537   4.229   2.393   7.327  0.1303  0.3118  0.0715
 4634TIP3    H235538   4.308   2.325   7.217 -0.2068 -0.9497  0.5881
 4635TIP3   OH235539   5.594   6.452   2.209 -0.2297 -0.0263 -0.5490
 4635TIP3    H135540   5.575   6.392   2.281 -1.8476  0.3568 -0.6237
 4635TIP3    H235541   5.671   6.415   2.166 -1.4290 -2.3461 -0.8809
 4636TIP3   OH235542   5.300   2.352   7.435 -0.2874  0.6419 -0.1019
 4636TIP3    H135543   5.295   2.439   7.395 -0.8681  0.3823 -0.6214
 4636TIP3    H235544   5.381   2.353   7.485 -0.5540  1.6701  0.3443
 4637TIP3   OH235545   2.683   5.075   8.000 -0.3939  0.2112 -1.0529
 4637TIP3    H135546   2.623   5.149   7.994 -0.4532  0.7552  3.0610
 4637TIP3    H235547   2.770   5.114   7.984 -0.5576  0.8906 -0.3570
 4638TIP3   OH235548   5.660   7.044   0.809  0.1518 -0.4757 -0.3680
 4638TIP3    H135549   5.657   7.134   0.776 -1.1089 -0.8210 -1.2980
 4638TIP3    H235550   5.612   7.048   0.892 -1.1103 -0.5242 -1.0760
 4639TIP3   OH235551   6.109   2.906   1.078 -0.2146 -0.5581 -0.0457
 4639TIP3    H135552   6.162   2.976   1.040  2.1569 -2.1003  0.2184
 4639TIP3    H235553   6.093   2.934   1.168 -0.6306  0.3408 -0.3944
 4640TIP3   OH235554   2.515   5.667   1.343  0.2686  0.1947 -0.7624
 4640TIP3    H135555   2.422   5.648   1.334  0.2245 -1.0651  1.4917
 4640TIP3    H235556   2.518   5.762   1.358 -0.9278 -0.0173  1.2404
 4641TIP3   OH235557   0.245   5.031   0.601  0.5681 -0.0741 -0.3929
 4641TIP3    H135558   0.183   5.011   0.530 -3.4136  0.6658  2.5451
 4641TIP3    H235559   0.245   4.952   0.655  1.0709  0.4914  0.4395
 4642TIP3   OH235560   2.472   5.313   7.965 -0.1908  0.4792  0.3355
 4642TIP3    H135561   2.404   5.269   8.017 -1.3309  1.3512 -0.3798
 4642TIP3    H235562   2.504   5.383   8.023 -0.6911  0.7624  0.2765
 4643TIP3   OH235563   5.246   5.155   0.568 -0.3380  0.3068 -0.0607
 4643TIP3    H135564   5.158   5.156   0.531 -0.1786  0.4326 -0.4413
 4643TIP3    H235565   5.232   5.159   0.662 -0.7323  0.7413 -0.1325
 4644TIP3   OH235566   5.433   5.798   0.518 -0.0181 -0.6800 -0.0983
 4644TIP3    H135567   5.431   5.851   0.598  0.8998 -0.2985 -0.3216
 4644TIP3    H235568   5.342   5.800   0.486  0.0366  0.9762 -0.2388
 4645TIP3   OH235569   5.845   3.531   0.415 -0.6268 -0.7715  0.3759
 4645TIP3    H135570   5.822   3.607   0.361 -1.9986 -1.5686 -0.2044
 4645TIP3    H235571   5.799   3.458   0.375  2.2214 -2.3440 -0.2539
 4646TIP3   OH235572   0.059   4.941   1.462 -0.5952 -0.5748 -0.2272
 4646TIP3    H135573   0.070   5.036   1.472 -1.7913 -0.2027 -2.0319
 4646TIP3    H235574   0.039   4.910   1.550  0.2557  0.7676  0.4737
 4647TIP3   OH235575   3.812   5.819   0.687  0.1372  0.0310  0.3455
 4647TIP3    H135576   3.833   5.833   0.595 -2.3033  0.0723 -0.2937
 4647TIP3    H235577   3.833   5.727   0.702  0.3566 -0.0346 -0.3281
 4648TIP3   OH235578   4.623   6.650   1.880  0.0254 -0.4344 -0.0362
 4648TIP3    H135579   4.529   6.656   1.861  0.2341  0.8989 -0.7964
 4648TIP3    H235580   4.661   6.723   1.832  1.2586  0.0577  1.6167
 4649TIP3   OH235581   2.796   1.263   1.923  0.8096  0.6625 -0.5278
 4649TIP3    H135582   2.835   1.332   1.977 -0.0734  1.0152 -0.3307
 4649TIP3    H235583   2.754   1.309   1.851 -1.1357  0.4979  0.4295
 4650TIP3   OH235584   1.300   6.951   1.275  0.5922  0.2644 -0.2897
 4650TIP3    H135585   1.370   6.904   1.321  0.7507  0.0614 -0.7294
 4650TIP3    H235586   1.310   7.042   1.302 -0.0401 -0.0186  0.9800
 4651TIP3   OH235587   6.576   2.316   2.271  0.2627 -0.7399 -0.2452
 4651TIP3    H135588   6.630   2.248   2.230 -0.7231 -1.7169  0.0143
 4651TIP3    H235589   6.568   2.288   2.363  1.2380  0.6447  0.2852
 4652TIP3   OH235590   0.393   6.214   0.865 -0.4583  0.4296 -0.6103
 4652TIP3    H135591   0.433   6.295   0.832  2.4762 -0.4995  0.3883
 4652TIP3    H235592   0.393   6.156   0.789 -0.0791  0.5201 -0.6847
 4653TIP3   OH235593   6.737   0.750   6.592 -0.1171 -0.1290 -0.1011
 4653TIP3    H135594   6.706   0.696   6.665 -0.9464 -1.1945 -1.2135
 4653TIP3    H235595   6.801   0.696   6.547  0.3308  0.4920 -0.2257
 4654TIP3   OH235596   5.663   4.606   2.701 -0.3261  0.4321 -0.0077
 4654TIP3    H135597   5.742   4.574   2.658  0.1733 -0.6793  1.6498
 4654TIP3    H235598   5.695   4.675   2.760 -0.3745 -0.8557  1.5703
 4655TIP3   OH235599   1.994   1.636   1.318  0.2424 -0.7601 -1.2671
 4655TIP3    H135600   1.922   1.639   1.381  0.9594 -2.8589 -0.2410
 4655TIP3    H235601   1.957   1.592   1.242  0.1111 -0.7601 -1.2032
 4656TIP3   OH235602   4.846   0.637   0.193  0.0143 -0.3573  0.6365
 4656TIP3    H135603   4.771   0.696   0.190 -0.6769 -1.2632 -0.7554
 4656TIP3    H235604   4.839   0.585   0.113  2.7859  0.3146 -0.1358
 4657TIP3   OH235605   6.342   1.940   2.845  0.1996 -0.4678  0.0838
 4657TIP3    H135606   6.428   1.916   2.810  0.2129  0.3722 -0.4764
 4657TIP3    H235607   6.362   1.991   2.924  0.3031  1.4994 -1.1476
 4658TIP3   OH235608   2.375   3.568   7.418 -0.0921  0.1215 -0.0602
 4658TIP3    H135609   2.324   3.630   7.366  1.7798  1.3279 -0.5617
 4658TIP3    H235610   2.407   3.620   7.492  0.3340 -0.6175  0.2819
 4659TIP3   OH235611   1.743   2.686   0.980  0.7073 -0.4472  0.1382
 4659TIP3    H135612   1.779   2.634   0.908 -1.2748 -0.3072 -1.0417
 4659TIP3    H235613   1.800   2.763   0.985  2.7216 -1.9038  0.8336
 4660TIP3   OH235614   5.252   1.981   7.408  0.5749 -0.0983  0.0103
 4660TIP3    H135615   5.200   2.061   7.403  0.3022 -0.3220 -0.8351
 4660TIP3    H235616   5.197   1.914   7.368  0.6082 -0.8247  1.1128
 4661TIP3   OH235617   4.302   7.065   1.268 -0.0001  0.7363 -0.1327
 4661TIP3    H135618   4.264   7.147   1.236  1.4300  0.9104 -1.4938
 4661TIP3    H235619   4.229   7.019   1.308 -1.5739  1.2369 -2.2492
 4662TIP3   OH235620   4.675   6.564   0.221 -0.1066  0.0903  0.2112
 4662TIP3    H135621   4.604   6.502   0.205 -0.0063  0.3647 -1.4784
 4662TIP3    H235622   4.735   6.517   0.279 -0.2080 -1.2849 -0.7387
 4663TIP3   OH235623   1.382   1.948   0.232  0.5391  0.0772 -0.4180
 4663TIP3    H135624   1.373   2.043   0.236 -0.3267 -0.0149  0.1301
 4663TIP3    H235625   1.410   1.931   0.142  2.2715  0.9447 -0.0811
 4664TIP3   OH235626   6.667   6.619   0.595  0.4632  0.1455 -0.0522
 4664TIP3    H135627   6.629   6.697   0.555 -0.7132  0.1575  1.0380
 4664TIP3    H235628   6.627   6.546   0.549  1.2697  0.1580 -0.8052
 4665TIP3   OH235629   2.491   0.242   6.560  0.2404  0.3230 -0.8111
 4665TIP3    H135630   2.581   0.275   6.553  0.7485 -0.3558  1.6305
 4665TIP3    H235631   2.484   0.175   6.492  1.9165 -0.2703 -0.4466
 4666TIP3   OH235632   5.059   4.080   7.843 -0.0383 -0.3420  0.0619
 4666TIP3    H135633   5.033   4.113   7.757  0.6142 -1.4730 -0.5894
 4666TIP3    H235634   5.112   4.151   7.881 -1.3333  0.6629  0.0755
 4667TIP3   OH235635   0.661   2.781   2.449  0.4249 -0.5148 -0.2126
 4667TIP3    H135636   0.681   2.775   2.542  0.3629  1.8758  0.0188
 4667TIP3    H235637   0.742   2.812   2.409  0.4172 -1.4138 -0.9591
 4668TIP3   OH235638   5.738   6.816   6.984  0.0510 -0.0911 -0.4945
 4668TIP3    H135639   5.685   6.736   6.980  2.6363 -1.9774  0.6301
 4668TIP3    H235640   5.773   6.826   6.896 -0.2375 -0.2061 -0.6250
 4669TIP3   OH235641   0.284   4.165   1.594 -0.0139 -0.2195  0.3377
 4669TIP3    H135642   0.199   4.169   1.637 -0.0501  0.3971  0.2160
 4669TIP3    H235643   0.347   4.171   1.666 -0.0436  2.9961  0.2362
 4670TIP3   OH235644   0.202   4.628   7.638  0.9976 -0.0026  0.9243
 4670TIP3    H135645   0.233   4.604   7.726  2.1327 -0.9806  0.2936
 4670TIP3    H235646   0.263   4.696   7.609  0.3137  0.6904  1.0732
 4671TIP3   OH235647   4.028   6.444   1.612 -0.3507  0.3486  0.0906
 4671TIP3    H135648   4.097   6.485   1.664  0.0427  1.2986 -1.1377
 4671TIP3    H235649   3.965   6.514   1.596 -2.1534 -0.7004  1.9679
 4672TIP3   OH235650   6.909   5.726   7.374 -0.1534  0.6851 -0.1044
 4672TIP3    H135651   6.873   5.668   7.306 -0.4328  0.2090  0.4461
 4672TIP3    H235652   6.835   5.782   7.399 -0.1773  0.5449  0.1400
 4673TIP3   OH235653   3.616   6.601   7.827 -0.4733  0.7640  0.5726
 4673TIP3    H135654   3.524   6.578   7.818 -0.7859  1.5278  1.6499
 4673TIP3    H235655   3.650   6.600   7.737 -1.6252  0.8718  0.1191
 4674TIP3   OH235656   1.186   4.364   2.362 -0.5512 -0.5763 -0.3114
 4674TIP3    H135657   1.234   4.319   2.292  0.6528 -1.4802  1.0188
 4674TIP3    H235658   1.124   4.298   2.394 -1.9379  0.2155 -1.2506
 4675TIP3   OH235659   4.583   0.510   7.311  0.0324 -0.0023  0.1146
 4675TIP3    H135660   4.627   0.428   7.337  2.0048  0.8492 -0.3664
 4675TIP3    H235661   4.490   0.489   7.316  0.4075 -1.4836  2.6019
 4676TIP3   OH235662   1.787   1.869   7.032  0.2318  0.1368 -0.0650
 4676TIP3    H135663   1.705   1.879   7.080  0.1079  3.3902 -0.6952
 4676TIP3    H235664   1.855   1.895   7.095  0.8410 -2.3090  0.3828
 4677TIP3   OH235665   3.136   2.078   7.382  0.0028 -0.2163  0.1179
 4677TIP3    H135666   3.116   2.159   7.429  0.1207 -0.0253 -0.1638
 4677TIP3    H235667   3.121   2.099   7.290 -1.8408 -1.0582  0.1791
 4678TIP3   OH235668   0.050   6.544   1.962 -0.1408  0.7682 -0.4678
 4678TIP3    H135669   0.008   6.559   2.046 -2.6871 -1.2694 -1.2443
 4678TIP3    H235670   0.124   6.487   1.982  0.1963  1.5289  0.5342
 4679TIP3   OH235671   2.029   4.289   2.000 -0.0233 -0.6317 -0.2279
 4679TIP3    H135672   2.067   4.322   1.919  0.4869 -2.4727 -0.7900
 4679TIP3    H235673   2.079   4.210   2.020 -1.4046 -1.2957  0.8345
 4680TIP3   OH235674   3.470   0.331   7.837  0.0137  0.2230  0.0254
 4680TIP3    H135675   3.553   0.342   7.791  0.8384 -0.9889  1.1507
 4680TIP3    H235676   3.432   0.252   7.800  2.5695 -3.2116  3.8620
 4681TIP3   OH235677   2.660   6.472   1.707  0.0974  0.0900  0.7635
 4681TIP3    H135678   2.588   6.474   1.643  0.0237  0.9615  0.8665
 4681TIP3    H235679   2.630   6.526   1.779 -0.1552 -1.5325  1.9279
 4682TIP3   OH235680   0.348   5.506   0.963 -0.2389  0.2856 -0.4291
 4682TIP3    H135681   0.322   5.427   1.011  1.3303  0.4435  0.7345
 4682TIP3    H235682   0.354   5.477   0.872 -5.3709  0.4470 -1.1321
 4683TIP3   OH235683   5.057   4.370   1.991  0.6527  0.2165  0.1984
 4683TIP3    H135684   5.077   4.462   2.009  1.2283  0.1841 -0.2620
 4683TIP3    H235685   5.122   4.343   1.927 -1.8495  0.5936 -2.7558
 4684TIP3   OH235686   1.093   0.889   7.569 -0.1248 -0.2041  0.9990
 4684TIP3    H135687   1.156   0.870   7.499 -0.8908  2.7383 -0.6773
 4684TIP3    H235688   1.009   0.859   7.533 -0.3388  0.1018  1.2451
 4685TIP3   OH235689   2.669   6.120   1.758  0.1619 -0.3702 -0.0884
 4685TIP3    H135690   2.731   6.067   1.808 -0.4353 -0.4453  0.5857
 4685TIP3    H235691   2.620   6.169   1.824  0.4153  0.7123 -0.6783
 4686TIP3   OH235692   5.952   6.304   7.363  0.3527  0.1822 -0.3024
 4686TIP3    H135693   5.966   6.326   7.455 -1.1522  0.8978 -0.2015
 4686TIP3    H235694   5.862   6.333   7.346  0.4399 -0.4003 -1.8629
 4687TIP3   OH235695   3.006   6.333   0.782 -0.3632 -0.5639 -0.6105
 4687TIP3    H135696   3.056   6.370   0.710  0.1390 -2.1610 -1.1138
 4687TIP3    H235697   3.028   6.240   0.782 -1.7997 -0.9423  0.4160
 4688TIP3   OH235698   6.414   2.807   0.952 -0.1474 -0.3701 -0.3056
 4688TIP3    H135699   6.388   2.866   1.023  1.2898 -1.1816  0.9440
 4688TIP3    H235700   6.507   2.825   0.939  0.3049 -2.2982  0.0670
 4689TIP3   OH235701   0.677   0.679   0.716  0.5613  0.3890  0.2915
 4689TIP3    H135702   0.745   0.620   0.750  0.2826 -1.5413 -2.2366
 4689TIP3    H235703   0.616   0.621   0.670 -1.7847  2.2902  0.8109
 4690TIP3   OH235704   2.152   5.280   2.065  0.0612  0.1662 -0.7361
 4690TIP3    H135705   2.143   5.230   1.984  0.0888  0.7589 -1.1151
 4690TIP3    H235706   2.164   5.214   2.133 -1.3858 -0.4245 -1.0064
 4691TIP3   OH235707   2.576   1.374   0.771 -0.5438  0.0888 -0.3337
 4691TIP3    H135708   2.592   1.420   0.689 -0.6340  0.1105 -0.3385
 4691TIP3    H235709   2.641   1.304   0.772 -0.0195  0.5690 -0.0546
 4692TIP3   OH235710   2.807   3.740   7.719 -0.7010  0.6189 -0.4434
 4692TIP3    H135711   2.852   3.715   7.800  1.2738  1.1152 -1.3490
 4692TIP3    H235712   2.808   3.836   7.719 -0.5939  0.6224 -1.1054
 4693TIP3   OH235713   4.573   3.443   0.609 -0.5324 -0.2217 -0.4621
 4693TIP3    H135714   4.616   3.409   0.688  0.0625  2.0763  0.2854
 4693TIP3    H235715   4.626   3.410   0.537 -1.1747 -2.5007  0.0220
 4694TIP3   OH235716   4.125   0.239   2.403 -0.4196  0.1300  0.2966
 4694TIP3    H135717   4.172   0.310   2.446  3.2253 -1.5558 -0.5520
 4694TIP3    H235718   4.142   0.162   2.457 -0.3711 -0.9524 -1.2054
 4695TIP3   OH235719   4.616   1.401   0.094 -0.0114  0.3826  0.5013
 4695TIP3    H135720   4.550   1.460   0.057  0.9996  0.4529 -1.3045
 4695TIP3    H235721   4.584   1.381   0.181 -0.8375  2.9129  0.8684
 4696TIP3   OH235722   1.698   6.270   0.795 -0.3854  0.0763 -0.5810
 4696TIP3    H135723   1.721   6.325   0.720  0.3703 -0.7968 -1.0102
 4696TIP3    H235724   1.612   6.301   0.822  1.4127  4.0100  1.5082
 4697TIP3   OH235725   6.646   1.034   7.894  0.2477 -0.7940  0.2457
 4697TIP3    H135726   6.645   0.963   7.958  0.0051 -1.3985 -0.4271
 4697TIP3    H235727   6.553   1.055   7.880  0.3300  0.3248  1.1600
 4698TIP3   OH235728   4.889   6.847   1.511 -0.1551  0.0368 -0.0569
 4698TIP3    H135729   4.929   6.773   1.556  1.2469 -0.4678 -2.0002
 4698TIP3    H235730   4.949   6.920   1.529 -1.0003  0.5033  1.0120
 4699TIP3   OH235731   6.176   2.165   7.826 -0.8278  0.2718  0.7890
 4699TIP3    H135732   6.097   2.216   7.805 -1.1401  0.3585  2.0725
 4699TIP3    H235733   6.239   2.230   7.858  0.5656  0.5074 -2.1792
 4700TIP3   OH235734   1.822   0.013   0.614 -0.3482  0.3237  0.0237
 4700TIP3    H135735   1.749  -0.037   0.576 -0.1140  0.4423 -0.5860
 4700TIP3    H235736   1.862  -0.048   0.676  0.0053 -0.2930 -0.7959
 4701TIP3   OH235737   6.525   2.057   6.994  0.4234  0.0627 -0.0588
 4701TIP3    H135738   6.538   2.008   7.076  0.9618 -0.0928 -0.2329
 4701TIP3    H235739   6.432   2.046   6.975  0.6229 -1.3053 -0.3422
 4702TIP3   OH235740   1.908   2.110   7.563 -0.3076  0.0701  0.4066
 4702TIP3    H135741   1.830   2.057   7.576 -1.8376  1.5669 -1.8732
 4702TIP3    H235742   1.909   2.128   7.469  0.8947  2.8976  0.8573
 4703TIP3   OH235743   5.774   6.390   1.667 -0.2039  0.1067 -1.1677
 4703TIP3    H135744   5.755   6.427   1.753 -0.6864 -0.3182 -1.0888
 4703TIP3    H235745   5.818   6.461   1.619  2.4937 -0.4485  0.2785
 4704TIP3   OH235746   0.478   1.737   0.093 -0.1794 -0.2819  0.7505
 4704TIP3    H135747   0.459   1.644   0.080  2.4922 -1.3799  3.4700
 4704TIP3    H235748   0.548   1.756   0.031 -0.1687 -0.3072  0.7548
 4705TIP3   OH235749   5.794   0.762   1.257  0.4579  0.3719  0.7411
 4705TIP3    H135750   5.831   0.773   1.170 -1.4331  0.4931 -0.0762
 4705TIP3    H235751   5.701   0.747   1.243  0.5439 -2.7135  2.5826
 4706TIP3   OH235752   5.811   5.663   0.100  0.4078 -0.1549  0.5490
 4706TIP3    H135753   5.875   5.603   0.063  1.5632  0.2941  1.7534
 4706TIP3    H235754   5.832   5.748   0.063 -0.6250 -0.3004 -0.4138
 4707TIP3   OH235755   2.064   2.889   7.317  0.4763 -0.0803  0.1549
 4707TIP3    H135756   2.032   2.979   7.309  0.6249 -0.1559 -1.7907
 4707TIP3    H235757   2.157   2.895   7.295  0.2821 -0.8180 -0.9608
 4708TIP3   OH235758   3.194   5.883   0.094  0.0630  0.4863  0.0161
 4708TIP3    H135759   3.147   5.898   0.176 -1.7235 -0.7106 -0.7221
 4708TIP3    H235760   3.158   5.948   0.034 -0.8971 -0.5998 -0.6236
 4709TIP3   OH235761   3.693   6.904   8.167  0.3747  0.1143 -0.1474
 4709TIP3    H135762   3.622   6.841   8.164  0.8237 -0.5213  1.5708
 4709TIP3    H235763   3.724   6.910   8.076 -2.5214  1.2456 -1.1607
 4710TIP3   OH235764   3.347   4.103   6.860  0.1555  0.2470  0.3129
 4710TIP3    H135765   3.303   4.098   6.775 -1.4009  0.2676  1.1002
 4710TIP3    H235766   3.380   4.015   6.875  0.4368  0.2410 -0.2893
 4711TIP3   OH235767   3.709   0.382   7.682  0.6969  0.2063  0.1754
 4711TIP3    H135768   3.720   0.475   7.659  1.6060  0.3141  0.9725
 4711TIP3    H235769   3.785   0.339   7.643  1.4195  0.1471  1.5918
 4712TIP3   OH235770   0.831   1.729   1.620  0.5413 -0.5692 -0.5783
 4712TIP3    H135771   0.765   1.722   1.551 -0.6840  0.5363  0.4385
 4712TIP3    H235772   0.886   1.651   1.608  0.1581 -0.5803 -2.5577
 4713TIP3   OH235773   2.482   0.909   1.010  0.5993  0.3758  0.1907
 4713TIP3    H135774   2.531   0.941   1.085  2.5118  1.3750 -1.3694
 4713TIP3    H235775   2.408   0.969   1.001  1.5323  1.5269  0.0563
 4714TIP3   OH235776   2.052   4.331   0.119  0.4193 -0.3257 -0.3707
 4714TIP3    H135777   2.009   4.379   0.190 -2.4789 -0.4002 -1.9667
 4714TIP3    H235778   2.103   4.264   0.164 -0.4513  0.3055  1.6732
 4715TIP3   OH235779   4.268   3.445   2.128  0.0644  0.4683 -0.0569
 4715TIP3    H135780   4.208   3.505   2.084 -0.2127  0.2908  0.0760
 4715TIP3    H235781   4.225   3.360   2.122  0.6805  0.1882 -0.6716
 4716TIP3   OH235782   0.455   2.995   0.888 -0.8935  0.4869 -0.0810
 4716TIP3    H135783   0.428   3.086   0.876  0.1203  0.6367 -1.6241
 4716TIP3    H235784   0.462   2.984   0.982  1.9126  2.9847  0.1591
 4717TIP3   OH235785   6.090   1.153   1.453  0.8055  0.0740 -0.1028
 4717TIP3    H135786   6.154   1.123   1.388  0.1109 -1.9721  0.1047
 4717TIP3    H235787   6.109   1.102   1.531  0.5376  1.3006  0.7884
 4718TIP3   OH235788   4.369   4.427   8.000  0.0121  0.5257 -0.7326
 4718TIP3    H135789   4.370   4.487   7.926  1.5746 -0.0148 -1.1821
 4718TIP3    H235790   4.448   4.374   7.990  0.2276  0.3790  1.2613
 4719TIP3   OH235791   6.991   0.842   2.667  0.5974 -0.0364  0.1030
 4719TIP3    H135792   6.962   0.844   2.575 -0.4433 -0.4942  0.4015
 4719TIP3    H235793   7.036   0.925   2.680  0.8338 -0.0061 -0.8488
 4720TIP3   OH235794   2.698   5.254   7.222 -0.3473 -0.0316 -0.1209
 4720TIP3    H135795   2.761   5.183   7.238 -0.2076  0.3426  1.0808
 4720TIP3    H235796   2.719   5.320   7.288 -2.3887 -0.1553  0.7262
 4721TIP3   OH235797   6.337   1.074   7.880 -0.6867  0.2208 -0.0677
 4721TIP3    H135798   6.245   1.056   7.899 -0.9744  2.1604  0.5786
 4721TIP3    H235799   6.362   1.008   7.815 -2.6244 -0.1166 -0.5129
 4722TIP3   OH235800   0.482   0.479   0.633 -0.4304  0.3514  0.3593
 4722TIP3    H135801   0.466   0.446   0.545 -1.3456  0.1675  0.5908
 4722TIP3    H235802   0.463   0.405   0.691  1.1962  0.1410  0.6682
 4723TIP3   OH235803   3.938   0.037   1.399  0.1659  0.4226 -0.2651
 4723TIP3    H135804   4.009  -0.021   1.426 -0.6602  0.1248  1.3977
 4723TIP3    H235805   3.980   0.121   1.382  1.1696 -0.2542 -1.2794
 4724TIP3   OH235806   6.156   3.848   8.211  0.6875 -0.5730  0.0313
 4724TIP3    H135807   6.163   3.782   8.141  0.5474  0.4960 -1.0202
 4724TIP3    H235808   6.201   3.925   8.177 -0.1656  0.2722  0.7408
 4725TIP3   OH235809   3.752   0.387   7.274 -0.3742 -0.5437 -0.6005
 4725TIP3    H135810   3.792   0.472   7.259 -1.2392 -0.1596 -0.8190
 4725TIP3    H235811   3.776   0.335   7.198 -1.7726  0.2631 -1.6491
 4726TIP3   OH235812   5.232   2.349   7.053  0.3408  0.2464  0.4030
 4726TIP3    H135813   5.239   2.418   6.987  1.8280 -0.1621  0.1063
 4726TIP3    H235814   5.321   2.335   7.084 -0.1261 -0.6196  1.4284
 4727TIP3   OH235815   7.010   7.049   1.784 -0.3692 -0.2963 -0.4616
 4727TIP3    H135816   7.059   7.037   1.703  0.4516  0.9994 -0.1885
 4727TIP3    H235817   7.018   6.965   1.830  1.1695 -0.2895 -0.6673
 4728TIP3   OH235818   3.971   3.164   6.651 -0.0539 -0.4795 -0.1051
 4728TIP3    H135819   3.948   3.090   6.706  0.4884 -1.8042 -1.5709
 4728TIP3    H235820   3.947   3.136   6.562  1.2350  0.6301 -0.8410
 4729TIP3   OH235821   0.782   6.482   0.226 -0.3325  0.5749  0.4018
 4729TIP3    H135822   0.806   6.424   0.298  0.2647 -0.6085 -0.6863
 4729TIP3    H235823   0.731   6.426   0.167  1.4317  0.6824 -1.3598
 4730TIP3   OH235824   1.542   6.362   0.034 -0.1201  0.4029  0.5835
 4730TIP3    H135825   1.510   6.446   0.003 -1.2007  0.1740  0.9947
 4730TIP3    H235826   1.558   6.311  -0.045  1.8195  1.4025  0.2785
 4731TIP3   OH235827   1.979   5.292   7.242 -0.4830 -0.1521 -0.1702
 4731TIP3    H135828   2.012   5.267   7.156 -0.9371 -0.0586 -0.3739
 4731TIP3    H235829   1.997   5.217   7.298 -0.1977 -0.2171 -0.3525
 4732TIP3   OH235830   5.497   1.891   8.198  0.1743 -0.3053 -0.4597
 4732TIP3    H135831   5.445   1.935   8.265 -0.5761 -3.8475  1.5372
 4732TIP3    H235832   5.434   1.873   8.128  0.5112  1.7248 -1.3365
 4733TIP3   OH235833   1.845   0.185   0.014 -0.3250 -0.5360 -0.2784
 4733TIP3    H135834   1.767   0.183  -0.041 -0.2265 -1.0452 -0.4091
 4733TIP3    H235835   1.872   0.276   0.016 -0.2129 -0.5445 -1.2294
 4734TIP3   OH235836   4.014   6.431   7.077 -0.7712  0.5269 -0.0923
 4734TIP3    H135837   4.062   6.475   7.006 -0.6166 -2.8031 -2.2561
 4734TIP3    H235838   3.926   6.468   7.072  0.0207  2.6102  0.1561
 4735TIP3   OH235839   0.461   0.102   6.987  0.2121  0.4401 -0.3238
 4735TIP3    H135840   0.475   0.015   7.026 -0.1226 -0.3638 -1.9473
 4735TIP3    H235841   0.505   0.162   7.048 -2.9332 -0.3241  3.0531
 4736TIP3   OH235842   0.425   1.894   0.384 -0.2632 -0.4498 -0.0616
 4736TIP3    H135843   0.383   1.881   0.469  1.7892 -0.0410  1.0732
 4736TIP3    H235844   0.518   1.882   0.401  0.3206  0.8118 -2.0126
 4737TIP3   OH235845   5.181   1.573   0.841  0.3882 -0.1827 -0.2338
 4737TIP3    H135846   5.134   1.490   0.836 -0.7818  0.4659 -0.6083
 4737TIP3    H235847   5.198   1.586   0.935  1.0689 -1.0831 -0.2217
 4738TIP3   OH235848   4.832   1.257   0.445 -0.0461 -0.4171 -0.3126
 4738TIP3    H135849   4.879   1.207   0.379  2.4044  0.7822  0.4212
 4738TIP3    H235850   4.882   1.338   0.455 -1.6507  0.4609  1.3574
 4739TIP3   OH235851   0.422   6.614   6.879  0.3374 -0.6567  0.1502
 4739TIP3    H135852   0.396   6.685   6.820  0.3712 -0.7496  0.0238
 4739TIP3    H235853   0.487   6.564   6.830 -0.0213 -1.0437  0.0583
 4740TIP3   OH235854   3.574   4.445   2.440 -0.1105  0.2243  0.0939
 4740TIP3    H135855   3.554   4.522   2.492  2.4296 -0.5025  2.3839
 4740TIP3    H235856   3.657   4.465   2.397 -1.0165 -0.0812 -1.9099
 4741TIP3   OH235857   3.818   0.452   0.507  0.6083  0.1769 -0.1798
 4741TIP3    H135858   3.815   0.528   0.449 -0.7998 -0.4636 -1.0014
 4741TIP3    H235859   3.732   0.410   0.496  0.6356 -0.4743  1.6932
 4742TIP3   OH235860   1.612   2.760   0.236 -0.0855  0.8235 -0.1787
 4742TIP3    H135861   1.685   2.807   0.194  1.0833 -0.7634 -0.0152
 4742TIP3    H235862   1.535   2.814   0.216  0.9374  1.9302 -1.3909
 4743TIP3   OH235863   1.067   0.145   0.228  0.0071 -0.2023 -0.7450
 4743TIP3    H135864   1.008   0.089   0.279  1.4845  0.7351  2.2419
 4743TIP3    H235865   1.021   0.228   0.221 -0.3100 -0.4128 -1.1694
 4744TIP3   OH235866   3.791   4.989   1.045 -0.1925  0.2449  0.3405
 4744TIP3    H135867   3.824   5.075   1.071  1.9749 -0.7134  1.0015
 4744TIP3    H235868   3.795   4.936   1.125 -2.1613 -0.3235  0.1164
 4745TIP3   OH235869   2.818   5.378   1.908  0.2727 -0.0051  0.0298
 4745TIP3    H135870   2.775   5.321   1.845 -1.4254  0.2200  0.9270
 4745TIP3    H235871   2.887   5.421   1.858  1.4449 -2.5879 -0.7397
 4746TIP3   OH235872   5.521   2.296   0.377  0.1667  0.3826 -0.0615
 4746TIP3    H135873   5.506   2.345   0.296  0.3475  0.9738  0.2604
 4746TIP3    H235874   5.517   2.362   0.446  2.6943  0.3667  0.2069
 4747TIP3   OH235875   4.464   1.869   7.461 -0.4321 -0.5215 -0.5044
 4747TIP3    H135876   4.504   1.953   7.479 -3.9705  1.0322  1.0735
 4747TIP3    H235877   4.480   1.816   7.539 -0.6119 -0.2725 -0.2994
 4748TIP3   OH235878   4.524   4.666   2.496  0.5930 -0.2127  0.8259
 4748TIP3    H135879   4.452   4.727   2.479  0.0146 -1.1165 -0.0224
 4748TIP3    H235880   4.482   4.581   2.507  1.6693 -1.2470 -2.2550
 4749TIP3   OH235881   6.808   6.799   0.968 -0.1555  0.1267 -0.2793
 4749TIP3    H135882   6.749   6.724   0.963  0.6178 -0.4544 -1.1650
 4749TIP3    H235883   6.882   6.768   1.020  0.1426  0.2765 -0.6050
 4750TIP3   OH235884   0.588   3.271   0.082  0.1745 -0.1325 -0.2472
 4750TIP3    H135885   0.562   3.198   0.139  2.3376 -0.0958  0.8590
 4750TIP3    H235886   0.506   3.318   0.066 -1.2456 -2.5931 -0.7580
 4751TIP3   OH235887   1.910   2.785   7.109 -0.2929  0.0988 -0.2638
 4751TIP3    H135888   1.832   2.812   7.159 -0.3701  0.1444 -0.4098
 4751TIP3    H235889   1.983   2.806   7.167 -0.4447 -0.9776  0.3527
 4752TIP3   OH235890   2.400   3.414   0.854  0.0728  0.0535 -0.0751
 4752TIP3    H135891   2.449   3.489   0.820  1.2570 -0.1551  1.0579
 4752TIP3    H235892   2.312   3.424   0.818  0.1741  2.0322  0.1125
 4753TIP3   OH235893   3.355   1.045   1.932  0.0056 -0.3256  0.1835
 4753TIP3    H135894   3.320   0.982   1.870 -2.4455  2.4572 -1.5207
 4753TIP3    H235895   3.431   1.083   1.887  0.7441 -1.1420  0.7036
 4754TIP3   OH235896   3.503   3.084   7.962 -0.4667  0.4684 -0.0237
 4754TIP3    H135897   3.499   3.033   8.043  0.9294 -1.0314 -0.8572
 4754TIP3    H235898   3.489   3.020   7.892  2.4410  0.9445 -1.1704
 4755TIP3   OH235899   6.044   1.632   0.317  0.7582 -0.4199  0.0416
 4755TIP3    H135900   6.117   1.659   0.373  0.8625 -0.3596 -0.1249
 4755TIP3    H235901   5.997   1.714   0.300  1.6821 -0.1537 -1.3516
 4756TIP3   OH235902   1.819   6.564   1.811 -0.0140 -0.5038  0.2810
 4756TIP3    H135903   1.822   6.560   1.907  2.0423 -0.1365  0.2779
 4756TIP3    H235904   1.822   6.657   1.790  0.4425 -0.6027 -0.1291
 4757TIP3   OH235905   0.446   6.567   1.230 -0.3813 -0.5741  0.6077
 4757TIP3    H135906   0.488   6.650   1.252 -3.1330  1.9121 -2.4821
 4757TIP3    H235907   0.393   6.546   1.308  3.0200 -1.5883  2.8708
 4758TIP3   OH235908   6.917   2.145   1.568  0.9107  0.0672 -0.3498
 4758TIP3    H135909   6.915   2.211   1.637 -1.2719  0.2220 -0.4801
 4758TIP3    H235910   6.879   2.188   1.492 -0.4166 -1.2544 -0.4836
 4759TIP3   OH235911   2.085   5.666   0.073 -0.1427  0.2263 -0.0705
 4759TIP3    H135912   2.121   5.750   0.102  0.7734  0.1765 -0.9745
 4759TIP3    H235913   2.051   5.625   0.153  2.2750  0.0777  1.0037
 4760TIP3   OH235914   4.842   4.416   0.455  0.3709  0.0470  0.5943
 4760TIP3    H135915   4.908   4.425   0.385  1.0735 -0.9854  1.1034
 4760TIP3    H235916   4.788   4.494   0.446  0.0074 -0.3874 -1.5683
 4761TIP3   OH235917   0.145   0.752   0.457 -0.0444 -0.4549 -0.1081
 4761TIP3    H135918   0.133   0.740   0.551 -0.5763 -1.4991 -0.2922
 4761TIP3    H235919   0.063   0.723   0.418  0.6727 -1.3960 -0.9868
 4762TIP3   OH235920   0.818   5.639   2.380 -0.1258  0.2852  0.2439
 4762TIP3    H135921   0.862   5.722   2.359  0.4735 -0.6280 -2.5538
 4762TIP3    H235922   0.859   5.575   2.323 -2.5752 -1.3781  0.1840
 4763TIP3   OH235923   7.072   0.332   1.548  0.0627  0.0603 -0.0997
 4763TIP3    H135924   7.050   0.398   1.482 -1.5442  0.5942  0.9038
 4763TIP3    H235925   7.036   0.251   1.513  1.8792 -0.3049 -1.2484
 4764TIP3   OH235926   5.337   6.772   7.544  0.3936  0.9174  0.3229
 4764TIP3    H135927   5.412   6.745   7.599 -0.4274 -0.2135  0.9351
 4764TIP3    H235928   5.274   6.700   7.553 -0.1107  1.0900 -1.4767
 4765TIP3   OH235929   4.090   5.879   1.804 -0.1605  0.0530  0.7413
 4765TIP3    H135930   4.037   5.809   1.765  1.5221 -0.8264 -0.0425
 4765TIP3    H235931   4.148   5.908   1.734 -0.9948  2.4831  0.9504
 4766TIP3   OH235932   0.479   7.064   0.400 -0.3041  0.1046 -0.4568
 4766TIP3    H135933   0.522   7.147   0.383 -0.9060  0.6930  0.7833
 4766TIP3    H235934   0.387   7.079   0.378 -0.5063 -0.0635  0.2224
 4767TIP3   OH235935   6.146   5.208   6.650  0.6842  0.3930  0.4403
 4767TIP3    H135936   6.059   5.236   6.678  0.2941  0.7122 -0.9949
 4767TIP3    H235937   6.162   5.126   6.697 -0.1495  0.6304  1.1511
 4768TIP3   OH235938   3.504   7.026   2.387 -0.4088  0.2046  0.2584
 4768TIP3    H135939   3.522   7.065   2.473  1.0939 -1.8969  0.9799
 4768TIP3    H235940   3.587   6.985   2.361 -1.4774 -1.2130 -1.0998
 4769TIP3   OH235941   1.396   3.975   0.979 -0.5110  0.5554 -0.2555
 4769TIP3    H135942   1.348   4.057   0.966 -1.4626  0.1742  0.6718
 4769TIP3    H235943   1.488   4.001   0.977 -0.7984  1.8405  0.9636
 4770TIP3   OH235944   3.036   5.259   2.056  0.2557  0.4423 -0.5272
 4770TIP3    H135945   3.010   5.224   2.142  2.1573  0.0700 -0.0448
 4770TIP3    H235946   2.957   5.298   2.021 -1.1304 -1.3337  0.4382
 4771TIP3   OH235947   4.525   6.462   7.166 -0.3534  0.2233 -0.2308
 4771TIP3    H135948   4.433   6.488   7.161 -0.4245 -0.2292 -1.6475
 4771TIP3    H235949   4.565   6.499   7.088  0.4564 -0.4104 -0.1292
 4772TIP3   OH235950   1.980   5.782   0.662 -0.4802 -0.6586 -0.5007
 4772TIP3    H135951   2.025   5.700   0.644 -1.9786 -1.7208  0.3627
 4772TIP3    H235952   1.927   5.798   0.584  1.0568  0.4098 -1.3714
 4773TIP3   OH235953   1.895   5.409   1.130 -0.0833 -0.2451  0.0204
 4773TIP3    H135954   1.964   5.343   1.126  1.3784  1.1972  0.1627
 4773TIP3    H235955   1.816   5.361   1.152  0.8680 -1.9701 -0.1840
 4774TIP3   OH235956   5.638   3.113   1.880  0.2612  0.2304 -0.2072
 4774TIP3    H135957   5.608   3.178   1.945  1.6359 -0.1627  0.8625
 4774TIP3    H235958   5.651   3.033   1.931 -0.5646 -0.6753 -1.3567
 4775TIP3   OH235959   6.176   7.005   6.665 -0.1913  0.4874 -0.0515
 4775TIP3    H135960   6.218   7.063   6.602  1.3409  1.6405  1.9246
 4775TIP3    H235961   6.084   7.004   6.639 -0.0449  2.8349 -0.8885
 4776TIP3   OH235962   0.425   0.374   0.943  0.3752  0.3477  0.2851
 4776TIP3    H135963   0.351   0.426   0.913  1.0790  0.7309 -0.8519
 4776TIP3    H235964   0.498   0.436   0.945  0.6439  0.0273  1.5894
 4777TIP3   OH235965   5.255   2.577   1.783  0.0198 -0.0969 -0.1266
 4777TIP3    H135966   5.237   2.652   1.727 -0.9730 -1.3716 -1.5882
 4777TIP3    H235967   5.345   2.590   1.812 -0.3587  2.0088  0.2726
 4778TIP3   OH235968   3.740   1.770   7.483  0.3570  0.8121 -0.4514
 4778TIP3    H135969   3.799   1.770   7.407 -0.7746  0.9371 -1.3680
 4778TIP3    H235970   3.724   1.863   7.500  2.1292  0.8731  1.2178
 4779TIP3   OH235971   0.893   1.736   0.985 -0.7522 -0.6449  0.4441
 4779TIP3    H135972   0.979   1.705   1.014 -0.4224 -0.7541 -0.6134
 4779TIP3    H235973   0.904   1.753   0.891 -2.6639 -3.5208 -0.4309
 4780TIP3   OH235974   2.676   2.119   6.694 -0.4096  0.3731  0.2319
 4780TIP3    H135975   2.690   2.024   6.701  1.7872  0.6740  0.8712
 4780TIP3    H235976   2.599   2.136   6.748 -0.9053 -1.0639  0.0101
 4781TIP3   OH235977   1.136   4.426   1.601  0.9269 -0.4245 -0.3398
 4781TIP3    H135978   1.075   4.419   1.528  1.9978  1.2250 -1.4677
 4781TIP3    H235979   1.195   4.497   1.576  0.8688  0.7615  2.4858
 4782TIP3   OH235980   6.397   5.061   0.801  0.1012 -0.0115  0.8006
 4782TIP3    H135981   6.475   5.056   0.746 -0.0816 -1.1626  0.6360
 4782TIP3    H235982   6.429   5.094   0.885  0.8410 -0.8911  0.8741
 4783TIP3   OH235983   6.591   5.144   0.969 -0.4635 -0.4970 -0.3456
 4783TIP3    H135984   6.662   5.151   1.033  0.4412  1.1958 -1.4419
 4783TIP3    H235985   6.521   5.197   1.006  0.0665  0.4957 -0.7194
 4784TIP3   OH235986   3.961   4.928   7.637 -0.2224 -0.0138  0.5433
 4784TIP3    H135987   3.956   4.873   7.716  0.5983 -0.5035  0.2627
 4784TIP3    H235988   3.925   4.873   7.567 -0.6890  0.3213  0.5095
 4785TIP3   OH235989   1.229   5.091   7.855 -0.4612 -0.4206 -0.8750
 4785TIP3    H135990   1.181   5.023   7.903 -1.7287 -0.5609 -2.2687
 4785TIP3    H235991   1.235   5.164   7.916 -1.6561 -0.7538 -0.3236
 4786TIP3   OH235992   6.844   5.999   7.214  0.2347 -0.8021  0.1676
 4786TIP3    H135993   6.773   5.998   7.149  0.1538 -2.4845  0.2421
 4786TIP3    H235994   6.803   5.965   7.294  0.4491  0.8172  0.9948
 4787TIP3   OH235995   1.588   2.127   6.802  0.5944  0.6918  0.0823
 4787TIP3    H135996   1.674   2.138   6.843  1.5838  0.4216 -1.8047
 4787TIP3    H235997   1.560   2.039   6.829  1.3489  0.4063 -0.0277
 4788TIP3   OH235998   4.179   3.041   2.343  0.2078 -0.0929 -0.2983
 4788TIP3    H135999   4.261   2.992   2.343  0.6279  0.5955 -0.4092
 4788TIP3    H236000   4.175   3.083   2.429 -0.5842 -1.0154  0.1352
 4789TIP3   OH236001   4.134   2.661   0.109  0.1450  0.5493  0.2656
 4789TIP3    H136002   4.208   2.602   0.120 -0.2524  0.0336  0.1742
 4789TIP3    H236003   4.172   2.749   0.117  0.4305  0.2877  2.6111
 4790TIP3   OH236004   0.436   0.816   1.532 -0.3530 -0.1134 -0.0205
 4790TIP3    H136005   0.473   0.789   1.616 -1.3643  1.7521  1.0929
 4790TIP3    H236006   0.506   0.868   1.491 -0.5676  0.6733  0.5968
 4791TIP3   OH236007   6.100   0.517   6.913  0.0685 -0.3345  0.1934
 4791TIP3    H136008   6.008   0.534   6.936 -0.1119 -1.6154  0.4840
 4791TIP3    H236009   6.110   0.422   6.922  1.6982 -0.1093  1.2349
 4792TIP3   OH236010   1.420   0.549   0.641 -0.2071  0.1524 -0.2871
 4792TIP3    H136011   1.345   0.491   0.629 -0.3280  0.1750  0.3472
 4792TIP3    H236012   1.479   0.526   0.569  0.7138 -2.2775  1.1197
 4793TIP3   OH236013   2.438   6.586   0.251 -0.5455  0.0404  0.2874
 4793TIP3    H136014   2.504   6.655   0.241 -1.9220  1.3005 -0.3418
 4793TIP3    H236015   2.357   6.624   0.218 -1.0066 -2.4783 -1.8747
 4794TIP3   OH236016   4.699   6.365   1.980 -0.4557  0.2650  0.0061
 4794TIP3    H136017   4.654   6.443   1.946 -1.0518  0.3002  0.8382
 4794TIP3    H236018   4.707   6.381   2.074  0.6579 -0.0748 -0.0123
 4795TIP3   OH236019   6.319   5.990   7.599 -0.1182 -0.2875  0.1650
 4795TIP3    H136020   6.341   6.030   7.515  0.4041 -1.1970 -0.1528
 4795TIP3    H236021   6.229   6.016   7.615 -0.5590 -0.9067 -1.1748
 4796TIP3   OH236022   0.147   1.163   0.928 -0.0969 -0.2172  0.2185
 4796TIP3    H136023   0.126   1.211   1.008  0.4327 -0.8446  0.7488
 4796TIP3    H236024   0.152   1.072   0.956  0.7102 -0.3750 -0.3988
 4797TIP3   OH236025   0.174   6.873   0.581 -0.2442 -0.1961 -0.3797
 4797TIP3    H136026   0.135   6.805   0.527  1.1026 -0.2975 -1.2725
 4797TIP3    H236027   0.267   6.849   0.587  0.6590  2.3831 -2.1460
 4798TIP3   OH236028   0.025   5.827   2.046  0.9859  0.4667 -0.4148
 4798TIP3    H136029   0.103   5.772   2.052  0.7868  0.0126 -1.6978
 4798TIP3    H236030   0.049   5.898   1.988 -0.4123 -1.3494 -3.4627
 4799TIP3   OH236031   1.498   0.820   0.616  0.6140  0.2245  0.2775
 4799TIP3    H136032   1.481   0.726   0.604 -0.2199  0.4585 -0.3951
 4799TIP3    H236033   1.429   0.850   0.675  0.0601  0.6891 -0.5907
 4800TIP3   OH236034   5.986   6.089   6.859 -0.1471 -0.0608  0.4375
 4800TIP3    H136035   6.009   6.086   6.952 -0.3286 -0.2108  0.4795
 4800TIP3    H236036   5.944   6.004   6.843  2.4721 -1.2773 -0.4748
 4801TIP3   OH236037   2.025   2.060   0.490  0.4652  0.2745  0.2679
 4801TIP3    H136038   2.097   2.079   0.429  0.5478 -0.0135  0.2761
 4801TIP3    H236039   2.069   2.036   0.571  0.3684  2.1524  0.9344
 4802TIP3   OH236040   1.311   0.836   7.414  0.4066 -0.1773 -1.1484
 4802TIP3    H136041   1.406   0.847   7.420  0.4188 -0.3359 -1.0754
 4802TIP3    H236042   1.285   0.895   7.343  0.2519  1.6944  0.3835
 4803TIP3   OH236043   3.103   2.574   6.594 -0.3103 -0.0552  0.4460
 4803TIP3    H136044   3.064   2.526   6.666 -1.2708  0.0620  0.0132
 4803TIP3    H236045   3.029   2.606   6.543  0.3181  1.4589  0.4421
 4804TIP3   OH236046   5.268   6.074   2.006  0.3835  0.0490  0.5454
 4804TIP3    H136047   5.285   6.023   2.086 -0.1434  0.4925  0.9528
 4804TIP3    H236048   5.218   6.015   1.950 -2.5804  0.8599  2.0689
 4805TIP3   OH236049   3.532   5.474   7.115  0.0612  0.6637 -0.0652
 4805TIP3    H136050   3.610   5.497   7.166  0.0283 -0.2105  0.4142
 4805TIP3    H236051   3.546   5.382   7.092 -0.2675  0.8500 -1.0288
 4806TIP3   OH236052   0.153   3.973   1.013  0.0192  0.2108  0.2322
 4806TIP3    H136053   0.185   4.011   1.096 -1.7024  0.5701  0.7638
 4806TIP3    H236054   0.190   4.030   0.946 -0.3537  1.2546  0.8841
 4807TIP3   OH236055   1.590   0.873   2.061  0.4821 -0.2434 -0.4445
 4807TIP3    H136056   1.660   0.851   2.123  0.5915 -0.5684 -0.6801
 4807TIP3    H236057   1.537   0.793   2.057  0.7422 -0.3878 -1.1239
 4808TIP3   OH236058   6.232   6.425   2.021  0.0216 -0.7618  0.4489
 4808TIP3    H136059   6.216   6.448   1.929 -1.8909 -1.0015  0.6867
 4808TIP3    H236060   6.196   6.337   2.031 -1.1450 -0.1685  1.7635
 4809TIP3   OH236061   2.696   5.512   7.010 -0.0988  0.2890 -0.7229
 4809TIP3    H136062   2.762   5.564   6.964  0.2823  0.1675 -0.3180
 4809TIP3    H236063   2.687   5.433   6.957  1.1472 -0.3525 -0.0240
 4810TIP3   OH236064   1.238   2.321   0.444 -0.5058  0.2146 -0.4551
 4810TIP3    H136065   1.250   2.408   0.405 -0.5394  0.2380 -0.4132
 4810TIP3    H236066   1.287   2.326   0.527 -0.5886  0.2251 -0.4067
 4811TIP3   OH236067   2.582   1.995   0.481 -0.3600  0.0290 -0.0632
 4811TIP3    H136068   2.510   2.042   0.523  0.6508  0.2149  1.5232
 4811TIP3    H236069   2.539   1.936   0.419 -1.7534  1.8548 -0.9420
 4812TIP3   OH236070   2.376   1.940   0.290 -0.5644 -0.0218 -0.2486
 4812TIP3    H136071   2.313   1.870   0.269 -0.2610 -1.4870  3.0844
 4812TIP3    H236072   2.323   2.011   0.325 -0.7765  1.1181 -2.7080
 4813TIP3   OH236073   3.692   4.303   1.007  0.1333  0.6316 -0.1248
 4813TIP3    H136074   3.708   4.397   0.997 -1.3265  1.2844  2.7129
 4813TIP3    H236075   3.748   4.276   1.080  0.2987 -0.6777 -0.7009
 4814TIP3   OH236076   0.273   3.591   0.667 -0.0302 -0.2531  1.1597
 4814TIP3    H136077   0.236   3.607   0.580 -3.0193  0.2611  2.4231
 4814TIP3    H236078   0.318   3.507   0.659 -1.4431 -0.9126 -0.5486
 4815TIP3   OH236079   0.116   6.508   7.959 -0.5796  0.0732 -0.0775
 4815TIP3    H136080   0.167   6.464   8.026 -0.1490 -0.9301 -1.0301
 4815TIP3    H236081   0.060   6.439   7.922 -0.2173  0.3984 -1.2944
 4816TIP3   OH236082   0.939   5.458   2.186 -0.3819  0.6179 -0.4423
 4816TIP3    H136083   1.019   5.510   2.174  0.6950 -0.6212  1.0036
 4816TIP3    H236084   0.949   5.384   2.125 -0.7292  0.7624 -0.6827
 4817TIP3   OH236085   5.189   6.808   0.611 -0.2539 -0.3995  0.0113
 4817TIP3    H136086   5.236   6.796   0.694 -1.4943 -1.9867  0.5300
 4817TIP3    H236087   5.225   6.741   0.553 -1.8800 -1.7419  0.4627
 4818TIP3   OH236088   1.625   1.107   8.021  0.5009  0.5927  0.3953
 4818TIP3    H136089   1.556   1.125   8.085  1.1052 -1.1497  1.6166
 4818TIP3    H236090   1.660   1.194   7.998 -0.0851  1.3045  2.0538
 4819TIP3   OH236091   5.907   4.200   3.243 -0.6679  0.2976 -0.3822
 4819TIP3    H136092   5.954   4.283   3.252  0.0220 -0.1266  0.0032
 4819TIP3    H236093   5.822   4.216   3.285 -0.3580  0.6693  0.1193
 4820TIP3   OH236094   4.489   6.110   2.499 -0.9203  0.2924  0.1108
 4820TIP3    H136095   4.438   6.126   2.578  1.8841 -0.3940  2.2211
 4820TIP3    H236096   4.517   6.198   2.471  0.5070  0.3975  1.7083
 4821TIP3   OH236097   0.989   0.661   0.079  0.3454  0.6183  0.0229
 4821TIP3    H136098   0.950   0.575   0.101 -0.3493  0.8218 -0.3788
 4821TIP3    H236099   1.079   0.641   0.054  1.0517  0.2975  2.5109
 4822TIP3   OH236100   1.129   1.429   1.135 -0.2054 -0.5733  0.1436
 4822TIP3    H136101   1.118   1.384   1.051 -3.6589 -0.0949  0.2137
 4822TIP3    H236102   1.099   1.366   1.201 -0.6950  0.2033  0.6790
 4823TIP3   OH236103   2.604   3.962   1.355  0.2630 -0.1579  0.2835
 4823TIP3    H136104   2.648   4.017   1.420 -0.8961 -0.4182  1.3252
 4823TIP3    H236105   2.620   3.872   1.384 -1.5029 -0.2445  1.0968
 4824TIP3   OH236106   6.973   2.807   1.559  0.2489  0.3456  0.8973
 4824TIP3    H136107   7.056   2.831   1.602  0.9197 -2.4928  1.3877
 4824TIP3    H236108   6.927   2.754   1.624 -0.5962 -0.6052 -0.4292
 4825TIP3   OH236109   6.922   6.283   7.557 -0.6132 -0.1300  0.7426
 4825TIP3    H136110   6.937   6.263   7.464 -0.8205 -1.4562  0.9675
 4825TIP3    H236111   6.927   6.378   7.562 -0.0261 -0.0662 -0.5318
 4826TIP3   OH236112   0.024   1.511   7.756  0.8320  0.4350 -0.3428
 4826TIP3    H136113   0.042   1.534   7.665  0.5073  1.4488 -0.1693
 4826TIP3    H236114  -0.058   1.463   7.754 -0.0351  1.8626 -0.4433
 4827TIP3   OH236115   4.112   0.223   6.702 -0.1719  0.0914  0.0435
 4827TIP3    H136116   4.127   0.308   6.660  1.8272 -0.2485 -0.0159
 4827TIP3    H236117   4.188   0.170   6.678 -0.4219 -1.0872  1.6527
 4828TIP3   OH236118   6.938   3.728   1.329 -0.6160  0.7486 -0.1648
 4828TIP3    H136119   6.934   3.822   1.311 -0.6297  0.6894 -0.4748
 4828TIP3    H236120   7.019   3.699   1.287 -1.6848  0.2236 -1.9442
 4829TIP3   OH236121   4.899   2.051   6.928 -0.0032  0.2616  0.1771
 4829TIP3    H136122   4.969   2.084   6.983 -0.4839  0.6207  0.5867
 4829TIP3    H236123   4.895   1.957   6.946 -1.2071  0.6114  1.9960
 4830TIP3   OH236124   6.965   6.249   0.169 -0.0457 -0.0818 -0.5327
 4830TIP3    H136125   7.060   6.246   0.181  0.0115  0.0324 -0.9570
 4830TIP3    H236126   6.937   6.325   0.220 -0.0672 -0.8357  0.6092
 4831TIP3   OH236127   4.479   3.927   7.521 -0.3330 -0.3905  0.2918
 4831TIP3    H136128   4.556   3.889   7.479  0.6253  0.1602  1.5057
 4831TIP3    H236129   4.508   3.949   7.609 -1.2487  1.7932  0.1176
 4832TIP3   OH236130   2.061   0.248   7.077  0.0909 -0.7314 -0.2134
 4832TIP3    H136131   1.999   0.309   7.117 -0.2896 -0.5152 -1.0934
 4832TIP3    H236132   2.083   0.186   7.147 -1.6995 -1.2642 -0.0663
 4833TIP3   OH236133   4.795   1.447   7.517 -0.5530 -0.2839  0.0395
 4833TIP3    H136134   4.733   1.376   7.500 -1.7655  0.7694 -0.1100
 4833TIP3    H236135   4.855   1.412   7.582 -1.4364 -1.2762  0.3455
 4834TIP3   OH236136   6.397   6.249   2.413 -0.2693  0.2248  0.3272
 4834TIP3    H136137   6.463   6.317   2.421 -0.0752 -0.1093  2.2375
 4834TIP3    H236138   6.444   6.167   2.426 -0.9710 -0.0262  1.5818
 4835TIP3   OH236139   1.986   3.046   7.568  0.4132  0.1836 -0.7449
 4835TIP3    H136140   1.930   2.985   7.521  0.5852  0.4444 -1.2894
 4835TIP3    H236141   2.027   2.993   7.637 -1.7352  0.3177  0.7274
 4836TIP3   OH236142   1.014   0.172   6.429  0.5540 -0.0900 -0.8934
 4836TIP3    H136143   1.014   0.248   6.488  0.5278 -0.0638 -0.9266
 4836TIP3    H236144   0.967   0.203   6.351  0.7272 -0.0732 -0.9925
 4837TIP3   OH236145   1.712   2.107   7.883 -0.6252 -0.5863  0.4140
 4837TIP3    H136146   1.727   2.179   7.944  1.4182 -1.0702  0.5572
 4837TIP3    H236147   1.715   2.149   7.796 -1.3406 -0.2395  0.5453
 4838TIP3   OH236148   5.260   6.935   0.168  0.2674 -0.1220  0.4001
 4838TIP3    H136149   5.349   6.899   0.171  0.1998 -0.7889 -2.3304
 4838TIP3    H236150   5.249   6.965   0.078 -2.4031 -0.3912  0.5340
 4839TIP3   OH236151   5.845   5.568   7.687  0.1834  0.3691 -0.7389
 4839TIP3    H136152   5.795   5.638   7.645  0.4197  1.6084  0.9347
 4839TIP3    H236153   5.804   5.558   7.773  0.0910 -1.6592 -0.9600
 4840TIP3   OH236154   0.837   1.262   0.149 -0.0410 -0.3115 -0.2130
 4840TIP3    H136155   0.883   1.341   0.123 -0.3465  0.2376  0.8876
 4840TIP3    H236156   0.851   1.201   0.075  1.2163  0.3264 -0.5314
 4841TIP3   OH236157   4.284   5.402   7.768  0.6689  0.1495 -0.1680
 4841TIP3    H136158   4.252   5.401   7.678  0.2267  0.7479 -0.0178
 4841TIP3    H236159   4.274   5.492   7.796  1.8445  0.2096  0.1156
 4842TIP3   OH236160   0.093   4.431   8.139  0.3034  0.0665  0.5985
 4842TIP3    H136161   0.129   4.386   8.063  0.7934 -1.7383  1.8248
 4842TIP3    H236162   0.083   4.522   8.111 -1.2569 -0.8397 -2.2012
 4843TIP3   OH236163   5.691   5.917   1.100 -0.0018 -0.4323  0.3302
 4843TIP3    H136164   5.695   5.856   1.027 -0.1864 -0.2658  0.1801
 4843TIP3    H236165   5.716   6.001   1.062 -2.5265  0.1921 -0.1204
 4844TIP3   OH236166   3.191   0.563   1.556 -0.9934 -0.5148  0.1008
 4844TIP3    H136167   3.283   0.571   1.531 -1.6451  1.2442 -2.0010
 4844TIP3    H236168   3.188   0.484   1.611  1.4858 -1.5358 -1.0702
 4845TIP3   OH236169   1.411   5.610   0.987  0.1920 -0.6198  0.0139
 4845TIP3    H136170   1.357   5.672   0.938  2.6690  1.6389 -0.0406
 4845TIP3    H236171   1.372   5.608   1.074  1.1791  2.7622  0.6727
 4846TIP3   OH236172   4.556   4.619   1.964 -0.0921 -0.0359 -0.4789
 4846TIP3    H136173   4.528   4.648   2.051 -1.7333 -0.5406 -0.7977
 4846TIP3    H236174   4.616   4.547   1.981 -2.4937 -2.0139  0.3075
 4847TIP3   OH236175   1.064   5.780   7.747  0.2638 -0.2853 -0.1699
 4847TIP3    H136176   1.132   5.808   7.808 -0.1549  1.4149 -0.4144
 4847TIP3    H236177   1.056   5.686   7.760  0.0307  0.0478  2.5638
 4848TIP3   OH236178   2.433   4.293   7.793  0.3018 -0.1894 -0.5144
 4848TIP3    H136179   2.514   4.291   7.844  1.8793 -1.8442 -2.8631
 4848TIP3    H236180   2.364   4.302   7.858  2.3556  4.8405  1.4777
 4849TIP3   OH236181   0.287   1.589   1.517 -0.3737 -0.8262 -0.2552
 4849TIP3    H136182   0.261   1.681   1.518 -1.3127 -1.0880 -0.1408
 4849TIP3    H236183   0.256   1.555   1.433  1.1514 -0.7276 -0.9013
 4850TIP3   OH236184   1.757   2.178   8.193  0.4954 -0.0028 -0.5423
 4850TIP3    H136185   1.831   2.156   8.251  0.6877  1.7343 -0.0802
 4850TIP3    H236186   1.684   2.190   8.253  0.3621  0.4418 -0.7965
 4851TIP3   OH236187   1.774   0.206   5.388 -0.3239  0.3395  0.8083
 4851TIP3    H136188   1.762   0.249   5.303 -0.6039 -1.4136 -0.0840
 4851TIP3    H236189   1.685   0.185   5.417 -0.2610  1.3288  1.7782
 4852TIP3   OH236190   4.880   3.821   2.022  0.8210 -0.0217  0.6785
 4852TIP3    H136191   4.852   3.886   2.086  0.0575  0.8845 -0.5339
 4852TIP3    H236192   4.940   3.869   1.964  1.6897 -0.8879  0.8338
 4853TIP3   OH236193   2.112   1.391   6.917 -0.3396 -0.2647 -0.5385
 4853TIP3    H136194   2.111   1.486   6.913  2.0695 -0.1321  0.4225
 4853TIP3    H236195   2.122   1.363   6.826  1.5121  0.5523 -0.6344
 4854TIP3   OH236196   2.798   2.165   0.424 -0.1498  0.1487  0.3919
 4854TIP3    H136197   2.879   2.125   0.455 -0.5990 -0.0981  1.2924
 4854TIP3    H236198   2.733   2.094   0.429 -0.9271  0.9194  1.8721
 4855TIP3   OH236199   0.630   4.551   7.416 -0.1786  0.3889 -0.1994
 4855TIP3    H136200   0.699   4.520   7.476 -0.3008  2.7671  1.3202
 4855TIP3    H236201   0.659   4.639   7.391 -2.8206  1.6388  0.8266
 4856TIP3   OH236202   3.170   6.695   0.806  0.0381  0.3743 -0.3436
 4856TIP3    H136203   3.245   6.702   0.746 -1.6070  0.1620 -2.5290
 4856TIP3    H236204   3.127   6.781   0.800 -1.0663 -0.1899 -0.7923
 4857TIP3   OH236205   6.832   0.711   2.294  0.3414  0.1814 -0.1814
 4857TIP3    H136206   6.856   0.659   2.370 -2.3296 -0.6679  0.2003
 4857TIP3    H236207   6.812   0.646   2.226  1.6939  0.9023 -1.3137
 4858TIP3   OH236208   3.484   5.543   2.917  0.4898 -0.2074  0.0991
 4858TIP3    H136209   3.538   5.477   2.961 -0.7508 -1.3117  0.0180
 4858TIP3    H236210   3.500   5.529   2.824  0.8764  0.1780  0.1066
 4859TIP3   OH236211   6.752   4.863   2.271 -0.2192 -0.1155 -0.6731
 4859TIP3    H136212   6.774   4.829   2.358 -0.0082 -1.4585 -1.2255
 4859TIP3    H236213   6.690   4.934   2.288  1.2845  0.9527  0.6737
 4860TIP3   OH236214   1.127   6.556   7.074  0.2997  0.1444 -0.7103
 4860TIP3    H136215   1.185   6.583   7.144 -2.2243  1.1813  1.1347
 4860TIP3    H236216   1.159   6.469   7.048 -0.1155 -1.5020  3.5598
 4861TIP3   OH236217   2.557   4.850   7.984  0.6410 -0.0684 -0.1587
 4861TIP3    H136218   2.489   4.901   8.029  0.8842 -0.5619  0.8101
 4861TIP3    H236219   2.637   4.902   7.993  0.4990  0.2802 -0.8663
 4862TIP3   OH236220   0.447   6.487   0.272 -0.0492 -0.0046 -0.2311
 4862TIP3    H136221   0.380   6.497   0.340  2.0759  1.8043  1.7640
 4862TIP3    H236222   0.447   6.394   0.252 -1.6251 -0.3948  1.3009
 4863TIP3   OH236223   4.072   3.963   2.239  0.3346 -0.6436 -0.3771
 4863TIP3    H136224   4.078   4.010   2.156  0.7212  0.9881  0.5247
 4863TIP3    H236225   3.981   3.937   2.245  0.1708 -0.2546 -1.0501
 4864TIP3   OH236226   1.975   2.659   0.374  0.1877  0.0593 -0.0545
 4864TIP3    H136227   2.070   2.667   0.384  0.0510  0.3479  1.2092
 4864TIP3    H236228   1.962   2.582   0.319  1.1709  0.5462 -1.0002
 4865TIP3   OH236229   2.827   0.610   7.486 -0.0142  0.2669  0.0772
 4865TIP3    H136230   2.815   0.584   7.394 -0.7808 -0.8515  0.4813
 4865TIP3    H236231   2.914   0.650   7.487  0.4766 -0.7081 -0.9284
 4866TIP3   OH236232   0.748   3.091   1.338  0.1576 -0.0595 -0.6082
 4866TIP3    H136233   0.690   3.016   1.321 -1.1225  0.8834 -0.5843
 4866TIP3    H236234   0.830   3.069   1.293  0.2460 -1.9964  0.4011
 4867TIP3   OH236235   2.350   2.817   0.578 -0.0635  0.1076  0.6555
 4867TIP3    H136236   2.352   2.850   0.668  1.2657  0.8257  0.3958
 4867TIP3    H236237   2.313   2.729   0.585 -0.2965  0.2888  1.8567
 4868TIP3   OH236238   0.153   0.476   0.335  0.2174  0.2136  1.1305
 4868TIP3    H136239   0.164   0.567   0.361 -0.3970  0.6710 -0.1527
 4868TIP3    H236240   0.060   0.466   0.319 -0.0282 -1.1799  3.0695
 4869TIP3   OH236241   3.719   2.062   7.988  0.9446  0.2305 -0.6829
 4869TIP3    H136242   3.717   2.146   7.941  2.3094  0.1724 -0.8615
 4869TIP3    H236243   3.703   2.087   8.079  2.9100  0.9066 -0.4818
 4870TIP3   OH236244   5.170   1.291   7.717 -0.1133 -0.2313  0.3972
 4870TIP3    H136245   5.135   1.377   7.692  0.4404 -0.0643  0.1824
 4870TIP3    H236246   5.259   1.310   7.747  0.1979 -0.8004 -0.1561
 4871TIP3   OH236247   1.398   1.505   8.041 -0.0531  0.0580  0.1303
 4871TIP3    H136248   1.335   1.576   8.041 -0.4337 -0.2534  1.4829
 4871TIP3    H236249   1.400   1.474   8.132 -1.3509 -2.9297 -0.7287
 4872TIP3   OH236250   4.810   5.369   1.881  0.5417  0.1553 -0.4011
 4872TIP3    H136251   4.846   5.321   1.956  0.8173 -0.7723 -1.1085
 4872TIP3    H236252   4.886   5.386   1.825  0.1595 -0.2760 -1.0689
 4873TIP3   OH236253   3.413   0.105   0.692  0.2881 -0.5705  0.5258
 4873TIP3    H136254   3.452   0.078   0.608 -0.6923  2.3058 -0.9668
 4873TIP3    H236255   3.468   0.177   0.722  0.0618 -0.9501  1.9242
 4874TIP3   OH236256   2.252   2.167   0.389 -0.8958  0.7482  0.2989
 4874TIP3    H136257   2.272   2.242   0.334 -2.0520  0.8669  0.0031
 4874TIP3    H236258   2.311   2.175   0.464  1.8019 -0.2326 -1.5675
 4875TIP3   OH236259   4.779   4.086   2.134 -0.4836  0.3445  0.7836
 4875TIP3    H136260   4.705   4.082   2.195 -1.8350  1.3397 -0.7072
 4875TIP3    H236261   4.855   4.104   2.189 -1.5039  0.2657  2.2634
 4876TIP3   OH236262   0.449   7.009   0.861 -0.0334 -0.8477 -0.5091
 4876TIP3    H136263   0.395   7.069   0.911 -0.2396 -2.4686  1.3263
 4876TIP3    H236264   0.506   7.065   0.808  1.0388  1.0429  2.4405
 4877TIP3   OH236265   0.013   5.862   0.534  0.3999  0.0972 -0.0986
 4877TIP3    H136266   0.017   5.788   0.595  0.8441  0.6299  0.5303
 4877TIP3    H236267  -0.049   5.834   0.467  0.8944 -1.0240 -0.1131
 4878TIP3   OH236268   6.985   3.334   0.494 -0.6932  0.0686  1.0078
 4878TIP3    H136269   6.958   3.297   0.410  0.5661 -1.4503  1.2140
 4878TIP3    H236270   6.933   3.414   0.503 -1.6405 -0.2981 -0.6976
 4879TIP3   OH236271   2.007   1.425   0.495 -0.2470  0.3180 -0.1388
 4879TIP3    H136272   2.101   1.429   0.476 -0.2857 -1.0388 -0.7179
 4879TIP3    H236273   2.000   1.366   0.570 -0.6230  0.6503  0.0915
 4880TIP3   OH236274   3.058   5.837   1.186  0.4164  0.2811 -0.0763
 4880TIP3    H136275   3.034   5.895   1.258 -0.3886  0.8857 -0.8136
 4880TIP3    H236276   3.103   5.894   1.123  3.6317 -0.7356  1.0927
 4881TIP3   OH236277   5.006   2.244   7.956  0.1906  0.0722 -0.2744
 4881TIP3    H136278   4.937   2.282   7.902  1.8600  2.6715 -0.7780
 4881TIP3    H236279   5.053   2.185   7.898  0.4117  0.8945 -0.9574
 4882TIP3   OH236280   4.330   4.416   1.609 -0.1479  0.4623 -0.2481
 4882TIP3    H136281   4.416   4.400   1.647 -0.0703  1.0071 -0.1906
 4882TIP3    H236282   4.329   4.363   1.529 -0.4292 -0.9447  0.6480
 4883TIP3   OH236283   1.718   4.191   7.676  0.2109  0.0339 -0.5352
 4883TIP3    H136284   1.632   4.187   7.633  1.1371 -0.3318 -2.4230
 4883TIP3    H236285   1.740   4.100   7.693  0.6861  0.0547 -1.0218
 4884TIP3   OH236286   6.208   0.940   8.217 -0.1679  0.1317  0.0856
 4884TIP3    H136287   6.207   0.890   8.135 -1.8200 -1.1835  0.8400
 4884TIP3    H236288   6.196   1.031   8.191 -0.2611 -0.2217 -1.1553
 4885TIP3   OH236289   4.613   3.032   7.749  0.5425 -0.1743 -0.0124
 4885TIP3    H136290   4.606   2.942   7.719  1.0224 -0.4249  0.5867
 4885TIP3    H236291   4.620   3.025   7.845  2.0685  0.3881 -0.0448
 4886TIP3   OH236292   5.902   1.285   7.072 -0.2546  0.1083  0.5001
 4886TIP3    H136293   5.834   1.252   7.014 -0.2982  0.2844  0.4513
 4886TIP3    H236294   5.866   1.367   7.106 -0.1521  0.0989  0.6312
 4887TIP3   OH236295   4.854   1.090   2.459  0.4291  0.4103 -0.6656
 4887TIP3    H136296   4.799   1.134   2.524  1.0178  0.3304 -0.1045
 4887TIP3    H236297   4.921   1.155   2.436  0.2060  0.4521 -1.2333
 4888TIP3   OH236298   1.368   6.487   6.313 -0.1513  0.5057  0.4318
 4888TIP3    H136299   1.459   6.465   6.295 -0.1629 -0.4599  1.4284
 4888TIP3    H236300   1.342   6.543   6.240  1.4570  1.4401  0.5313
 4889TIP3   OH236301   6.915   4.822   1.304  0.4337 -0.4833 -0.8713
 4889TIP3    H136302   6.992   4.871   1.332 -0.4864  1.3609 -1.3744
 4889TIP3    H236303   6.918   4.741   1.355  0.1500  1.5848  2.8140
 4890TIP3   OH236304   4.209   3.487   8.103 -0.0037  0.5204 -0.3328
 4890TIP3    H136305   4.169   3.565   8.066 -1.1746  1.3461  2.3978
 4890TIP3    H236306   4.303   3.501   8.094 -0.1960  0.4780 -3.1384
 4891TIP3   OH236307   1.799   3.213   2.358  0.2685  0.0668  0.1503
 4891TIP3    H136308   1.873   3.270   2.379 -0.3845  1.4422 -1.1122
 4891TIP3    H236309   1.835   3.124   2.365  2.0615  0.6973 -0.5037
 4892TIP3   OH236310   1.541   5.633   1.617  0.2685  0.3499 -0.2305
 4892TIP3    H136311   1.526   5.605   1.527  0.1566 -0.6929  0.0987
 4892TIP3    H236312   1.457   5.622   1.660  0.6686 -0.5499  0.3512
 4893TIP3   OH236313   3.519   4.636   7.344  0.3947 -0.0165 -0.2739
 4893TIP3    H136314   3.560   4.667   7.263  1.1587 -2.6035 -0.9987
 4893TIP3    H236315   3.426   4.631   7.323  0.0644  2.7608  0.2724
 4894TIP3   OH236316   6.322   4.451   2.005 -0.0016 -1.0818 -0.4903
 4894TIP3    H136317   6.253   4.507   1.970 -0.5131 -0.8125  0.8518
 4894TIP3    H236318   6.292   4.362   1.988 -0.5534 -0.9621 -0.1620
 4895TIP3   OH236319   5.675   5.829   7.541 -0.3379 -0.0775  0.6275
 4895TIP3    H136320   5.754   5.875   7.513  0.3802 -1.4139  0.3926
 4895TIP3    H236321   5.668   5.848   7.634  0.3361 -0.0484  0.6782
 4896TIP3   OH236322   2.703   4.720   1.016 -0.4724  0.2194 -0.2354
 4896TIP3    H136323   2.644   4.793   0.996 -2.2078 -0.7795  0.9369
 4896TIP3    H236324   2.660   4.644   0.977  0.5068 -0.4250 -0.0809
 4897TIP3   OH236325   1.452   1.151   0.774 -0.3685 -0.1976 -0.0034
 4897TIP3    H136326   1.526   1.155   0.712 -0.5457 -3.4899 -0.6024
 4897TIP3    H236327   1.432   1.243   0.793  1.2195  0.9161 -3.0093
 4898TIP3   OH236328   3.404   3.461   7.576  0.1189  0.0592 -0.2922
 4898TIP3    H136329   3.480   3.518   7.585  0.8853 -0.8238 -0.9933
 4898TIP3    H236330   3.439   3.379   7.541 -1.1154 -0.4627 -0.3637
 4899TIP3   OH236331   0.324   4.071   2.126 -0.6835  0.3125 -0.0425
 4899TIP3    H136332   0.322   4.092   2.219  1.4455  0.5065 -0.0127
 4899TIP3    H236333   0.306   3.977   2.123 -0.2702  0.2028  0.6145
 4900TIP3   OH236334   0.719   6.079   2.101 -0.0426 -0.0354 -0.2352
 4900TIP3    H136335   0.636   6.045   2.136  0.0367  1.8156  1.9506
 4900TIP3    H236336   0.695   6.158   2.054  0.4752  0.8382  0.9060
 4901TIP3   OH236337   2.370   3.688   0.616  0.3737  0.4805 -0.4351
 4901TIP3    H136338   2.435   3.655   0.553  0.8071  1.0591 -0.3026
 4901TIP3    H236339   2.287   3.650   0.587  1.0024 -1.6945  0.4067
 4902TIP3   OH236340   1.118   3.433   7.835 -0.6140 -0.3689 -0.1515
 4902TIP3    H136341   1.059   3.385   7.894 -0.4797 -0.4593 -0.0909
 4902TIP3    H236342   1.060   3.469   7.767 -0.7446 -0.4235 -0.0693
 4903TIP3   OH236343   1.986   4.933   2.213  0.2755  0.3417  0.1265
 4903TIP3    H136344   2.064   4.989   2.211 -0.2410  1.0797 -2.3127
 4903TIP3    H236345   1.944   4.946   2.128 -2.0286 -0.7691  1.0028
 4904TIP3   OH236346   1.693   1.815   2.669  0.2562  0.2024 -0.2948
 4904TIP3    H136347   1.763   1.768   2.714 -0.2098 -0.5720 -0.3627
 4904TIP3    H236348   1.688   1.775   2.582 -0.5941 -0.0966 -0.1227
 4905TIP3   OH236349   5.882   0.029   7.425 -0.2017 -0.2547 -0.0962
 4905TIP3    H136350   5.878   0.084   7.347 -0.5906  0.1321  0.1932
 4905TIP3    H236351   5.858  -0.059   7.395  3.0494 -0.9280 -1.1383
 4906TIP3   OH236352   1.146   6.660   0.391  0.0655  0.8674 -0.2781
 4906TIP3    H136353   1.158   6.620   0.477 -1.1766 -0.5127 -0.6907
 4906TIP3    H236354   1.187   6.598   0.330  1.4205  2.1034 -0.6499
 4907TIP3   OH236355   6.482   2.545   0.187 -0.4600 -0.3555 -0.5553
 4907TIP3    H136356   6.572   2.531   0.217 -0.6934  0.6891  0.7679
 4907TIP3    H236357   6.487   2.539   0.092  1.1178  0.2382 -0.5419
 4908TIP3   OH236358   1.357   4.826   0.768 -0.0231  0.1818 -0.4404
 4908TIP3    H136359   1.376   4.783   0.685  0.9832 -0.0964 -0.0786
 4908TIP3    H236360   1.410   4.906   0.766 -0.6786  0.6315 -0.4342
 4909TIP3   OH236361   1.709   3.266   8.091  0.1620  0.5114  0.2871
 4909TIP3    H136362   1.726   3.181   8.132  0.8765  1.4287  1.9814
 4909TIP3    H236363   1.634   3.250   8.034  0.2665 -1.2492  0.5721
 4910TIP3   OH236364   2.610   5.225   2.366 -0.2334 -0.6661 -0.4386
 4910TIP3    H136365   2.553   5.150   2.350  0.4601 -0.9502 -1.7572
 4910TIP3    H236366   2.683   5.213   2.305 -0.4969  1.4747 -1.2710
 4911TIP3   OH236367   2.919   5.376   2.782 -0.1445 -0.0044  0.3267
 4911TIP3    H136368   2.852   5.402   2.720 -0.0305 -0.9914 -0.2325
 4911TIP3    H236369   2.872   5.363   2.864 -0.5116  0.0179  0.1211
 4912TIP3   OH236370   0.912   1.202   8.080 -0.2831 -0.3814 -0.7775
 4912TIP3    H136371   0.843   1.216   8.015 -4.6352 -2.3318  2.8595
 4912TIP3    H236372   0.919   1.285   8.127 -0.8060 -0.4148 -0.6380
 4913TIP3   OH236373   7.027   1.804   0.419 -0.5136 -0.3369  0.4991
 4913TIP3    H136374   7.009   1.732   0.479 -1.2582  0.4459  1.2330
 4913TIP3    H236375   6.964   1.794   0.348 -0.0016 -0.9343  0.1143
 4914TIP3   OH236376   0.393   6.914   1.663  0.2495  0.1098 -0.2171
 4914TIP3    H136377   0.362   6.854   1.730 -1.1707 -0.4246 -1.2953
 4914TIP3    H236378   0.488   6.917   1.675  0.2107 -1.3584  0.6725
 4915TIP3   OH236379   1.756   1.220   1.405 -0.1118 -0.3257  0.0168
 4915TIP3    H136380   1.669   1.202   1.370 -1.2720  0.1156  2.4438
 4915TIP3    H236381   1.782   1.302   1.363 -1.3480  0.1052  0.0325
 4916TIP3   OH236382   2.427   5.125   1.745  0.3693 -0.5845 -0.2652
 4916TIP3    H136383   2.477   5.085   1.816 -0.0773  0.5255  0.7121
 4916TIP3    H236384   2.475   5.103   1.665  0.9875 -1.6931  0.3923
 4917TIP3   OH236385   0.809   6.487   7.462 -0.1868  0.3223  0.4789
 4917TIP3    H136386   0.886   6.466   7.516  0.0705 -1.6968 -0.5734
 4917TIP3    H236387   0.844   6.507   7.376 -0.8392 -1.4339 -0.2361
 4918TIP3   OH236388   3.653   1.592   1.955 -0.4445 -0.2590 -0.4032
 4918TIP3    H136389   3.600   1.549   2.023 -2.1706 -1.0745 -2.1648
 4918TIP3    H236390   3.727   1.533   1.942 -1.2822 -1.2829 -0.7445
 4919TIP3   OH236391   6.849   2.934   2.130  0.6791 -0.1259  0.0865
 4919TIP3    H136392   6.916   3.001   2.133  0.4808  0.2013 -1.7167
 4919TIP3    H236393   6.788   2.964   2.062  0.8733 -2.3621 -1.1701
 4920TIP3   OH236394   0.694   0.035   6.112 -0.0709  0.2224  0.9458
 4920TIP3    H136395   0.658   0.012   6.198 -0.2909 -0.2121  0.7372
 4920TIP3    H236396   0.622   0.079   6.066 -0.6154 -1.3734  0.2250
 4921TIP3   OH236397   4.300   2.309   0.699  0.0600  0.0123  0.2781
 4921TIP3    H136398   4.293   2.222   0.737  3.7189 -0.1486  0.9704
 4921TIP3    H236399   4.323   2.294   0.607 -2.2703  0.3733 -0.4384
 4922TIP3   OH236400   4.360   3.148   7.549 -0.3958  0.5331 -0.4405
 4922TIP3    H136401   4.313   3.066   7.534 -2.1776  1.6756 -1.3424
 4922TIP3    H236402   4.448   3.130   7.516 -0.6610 -1.0868 -0.3879
 4923TIP3   OH236403   1.071   5.159   6.397  0.1242  0.1085 -0.4641
 4923TIP3    H136404   0.976   5.163   6.385  0.4810  1.7046 -3.8669
 4923TIP3    H236405   1.097   5.077   6.354  0.3935  0.3832 -0.8330
 4924TIP3   OH236406   6.458   0.419   2.040  0.2549 -0.3653 -0.5797
 4924TIP3    H136407   6.499   0.392   1.957 -0.7167 -0.2857 -1.0973
 4924TIP3    H236408   6.375   0.460   2.014  0.1350  0.0493  0.4107
 4925TIP3   OH236409   0.816   2.276   2.397 -0.0587  0.0874  0.3499
 4925TIP3    H136410   0.789   2.232   2.477 -0.1899 -0.4414  0.0212
 4925TIP3    H236411   0.856   2.358   2.426 -0.5968  0.1499  0.9207
 4926TIP3   OH236412   6.529   5.732   0.724  0.4805  0.0703  0.0476
 4926TIP3    H136413   6.487   5.647   0.734  3.6139 -1.7699 -1.1634
 4926TIP3    H236414   6.548   5.759   0.814 -0.9853 -0.2236  0.4721
 4927TIP3   OH236415   6.895   7.071   6.952 -0.1513  0.2938  0.6026
 4927TIP3    H136416   6.827   7.056   6.886  0.2352  1.6209 -0.1525
 4927TIP3    H236417   6.847   7.096   7.031 -0.5705  0.8463  0.1871
 4928TIP3   OH236418   5.320   3.580   1.089  0.5947  0.1444 -0.1879
 4928TIP3    H136419   5.397   3.529   1.115  0.1386 -1.3736 -1.7108
 4928TIP3    H236420   5.291   3.541   1.007 -0.4995  2.1213 -0.8106
 4929TIP3   OH236421   1.741   4.880   0.126  0.5810 -0.8309 -0.1715
 4929TIP3    H136422   1.770   4.789   0.137  1.0070 -0.7866 -0.8515
 4929TIP3    H236423   1.785   4.909   0.046  1.4609  0.3915  0.7245
 4930TIP3   OH236424   4.845   2.756   1.506  0.0180  0.2345  0.3695
 4930TIP3    H136425   4.875   2.764   1.415  1.6410 -0.6743  0.7890
 4930TIP3    H236426   4.760   2.712   1.499  0.5510 -0.6890 -0.6713
 4931TIP3   OH236427   4.527   2.780   8.080  0.3853 -0.4075  0.0105
 4931TIP3    H136428   4.533   2.716   8.151 -3.3583 -1.3172 -0.2630
 4931TIP3    H236429   4.507   2.728   8.003  0.2530  0.8675 -0.8420
 4932TIP3   OH236430   0.810   0.066   7.066  0.3539  0.1857 -0.1970
 4932TIP3    H136431   0.867   0.059   7.143  1.6087  2.6093 -0.7772
 4932TIP3    H236432   0.794   0.160   7.058 -0.5854 -0.1055 -2.3075
 4933TIP3   OH236433   5.942   3.705   6.582 -0.4700  0.3323  0.1043
 4933TIP3    H136434   6.025   3.731   6.622  1.1001 -4.8448  0.9777
 4933TIP3    H236435   5.967   3.656   6.504 -2.6513 -1.3663  0.3713
 4934TIP3   OH236436   2.985   0.751   1.644 -0.7496  0.0362  0.4448
 4934TIP3    H136437   3.001   0.794   1.728 -2.1193 -1.6536  1.6539
 4934TIP3    H236438   3.065   0.701   1.627  0.5385  2.2914 -0.5864
 4935TIP3   OH236439   3.600   6.356   0.198  0.1849 -0.4231 -0.4476
 4935TIP3    H136440   3.687   6.372   0.159  1.2314 -1.9265  1.1301
 4935TIP3    H236441   3.540   6.363   0.124  1.6728  0.3506 -1.6554
 4936TIP3   OH236442   7.045   1.002   1.763 -0.5825 -0.1621  0.1531
 4936TIP3    H136443   7.034   1.038   1.851 -1.3373  1.5170 -0.5932
 4936TIP3    H236444   6.956   0.989   1.732 -0.3403 -2.4165  0.2374
 4937TIP3   OH236445   1.298   6.357   8.042  0.0246  0.2366  0.0562
 4937TIP3    H136446   1.336   6.407   7.971  2.1730  1.3248  1.8561
 4937TIP3    H236447   1.237   6.417   8.085  1.5129  0.9243  1.3211
 4938TIP3   OH236448   0.291   4.257   2.580  0.0947  0.1437 -0.1217
 4938TIP3    H136449   0.295   4.286   2.671 -1.5065 -0.2047  0.0925
 4938TIP3    H236450   0.244   4.174   2.584 -0.6558  0.4869 -1.3260
 4939TIP3   OH236451   0.891   4.300   7.450 -0.1475  0.0700 -0.0498
 4939TIP3    H136452   0.871   4.339   7.365 -0.3757  0.9862  0.4091
 4939TIP3    H236453   0.843   4.218   7.451 -0.6521  0.3556 -0.5586
 4940TIP3   OH236454   6.030   3.423   0.657 -0.1506 -0.0964  0.3966
 4940TIP3    H136455   6.124   3.408   0.650 -0.3629 -0.8665 -1.2146
 4940TIP3    H236456   6.017   3.510   0.619 -0.3899 -1.2026 -2.2682
 4941TIP3   OH236457   3.392   2.266   7.828  0.2088  0.4666  0.1996
 4941TIP3    H136458   3.409   2.188   7.881 -1.1971 -0.4317 -0.6119
 4941TIP3    H236459   3.406   2.339   7.887 -0.4702 -0.4811  1.5698
 4942TIP3   OH236460   3.916   4.673   1.874  0.1366  0.0692  0.4077
 4942TIP3    H136461   3.862   4.595   1.859 -0.8039  0.4781  1.4837
 4942TIP3    H236462   4.004   4.639   1.886 -0.3646 -0.9206  1.4945
 4943TIP3   OH236463   0.070   4.363   2.834  0.2957 -0.2042 -0.1096
 4943TIP3    H136464  -0.004   4.341   2.891 -0.9054  2.7524 -0.3584
 4943TIP3    H236465   0.145   4.368   2.893  0.4081 -3.2361  0.1468
 4944TIP3   OH236466   2.008   3.396   0.856  0.4559  0.2053 -0.1041
 4944TIP3    H136467   2.008   3.308   0.818  0.1730  0.5941 -1.0179
 4944TIP3    H236468   1.995   3.381   0.950 -0.5858 -0.6859 -0.3724
 4945TIP3   OH236469   0.085   6.004   7.154 -0.1368 -0.4613  0.2538
 4945TIP3    H136470   0.088   6.088   7.109 -0.6438  1.0676  2.9111
 4945TIP3    H236471   0.174   5.971   7.150  0.3308  0.7736  0.1835
 4946TIP3   OH236472   0.114   2.304   7.273  0.3182 -0.3565 -0.4073
 4946TIP3    H136473   0.181   2.247   7.235  2.5527  1.6499  0.2333
 4946TIP3    H236474   0.033   2.278   7.231  1.7245 -1.9976 -2.3019
 4947TIP3   OH236475   1.987   5.930   7.993  0.7550 -0.4742  0.4515
 4947TIP3    H136476   2.034   5.986   8.055  3.1504 -1.7226 -0.1134
 4947TIP3    H236477   2.055   5.898   7.934 -0.3461 -4.4829  1.1029
 4948TIP3   OH236478   4.187   3.775   1.491 -0.1346 -0.1099  0.4619
 4948TIP3    H136479   4.116   3.838   1.481 -0.3103 -0.4348 -0.4475
 4948TIP3    H236480   4.173   3.736   1.577  0.0688  1.1950  1.0992
 4949TIP3   OH236481   0.837   5.202   7.143 -0.0444 -0.3626 -0.6740
 4949TIP3    H136482   0.894   5.265   7.188  3.2552 -4.4199  1.4661
 4949TIP3    H236483   0.840   5.229   7.051  4.1105  0.6940 -0.4339
 4950TIP3   OH236484   1.751   2.215   1.186 -0.3622  0.2973 -0.5743
 4950TIP3    H136485   1.669   2.263   1.171 -0.2848  0.6655  0.1317
 4950TIP3    H236486   1.791   2.260   1.260  0.5909  0.2567 -1.0518
 4951TIP3   OH236487   4.025   1.532   2.100 -0.1851  0.7441  0.1900
 4951TIP3    H136488   3.969   1.523   2.177  0.9072  0.4071  0.9545
 4951TIP3    H236489   3.970   1.501   2.028 -1.2456  1.1273  0.8059
 4952TIP3   OH236490   5.869   3.850   7.295 -0.3073 -0.1507  0.7952
 4952TIP3    H136491   5.840   3.939   7.274 -0.6890  0.0374  2.0376
 4952TIP3    H236492   5.935   3.830   7.229 -1.6061  0.2975 -0.6934
 4953TIP3   OH236493   5.747   6.790   7.888  0.1330 -0.0763 -0.4709
 4953TIP3    H136494   5.829   6.828   7.858 -0.4119  2.2697  0.7793
 4953TIP3    H236495   5.686   6.801   7.815  0.5259 -0.4571 -0.8594
 4954TIP3   OH236496   0.431   0.636   6.873 -0.2252  0.1732 -0.6048
 4954TIP3    H136497   0.471   0.603   6.954  1.9451  1.7838 -0.9492
 4954TIP3    H236498   0.366   0.569   6.850 -2.5332  0.6597  3.5661
 4955TIP3   OH236499   5.569   4.118   0.992 -0.3564  0.1509 -0.4150
 4955TIP3    H136500   5.581   4.079   1.079  0.7524 -1.5723 -1.2754
 4955TIP3    H236501   5.526   4.048   0.942  2.7404 -0.5134 -2.3525
 4956TIP3   OH236502   6.320   2.121   0.782 -0.3885  0.1674  0.0211
 4956TIP3    H136503   6.310   2.033   0.817 -0.1477  0.5033  0.9900
 4956TIP3    H236504   6.241   2.137   0.731 -0.4102 -0.6184 -0.1948
 4957TIP3   OH236505   0.533   1.470   0.006 -0.0080  0.3094 -0.5666
 4957TIP3    H136506   0.586   1.400   0.044 -0.7045  0.6016  1.0248
 4957TIP3    H236507   0.533   1.452  -0.088  1.7467 -0.4832 -0.4550
 4958TIP3   OH236508   2.182   0.033   7.679  0.1265  0.2659 -0.2850
 4958TIP3    H136509   2.143   0.113   7.714 -0.4032  0.0633 -0.4139
 4958TIP3    H236510   2.256   0.016   7.738  0.3359  0.9251 -0.3391
 4959TIP3   OH236511   0.741   6.200   6.357 -0.5319 -0.3113  0.1505
 4959TIP3    H136512   0.692   6.277   6.386 -1.1006 -0.7805  0.4750
 4959TIP3    H236513   0.791   6.229   6.282  1.4363  1.1152  1.8889
 4960TIP3   OH236514   6.549   2.818   7.846 -0.0273  0.4633  0.1804
 4960TIP3    H136515   6.639   2.785   7.855 -0.2495 -0.3568 -0.3904
 4960TIP3    H236516   6.499   2.741   7.816 -1.1728  0.5869  1.6683
 4961TIP3   OH236517   2.105   2.033   1.429  0.1412 -0.0961  0.4660
 4961TIP3    H136518   2.050   1.981   1.487 -0.1785  0.2246  0.4491
 4961TIP3    H236519   2.146   1.968   1.371  0.9793 -0.4933  1.4662
 4962TIP3   OH236520   0.129   3.618   1.282 -0.2283 -0.3271  0.5677
 4962TIP3    H136521   0.217   3.613   1.244 -0.0809 -0.4010  0.9190
 4962TIP3    H236522   0.128   3.701   1.329 -0.9078  0.4956 -0.8247
 4963TIP3   OH236523   0.649   6.795   2.209 -0.3861 -0.1363 -0.1797
 4963TIP3    H136524   0.739   6.798   2.178  0.1504  3.3573  1.2930
 4963TIP3    H236525   0.612   6.716   2.168  3.3106 -1.7998 -0.6830
 4964TIP3   OH236526   4.892   4.929   6.648  0.2112 -0.1497  0.2163
 4964TIP3    H136527   4.955   4.927   6.720 -0.5372 -0.8470  0.8762
 4964TIP3    H236528   4.944   4.914   6.569  0.8793 -0.6025  0.7342
 4965TIP3   OH236529   6.603   6.400   7.979 -0.1068  0.1266  0.2351
 4965TIP3    H136530   6.569   6.490   7.986  0.3062  0.1642  2.3678
 4965TIP3    H236531   6.698   6.411   7.971 -0.0623 -0.1115  0.4267
 4966TIP3   OH236532   2.612   3.348   1.900 -0.5447 -0.3733 -0.2097
 4966TIP3    H136533   2.666   3.353   1.979 -0.6161 -0.7075 -0.1375
 4966TIP3    H236534   2.553   3.274   1.916 -0.2260 -0.7604 -0.7782
 4967TIP3   OH236535   6.752   4.127   7.104 -0.3391  0.9172  0.1187
 4967TIP3    H136536   6.830   4.086   7.141  0.7223  2.4779 -0.3014
 4967TIP3    H236537   6.701   4.155   7.180 -1.1251 -1.1490  0.4189
 4968TIP3   OH236538   6.417   6.927   1.209 -0.1966  0.2314 -0.2347
 4968TIP3    H136539   6.513   6.926   1.208 -0.0548 -1.8398  2.8041
 4968TIP3    H236540   6.395   7.004   1.262 -0.1167 -0.2743  0.5462
 4969TIP3   OH236541   1.089   7.003   0.067  0.0307 -0.3406 -0.0760
 4969TIP3    H136542   0.996   6.982   0.076  0.1058 -0.2567  0.9626
 4969TIP3    H236543   1.104   7.073   0.130  0.4059  0.9272 -1.5032
 4970TIP3   OH236544   1.743   6.706   0.439  0.3204  0.4821 -0.7020
 4970TIP3    H136545   1.725   6.796   0.466  1.6902  0.6846 -0.4097
 4970TIP3    H236546   1.668   6.682   0.384  0.5633  2.2579 -1.8746
 4971TIP3   OH236547   2.937   6.383   6.576  0.0764 -0.1180  0.1596
 4971TIP3    H136548   2.871   6.346   6.517 -1.0793  1.6830  0.2448
 4971TIP3    H236549   3.018   6.383   6.525 -0.6107  0.2149 -0.9664
 4972TIP3   OH236550   2.741   5.771   0.129  0.5864 -0.3338 -0.0363
 4972TIP3    H136551   2.696   5.855   0.143 -0.4141 -0.8716  0.0688
 4972TIP3    H236552   2.755   5.767   0.035  0.3116 -0.2016 -0.0853
 4973TIP3   OH236553   1.535   2.978   1.858 -0.0994  0.7504 -0.3503
 4973TIP3    H136554   1.611   2.995   1.803 -0.2222  1.8050 -0.2181
 4973TIP3    H236555   1.564   2.999   1.946 -0.0427 -0.4990 -0.0559
 4974TIP3   OH236556   5.818   3.114   1.672  0.1688  0.2279  0.1934
 4974TIP3    H136557   5.749   3.103   1.738  1.3521 -3.0748  1.0718
 4974TIP3    H236558   5.807   3.204   1.641 -1.1740  1.6252  4.0572
 4975TIP3   OH236559   3.673   5.432   2.030  0.8732 -0.2831 -0.5832
 4975TIP3    H136560   3.672   5.522   1.997 -1.8894  0.8322  2.1193
 4975TIP3    H236561   3.756   5.426   2.079  0.5376  1.2813  0.2598
 4976TIP3   OH236562   2.018   6.882   8.047  0.6363 -0.1862 -0.0266
 4976TIP3    H136563   1.939   6.932   8.070  1.5171  0.8559  0.8640
 4976TIP3    H236564   1.994   6.835   7.967 -0.9740 -0.1266  0.3781
 4977TIP3   OH236565   3.899   6.237   6.437 -0.2538 -1.0003  0.1300
 4977TIP3    H136566   3.816   6.271   6.469 -0.6292 -0.7412 -1.0864
 4977TIP3    H236567   3.935   6.308   6.383  0.1136 -1.5999 -0.4328
 4978TIP3   OH236568   1.562   5.809   7.912 -0.0698  0.8048  0.6589
 4978TIP3    H136569   1.604   5.794   7.827 -1.6118  1.7145 -0.3066
 4978TIP3    H236570   1.609   5.885   7.948  0.2528  0.7343  0.3939
 4979TIP3   OH236571   4.499   0.558   0.031 -0.0536 -0.3020 -0.8229
 4979TIP3    H136572   4.582   0.510   0.029 -0.0714 -0.3390 -0.6577
 4979TIP3    H236573   4.523   0.647   0.005 -0.0148 -0.3892 -1.0940
 4980TIP3   OH236574   5.913   3.291   2.066  0.3063  0.1702  0.0400
 4980TIP3    H136575   5.893   3.235   2.141  0.3391 -1.6224 -1.2269
 4980TIP3    H236576   5.879   3.377   2.091 -1.3306 -0.8007  1.3683
 4981TIP3   OH236577   4.306   4.726   6.633 -0.1674  0.1967  0.3164
 4981TIP3    H136578   4.286   4.779   6.556  0.7556 -0.9831 -0.7865
 4981TIP3    H236579   4.221   4.703   6.670 -0.6917  3.9779  2.0530
 4982TIP3   OH236580   2.326   4.720   7.438  0.0630 -0.2278 -0.0387
 4982TIP3    H136581   2.353   4.803   7.400  0.7465 -0.0039  0.9148
 4982TIP3    H236582   2.405   4.665   7.437  0.0461 -0.2735  0.8967
 4983TIP3   OH236583   3.105   3.866   7.816 -0.0843  0.3566 -0.5661
 4983TIP3    H136584   3.135   3.954   7.840 -0.3600 -0.0362  1.4521
 4983TIP3    H236585   3.140   3.809   7.885  0.3420 -1.1924 -1.9921
 4984TIP3   OH236586   1.314   0.528   1.651 -0.0576 -0.0724  0.0608
 4984TIP3    H136587   1.294   0.567   1.567  1.3434  0.7561  0.0761
 4984TIP3    H236588   1.250   0.458   1.662 -0.8251  0.4076 -1.2639
 4985TIP3   OH236589   4.412   1.707   2.009 -0.1840  0.0414  0.1363
 4985TIP3    H136590   4.435   1.785   2.058  0.3312  0.7321 -1.1547
 4985TIP3    H236591   4.469   1.709   1.932 -0.2171 -1.5628  0.0357
 4986TIP3   OH236592   0.530   5.018   1.935  0.0735 -0.2612 -0.2356
 4986TIP3    H136593   0.601   5.083   1.937  1.6159 -1.8737  0.6623
 4986TIP3    H236594   0.571   4.940   1.898 -0.9711 -1.5290  1.2096
 4987TIP3   OH236595   0.068   3.600   0.479 -0.3232 -0.1833  0.4498
 4987TIP3    H136596   0.077   3.691   0.506  1.2639 -0.1988  0.1017
 4987TIP3    H236597   0.002   3.602   0.410  1.9290  1.2782 -1.8465
 4988TIP3   OH236598   6.198   5.865   7.259  0.1736  0.0633  0.2233
 4988TIP3    H136599   6.134   5.928   7.293 -1.6825 -1.0135 -1.0572
 4988TIP3    H236600   6.215   5.894   7.170  0.2837 -0.5193  0.0497
 4989TIP3   OH236601   2.810   1.035   2.083 -0.5351 -0.0251  0.2059
 4989TIP3    H136602   2.867   1.070   2.152 -0.9175  1.8909 -0.3936
 4989TIP3    H236603   2.797   1.108   2.023 -3.3461 -0.5003  0.1161
 4990TIP3   OH236604   2.438   6.786   2.860 -0.1064 -0.0479 -0.0533
 4990TIP3    H136605   2.506   6.824   2.805  0.9451  1.1708  1.9452
 4990TIP3    H236606   2.361   6.841   2.846  0.3720  0.7073  0.2244
 4991TIP3   OH236607   1.284   3.394   1.176 -0.4972 -0.2748 -0.7992
 4991TIP3    H136608   1.224   3.418   1.105 -3.0080  1.4428  1.6560
 4991TIP3    H236609   1.226   3.366   1.246  1.6776  0.2903  1.3447
 4992TIP3   OH236610   2.625   6.851   2.180 -0.1209  0.2298  0.0503
 4992TIP3    H136611   2.557   6.816   2.238 -0.8180  1.3809 -0.0489
 4992TIP3    H236612   2.707   6.825   2.221 -0.5494 -2.3483 -0.5072
 4993TIP3   OH236613   4.695   4.597   6.896 -0.1655 -0.6106 -0.0096
 4993TIP3    H136614   4.710   4.689   6.874  2.0555 -0.2610  2.4059
 4993TIP3    H236615   4.701   4.550   6.813  3.6858  0.9519 -0.8205
 4994TIP3   OH236616   6.053   4.454   0.804 -0.2840 -0.0277 -0.6516
 4994TIP3    H136617   6.108   4.439   0.881 -1.8571  0.6014  0.6638
 4994TIP3    H236618   5.995   4.525   0.830 -2.1618 -1.0945 -1.7139
 4995TIP3   OH236619   4.965   3.990   1.080 -0.2140  0.5247 -0.1305
 4995TIP3    H136620   4.960   3.895   1.088 -2.4307  0.6654  0.5818
 4995TIP3    H236621   4.917   4.024   1.155  2.6472  2.3086  1.0663
 4996TIP3   OH236622   1.133   4.176   6.867 -0.0621 -0.2163  0.2636
 4996TIP3    H136623   1.119   4.258   6.915 -0.6461  0.5251 -1.1104
 4996TIP3    H236624   1.224   4.182   6.838 -0.2060  0.1154 -0.1291
 4997TIP3   OH236625   2.481   5.104   7.174 -0.4183  0.4555 -0.3901
 4997TIP3    H136626   2.565   5.150   7.177  0.5067 -1.1097 -1.1733
 4997TIP3    H236627   2.416   5.173   7.159  0.7303  1.6792  0.1025
 4998TIP3   OH236628   4.680   4.030   7.042  0.2943 -0.4698 -0.0618
 4998TIP3    H136629   4.762   4.058   7.002  0.0459 -0.0355 -0.2696
 4998TIP3    H236630   4.614   4.041   6.973  0.1182 -1.1690 -0.0181
 4999TIP3   OH236631   4.272   5.403   6.499 -0.2413 -0.0664  0.3201
 4999TIP3    H136632   4.204   5.464   6.529 -1.9758 -1.4434 -0.6038
 4999TIP3    H236633   4.354   5.443   6.527 -1.5038  0.2933  4.0449
 5000TIP3   OH236634   0.045   0.125   2.482 -0.1476  0.5383  0.1713
 5000TIP3    H136635  -0.011   0.088   2.551 -0.3282 -0.6560 -0.5975
 5000TIP3    H236636   0.126   0.149   2.528 -0.3902  0.0783  0.8581
 5001TIP3   OH236637   2.620   2.920   2.391 -0.2193 -0.3464 -0.6884
 5001TIP3    H136638   2.637   2.911   2.485 -1.0010 -0.5542 -0.5572
 5001TIP3    H236639   2.530   2.889   2.380 -0.7321  1.2348 -1.2487
 5002TIP3   OH236640   4.584   6.084   2.031 -0.3368  0.1356  0.0851
 5002TIP3    H136641   4.514   6.146   2.050 -0.9827 -0.5217 -0.1083
 5002TIP3    H236642   4.654   6.108   2.092 -0.7692  0.7216  0.3656
 5003TIP3   OH236643   3.122   5.489   8.112 -0.3792 -0.0449  0.2723
 5003TIP3    H136644   3.074   5.478   8.030  0.8320 -0.7388 -0.3717
 5003TIP3    H236645   3.170   5.407   8.124  0.3707  0.4859  1.0610
 5004TIP3   OH236646   6.284   6.098   2.167 -0.7060  0.3800  0.0656
 5004TIP3    H136647   6.196   6.128   2.188  0.2944  1.3954  3.3051
 5004TIP3    H236648   6.316   6.059   2.248  1.8123 -0.0740 -1.0571
 5005TIP3   OH236649   0.847   4.255   7.157 -0.2564 -0.2574 -0.4086
 5005TIP3    H136650   0.889   4.170   7.172 -1.4989 -0.6034  1.5091
 5005TIP3    H236651   0.779   4.236   7.092  0.7341 -0.2755 -1.4700
 5006TIP3   OH236652   5.493   5.484   2.134  0.8726  0.3753 -0.1880
 5006TIP3    H136653   5.469   5.399   2.170  0.5144 -0.3334 -2.0173
 5006TIP3    H236654   5.589   5.482   2.131  0.9914  0.9786  1.8840
 5007TIP3   OH236655   1.355   0.992   7.672 -0.0642 -0.0072  0.3932
 5007TIP3    H136656   1.395   1.027   7.593 -1.7564  0.6255 -0.2335
 5007TIP3    H236657   1.428   0.963   7.726  1.1044 -1.1035 -1.6757
 5008TIP3   OH236658   3.210   3.626   7.178  0.2813  0.3108  0.2463
 5008TIP3    H136659   3.169   3.627   7.091 -0.1893 -1.0336  0.4401
 5008TIP3    H236660   3.277   3.558   7.172  1.1587  1.1316  0.5445
 5009TIP3   OH236661   3.500   3.255   2.552 -0.3484  0.2228 -0.3236
 5009TIP3    H136662   3.487   3.343   2.518 -2.3698 -0.0016 -0.2537
 5009TIP3    H236663   3.460   3.256   2.639 -0.9570 -0.9011 -0.5662
 5010TIP3   OH236664   6.073   4.355   7.823  0.7368  0.5259  0.0332
 5010TIP3    H136665   6.061   4.297   7.748 -2.3759  2.1380 -0.9193
 5010TIP3    H236666   6.036   4.307   7.897  0.3247  0.3820 -0.2655
 5011TIP3   OH236667   3.294   5.039   1.014  0.2983 -0.0211 -0.4650
 5011TIP3    H136668   3.382   5.042   0.976  0.3971 -0.3514 -0.2679
 5011TIP3    H236669   3.254   4.961   0.977  1.0445 -1.3992  1.4527
 5012TIP3   OH236670   5.020   2.777   1.291 -0.6633  0.1218  0.1289
 5012TIP3    H136671   5.039   2.692   1.250  0.3627  0.0680  0.7044
 5012TIP3    H236672   4.980   2.828   1.221 -1.0106 -0.7301 -0.3131
 5013TIP3   OH236673   0.531   3.842   1.337 -0.2179 -0.4221  0.1121
 5013TIP3    H136674   0.560   3.821   1.426  1.0915 -0.1799 -0.2302
 5013TIP3    H236675   0.463   3.778   1.319 -1.0691  0.0152  1.5660
 5014TIP3   OH236676   6.763   3.745   0.535 -0.5375  0.5578  0.2261
 5014TIP3    H136677   6.788   3.819   0.480  0.3534  1.1527  1.3903
 5014TIP3    H236678   6.805   3.762   0.619 -1.2528 -0.7053  0.8707
 5015TIP3   OH236679   1.550   0.980   7.408 -0.6823 -0.6766 -0.6909
 5015TIP3    H136680   1.586   1.069   7.414 -1.4534 -0.3027 -1.4306
 5015TIP3    H236681   1.607   0.936   7.345 -0.6483 -0.5318 -0.7633
 5016TIP3   OH236682   6.855   0.974   2.373 -0.2578  0.2664  0.2207
 5016TIP3    H136683   6.848   0.879   2.369  1.6480 -0.0359  2.3503
 5016TIP3    H236684   6.949   0.991   2.377 -0.5537  2.2634 -0.0617
 5017TIP3   OH236685   5.768   3.117   0.078 -0.2031 -0.6174 -0.2397
 5017TIP3    H136686   5.680   3.080   0.075 -0.1074 -0.8596 -0.0828
 5017TIP3    H236687   5.824   3.045   0.107  0.0898 -0.5408 -0.6081
 5018TIP3   OH236688   5.602   4.891   0.891  0.3165  0.5063  0.1383
 5018TIP3    H136689   5.680   4.872   0.838  1.0043  2.0115  0.5662
 5018TIP3    H236690   5.547   4.813   0.881  0.4922  0.6387 -2.6183
 5019TIP3   OH236691   3.275   5.815   7.284  1.0551 -0.0980 -0.0815
 5019TIP3    H136692   3.183   5.798   7.263  0.7312 -1.8972  2.3332
 5019TIP3    H236693   3.323   5.781   7.208 -0.2201 -0.3669 -0.8021
 5020TIP3   OH236694   1.428   1.136   6.434  0.4015 -0.1102 -0.5857
 5020TIP3    H136695   1.362   1.091   6.486 -1.6129  0.3023 -2.6037
 5020TIP3    H236696   1.400   1.228   6.433  2.3019  0.5339  0.3278
 5021TIP3   OH236697   5.633   4.278   1.972  0.3091 -0.6884 -0.4359
 5021TIP3    H136698   5.619   4.184   1.960  0.5269 -0.8741  0.6372
 5021TIP3    H236699   5.607   4.295   2.063 -0.8365  0.5190 -0.9560
 5022TIP3   OH236700   6.234   4.726   8.153  0.2979  0.1943 -0.2795
 5022TIP3    H136701   6.308   4.784   8.135  0.9430  1.3956  4.7560
 5022TIP3    H236702   6.274   4.642   8.176 -0.0305  0.2025  0.3420
 5023TIP3   OH236703   4.283   4.143   1.828  0.2673 -0.2536  1.2743
 5023TIP3    H136704   4.310   4.093   1.751 -1.6995 -0.1212  0.4425
 5023TIP3    H236705   4.305   4.234   1.805  0.2237 -0.2835  1.1074
 5024TIP3   OH236706   2.001   1.800   0.827 -0.5794 -0.6965 -0.5481
 5024TIP3    H136707   1.933   1.750   0.784  1.3477  0.4933 -5.7183
 5024TIP3    H236708   2.083   1.764   0.793  1.1554  1.4969  0.9696
 5025TIP3   OH236709   3.478   6.125   7.890  1.0446  0.3462  0.1958
 5025TIP3    H136710   3.405   6.084   7.844  0.1723  1.5581  0.4461
 5025TIP3    H236711   3.510   6.057   7.949 -1.5629  0.4966  1.9767
 5026TIP3   OH236712   6.242   3.322   1.515  0.2265  0.3255  0.0541
 5026TIP3    H136713   6.191   3.403   1.511  1.9141  1.6832  2.8678
 5026TIP3    H236714   6.220   3.285   1.600  0.5521 -1.4763 -0.6180
 5027TIP3   OH236715   5.675   4.602   2.394 -0.3973  0.4443 -0.2556
 5027TIP3    H136716   5.640   4.539   2.332  0.8745 -0.8231  0.2440
 5027TIP3    H236717   5.601   4.623   2.452 -0.4716 -2.0241  0.6855
 5028TIP3   OH236718   5.248   0.816   8.183  0.8337 -0.3351  0.2325
 5028TIP3    H136719   5.251   0.828   8.278 -0.6581 -0.3595  0.3138
 5028TIP3    H236720   5.176   0.753   8.170  0.2283  0.5774 -0.9693
 5029TIP3   OH236721   2.886   3.529   2.077 -0.1074  0.1464 -0.2404
 5029TIP3    H136722   2.910   3.564   1.992 -1.0669  2.2523  0.2995
 5029TIP3    H236723   2.897   3.602   2.138  0.3967 -1.2555  1.4292
 5030TIP3   OH236724   6.592   4.348   0.681 -0.9613  0.2925 -0.4578
 5030TIP3    H136725   6.677   4.374   0.714 -0.7749 -0.9295  0.0744
 5030TIP3    H236726   6.611   4.282   0.614 -1.4592  0.4578 -0.7667
 5031TIP3   OH236727   2.122   0.239   2.457 -0.4997 -0.7935  0.0530
 5031TIP3    H136728   2.185   0.311   2.462 -1.0295 -0.2470 -0.8774
 5031TIP3    H236729   2.176   0.160   2.457  0.2446 -0.3114 -1.4739
 5032TIP3   OH236730   3.762   3.952   8.015 -0.3518 -0.0603 -0.1883
 5032TIP3    H136731   3.794   3.923   7.930 -0.3001 -0.9300  0.1225
 5032TIP3    H236732   3.726   3.874   8.056 -1.1040  0.5096  0.2718
 5033TIP3   OH236733   3.546   2.301   2.885  0.4408  0.3029 -0.1867
 5033TIP3    H136734   3.565   2.388   2.920  1.0936 -0.2655  0.9188
 5033TIP3    H236735   3.506   2.318   2.800  1.1359  1.6755 -0.2708
 5034TIP3   OH236736   4.294   1.327   0.960  0.2904  0.0683  0.2235
 5034TIP3    H136737   4.236   1.252   0.973 -0.0772  0.3995  0.5160
 5034TIP3    H236738   4.253   1.378   0.891  1.3880 -0.8279 -1.1513
 5035TIP3   OH236739   3.270   2.694   0.048 -0.2600  0.0702  0.1062
 5035TIP3    H136740   3.323   2.711   0.126  0.4334 -1.4509  0.0003
 5035TIP3    H236741   3.330   2.651  -0.013 -0.5608  1.9437 -1.6240
 5036TIP3   OH236742   6.249   0.930   1.528 -0.0553 -0.5382 -0.3129
 5036TIP3    H136743   6.279   0.845   1.558 -0.2504 -0.4092  0.2618
 5036TIP3    H236744   6.328   0.975   1.498  0.5572  0.2400  2.2346
 5037TIP3   OH236745   4.361   4.861   0.996  0.4401 -0.5292 -0.3359
 5037TIP3    H136746   4.336   4.871   1.088 -1.3813  0.4518 -0.8763
 5037TIP3    H236747   4.282   4.888   0.948  1.5685 -0.4107 -2.1772
 5038TIP3   OH236748   0.018   4.290   2.343  0.5237  0.1408 -0.3135
 5038TIP3    H136749   0.090   4.350   2.326  0.3599 -0.1409 -2.2433
 5038TIP3    H236750  -0.033   4.290   2.262 -1.2145 -0.2682  0.7256
 5039TIP3   OH236751   1.724   1.000   1.560 -0.8830  0.3770 -0.0545
 5039TIP3    H136752   1.803   0.960   1.593 -1.0698 -0.1695 -0.2625
 5039TIP3    H236753   1.754   1.081   1.517 -0.4899  0.3710  0.2077
 5040TIP3   OH236754   2.941   1.726   0.498  0.4062 -0.4035  0.0520
 5040TIP3    H136755   2.869   1.735   0.562  1.0829 -0.2416  0.8066
 5040TIP3    H236756   2.951   1.631   0.488 -0.1951 -0.4271 -0.3913
 5041TIP3   OH236757   2.592   1.575   2.398 -0.0848  0.7418  0.2189
 5041TIP3    H136758   2.637   1.503   2.442 -1.6815  1.0981  2.6095
 5041TIP3    H236759   2.662   1.632   2.367  1.2134 -1.4099 -1.1539
 5042TIP3   OH236760   0.437   4.149   1.808 -0.1041  0.1633  0.1578
 5042TIP3    H136761   0.495   4.079   1.840 -0.5500 -0.7420 -0.9444
 5042TIP3    H236762   0.451   4.221   1.868  1.9235 -0.1492  0.1152
 5043TIP3   OH236763   1.490   5.823   1.219 -0.1161  0.0269  0.1381
 5043TIP3    H136764   1.466   5.730   1.218  1.3386 -0.3832 -0.0471
 5043TIP3    H236765   1.418   5.866   1.264 -1.0703 -1.1192 -0.2372
 5044TIP3   OH236766   3.224   6.391   6.215 -0.4193 -0.0015  0.5269
 5044TIP3    H136767   3.171   6.441   6.154 -1.2678 -1.4545  0.0111
 5044TIP3    H236768   3.298   6.448   6.235 -0.3839  0.7287 -1.4499
 5045TIP3   OH236769   2.740   0.633   7.219 -0.2322 -0.4818 -0.0449
 5045TIP3    H136770   2.664   0.596   7.174 -0.9465  1.0602 -0.1536
 5045TIP3    H236771   2.798   0.660   7.149 -1.3066  1.8401 -0.1210
 5046TIP3   OH236772   4.677   3.960   1.493 -0.0330 -0.2675 -0.0015
 5046TIP3    H136773   4.695   3.866   1.487  2.0408 -0.0834  2.0276
 5046TIP3    H236774   4.599   3.966   1.547  0.1514 -0.8306  0.3388
 5047TIP3   OH236775   5.162   5.933   6.958  0.3348  0.3435  0.2833
 5047TIP3    H136776   5.167   5.914   6.865 -0.0869  2.7026 -0.2779
 5047TIP3    H236777   5.129   5.852   6.998  1.7748 -1.1441 -1.3971
 5048TIP3   OH236778   0.553   1.739   7.870 -0.3788 -0.0096 -0.1730
 5048TIP3    H136779   0.588   1.780   7.791 -0.5804 -0.3273 -0.4310
 5048TIP3    H236780   0.563   1.805   7.938 -2.3986  1.2154 -0.9501
 5049TIP3   OH236781   3.043   2.813   1.003  0.0890 -0.0153 -0.0439
 5049TIP3    H136782   3.120   2.757   1.016  1.4790  1.4429 -1.4534
 5049TIP3    H236783   3.011   2.790   0.916  1.1180  1.7862 -0.9549
 5050TIP3   OH236784   3.756   3.585   1.378 -0.2295  0.6085  0.0710
 5050TIP3    H136785   3.821   3.621   1.318 -1.7337  1.4581 -1.1227
 5050TIP3    H236786   3.689   3.653   1.383 -2.3292 -1.2824 -0.8613
 5051TIP3   OH236787   7.055   5.438   7.699 -0.2808 -0.2913  0.8153
 5051TIP3    H136788   7.149   5.451   7.708 -0.1116  3.0881 -3.1779
 5051TIP3    H236789   7.046   5.378   7.624 -1.3062  0.0062  0.6883
 5052TIP3   OH236790   2.534   6.597   0.980 -0.4220  0.0469  0.2473
 5052TIP3    H136791   2.458   6.609   0.923 -0.0455  0.2316 -0.2224
 5052TIP3    H236792   2.496   6.577   1.066 -0.9983  0.0207 -0.0052
 5053TIP3   OH236793   4.571   4.234   6.787 -0.1336 -0.4452  0.3121
 5053TIP3    H136794   4.546   4.326   6.799 -2.0929 -0.8571 -0.3237
 5053TIP3    H236795   4.666   4.234   6.798 -0.1768  1.5266  1.0964
 5054TIP3   OH236796   2.377   1.261   6.948 -0.1189 -0.2919  0.5601
 5054TIP3    H136797   2.454   1.318   6.954  0.4483 -0.9613 -0.2285
 5054TIP3    H236798   2.310   1.306   7.000  0.6744  0.5068  0.9118
 5055TIP3   OH236799   6.710   6.096   1.254 -0.2839 -0.0589  0.3019
 5055TIP3    H136800   6.759   6.014   1.246  0.2313  0.3529 -0.8198
 5055TIP3    H236801   6.769   6.155   1.302 -0.5863 -0.2745  0.9534
 5056TIP3   OH236802   6.834   5.385   0.055  0.4381 -0.1594  0.0659
 5056TIP3    H136803   6.789   5.405   0.137  0.1032 -2.5303  0.5296
 5056TIP3    H236804   6.927   5.384   0.078  0.3448 -0.8108  0.4325
 5057TIP3   OH236805   2.761   1.011   7.797  0.2917 -0.5630 -0.2976
 5057TIP3    H136806   2.838   1.056   7.762 -0.4199  0.7329 -0.2827
 5057TIP3    H236807   2.713   1.080   7.843 -0.8711 -1.3571 -0.2909
 5058TIP3   OH236808   2.339   6.756   6.670  0.0840  0.6346  0.2350
 5058TIP3    H136809   2.433   6.739   6.682  0.4066  0.9530 -1.5511
 5058TIP3    H236810   2.323   6.837   6.718  0.4463 -0.0163  1.5054
 5059TIP3   OH236811   2.553   3.063   1.703  0.1799  0.0377 -0.0715
 5059TIP3    H136812   2.637   3.026   1.731  0.4054 -0.9391 -1.8564
 5059TIP3    H236813   2.504   3.077   1.783  1.8496  0.1289  0.9784
 5060TIP3   OH236814   1.200   0.943   0.258  0.2647  0.4684  0.0865
 5060TIP3    H136815   1.211   0.914   0.167 -0.3767 -1.2203  0.5107
 5060TIP3    H236816   1.277   0.997   0.275  0.2780  1.0286 -1.5240
 5061TIP3   OH236817   5.480   0.414   0.227  0.6580 -0.8204 -0.0474
 5061TIP3    H136818   5.548   0.376   0.283  0.9960  0.6841  0.6021
 5061TIP3    H236819   5.409   0.438   0.287  0.2874 -0.7817 -0.4921
 5062TIP3   OH236820   4.420   5.182   7.598 -0.6884 -0.6089  0.6729
 5062TIP3    H136821   4.460   5.155   7.515 -0.2506  2.2580 -0.1588
 5062TIP3    H236822   4.483   5.153   7.665  0.7337  0.1102 -0.2982
 5063TIP3   OH236823   4.751   6.345   6.696 -0.2044 -0.1255  0.3180
 5063TIP3    H136824   4.787   6.335   6.608  0.5641  2.4952  0.2609
 5063TIP3    H236825   4.678   6.407   6.685 -0.8079 -0.6235  1.3686
 5064TIP3   OH236826   0.565   2.242   6.961 -0.2087 -0.0685  0.0582
 5064TIP3    H136827   0.499   2.252   6.893  1.1895  0.6306 -1.2534
 5064TIP3    H236828   0.604   2.156   6.945 -0.2021 -0.1071  0.2746
 5065TIP3   OH236829   5.622   5.805   2.012 -0.0999  0.3087  0.4123
 5065TIP3    H136830   5.573   5.754   2.075 -0.0787  1.0452  1.0394
 5065TIP3    H236831   5.709   5.815   2.052 -0.4274  1.7531  0.8300
 5066TIP3   OH236832   6.598   1.723   2.172 -0.4671  0.2572 -0.2676
 5066TIP3    H136833   6.619   1.655   2.236 -2.1344  0.3979  0.4827
 5066TIP3    H236834   6.506   1.743   2.188 -0.3541  1.7838 -1.3438
 5067TIP3   OH236835   0.691   0.621   6.698 -0.3197  0.1041 -0.1290
 5067TIP3    H136836   0.668   0.714   6.694 -0.2857  0.1288  0.2135
 5067TIP3    H236837   0.675   0.596   6.789  1.5968  0.2698  0.2780
 5068TIP3   OH236838   5.708   1.618   0.011  0.3260  0.0944 -0.2101
 5068TIP3    H136839   5.798   1.648  -0.002 -0.5367  2.6576 -0.7957
 5068TIP3    H236840   5.704   1.593   0.103  1.7739 -0.6898 -0.3284
 5069TIP3   OH236841   4.324   3.802   2.182  0.5952 -0.4151  0.4233
 5069TIP3    H136842   4.266   3.774   2.253 -0.0274  0.6806  0.3680
 5069TIP3    H236843   4.277   3.873   2.139  1.4170 -0.3751 -0.4508
 5070TIP3   OH236844   2.064   1.907   1.105 -0.1289  0.4856 -0.4372
 5070TIP3    H136845   2.074   1.862   1.021  2.2457  0.6923 -0.3343
 5070TIP3    H236846   2.128   1.865   1.163 -0.5523  1.4432  0.7846
 5071TIP3   OH236847   6.811   1.932   7.860 -0.5149  0.4281  0.3107
 5071TIP3    H136848   6.816   1.978   7.943 -1.6469 -0.0265  0.6491
 5071TIP3    H236849   6.823   1.840   7.883 -1.1938  0.2628  0.0326
 5072TIP3   OH236850   0.311   1.639   7.719  0.1055  0.4311 -0.0500
 5072TIP3    H136851   0.351   1.709   7.771  0.6716 -0.2682  0.4731
 5072TIP3    H236852   0.217   1.655   7.726  0.1488  0.1474  1.4984
 5073TIP3   OH236853   6.729   2.140   7.699  0.4899  0.0080  0.5798
 5073TIP3    H136854   6.667   2.188   7.756 -0.5344 -2.0216  1.2585
 5073TIP3    H236855   6.760   2.068   7.753  0.9021 -0.9275 -0.8552
 5074TIP3   OH236856   5.377   2.416   1.241 -0.2732  0.0535  0.7795
 5074TIP3    H136857   5.342   2.458   1.162 -1.4851 -1.6690  0.3556
 5074TIP3    H236858   5.306   2.423   1.305  0.5056  0.9569  1.5834
 5075TIP3   OH236859   0.375   3.484   7.902  0.1171 -0.5722  0.0400
 5075TIP3    H136860   0.462   3.448   7.920 -0.3961 -1.8479  0.0962
 5075TIP3    H236861   0.348   3.526   7.984  0.6941 -0.1129  0.0014
 5076TIP3   OH236862   6.039   1.840   0.588  0.2024  0.5357  0.3685
 5076TIP3    H136863   6.128   1.816   0.560  0.5706  2.2921 -0.0864
 5076TIP3    H236864   5.984   1.820   0.512  0.2818 -0.0715  0.4653
 5077TIP3   OH236865   0.917   2.832   2.312 -0.3018 -0.5459  0.2771
 5077TIP3    H136866   0.952   2.755   2.267  1.8629  0.6244 -0.1814
 5077TIP3    H236867   0.984   2.856   2.375 -1.2446  0.5656  0.8946
 5078TIP3   OH236868   0.191   4.322   2.084 -0.0366  0.2594 -0.1216
 5078TIP3    H136869   0.273   4.369   2.103 -0.5714  1.5251 -0.8118
 5078TIP3    H236870   0.217   4.230   2.077  0.7083  0.0821  3.4026
 5079TIP3   OH236871   6.407   4.167   2.031  0.0282  0.6199  0.4432
 5079TIP3    H136872   6.480   4.207   1.982  0.1113  1.1665  0.9920
 5079TIP3    H236873   6.449   4.106   2.091  0.0194  0.7509  0.5846
 5080TIP3   OH236874   1.579   3.391   1.562  0.7960  0.1338 -0.4113
 5080TIP3    H136875   1.576   3.484   1.587 -1.9132  0.6209 -2.1672
 5080TIP3    H236876   1.524   3.347   1.626  2.1668 -0.3562  0.4850
 5081TIP3   OH236877   0.178   1.012   0.056  0.4084 -0.1836 -0.3638
 5081TIP3    H136878   0.239   0.958   0.107 -0.3615 -2.0537 -1.3237
 5081TIP3    H236879   0.234   1.061  -0.004  1.1341  0.0042  0.4492
 5082TIP3   OH236880   5.889   1.760   1.623  0.3460 -0.0075  0.3850
 5082TIP3    H136881   5.810   1.794   1.665 -0.4613 -0.0996 -0.9967
 5082TIP3    H236882   5.899   1.813   1.544  1.6376 -0.0519  0.4916
 5083TIP3   OH236883   2.039   5.184   1.179 -0.3805 -0.5355 -0.1069
 5083TIP3    H136884   2.112   5.139   1.136  0.7527  1.1160 -0.0155
 5083TIP3    H236885   2.018   5.129   1.254 -0.1052 -1.7054 -0.8497
 5084TIP3   OH236886   6.497   1.094   0.288 -0.0552 -0.2806 -0.0984
 5084TIP3    H136887   6.589   1.116   0.275 -0.2652  0.1641 -0.9240
 5084TIP3    H236888   6.449   1.164   0.243 -0.7997 -0.4165  0.4671
 5085TIP3   OH236889   3.126   6.019   0.663  0.6383 -0.2369  0.1560
 5085TIP3    H136890   3.158   6.061   0.584 -1.8572  0.2065 -0.7264
 5085TIP3    H236891   3.158   5.929   0.659 -0.4197 -0.5842 -2.0448
 5086TIP3   OH236892   1.900   1.590   0.120  0.1642 -0.3995  0.2401
 5086TIP3    H136893   1.903   1.678   0.157 -0.4207 -0.1121 -0.3740
 5086TIP3    H236894   1.866   1.535   0.190 -0.5114  0.0607  0.2747
 5087TIP3   OH236895   0.934   6.729   7.150 -0.3974  0.0501  0.4925
 5087TIP3    H136896   0.985   6.660   7.107  0.5350  0.4775  0.8818
 5087TIP3    H236897   0.995   6.801   7.159 -1.5156  1.1589 -0.4303
 5088TIP3   OH236898   6.895   5.270   6.200 -0.0771  0.5929 -0.4837
 5088TIP3    H136899   6.950   5.233   6.269  0.0048  1.5320 -0.0289
 5088TIP3    H236900   6.892   5.202   6.133  1.1097  0.2670 -0.2321
 5089TIP3   OH236901   1.472   4.295   6.405  0.4776 -0.6225  0.1966
 5089TIP3    H136902   1.459   4.200   6.408  0.7579 -0.6451  1.0224
 5089TIP3    H236903   1.391   4.331   6.441  0.5456 -0.5675  0.2945
 5090TIP3   OH236904   1.851   4.906   7.492  0.4324  0.0828  0.3982
 5090TIP3    H136905   1.888   4.822   7.466  1.8754  0.0915  2.1636
 5090TIP3    H236906   1.917   4.970   7.464 -0.1461  0.5206  0.0253
 5091TIP3   OH236907   3.795   1.099   0.833  0.2625  0.6102  0.0507
 5091TIP3    H136908   3.793   1.038   0.906 -1.8415  3.2554  2.3982
 5091TIP3    H236909   3.725   1.069   0.775 -1.1883  1.0379  1.4992
 5092TIP3   OH236910   2.634   2.120   7.016 -0.3427 -0.2822 -0.2454
 5092TIP3    H136911   2.573   2.124   6.943 -1.6026 -2.5856  0.5755
 5092TIP3    H236912   2.664   2.029   7.017  1.0222  0.1467  1.0328
 5093TIP3   OH236913   4.264   4.310   3.364  0.3768  0.0836  0.1865
 5093TIP3    H136914   4.242   4.403   3.353  1.6825  0.4086  0.1635
 5093TIP3    H236915   4.313   4.307   3.446 -0.6824 -0.7871  0.8058
 5094TIP3   OH236916   5.974   4.857   1.703 -0.1250  0.4893 -0.1878
 5094TIP3    H136917   6.043   4.887   1.762 -0.2444  0.7469 -0.1743
 5094TIP3    H236918   5.952   4.934   1.650 -0.2354  0.3458 -0.3565
 5095TIP3   OH236919   6.672   5.336   7.032  0.0385 -0.1053 -0.0366
 5095TIP3    H136920   6.591   5.290   7.053  0.1715  0.1640  1.1269
 5095TIP3    H236921   6.697   5.301   6.946 -1.3065 -0.1647 -0.4332
 5096TIP3   OH236922   6.303   0.820   6.704  0.5420  0.3321  0.2422
 5096TIP3    H136923   6.353   0.769   6.640  1.0730 -0.1225  1.0082
 5096TIP3    H236924   6.248   0.878   6.651  2.0976  1.0675 -0.6398
 5097TIP3   OH236925   4.336   3.700   2.904 -0.1416  0.4463  0.5379
 5097TIP3    H136926   4.425   3.712   2.870  0.8162 -5.7911 -0.3556
 5097TIP3    H236927   4.346   3.707   2.999  1.0812  0.7589  0.4052
 5098TIP3   OH236928   6.717   0.513   0.259 -0.4378 -0.1865 -0.1657
 5098TIP3    H136929   6.685   0.453   0.326  0.8858 -0.6130  0.0999
 5098TIP3    H236930   6.662   0.591   0.269 -1.6117 -1.0170  0.0450
 5099TIP3   OH236931   0.259   2.491   7.116  0.2033  0.1593 -0.1586
 5099TIP3    H136932   0.245   2.508   7.209 -0.7897  1.2058 -0.4832
 5099TIP3    H236933   0.264   2.396   7.110  1.1410  0.0924  1.0685
 5100TIP3   OH236934   4.344   4.550   7.215  0.3470 -0.1925  0.2429
 5100TIP3    H136935   4.281   4.521   7.281 -0.3817 -1.4298 -0.9504
 5100TIP3    H236936   4.294   4.608   7.157  1.3896  2.2905  1.6441
 5101TIP3   OH236937   0.450   6.033   2.122 -0.1888 -0.2594  0.4063
 5101TIP3    H136938   0.419   5.974   2.054  0.7265 -1.2304  0.8019
 5101TIP3    H236939   0.394   6.111   2.114 -1.7145 -1.3363  0.1578
 5102TIP3   OH236940   2.245   5.629   7.813  0.4340 -0.1555  0.2988
 5102TIP3    H136941   2.261   5.647   7.906  3.6192  2.6484 -0.6047
 5102TIP3    H236942   2.178   5.693   7.787 -1.1316 -1.5443  0.7809
 5103TIP3   OH236943   6.043   6.341   1.251 -0.2909  0.4343  0.4653
 5103TIP3    H136944   6.060   6.248   1.236 -0.2883  0.7866 -2.0910
 5103TIP3    H236945   6.042   6.350   1.347  2.5870 -1.6466  0.8195
 5104TIP3   OH236946   1.550   0.384   1.867  0.8157 -0.1928  0.0906
 5104TIP3    H136947   1.593   0.422   1.790  1.2400  0.3286  0.5761
 5104TIP3    H236948   1.622   0.364   1.927  0.4152  0.3625  0.7682
 5105TIP3   OH236949   1.840   3.362   7.865  0.2810  0.6869 -0.2943
 5105TIP3    H136950   1.786   3.344   7.942  0.0067 -0.6679 -0.7737
 5105TIP3    H236951   1.928   3.374   7.899  0.5435 -1.8611  0.0999
 5106TIP3   OH236952   5.728   5.674   2.797 -0.3171  0.5725 -0.0008
 5106TIP3    H136953   5.702   5.613   2.866 -0.8962  1.4025  0.5333
 5106TIP3    H236954   5.649   5.686   2.744 -0.0176  0.3460 -0.5134
 5107TIP3   OH236955   2.530   4.002   7.928  0.4933 -0.0651  0.7518
 5107TIP3    H136956   2.619   4.033   7.914 -0.5949  3.1291 -0.1556
 5107TIP3    H236957   2.520   4.000   8.023  1.9402 -2.0391  0.9159
 5108TIP3   OH236958   3.092   6.890   2.043 -0.2586 -0.4766 -0.3533
 5108TIP3    H136959   3.054   6.977   2.051  0.6261  0.0288 -1.3507
 5108TIP3    H236960   3.083   6.852   2.130  0.4028  1.0723  0.4471
 5109TIP3   OH236961   1.231   6.004   0.027  0.0041  0.6093  0.3470
 5109TIP3    H136962   1.202   6.048   0.107  1.7308  0.2343  1.2337
 5109TIP3    H236963   1.262   5.919   0.058  3.8558  1.6839 -0.1448
 5110TIP3   OH236964   1.452   1.980   8.187  0.6639  0.6688 -0.3132
 5110TIP3    H136965   1.397   1.923   8.133 -0.8247 -0.8180  2.5651
 5110TIP3    H236966   1.534   1.932   8.197  0.0949 -0.1369  0.5882
 5111TIP3   OH236967   5.524   0.032   6.726 -0.1798  0.2408  0.3186
 5111TIP3    H136968   5.435   0.002   6.743 -0.0608  0.0104  0.5577
 5111TIP3    H236969   5.567  -0.044   6.686 -0.4528  0.7747 -1.0471
 5112TIP3   OH236970   2.902   4.634   2.430  0.3757 -0.5068 -0.1386
 5112TIP3    H136971   2.928   4.577   2.503  0.6845  1.8285  1.6940
 5112TIP3    H236972   2.823   4.678   2.461 -0.0866 -0.2194 -1.6483
 5113TIP3   OH236973   3.717   3.417   0.025  0.1963  0.0609  0.2783
 5113TIP3    H136974   3.802   3.446   0.056  0.3523 -0.8535  0.7581
 5113TIP3    H236975   3.718   3.434  -0.069  1.2190 -0.6805  0.1409
 5114TIP3   OH236976   4.202   6.558   1.786 -0.0500  0.0124 -0.2081
 5114TIP3    H136977   4.163   6.514   1.862 -1.3342  1.1411 -0.1744
 5114TIP3    H236978   4.248   6.634   1.823  0.1924 -0.0057 -0.4689
 5115TIP3   OH236979   3.952   4.646   1.435 -0.5542 -0.1637 -0.2597
 5115TIP3    H136980   3.920   4.729   1.470 -0.9615 -0.8941  1.1694
 5115TIP3    H236981   3.910   4.579   1.489  2.5149 -1.2129  1.0703
 5116TIP3   OH236982   6.684   6.272   0.411  0.2443  0.2362 -0.1393
 5116TIP3    H136983   6.701   6.239   0.323  2.1587 -0.7303  0.5383
 5116TIP3    H236984   6.751   6.339   0.425  0.9198 -0.6633  1.0974
 5117TIP3   OH236985   2.432   6.638   0.519  0.1274  0.0256 -0.8020
 5117TIP3    H136986   2.516   6.592   0.525  0.0431 -0.1310 -0.8364
 5117TIP3    H236987   2.405   6.628   0.428 -0.3398 -0.6445 -0.5994
 5118TIP3   OH236988   6.090   0.225   7.220 -0.4393 -0.0915 -0.4628
 5118TIP3    H136989   6.124   0.281   7.290 -1.5352  0.3624 -0.2851
 5118TIP3    H236990   6.101   0.136   7.254  1.7022 -0.0627 -0.9141
 5119TIP3   OH236991   0.111   0.551   2.238  0.1814  0.4109  0.7892
 5119TIP3    H136992   0.191   0.505   2.263 -1.0766 -2.9185 -0.8105
 5119TIP3    H236993   0.040   0.494   2.266 -1.5532  1.7762 -0.5742
 5120TIP3   OH236994   5.049   6.562   0.823 -0.6513  0.4110 -0.5194
 5120TIP3    H136995   5.080   6.522   0.905 -0.3853  0.7795 -0.4363
 5120TIP3    H236996   5.051   6.491   0.759  0.4786  0.4427 -0.5381
 5121TIP3   OH236997   0.212   0.631   7.371 -0.2206 -0.4117 -0.2107
 5121TIP3    H136998   0.176   0.701   7.317 -0.4127 -0.5113 -0.2128
 5121TIP3    H236999   0.174   0.551   7.334  0.3502 -0.5579 -0.4951
 5122TIP3   OH237000   0.443   3.345   0.611  0.3940 -0.3558 -0.2877
 5122TIP3    H137001   0.475   3.312   0.695 -1.5358 -2.1298 -0.1742
 5122TIP3    H237002   0.521   3.381   0.568  1.6025 -0.2988  1.8334
 5123TIP3   OH237003   2.181   4.478   7.299  0.4051 -0.1972 -0.3439
 5123TIP3    H137004   2.194   4.537   7.373 -0.9564 -1.9269  1.3829
 5123TIP3    H237005   2.251   4.413   7.307  1.2777  0.5241 -1.6318
 5124TIP3   OH237006   0.441   2.542   8.146  0.4479 -0.1191  0.3894
 5124TIP3    H137007   0.519   2.537   8.091 -0.5294  1.8400 -1.3656
 5124TIP3    H237008   0.425   2.636   8.156 -1.6039 -0.4522  0.7705
 5125TIP3   OH237009   5.525   4.265   7.409 -0.4045 -0.7041 -0.1601
 5125TIP3    H137010   5.553   4.180   7.444  1.0883 -0.5197 -0.8094
 5125TIP3    H237011   5.606   4.309   7.386 -1.1291  1.1531  0.6594
 5126TIP3   OH237012   4.894   5.108   2.424 -0.2115 -0.3991  0.1288
 5126TIP3    H137013   4.915   5.062   2.343  0.1989  1.2263 -0.7220
 5126TIP3    H237014   4.817   5.062   2.458 -0.5605 -0.9411 -1.3182
 5127TIP3   OH237015   3.177   2.945   6.706  0.5656 -0.4997  0.1872
 5127TIP3    H137016   3.112   2.897   6.758  0.3854  0.3861  0.7910
 5127TIP3    H237017   3.233   2.876   6.668 -1.3584 -1.3473 -1.2552
 5128TIP3   OH237018   5.752   4.883   2.817 -0.4319  0.3893 -0.4215
 5128TIP3    H137019   5.785   4.907   2.903 -0.7686 -1.5306  0.2782
 5128TIP3    H237020   5.662   4.916   2.817 -0.7935 -0.5517  0.4057
 5129TIP3   OH237021   5.760   2.698   6.866 -0.1692 -0.0558 -0.3133
 5129TIP3    H137022   5.757   2.791   6.842 -2.9604  0.2745  0.9767
 5129TIP3    H237023   5.749   2.651   6.783 -0.5213  0.8160 -0.7690
 5130TIP3   OH237024   6.356   1.731   6.522  0.6265 -0.3123  0.0686
 5130TIP3    H137025   6.382   1.646   6.558  2.6800  0.5473  0.7638
 5130TIP3    H237026   6.438   1.772   6.494 -0.4418  0.9784 -1.3402
 5131TIP3   OH237027   2.548   4.566   8.000  0.0205 -1.0206 -0.0830
 5131TIP3    H137028   2.598   4.549   7.921  1.1594 -0.4250  0.4778
 5131TIP3    H237029   2.538   4.661   8.002 -0.3006 -1.0583  0.3094
 5132TIP3   OH237030   3.630   2.174   1.050  0.9449  0.0087 -0.2256
 5132TIP3    H137031   3.691   2.139   0.986  1.4433  0.7632 -0.1743
 5132TIP3    H237032   3.555   2.115   1.047  1.9541 -1.3300  0.2170
 5133TIP3   OH237033   5.086   2.535   0.868 -0.1019  0.2138  0.2529
 5133TIP3    H137034   5.123   2.488   0.793  0.8506  3.0499 -1.1788
 5133TIP3    H237035   5.161   2.548   0.927 -0.4347 -0.2915  0.8049
 5134TIP3   OH237036   2.514   2.049   7.250 -0.0413 -0.9047  0.2678
 5134TIP3    H137037   2.544   2.099   7.174  0.2133 -0.0627  0.9209
 5134TIP3    H237038   2.527   1.957   7.224  0.5904 -0.6167 -0.4737
 5135TIP3   OH237039   5.245   0.527   0.338  0.3843  0.2612 -0.3186
 5135TIP3    H137040   5.183   0.532   0.410  1.2305 -1.3307  0.5725
 5135TIP3    H237041   5.192   0.500   0.262 -0.1460 -0.3662  0.2590
 5136TIP3   OH237042   1.233   6.236   0.835 -0.4356 -0.0968 -0.2990
 5136TIP3    H137043   1.304   6.197   0.783 -2.0320 -0.5079 -2.3025
 5136TIP3    H237044   1.164   6.170   0.836 -1.6523  1.1226 -0.3387
 5137TIP3   OH237045   2.666   2.415   1.667 -0.0399  0.3365  0.0515
 5137TIP3    H137046   2.624   2.353   1.607 -0.9089 -0.2455  1.2121
 5137TIP3    H237047   2.649   2.379   1.754 -0.5582  2.1709  0.7641
 5138TIP3   OH237048   4.619   1.392   0.362 -0.0853  0.1792  0.0178
 5138TIP3    H137049   4.703   1.348   0.379  0.0895  0.2714 -0.5951
 5138TIP3    H237050   4.588   1.419   0.449  0.9204  0.8771  0.1745
 5139TIP3   OH237051   2.152   4.776   0.608 -0.5360 -0.4145  0.0660
 5139TIP3    H137052   2.218   4.715   0.574  0.7531  0.8431  0.2174
 5139TIP3    H237053   2.113   4.729   0.682  1.6959 -0.4286  1.3219
 5140TIP3   OH237054   2.099   1.345   1.361  0.3627 -0.1347 -0.0086
 5140TIP3    H137055   2.168   1.402   1.395 -0.3919  0.7744  0.0355
 5140TIP3    H237056   2.120   1.258   1.396  2.0781 -0.1039 -0.8742
 5141TIP3   OH237057   5.374   4.671   1.610  0.3147 -0.0832 -0.3075
 5141TIP3    H137058   5.402   4.750   1.564 -1.0159  0.3637 -0.3957
 5141TIP3    H237059   5.286   4.654   1.578  0.3109 -1.2079  0.2344
 5142TIP3   OH237060   5.488   5.358   0.174 -0.4017  0.3047 -0.2677
 5142TIP3    H137061   5.488   5.446   0.136 -2.1595  0.7248  0.5906
 5142TIP3    H237062   5.422   5.310   0.124 -0.3625 -0.1274  0.0877
 5143TIP3   OH237063   2.632   0.688   6.833 -0.4105  0.0402 -0.3230
 5143TIP3    H137064   2.683   0.766   6.811 -0.7331  0.8608  1.6316
 5143TIP3    H237065   2.555   0.693   6.777  0.3636  0.2154 -1.3989
 5144TIP3   OH237066   0.330   4.924   0.916 -0.1988  0.3889  0.2953
 5144TIP3    H137067   0.372   4.845   0.952 -0.5719  0.3629  0.6902
 5144TIP3    H237068   0.401   4.986   0.904  0.0233  0.1745  0.4944
 5145TIP3   OH237069   4.910   5.081   0.846  0.0065 -0.2921 -0.4510
 5145TIP3    H137070   4.990   5.035   0.821  0.4669  0.4108 -0.2875
 5145TIP3    H237071   4.867   5.101   0.763  0.2061 -0.3092 -0.5589
 5146TIP3   OH237072   4.319   4.835   2.438 -0.1172 -0.1075 -0.0781
 5146TIP3    H137073   4.287   4.904   2.380  0.3540 -0.4402 -0.7434
 5146TIP3    H237074   4.268   4.846   2.519 -1.3252 -0.1075 -0.8074
 5147TIP3   OH237075   5.138   6.240   8.215 -0.6498  0.3240  0.1469
 5147TIP3    H137076   5.153   6.234   8.310  0.1590  1.6349  0.1252
 5147TIP3    H237077   5.049   6.207   8.203  0.2759 -2.8531  0.9556
 5148TIP3   OH237078   5.303   5.682   2.033  0.6568 -0.2011  0.1575
 5148TIP3    H137079   5.379   5.629   2.062  0.6148  0.4150  1.4927
 5148TIP3    H237080   5.303   5.757   2.093 -1.6473 -0.7287  0.9218
 5149TIP3   OH237081   1.728   1.771   7.735  0.0211 -0.1824 -0.0655
 5149TIP3    H137082   1.689   1.703   7.681  0.4392 -0.9872  0.6237
 5149TIP3    H237083   1.654   1.813   7.780 -0.1275 -1.1938  0.6605
 5150TIP3   OH237084   4.135   3.714   7.973  0.1450  0.2757 -0.2685
 5150TIP3    H137085   4.197   3.778   8.007 -1.1777  1.6683 -0.3484
 5150TIP3    H237086   4.164   3.699   7.882  0.7940  0.3139 -0.0745
 5151TIP3   OH237087   3.592   3.603   0.943 -0.0951  0.4938 -0.0928
 5151TIP3    H137088   3.661   3.620   0.878  1.8990  0.4885  1.9308
 5151TIP3    H237089   3.517   3.652   0.909  2.0449  3.9810 -0.3953
 5152TIP3   OH237090   5.813   3.726   1.893  0.9700 -0.4602 -0.6564
 5152TIP3    H137091   5.869   3.801   1.914  0.3010  0.2511 -1.3258
 5152TIP3    H237092   5.754   3.718   1.968  2.2860 -1.5474  0.2919
 5153TIP3   OH237093   5.737   5.915   7.848 -0.5427  0.0625 -0.1162
 5153TIP3    H137094   5.808   5.850   7.857  0.8650  1.1928 -2.2145
 5153TIP3    H237095   5.754   5.978   7.918  1.7900  1.3621 -1.7427
 5154TIP3   OH237096   4.013   5.210   1.828  0.2652  0.4463  0.2038
 5154TIP3    H137097   4.064   5.158   1.766 -0.8956 -0.5543  0.0530
 5154TIP3    H237098   3.941   5.245   1.775  0.7404  1.8250  0.4192
 5155TIP3   OH237099   2.013   0.953   1.706  0.0399 -0.0823  0.1643
 5155TIP3    H137100   1.964   1.008   1.767  0.0321  0.7810 -0.5909
 5155TIP3    H237101   1.968   0.869   1.708 -1.4179  0.6398 -0.4050
 5156TIP3   OH237102   5.796   0.072   2.192  0.0389  0.9340  0.4618
 5156TIP3    H137103   5.832   0.102   2.275  1.2057 -0.3991  0.4739
 5156TIP3    H237104   5.717   0.023   2.217 -0.1429  1.3424  0.6936
 5157TIP3   OH237105   4.637   3.192   7.529  0.4804 -0.5263  0.3655
 5157TIP3    H137106   4.631   3.111   7.479 -5.3422  0.1551 -0.6958
 5157TIP3    H237107   4.633   3.164   7.621 -0.4535 -1.5020  0.0434
 5158TIP3   OH237108   2.713   2.478   0.252  0.0330  0.1633 -0.7863
 5158TIP3    H137109   2.742   2.440   0.336 -0.4507 -1.1654 -1.1930
 5158TIP3    H237110   2.631   2.433   0.233 -0.3446  1.1429 -1.5197
 5159TIP3   OH237111   6.373   4.022   0.858 -0.1594  0.1706 -0.3382
 5159TIP3    H137112   6.367   3.970   0.778  1.4974  1.8195 -1.6350
 5159TIP3    H237113   6.428   3.970   0.917  0.2591 -0.2037 -1.0415
 5160TIP3   OH237114   2.275   2.767   7.511 -0.7594  0.0283  0.4699
 5160TIP3    H137115   2.296   2.772   7.418 -0.0345 -0.1867  0.6220
 5160TIP3    H237116   2.308   2.681   7.539 -0.5368  0.2970  1.0371
 5161TIP3   OH237117   1.929   3.131   0.243 -0.0323 -0.1309 -0.2819
 5161TIP3    H137118   1.977   3.095   0.318  1.0516 -1.9595 -1.7721
 5161TIP3    H237119   1.912   3.056   0.186 -0.5814  1.2299 -2.0251
 5162TIP3   OH237120   1.016   6.870   0.931 -0.6472  0.2791  0.3231
 5162TIP3    H137121   0.954   6.880   1.003 -0.3329  0.0959  0.6215
 5162TIP3    H237122   1.101   6.893   0.968 -0.1541 -1.7594  0.6054
 5163TIP3   OH237123   3.776   5.558   7.228 -0.2389 -0.0800 -0.2274
 5163TIP3    H137124   3.830   5.598   7.159 -0.9571  0.1298 -0.6781
 5163TIP3    H237125   3.802   5.604   7.308  0.9616 -0.6604 -0.2539
 5164TIP3   OH237126   3.120   0.441   1.061 -0.1854 -0.1394 -0.8639
 5164TIP3    H137127   3.169   0.438   1.144  1.7859  2.9505 -1.7577
 5164TIP3    H237128   3.069   0.361   1.061  1.1441 -1.1657  2.4897
 5165TIP3   OH237129   3.286   1.159   7.207  0.0511  0.5225  0.0204
 5165TIP3    H137130   3.231   1.083   7.187 -0.7525  0.8443  0.9162
 5165TIP3    H237131   3.345   1.167   7.132 -0.0054 -0.8453 -0.1932
 5166TIP3   OH237132   2.755   1.835   7.892 -0.5906 -0.2726 -0.4341
 5166TIP3    H137133   2.684   1.840   7.827  0.8138 -0.8788 -2.0905
 5166TIP3    H237134   2.809   1.912   7.873 -0.0425 -0.5785 -0.1217
 5167TIP3   OH237135   2.590   0.135   7.064 -0.6836  0.5490  0.1291
 5167TIP3    H137136   2.580   0.150   7.158  1.2655  1.9584  0.1848
 5167TIP3    H237137   2.636   0.213   7.033  0.5132 -0.7866 -1.6208
 5168TIP3   OH237138   2.039   3.672   0.821  0.4856 -0.1154  0.2371
 5168TIP3    H137139   2.014   3.580   0.816  1.4755 -0.4681  1.4334
 5168TIP3    H237140   2.079   3.691   0.737 -0.5216 -0.5230 -0.3493
 5169TIP3   OH237141   2.646   4.424   1.419  0.3467  0.0779 -0.0510
 5169TIP3    H137142   2.675   4.468   1.339 -0.7339 -0.7312 -0.9213
 5169TIP3    H237143   2.551   4.425   1.413  0.2554 -0.1275  1.1739
 5170TIP3   OH237144   0.268   5.925   0.776  0.1891  0.4296 -0.5120
 5170TIP3    H137145   0.227   5.838   0.780  0.3512  0.1247 -3.3685
 5170TIP3    H237146   0.198   5.982   0.745  0.3205  1.1762  0.5297
 5171TIP3   OH237147   3.490   3.196   7.191 -0.1535  0.2558  0.2685
 5171TIP3    H137148   3.436   3.139   7.136 -0.8401  1.9584 -0.9135
 5171TIP3    H237149   3.580   3.181   7.161 -0.4160  0.4037 -0.6173
 5172TIP3   OH237150   5.641   2.520   1.322 -0.5662  0.2364  0.5925
 5172TIP3    H137151   5.652   2.502   1.415 -3.0316 -0.0224  0.9002
 5172TIP3    H237152   5.549   2.500   1.304  0.1196 -0.9217 -2.1856
 5173TIP3   OH237153   0.334   3.286   7.624 -0.0756  0.1632  1.1828
 5173TIP3    H137154   0.428   3.272   7.635  0.0325 -1.4781 -1.0213
 5173TIP3    H237155   0.328   3.367   7.574  0.4219 -1.0586 -1.0077
 5174TIP3   OH237156   0.576   3.710   7.100 -0.2955  0.5751 -0.1326
 5174TIP3    H137157   0.660   3.731   7.057 -0.0201 -2.8386 -1.5844
 5174TIP3    H237158   0.517   3.692   7.027 -1.4245 -0.0078  0.9076
 5175TIP3   OH237159   6.606   0.313   0.869 -0.5198 -0.1094  0.3724
 5175TIP3    H137160   6.606   0.217   0.862  0.0305 -0.1689  1.0301
 5175TIP3    H237161   6.521   0.340   0.835 -1.9773 -1.0509  2.9502
 5176TIP3   OH237162   0.672   0.346   7.741  0.3522 -0.3910 -0.5688
 5176TIP3    H137163   0.682   0.404   7.666 -2.3245  0.7193 -0.1817
 5176TIP3    H237164   0.638   0.403   7.810  2.2324 -1.4878  1.3679
 5177TIP3   OH237165   6.719   7.036   8.205  0.2377 -0.0948  0.5163
 5177TIP3    H137166   6.740   6.944   8.225  1.7997  0.2740  0.7403
 5177TIP3    H237167   6.737   7.083   8.286  1.7449  0.7109 -0.2225
 5178TIP3   OH237168   3.285   0.716   6.665 -0.2078  0.0472 -0.5190
 5178TIP3    H137169   3.285   0.791   6.724 -0.4467 -0.7689  0.5401
 5178TIP3    H237170   3.373   0.679   6.673  0.1373  0.5841 -1.5560
 5179TIP3   OH237171   4.045   5.005   1.228  0.3893 -0.1184  0.5862
 5179TIP3    H137172   4.068   4.914   1.209  0.6528 -0.1567  1.0758
 5179TIP3    H237173   4.108   5.032   1.295  0.5577  0.5423  0.1760
 5180TIP3   OH237174   2.556   0.500   1.243 -0.1958 -0.5433 -0.4765
 5180TIP3    H137175   2.531   0.589   1.268  0.6597 -0.2067 -0.7727
 5180TIP3    H237176   2.505   0.483   1.164 -0.3084 -0.2858 -0.4618
 5181TIP3   OH237177   2.323   1.592   7.858  0.6686  0.2629 -0.2968
 5181TIP3    H137178   2.340   1.582   7.765  0.3223  1.4378 -0.5052
 5181TIP3    H237179   2.232   1.622   7.863  0.4647 -0.4502  0.4596
 5182TIP3   OH237180   0.167   6.410   2.476  0.3389 -0.0545 -0.6399
 5182TIP3    H137181   0.075   6.419   2.500  0.7459  0.7623  0.7445
 5182TIP3    H237182   0.167   6.354   2.399 -1.3179 -0.0175 -0.6911
 5183TIP3   OH237183   0.077   3.083   1.978 -0.4349  1.0318  0.4668
 5183TIP3    H137184   0.013   3.078   2.049  1.5337  0.5937  2.3042
 5183TIP3    H237185   0.088   2.993   1.948  0.7708  0.7853  1.5663
 5184TIP3   OH237186   3.732   0.898   7.657 -0.3178 -0.2079 -0.7185
 5184TIP3    H137187   3.758   0.923   7.568 -0.2073  0.2186 -0.5710
 5184TIP3    H237188   3.808   0.854   7.693 -0.1110  0.2348 -0.6007
 5185TIP3   OH237189   1.255   4.737   1.838 -0.3264 -0.5493 -0.4547
 5185TIP3    H137190   1.234   4.653   1.880 -0.5639 -0.6607 -0.7864
 5185TIP3    H237191   1.299   4.713   1.757  0.2354 -0.3319 -0.2208
 5186TIP3   OH237192   0.730   6.132   6.883 -0.2487 -0.8398  0.6418
 5186TIP3    H137193   0.803   6.125   6.821 -0.0686  0.5868  0.6634
 5186TIP3    H237194   0.729   6.048   6.928  0.7837 -1.2257 -0.0212
 5187TIP3   OH237195   6.922   3.840   1.883 -0.4720  0.4243  0.4339
 5187TIP3    H137196   6.855   3.777   1.859 -1.3189  0.9501  1.3333
 5187TIP3    H237197   6.991   3.828   1.817 -1.0038 -0.7968  0.0663
 5188TIP3   OH237198   2.409   3.588   2.022 -0.6167 -0.1499 -0.5331
 5188TIP3    H137199   2.448   3.511   1.979  1.7871  0.7925 -0.2153
 5188TIP3    H237200   2.388   3.558   2.110  1.1941 -0.2419 -0.0991
 5189TIP3   OH237201   7.028   2.206   0.331  0.2494  0.3288  0.6917
 5189TIP3    H137202   6.968   2.148   0.379  0.8294 -0.5623  0.3671
 5189TIP3    H237203   7.070   2.258   0.400  0.2077 -0.1078  1.0566
 5190TIP3   OH237204   3.283   6.048   7.661 -0.7648  0.1902  0.3085
 5190TIP3    H137205   3.326   6.097   7.591 -2.6003 -0.6856 -1.5082
 5190TIP3    H237206   3.294   5.956   7.637 -1.5248 -0.1206  1.0960
 5191TIP3   OH237207   6.898   0.107   0.557  0.3325  0.6338 -0.1931
 5191TIP3    H137208   6.846   0.084   0.634  2.2519 -1.8303  0.4869
 5191TIP3    H237209   6.847   0.072   0.483  0.0536  0.0304  0.2725
 5192TIP3   OH237210   4.963   3.645   1.669  0.0171 -0.1508  1.3554
 5192TIP3    H137211   4.965   3.577   1.736  2.3021 -1.5416  0.0314
 5192TIP3    H237212   5.050   3.642   1.629 -1.5520 -0.3071 -2.5268
 5193TIP3   OH237213   7.040   1.284   7.241 -0.0537 -0.4578  0.1640
 5193TIP3    H137214   7.107   1.331   7.190 -0.4621 -0.9560 -0.8645
 5193TIP3    H237215   6.983   1.245   7.175  0.1878 -2.2827  0.9725
 5194TIP3   OH237216   4.141   2.083   7.436 -0.1298  0.0303  0.0006
 5194TIP3    H137217   4.048   2.103   7.444 -0.1765 -0.3110  0.3103
 5194TIP3    H237218   4.147   1.989   7.446  0.1827 -0.0326 -0.6656
 5195TIP3   OH237219   4.034   6.812   0.332  0.4148 -0.0022 -0.5509
 5195TIP3    H137220   4.047   6.774   0.419 -1.4441 -0.3462 -0.3850
 5195TIP3    H237221   3.962   6.761   0.294  0.7017  0.6186 -2.0229
 5196TIP3   OH237222   5.152   0.420   1.485 -0.2008  0.2070  0.2846
 5196TIP3    H137223   5.233   0.397   1.532 -0.2858  1.0403  0.8759
 5196TIP3    H237224   5.122   0.338   1.447 -0.1880 -0.5528  1.8084
 5197TIP3   OH237225   1.700   0.152   2.499 -0.0235 -0.2989 -0.2917
 5197TIP3    H137226   1.619   0.145   2.447 -0.8194  0.5542  0.7932
 5197TIP3    H237227   1.671   0.147   2.590  0.9072  1.8566  0.1954
 5198TIP3   OH237228   2.092   3.472   1.278  0.5659  0.0418  0.2175
 5198TIP3    H137229   2.062   3.455   1.367 -1.8619 -0.1471 -0.5879
 5198TIP3    H237230   2.119   3.386   1.245 -1.0763 -0.3711 -0.1004
 5199TIP3   OH237231   2.544   6.711   7.560  0.4742  0.0349  0.1412
 5199TIP3    H137232   2.531   6.672   7.474  1.0064  0.8741 -0.3394
 5199TIP3    H237233   2.501   6.796   7.555  1.3663  0.5175  0.3539
 5200TIP3   OH237234   6.825   2.964   0.317  0.0924 -0.2570  0.4183
 5200TIP3    H137235   6.763   2.894   0.296 -1.7861  0.6016  2.6172
 5200TIP3    H237236   6.840   3.009   0.234  0.8274 -2.7594 -0.9180
 5201TIP3   OH237237   6.240   4.913   7.250  0.0430  0.9231  0.0134
 5201TIP3    H137238   6.190   4.843   7.292 -0.3753  0.6066 -0.9594
 5201TIP3    H237239   6.182   4.989   7.254 -0.4532  0.6093 -0.9319
 5202TIP3   OH237240   6.984   6.245   7.278 -0.1798 -0.3254 -0.0873
 5202TIP3    H137241   6.947   6.170   7.232 -0.1062  0.8202 -2.1363
 5202TIP3    H237242   7.049   6.280   7.217 -0.1753  1.3487  0.8340
 5203TIP3   OH237243   2.481   1.035   6.828  0.3507  0.1639 -0.6933
 5203TIP3    H137244   2.449   1.116   6.867  0.6648 -0.1313  0.1980
 5203TIP3    H237245   2.413   1.011   6.765 -1.3161 -0.5391  1.2814
 5204TIP3   OH237246   2.063   4.831   7.781 -0.5619  0.0329  0.0348
 5204TIP3    H137247   1.973   4.823   7.751 -1.1299  2.0214  1.0588
 5204TIP3    H237248   2.057   4.822   7.876  0.4093 -0.3962  0.0656
 5205TIP3   OH237249   1.093   2.855   2.522  0.0746  0.0627  0.0519
 5205TIP3    H137250   1.123   2.929   2.574  1.6035 -0.6280  0.2142
 5205TIP3    H237251   1.069   2.788   2.586 -2.9581  0.9287 -0.0277
 5206TIP3   OH237252   1.302   5.626   1.241 -0.2241  0.3441  0.0885
 5206TIP3    H137253   1.271   5.579   1.318 -0.2997 -0.1602 -0.2438
 5206TIP3    H237254   1.254   5.709   1.242 -3.6221 -1.3576 -1.7686
 5207TIP3   OH237255   1.069   2.450   0.091  0.3821 -0.5246 -0.1969
 5207TIP3    H137256   1.072   2.361   0.125  0.2593 -0.3058  0.3973
 5207TIP3    H237257   0.998   2.449   0.027 -0.9433 -0.3929  1.2043
 5208TIP3   OH237258   4.853   2.009   7.452 -0.3968 -0.0981  0.1444
 5208TIP3    H137259   4.847   1.950   7.377 -1.6213  1.5336 -1.1258
 5208TIP3    H237260   4.899   2.086   7.418  0.3794  0.0759  1.5064
 5209TIP3   OH237261   4.140   0.177   0.747 -0.7213 -0.2098 -0.0597
 5209TIP3    H137262   4.191   0.188   0.827  0.7374 -2.4662 -0.5989
 5209TIP3    H237263   4.137   0.265   0.709  1.2355  0.3500  0.9114
 5210TIP3   OH237264   2.734   1.856   6.742  0.3223 -0.2856 -0.4496
 5210TIP3    H137265   2.685   1.788   6.788  0.1858 -0.2785 -0.5854
 5210TIP3    H237266   2.781   1.902   6.812 -1.5232  1.0884 -0.0492
 5211TIP3   OH237267   0.502   4.901   7.898 -0.3289  0.3845 -0.4656
 5211TIP3    H137268   0.527   4.819   7.941  2.3296  1.2439 -0.1644
 5211TIP3    H237269   0.456   4.874   7.819  0.4322 -1.4202 -0.3354
 5212TIP3   OH237270   1.542   5.620   7.073 -0.3515 -0.1871 -0.0665
 5212TIP3    H137271   1.612   5.643   7.013  0.0137 -0.4722  0.2481
 5212TIP3    H237272   1.583   5.562   7.138 -0.1942  1.7981  1.7303
 5213TIP3   OH237273   0.132   1.593   2.466  0.3120 -0.2232  0.7229
 5213TIP3    H137274   0.063   1.588   2.531 -0.4726 -1.5679 -0.1545
 5213TIP3    H237275   0.211   1.566   2.512  0.4776  2.0024  1.9250
 5214TIP3   OH237276   5.552   6.624   7.642  0.4038 -0.4252 -0.3833
 5214TIP3    H137277   5.504   6.568   7.703  0.2278 -2.3569 -2.1459
 5214TIP3    H237278   5.637   6.579   7.632  1.0553  0.7645 -0.3238
 5215TIP3   OH237279   2.887   2.078   1.573 -0.5298 -0.3455 -0.3848
 5215TIP3    H137280   2.837   2.124   1.640 -1.5267 -0.9321 -0.7073
 5215TIP3    H237281   2.837   2.091   1.492  1.8811  2.4343 -1.6208
 5216TIP3   OH237282   1.867   5.931   0.429  0.3698 -0.1064 -0.0483
 5216TIP3    H137283   1.814   6.010   0.416  0.7531  0.1945  0.2042
 5216TIP3    H237284   1.854   5.880   0.349 -0.6500 -0.2420  0.1878
 5217TIP3   OH237285   2.324   4.571   2.521 -0.3423 -0.1148 -0.1025
 5217TIP3    H137286   2.254   4.534   2.468  2.6241 -3.0089 -2.3734
 5217TIP3    H237287   2.324   4.518   2.601  0.3439 -1.3534 -0.8978
 5218TIP3   OH237288   2.083   1.920   1.699 -0.1697 -0.1537 -0.6047
 5218TIP3    H137289   2.155   1.898   1.758  0.2412  2.9386  0.2078
 5218TIP3    H237290   2.011   1.946   1.756 -0.2717  1.4322 -1.4039
 5219TIP3   OH237291   1.187   4.849   1.438  0.1683  0.0652  0.3783
 5219TIP3    H137292   1.116   4.868   1.378 -0.7574  1.8820  1.9549
 5219TIP3    H237293   1.255   4.913   1.417 -0.2729  0.8928  1.4073
 5220TIP3   OH237294   6.578   2.795   7.530 -0.0281  0.0826  0.5994
 5220TIP3    H137295   6.646   2.794   7.597  0.4120  0.4181  0.1647
 5220TIP3    H237296   6.614   2.848   7.459 -0.7963  0.3891  0.4176
 5221TIP3   OH237297   3.926   5.774   8.155  0.1031 -0.0569  0.3265
 5221TIP3    H137298   3.838   5.743   8.134  0.4798 -2.2174  1.5644
 5221TIP3    H237299   3.911   5.850   8.211 -1.0559 -1.0353  1.4420
 5222TIP3   OH237300   5.903   5.720   7.970  0.5422  0.3861  0.0620
 5222TIP3    H137301   5.943   5.783   8.030  0.9139  0.5893 -0.3885
 5222TIP3    H237302   5.971   5.654   7.955  0.7272  0.7324 -0.7078
 5223TIP3   OH237303   2.868   0.488   7.789 -0.7168  0.9107  0.0294
 5223TIP3    H137304   2.881   0.565   7.734 -0.9808 -0.3819 -1.9533
 5223TIP3    H237305   2.884   0.414   7.730 -1.8273 -0.5620  1.5001
 5224TIP3   OH237306   0.364   0.266   7.357  0.2642 -0.1238 -0.2094
 5224TIP3    H137307   0.422   0.282   7.283 -0.2482 -1.4948 -0.9448
 5224TIP3    H237308   0.370   0.345   7.411  1.1034  0.6426 -1.4016
 5225TIP3   OH237309   3.100   3.772   1.508  0.3525  0.0388 -0.0120
 5225TIP3    H137310   3.117   3.791   1.601 -4.2259 -0.1389  1.0791
 5225TIP3    H237311   3.080   3.857   1.469  0.9769 -0.0467 -0.5352
 5226TIP3   OH237312   6.896   1.680   7.234  0.4373 -0.1307  0.0959
 5226TIP3    H137313   6.862   1.708   7.319  1.0204 -0.8510  0.5737
 5226TIP3    H237314   6.817   1.665   7.181  0.0498 -0.2409  0.6891
 5227TIP3   OH237315   5.289   2.720   0.055 -0.4676  0.0149 -0.1463
 5227TIP3    H137316   5.362   2.746   0.111 -0.7171  0.1282  0.1260
 5227TIP3    H237317   5.329   2.703  -0.030 -0.1829  0.5099 -0.1146
 5228TIP3   OH237318   4.329   5.504   0.166 -0.1720 -0.0580 -0.1892
 5228TIP3    H137319   4.315   5.410   0.178 -2.3014  0.3622  1.3157
 5228TIP3    H237320   4.264   5.529   0.100 -0.5074  0.5349  0.3562
 5229TIP3   OH237321   5.329   3.788   0.594 -0.1474 -0.0315 -0.1406
 5229TIP3    H137322   5.366   3.856   0.538  0.4233 -0.2964 -0.1033
 5229TIP3    H237323   5.245   3.823   0.623  0.4111  0.9304  0.3881
 5230TIP3   OH237324   6.289   6.862   8.118  0.1846 -0.3919  0.8009
 5230TIP3    H137325   6.246   6.782   8.087  0.5704  0.0264 -0.9206
 5230TIP3    H237326   6.361   6.876   8.057 -0.2200  1.5873  0.7035
 5231TIP3   OH237327   0.952   0.336   6.787  0.0851 -0.4296 -0.4853
 5231TIP3    H137328   1.030   0.284   6.770  0.9675 -0.1407  2.1620
 5231TIP3    H237329   0.952   0.402   6.718  3.3875  0.7997  0.4963
 5232TIP3   OH237330   6.081   3.089   1.978  0.3736 -0.0653 -0.3438
 5232TIP3    H137331   6.017   3.019   1.972  1.1114 -0.8348  0.4941
 5232TIP3    H237332   6.029   3.169   1.985 -0.5314 -0.7601  1.3218
 5233TIP3   OH237333   0.627   2.639   0.959 -0.0730 -0.6741  0.2697
 5233TIP3    H137334   0.532   2.629   0.970  0.0499 -0.5516  1.6799
 5233TIP3    H237335   0.664   2.599   1.038  0.9920  0.3466  0.3107
 5234TIP3   OH237336   0.305   1.370   0.343 -0.4099  0.1558 -0.5241
 5234TIP3    H137337   0.282   1.360   0.250  1.1411  0.4378 -0.9602
 5234TIP3    H237338   0.369   1.441   0.344  1.3750 -1.4003  0.4772
 5235TIP3   OH237339   3.794   2.418   7.563  0.2732  0.1284  0.1776
 5235TIP3    H137340   3.860   2.472   7.607  2.1505 -1.2297 -0.8240
 5235TIP3    H237341   3.837   2.386   7.484 -1.3719 -1.3633 -0.1867
 5236TIP3   OH237342   1.902   0.547   7.954  0.0010  0.0903  0.5227
 5236TIP3    H137343   1.887   0.618   8.017  1.8297  0.5046  0.5451
 5236TIP3    H237344   1.889   0.589   7.869  0.3797  0.2686  0.5527
 5237TIP3   OH237345   1.447   0.661   6.644  0.7404 -0.6098  0.1537
 5237TIP3    H137346   1.446   0.684   6.551 -1.9887 -0.4549  0.1391
 5237TIP3    H237347   1.447   0.745   6.690 -1.7819 -0.5596  0.1849
 5238TIP3   OH237348   3.446   4.138   2.137 -0.0736 -0.2434 -0.9945
 5238TIP3    H137349   3.406   4.221   2.161 -1.2930 -0.8312 -0.9525
 5238TIP3    H237350   3.490   4.109   2.217 -0.6863 -0.2325 -0.6505
 5239TIP3   OH237351   5.517   5.282   0.772  0.3679 -0.0404 -0.1504
 5239TIP3    H137352   5.531   5.365   0.725  3.2948 -0.4002 -0.0718
 5239TIP3    H237353   5.522   5.215   0.704 -0.1917 -0.2946  0.0492
 5240TIP3   OH237354   0.445   6.225   0.254  0.1723  0.0308  0.4449
 5240TIP3    H137355   0.468   6.192   0.167  0.4950 -0.4741  0.7192
 5240TIP3    H237356   0.468   6.154   0.314 -1.4672 -0.2139  0.8087
 5241TIP3   OH237357   0.510   6.489   7.635 -0.2026 -0.5675 -0.5033
 5241TIP3    H137358   0.448   6.562   7.642  1.5963  0.8566  2.7302
 5241TIP3    H237359   0.574   6.517   7.569  1.0898  1.4166  1.4770
 5242TIP3   OH237360   6.909   2.378   8.021  0.3925  0.2050  0.0648
 5242TIP3    H137361   6.969   2.410   8.087 -0.9379  0.1935  1.3378
 5242TIP3    H237362   6.958   2.311   7.974  0.2437 -2.8932  3.7752
 5243TIP3   OH237363   6.111   1.422   0.874  0.4512 -0.0011  0.0799
 5243TIP3    H137364   6.076   1.371   0.801 -1.3494 -0.0584  0.9415
 5243TIP3    H237365   6.148   1.500   0.833  0.8066 -0.7208 -1.0123
 5244TIP3   OH237366   3.052   4.856   7.950 -0.0560  0.8039 -0.2647
 5244TIP3    H137367   3.049   4.945   7.985  0.2596  0.8161 -0.2627
 5244TIP3    H237368   3.009   4.862   7.865  0.6804  1.1326 -0.6216
 5245TIP3   OH237369   3.776   4.433   0.531 -0.1673  0.2263  0.4554
 5245TIP3    H137370   3.804   4.427   0.440  2.0515 -0.5989  1.1434
 5245TIP3    H237371   3.747   4.524   0.541 -0.4365  0.3240 -1.0544
 5246TIP3   OH237372   3.675   1.485   7.042  0.5414 -0.4795 -0.0645
 5246TIP3    H137373   3.639   1.438   6.966  0.3925 -0.9688  0.3073
 5246TIP3    H237374   3.606   1.547   7.067  2.0851  2.7673 -2.8914
 5247TIP3   OH237375   4.656   1.061   1.277  0.0433  0.1193  0.8102
 5247TIP3    H137376   4.723   1.097   1.336  3.0850 -1.8181 -1.1210
 5247TIP3    H237377   4.577   1.056   1.331  2.1846 -0.1204  4.2824
 5248TIP3   OH237378   5.906   6.363   8.009 -0.1458  0.0542  0.6192
 5248TIP3    H137379   5.955   6.381   7.929  0.0173 -3.2918 -0.2107
 5248TIP3    H237380   5.826   6.415   8.000 -0.0688 -0.1164 -1.6869
 5249TIP3   OH237381   5.089   1.687   2.314 -0.4686 -0.0630 -0.2815
 5249TIP3    H137382   5.124   1.707   2.400  0.1558  0.4324 -0.6365
 5249TIP3    H237383   5.009   1.740   2.308 -0.1643  0.4101 -0.2488
 5250TIP3   OH237384   1.014   4.869   0.197 -0.2606  0.1035 -0.0983
 5250TIP3    H137385   0.994   4.889   0.288 -0.7285 -0.5050 -0.0589
 5250TIP3    H237386   0.971   4.785   0.181  2.3891 -1.4201  0.0545
 5251TIP3   OH237387   5.914   5.270   1.293  0.1877 -0.2117 -0.0382
 5251TIP3    H137388   5.920   5.183   1.334  1.5263 -0.6241 -1.0291
 5251TIP3    H237389   5.821   5.281   1.274 -0.2591 -0.6511  1.6897
 5252TIP3   OH237390   5.438   6.664   1.340 -0.2276  0.1058 -0.8345
 5252TIP3    H137391   5.393   6.636   1.421 -1.8626  0.8520 -1.4295
 5252TIP3    H237392   5.385   6.738   1.309  2.3395  2.0916 -0.7926
 5253TIP3   OH237393   6.713   1.494   0.965  0.0406 -0.3153  0.3198
 5253TIP3    H137394   6.760   1.412   0.952 -1.9630 -1.7253  1.4705
 5253TIP3    H237395   6.683   1.491   1.056 -0.5788  1.4403  0.2190
 5254TIP3   OH237396   4.659   4.835   6.735  0.2021 -0.5714 -0.3892
 5254TIP3    H137397   4.737   4.877   6.699 -0.0272 -0.8753 -1.2576
 5254TIP3    H237398   4.612   4.801   6.659 -0.7862 -0.3865  0.1234
 5255TIP3   OH237399   6.961   2.736   0.760  0.5503  0.1109  0.3235
 5255TIP3    H137400   7.034   2.767   0.707  0.2918 -1.3490 -0.9381
 5255TIP3    H237401   6.886   2.733   0.700 -0.6912  1.8837  1.6559
 5256TIP3   OH237402   0.637   5.512   7.391  0.5993  0.5860 -0.8295
 5256TIP3    H137403   0.727   5.485   7.404  0.5573  0.4921 -0.7377
 5256TIP3    H237404   0.619   5.493   7.298  0.7459  0.8177 -0.9061
 5257TIP3   OH237405   0.105   4.569   7.021  0.3437 -0.1456  0.4119
 5257TIP3    H137406   0.052   4.519   7.083 -0.1037  1.6953  1.6091
 5257TIP3    H237407   0.061   4.557   6.937  0.8124 -2.4751  0.4267
 5258TIP3   OH237408   2.447   2.184   2.261  0.6587  0.2978 -0.3682
 5258TIP3    H137409   2.482   2.100   2.231  0.0111 -0.1754  0.1898
 5258TIP3    H237410   2.441   2.176   2.356 -0.1021  0.7064 -0.3755
 5259TIP3   OH237411   3.456   0.365   0.019  0.1574  0.1758 -0.2982
 5259TIP3    H137412   3.476   0.344  -0.072 -0.6397  0.9116 -0.6581
 5259TIP3    H237413   3.476   0.459   0.027  1.6182 -0.1763  0.6930
 5260TIP3   OH237414   1.540   6.509   6.691  0.2460  0.2496  0.1526
 5260TIP3    H137415   1.446   6.520   6.678  0.3802  0.5132 -0.6826
 5260TIP3    H237416   1.550   6.417   6.717 -0.1470 -0.1289 -0.9625
 5261TIP3   OH237417   2.572   6.032   1.426  0.3578  0.2794 -0.5009
 5261TIP3    H137418   2.648   6.049   1.483 -0.8528  0.3089  1.1779
 5261TIP3    H237419   2.506   6.095   1.455 -0.8771 -0.8500 -0.7735
 5262TIP3   OH237420   3.501   2.922   7.698  0.1103 -0.1539 -0.0619
 5262TIP3    H137421   3.442   2.850   7.718  0.1762 -0.2188 -0.1017
 5262TIP3    H237422   3.448   2.984   7.648 -0.1926  0.2261  0.7029
 5263TIP3   OH237423   6.735   3.674   1.760  0.0306  0.2159 -0.2189
 5263TIP3    H137424   6.811   3.658   1.704  1.3878  1.4195  1.2044
 5263TIP3    H237425   6.719   3.589   1.802 -0.4341 -0.4544 -1.6676
 5264TIP3   OH237426   3.156   2.071   2.464 -0.4606 -0.4060  0.9950
 5264TIP3    H137427   3.238   2.071   2.414 -0.3794 -1.4860  1.1226
 5264TIP3    H237428   3.181   2.101   2.551 -0.5970  1.4712  0.4331
 5265TIP3   OH237429   2.370   5.691   7.381  0.2729 -0.0971 -0.2701
 5265TIP3    H137430   2.287   5.642   7.374  0.2089 -0.2427  1.2693
 5265TIP3    H237431   2.420   5.662   7.305  1.0513 -4.1519  1.5024
 5266TIP3   OH237432   1.644   5.807   7.606 -0.1031  0.3768 -0.7459
 5266TIP3    H137433   1.648   5.877   7.540 -1.5905  1.6984  0.4747
 5266TIP3    H237434   1.630   5.727   7.555  2.3482  0.8007 -2.2245
 5267TIP3   OH237435   6.479   6.880   6.825 -0.5539 -0.7456  0.5381
 5267TIP3    H137436   6.436   6.802   6.790 -0.2329 -1.1727  1.0861
 5267TIP3    H237437   6.470   6.945   6.755 -1.9260 -0.8669  0.5756
 5268TIP3   OH237438   6.308   0.319   0.136 -0.2296  0.2665  0.3736
 5268TIP3    H137439   6.373   0.264   0.093  0.8756  1.7513  0.0689
 5268TIP3    H237440   6.284   0.384   0.070 -1.0404  0.5360  0.9164
 5269TIP3   OH237441   4.667   6.864   1.700 -0.3709  0.1977  0.1335
 5269TIP3    H137442   4.733   6.865   1.630  1.0054 -1.8861  1.2718
 5269TIP3    H237443   4.674   6.951   1.740  0.9621  0.3960 -0.4581
 5270TIP3   OH237444   4.427   5.462   3.022 -0.0302  0.2074 -0.1657
 5270TIP3    H137445   4.366   5.498   3.087 -1.3459 -2.4349  0.1902
 5270TIP3    H237446   4.501   5.431   3.075  0.0456  0.2850 -0.2252
 5271TIP3   OH237447   2.545   6.386   0.016 -0.7844 -0.1588 -0.0315
 5271TIP3    H137448   2.465   6.377   0.067  1.1292  0.7643  3.4916
 5271TIP3    H237449   2.547   6.478  -0.010 -0.6639 -0.0526  0.3402
 5272TIP3   OH237450   3.741   0.774   0.665  0.0202  0.1254 -0.0805
 5272TIP3    H137451   3.685   0.797   0.739 -0.1994  1.4435 -0.6183
 5272TIP3    H237452   3.680   0.765   0.591  0.3946  0.3980 -0.4261
 5273TIP3   OH237453   4.145   4.832   2.089  0.2092 -0.3033  0.5844
 5273TIP3    H137454   4.218   4.894   2.090  0.4064 -0.5332  1.5858
 5273TIP3    H237455   4.067   4.888   2.091  0.3035 -0.0321 -1.2689
 5274TIP3   OH237456   0.036   2.528   0.744 -0.7976 -0.3490 -0.3818
 5274TIP3    H137457  -0.035   2.593   0.739 -0.1369  0.4119 -0.1072
 5274TIP3    H237458   0.039   2.502   0.836  0.1026  0.5820 -0.1296
 5275TIP3   OH237459   1.026   1.156   6.583 -0.5081 -0.6885  0.5373
 5275TIP3    H137460   1.108   1.198   6.610 -0.2077 -1.1920  0.4063
 5275TIP3    H237461   0.960   1.193   6.642 -0.1740 -0.3567  0.7085
 5276TIP3   OH237462   2.512   2.816   1.100 -0.1862 -0.2431 -0.2671
 5276TIP3    H137463   2.606   2.798   1.095 -0.0416 -0.1076  1.4758
 5276TIP3    H237464   2.507   2.901   1.142 -1.1128 -0.6140  0.3894
 5277TIP3   OH237465   6.600   3.613   0.873  0.2166 -0.1232 -0.1512
 5277TIP3    H137466   6.555   3.563   0.941  1.7733  0.3689  1.3077
 5277TIP3    H237467   6.689   3.625   0.906  0.9217  0.4994 -2.1021
 5278TIP3   OH237468   0.187   4.172   6.326 -0.2927  0.6822  0.1964
 5278TIP3    H137469   0.250   4.103   6.306  0.5475  1.5182 -0.1701
 5278TIP3    H237470   0.106   4.126   6.347 -0.2646 -0.3824 -1.7702
 5279TIP3   OH237471   2.230   0.296   2.190 -0.1288 -0.5615 -0.4293
 5279TIP3    H137472   2.184   0.213   2.189  0.3788 -0.8814  0.6619
 5279TIP3    H237473   2.161   0.362   2.181 -0.8909 -1.0085  1.5680
 5280TIP3   OH237474   5.040   5.401   0.310  0.8170 -0.1939  0.0177
 5280TIP3    H137475   5.024   5.321   0.360  2.7910 -1.1620 -0.7985
 5280TIP3    H237476   5.096   5.373   0.238  0.6016  1.7431 -0.9516
 5281TIP3   OH237477   1.188   3.832   0.048  0.1885 -0.0093 -0.2732
 5281TIP3    H137478   1.116   3.796   0.100  0.6008 -0.9061 -0.3106
 5281TIP3    H237479   1.229   3.896   0.106  0.4657 -0.7957  0.4272
 5282TIP3   OH237480   3.681   0.078   7.923 -0.0257 -0.2230  0.6225
 5282TIP3    H137481   3.647   0.098   7.836  0.9432 -0.0748  0.2660
 5282TIP3    H237482   3.603   0.072   7.978 -0.5983  0.5831 -0.0641
 5283TIP3   OH237483   6.582   6.402   1.666 -0.4570 -0.2280 -0.2086
 5283TIP3    H137484   6.595   6.465   1.737  2.6497 -0.9080 -0.0414
 5283TIP3    H237485   6.538   6.452   1.597  2.1742  2.3400 -0.2294
 5284TIP3   OH237486   2.564   3.075   1.210 -0.7149  0.1522 -0.0156
 5284TIP3    H137487   2.535   3.123   1.133 -0.6404 -0.8274 -0.6770
 5284TIP3    H237488   2.505   3.104   1.280  0.9710  3.1455  0.2997
 5285TIP3   OH237489   5.626   0.220   7.443  0.0114 -0.7177 -0.2662
 5285TIP3    H137490   5.653   0.200   7.353  0.9406  0.4737 -0.2838
 5285TIP3    H237491   5.708   0.238   7.488 -0.5415 -0.1254  0.5134
 5286TIP3   OH237492   6.051   3.740   7.068 -0.2683  0.6049  0.8841
 5286TIP3    H137493   6.117   3.721   7.135 -0.1513  0.4891  0.7354
 5286TIP3    H237494   6.080   3.823   7.029  0.1765  0.1964  0.3357
 5287TIP3   OH237495   6.544   2.280   1.601  0.4393 -0.2181  0.6167
 5287TIP3    H137496   6.451   2.299   1.596  0.1463 -1.8885 -1.5263
 5287TIP3    H237497   6.551   2.207   1.662  0.1391 -1.0189 -0.2807
 5288TIP3   OH237498   3.852   5.958   7.312 -0.6423 -0.0572  0.0702
 5288TIP3    H137499   3.807   5.962   7.397 -0.7373 -1.3547  0.1016
 5288TIP3    H237500   3.930   5.905   7.329 -0.3783  0.1264 -0.5423
 5289TIP3   OH237501   0.252   1.866   7.887  0.5363  0.2199 -0.6315
 5289TIP3    H137502   0.248   1.939   7.948  1.4717  0.2637 -0.6165
 5289TIP3    H237503   0.197   1.798   7.927  0.5903  0.4975 -0.0896
 5290TIP3   OH237504   5.008   0.939   8.104 -0.3277  0.0356 -0.1165
 5290TIP3    H137505   5.039   1.013   8.157  0.6800  0.3641 -1.1301
 5290TIP3    H237506   5.058   0.945   8.023 -0.9452 -1.1956 -0.6117
 5291TIP3   OH237507   0.765   1.706   7.392  0.1362  0.7265 -0.1458
 5291TIP3    H137508   0.696   1.772   7.385  1.5729  2.4098  0.8266
 5291TIP3    H237509   0.729   1.638   7.449 -1.6948  0.1497 -1.8612
 5292TIP3   OH237510   2.137   1.304   6.646  0.2157 -0.1713  0.3897
 5292TIP3    H137511   2.158   1.237   6.581 -0.5726  0.6046 -0.6882
 5292TIP3    H237512   2.172   1.385   6.609 -0.2126  0.2788  0.9527
 5293TIP3   OH237513   2.766   0.516   0.947 -0.1858  0.0865  0.2148
 5293TIP3    H137514   2.725   0.430   0.935 -0.6592  0.1913  1.0233
 5293TIP3    H237515   2.695   0.579   0.934  0.6363  0.5328 -2.8819
 5294TIP3   OH237516   2.865   2.090   7.185 -0.0009  0.1700 -0.4434
 5294TIP3    H137517   2.810   2.049   7.119 -0.2566 -0.9756  0.4304
 5294TIP3    H237518   2.945   2.116   7.138 -0.3191 -0.2919 -1.2566
 5295TIP3   OH237519   2.147   1.673   7.503  0.1092 -0.6435 -0.4705
 5295TIP3    H137520   2.208   1.605   7.530 -1.9130 -1.4973  2.3932
 5295TIP3    H237521   2.178   1.752   7.548 -0.4310 -0.8867  0.3328
 5296TIP3   OH237522   6.889   5.043   1.093 -0.1435  0.1967 -0.0464
 5296TIP3    H137523   6.960   4.981   1.109 -0.3664 -0.0130  0.1334
 5296TIP3    H237524   6.903   5.073   1.003 -1.3788 -1.9141 -1.0283
 5297TIP3   OH237525   3.466   1.031   6.725 -0.1664 -0.9789 -0.3338
 5297TIP3    H137526   3.420   1.115   6.717  0.5919 -0.4218  0.7138
 5297TIP3    H237527   3.448   0.985   6.643  0.5110  0.7771 -1.5304
 5298TIP3   OH237528   0.600   4.558   0.202  0.5211  0.1336  0.4839
 5298TIP3    H137529   0.528   4.518   0.152  0.1662  2.2938 -0.8620
 5298TIP3    H237530   0.583   4.652   0.198  3.0323  0.6688  0.7456
 5299TIP3   OH237531   5.641   5.465   2.594 -0.1052 -0.6346  0.8063
 5299TIP3    H137532   5.643   5.378   2.634 -0.0240 -0.6105  0.8556
 5299TIP3    H237533   5.697   5.457   2.516 -0.9909 -0.9284  0.1854
 5300TIP3   OH237534   2.283   0.674   0.961  0.2994  0.1472  0.6390
 5300TIP3    H137535   2.330   0.591   0.956  1.1773  0.5912  1.3056
 5300TIP3    H237536   2.348   0.736   0.992 -0.5579  0.9272  0.9000
 5301TIP3   OH237537   3.024   1.789   7.329  0.0864 -0.1644 -0.2463
 5301TIP3    H137538   2.979   1.757   7.251 -0.2531 -0.9293  0.2547
 5301TIP3    H237539   3.050   1.879   7.307  2.0653 -1.0989 -2.1192
 5302TIP3   OH237540   0.164   4.415   3.181 -0.2079 -0.2116 -0.4123
 5302TIP3    H137541   0.255   4.393   3.164  0.4398  0.8393  1.4622
 5302TIP3    H237542   0.147   4.492   3.127  0.6901  0.8705  0.7910
 5303TIP3   OH237543   1.764   6.320   1.735  0.0205  0.1251 -0.3499
 5303TIP3    H137544   1.784   6.248   1.795 -0.1463 -0.7121 -1.2782
 5303TIP3    H237545   1.778   6.399   1.788 -1.0623 -0.5884  1.0889
 5304TIP3   OH237546   1.882   0.314   2.326 -0.2325  0.6287  0.6185
 5304TIP3    H137547   1.964   0.278   2.359 -0.1767  0.6223  0.4739
 5304TIP3    H237548   1.817   0.290   2.392  0.0389  1.4024  1.1776
 5305TIP3   OH237549   0.820   0.345   7.037 -0.5303  0.5429  0.1209
 5305TIP3    H137550   0.853   0.335   6.947 -0.6643 -2.6125  0.3196
 5305TIP3    H237551   0.889   0.393   7.083  0.6962 -0.0102 -1.0779
 5306TIP3   OH237552   6.193   3.008   6.782  0.0201 -0.3373 -0.0843
 5306TIP3    H137553   6.155   2.921   6.785 -1.0603  0.1117 -0.1610
 5306TIP3    H237554   6.125   3.063   6.742  1.4970  0.1275 -2.1364
 5307TIP3   OH237555   5.020   6.268   1.124 -0.2335 -0.6390  0.0437
 5307TIP3    H137556   4.937   6.308   1.097 -1.0829 -1.8021  0.8126
 5307TIP3    H237557   5.037   6.201   1.058  0.8261  0.4552 -0.8537
 5308TIP3   OH237558   4.131   6.418   0.164 -0.4530 -0.2896 -0.6716
 5308TIP3    H137559   4.216   6.405   0.121 -0.6110  1.5599 -1.6061
 5308TIP3    H237560   4.153   6.450   0.252 -0.1590  1.0348 -1.2059
 5309TIP3   OH237561   2.587   3.407   2.373  0.1794 -0.0535 -0.3663
 5309TIP3    H137562   2.521   3.470   2.345  0.6478  0.5623 -0.0879
 5309TIP3    H237563   2.537   3.341   2.422 -0.3633 -0.1150 -0.9810
 5310TIP3   OH237564   3.456   0.552   8.001 -0.0342 -1.3821  0.5284
 5310TIP3    H137565   3.438   0.467   7.961  0.2713 -1.6819  1.0234
 5310TIP3    H237566   3.386   0.609   7.969  0.2709 -1.5872 -0.5227
 5311TIP3   OH237567   1.552   5.383   7.690  0.1198 -0.1125  0.3748
 5311TIP3    H137568   1.535   5.299   7.732 -0.3488 -0.4886 -0.5378
 5311TIP3    H237569   1.591   5.437   7.759  1.4963 -1.4222  0.6734
 5312TIP3   OH237570   0.726   2.060   0.163  0.2742 -0.3980  0.2534
 5312TIP3    H137571   0.637   2.030   0.142  0.5103 -1.2118  0.3868
 5312TIP3    H237572   0.765   2.080   0.078  0.2996 -1.0326  0.1083
 5313TIP3   OH237573   6.370   1.507   6.699  0.2133 -0.1216  0.6138
 5313TIP3    H137574   6.428   1.577   6.730  0.4606  0.2038 -0.5533
 5313TIP3    H237575   6.296   1.509   6.760  1.1213 -0.1373  1.7583
 5314TIP3   OH237576   1.199   1.659   7.164 -0.6546 -0.3825  0.1133
 5314TIP3    H137577   1.267   1.656   7.232  0.7825 -1.9001 -1.3040
 5314TIP3    H237578   1.204   1.749   7.131 -1.5713  0.4769  2.1168
 5315TIP3   OH237579   2.023   6.232   1.278  0.2773  0.2557 -0.4877
 5315TIP3    H137580   1.971   6.233   1.197 -0.6619  0.4128  0.1075
 5315TIP3    H237581   1.961   6.254   1.347  0.1669 -3.3379  0.8044
 5316TIP3   OH237582   4.940   0.835   2.332 -0.1523  0.2402  0.4737
 5316TIP3    H137583   4.899   0.913   2.370 -0.4909 -0.2095  1.0466
 5316TIP3    H237584   4.892   0.762   2.371 -1.3100 -0.2340 -1.6813
 5317TIP3   OH237585   0.008   4.397   0.663 -0.2468 -0.1722  0.1533
 5317TIP3    H137586   0.073   4.424   0.729  0.2856  0.0565 -0.4546
 5317TIP3    H237587   0.060   4.369   0.588 -0.8233  1.4502 -0.9236
 5318TIP3   OH237588   5.908   5.056   0.182 -0.4762 -0.1405  0.7478
 5318TIP3    H137589   5.922   5.044   0.088  1.8641  0.1099  0.9975
 5318TIP3    H237590   5.879   5.147   0.190 -0.4995 -0.1044  0.2709
 5319TIP3   OH237591   0.476   6.559   7.321  0.1630 -1.1677 -0.2949
 5319TIP3    H137592   0.510   6.629   7.376  0.5481 -1.3706 -0.2747
 5319TIP3    H237593   0.551   6.531   7.269  0.0645 -1.7050 -0.1528
 5320TIP3   OH237594   6.677   2.258   2.528  0.0930 -0.6723  0.0165
 5320TIP3    H137595   6.745   2.283   2.466 -1.7111  0.5958 -1.5907
 5320TIP3    H237596   6.708   2.177   2.568  1.7174 -1.0859 -1.9489
 5321TIP3   OH237597   1.307   2.244   6.454 -0.4261 -0.3013 -0.2222
 5321TIP3    H137598   1.252   2.305   6.405  1.0870 -0.1702 -1.8214
 5321TIP3    H237599   1.337   2.295   6.529  1.2425  1.1868 -1.7989
 5322TIP3   OH237600   5.096   4.638   2.065  0.4000  0.2443 -0.0692
 5322TIP3    H137601   5.182   4.654   2.028  0.4481  1.5744  0.5463
 5322TIP3    H237602   5.035   4.680   2.004  0.0900 -1.3325 -0.9018
 5323TIP3   OH237603   1.789   3.498   7.260  0.2968  0.6988 -0.3235
 5323TIP3    H137604   1.821   3.428   7.316 -2.4142 -1.2233 -0.9785
 5323TIP3    H237605   1.823   3.478   7.173  0.1358  0.6058 -0.3659
 5324TIP3   OH237606   4.042   1.358   1.202  0.7162  0.1329  0.4502
 5324TIP3    H137607   3.995   1.369   1.119 -0.5619  1.8043  1.3288
 5324TIP3    H237608   3.982   1.394   1.268  1.2947 -2.0207  2.2473
 5325TIP3   OH237609   5.853   0.416   7.178  0.6474 -0.3110  0.1855
 5325TIP3    H137610   5.944   0.414   7.209  0.6166  1.4724  0.4662
 5325TIP3    H237611   5.819   0.500   7.208 -1.4640 -1.3903  1.0686
 5326TIP3   OH237612   5.692   3.942   0.612  0.1120  0.0943 -0.2774
 5326TIP3    H137613   5.603   3.918   0.584  0.6624 -1.4150 -0.8748
 5326TIP3    H237614   5.726   3.861   0.651  1.1292  0.7387  0.1878
 5327TIP3   OH237615   1.115   6.954   7.150  0.1390  0.9554  0.1282
 5327TIP3    H137616   1.201   6.918   7.172  0.1880  0.3539 -0.9744
 5327TIP3    H237617   1.118   7.044   7.181  1.4378  1.1631 -0.5562
 5328TIP3   OH237618   3.407   6.102   0.171 -0.5801  0.1258  0.0678
 5328TIP3    H137619   3.385   6.145   0.089  2.2910 -1.5143 -1.7591
 5328TIP3    H237620   3.420   6.010   0.148  0.2210 -0.4291  2.3677
 5329TIP3   OH237621   1.865   3.385   0.323 -0.1333 -0.6782  0.4484
 5329TIP3    H137622   1.883   3.295   0.297 -0.8284 -0.9353  0.8247
 5329TIP3    H237623   1.837   3.428   0.242 -0.0420 -0.8622  0.3182
 5330TIP3   OH237624   5.868   0.297   1.184 -0.2012  0.2461  0.0267
 5330TIP3    H137625   5.867   0.202   1.171 -1.4648  0.0495  1.2862
 5330TIP3    H237626   5.795   0.329   1.130 -0.8623  0.2740  0.9109
 5331TIP3   OH237627   4.661   1.671   1.822  0.0528 -0.0062 -0.2329
 5331TIP3    H137628   4.695   1.748   1.776  0.5288 -0.5139 -0.7506
 5331TIP3    H237629   4.729   1.649   1.886  0.6692 -0.9334 -1.1671
 5332TIP3   OH237630   0.680   0.928   1.857 -0.2338 -0.4616  0.3461
 5332TIP3    H137631   0.617   0.856   1.862 -2.0930  1.0099 -0.4501
 5332TIP3    H237632   0.755   0.891   1.812 -1.6274 -1.6232 -1.1503
 5333TIP3   OH237633   4.752   4.174   1.628  0.0006 -0.2091 -0.5785
 5333TIP3    H137634   4.752   4.096   1.573 -0.4876  0.1175 -1.0517
 5333TIP3    H237635   4.764   4.140   1.717 -1.8003 -0.9892 -0.5776
 5334TIP3   OH237636   3.765   1.351   2.441  0.6493 -0.4952 -0.4019
 5334TIP3    H137637   3.771   1.263   2.405 -0.8742 -1.3451  1.2458
 5334TIP3    H237638   3.765   1.409   2.365  2.2251 -1.8567 -1.4907
 5335TIP3   OH237639   1.560   0.329   6.763 -0.0722 -0.2401 -0.1362
 5335TIP3    H137640   1.581   0.320   6.670 -2.4242 -1.1767 -0.6586
 5335TIP3    H237641   1.552   0.239   6.795 -1.0242  0.0589  0.5152
 5336TIP3   OH237642   2.427   1.708   0.816 -0.2107  0.5310  0.1757
 5336TIP3    H137643   2.354   1.673   0.764  1.0156 -1.4227 -0.3287
 5336TIP3    H237644   2.387   1.777   0.868 -2.3382 -0.1410 -0.4298
 5337TIP3   OH237645   0.248   0.114   0.960  0.7524 -0.0997 -0.2352
 5337TIP3    H137646   0.315   0.172   0.996  0.3763 -0.8273  1.7565
 5337TIP3    H237647   0.167   0.140   1.004  0.6323 -2.3013  1.0226
 5338TIP3   OH237648   3.280   4.971   2.226 -0.0099  0.3784 -0.2742
 5338TIP3    H137649   3.340   4.983   2.153 -0.0088 -0.5552 -0.4432
 5338TIP3    H237650   3.213   4.912   2.193  0.3155 -0.5523  0.6356
 5339TIP3   OH237651   5.745   0.891   6.394 -0.2787 -0.2162 -0.1599
 5339TIP3    H137652   5.665   0.939   6.374  0.2656  1.6860  1.8011
 5339TIP3    H237653   5.736   0.865   6.486  1.1300 -0.3738 -0.0328
 5340TIP3   OH237654   0.729   5.069   8.069 -0.1840  0.2598  0.1630
 5340TIP3    H137655   0.742   5.061   8.163 -0.8374 -0.1195  0.2309
 5340TIP3    H237656   0.791   5.007   8.030 -1.3091 -1.1062  0.4469
 5341TIP3   OH237657   3.075   2.860   1.583 -0.2685  0.6803 -0.2375
 5341TIP3    H137658   3.092   2.822   1.497 -0.3023 -0.2031  0.1345
 5341TIP3    H237659   3.003   2.921   1.568  2.5234  3.9675 -1.7121
 5342TIP3   OH237660   1.617   3.009   8.224 -0.1845 -0.2161 -0.3986
 5342TIP3    H137661   1.531   2.998   8.184 -0.3533  0.0322 -0.1079
 5342TIP3    H237662   1.606   3.083   8.284  0.2707 -0.0816 -0.4762
 5343TIP3   OH237663   4.032   1.849   8.130 -0.0769  0.4310 -0.0041
 5343TIP3    H137664   4.125   1.872   8.128 -0.0473  0.2848 -0.4721
 5343TIP3    H237665   4.012   1.823   8.040 -0.4456 -0.0373  0.2062
 5344TIP3   OH237666   5.869   3.409   7.826 -0.1094 -0.3201 -0.0697
 5344TIP3    H137667   5.845   3.317   7.838 -1.9539 -0.1410 -1.7957
 5344TIP3    H237668   5.809   3.457   7.884 -0.1990 -0.1536 -0.2949
 5345TIP3   OH237669   5.089   3.015   7.852  0.3947 -0.4376  0.4275
 5345TIP3    H137670   5.105   2.921   7.842  0.9344 -0.2427 -0.7582
 5345TIP3    H237671   5.147   3.043   7.923 -0.8737 -1.2514  1.8453
 5346TIP3   OH237672   4.928   0.151   7.434  0.0372  0.3387 -0.4356
 5346TIP3    H137673   4.979   0.131   7.356  0.9148 -0.5436  0.3441
 5346TIP3    H237674   4.990   0.191   7.494 -0.9637  2.4725 -0.7213
 5347TIP3   OH237675   5.281   6.178   7.954  0.0210  0.3193  0.1900
 5347TIP3    H137676   5.307   6.090   7.980 -0.0188  0.5511  1.0635
 5347TIP3    H237677   5.193   6.168   7.917  0.2283 -0.0767 -0.1979
 5348TIP3   OH237678   1.216   0.710   6.383  0.1036 -0.1610  0.2124
 5348TIP3    H137679   1.121   0.723   6.383  0.2043  0.5851 -0.2084
 5348TIP3    H237680   1.252   0.791   6.347  0.9534 -0.0816  1.1971
 5349TIP3   OH237681   6.904   0.695   7.047  0.5136 -0.0135  0.2250
 5349TIP3    H137682   6.963   0.767   7.026  0.4053 -0.2158 -0.8225
 5349TIP3    H237683   6.869   0.667   6.962  0.4252 -1.1765  0.6244
 5350TIP3   OH237684   0.094   5.183   1.223 -0.7688  0.3240 -0.8036
 5350TIP3    H137685   0.085   5.098   1.179  1.5507  0.6568 -2.0852
 5350TIP3    H237686   0.165   5.227   1.176 -0.7440  2.2914  0.9295
 5351TIP3   OH237687   6.574   4.284   1.765  0.1320 -0.2037 -0.6579
 5351TIP3    H137688   6.520   4.253   1.691  1.0691 -3.1044 -0.2688
 5351TIP3    H237689   6.539   4.370   1.786 -2.0685 -0.5139 -2.6259
 5352TIP3   OH237690   2.887   6.466   1.894  0.6192 -0.2755  0.3746
 5352TIP3    H137691   2.927   6.549   1.867  1.5786 -0.6232  0.6888
 5352TIP3    H237692   2.814   6.454   1.834 -1.6289  2.4394  2.3342
 5353TIP3   OH237693   1.817   3.125   6.947  0.2017 -0.1726 -0.2231
 5353TIP3    H137694   1.833   3.032   6.931  1.5093  0.1239 -0.6910
 5353TIP3    H237695   1.841   3.138   7.039  3.0974  0.3170 -0.9755
 5354TIP3   OH237696   2.466   6.478   1.201  0.0216  0.1516 -1.1388
 5354TIP3    H137697   2.389   6.422   1.192  0.7219 -0.8516 -1.0845
 5354TIP3    H237698   2.539   6.417   1.211  0.5070  1.0809  1.8113
 5355TIP3   OH237699   2.166   7.066   7.203 -0.6414 -0.0749 -0.1101
 5355TIP3    H137700   2.233   7.076   7.271  0.0877 -0.1176 -0.8076
 5355TIP3    H237701   2.204   7.004   7.141 -0.7388  0.9469 -1.2281
 5356TIP3   OH237702   0.147   6.762   8.134 -0.2904 -0.6783 -0.0681
 5356TIP3    H137703   0.144   6.667   8.124 -1.2551 -0.5462 -1.2423
 5356TIP3    H237704   0.173   6.776   8.225 -0.7262 -2.0608  0.2867
 5357TIP3   OH237705   1.079   1.930   0.024  0.4091 -0.1560  0.4256
 5357TIP3    H137706   1.080   1.872   0.100  2.8324  0.4339  0.9125
 5357TIP3    H237707   1.150   1.898  -0.032 -0.2044  0.4913 -0.7812
 5358TIP3   OH237708   0.417   2.076   0.110  1.0675 -0.1457  0.7941
 5358TIP3    H137709   0.434   2.115   0.024 -1.0577 -0.8775 -0.0177
 5358TIP3    H237710   0.402   2.151   0.167  1.2270  0.3264  0.2267
 5359TIP3   OH237711   6.711   7.031   6.731  0.3602 -0.7404  0.0433
 5359TIP3    H137712   6.645   6.995   6.790 -0.9608 -0.7729 -1.4084
 5359TIP3    H237713   6.663   7.054   6.652  1.9545  0.0335 -0.7420
 5360TIP3   OH237714   4.834   1.856   7.227 -0.3123  0.2623 -0.3655
 5360TIP3    H137715   4.814   1.789   7.293 -1.2785  0.4794 -0.4300
 5360TIP3    H237716   4.793   1.823   7.147  1.7110 -0.5042 -1.1481
 5361TIP3   OH237717   3.113   2.135   7.110 -0.1275  0.6894 -0.5395
 5361TIP3    H137718   3.134   2.042   7.100 -0.3375  0.6319 -0.4473
 5361TIP3    H237719   3.161   2.178   7.040 -0.7441  0.4068 -1.1440
 5362TIP3   OH237720   4.496   4.329   0.596 -0.3687 -0.1621  0.4503
 5362TIP3    H137721   4.492   4.353   0.504  1.2687 -1.5370 -0.0325
 5362TIP3    H237722   4.545   4.400   0.637  1.7644 -1.0201 -0.4046
 5363TIP3   OH237723   3.861   3.195   8.047 -0.7942  0.0825  0.9877
 5363TIP3    H137724   3.821   3.281   8.040 -1.5365 -0.2773  0.7068
 5363TIP3    H237725   3.839   3.151   7.965  1.2992  0.3149  0.2294
 5364TIP3   OH237726   6.236   4.962   1.032 -0.2071 -0.4360 -0.0210
 5364TIP3    H137727   6.224   5.037   0.974 -0.0125 -0.9212 -0.7034
 5364TIP3    H237728   6.221   4.886   0.976  0.3769 -0.9217  0.4663
 5365TIP3   OH237729   5.487   4.369   2.665 -0.0422  0.0564  0.0676
 5365TIP3    H137730   5.538   4.450   2.672  0.1712 -0.1643  1.2645
 5365TIP3    H237731   5.396   4.397   2.674  0.0761  0.0945  1.3750
 5366TIP3   OH237732   2.322   6.979   6.811  0.1028  0.0941 -0.6235
 5366TIP3    H137733   2.339   6.930   6.891 -1.6945  0.1355 -0.1700
 5366TIP3    H237734   2.390   7.047   6.810  2.1367 -1.8331 -0.8508
 5367TIP3   OH237735   0.072   1.435   1.338 -0.2012  0.0629  0.1446
 5367TIP3    H137736   0.064   1.352   1.384 -2.0090 -0.3716 -0.8988
 5367TIP3    H237737  -0.017   1.469   1.333 -0.0196  0.3636 -2.5061
 5368TIP3   OH237738   4.474   4.445   6.943 -0.1974 -0.0226  0.1213
 5368TIP3    H137739   4.437   4.451   7.031  0.2525  0.0060  0.3106
 5368TIP3    H237740   4.511   4.531   6.927  0.4136 -0.2669  0.2151
 5369TIP3   OH237741   5.100   1.826   7.237  0.4416  0.6854 -0.6882
 5369TIP3    H137742   5.009   1.858   7.235 -0.5300 -1.7619  0.5799
 5369TIP3    H237743   5.137   1.853   7.153 -0.4644  4.3084 -0.0812
 5370TIP3   OH237744   3.667   1.278   1.231 -0.3226  0.0507 -0.2030
 5370TIP3    H137745   3.695   1.190   1.255 -1.2025 -0.5925 -1.3965
 5370TIP3    H237746   3.711   1.336   1.293 -1.9928 -1.4158  2.5246
 5371TIP3   OH237747   1.665   1.572   8.109  0.4372 -0.0624 -0.3639
 5371TIP3    H137748   1.701   1.533   8.029  0.5609 -0.2448 -0.2214
 5371TIP3    H237749   1.571   1.560   8.102  0.5388 -1.2406  0.1187
 5372TIP3   OH237750   1.859   2.509   1.187  0.1240  0.1662 -0.0192
 5372TIP3    H137751   1.955   2.504   1.187  0.1007 -1.1933 -1.5890
 5372TIP3    H237752   1.838   2.550   1.103 -0.6616  1.1564  0.6497
 5373TIP3   OH237753   1.204   3.241   8.095  0.6308 -0.2074 -0.3263
 5373TIP3    H137754   1.252   3.215   8.174 -0.2520 -1.9753 -0.3158
 5373TIP3    H237755   1.124   3.283   8.129  0.9747  0.4459 -0.3127
 5374TIP3   OH237756   2.387   7.031   1.641 -0.1196 -0.4169  0.4767
 5374TIP3    H137757   2.422   6.943   1.623  1.9479  0.4633 -0.0834
 5374TIP3    H237758   2.424   7.086   1.572 -0.4582  1.1109  1.4566
 5375TIP3   OH237759   1.144   6.158   0.532  0.5332 -0.2408  0.6153
 5375TIP3    H137760   1.159   6.173   0.438  2.5963 -1.8490  0.6081
 5375TIP3    H237761   1.227   6.180   0.573 -0.0118 -0.5901  1.9563
 5376TIP3   OH237762   2.123   0.851   0.778  0.7465  0.0303 -0.0572
 5376TIP3    H137763   2.193   0.849   0.713  2.0407 -0.4376  1.2821
 5376TIP3    H237764   2.154   0.792   0.847 -0.0631  1.3436  1.4830
 5377TIP3   OH237765   0.555   2.613   0.553  0.7030  0.6493  0.3259
 5377TIP3    H137766   0.473   2.565   0.566  2.1471 -2.8962 -1.8769
 5377TIP3    H237767   0.621   2.557   0.593  2.2372  2.5505  0.5622
 5378TIP3   OH237768   6.856   6.789   2.071  0.0919 -0.0584  0.5152
 5378TIP3    H137769   6.906   6.737   2.133  1.5498  3.4189  2.5824
 5378TIP3    H237770   6.769   6.795   2.109  0.6893  1.1739  1.7897
 5379TIP3   OH237771   1.470   3.919   1.880 -0.0524  0.1496  0.0052
 5379TIP3    H137772   1.530   3.952   1.946  2.9748 -3.7107 -0.4596
 5379TIP3    H237773   1.398   3.880   1.929  0.4662  0.2550  0.8599
 5380TIP3   OH237774   1.128   5.559   1.574  0.1952 -0.3289 -0.3024
 5380TIP3    H137775   1.190   5.581   1.644  0.0457  0.6918 -0.4854
 5380TIP3    H237776   1.080   5.640   1.558  0.9544 -0.2414 -2.3455
 5381TIP3   OH237777   2.906   6.060   0.908  0.7980  0.2148  0.0726
 5381TIP3    H137778   2.888   6.028   0.820  1.9131 -1.1634  0.3111
 5381TIP3    H237779   2.822   6.094   0.939 -0.4938 -2.3909 -0.2829
 5382TIP3   OH237780   0.898   5.163   1.726  0.5436 -0.5271 -0.0707
 5382TIP3    H137781   0.906   5.257   1.715  0.8772 -0.6371 -0.7908
 5382TIP3    H237782   0.909   5.126   1.638 -2.9071 -1.0521 -0.4368
 5383TIP3   OH237783   4.288   3.776   0.465 -0.4950  0.2683  0.1752
 5383TIP3    H137784   4.345   3.839   0.510 -0.6446 -0.3907  1.3283
 5383TIP3    H237785   4.342   3.741   0.395 -0.6765  2.2688 -1.0574
 5384TIP3   OH237786   0.854   5.007   0.698  0.2635  0.3116  0.9100
 5384TIP3    H137787   0.826   4.981   0.786  0.3242 -0.4951  0.7064
 5384TIP3    H237788   0.776   5.041   0.656 -0.5157 -1.9934  0.3132
 5385TIP3   OH237789   4.343   3.897   8.114  0.2079  0.3756  0.1638
 5385TIP3    H137790   4.283   3.954   8.065 -0.1186  0.2953  0.4656
 5385TIP3    H237791   4.393   3.852   8.046 -0.4588  0.0350 -0.1107
 5386TIP3   OH237792   3.200   3.135   1.767 -0.1627  0.3964  0.2597
 5386TIP3    H137793   3.108   3.138   1.794  0.2327  0.3427  1.6707
 5386TIP3    H237794   3.250   3.139   1.849  1.0960  0.1543 -0.4638
 5387TIP3   OH237795   5.355   1.175   1.922 -0.8843 -0.5789  1.0214
 5387TIP3    H137796   5.421   1.166   1.991  2.8266 -0.8759 -2.1700
 5387TIP3    H237797   5.318   1.087   1.913 -1.5826 -0.4937  2.6447
 5388TIP3   OH237798   5.484   5.296   7.803 -0.2085  0.0895 -0.0662
 5388TIP3    H137799   5.511   5.240   7.875  1.5981  0.0484 -0.7116
 5388TIP3    H237800   5.562   5.348   7.782 -1.3486  1.7023 -0.5368
 5389TIP3   OH237801   1.524   4.803   0.992 -0.1534  0.2324  0.5976
 5389TIP3    H137802   1.593   4.741   0.969  0.0732 -0.0577  1.9713
 5389TIP3    H237803   1.499   4.843   0.909 -0.7211 -2.1093 -0.4307
 5390TIP3   OH237804   3.202   0.959   2.187 -0.5673 -0.0335  0.2886
 5390TIP3    H137805   3.167   0.870   2.189 -0.4199 -0.2430 -2.6430
 5390TIP3    H237806   3.128   1.012   2.156  0.0199  0.4887 -0.2213
 5391TIP3   OH237807   6.405   2.371   0.716  0.2014 -0.3432 -0.2306
 5391TIP3    H137808   6.369   2.284   0.735  0.1393 -0.9633 -2.8371
 5391TIP3    H237809   6.370   2.427   0.785 -0.0103 -2.2915  1.3589
 5392TIP3   OH237810   2.106   6.878   0.516 -0.1138 -0.1431  1.0769
 5392TIP3    H137811   2.129   6.787   0.532  2.7094  0.4509  0.9865
 5392TIP3    H237812   2.064   6.907   0.597 -0.8306 -1.4510  1.1812
 5393TIP3   OH237813   0.603   2.509   0.263  0.3589  0.1972  0.1667
 5393TIP3    H137814   0.659   2.435   0.289 -0.9446 -0.3831  1.4204
 5393TIP3    H237815   0.539   2.516   0.333 -0.5311  1.5052 -0.7489
 5394TIP3   OH237816   5.917   3.933   1.157 -0.1858  0.2779 -0.6517
 5394TIP3    H137817   5.866   3.879   1.097  1.5426 -0.4861 -1.5132
 5394TIP3    H237818   5.982   3.976   1.101  1.1228 -0.0243  0.5752
 5395TIP3   OH237819   2.408   2.677   1.609  0.7101 -0.2188 -0.3843
 5395TIP3    H137820   2.433   2.611   1.546  0.5249  0.8209 -1.5809
 5395TIP3    H237821   2.376   2.750   1.556 -2.3598 -0.4388  0.9192
 5396TIP3   OH237822   2.023   2.222   7.916  0.1714 -0.2428  0.1184
 5396TIP3    H137823   2.016   2.246   7.824  0.1840 -1.7437 -0.3100
 5396TIP3    H237824   1.934   2.230   7.950 -0.0788 -0.8986 -0.3631
 5397TIP3   OH237825   1.998   4.054   7.425  0.2189 -0.5411  0.2830
 5397TIP3    H137826   1.950   3.997   7.485 -0.3894  0.7554  1.0748
 5397TIP3    H237827   2.068   4.091   7.479  1.3164 -1.3834 -0.5162
 5398TIP3   OH237828   6.652   2.640   7.237  0.2424  0.5153  0.0966
 5398TIP3    H137829   6.699   2.713   7.276  0.4935  0.4936 -0.1594
 5398TIP3    H237830   6.649   2.660   7.143  0.0745  0.3301  0.0596
 5399TIP3   OH237831   2.093   0.789   6.670 -0.4565  0.4363  0.0136
 5399TIP3    H137832   2.103   0.864   6.729 -1.9442  1.2907 -0.7637
 5399TIP3    H237833   2.124   0.821   6.585  0.5775 -0.4172  0.0549
 5400TIP3   OH237834   6.343   5.398   2.215 -0.0311 -0.5332 -0.8450
 5400TIP3    H137835   6.383   5.434   2.136  0.0702 -1.6844 -1.3402
 5400TIP3    H237836   6.325   5.306   2.193  0.9901 -1.1777  0.8227
 5401TIP3   OH237837   1.774   1.643   0.718 -0.1548 -0.1273 -0.1120
 5401TIP3    H137838   1.698   1.590   0.695  0.4506 -1.0812 -0.0049
 5401TIP3    H237839   1.743   1.733   0.716 -1.2239 -0.4886 -0.2793
 5402TIP3   OH237840   2.251   3.493   6.977 -0.1671  0.6857 -0.2288
 5402TIP3    H137841   2.337   3.527   6.951 -0.2124  0.6720 -0.3950
 5402TIP3    H237842   2.205   3.478   6.895  0.7396 -2.1717 -0.3499
 5403TIP3   OH237843   3.029   1.484   7.466 -0.1156 -0.1597 -0.1377
 5403TIP3    H137844   2.994   1.566   7.432  0.3048  0.2009  0.2777
 5403TIP3    H237845   3.072   1.509   7.548  0.5790 -0.6885 -0.3310
 5404TIP3   OH237846   5.328   5.451   8.116 -0.1103  0.2959 -0.1098
 5404TIP3    H137847   5.382   5.530   8.116 -0.6062  0.6913 -2.1259
 5404TIP3    H237848   5.386   5.382   8.086 -0.2816  0.3754 -0.6269
 5405TIP3   OH237849   5.960   1.137   2.130  0.7250 -0.6983  0.3049
 5405TIP3    H137850   5.929   1.212   2.078  1.2705 -0.5635  0.1700
 5405TIP3    H237851   6.041   1.168   2.170  1.9909 -1.8423 -1.2779
 5406TIP3   OH237852   7.043   6.966   2.369  0.0217 -0.2315  0.0538
 5406TIP3    H137853   7.080   7.035   2.424  0.2751 -1.3336  1.3373
 5406TIP3    H237854   7.040   6.889   2.427 -0.3950 -1.2476 -1.2745
 5407TIP3   OH237855   1.757   0.180   7.262 -0.6132  0.5036 -0.5052
 5407TIP3    H137856   1.798   0.122   7.198 -0.1143  1.7996 -1.4081
 5407TIP3    H237857   1.786   0.268   7.237  0.6329  0.9800  2.2581
 5408TIP3   OH237858   2.137   2.802   1.096  0.0316  0.6382  0.2470
 5408TIP3    H137859   2.163   2.732   1.155  0.6720 -0.4725 -1.2729
 5408TIP3    H237860   2.086   2.862   1.150 -1.0354 -1.2771  1.5057
 5409TIP3   OH237861   4.709   4.313   7.118  0.0020 -0.2355  0.1003
 5409TIP3    H137862   4.708   4.236   7.061 -0.7824  0.1900 -0.4788
 5409TIP3    H237863   4.729   4.279   7.205 -2.4111 -1.3903  0.2665
 5410TIP3   OH237864   3.424   5.204   0.536  0.5232  0.4615 -0.4116
 5410TIP3    H137865   3.454   5.124   0.493 -1.3791 -0.4418 -0.1751
 5410TIP3    H237866   3.357   5.175   0.598  1.2644  2.0279  1.2146
 5411TIP3   OH237867   4.927   6.449   7.906 -0.1405  0.2597  0.2931
 5411TIP3    H137868   4.938   6.488   7.819 -2.5601  0.9800  0.2398
 5411TIP3    H237869   5.010   6.465   7.950  1.2582 -0.4111 -1.9695
 5412TIP3   OH237870   5.040   2.563   0.393 -0.0755  0.1905  0.1201
 5412TIP3    H137871   5.017   2.476   0.424 -0.5468  0.7278  1.3576
 5412TIP3    H237872   5.120   2.586   0.440  1.0524 -0.2476 -1.5129
 5413TIP3   OH237873   3.324   1.449   2.736 -0.0655 -0.2805  0.1934
 5413TIP3    H137874   3.351   1.513   2.670 -1.5177  0.8257  0.6252
 5413TIP3    H237875   3.404   1.431   2.785  0.3217  1.4708  0.2749
 5414TIP3   OH237876   6.461   3.489   1.638 -0.5705 -0.6205  0.1759
 5414TIP3    H137877   6.442   3.572   1.682  0.8082  0.6097 -1.4206
 5414TIP3    H237878   6.379   3.464   1.596 -0.4303  1.2113 -1.2975
 5415TIP3   OH237879   5.306   3.569   7.762  0.1019  0.1608 -0.6910
 5415TIP3    H137880   5.384   3.614   7.729 -0.8451  1.2571 -1.5484
 5415TIP3    H237881   5.238   3.636   7.761 -0.6819 -0.5602  0.7967
 5416TIP3   OH237882   0.142   5.445   1.861  0.0344  0.2060 -0.2877
 5416TIP3    H137883   0.051   5.464   1.884  0.7636  2.2862  1.1958
 5416TIP3    H237884   0.187   5.437   1.945  1.7387  2.2062 -0.9132
 5417TIP3   OH237885   2.481   3.838   0.255  0.0258  0.1776  0.4005
 5417TIP3    H137886   2.392   3.855   0.285  0.8064  2.0402  1.8273
 5417TIP3    H237887   2.470   3.810   0.164 -2.0825 -0.9251  0.9267
 5418TIP3   OH237888   5.423   6.446   6.743  0.4061  0.1485 -0.4179
 5418TIP3    H137889   5.348   6.441   6.683  0.2412 -2.2020 -0.1286
 5418TIP3    H237890   5.494   6.479   6.688  0.3207 -2.1502 -2.0873
 5419TIP3   OH237891   4.356   1.583   0.027 -0.2265 -0.4782  0.6474
 5419TIP3    H137892   4.386   1.673   0.041 -2.8266  0.7850 -1.0746
 5419TIP3    H237893   4.348   1.575  -0.068 -1.9648 -1.8186  0.8553
 5420TIP3   OH237894   0.113   2.864   1.680 -0.3459 -0.3669  0.4940
 5420TIP3    H137895   0.121   2.852   1.774 -0.4984 -0.7793  0.4537
 5420TIP3    H237896   0.173   2.936   1.660  0.9025 -1.3195  0.6749
 5421TIP3   OH237897   4.226   2.661   7.585 -0.4655 -0.2432  0.1592
 5421TIP3    H137898   4.203   2.589   7.527 -1.4159  0.6638 -0.6151
 5421TIP3    H237899   4.220   2.623   7.673  0.1199 -1.3841 -0.2721
 5422TIP3   OH237900   3.678   6.765   0.659 -0.6668  0.0525  0.3935
 5422TIP3    H137901   3.749   6.700   0.659  0.0008  0.7704 -0.0812
 5422TIP3    H237902   3.705   6.829   0.725 -0.2417  0.9971 -0.6861
 5423TIP3   OH237903   5.840   3.805   6.846 -0.5207  0.1841  0.5744
 5423TIP3    H137904   5.792   3.747   6.787  1.0690 -2.2350  1.5041
 5423TIP3    H237905   5.893   3.746   6.900  0.6700  2.4929  2.0958
 5424TIP3   OH237906   1.270   1.902   1.673  0.2340 -0.0277  0.1199
 5424TIP3    H137907   1.185   1.946   1.663  0.3516  0.4296  0.9674
 5424TIP3    H237908   1.258   1.816   1.634 -0.3450  0.3644 -0.5787
 5425TIP3   OH237909   0.396   2.371   2.085 -0.1520  0.1024  0.3513
 5425TIP3    H137910   0.483   2.358   2.121 -0.4473  0.5916  1.2915
 5425TIP3    H237911   0.337   2.336   2.152 -0.6465 -2.1256 -1.1320
 5426TIP3   OH237912   6.924   3.981   2.448  0.2631  0.3529 -0.4205
 5426TIP3    H137913   6.832   4.008   2.447 -0.1213 -0.8601 -1.4853
 5426TIP3    H237914   6.927   3.910   2.512  0.1645 -0.4595 -1.2923
 5427TIP3   OH237915   3.385   3.053   6.903  0.7276 -0.3731  0.2390
 5427TIP3    H137916   3.478   3.060   6.880  0.7584 -0.5164  0.3132
 5427TIP3    H237917   3.339   3.052   6.819  1.0507 -4.1627 -0.0956
 5428TIP3   OH237918   4.897   5.220   2.114  0.2030  1.1170 -0.4046
 5428TIP3    H137919   4.846   5.143   2.087 -0.6764  0.1790  3.3441
 5428TIP3    H237920   4.982   5.208   2.072 -0.2379 -1.4228 -0.7357
 5429TIP3   OH237921   4.971   3.377   2.607  0.7204  0.1704  0.0148
 5429TIP3    H137922   5.052   3.381   2.657  0.4886 -1.2154  0.5593
 5429TIP3    H237923   4.947   3.284   2.607 -0.6381  0.4869 -0.5096
 5430TIP3   OH237924   6.257   2.655   6.585  0.4789 -0.6463  0.0072
 5430TIP3    H137925   6.187   2.602   6.548 -0.0308 -0.7731  1.1282
 5430TIP3    H237926   6.315   2.592   6.627  0.8580 -0.4738 -0.2512
 5431TIP3   OH237927   6.457   4.573   0.041 -0.0796  0.2719  0.5574
 5431TIP3    H137928   6.456   4.484   0.005 -2.8492 -0.3344  1.8030
 5431TIP3    H237929   6.547   4.587   0.069  1.0010 -1.1382 -1.8845
 5432TIP3   OH237930   2.175   2.583   7.888 -0.1850 -0.5521 -0.2737
 5432TIP3    H137931   2.241   2.524   7.850  0.6540 -0.5579  1.1094
 5432TIP3    H237932   2.107   2.588   7.821 -1.5270 -5.0147  0.3974
 5433TIP3   OH237933   1.380   4.682   7.198  0.0281  0.4509 -0.4254
 5433TIP3    H137934   1.466   4.723   7.185  1.1152 -1.3808  0.5259
 5433TIP3    H237935   1.373   4.619   7.126  1.7731 -2.8653  2.0351
 5434TIP3   OH237936   1.184   2.066   7.863 -0.9760 -0.0218 -1.1534
 5434TIP3    H137937   1.220   1.980   7.886  0.1218  0.2567 -1.7462
 5434TIP3    H237938   1.247   2.128   7.900 -0.6041  0.4768 -2.5854
 5435TIP3   OH237939   2.058   2.973   1.276 -0.4297  0.6394  0.2018
 5435TIP3    H137940   1.992   3.042   1.271 -0.2222  0.7959 -0.3460
 5435TIP3    H237941   2.079   2.967   1.370 -0.3032  1.4588  0.2309
 5436TIP3   OH237942   5.062   1.486   7.041 -0.6462 -1.0290  0.2300
 5436TIP3    H137943   4.998   1.476   7.112 -0.3561 -2.3842  0.3179
 5436TIP3    H237944   5.035   1.422   6.975 -1.2904  0.6350 -1.2086
 5437TIP3   OH237945   4.242   1.922   0.263  0.0766 -0.3869 -0.2924
 5437TIP3    H137946   4.189   1.846   0.288 -0.2875 -0.0582 -0.0463
 5437TIP3    H237947   4.278   1.954   0.345 -2.7462  1.9112  0.1790
 5438TIP3   OH237948   6.479   1.024   2.595 -0.4597 -0.6198  0.2435
 5438TIP3    H137949   6.455   0.967   2.668 -1.3567 -0.5821 -0.0049
 5438TIP3    H237950   6.406   1.085   2.587  0.4192  0.4749  0.4042
 5439TIP3   OH237951   4.896   5.192   1.555  0.3827  0.0236  0.6072
 5439TIP3    H137952   4.919   5.139   1.479 -0.5028 -1.8523  1.5921
 5439TIP3    H237953   4.822   5.245   1.526  1.2040  0.7069 -0.3441
 5440TIP3   OH237954   0.949   4.817   1.259  0.8639 -0.2322 -0.3762
 5440TIP3    H137955   0.895   4.760   1.205  1.5949  1.0358 -2.6106
 5440TIP3    H237956   0.888   4.859   1.319 -0.3541 -0.2082 -1.5924
 5441TIP3   OH237957   3.259   6.855   6.033  0.0980  0.0436 -0.7305
 5441TIP3    H137958   3.351   6.870   6.052  0.8187 -3.2931 -0.9963
 5441TIP3    H237959   3.217   6.853   6.119  0.6135 -0.3117 -0.4848
 5442TIP3   OH237960   5.778   5.290   0.204  0.4980  0.3105 -0.1103
 5442TIP3    H137961   5.684   5.303   0.191  0.5128  0.1042 -0.4466
 5442TIP3    H237962   5.792   5.306   0.297  0.3534  1.6992 -0.3082
 5443TIP3   OH237963   4.383   7.058   0.355 -0.4045 -0.0575  0.1861
 5443TIP3    H137964   4.478   7.049   0.354 -0.1351  1.9819 -1.8199
 5443TIP3    H237965   4.368   7.149   0.381 -1.5272  0.8151 -2.9902
 5444TIP3   OH237966   0.863   5.229   6.866  0.2074 -0.1515  0.2368
 5444TIP3    H137967   0.785   5.174   6.861 -0.9405  1.4903 -0.7078
 5444TIP3    H237968   0.919   5.197   6.795 -0.7580  0.3129 -0.7650
 5445TIP3   OH237969   7.002   5.540   1.991  0.2405 -0.3389  0.1042
 5445TIP3    H137970   6.963   5.479   2.053 -2.0083  0.9073  0.0243
 5445TIP3    H237971   7.043   5.607   2.047 -0.7244  0.1416  0.2464
 5446TIP3   OH237972   5.585   1.972   7.023  0.2038 -0.3697 -0.2125
 5446TIP3    H137973   5.543   1.936   6.945 -0.4522  0.8552 -0.4563
 5446TIP3    H237974   5.624   1.897   7.067  1.4963 -0.9861 -2.2576
 5447TIP3   OH237975   2.229   1.768   1.260  0.2439 -0.4822  0.2390
 5447TIP3    H137976   2.291   1.695   1.250 -1.2662 -1.6000 -1.5373
 5447TIP3    H237977   2.147   1.726   1.286 -1.1022  0.2983 -2.3964
 5448TIP3   OH237978   2.286   1.109   1.010  0.4733 -0.8754 -0.2061
 5448TIP3    H137979   2.224   1.104   0.937  1.5401 -0.1667 -1.1943
 5448TIP3    H237980   2.328   1.195   1.000  2.6412 -1.9010 -0.4547
 5449TIP3   OH237981   0.882   1.287   2.252  0.5896 -0.0558  0.7624
 5449TIP3    H137982   0.925   1.211   2.291  1.6574  1.1629  2.0979
 5449TIP3    H237983   0.954   1.338   2.214  0.0076  0.7234  0.6836
 5450TIP3   OH237984   6.514   0.886   0.581 -0.3198  0.2480 -0.4781
 5450TIP3    H137985   6.482   0.956   0.637  1.6397  1.6483 -0.9650
 5450TIP3    H237986   6.508   0.807   0.635 -0.4089  1.1917  0.9606
 5451TIP3   OH237987   0.695   6.130   8.041 -0.5154 -0.1466  0.0213
 5451TIP3    H137988   0.790   6.139   8.034 -0.4394 -1.4088 -0.8840
 5451TIP3    H237989   0.668   6.206   8.093  0.9077  0.5622 -0.2144
 5452TIP3   OH237990   1.624   1.508   1.298  0.0653 -0.1443  0.2532
 5452TIP3    H137991   1.679   1.571   1.253 -1.0613  0.9629  0.3626
 5452TIP3    H237992   1.550   1.560   1.331 -0.8236 -1.4980  0.4697
 5453TIP3   OH237993   3.530   0.158   1.784 -0.2436 -0.1248  0.6187
 5453TIP3    H137994   3.580   0.094   1.833 -0.1718  0.1583  0.9209
 5453TIP3    H237995   3.578   0.168   1.702 -0.1597 -0.3287  0.6424
 5454TIP3   OH237996   2.831   3.794   8.030 -0.6109  0.2246 -0.9121
 5454TIP3    H137997   2.921   3.824   8.024 -0.6522  0.6501  0.3674
 5454TIP3    H237998   2.786   3.862   8.080 -1.0977 -1.0906  0.5373
 5455TIP3   OH237999   0.178   2.960   1.101  0.2016  0.1845 -0.5715
 5455TIP3    H138000   0.271   2.939   1.101  0.1790  0.0852 -0.5250
 5455TIP3    H238001   0.143   2.921   1.021  0.0673 -0.3627 -0.2455
 5456TIP3   OH238002   4.614   2.843   2.121  0.2222  0.2465  0.4276
 5456TIP3    H138003   4.696   2.812   2.082  0.9122  0.5412  1.6174
 5456TIP3    H238004   4.573   2.895   2.052  0.5399 -0.7233 -0.5261
 5457TIP3   OH238005   4.926   4.761   1.880  0.4943  0.6075  0.1128
 5457TIP3    H138006   4.927   4.705   1.802  2.2806  0.4005  0.2506
 5457TIP3    H238007   4.839   4.748   1.918 -0.4547  0.7773 -1.8757
 5458TIP3   OH238008   6.846   1.657   7.910  0.2442  0.4135 -0.4052
 5458TIP3    H138009   6.796   1.621   7.983  1.0391 -0.3550 -0.2107
 5458TIP3    H238010   6.839   1.591   7.841  2.8084 -0.8607  0.4097
 5459TIP3   OH238011   4.705   0.526   1.419 -0.4467 -0.3331  0.1590
 5459TIP3    H138012   4.614   0.501   1.402 -0.6914  0.3106  0.4824
 5459TIP3    H238013   4.710   0.618   1.393 -0.2064 -0.0224  1.2410
 5460TIP3   OH238014   1.698   0.818   0.402 -0.1074  0.3279 -0.4433
 5460TIP3    H138015   1.642   0.810   0.479  0.5460  0.8333  0.0889
 5460TIP3    H238016   1.785   0.839   0.437 -0.1802  2.4563 -1.3986
 5461TIP3   OH238017   0.870   1.759   0.703  0.0070  0.0360  0.1702
 5461TIP3    H138018   0.805   1.719   0.646 -0.4917 -0.0273  0.7720
 5461TIP3    H238019   0.875   1.850   0.675  0.0925 -0.0982 -0.2599
 5462TIP3   OH238020   0.812   4.601   1.969 -0.0932 -0.5321 -0.1511
 5462TIP3    H138021   0.734   4.594   1.914 -0.2748  1.7586 -0.2975
 5462TIP3    H238022   0.884   4.617   1.907 -0.0163  0.3313  0.1468
 5463TIP3   OH238023   1.550   4.951   1.882  0.3914 -0.0542  0.3836
 5463TIP3    H138024   1.473   4.989   1.840 -0.6887 -0.4032  1.9566
 5463TIP3    H238025   1.589   5.023   1.931 -0.4918 -0.4476  1.7223
 5464TIP3   OH238026   2.765   5.792   0.405  0.3362  0.4438 -0.0851
 5464TIP3    H138027   2.738   5.786   0.313  0.9002 -2.3924 -0.1463
 5464TIP3    H238028   2.860   5.799   0.402  0.2958  1.4093  0.3100
 5465TIP3   OH238029   6.661   2.091   0.356 -0.2374 -0.1933 -0.6977
 5465TIP3    H138030   6.707   2.009   0.374  0.7382  0.1429 -1.5703
 5465TIP3    H238031   6.596   2.098   0.426 -0.6545 -1.9328 -0.8653
 5466TIP3   OH238032   1.037   3.133   7.142  0.4161  0.1954  0.4089
 5466TIP3    H138033   1.026   3.104   7.052 -2.4869  2.2278 -0.0164
 5466TIP3    H238034   1.072   3.222   7.135 -1.3331  0.9922  1.1290
 5467TIP3   OH238035   6.384   2.800   2.119 -0.5933 -0.0330 -0.0129
 5467TIP3    H138036   6.414   2.845   2.198 -0.3458 -0.2978  0.0471
 5467TIP3    H238037   6.291   2.784   2.134 -0.2368 -1.4920  0.9386
 5468TIP3   OH238038   2.321   4.672   8.092 -0.2515  0.1344 -0.1681
 5468TIP3    H138039   2.392   4.608   8.085  0.6495  1.1490 -0.4538
 5468TIP3    H238040   2.360   4.745   8.140 -1.8905 -0.3946  2.1745
 5469TIP3   OH238041   0.408   5.400   6.991 -0.1977  0.0551  0.2162
 5469TIP3    H138042   0.347   5.376   6.921 -0.6031 -1.9305  1.1560
 5469TIP3    H238043   0.452   5.479   6.960  0.5403 -1.4194 -2.8163
 5470TIP3   OH238044   4.983   3.746   2.630 -0.2262  0.1738 -0.6862
 5470TIP3    H138045   5.038   3.824   2.619 -2.3831  2.2284  1.7745
 5470TIP3    H238046   4.984   3.729   2.724 -3.3502  0.1064 -0.5550
 5471TIP3   OH238047   5.975   6.806   2.186 -0.3932 -0.7094  0.3158
 5471TIP3    H138048   5.880   6.814   2.176 -0.5137 -1.9379  0.3224
 5471TIP3    H238049   5.989   6.811   2.281 -0.2883  0.8716  0.2416
 5472TIP3   OH238050   3.375   0.258   7.184  0.1210  0.1916  0.1167
 5472TIP3    H138051   3.428   0.276   7.261 -0.1663  0.5768  0.2230
 5472TIP3    H238052   3.414   0.178   7.147  1.0232  0.6799 -0.0266
 5473TIP3   OH238053   5.761   3.754   2.406 -0.0190 -0.3596 -0.2569
 5473TIP3    H138054   5.669   3.777   2.398  0.2874  1.9176  1.7742
 5473TIP3    H238055   5.763   3.686   2.473 -0.2720 -1.0407 -0.9284
 5474TIP3   OH238056   4.667   3.857   0.812 -0.5334 -0.2976 -0.0304
 5474TIP3    H138057   4.604   3.902   0.755  0.0980  2.5238  1.3200
 5474TIP3    H238058   4.621   3.778   0.841 -2.9413  0.9544 -0.1816
 5475TIP3   OH238059   5.921   5.609   1.833 -0.7103  0.6919  0.1893
 5475TIP3    H138060   5.974   5.686   1.851 -2.2403  1.6604  0.7185
 5475TIP3    H238061   5.937   5.551   1.908  1.4085 -0.1239 -0.8021
 5476TIP3   OH238062   4.634   0.168   6.498  0.2348 -0.0381 -0.5007
 5476TIP3    H138063   4.604   0.156   6.408 -0.8109 -1.4054 -0.0168
 5476TIP3    H238064   4.571   0.118   6.551  1.5387 -0.3064  0.8796
 5477TIP3   OH238065   6.335   0.050   1.374  0.3029 -0.1473  0.3424
 5477TIP3    H138066   6.422   0.057   1.414  1.3619  1.8179 -2.0366
 5477TIP3    H238067   6.284   0.121   1.412  0.3626 -0.0729  0.2815
 5478TIP3   OH238068   6.299   0.147   2.486 -0.1993  0.5056  0.1116
 5478TIP3    H138069   6.350   0.117   2.561  0.1645  0.7298 -0.0413
 5478TIP3    H238070   6.303   0.075   2.423 -2.0142 -0.4318  1.0051
 5479TIP3   OH238071   1.567   4.596   6.090 -0.2052 -0.3801  0.5251
 5479TIP3    H138072   1.620   4.566   6.016  0.8391 -0.3028  1.2182
 5479TIP3    H238073   1.592   4.539   6.162 -1.5477 -0.7464  0.7183
 5480TIP3   OH238074   3.443   4.450   6.964 -0.7420 -0.2107  0.0083
 5480TIP3    H138075   3.460   4.542   6.987  0.7128 -0.5931  0.5895
 5480TIP3    H238076   3.402   4.454   6.878 -0.3429  0.9697 -0.1471
 5481TIP3   OH238077   1.707   6.691   7.120 -0.0450 -0.0423  0.6158
 5481TIP3    H138078   1.701   6.627   7.191  0.1115  0.0366  0.7011
 5481TIP3    H238079   1.798   6.722   7.123  0.2542 -0.8038 -0.2913
 5482TIP3   OH238080   0.551   3.749   1.778 -0.3946  0.6971  0.0950
 5482TIP3    H138081   0.588   3.796   1.704 -1.8655  0.2617 -0.9724
 5482TIP3    H238082   0.590   3.790   1.855  2.5304  0.0219 -0.9140
 5483TIP3   OH238083   3.599   0.753   1.449  0.2145 -0.4057 -0.0505
 5483TIP3    H138084   3.648   0.755   1.530 -0.2250  0.4910  0.2075
 5483TIP3    H238085   3.637   0.680   1.399  0.3224 -1.1123  1.0462
 5484TIP3   OH238086   4.247   2.565   7.840 -0.5252  0.4257 -0.3260
 5484TIP3    H138087   4.250   2.524   7.927 -0.7641  2.5266  0.7301
 5484TIP3    H238088   4.337   2.592   7.823 -0.6865  1.0787 -0.1737
 5485TIP3   OH238089   3.987   5.656   0.832 -0.1059  0.0399 -0.1562
 5485TIP3    H138090   4.049   5.584   0.830  0.2668  0.3383 -1.9761
 5485TIP3    H238091   4.038   5.731   0.862 -0.5217 -0.4232  1.8478
 5486TIP3   OH238092   2.012   0.029   0.912 -0.3909  0.3087  0.3883
 5486TIP3    H138093   2.079   0.097   0.907  1.7245 -1.6905 -0.1188
 5486TIP3    H238094   1.987   0.027   1.005 -0.5796  1.7804  0.4005
 5487TIP3   OH238095   4.155   1.852   0.608  0.7915 -0.0740  0.7448
 5487TIP3    H138096   4.187   1.921   0.667  1.3559 -0.3658  0.7893
 5487TIP3    H238097   4.205   1.774   0.633 -1.1613 -1.0161  1.9607
 5488TIP3   OH238098   5.339   1.627   7.025  0.4578 -0.4422  0.1471
 5488TIP3    H138099   5.326   1.722   7.033 -1.6448 -0.6736 -0.1583
 5488TIP3    H238100   5.356   1.614   6.931 -0.0376 -0.4376  0.0527
 5489TIP3   OH238101   4.183   4.806   1.548 -0.4988  0.0679  0.2267
 5489TIP3    H138102   4.182   4.752   1.627 -0.9912 -1.3127 -0.6885
 5489TIP3    H238103   4.151   4.748   1.479  0.1792  1.1611 -1.0467
 5490TIP3   OH238104   1.973   2.205   1.032 -0.5481  0.4616  0.4850
 5490TIP3    H138105   1.987   2.298   1.020 -1.3338  0.2634 -3.1580
 5490TIP3    H238106   1.885   2.199   1.071 -0.9607  1.2502 -0.2864
 5491TIP3   OH238107   3.069   5.127   7.975 -0.5720  0.1305  0.0953
 5491TIP3    H138108   3.068   5.156   7.883 -0.8768 -0.5022 -0.1060
 5491TIP3    H238109   3.129   5.188   8.018  0.7044 -0.4377 -0.8140
 5492TIP3   OH238110   1.792   2.352   7.974 -0.0983  0.1103  0.3918
 5492TIP3    H138111   1.797   2.447   7.981 -0.8629  0.0688  2.0961
 5492TIP3    H238112   1.770   2.322   8.062  0.6660 -1.7034  0.0257
 5493TIP3   OH238113   0.212   0.896   0.960  0.1823 -0.0115 -0.0517
 5493TIP3    H138114   0.280   0.847   0.913 -1.1822 -2.8368  0.6998
 5493TIP3    H238115   0.145   0.830   0.980 -2.0690  2.3321  0.6018
 5494TIP3   OH238116   5.034   4.853   2.242 -0.0749 -0.3415  0.1661
 5494TIP3    H138117   5.065   4.768   2.211  1.3495  0.7878 -1.6986
 5494TIP3    H238118   5.034   4.845   2.338  0.7375 -2.1900  0.0518
 5495TIP3   OH238119   5.655   3.298   2.399 -0.5536  0.4551  0.4203
 5495TIP3    H138120   5.671   3.386   2.367 -2.3946  0.1899 -1.4262
 5495TIP3    H238121   5.589   3.309   2.468 -0.2901  0.5826  0.6508
 5496TIP3   OH238122   1.186   0.652   2.182 -0.0330 -0.3048 -0.2552
 5496TIP3    H138123   1.123   0.712   2.222  0.0807 -0.6527  0.4617
 5496TIP3    H238124   1.167   0.567   2.222  1.6362 -0.1966  0.8304
 5497TIP3   OH238125   2.859   0.274   1.954  0.5269  0.0295 -0.4779
 5497TIP3    H138126   2.807   0.353   1.968 -0.7113 -0.8269 -0.0845
 5497TIP3    H238127   2.903   0.290   1.870  1.8896  1.9448  0.5427
 5498TIP3   OH238128   2.565   2.365   7.496  0.3543  0.3069  0.3511
 5498TIP3    H138129   2.501   2.305   7.534  0.4341 -0.6774 -0.9772
 5498TIP3    H238130   2.646   2.313   7.489  0.4906  0.6145 -0.6074
 5499TIP3   OH238131   1.668   3.223   7.326 -0.4173  0.0835 -0.0201
 5499TIP3    H138132   1.641   3.177   7.405 -1.3179 -0.7952 -0.8167
 5499TIP3    H238133   1.595   3.281   7.306  0.2349  1.0503  0.3382
 5500TIP3   OH238134   2.080   2.378   2.182  0.0163 -0.2011  0.6841
 5500TIP3    H138135   2.151   2.442   2.190 -0.7987  0.6909  0.8685
 5500TIP3    H238136   2.012   2.423   2.132 -0.9920 -0.5379  1.7058
 5501TIP3   OH238137   4.801   4.964   2.059  0.1151  0.0266 -0.4629
 5501TIP3    H138138   4.824   4.997   1.972  1.3122  0.3760 -0.0325
 5501TIP3    H238139   4.881   4.922   2.091 -0.5562 -0.8229  0.1462
 5502TIP3   OH238140   0.845   7.032   7.359  0.3905 -0.5017 -0.3927
 5502TIP3    H138141   0.769   6.976   7.345 -0.4607  0.6847 -0.6483
 5502TIP3    H238142   0.905   6.979   7.413 -1.1380 -1.0340  0.8542
 5503TIP3   OH238143   0.573   6.424   0.914  0.3256  0.6521 -0.6868
 5503TIP3    H138144   0.585   6.329   0.909 -1.2390  0.3013  1.2203
 5503TIP3    H238145   0.599   6.455   0.827 -0.4762 -1.6796 -1.8701
 5504TIP3   OH238146   0.299   4.268   7.584 -0.2893 -0.0327  0.3198
 5504TIP3    H138147   0.266   4.334   7.523 -0.5496 -1.0230 -0.6522
 5504TIP3    H238148   0.230   4.202   7.586  0.0700 -0.3936  1.0907
 5505TIP3   OH238149   6.906   2.670   2.164 -0.0099 -0.7229  0.7115
 5505TIP3    H138150   6.811   2.656   2.159 -0.0751  0.0488 -0.9234
 5505TIP3    H238151   6.915   2.765   2.174  0.5845 -0.6808 -0.1106
 5506TIP3   OH238152   6.360   6.821   0.192 -0.5350  0.1680  0.3466
 5506TIP3    H138153   6.344   6.826   0.098 -1.7574 -0.0566  0.5268
 5506TIP3    H238154   6.284   6.865   0.232  0.7842  1.8228  1.1944
 5507TIP3   OH238155   5.063   0.330   1.096  0.4747  0.2390  0.3020
 5507TIP3    H138156   5.009   0.401   1.129 -0.7485  0.4584 -1.9979
 5507TIP3    H238157   5.015   0.295   1.021  1.3481 -2.6012  0.9424
 5508TIP3   OH238158   6.687   5.137   1.291 -0.5459  0.0586 -0.3371
 5508TIP3    H138159   6.663   5.063   1.347 -0.7495  0.4476  0.0933
 5508TIP3    H238160   6.755   5.102   1.234  0.2475 -0.1301  0.6912
 5509TIP3   OH238161   0.020   2.433   0.497 -0.2897 -0.0971 -0.0884
 5509TIP3    H138162   0.112   2.442   0.471 -0.2469 -1.0862 -0.3136
 5509TIP3    H238163   0.021   2.445   0.592  0.4845 -2.5823  0.2967
 5510TIP3   OH238164   5.723   2.527   0.989  0.6293 -0.1567 -0.6211
 5510TIP3    H138165   5.815   2.499   0.979  0.7116 -0.2478  0.2825
 5510TIP3    H238166   5.681   2.454   1.034  0.4425  0.4557  0.2222
 5511TIP3   OH238167   0.532   5.894   1.514 -0.0729  0.5264 -0.1908
 5511TIP3    H138168   0.585   5.960   1.470  0.6348 -0.4432 -0.8568
 5511TIP3    H238169   0.540   5.816   1.459 -1.1714 -0.0160  0.3796
 5512TIP3   OH238170   1.209   3.939   0.306 -0.1272  0.3361 -0.0270
 5512TIP3    H138171   1.195   4.034   0.311  1.2129  0.5873 -0.5928
 5512TIP3    H238172   1.302   3.927   0.325 -0.0734 -0.7673 -0.8559
 5513TIP3   OH238173   0.346   3.721   6.133  0.1390  0.1429 -0.0401
 5513TIP3    H138174   0.437   3.695   6.152  0.1975  0.6026  0.3067
 5513TIP3    H238175   0.294   3.646   6.163  0.2996  0.4726  1.0887
 5514TIP3   OH238176   4.491   3.040   1.970 -0.0143 -0.6066  0.2187
 5514TIP3    H138177   4.464   3.072   2.056  0.7420 -0.5699  0.4502
 5514TIP3    H238178   4.533   3.115   1.928 -0.0007 -0.7449 -0.0170
 5515TIP3   OH238179   2.780   6.984   6.747 -0.3404 -0.0191 -0.1428
 5515TIP3    H138180   2.695   7.026   6.757 -0.7247 -0.7783 -0.2184
 5515TIP3    H238181   2.835   7.052   6.707 -1.0759  0.2681 -0.6930
 5516TIP3   OH238182   5.467   3.278   8.172 -0.6851  0.7082  0.0003
 5516TIP3    H138183   5.466   3.369   8.144  0.3684  0.5071 -0.7777
 5516TIP3    H238184   5.548   3.269   8.221 -1.3002  0.4355  0.9869
 5517TIP3   OH238185   3.734   6.589   2.395 -0.2323  0.7074  0.1240
 5517TIP3    H138186   3.704   6.649   2.327 -0.4476  0.0751 -0.3521
 5517TIP3    H238187   3.659   6.530   2.410  0.8714 -1.2478 -1.4760
 5518TIP3   OH238188   5.872   3.994   1.414  0.1913  0.1452 -0.0315
 5518TIP3    H138189   5.840   4.079   1.442  1.3736  0.5994 -0.0235
 5518TIP3    H238190   5.858   3.993   1.320 -0.5690  0.0042  0.0700
 5519TIP3   OH238191   1.599   2.270   2.387  0.0490 -0.0918 -0.3216
 5519TIP3    H138192   1.534   2.334   2.358 -0.5734 -0.8546 -0.6140
 5519TIP3    H238193   1.548   2.196   2.419  0.7521 -1.2480 -1.7739
 5520TIP3   OH238194   0.657   2.340   1.467 -0.1220  0.2822 -0.5572
 5520TIP3    H138195   0.717   2.394   1.519 -0.5733  0.3735 -0.1235
 5520TIP3    H238196   0.672   2.251   1.498  0.1925  0.2345 -0.8470
 5521TIP3   OH238197   5.731   4.835   7.614 -0.2713  0.1559  0.8441
 5521TIP3    H138198   5.757   4.845   7.522 -1.4194 -1.7375  0.2412
 5521TIP3    H238199   5.677   4.912   7.632 -1.6972 -0.4171 -0.7389
 5522TIP3   OH238200   4.151   2.067   1.784 -0.0013  0.2719  0.0017
 5522TIP3    H138201   4.141   1.973   1.797 -1.1703  0.2315 -1.0292
 5522TIP3    H238202   4.195   2.097   1.863 -1.5875 -0.7953  1.3533
 5523TIP3   OH238203   1.109   1.223   7.597  0.4463 -0.4658  0.5403
 5523TIP3    H138204   1.193   1.269   7.609  0.7095 -1.0595  0.9763
 5523TIP3    H238205   1.114   1.189   7.507  0.5692 -0.2965  0.4814
 5524TIP3   OH238206   1.186   1.266   0.936 -0.2335 -0.1966  0.1380
 5524TIP3    H138207   1.151   1.202   0.874  0.5158 -0.9781  0.4868
 5524TIP3    H238208   1.250   1.316   0.885 -1.9341  1.3813 -0.5573
 5525TIP3   OH238209   0.398   3.751   0.867 -0.0666 -0.4253  0.4443
 5525TIP3    H138210   0.361   3.683   0.811  1.0621 -0.4524 -0.2859
 5525TIP3    H238211   0.474   3.710   0.909 -1.2637 -0.6342  2.5778
 5526TIP3   OH238212   2.320   0.829   0.138  0.3254  0.2356  0.3767
 5526TIP3    H138213   2.277   0.823   0.223 -0.4210  0.3776  0.0171
 5526TIP3    H238214   2.358   0.742   0.124 -0.7353 -0.2150  0.2364
 5527TIP3   OH238215   5.473   2.165   7.850  0.5166 -0.3556 -0.1599
 5527TIP3    H138216   5.488   2.228   7.921 -0.2647 -0.7107  0.3343
 5527TIP3    H238217   5.489   2.079   7.890  0.0063 -0.5624 -0.3876
 5528TIP3   OH238218   4.098   2.240   0.272 -0.5406 -0.1968  0.8142
 5528TIP3    H138219   4.141   2.199   0.197 -0.3459  0.4521  0.5595
 5528TIP3    H238220   4.166   2.241   0.340 -0.2515  0.5153  0.5240
 5529TIP3   OH238221   0.107   4.219   0.273 -0.1973  0.2236  0.3043
 5529TIP3    H138222   0.124   4.178   0.358  0.8852  1.2522  0.6039
 5529TIP3    H238223   0.166   4.294   0.271  0.4174 -0.2618 -1.7030
 5530TIP3   OH238224   1.064   6.461   7.578  0.2961 -0.4547  0.4466
 5530TIP3    H138225   1.091   6.454   7.670 -0.7952 -0.0219  0.8167
 5530TIP3    H238226   1.092   6.549   7.552 -0.8672  0.0874  0.9027
 5531TIP3   OH238227   2.671   0.649   7.959  0.3769 -0.2342 -0.1421
 5531TIP3    H138228   2.709   0.667   7.873  0.0083  1.0216 -0.0624
 5531TIP3    H238229   2.594   0.705   7.963 -0.9596 -1.9911  0.0955
 5532TIP3   OH238230   6.428   2.515   7.864  0.1975 -0.4851  0.6061
 5532TIP3    H138231   6.358   2.463   7.826 -0.4502  0.0311  1.0724
 5532TIP3    H238232   6.504   2.498   7.808 -1.2720  2.0758 -2.4895
 5533TIP3   OH238233   5.994   4.927   2.703  0.0277 -0.6123  1.0916
 5533TIP3    H138234   5.918   4.894   2.751 -0.9069 -0.1468 -0.0219
 5533TIP3    H238235   6.034   4.848   2.665 -1.8749 -0.6300 -1.0951
 5534TIP3   OH238236   5.129   2.344   1.899  0.3490 -0.1556  0.1160
 5534TIP3    H138237   5.180   2.388   1.831 -0.3945  0.8541  0.1839
 5534TIP3    H238238   5.157   2.385   1.981  0.8767 -1.0149  0.3801
 5535TIP3   OH238239   5.489   1.666   2.089  0.2786 -0.1486  0.2506
 5535TIP3    H138240   5.424   1.610   2.131  1.5232 -1.6598  0.2513
 5535TIP3    H238241   5.563   1.669   2.150 -0.3463  2.9249  1.0403
 5536TIP3   OH238242   5.813   5.135   0.648 -0.6172 -0.9795  0.2234
 5536TIP3    H138243   5.816   5.165   0.739 -0.7841 -0.0608 -0.0613
 5536TIP3    H238244   5.817   5.039   0.654 -1.1388 -0.9540  1.2206
 5537TIP3   OH238245   4.392   5.325   1.992 -0.4184 -0.2450  0.2218
 5537TIP3    H138246   4.327   5.373   1.941  0.1973  1.0544  0.6479
 5537TIP3    H238247   4.468   5.317   1.934 -0.0514  0.4331  0.6047
 5538TIP3   OH238248   6.590   1.467   1.905  0.7487 -0.9178  0.2057
 5538TIP3    H138249   6.605   1.557   1.878 -1.7573 -0.3448  0.4660
 5538TIP3    H238250   6.580   1.418   1.824  0.0494 -0.5224  0.0405
 5539TIP3   OH238251   5.495   3.136   0.902  0.2908 -0.1334  0.1011
 5539TIP3    H138252   5.406   3.147   0.866  0.6574 -1.8257 -1.4741
 5539TIP3    H238253   5.545   3.207   0.862  0.0358 -0.2652 -0.4721
 5540TIP3   OH238254   3.007   3.468   0.391 -0.2632 -0.1480  0.3869
 5540TIP3    H138255   2.911   3.473   0.394 -0.1873  1.5671  2.3209
 5540TIP3    H238256   3.027   3.460   0.298 -2.2819 -1.2136 -0.0289
 5541TIP3   OH238257   4.923   0.241   0.605 -0.2627 -0.1524 -0.1921
 5541TIP3    H138258   4.844   0.247   0.551  0.5331  0.9550 -1.2815
 5541TIP3    H238259   4.957   0.152   0.589 -0.9194 -0.3989 -0.2293
 5542TIP3   OH238260   4.574   2.609   7.210  0.7423 -0.5815 -0.2333
 5542TIP3    H138261   4.502   2.670   7.202  1.5779  0.3908 -0.5376
 5542TIP3    H238262   4.555   2.560   7.290  0.5239  0.7315  0.5473
 5543TIP3   OH238263   2.278   1.398   8.051  0.5276 -0.0138  0.2475
 5543TIP3    H138264   2.308   1.440   7.970  0.9357 -1.4198 -0.3576
 5543TIP3    H238265   2.327   1.316   8.055 -1.5660 -1.3311  0.4227
 5544TIP3   OH238266   4.829   1.428   2.691 -0.7754  0.7653 -0.5372
 5544TIP3    H138267   4.820   1.517   2.725 -0.7771  0.3551  0.5918
 5544TIP3    H238268   4.921   1.422   2.663  0.0193  0.3406  1.8668
 5545TIP3   OH238269   3.461   2.008   7.758 -0.7541  0.1092 -0.0374
 5545TIP3    H138270   3.515   2.016   7.679 -0.1275 -3.5514 -0.1341
 5545TIP3    H238271   3.523   2.022   7.830 -0.3036 -0.9491 -0.1948
 5546TIP3   OH238272   3.497   5.934   8.079  0.4122  0.3692  0.0817
 5546TIP3    H138273   3.514   5.941   8.172  2.1989  3.2054 -0.3297
 5546TIP3    H238274   3.581   5.913   8.039 -0.4003 -1.2322 -0.9165
 5547TIP3   OH238275   4.130   0.529   7.908  0.0169 -0.3085  0.5617
 5547TIP3    H138276   4.054   0.471   7.911  0.1692 -0.5722 -0.3389
 5547TIP3    H238277   4.167   0.524   7.996 -0.7777 -0.4843  0.8941
 5548TIP3   OH238278   4.382   0.904   7.857 -0.1794  0.2791  0.0824
 5548TIP3    H138279   4.428   0.825   7.885 -0.5535  0.0082 -0.0630
 5548TIP3    H238280   4.291   0.891   7.884 -0.5923 -0.0637 -1.3737
 5549TIP3   OH238281   1.906   6.803   1.348  0.1048  0.2162  0.7764
 5549TIP3    H138282   1.842   6.782   1.415  0.0552 -0.0799  0.6356
 5549TIP3    H238283   1.933   6.719   1.312 -1.2552  0.4173 -0.8720
 5550TIP3   OH238284   3.863   2.384   6.947  0.1343 -0.5617  0.3471
 5550TIP3    H138285   3.911   2.361   6.868 -0.6509 -0.3485 -0.2121
 5550TIP3    H238286   3.773   2.400   6.916  0.1068  0.8557  1.0578
 5551TIP3   OH238287   3.737   5.733   7.687  0.3234 -0.4187 -0.3586
 5551TIP3    H138288   3.690   5.696   7.761  1.5291 -0.5006  0.3905
 5551TIP3    H238289   3.674   5.731   7.615 -0.2540 -2.1297  0.1474
 5552TIP3   OH238290   1.588   5.970   7.369 -0.1472 -0.1188  0.4108
 5552TIP3    H138291   1.545   6.054   7.355 -0.4095 -0.2391  0.4972
 5552TIP3    H238292   1.572   5.920   7.289 -0.5535 -0.3298  0.6212
 5553TIP3   OH238293   5.221   5.379   2.039  0.5571  0.0403 -0.0081
 5553TIP3    H138294   5.289   5.390   1.972 -0.3378  1.3557 -0.7490
 5553TIP3    H238295   5.223   5.461   2.089 -1.5384  0.8396 -1.0896
 5554TIP3   OH238296   6.614   7.030   2.403  0.2397  0.0938  0.2334
 5554TIP3    H138297   6.658   7.099   2.452 -0.8297  1.6214 -0.8677
 5554TIP3    H238298   6.657   6.949   2.432  1.0955  1.1231  2.0453
 5555TIP3   OH238299   2.060   5.094   7.443 -0.0257  0.6824  0.2461
 5555TIP3    H138300   2.122   5.051   7.385 -0.6281 -0.8379  0.6942
 5555TIP3    H238301   2.109   5.166   7.482  0.5677  1.3795 -1.6657
 5556TIP3   OH238302   6.313   4.468   7.804  0.0794  0.2732  0.3021
 5556TIP3    H138303   6.230   4.426   7.827  0.8482 -0.6276  1.5127
 5556TIP3    H238304   6.291   4.524   7.730 -0.9725 -2.3968 -1.5700
 5557TIP3   OH238305   0.657   7.085   7.707 -0.3328  0.2633 -0.0402
 5557TIP3    H138306   0.745   7.122   7.708 -0.1346 -0.1735 -0.7385
 5557TIP3    H238307   0.601   7.154   7.745  0.3377  0.4388  0.6575
 5558TIP3   OH238308   5.765   6.516   7.305 -0.8539 -0.3023  0.7618
 5558TIP3    H138309   5.819   6.586   7.270  0.8575 -0.9447  1.9636
 5558TIP3    H238310   5.768   6.528   7.400 -2.2868 -0.7749  0.8963
 5559TIP3   OH238311   5.216   4.484   0.977 -0.5250  0.0016  0.5045
 5559TIP3    H138312   5.191   4.569   0.941 -1.5067  0.2022  1.6052
 5559TIP3    H238313   5.134   4.439   0.993 -0.0004 -1.5616 -0.9132
 5560TIP3   OH238314   3.855   3.204   2.194  0.2705 -0.9997 -0.7007
 5560TIP3    H138315   3.825   3.211   2.285 -1.5258 -2.5183 -1.0912
 5560TIP3    H238316   3.796   3.262   2.145 -0.2182 -1.8364 -1.1337
 5561TIP3   OH238317   5.085   5.416   7.949  0.0351 -0.1406 -0.0453
 5561TIP3    H138318   5.082   5.327   7.914  2.4709 -0.9885  1.6353
 5561TIP3    H238319   5.171   5.422   7.990 -0.8836  2.3118  1.7021
 5562TIP3   OH238320   6.796   6.877   7.986  0.0803  0.1252 -0.6019
 5562TIP3    H138321   6.838   6.917   7.909 -1.2642  0.7467 -1.0574
 5562TIP3    H238322   6.855   6.896   8.058  0.4230  1.2491 -1.1559
 5563TIP3   OH238323   3.672   4.203   7.542  0.1433 -0.7881 -0.0793
 5563TIP3    H138324   3.636   4.270   7.485 -0.7156 -0.9904  0.2051
 5563TIP3    H238325   3.721   4.145   7.484 -2.5364 -2.2708 -1.0459
 5564TIP3   OH238326   2.304   3.650   1.260  0.4228 -0.2622  0.2314
 5564TIP3    H138327   2.224   3.597   1.261 -0.4827  1.0507 -0.1588
 5564TIP3    H238328   2.325   3.659   1.167  1.7815 -1.6601  0.3705
 5565TIP3   OH238329   3.422   0.052   8.046 -0.0874 -0.7140  0.1719
 5565TIP3    H138330   3.435   0.006   8.130 -1.1568  1.1283  1.4122
 5565TIP3    H238331   3.357   0.120   8.066 -0.4160 -0.2644 -2.1936
 5566TIP3   OH238332   2.496   1.660   1.278 -0.4411 -0.6551 -0.1949
 5566TIP3    H138333   2.511   1.744   1.322 -0.8955  0.2315 -1.6617
 5566TIP3    H238334   2.531   1.672   1.190  0.6951 -2.4744 -0.0568
 5567TIP3   OH238335   1.888   4.746   2.699  0.1839 -0.3945 -0.0139
 5567TIP3    H138336   1.957   4.777   2.757  0.9982 -0.3945 -0.9723
 5567TIP3    H238337   1.898   4.650   2.699  0.3128 -0.3801 -0.3229
 5568TIP3   OH238338   6.437   5.430   0.436  0.2941  0.0254 -0.0239
 5568TIP3    H138339   6.468   5.354   0.484  0.2037 -0.3014 -0.4776
 5568TIP3    H238340   6.491   5.502   0.467  0.6986 -0.3131  0.0630
 5569TIP3   OH238341   0.821   4.608   1.154 -0.1550  0.0954 -0.6082
 5569TIP3    H138342   0.834   4.537   1.091  0.1186 -0.5407  0.1435
 5569TIP3    H238343   0.734   4.593   1.190 -0.1172  0.1694 -0.4835
 5570TIP3   OH238344   5.706   6.523   7.977 -0.5836 -0.2011 -0.3607
 5570TIP3    H138345   5.612   6.532   7.965 -0.6992 -0.0180  0.5923
 5570TIP3    H238346   5.744   6.600   7.934 -0.9248  0.1181 -0.0913
 5571TIP3   OH238347   4.743   3.710   8.095 -0.3165  0.3580  0.3327
 5571TIP3    H138348   4.744   3.798   8.058  0.7369  0.0831 -0.3493
 5571TIP3    H238349   4.751   3.723   8.189 -1.0652  1.0094  0.3147
 5572TIP3   OH238350   2.893   0.744   6.981 -0.0180  0.0254  0.1816
 5572TIP3    H138351   2.917   0.687   6.908  1.2544  0.1586  0.4664
 5572TIP3    H238352   2.897   0.833   6.944 -1.7913 -0.0225 -0.2069
 5573TIP3   OH238353   5.228   3.221   1.332  0.2461  0.3006 -0.3933
 5573TIP3    H138354   5.255   3.306   1.367  0.9574  0.1303 -0.5150
 5573TIP3    H238355   5.310   3.177   1.309 -0.1939  0.3503 -2.1834
 5574TIP3   OH238356   4.327   4.446   2.382 -0.2176 -0.0433  0.6792
 5574TIP3    H138357   4.300   4.441   2.474  2.0542  1.5086  1.5094
 5574TIP3    H238358   4.278   4.520   2.346 -0.5832 -0.2102  0.8291
 5575TIP3   OH238359   4.796   3.124   1.029 -0.1442  0.3102  0.1764
 5575TIP3    H138360   4.878   3.128   1.078  0.4388  1.4343 -0.8538
 5575TIP3    H238361   4.744   3.196   1.066 -1.1606 -1.0891  1.6132
 5576TIP3   OH238362   5.038   3.146   0.645 -0.5008 -0.3754 -0.5127
 5576TIP3    H138363   5.022   3.118   0.555 -1.4655 -3.8839  0.5600
 5576TIP3    H238364   4.951   3.153   0.684 -0.1426  1.9351  0.0199
 5577TIP3   OH238365   5.540   5.595   0.005  0.0250  0.0032 -0.4338
 5577TIP3    H138366   5.503   5.651   0.073 -0.1895 -1.1525  0.4265
 5577TIP3    H238367   5.634   5.596   0.021 -0.0694 -0.6732  0.2207
 5578TIP3   OH238368   3.204   4.295   2.972  0.0389 -0.9962  0.0394
 5578TIP3    H138369   3.218   4.200   2.978 -0.6931 -1.1901 -0.9773
 5578TIP3    H238370   3.279   4.333   3.017  0.3610 -2.0575  0.4427
 5579TIP3   OH238371   0.891   4.437   0.922  0.1819  0.4694  0.6053
 5579TIP3    H138372   0.851   4.486   0.850  0.8717  1.5596  0.9474
 5579TIP3    H238373   0.876   4.345   0.899 -0.6784  0.8188 -0.3129
 5580TIP3   OH238374   4.202   3.906   1.208 -0.0171  0.3984  0.3249
 5580TIP3    H138375   4.206   3.850   1.286  0.1400  0.2716  0.2259
 5580TIP3    H238376   4.222   3.847   1.135  0.2488  0.6058  0.2294
 5581TIP3   OH238377   6.817   6.305   1.549 -0.5778 -0.2999 -0.3718
 5581TIP3    H138378   6.849   6.338   1.465  1.2090 -2.1953 -0.5325
 5581TIP3    H238379   6.727   6.338   1.556  0.8098  4.3336 -0.5337
 5582TIP3   OH238380   6.639   2.213   7.424 -1.1305 -0.1709 -0.1186
 5582TIP3    H138381   6.714   2.157   7.406 -2.2113 -1.3635 -1.1789
 5582TIP3    H238382   6.625   2.204   7.518  0.7192  0.9966  0.3150
 5583TIP3   OH238383   5.770   2.626   7.196 -0.2902  0.3733  0.1541
 5583TIP3    H138384   5.831   2.558   7.227  0.1826  0.8181  0.2066
 5583TIP3    H238385   5.724   2.585   7.123  2.1641  0.9563 -1.8981
 5584TIP3   OH238386   6.396   5.484   0.844  0.0276  0.5418  0.3628
 5584TIP3    H138387   6.389   5.417   0.912 -1.0196  0.8807  0.6141
 5584TIP3    H238388   6.312   5.481   0.799  0.9992 -0.2436 -1.4821
 5585TIP3   OH238389   5.376   1.313   0.727 -0.4750  0.3849  0.4109
 5585TIP3    H138390   5.427   1.320   0.646 -0.1686 -0.8973  0.4653
 5585TIP3    H238391   5.406   1.386   0.780 -1.5145  1.9605 -1.0517
 5586TIP3   OH238392   1.280   0.974   8.138 -0.7020  0.4236  0.1111
 5586TIP3    H138393   1.331   0.896   8.159  0.4050  0.7934 -1.0958
 5586TIP3    H238394   1.337   1.047   8.160 -0.5149  0.8384 -1.6257
 5587TIP3   OH238395   0.999   3.259   0.155  0.0882  0.0020  0.0750
 5587TIP3    H138396   0.948   3.291   0.080 -2.5491 -0.7833  1.4291
 5587TIP3    H238397   0.994   3.329   0.219 -1.5573 -1.0770  1.1920
 5588TIP3   OH238398   1.209   0.741   0.438  0.1234  0.3459  0.0961
 5588TIP3    H138399   1.181   0.819   0.390 -0.9341  0.6758  1.2029
 5588TIP3    H238400   1.286   0.710   0.390  0.4974  1.9892 -0.4418
 5589TIP3   OH238401   2.166   5.841   0.837  0.1935  0.0456  0.3872
 5589TIP3    H138402   2.216   5.838   0.756  0.7873 -0.6023  0.7795
 5589TIP3    H238403   2.075   5.847   0.807  0.4618  1.0350 -0.3245
 5590TIP3   OH238404   2.058   1.310   7.390 -0.0343 -0.2493  0.1433
 5590TIP3    H138405   2.017   1.382   7.343 -1.3697 -0.6112  0.7244
 5590TIP3    H238406   2.152   1.321   7.373 -0.2730  1.1938 -0.3639
 5591TIP3   OH238407   0.349   0.672   0.774  0.0249  0.1680 -0.0600
 5591TIP3    H138408   0.398   0.617   0.714 -0.3210  1.2525 -1.3727
 5591TIP3    H238409   0.262   0.631   0.779  0.0236  0.1344 -0.3712
 5592TIP3   OH238410   0.630   1.110   6.462 -0.0305 -0.2578 -0.1035
 5592TIP3    H138411   0.540   1.120   6.431  0.4746  0.1219 -1.5167
 5592TIP3    H238412   0.671   1.195   6.444  1.0544 -0.9492 -1.0623
 5593TIP3   OH238413   2.004   0.497   6.783  0.6057 -0.3547  0.0371
 5593TIP3    H138414   1.910   0.492   6.804  0.2799  2.0479 -0.5957
 5593TIP3    H238415   2.020   0.590   6.768  3.3715 -0.5671  1.2557
 5594TIP3   OH238416   0.375   4.628   7.871 -0.2816 -0.0117  0.2358
 5594TIP3    H138417   0.435   4.609   7.799 -2.1069 -2.3765 -0.7937
 5594TIP3    H238418   0.426   4.609   7.950  1.5943  2.1525 -0.3340
 5595TIP3   OH238419   6.480   6.864   1.938  0.0100  0.0011  0.1630
 5595TIP3    H138420   6.472   6.956   1.962  0.5875 -0.1885  1.1863
 5595TIP3    H238421   6.526   6.824   2.013 -2.2320 -1.5742  0.7931
 5596TIP3   OH238422   5.893   4.952   2.184 -0.1056 -0.1518 -0.6228
 5596TIP3    H138423   5.883   4.886   2.252  0.2692  1.2536  0.8535
 5596TIP3    H238424   5.828   4.928   2.118 -1.7810 -0.5468  1.0599
 5597TIP3   OH238425   2.089   6.069   0.597  0.2806 -0.2292 -0.3038
 5597TIP3    H138426   2.009   6.044   0.551  0.9505  1.3952 -2.6044
 5597TIP3    H238427   2.063   6.080   0.688 -1.7425 -1.2290 -0.7052
 5598TIP3   OH238428   2.432   1.757   2.132 -0.1121  0.1674  0.3477
 5598TIP3    H138429   2.494   1.828   2.148 -0.8649  0.9746 -0.2876
 5598TIP3    H238430   2.461   1.719   2.049  1.1443 -1.2234  1.3448
 5599TIP3   OH238431   5.957   0.946   1.616 -0.0880  0.3620  0.5672
 5599TIP3    H138432   6.015   0.912   1.685 -1.8914 -0.6971  1.6361
 5599TIP3    H238433   5.952   0.875   1.552  1.1665  1.1457 -0.4509
 5600TIP3   OH238434   6.048   2.257   8.080  0.2382  0.6328  0.1228
 5600TIP3    H138435   6.113   2.189   8.097 -0.3074  0.5779  2.3403
 5600TIP3    H238436   6.038   2.258   7.985  1.6424 -1.0685 -0.0904
 5601TIP3   OH238437   5.085   2.310   1.327  0.0460 -0.2384  0.0340
 5601TIP3    H138438   5.018   2.273   1.384  0.6494 -1.0986  0.2011
 5601TIP3    H238439   5.037   2.370   1.269 -0.9997 -1.5103 -0.4486
 5602TIP3   OH238440   2.638   7.056   7.902 -0.4917 -0.2913 -0.3043
 5602TIP3    H138441   2.672   6.976   7.862  0.6758  0.6082 -1.2052
 5602TIP3    H238442   2.713   7.093   7.950 -1.5837 -0.8004  1.9242
 5603TIP3   OH238443   1.210   6.474   0.728  0.1330 -0.4004  0.5357
 5603TIP3    H138444   1.235   6.382   0.737 -0.8253 -0.7872 -0.5542
 5603TIP3    H238445   1.120   6.472   0.696  0.0995  0.9254  0.4763
 5604TIP3   OH238446   3.929   5.608   0.217  0.4743  0.0013  0.4293
 5604TIP3    H138447   3.843   5.580   0.184  0.1144 -0.1369  1.4587
 5604TIP3    H238448   3.988   5.594   0.143 -0.3736  0.0449 -0.2841
 5605TIP3   OH238449   5.329   4.207   8.084  0.4568 -0.3029 -0.0802
 5605TIP3    H138450   5.259   4.153   8.120 -0.0944  0.2579 -0.2911
 5605TIP3    H238451   5.287   4.291   8.065  0.6118 -0.7023 -2.4351
 5606TIP3   OH238452   0.312   3.972   0.701 -0.1311 -0.2342 -0.0901
 5606TIP3    H138453   0.345   3.883   0.708  0.0348 -0.1440  0.2890
 5606TIP3    H238454   0.365   4.023   0.762 -0.1945  0.1333 -0.3375
 5607TIP3   OH238455   5.587   6.829   0.638  0.5050  0.1035  0.4238
 5607TIP3    H138456   5.505   6.815   0.684 -0.2538  0.5901 -0.7414
 5607TIP3    H238457   5.634   6.893   0.691 -0.0054  0.0651  0.9248
 5608TIP3   OH238458   6.150   1.661   0.766 -0.0504  0.7111 -0.6226
 5608TIP3    H138459   6.207   1.732   0.794 -0.8668  0.9499  0.4937
 5608TIP3    H238460   6.076   1.704   0.722  0.0035  0.4827 -0.9427
 5609TIP3   OH238461   4.318   1.271   1.914  0.5002 -0.1549  0.1671
 5609TIP3    H138462   4.223   1.258   1.918  0.1630  1.7764 -0.6766
 5609TIP3    H238463   4.335   1.339   1.979  0.7475  2.0692 -2.1123
 5610TIP3   OH238464   2.955   4.442   0.969 -0.2238 -0.0638 -0.2139
 5610TIP3    H138465   3.043   4.445   1.005 -0.4503  3.5040  0.3556
 5610TIP3    H238466   2.935   4.348   0.963  3.4980 -1.0003 -0.2842
 5611TIP3   OH238467   4.775   6.316   1.380 -0.0695  0.4981 -0.1228
 5611TIP3    H138468   4.835   6.377   1.337  1.0324  0.0223  0.6947
 5611TIP3    H238469   4.810   6.307   1.468 -1.3601  0.1948  0.3708
 5612TIP3   OH238470   0.266   5.377   7.465  0.3111 -1.4008 -0.0897
 5612TIP3    H138471   0.241   5.462   7.429  0.6874 -0.7058  1.2160
 5612TIP3    H238472   0.189   5.322   7.452 -0.5520 -0.3797  0.4800
 5613TIP3   OH238473   5.815   0.264   7.909 -0.6715  0.2089 -0.0848
 5613TIP3    H138474   5.790   0.352   7.939  1.0971  1.0234 -0.8545
 5613TIP3    H238475   5.866   0.228   7.982  0.6483  0.8104 -0.6715
 5614TIP3   OH238476   5.022   0.356   2.048  0.2778 -0.2001  0.3540
 5614TIP3    H138477   5.085   0.428   2.040 -0.6256  0.6436  0.7082
 5614TIP3    H238478   4.937   0.395   2.029 -0.1024 -1.4455 -0.6555
 5615TIP3   OH238479   1.949   4.101   7.110 -0.9763 -0.5339  0.5296
 5615TIP3    H138480   1.989   4.021   7.144 -2.7611 -1.8425 -0.2732
 5615TIP3    H238481   2.022   4.153   7.078  0.1612 -2.4380 -0.1038
 5616TIP3   OH238482   2.367   4.073   1.226 -0.2685 -0.3806  0.4091
 5616TIP3    H138483   2.457   4.041   1.237 -0.0062  0.6397  1.4503
 5616TIP3    H238484   2.330   4.074   1.314 -1.0661 -0.1182  0.0866
 5617TIP3   OH238485   0.807   6.724   5.957  0.3167  0.5946  0.0834
 5617TIP3    H138486   0.853   6.808   5.950  2.1828 -0.0366  2.9842
 5617TIP3    H238487   0.742   6.738   6.026  1.2195 -0.4849  1.2050
 5618TIP3   OH238488   0.101   4.686   8.007 -0.3463 -0.1092 -0.3447
 5618TIP3    H138489   0.186   4.652   7.980 -0.2283  0.4191 -0.6576
 5618TIP3    H238490   0.100   4.776   7.976 -0.9667 -0.0654 -0.2198
 5619TIP3   OH238491   1.779   6.379   8.016 -0.1915 -0.9003  0.0126
 5619TIP3    H138492   1.702   6.406   7.966  0.4523  0.3087 -0.3450
 5619TIP3    H238493   1.812   6.303   7.969 -1.3599 -1.6701  0.3815
 5620TIP3   OH238494   2.861   0.073   7.223  0.4207 -0.0469  0.0064
 5620TIP3    H138495   2.848   0.090   7.130  0.6826 -1.1413 -0.2436
 5620TIP3    H238496   2.932   0.132   7.249 -0.4045  1.0803 -0.2025
 5621TIP3   OH238497   4.869   5.027   1.786 -0.7783 -0.3854 -0.3595
 5621TIP3    H138498   4.899   4.939   1.764  1.6067 -0.1965  1.7177
 5621TIP3    H238499   4.880   5.077   1.704  0.5324 -1.3926 -0.8316
 5622TIP3   OH238500   1.514   2.269   0.685 -0.2270 -0.1187  0.6393
 5622TIP3    H138501   1.459   2.344   0.663 -1.6901 -1.1652  0.5592
 5622TIP3    H238502   1.542   2.235   0.600 -3.0285 -2.0905  0.3535
 5623TIP3   OH238503   6.671   3.082   1.968  0.0418  0.3255 -0.0066
 5623TIP3    H138504   6.730   3.154   1.948 -2.6098  1.9140 -2.9044
 5623TIP3    H238505   6.605   3.120   2.025 -0.1285 -0.4836  0.3520
 5624TIP3   OH238506   6.135   6.417   1.506  0.2332  0.1958  0.1368
 5624TIP3    H138507   6.164   6.420   1.598  0.7569 -0.4792  0.0030
 5624TIP3    H238508   6.063   6.479   1.502 -0.3988 -0.4380  1.2225
 5625TIP3   OH238509   6.801   0.968   1.673 -0.2137 -0.5278  0.2617
 5625TIP3    H138510   6.768   0.881   1.695 -0.7911 -0.7792 -1.4541
 5625TIP3    H238511   6.727   1.011   1.631  0.3994  0.4180  0.1279
 5626TIP3   OH238512   1.343   3.246   7.285 -0.0025  0.1784  0.0775
 5626TIP3    H138513   1.347   3.151   7.286  0.2476  0.1851  1.4000
 5626TIP3    H238514   1.314   3.270   7.373  1.1797  1.3609  0.1787
 5627TIP3   OH238515   4.623   4.742   1.665  0.2090 -0.2639  0.2702
 5627TIP3    H138516   4.601   4.720   1.755 -0.2992 -1.3597 -0.1135
 5627TIP3    H238517   4.687   4.676   1.639  0.1302 -0.1340 -0.2660
 5628TIP3   OH238518   4.544   4.398   0.287  0.1003  0.0864  0.4854
 5628TIP3    H138519   4.453   4.377   0.308 -0.2000  1.2508  0.4534
 5628TIP3    H238520   4.548   4.395   0.192  0.4640 -1.3367  0.5299
 5629TIP3   OH238521   5.961   0.870   2.130  0.0606  0.1451  0.2410
 5629TIP3    H138522   5.965   0.966   2.128 -0.5165  0.1929  1.0466
 5629TIP3    H238523   6.039   0.844   2.178  1.3744  0.0822 -1.7887
 5630TIP3   OH238524   5.373   4.474   1.218  0.0450 -0.3282  0.5182
 5630TIP3    H138525   5.319   4.499   1.142  1.4297 -2.3624 -1.2607
 5630TIP3    H238526   5.323   4.404   1.260  0.0350 -0.3678  0.4432
 5631TIP3   OH238527   1.370   5.831   7.585  0.0689 -0.5365 -0.0460
 5631TIP3    H138528   1.343   5.816   7.676 -0.2014  2.2612  0.4580
 5631TIP3    H238529   1.465   5.837   7.588  0.1445 -1.5601 -0.1754
 5632TIP3   OH238530   5.086   7.072   0.613  0.1284 -0.0983 -0.2007
 5632TIP3    H138531   5.070   6.979   0.628 -0.3545 -0.0468 -0.3750
 5632TIP3    H238532   5.139   7.099   0.688 -2.1317  0.1272  1.4348
 5633TIP3   OH238533   5.922   2.846   7.274 -0.2640 -0.1455  0.0247
 5633TIP3    H138534   5.937   2.911   7.205  0.0848  0.3502  0.5605
 5633TIP3    H238535   5.866   2.780   7.233  0.3354 -0.1105 -0.8829
 5634TIP3   OH238536   6.054   3.624   7.515 -0.0333  0.2895 -0.2529
 5634TIP3    H138537   6.098   3.614   7.600  1.1729  2.4575 -0.5709
 5634TIP3    H238538   6.032   3.534   7.490 -0.4365 -0.4270  2.3301
 5635TIP3   OH238539   3.131   0.837   1.291  0.5047  0.2452 -0.1489
 5635TIP3    H138540   3.085   0.906   1.243  0.6749  1.9277  1.9309
 5635TIP3    H238541   3.074   0.760   1.282 -1.1847  1.4256 -0.2038
 5636TIP3   OH238542   3.313   0.533   7.729  0.1310  0.2009 -0.5559
 5636TIP3    H138543   3.247   0.524   7.798  0.3554  1.9842 -0.0532
 5636TIP3    H238544   3.390   0.486   7.763  0.2502  1.0885  0.4602
 5637TIP3   OH238545   3.548   4.649   8.116 -0.3254 -0.3642  0.4382
 5637TIP3    H138546   3.558   4.722   8.055  0.8629 -0.9015 -0.0328
 5637TIP3    H238547   3.569   4.686   8.202  0.7202 -0.2409  0.1445
 5638TIP3   OH238548   5.830   5.365   0.471  0.0256 -0.8169  0.0046
 5638TIP3    H138549   5.838   5.306   0.546 -0.1348  0.1678  0.8154
 5638TIP3    H238550   5.911   5.416   0.472 -0.6523  0.2784  0.4607
 5639TIP3   OH238551   2.743   4.249   7.617  0.5615 -0.0219 -0.5530
 5639TIP3    H138552   2.750   4.337   7.655 -3.7925 -1.0287  3.5667
 5639TIP3    H238553   2.812   4.199   7.661  0.7361  0.5676 -0.1377
 5640TIP3   OH238554   2.897   3.088   0.708  0.0166 -0.0497 -0.0640
 5640TIP3    H138555   2.934   3.170   0.674  1.6859  0.5791  2.8918
 5640TIP3    H238556   2.852   3.114   0.789 -1.8463 -1.7273 -0.4650
 5641TIP3   OH238557   0.755   0.270   1.844 -0.5651 -0.3545  0.2923
 5641TIP3    H138558   0.666   0.291   1.815  0.0907  1.0433 -0.8891
 5641TIP3    H238559   0.809   0.337   1.802  0.9498 -0.6562  1.6842
 5642TIP3   OH238560   5.467   4.611   0.802  0.2510  0.2687 -0.1293
 5642TIP3    H138561   5.464   4.540   0.866  0.6959 -0.1746 -0.5861
 5642TIP3    H238562   5.376   4.626   0.779  0.0621  0.6158  0.8001
 5643TIP3   OH238563   4.873   6.861   7.011 -0.6917 -0.1150  0.0528
 5643TIP3    H138564   4.899   6.858   6.919  0.5762  1.8916  0.2769
 5643TIP3    H238565   4.946   6.821   7.059 -0.7917 -0.0603  0.2553
 5644TIP3   OH238566   0.049   2.528   2.203 -0.5494  0.2185  0.2680
 5644TIP3    H138567  -0.024   2.590   2.203 -1.0070 -0.2703  1.8719
 5644TIP3    H238568   0.008   2.444   2.225  0.1148 -0.6088 -1.4739
 5645TIP3   OH238569   4.167   0.231   7.977  0.4590 -0.0251  0.1749
 5645TIP3    H138570   4.097   0.172   7.949 -0.9093  0.7109  1.8520
 5645TIP3    H238571   4.224   0.177   8.031 -0.6423  0.0891  1.4854
 5646TIP3   OH238572   5.258   6.619   7.230  0.0548 -0.3947 -0.2255
 5646TIP3    H138573   5.322   6.582   7.290 -0.2334 -0.4069  0.0758
 5646TIP3    H238574   5.254   6.556   7.158  0.6316 -0.2242 -0.4169
 5647TIP3   OH238575   2.365   2.350   2.055  0.8048  0.0640 -0.3678
 5647TIP3    H138576   2.396   2.291   2.123  0.5514 -0.1337 -0.4213
 5647TIP3    H238577   2.285   2.309   2.022  1.0041  0.0780 -0.8895
 5648TIP3   OH238578   0.595   0.313   6.183  0.2897 -0.5232  0.0928
 5648TIP3    H138579   0.532   0.315   6.111 -0.5371  2.2701  0.7923
 5648TIP3    H238580   0.674   0.352   6.146  0.2136 -0.0813  0.3985
 5649TIP3   OH238581   0.424   2.132   7.254  0.2781  0.3334 -0.5861
 5649TIP3    H138582   0.516   2.107   7.251 -0.0320 -0.7103 -2.0943
 5649TIP3    H238583   0.396   2.136   7.163 -2.2132 -3.4943 -0.2387
 5650TIP3   OH238584   4.173   6.591   6.950 -0.3206 -0.2701  0.1496
 5650TIP3    H138585   4.241   6.548   6.899 -2.2919 -1.1817 -1.9153
 5650TIP3    H238586   4.125   6.645   6.886 -2.2008 -0.5568  1.2265
 5651TIP3   OH238587   3.692   6.630   1.419  0.9500  0.0410  0.3026
 5651TIP3    H138588   3.617   6.679   1.387  1.4404  1.2198  0.8817
 5651TIP3    H238589   3.704   6.559   1.356 -1.7818 -1.3469  1.1689
 5652TIP3   OH238590   2.377   0.459   6.772 -0.4633 -0.0171  0.2756
 5652TIP3    H138591   2.424   0.526   6.723  1.3194 -0.2869  1.5163
 5652TIP3    H238592   2.380   0.381   6.716  1.8453 -0.4209  0.8638
 5653TIP3   OH238593   4.441   4.478   0.955  0.1696 -0.7127 -0.0494
 5653TIP3    H138594   4.507   4.502   0.890 -0.8031  0.9437 -0.4932
 5653TIP3    H238595   4.469   4.521   1.035  1.0265 -2.2294  0.4941
 5654TIP3   OH238596   1.389   2.967   8.078 -0.1104  0.0047 -0.3575
 5654TIP3    H138597   1.411   2.875   8.062  0.9793  0.3496 -0.9260
 5654TIP3    H238598   1.319   2.986   8.016 -0.2384 -0.3930 -0.3414
 5655TIP3   OH238599   5.772   5.525   7.292  0.4892 -0.1173  0.2005
 5655TIP3    H138600   5.686   5.566   7.285  0.3858 -0.5978 -2.8394
 5655TIP3    H238601   5.834   5.599   7.288  0.2312  0.0504 -1.8197
 5656TIP3   OH238602   2.351   1.405   6.139  0.3098  0.1673  0.3910
 5656TIP3    H138603   2.294   1.361   6.076  2.0565  0.6605 -1.6362
 5656TIP3    H238604   2.396   1.333   6.184  0.5951 -0.1885 -0.4352
 5657TIP3   OH238605   2.254   3.206   1.534 -0.2566 -0.1413  0.7770
 5657TIP3    H138606   2.321   3.267   1.566  0.3142  0.4791 -1.4160
 5657TIP3    H238607   2.184   3.262   1.501  0.9931 -0.4442 -2.8261
 5658TIP3   OH238608   5.343   4.274   0.732  0.0885 -0.0735 -0.3481
 5658TIP3    H138609   5.385   4.324   0.803 -1.4648  0.8916 -0.0751
 5658TIP3    H238610   5.262   4.241   0.771 -0.6667  0.2692 -1.6029
 5659TIP3   OH238611   5.901   5.975   7.515  0.5260 -0.3303  0.3054
 5659TIP3    H138612   5.950   6.025   7.449 -2.1838  3.1338  0.6052
 5659TIP3    H238613   5.946   5.995   7.597  1.2860 -1.0078  0.0692
 5660TIP3   OH238614   6.252   0.394   8.071 -0.3028 -0.2348 -0.4266
 5660TIP3    H138615   6.187   0.425   8.008  0.4490  1.4688 -0.4212
 5660TIP3    H238616   6.300   0.326   8.024 -1.4139 -0.8224 -0.7660
 5661TIP3   OH238617   5.598   3.236   7.532  0.9148 -0.4866  0.1550
 5661TIP3    H138618   5.533   3.174   7.499  1.5634 -1.7054  1.1142
 5661TIP3    H238619   5.668   3.234   7.467  0.9729 -0.8122  0.2301
 5662TIP3   OH238620   1.463   0.224   1.642 -0.4031  0.6088 -0.2280
 5662TIP3    H138621   1.486   0.251   1.731  0.7252 -1.1212  0.0538
 5662TIP3    H238622   1.369   0.239   1.636 -0.6831 -0.0933  1.5995
 5663TIP3   OH238623   0.091   0.173   1.825 -0.3866  0.1733  0.3463
 5663TIP3    H138624   0.064   0.081   1.826 -0.1015  0.0571 -1.0305
 5663TIP3    H238625   0.039   0.212   1.755 -0.0491  0.9296  0.5123
 5664TIP3   OH238626   0.985   2.291   0.612  0.0883  0.0599  0.6793
 5664TIP3    H138627   0.942   2.357   0.557  0.0001 -0.0692  0.5922
 5664TIP3    H238628   1.060   2.262   0.560 -1.2391 -1.6992 -0.3900
 5665TIP3   OH238629   1.200   3.415   7.089 -0.0438 -0.7642 -0.0382
 5665TIP3    H138630   1.258   3.415   7.165 -0.2450  0.0790  0.1268
 5665TIP3    H238631   1.114   3.392   7.123 -0.6522  1.8508  0.4527
 5666TIP3   OH238632   5.810   4.398   0.516 -0.2901 -0.2220 -0.0744
 5666TIP3    H138633   5.748   4.471   0.515 -0.9349 -0.6975  1.6634
 5666TIP3    H238634   5.886   4.430   0.467 -1.7252  0.4966 -1.9599
 5667TIP3   OH238635   6.309   1.117   1.121  0.6474  0.1216  0.2033
 5667TIP3    H138636   6.351   1.201   1.142  0.4552  0.0394  0.9635
 5667TIP3    H238637   6.216   1.135   1.126  0.6003 -0.3631  1.3782
 5668TIP3   OH238638   2.179   4.693   1.443 -0.5167  0.7246  0.7540
 5668TIP3    H138639   2.102   4.719   1.394  0.8496  1.6546 -0.9807
 5668TIP3    H238640   2.189   4.761   1.510 -0.0619  1.7504 -0.3225
 5669TIP3   OH238641   4.075   1.806   1.457  0.5204 -0.5096  0.1887
 5669TIP3    H138642   4.126   1.864   1.400 -2.0479  1.4106 -0.3365
 5669TIP3    H238643   4.047   1.735   1.399 -0.7382  0.6016 -0.6505
 5670TIP3   OH238644   5.810   3.692   8.222 -0.3346 -0.0462 -0.2287
 5670TIP3    H138645   5.799   3.755   8.293 -2.1677  1.8104 -2.0283
 5670TIP3    H238646   5.898   3.708   8.189 -0.7494  1.5918 -0.6228
 5671TIP3   OH238647   2.858   6.033   2.744  0.1418  0.4988 -0.1242
 5671TIP3    H138648   2.951   6.037   2.764  0.1839  2.5296 -0.5150
 5671TIP3    H238649   2.819   6.104   2.795 -1.3751 -0.9025  0.7693
 5672TIP3   OH238650   0.089   5.703   0.781 -0.4582 -0.3738 -0.6670
 5672TIP3    H138651  -0.001   5.671   0.770 -1.1787  1.1701  0.2803
 5672TIP3    H238652   0.099   5.713   0.875  0.6386 -0.3140 -0.7846
 5673TIP3   OH238653   2.011   2.400   0.487 -0.2665  0.5093 -0.0650
 5673TIP3    H138654   2.071   2.368   0.420 -0.1272  2.3022 -0.8652
 5673TIP3    H238655   1.924   2.390   0.448 -0.1612  1.9324 -0.7506
 5674TIP3   OH238656   2.984   4.030   1.335  0.0922  0.1315  0.2300
 5674TIP3    H138657   2.910   3.982   1.297 -0.0729  0.1786  0.4879
 5674TIP3    H238658   3.044   4.045   1.262  0.4069 -0.9527  0.2577
 5675TIP3   OH238659   4.437   5.725   0.309  0.4311  0.1002 -0.6449
 5675TIP3    H138660   4.358   5.778   0.321  0.2048 -0.7343  2.4340
 5675TIP3    H238661   4.406   5.645   0.267 -0.2533  0.1037 -0.1727
 5676TIP3   OH238662   2.601   5.949   2.016 -0.3753 -0.0762  0.1554
 5676TIP3    H138663   2.687   5.932   1.977  0.8197  0.9265  2.1981
 5676TIP3    H238664   2.554   5.866   2.007  1.3201 -1.0822  0.1923
 5677TIP3   OH238665   2.634   6.428   2.262  0.3430  0.1660  1.1589
 5677TIP3    H138666   2.545   6.435   2.228  0.5398  1.0402  0.7961
 5677TIP3    H238667   2.626   6.370   2.338 -0.5593  0.3368  1.2050
 5678TIP3   OH238668   6.999   1.145   0.141  0.6081  0.1533  0.6437
 5678TIP3    H138669   7.037   1.175   0.224  1.6132  1.1142 -0.1351
 5678TIP3    H238670   7.075   1.124   0.086 -0.0432 -0.3208 -0.0975
 5679TIP3   OH238671   0.912   5.857   6.822 -0.2018 -0.5475  0.1194
 5679TIP3    H138672   0.890   5.863   6.915 -1.4887 -0.4626 -0.1630
 5679TIP3    H238673   0.868   5.776   6.793 -0.1522 -0.3560 -0.4976
 5680TIP3   OH238674   6.142   6.310   0.403 -0.1452  0.2111 -0.6298
 5680TIP3    H138675   6.197   6.261   0.463  1.1547  2.1957 -0.1007
 5680TIP3    H238676   6.178   6.399   0.404 -1.9821  1.0486 -2.0096
 5681TIP3   OH238677   5.878   4.219   1.123 -0.4925  0.1600 -0.7082
 5681TIP3    H138678   5.905   4.137   1.164 -0.6137  0.6094  0.2801
 5681TIP3    H238679   5.804   4.249   1.175  1.4073  2.4548  0.9143
 5682TIP3   OH238680   2.186   1.668   0.656  0.0291 -0.0709 -0.1607
 5682TIP3    H138681   2.239   1.599   0.615 -0.8206  0.2980 -1.9534
 5682TIP3    H238682   2.136   1.706   0.584 -1.0842  1.0288  1.1490
 5683TIP3   OH238683   0.812   6.671   1.472 -0.1161 -0.3411 -0.3550
 5683TIP3    H138684   0.790   6.749   1.421  1.3303 -0.9081 -1.9076
 5683TIP3    H238685   0.729   6.626   1.484 -0.5136 -0.1773 -2.2034
 5684TIP3   OH238686   5.285   3.303   2.979  0.3233  0.0945  0.1398
 5684TIP3    H138687   5.266   3.356   3.056 -1.4815 -2.0049  1.2633
 5684TIP3    H238688   5.374   3.270   2.993  0.0123 -0.2612  1.3631
 5685TIP3   OH238689   5.658   1.360   1.811  0.5404  0.1571 -0.4470
 5685TIP3    H138690   5.568   1.393   1.810  1.0710  1.6789 -1.3046
 5685TIP3    H238691   5.648   1.265   1.802 -1.0222  0.0989  1.2337
 5686TIP3   OH238692   1.956   4.444   7.153 -0.6468  0.2999  0.4159
 5686TIP3    H138693   2.042   4.427   7.191 -0.2423  1.5720  0.1298
 5686TIP3    H238694   1.900   4.467   7.227 -0.6281 -0.0922  0.5531
 5687TIP3   OH238695   0.599   1.157   0.512 -0.4663 -0.4131  0.2178
 5687TIP3    H138696   0.571   1.217   0.582 -0.4118 -1.7122  1.3873
 5687TIP3    H238697   0.635   1.081   0.558 -1.7664 -1.9531 -1.1846
 5688TIP3   OH238698   0.891   3.493   1.878 -0.1719 -0.1501 -0.1805
 5688TIP3    H138699   0.884   3.583   1.911  0.7323 -0.2980  0.4679
 5688TIP3    H238700   0.801   3.466   1.861 -0.5322  0.5468  0.5459
 5689TIP3   OH238701   0.704   2.873   0.828 -0.1778 -0.0824 -0.2737
 5689TIP3    H138702   0.644   2.942   0.856 -1.2568 -0.9705 -0.3050
 5689TIP3    H238703   0.675   2.796   0.877  0.6836 -0.6412 -0.6178
 5690TIP3   OH238704   4.396   5.249   2.264 -0.3520  0.2786 -0.2264
 5690TIP3    H138705   4.420   5.284   2.178  0.6608  0.1358 -0.0116
 5690TIP3    H238706   4.460   5.287   2.324 -0.8924  0.1669  0.4285
 5691TIP3   OH238707   6.228   6.515   7.552  0.2161 -0.5589  0.7850
 5691TIP3    H138708   6.161   6.465   7.598  0.0225 -0.5942  0.4668
 5691TIP3    H238709   6.299   6.525   7.616 -1.3554  2.2569  2.2670
 5692TIP3   OH238710   0.825   5.886   1.129 -0.0083 -0.2021 -0.9411
 5692TIP3    H138711   0.833   5.978   1.103  0.5627 -0.0889 -0.3927
 5692TIP3    H238712   0.774   5.846   1.059 -0.8274  0.6708 -0.8660
 5693TIP3   OH238713   0.825   1.267   0.912  0.4070 -0.3555  0.1830
 5693TIP3    H138714   0.862   1.264   0.824  1.7027  0.6273  0.6667
 5693TIP3    H238715   0.791   1.178   0.927  1.8149 -1.0596 -0.6229
 5694TIP3   OH238716   1.787   3.781   0.827  0.0966  0.9013  0.1749
 5694TIP3    H138717   1.747   3.777   0.914 -1.4378  1.1631 -0.4945
 5694TIP3    H238718   1.881   3.777   0.845 -0.1218  2.1811  1.9186
 5695TIP3   OH238719   5.161   4.634   7.467 -0.3410 -0.4308  0.3272
 5695TIP3    H138720   5.127   4.556   7.510  0.5767 -0.1373  1.6488
 5695TIP3    H238721   5.246   4.649   7.509 -0.0627  0.7069 -0.6017
 5696TIP3   OH238722   2.188   5.891   1.518  0.5508  0.0973  0.7003
 5696TIP3    H138723   2.223   5.937   1.441 -0.0037  1.0552  0.9972
 5696TIP3    H238724   2.103   5.932   1.533 -0.1310 -1.3163  0.7662
 5697TIP3   OH238725   6.714   2.903   7.290 -0.5183 -0.6452 -0.4956
 5697TIP3    H138726   6.631   2.934   7.253 -0.6845  1.4138  1.3529
 5697TIP3    H238727   6.765   2.983   7.305 -0.2273 -1.2882  2.9518
 5698TIP3   OH238728   1.310   5.339   8.002  0.4094 -0.1373  0.2335
 5698TIP3    H138729   1.232   5.394   8.008  1.3679  1.5709 -1.3878
 5698TIP3    H238730   1.341   5.331   8.092 -0.2867  1.2593  0.6320
 5699TIP3   OH238731   7.028   2.830   7.033  0.2573  0.2478  0.2033
 5699TIP3    H138732   7.041   2.840   6.939 -0.5834  1.9749  0.2346
 5699TIP3    H238733   6.934   2.816   7.043  0.3660 -0.1052  0.7820
 5700TIP3   OH238734   5.365   4.190   7.681 -0.4496 -0.4522 -0.1376
 5700TIP3    H138735   5.446   4.169   7.728  0.5315 -0.5172 -1.7686
 5700TIP3    H238736   5.339   4.108   7.640 -3.3161 -1.3357  3.0585
 5701TIP3   OH238737   3.704   6.235   7.697 -0.1744 -0.4362  0.2559
 5701TIP3    H138738   3.659   6.226   7.782  1.7416 -0.8487  1.2979
 5701TIP3    H238739   3.634   6.252   7.634 -1.4656  2.5241  2.2708
 5702TIP3   OH238740   3.530   0.364   1.277  0.1834 -0.4282 -0.5689
 5702TIP3    H138741   3.506   0.381   1.185  0.4784  1.5185 -0.3231
 5702TIP3    H238742   3.576   0.280   1.274 -1.7731 -1.5444 -1.8527
 5703TIP3   OH238743   0.863   6.286   0.420 -0.4072 -0.5806 -0.2563
 5703TIP3    H138744   0.954   6.269   0.396 -0.3368 -1.5948  0.6032
 5703TIP3    H238745   0.825   6.198   0.433 -1.9341 -0.2548 -2.0275
 5704TIP3   OH238746   3.453   2.713   0.501  0.1540  0.0866  0.6828
 5704TIP3    H138747   3.459   2.719   0.596 -0.5411 -0.4400  0.7658
 5704TIP3    H238748   3.377   2.767   0.479 -1.6304 -2.2641  0.7424
 5705TIP3   OH238749   1.888   1.948   2.463 -0.2885 -0.1677  0.1145
 5705TIP3    H138750   1.937   2.010   2.411  3.1127 -0.6754  2.3655
 5705TIP3    H238751   1.917   1.862   2.432  0.4716 -0.4828  1.6102
 5706TIP3   OH238752   6.196   6.044   0.256  0.6523 -0.3372  0.2079
 5706TIP3    H138753   6.187   6.120   0.314  0.8145 -1.6228  1.9925
 5706TIP3    H238754   6.120   5.990   0.277  0.8376 -0.9392 -0.6478
 5707TIP3   OH238755   5.338   5.523   6.357 -0.4425 -0.1117  0.0680
 5707TIP3    H138756   5.429   5.543   6.337 -0.8026  0.8824 -0.7120
 5707TIP3    H238757   5.313   5.589   6.422 -1.1077  0.8487 -1.1093
 5708TIP3   OH238758   6.388   3.200   7.041  0.0125 -0.3605 -0.2346
 5708TIP3    H138759   6.321   3.133   7.029  0.0531 -0.4139 -0.1623
 5708TIP3    H238760   6.376   3.259   6.966 -0.0999 -0.3829 -0.2346
 5709TIP3   OH238761   4.807   6.155   0.267  0.4191  0.2271  0.1572
 5709TIP3    H138762   4.847   6.127   0.185 -0.0952 -0.0262 -0.0159
 5709TIP3    H238763   4.730   6.205   0.241  1.2249  1.6840  0.4714
 5710TIP3   OH238764   4.096   5.932   6.809  0.2507  0.2635  0.2379
 5710TIP3    H138765   4.074   5.905   6.898  1.3227  2.3196  1.1777
 5710TIP3    H238766   4.017   5.977   6.777  0.0766  0.0441  0.3595
 5711TIP3   OH238767   4.511   6.646   1.448 -0.0881  0.2384 -0.2920
 5711TIP3    H138768   4.446   6.712   1.470 -1.4967 -0.5994 -1.7457
 5711TIP3    H238769   4.460   6.566   1.431  1.3626 -0.6151 -0.8611
 5712TIP3   OH238770   3.552   0.790   0.845  0.3892  0.2441  0.2797
 5712TIP3    H138771   3.475   0.771   0.792  0.4949  0.8545 -0.1046
 5712TIP3    H238772   3.518   0.831   0.925  0.0968 -2.1260  1.4548
 5713TIP3   OH238773   5.557   2.549   7.003 -0.0769  0.7479 -0.4040
 5713TIP3    H138774   5.594   2.621   6.952  0.6733  0.9111  0.3530
 5713TIP3    H238775   5.468   2.577   7.022  0.0105  1.2016 -0.6454
 5714TIP3   OH238776   6.389   3.124   2.102  0.4314 -0.5772  0.3483
 5714TIP3    H138777   6.298   3.105   2.078 -0.0832  2.8726 -0.9584
 5714TIP3    H238778   6.405   3.067   2.178 -2.0783 -2.7825 -0.5926
 5715TIP3   OH238779   1.592   1.995   7.176  0.3144 -0.8173 -0.3438
 5715TIP3    H138780   1.526   2.054   7.141  0.2497 -0.6772  0.0051
 5715TIP3    H238781   1.546   1.946   7.245  0.3868 -1.2193 -0.5797
 5716TIP3   OH238782   4.717   0.290   7.770 -0.2115 -0.4521  0.1774
 5716TIP3    H138783   4.644   0.352   7.761 -0.1461 -0.3457  0.3921
 5716TIP3    H238784   4.687   0.212   7.723  0.1156  0.0972 -0.9773
 5717TIP3   OH238785   1.560   0.231   0.858  0.5829  0.3011 -0.3401
 5717TIP3    H138786   1.545   0.209   0.766 -0.6041 -0.5942  0.0456
 5717TIP3    H238787   1.491   0.293   0.879  0.8321  0.4774 -0.0388
 5718TIP3   OH238788   3.054   0.998   7.141  0.8607  0.4588 -0.0724
 5718TIP3    H138789   3.002   0.925   7.173  2.9254 -0.8123  0.5091
 5718TIP3    H238790   3.010   1.076   7.176 -2.1305 -0.2954 -1.7615
 5719TIP3   OH238791   5.738   5.339   1.986 -0.0658  0.2794  0.5381
 5719TIP3    H138792   5.727   5.406   1.918 -0.4897 -0.2160  0.1024
 5719TIP3    H238793   5.796   5.379   2.051 -2.8889  2.3757  1.9904
 5720TIP3   OH238794   2.537   2.301   0.108  0.7267  0.3724  0.4839
 5720TIP3    H138795   2.531   2.368   0.040  1.4854  0.3577  0.3922
 5720TIP3    H238796   2.462   2.244   0.093  0.8845  0.3692 -0.3495
 5721TIP3   OH238797   4.346   2.568   0.878 -0.2436 -0.5539 -0.5360
 5721TIP3    H138798   4.402   2.526   0.812  0.0627  0.4210 -0.9163
 5721TIP3    H238799   4.259   2.569   0.837 -0.2677 -0.8608 -0.4981
 5722TIP3   OH238800   5.009   7.080   0.961  0.3341 -0.1428 -0.6512
 5722TIP3    H138801   4.990   7.002   0.909 -0.9010 -0.0564 -0.3577
 5722TIP3    H238802   5.088   7.116   0.921  0.1996 -0.8420 -1.5908
 5723TIP3   OH238803   6.178   6.502   8.030  0.4671  0.7894  0.3871
 5723TIP3    H138804   6.179   6.407   8.039 -1.0893  0.6504 -0.5300
 5723TIP3    H238805   6.241   6.521   7.961  0.4366  0.3766  0.2482
 5724TIP3   OH238806   1.294   2.552   0.316 -0.1146  0.5399  0.5657
 5724TIP3    H138807   1.251   2.632   0.347  0.2210  1.2103 -0.6698
 5724TIP3    H238808   1.294   2.559   0.221 -2.2181 -2.0452  0.2292
 5725TIP3   OH238809   6.991   5.340   7.942 -0.4149 -0.6872  0.0029
 5725TIP3    H138810   7.027   5.346   7.853  2.9639  1.7904  1.3153
 5725TIP3    H238811   7.067   5.340   7.999 -2.4807  0.1095  3.0081
 5726TIP3   OH238812   3.437   2.814   0.230 -0.4479  0.3598 -0.4965
 5726TIP3    H138813   3.515   2.794   0.282 -1.4598 -1.1261  0.5381
 5726TIP3    H238814   3.371   2.840   0.294 -1.3634 -0.3216 -1.1336
 5727TIP3   OH238815   1.103   2.919   0.792  0.2577 -0.2503  0.2039
 5727TIP3    H138816   1.097   2.834   0.749  0.5233  0.2469 -0.8476
 5727TIP3    H238817   1.013   2.950   0.798  0.1782 -0.5220  0.4191
 5728TIP3   OH238818   5.455   4.719   7.499 -0.0694 -0.0473 -0.4313
 5728TIP3    H138819   5.511   4.761   7.565  0.2105  1.5496 -1.6243
 5728TIP3    H238820   5.441   4.631   7.532  0.5909  0.5015  1.4439
 5729TIP3   OH238821   6.832   3.168   0.136 -0.4284  0.0307  0.0314
 5729TIP3    H138822   6.881   3.250   0.126 -0.3173  0.3283  2.3214
 5729TIP3    H238823   6.756   3.179   0.080 -0.3553  1.6765  0.1881
 5730TIP3   OH238824   4.612   4.705   1.144 -0.0048 -0.1839 -0.0987
 5730TIP3    H138825   4.604   4.777   1.206  3.0298 -0.0326  0.2753
 5730TIP3    H238826   4.652   4.745   1.066  1.6720 -1.3725  0.0896
 5731TIP3   OH238827   2.320   4.761   2.283 -0.3569  0.3111  0.0676
 5731TIP3    H138828   2.387   4.712   2.330 -0.2644  1.1413  0.8407
 5731TIP3    H238829   2.238   4.741   2.329 -0.3705  0.6111  0.1771
 5732TIP3   OH238830   5.775   2.267   2.134  0.0160  0.4055  0.0568
 5732TIP3    H138831   5.752   2.191   2.188  0.7819  0.5914  0.6622
 5732TIP3    H238832   5.717   2.337   2.165  0.6295  0.5825  0.8345
 5733TIP3   OH238833   1.677   2.162   2.104  0.3989 -0.4108  0.2320
 5733TIP3    H138834   1.647   2.225   2.171 -1.2479 -0.5349 -0.3306
 5733TIP3    H238835   1.605   2.160   2.040  0.9501 -1.9829 -0.3776
 5734TIP3   OH238836   1.764   3.187   1.493 -0.6248  0.0066 -0.5667
 5734TIP3    H138837   1.725   3.264   1.534 -0.9898  0.4088 -1.6296
 5734TIP3    H238838   1.701   3.117   1.508 -1.2358  0.3868 -1.2826
 5735TIP3   OH238839   2.317   2.422   2.354 -0.2914 -0.3427 -0.0950
 5735TIP3    H138840   2.353   2.392   2.270  1.2612  0.7766  0.1358
 5735TIP3    H238841   2.284   2.342   2.395 -1.0735 -0.9253 -1.7314
 5736TIP3   OH238842   5.146   4.955   0.773  0.0882  0.0106 -0.0473
 5736TIP3    H138843   5.167   4.867   0.743  0.3475  0.0490  0.0217
 5736TIP3    H238844   5.176   4.957   0.864 -1.2374 -0.3085  0.4223
 5737TIP3   OH238845   4.364   0.490   2.329 -0.2137 -0.0427 -0.6205
 5737TIP3    H138846   4.429   0.556   2.304 -0.6895  0.1136 -1.4895
 5737TIP3    H238847   4.379   0.476   2.422  2.0509 -1.1102 -1.0731
 5738TIP3   OH238848   4.441   5.230   1.573  0.0356 -0.3076  0.5917
 5738TIP3    H138849   4.482   5.144   1.565  1.0492  0.1862  0.2894
 5738TIP3    H238850   4.492   5.275   1.640 -1.7419 -0.6201  2.2597
 5739TIP3   OH238851   3.363   1.308   0.391  0.5115 -0.3972 -0.3645
 5739TIP3    H138852   3.436   1.275   0.442 -0.8132  0.2684  2.1386
 5739TIP3    H238853   3.287   1.260   0.423 -0.9621  2.5932  1.0703
 5740TIP3   OH238854   2.851   6.606   7.767 -0.3515 -0.5494  0.2259
 5740TIP3    H138855   2.861   6.590   7.673 -3.0299  1.7389 -0.5754
 5740TIP3    H238856   2.933   6.648   7.792 -0.0782 -0.0254 -1.3894
 5741TIP3   OH238857   2.929   0.077   6.596 -0.1577 -0.0303 -0.3557
 5741TIP3    H138858   3.018   0.096   6.625  0.1817 -1.6213 -0.2563
 5741TIP3    H238859   2.940   0.027   6.515 -1.0197  1.5009 -1.4593
 5742TIP3   OH238860   4.590   2.135   0.124 -0.0103 -0.5340  0.0232
 5742TIP3    H138861   4.664   2.176   0.080  0.4399 -0.8414  0.4685
 5742TIP3    H238862   4.577   2.188   0.203 -0.1092 -0.6186  0.0636
 5743TIP3   OH238863   6.435   1.622   1.261  0.0140  0.2351  0.4987
 5743TIP3    H138864   6.382   1.563   1.207 -0.2768  0.8738  0.0740
 5743TIP3    H238865   6.388   1.625   1.345  0.7644 -1.1888  0.9970
 5744TIP3   OH238866   1.785   1.411   0.342 -0.1026  0.0656 -0.6016
 5744TIP3    H138867   1.858   1.419   0.404 -0.3902  2.7610 -0.4783
 5744TIP3    H238868   1.709   1.391   0.397 -0.2074  1.6525 -0.1080
 5745TIP3   OH238869   4.335   6.395   1.428  0.0255  0.8325  0.9281
 5745TIP3    H138870   4.259   6.453   1.425 -1.5384 -1.1394  0.4862
 5745TIP3    H238871   4.320   6.339   1.503  0.2282 -0.6128 -0.0759
 5746TIP3   OH238872   0.809   4.605   1.522  0.4439 -0.0645 -0.2026
 5746TIP3    H138873   0.863   4.547   1.469 -0.4802 -0.7428 -0.4417
 5746TIP3    H238874   0.724   4.560   1.528 -0.5472  1.5693 -0.9989
 5747TIP3   OH238875   1.057   4.149   1.984 -0.2862  0.4805  0.0683
 5747TIP3    H138876   1.120   4.208   1.943 -0.4716  0.7237  0.1347
 5747TIP3    H238877   1.068   4.163   2.078  0.9451 -0.9005  0.1650
 5748TIP3   OH238878   5.792   6.318   2.588 -0.1720 -0.3211 -0.5904
 5748TIP3    H138879   5.854   6.380   2.550  3.3086 -2.5465  0.9204
 5748TIP3    H238880   5.735   6.371   2.642  1.9449  1.7358 -0.1953
 5749TIP3   OH238881   5.704   2.726   1.674  0.1804 -0.3588 -0.1041
 5749TIP3    H138882   5.737   2.763   1.755 -0.9063 -0.0181  0.1959
 5749TIP3    H238883   5.721   2.794   1.608 -0.8110  0.2448  0.2392
 5750TIP3   OH238884   0.744   4.869   1.445 -0.0369 -0.0552  0.6439
 5750TIP3    H138885   0.652   4.867   1.471  0.5076  0.6064  2.7493
 5750TIP3    H238886   0.785   4.796   1.492  0.1976 -1.6481 -1.8384
 5751TIP3   OH238887   2.043   4.671   1.968  0.0419  0.3459  0.2477
 5751TIP3    H138888   1.970   4.633   1.920 -1.0470  1.6370  0.8132
 5751TIP3    H238889   2.067   4.605   2.033 -0.8365  0.0287  0.2567
 5752TIP3   OH238890   1.213   6.414   1.071 -0.2205 -0.0411 -0.1784
 5752TIP3    H138891   1.222   6.345   1.006 -0.4290 -0.3362  0.1022
 5752TIP3    H238892   1.176   6.488   1.022 -0.5461 -0.3189 -0.3615
 5753TIP3   OH238893   5.830   4.685   1.836  0.1357 -0.1900 -0.9676
 5753TIP3    H138894   5.796   4.748   1.899  1.9401 -0.1474  0.0096
 5753TIP3    H238895   5.892   4.735   1.783  3.2287 -1.4917  1.1859
 5754TIP3   OH238896   0.365   1.825   1.179  0.2452  0.2530  0.0349
 5754TIP3    H138897   0.420   1.757   1.141 -0.4908  0.4014 -1.3364
 5754TIP3    H238898   0.414   1.854   1.256  0.9825 -1.2095  0.1669
 5755TIP3   OH238899   5.953   5.910   0.311  0.2337  0.3344 -0.2591
 5755TIP3    H138900   5.970   5.816   0.311  0.0517  0.2875  0.8004
 5755TIP3    H238901   5.879   5.922   0.251  0.3501 -0.1736 -0.5050
 5756TIP3   OH238902   0.287   2.843   1.900 -0.1472  0.4216  0.0472
 5756TIP3    H138903   0.294   2.812   1.990 -0.9928  1.2470  0.4136
 5756TIP3    H238904   0.332   2.776   1.848  0.3045 -0.0952  1.0643
 5757TIP3   OH238905   0.030   2.554   1.767  0.5709 -0.3579  0.4727
 5757TIP3    H138906  -0.061   2.581   1.754  0.7821  0.0414 -0.2006
 5757TIP3    H238907   0.057   2.598   1.847  0.6220  0.7118 -0.1176
 5758TIP3   OH238908   6.763   0.074   2.183  0.0527 -0.3530 -0.4116
 5758TIP3    H138909   6.758   0.135   2.256 -0.4973 -0.4120 -0.3947
 5758TIP3    H238910   6.749  -0.012   2.222 -0.0526 -0.4026 -0.5560
 5759TIP3   OH238911   3.834   2.932   2.711  0.7592  0.2722  0.0459
 5759TIP3    H138912   3.866   3.002   2.768  2.1020  0.4087 -0.8379
 5759TIP3    H238913   3.803   2.977   2.632  0.9960 -0.0702 -0.2455
 5760TIP3   OH238914   4.145   1.453   0.496 -0.4355  0.2117  0.3812
 5760TIP3    H138915   4.114   1.392   0.429 -1.3472  0.6410  0.4042
 5760TIP3    H238916   4.159   1.535   0.450 -0.3048  0.2977  0.5724
 5761TIP3   OH238917   4.462   3.600   0.196 -0.0696 -0.0983  0.1227
 5761TIP3    H138918   4.541   3.564   0.237 -0.0811  0.6045  0.7754
 5761TIP3    H238919   4.395   3.534   0.213  0.2161 -0.3891  0.1475
 5762TIP3   OH238920   5.924   2.921   1.832  0.0655  0.2530  0.0173
 5762TIP3    H138921   5.849   2.904   1.890 -1.6586  0.1417 -2.1190
 5762TIP3    H238922   5.894   2.991   1.774  1.7588  0.4171 -0.7131
 5763TIP3   OH238923   1.528   0.163   5.467 -0.0123  0.1258 -0.2709
 5763TIP3    H138924   1.508   0.207   5.549  1.7751  2.1474 -0.8506
 5763TIP3    H238925   1.443   0.157   5.422 -0.8764 -0.3292  1.3469
 5764TIP3   OH238926   0.637   1.054   1.589 -0.4515 -0.1126  0.2392
 5764TIP3    H138927   0.693   1.002   1.531 -0.9872  0.4640 -0.8172
 5764TIP3    H238928   0.647   1.013   1.675  0.8005 -0.6413 -0.1352
 5765TIP3   OH238929   2.632   0.605   1.618  0.2499 -0.0136 -0.1668
 5765TIP3    H138930   2.544   0.617   1.653  1.4745  0.8131  2.9566
 5765TIP3    H238931   2.637   0.512   1.596 -2.5902  0.5376 -4.4931
 5766TIP3   OH238932   4.131   4.892   0.839  0.2588 -0.5732 -0.5046
 5766TIP3    H138933   4.066   4.889   0.768 -1.5207  0.5828  0.9684
 5766TIP3    H238934   4.190   4.963   0.814 -2.0751  1.8834  0.4268
 5767TIP3   OH238935   3.952   6.574   0.783  0.0144  0.0591 -0.1202
 5767TIP3    H138936   3.926   6.558   0.874  0.1734  0.9139  0.0815
 5767TIP3    H238937   3.965   6.486   0.747 -0.6429 -0.3144  0.5041
 5768TIP3   OH238938   3.607   2.509   6.480 -0.5498  0.5606 -0.0580
 5768TIP3    H138939   3.654   2.454   6.418  1.0802  0.8187  0.9036
 5768TIP3    H238940   3.561   2.447   6.537 -0.3987  0.2722 -0.2482
 5769TIP3   OH238941   1.724   0.050   5.685 -0.2375 -1.0545  0.1495
 5769TIP3    H138942   1.682  -0.017   5.740 -1.8399  1.2309  1.8899
 5769TIP3    H238943   1.653   0.112   5.665  1.1293  0.0390 -1.5825
 5770TIP3   OH238944   2.398   4.433   2.750 -0.0063 -0.0657  0.1474
 5770TIP3    H138945   2.375   4.469   2.836  3.8499 -1.3550  1.9744
 5770TIP3    H238946   2.343   4.355   2.742 -1.3468  0.7723  0.8006
 5771TIP3   OH238947   6.856   4.827   0.263  0.2239 -0.3108  0.6872
 5771TIP3    H138948   6.820   4.833   0.174  0.2419  0.9397  0.7504
 5771TIP3    H238949   6.902   4.743   0.264 -1.6832 -1.4417  0.2364
 5772TIP3   OH238950   6.922   3.652   7.954  0.3794 -0.4637 -0.2562
 5772TIP3    H138951   6.850   3.592   7.934 -0.4115  0.9150 -1.7304
 5772TIP3    H238952   6.913   3.723   7.892  0.7724  1.6550  1.9421
 5773TIP3   OH238953   6.966   4.325   0.020  0.1529 -0.0309 -0.2804
 5773TIP3    H138954   6.981   4.285   0.106  0.3810 -1.9716 -1.1631
 5773TIP3    H238955   7.050   4.361  -0.005  0.4461 -0.6919 -0.2712
 5774TIP3   OH238956   2.487   1.511   7.187 -0.4791  0.6354 -0.0249
 5774TIP3    H138957   2.474   1.487   7.095  0.1993  1.0104 -0.2229
 5774TIP3    H238958   2.408   1.561   7.210  0.9128  3.7917 -1.5207
 5775TIP3   OH238959   4.518   6.974   6.285 -0.2897  0.5440  0.1460
 5775TIP3    H138960   4.500   6.972   6.379 -0.7578 -0.5856  0.0513
 5775TIP3    H238961   4.576   6.900   6.270 -2.0378 -0.6946 -0.7814
 5776TIP3   OH238962   0.446   6.364   2.619 -0.0291  0.1485  0.1870
 5776TIP3    H138963   0.370   6.341   2.566  0.6605  0.3013 -0.8953
 5776TIP3    H238964   0.488   6.435   2.570 -0.5480  1.8059  2.0166
 5777TIP3   OH238965   2.747   1.534   1.333  0.1066  0.0168  0.4654
 5777TIP3    H138966   2.659   1.573   1.337  0.1234  0.0848  0.2267
 5777TIP3    H238967   2.771   1.519   1.424 -0.2454 -0.2032  0.5288
 5778TIP3   OH238968   6.472   2.839   0.522  0.3628  0.0866  0.0270
 5778TIP3    H138969   6.562   2.813   0.501 -0.5490 -1.3682 -2.5493
 5778TIP3    H238970   6.423   2.757   0.523 -1.6366  1.0923 -2.7497
 5779TIP3   OH238971   1.957   2.455   0.182  0.2211  0.0427 -0.3461
 5779TIP3    H138972   1.862   2.463   0.174  0.0063  0.1553  1.7421
 5779TIP3    H238973   1.986   2.428   0.095 -1.5305  1.5265 -1.4845
 5780TIP3   OH238974   1.633   1.275   0.523  0.2346  0.7715  0.0312
 5780TIP3    H138975   1.694   1.210   0.557 -0.3737 -0.5759 -1.3557
 5780TIP3    H238976   1.623   1.338   0.595  0.7709 -0.7004  1.4502
 5781TIP3   OH238977   2.871   0.493   1.734 -0.2035  0.1911  0.2289
 5781TIP3    H138978   2.813   0.533   1.669 -2.6563 -0.9390  1.5679
 5781TIP3    H238979   2.874   0.557   1.806 -1.1250 -0.3908  0.8122
 5782TIP3   OH238980   1.430   4.501   7.413  0.3314  0.3308 -0.0343
 5782TIP3    H138981   1.404   4.574   7.357  1.3875  0.4837 -0.3332
 5782TIP3    H238982   1.454   4.542   7.496 -1.4063  0.0896  0.6342
 5783TIP3   OH238983   1.158   1.727   6.335 -0.8250 -0.3441  0.1936
 5783TIP3    H138984   1.150   1.822   6.339  1.6961 -0.0055 -0.6890
 5783TIP3    H238985   1.224   1.705   6.401  0.0078 -1.2223 -0.8879
 5784TIP3   OH238986   2.616   0.866   7.306  0.6263  0.0604 -0.1341
 5784TIP3    H138987   2.639   0.773   7.299  0.0202 -0.1018 -0.0103
 5784TIP3    H238988   2.571   0.874   7.390  0.5140  0.4328 -0.2249
 5785TIP3   OH238989   2.341   5.495   2.062 -0.5713 -0.3990  0.4156
 5785TIP3    H138990   2.391   5.451   2.131  1.0682 -0.1411 -0.5403
 5785TIP3    H238991   2.278   5.429   2.033 -0.0740 -1.1248  0.9431
 5786TIP3   OH238992   0.070   5.959   0.988 -0.3047  0.2158 -0.4363
 5786TIP3    H138993  -0.021   5.960   1.017  0.3545 -0.2287  1.8627
 5786TIP3    H238994   0.065   5.961   0.893 -2.7321 -0.8576 -0.3933
 5787TIP3   OH238995   3.748   0.653   0.328 -0.2465 -0.4788  0.2151
 5787TIP3    H138996   3.657   0.623   0.329 -0.4980  0.2115 -0.5379
 5787TIP3    H238997   3.751   0.716   0.256  0.8346 -0.5001  0.2336
 5788TIP3   OH238998   5.586   6.981   2.250  0.3980  0.1044  0.6706
 5788TIP3    H138999   5.605   6.887   2.247 -0.1178  0.0243 -0.6593
 5788TIP3    H239000   5.492   6.987   2.265  0.1521  0.3571 -0.7839
 5789TIP3   OH239001   7.021   5.204   0.548 -0.2730 -0.2426  0.4762
 5789TIP3    H139002   7.054   5.294   0.543 -1.1762  0.0811  0.1733
 5789TIP3    H239003   7.073   5.156   0.483 -0.2107  0.1988  0.1939
 5790TIP3   OH239004   3.460   2.776   0.789 -0.2464 -0.8202 -0.1873
 5790TIP3    H139005   3.556   2.778   0.797 -0.1671 -1.3984 -0.8916
 5790TIP3    H239006   3.430   2.844   0.850  0.7125  0.7164 -1.3361
 5791TIP3   OH239007   3.731   0.512   1.398 -0.1309  0.0979  0.4178
 5791TIP3    H139008   3.793   0.463   1.452  0.8863  0.8545 -0.0218
 5791TIP3    H239009   3.697   0.448   1.336 -1.1040 -0.7212  1.7388
 5792TIP3   OH239010   1.982   2.635   7.673 -0.1575  0.8508 -0.2831
 5792TIP3    H139011   1.979   2.539   7.674 -1.5126  0.8802  0.0454
 5792TIP3    H239012   1.965   2.658   7.581  0.2844  0.7834 -0.3848
 5793TIP3   OH239013   2.436   3.733   0.931  0.1670  0.0161 -0.3020
 5793TIP3    H139014   2.381   3.722   0.853 -1.5496 -2.1196  1.0868
 5793TIP3    H239015   2.444   3.828   0.941 -1.3157  0.3723 -1.8895
 5794TIP3   OH239016   2.067   6.537   7.464 -0.2083  0.3934  0.5717
 5794TIP3    H139017   2.021   6.620   7.472 -0.6142  0.3982 -1.2330
 5794TIP3    H239018   2.113   6.526   7.547 -0.9704  1.9078  1.2288
 5795TIP3   OH239019   2.504   0.360   0.487  0.0755  0.4436  0.2883
 5795TIP3    H139020   2.457   0.379   0.568  0.1498  0.3229  0.3604
 5795TIP3    H239021   2.581   0.416   0.490  1.0135 -0.8254  1.1504
 5796TIP3   OH239022   3.678   1.163   7.176  0.3521 -0.1906  0.4896
 5796TIP3    H139023   3.640   1.196   7.257  0.0684 -1.0139  0.7048
 5796TIP3    H239024   3.608   1.169   7.111  0.7873  1.1252  0.1087
 5797TIP3   OH239025   1.585   5.590   7.458  0.6785 -0.0475 -0.3798
 5797TIP3    H139026   1.652   5.538   7.502  0.3521 -0.5323 -0.4371
 5797TIP3    H239027   1.502   5.554   7.491  0.4474  0.3648 -0.5081
 5798TIP3   OH239028   3.044   4.844   0.122  0.4264  0.3945  0.0817
 5798TIP3    H139029   3.032   4.778   0.053  0.6525 -2.6291  2.6845
 5798TIP3    H239030   3.136   4.837   0.146 -0.1402 -0.4367  2.2497
 5799TIP3   OH239031   1.521   3.462   0.597 -0.2981  0.3396  0.5498
 5799TIP3    H139032   1.499   3.514   0.675 -0.3182 -2.6107  2.6876
 5799TIP3    H239033   1.616   3.451   0.601 -0.1415  1.1052 -0.5497
 5800TIP3   OH239034   6.950   3.295   6.715  0.3551 -0.3444  0.7170
 5800TIP3    H139035   6.987   3.254   6.637 -1.3086  0.7476 -0.7428
 5800TIP3    H239036   6.898   3.226   6.757  1.6358 -1.0658  1.1585
 5801TIP3   OH239037   5.606   0.033   2.682 -0.4055  0.5140 -0.9267
 5801TIP3    H139038   5.652   0.076   2.610 -0.0503 -0.1268 -1.0929
 5801TIP3    H239039   5.583   0.104   2.742 -1.4887  1.1962 -2.0758
 5802TIP3   OH239040   6.342   1.265   0.135 -0.3288  0.4345  0.2183
 5802TIP3    H139041   6.337   1.290   0.042 -0.1163  0.0719  0.1088
 5802TIP3    H239042   6.259   1.294   0.172 -0.4947  0.4049 -0.1277
 5803TIP3   OH239043   6.071   3.423   0.211  0.3862 -0.2284  0.3224
 5803TIP3    H139044   6.067   3.516   0.189  0.9305 -0.2629  0.0690
 5803TIP3    H239045   5.981   3.399   0.231  0.0931  0.1321 -0.5239
 5804TIP3   OH239046   0.192   3.258   0.473  0.1574  0.1397  0.2671
 5804TIP3    H139047   0.267   3.291   0.524  1.0229  0.3076 -1.0564
 5804TIP3    H239048   0.116   3.300   0.512  0.7271 -0.0675  1.6862
 5805TIP3   OH239049   1.642   5.988   0.046 -0.2140  0.1434  0.0845
 5805TIP3    H139050   1.629   6.040  -0.033 -1.1285  0.2914  0.3154
 5805TIP3    H239051   1.566   6.008   0.100  0.3065 -0.1024  0.9225
 5806TIP3   OH239052   3.121   0.125   7.840 -0.3398 -0.4515  0.0878
 5806TIP3    H139053   3.189   0.065   7.810 -0.4080 -0.6202  0.2648
 5806TIP3    H239054   3.108   0.186   7.767  1.0781  0.5405  0.6185
 5807TIP3   OH239055   2.707   4.601   2.940 -0.1181 -1.2599  0.2466
 5807TIP3    H139056   2.704   4.685   2.984  0.0297 -0.3746 -1.3515
 5807TIP3    H239057   2.666   4.540   3.001 -0.2654 -0.0322  1.4135
 5808TIP3   OH239058   7.024   0.218   7.763  0.5761  0.0714  0.2355
 5808TIP3    H139059   7.093   0.154   7.749  2.2980  1.7057  0.7148
 5808TIP3    H239060   6.999   0.246   7.675  1.0971  0.0245  0.0678
 5809TIP3   OH239061   3.382   3.805   0.887  0.1574  0.4316 -0.0578
 5809TIP3    H139062   3.450   3.850   0.837  0.7104 -1.1070 -0.7720
 5809TIP3    H239063   3.302   3.819   0.837  0.3590  0.4612 -0.3749
 5810TIP3   OH239064   1.204   3.165   0.746 -0.9375 -0.4999 -0.0854
 5810TIP3    H139065   1.187   3.193   0.656  1.0961 -1.0894 -0.6951
 5810TIP3    H239066   1.181   3.072   0.748  1.8013 -1.2774 -0.8893
 5811TIP3   OH239067   3.259   3.256   0.315 -0.1187 -0.1937  0.1781
 5811TIP3    H139068   3.185   3.210   0.355  0.2251 -0.2866  0.7183
 5811TIP3    H239069   3.324   3.262   0.385  0.9355 -1.3219 -0.6732
 5812TIP3   OH239070   1.267   3.968   2.890 -0.4316 -0.4602 -0.6139
 5812TIP3    H139071   1.345   4.003   2.933  0.5103 -2.4178 -0.5938
 5812TIP3    H239072   1.257   4.021   2.811  0.8698 -0.1061 -0.5601
 5813TIP3   OH239073   4.436   6.036   1.378  0.0982  0.1109  0.2437
 5813TIP3    H139074   4.497   5.973   1.416 -0.6153 -0.1522  0.9631
 5813TIP3    H239075   4.486   6.078   1.308  1.4544  0.6118  1.4624
 5814TIP3   OH239076   4.733   3.610   1.918 -0.7631 -0.5531 -1.0558
 5814TIP3    H139077   4.774   3.691   1.949 -1.1810 -0.5679 -0.4403
 5814TIP3    H239078   4.656   3.598   1.975  1.2458 -3.2994  1.4369
 5815TIP3   OH239079   5.153   0.843   1.053  0.4772 -0.1534  0.4613
 5815TIP3    H139080   5.069   0.804   1.031 -0.2860  1.3949  0.4639
 5815TIP3    H239081   5.133   0.935   1.069  2.3409  0.4817 -0.5511
 5816TIP3   OH239082   5.641   4.222   1.291 -0.3568  0.3677 -0.2084
 5816TIP3    H139083   5.610   4.224   1.381 -0.4728  1.8154 -0.2545
 5816TIP3    H239084   5.588   4.154   1.249 -1.2470  0.6033  0.4985
 5817TIP3   OH239085   5.792   1.015   1.361  0.1549  0.8085 -0.0058
 5817TIP3    H139086   5.800   0.927   1.325 -0.3084  1.0112 -0.6201
 5817TIP3    H239087   5.709   1.048   1.327 -0.1640  1.1161  1.0221
 5818TIP3   OH239088   2.791   5.736   1.177 -0.1252  0.0702  0.2530
 5818TIP3    H139089   2.790   5.750   1.082  0.4248 -3.1708 -0.3529
 5818TIP3    H239090   2.884   5.734   1.200 -0.1577 -1.4712  0.3739
 5819TIP3   OH239091   1.582   0.013   1.275 -0.4138  0.2614  0.1270
 5819TIP3    H139092   1.510   0.069   1.305 -1.4497 -1.1727  0.4046
 5819TIP3    H239093   1.602  -0.043   1.350  0.7278  0.3521 -0.0902
 5820TIP3   OH239094   2.492   5.435   1.552  0.0520  0.0942 -0.2105
 5820TIP3    H139095   2.522   5.452   1.463  0.9219  0.0453  0.0698
 5820TIP3    H239096   2.548   5.365   1.584 -0.6080 -0.2610  0.1931
 5821TIP3   OH239097   4.566   0.682   2.302  0.0122 -0.9063  0.5488
 5821TIP3    H139098   4.624   0.665   2.377  0.8376  1.0397  0.4174
 5821TIP3    H239099   4.576   0.776   2.285 -0.7524 -1.1481 -1.5188
 5822TIP3   OH239100   3.936   2.191   0.722 -0.2836 -0.4028 -0.1688
 5822TIP3    H139101   3.934   2.281   0.688  2.1087  0.0667  0.6947
 5822TIP3    H239102   3.962   2.137   0.647 -1.6125 -0.4011 -0.6611
 5823TIP3   OH239103   0.556   2.861   0.392 -0.7651  0.1383  0.6748
 5823TIP3    H139104   0.468   2.880   0.425 -0.7251 -0.6588  1.2694
 5823TIP3    H239105   0.587   2.789   0.447 -0.5682 -1.0460 -0.9071
 5824TIP3   OH239106   6.352   3.517   1.338 -0.2684  0.0521  0.3448
 5824TIP3    H139107   6.318   3.497   1.251 -0.5501  1.7728  0.0228
 5824TIP3    H239108   6.367   3.432   1.379 -0.9951 -0.7674 -1.0515
 5825TIP3   OH239109   1.285   2.638   7.659 -0.3617  0.4073  0.0469
 5825TIP3    H139110   1.252   2.633   7.749  0.2653  1.7603  0.3788
 5825TIP3    H239111   1.253   2.722   7.626 -0.2554  0.1005 -0.8670
 5826TIP3   OH239112   0.579   0.591   0.994 -0.4654  0.7719 -0.0445
 5826TIP3    H139113   0.528   0.672   0.994  1.0574  1.7693  0.1461
 5826TIP3    H239114   0.659   0.614   0.947 -0.1701 -0.7450 -0.3239
 5827TIP3   OH239115   4.498   6.267   0.871 -0.4396 -0.1080  0.2871
 5827TIP3    H139116   4.529   6.353   0.843  0.7461 -0.5137  0.2861
 5827TIP3    H239117   4.403   6.273   0.865 -0.3362  0.7128 -1.1725
 5828TIP3   OH239118   6.862   6.429   7.960  0.1328 -0.1127  0.2030
 5828TIP3    H139119   6.918   6.373   7.907  1.3303  0.5328  0.7362
 5828TIP3    H239120   6.860   6.387   8.046 -0.9157 -0.5802 -0.0344
 5829TIP3   OH239121   2.242   3.519   1.749 -0.1855  0.4707  0.4974
 5829TIP3    H139122   2.316   3.574   1.726 -0.5036  0.5682 -0.3379
 5829TIP3    H239123   2.176   3.539   1.682 -1.3515  1.1360  1.7805
 5830TIP3   OH239124   4.282   1.547   8.002 -0.0489 -0.2232  0.2380
 5830TIP3    H139125   4.285   1.642   7.998  0.8192 -0.2222  0.6173
 5830TIP3    H239126   4.325   1.518   7.922  1.9146 -0.2561  1.2186
 5831TIP3   OH239127   2.402   2.658   0.204  0.0920 -0.5619  0.6389
 5831TIP3    H139128   2.474   2.697   0.153 -1.7764  2.4188  0.0299
 5831TIP3    H239129   2.434   2.660   0.294  0.9366  0.3732  0.3464
 5832TIP3   OH239130   3.328   3.957   1.952  0.3398 -0.5644 -0.4926
 5832TIP3    H139131   3.374   4.022   2.005  0.7902 -1.8032  0.6884
 5832TIP3    H239132   3.283   3.902   2.015  0.5211 -1.8071 -1.4172
 5833TIP3   OH239133   0.691   5.238   1.977  0.2918 -0.3318  0.2116
 5833TIP3    H139134   0.672   5.308   1.916 -0.2235 -0.6513  0.0077
 5833TIP3    H239135   0.738   5.281   2.049 -0.6722  0.3548  0.4460
 5834TIP3   OH239136   2.933   5.836   2.222  0.1703  0.0921 -0.0167
 5834TIP3    H139137   2.918   5.927   2.199 -1.1265 -0.6604 -2.5575
 5834TIP3    H239138   2.847   5.802   2.246  1.0400  0.0978  3.7265
 5835TIP3   OH239139   1.321   3.877   7.949 -0.2505 -0.4889 -0.4485
 5835TIP3    H139140   1.413   3.853   7.961 -0.3141 -0.4037  0.2680
 5835TIP3    H239141   1.321   3.972   7.941 -0.4259 -0.3201  1.2601
 5836TIP3   OH239142   4.756   3.510   3.071  0.2299  0.1017  0.3261
 5836TIP3    H139143   4.796   3.441   3.018  1.2884  0.5517  0.5085
 5836TIP3    H239144   4.669   3.477   3.091 -0.3147 -0.0066 -1.8908
 5837TIP3   OH239145   0.118   2.868   0.819  0.3341  0.5742  0.4663
 5837TIP3    H139146   0.195   2.812   0.818 -0.3012 -0.4066  2.2650
 5837TIP3    H239147   0.130   2.927   0.744  2.1795 -0.3853 -0.0462
 5838TIP3   OH239148   2.257   0.944   2.158  0.3480  0.0631 -0.7694
 5838TIP3    H139149   2.351   0.941   2.176  0.3188  2.5629  0.2081
 5838TIP3    H239150   2.250   0.982   2.071  0.2295 -2.2354 -1.8317
 5839TIP3   OH239151   6.224   5.058   0.608 -0.0676 -0.5674 -0.7984
 5839TIP3    H139152   6.231   4.969   0.574  1.7395 -0.5527 -0.5365
 5839TIP3    H239153   6.267   5.055   0.694  0.3001  0.6142 -0.9180
 5840TIP3   OH239154   4.676   2.004   0.668  0.0290  0.1817 -0.2444
 5840TIP3    H139155   4.749   1.951   0.701  0.0414  0.6911  0.5695
 5840TIP3    H239156   4.602   1.980   0.725 -0.3008  0.0803 -0.7101
 5841TIP3   OH239157   1.335   0.924   6.272 -0.2067  0.3266 -0.0441
 5841TIP3    H139158   1.409   0.968   6.230 -0.1039  1.0806  0.9169
 5841TIP3    H239159   1.338   0.953   6.363  0.1059 -1.9544  0.7398
 5842TIP3   OH239160   5.329   5.108   0.952  0.1447 -0.7862 -0.6339
 5842TIP3    H139161   5.417   5.076   0.928  0.5246  0.2452 -0.6651
 5842TIP3    H239162   5.307   5.171   0.884  0.7743  1.3769  1.0487
 5843TIP3   OH239163   5.745   4.505   0.944  0.0247 -0.1487 -0.1729
 5843TIP3    H139164   5.731   4.534   1.035 -0.5747  0.2369 -0.3808
 5843TIP3    H239165   5.660   4.470   0.917  0.6004 -1.6827 -0.0906
 5844TIP3   OH239166   5.945   6.727   7.241 -0.2228  0.2735  0.2784
 5844TIP3    H139167   5.874   6.790   7.227 -1.0003 -0.8258 -1.0996
 5844TIP3    H239168   6.013   6.777   7.285 -0.9791  1.9571 -0.3582
 5845TIP3   OH239169   5.082   3.797   6.582  0.0322 -0.4990  0.1931
 5845TIP3    H139170   5.020   3.819   6.652  0.8407 -1.4715  1.2562
 5845TIP3    H239171   5.033   3.739   6.524 -1.5311  2.3872 -1.6354
 5846TIP3   OH239172   0.183   6.766   2.515  0.7535 -0.3176 -0.0964
 5846TIP3    H139173   0.230   6.845   2.544  0.6860 -0.1203 -0.5167
 5846TIP3    H239174   0.243   6.694   2.536  0.6936 -0.1844  0.5616
 5847TIP3   OH239175   0.525   2.335   7.875  0.1844  0.3695  0.6406
 5847TIP3    H139176   0.452   2.324   7.814 -1.2944  0.4048  2.2982
 5847TIP3    H239177   0.549   2.427   7.867  0.7695  0.1178 -0.6677
 5848TIP3   OH239178   2.156   2.515   1.530  0.1571  0.5381 -0.1658
 5848TIP3    H139179   2.229   2.540   1.586 -1.3833  1.5746  1.4699
 5848TIP3    H239180   2.178   2.426   1.501  1.3860  0.2806  1.4218
 5849TIP3   OH239181   2.650   3.009   7.355 -0.2161  0.4020 -0.3656
 5849TIP3    H139182   2.626   2.968   7.272 -1.9263  1.6697 -0.5424
 5849TIP3    H239183   2.683   3.096   7.331  1.5283 -0.0694  0.1518
 5850TIP3   OH239184   6.571   3.722   6.769  0.5926  0.2040 -0.3534
 5850TIP3    H139185   6.567   3.745   6.862  1.3060  1.0816 -0.5223
 5850TIP3    H239186   6.556   3.628   6.767  0.8540  0.1262  0.6821
 5851TIP3   OH239187   5.007   1.577   0.420 -0.4417  0.1715  0.0062
 5851TIP3    H139188   5.016   1.672   0.412 -0.3255  0.1822  0.2892
 5851TIP3    H239189   4.985   1.562   0.512 -1.1165 -0.0237 -0.1768
 5852TIP3   OH239190   6.446   4.127   7.109  0.1700  0.2861  0.2905
 5852TIP3    H139191   6.431   4.208   7.157  1.6261  1.4617 -1.1230
 5852TIP3    H239192   6.492   4.070   7.171  1.0433  1.3610  0.6736
 5853TIP3   OH239193   5.543   1.714   1.304 -0.7826  0.2317  0.5945
 5853TIP3    H139194   5.482   1.785   1.285  0.6579  1.8580  1.6622
 5853TIP3    H239195   5.528   1.692   1.396 -0.4641 -0.0803  0.5760
 5854TIP3   OH239196   3.419   0.873   0.501  0.1767  0.7918  0.5219
 5854TIP3    H139197   3.374   0.904   0.422  0.7754 -1.1566 -0.6712
 5854TIP3    H239198   3.360   0.808   0.538  0.1640  1.2711  1.3669
 5855TIP3   OH239199   6.165   5.122   0.311 -0.4696 -0.4850 -0.6240
 5855TIP3    H139200   6.083   5.093   0.271 -1.2871 -0.2149  0.7880
 5855TIP3    H239201   6.162   5.088   0.400 -0.8341  2.6209  0.6857
 5856TIP3   OH239202   6.333   1.000   0.840 -0.0519  0.1291 -0.3434
 5856TIP3    H139203   6.350   1.033   0.928  0.4929 -0.1195 -0.3490
 5856TIP3    H239204   6.300   0.911   0.854  1.1681 -0.3479 -0.4276
 5857TIP3   OH239205   1.844   4.603   7.655  0.0521 -0.0167  0.6741
 5857TIP3    H139206   1.817   4.672   7.595  0.9427 -0.3194 -0.0851
 5857TIP3    H239207   1.931   4.577   7.625  0.7494  0.1769  2.3893
 5858TIP3   OH239208   0.548   5.232   1.283  0.7845  0.3557  0.0299
 5858TIP3    H139209   0.614   5.167   1.258 -2.4770 -2.9273 -0.8749
 5858TIP3    H239210   0.560   5.243   1.378  1.5340 -1.4724  0.1807
 5859TIP3   OH239211   0.604   1.097   0.949 -0.6109  0.0334 -0.0824
 5859TIP3    H139212   0.578   1.023   0.893  2.1762 -2.1948  1.2855
 5859TIP3    H239213   0.622   1.057   1.034  2.1511  2.0554  0.4225
 5860TIP3   OH239214   1.814   3.496   2.954  0.1654 -0.9942  0.4330
 5860TIP3    H139215   1.799   3.417   2.903  0.9126 -0.0152 -1.3929
 5860TIP3    H239216   1.909   3.500   2.966  0.2976  0.3110 -0.7366
 5861TIP3   OH239217   4.530   5.035   2.910 -0.1311  0.0501 -0.1696
 5861TIP3    H139218   4.504   5.119   2.873  0.7397  0.0722 -0.7546
 5861TIP3    H239219   4.460   4.975   2.884 -1.0859  0.7234  0.8118
 5862TIP3   OH239220   6.212   1.344   1.834  0.2176  0.2113  0.1622
 5862TIP3    H139221   6.225   1.252   1.858  0.3753  0.0022 -0.6653
 5862TIP3    H239222   6.260   1.394   1.900  3.2724 -0.4404 -1.3522
 5863TIP3   OH239223   0.258   6.230   0.534  0.0772 -0.0151  0.2634
 5863TIP3    H139224   0.353   6.234   0.547  0.0875  1.8223 -0.2198
 5863TIP3    H239225   0.245   6.147   0.487  1.4080 -0.4088  0.5274
 5864TIP3   OH239226   6.584   1.333   0.465  0.3457  0.2792 -0.1399
 5864TIP3    H139227   6.520   1.392   0.426  1.3693  2.4506  1.2818
 5864TIP3    H239228   6.533   1.275   0.522 -0.4749  1.1515  0.0221
 5865TIP3   OH239229   7.032   4.136   2.668  0.4193 -0.2066  0.0584
 5865TIP3    H139230   6.970   4.173   2.604  0.9433 -0.7655 -0.7999
 5865TIP3    H239231   7.078   4.212   2.702  0.8085  0.0373 -0.9645
 5866TIP3   OH239232   4.041   3.944   0.080  0.1098 -0.0181 -0.1428
 5866TIP3    H139233   4.049   3.912  -0.010 -0.4027 -1.5832  0.3265
 5866TIP3    H239234   4.119   3.910   0.124  0.1482  0.3941  0.1070
 5867TIP3   OH239235   6.470   1.383   7.508 -0.1997  0.6163  0.2769
 5867TIP3    H139236   6.495   1.473   7.530 -1.1918  1.4675 -1.8313
 5867TIP3    H239237   6.399   1.362   7.568  1.0656  0.6165  1.8382
 5868TIP3   OH239238   1.596   6.434   7.004  0.0676  0.0707 -0.3008
 5868TIP3    H139239   1.615   6.497   7.073 -0.0059 -0.1292 -0.0962
 5868TIP3    H239240   1.553   6.486   6.935 -0.1598  0.2099 -0.0559
 5869TIP3   OH239241   6.004   5.336   1.577  0.2575  0.2204  0.3177
 5869TIP3    H139242   6.035   5.300   1.659  2.2512 -0.6243 -0.7375
 5869TIP3    H239243   5.941   5.272   1.544  0.7404 -0.3008  0.3919
 5870TIP3   OH239244   3.128   4.332   1.989  0.0758  0.8927  0.1100
 5870TIP3    H139245   3.119   4.419   1.952 -1.0870  0.3875 -0.8800
 5870TIP3    H239246   3.171   4.281   1.921 -0.3846  0.4026  0.1720
 5871TIP3   OH239247   3.438   6.452   8.140 -0.0140 -0.2706  0.1538
 5871TIP3    H139248   3.409   6.537   8.174  0.9709  1.0285 -2.0224
 5871TIP3    H239249   3.426   6.460   8.045 -1.1478 -3.0942 -0.0322
 5872TIP3   OH239250   0.971   6.236   7.770  0.8115 -0.2219 -0.3248
 5872TIP3    H139251   1.001   6.320   7.804  2.4331  0.4069 -3.0321
 5872TIP3    H239252   1.008   6.171   7.830  0.0814  0.8987  1.4293
 5873TIP3   OH239253   0.437   3.043   8.003  0.3835  0.2947  0.5380
 5873TIP3    H139254   0.445   3.024   7.909  0.9748  1.4563  0.3437
 5873TIP3    H239255   0.508   3.104   8.021 -0.3412  0.8558  1.5349
 5874TIP3   OH239256   4.176   1.804   7.817 -0.6157 -0.4418  0.0398
 5874TIP3    H139257   4.217   1.795   7.732 -1.1048 -0.9841 -0.1469
 5874TIP3    H239258   4.091   1.760   7.808 -1.1471  0.4626  0.4776
 5875TIP3   OH239259   1.493   3.105   6.678 -0.1507 -0.0460  0.1468
 5875TIP3    H139260   1.517   3.177   6.619  1.6754 -1.3718 -0.8183
 5875TIP3    H239261   1.537   3.125   6.760  1.3757 -0.6387 -0.5008
 5876TIP3   OH239262   3.396   2.142   8.063  0.0239  0.6622  0.2267
 5876TIP3    H139263   3.408   2.054   8.098  0.5085  1.2198  1.5511
 5876TIP3    H239264   3.462   2.195   8.109 -1.6770  2.1246  1.1154
 5877TIP3   OH239265   1.567   2.290   1.548 -0.1465  0.1728  0.1573
 5877TIP3    H139266   1.564   2.208   1.597 -1.2443 -1.1004 -1.8972
 5877TIP3    H239267   1.657   2.296   1.517 -0.4491 -1.2150 -1.1107
 5878TIP3   OH239268   0.606   4.074   2.224 -0.0576  0.4725 -0.5048
 5878TIP3    H139269   0.526   4.045   2.269 -0.6646  0.8672 -1.3018
 5878TIP3    H239270   0.677   4.047   2.282 -0.7276 -0.5100 -0.1120
 5879TIP3   OH239271   0.273   2.321   1.722  0.5467 -0.2389  0.3461
 5879TIP3    H139272   0.234   2.381   1.785 -1.3366 -0.1129 -0.8414
 5879TIP3    H239273   0.241   2.351   1.637  2.9050 -0.4667 -0.6992
 5880TIP3   OH239274   1.190   3.523   0.143 -0.1690 -0.1752 -0.5355
 5880TIP3    H139275   1.136   3.444   0.139  0.0278 -0.3669  0.2885
 5880TIP3    H239276   1.199   3.541   0.237  1.4328 -0.3153 -0.6310
 5881TIP3   OH239277   0.156   4.027   7.586  0.3833 -0.3472 -0.4120
 5881TIP3    H139278   0.092   4.013   7.656  0.3539 -0.3147 -0.4326
 5881TIP3    H239279   0.137   3.960   7.521  1.6811 -1.6859  0.5241
 5882TIP3   OH239280   1.601   3.660   7.859 -0.8698  0.4709 -0.2372
 5882TIP3    H139281   1.672   3.596   7.855 -1.4374 -0.1135 -1.5811
 5882TIP3    H239282   1.524   3.612   7.828 -1.4479  1.6195 -0.6316
 5883TIP3   OH239283   5.245   3.838   2.236 -0.2928 -0.0907  0.6491
 5883TIP3    H139284   5.264   3.793   2.154 -0.5475 -1.1497  1.1529
 5883TIP3    H239285   5.237   3.768   2.301 -2.5390  0.5346  1.1255
 5884TIP3   OH239286   1.853   0.287   0.569  0.3304 -0.2496 -0.9677
 5884TIP3    H139287   1.921   0.220   0.574 -0.8682 -1.4321  1.1742
 5884TIP3    H239288   1.771   0.239   0.582 -0.5333  1.6584  1.3243
 5885TIP3   OH239289   5.964   5.327   7.325  0.0069  0.0872 -0.0192
 5885TIP3    H139290   6.019   5.377   7.385  0.1264  0.7536 -0.6702
 5885TIP3    H239291   5.899   5.390   7.294  0.9831  0.2323 -1.8986
 5886TIP3   OH239292   3.331   4.287   0.463 -0.2459 -0.3276  0.0334
 5886TIP3    H139293   3.387   4.311   0.537 -0.1365  1.1163 -0.4989
 5886TIP3    H239294   3.389   4.287   0.387 -0.8174  0.6136 -0.4277
 5887TIP3   OH239295   4.913   7.010   0.203 -0.3255 -0.1752  0.5809
 5887TIP3    H139296   4.974   7.082   0.221 -0.0384 -0.2940  0.1235
 5887TIP3    H239297   4.966   6.931   0.214 -0.2881 -0.2696 -0.1655
 5888TIP3   OH239298   2.776   2.909   1.796  0.0910 -0.3328 -0.0062
 5888TIP3    H139299   2.857   2.878   1.757 -1.5112 -0.7519 -3.3277
 5888TIP3    H239300   2.727   2.829   1.815 -0.2852 -0.0313  0.3184
 5889TIP3   OH239301   5.270   5.046   7.688  0.6458  0.1690 -0.8861
 5889TIP3    H139302   5.181   5.035   7.655  0.8791 -0.4965 -1.3295
 5889TIP3    H239303   5.261   5.104   7.763 -0.2588 -0.5074 -0.4550
 5890TIP3   OH239304   4.047   1.806   6.560  0.3079  0.7843  0.4909
 5890TIP3    H139305   4.012   1.747   6.493 -1.0816  0.6219  1.3389
 5890TIP3    H239306   4.102   1.868   6.511  2.3621 -1.5455 -0.3695
 5891TIP3   OH239307   1.563   3.658   1.696 -0.5951 -0.2913 -0.4536
 5891TIP3    H139308   1.603   3.697   1.618  0.9084 -0.2132  0.3434
 5891TIP3    H239309   1.504   3.726   1.729 -1.0639 -0.2362 -1.3789
 5892TIP3   OH239310   3.845   0.256   1.181 -0.1097  0.1857 -0.0594
 5892TIP3    H139311   3.786   0.315   1.134 -1.3784 -0.9304  0.0743
 5892TIP3    H239312   3.789   0.185   1.211  1.0832 -0.2568  1.2266
 5893TIP3   OH239313   3.108   5.547   7.603 -0.4006  0.4767  0.1772
 5893TIP3    H139314   3.022   5.588   7.615 -0.2420  0.7454  0.3956
 5893TIP3    H239315   3.119   5.543   7.508  0.7221  3.3759  0.1099
 5894TIP3   OH239316   4.200   3.261   7.083 -0.2860 -0.0533 -0.1976
 5894TIP3    H139317   4.146   3.185   7.063  1.4594 -1.3850 -0.0771
 5894TIP3    H239318   4.279   3.250   7.030  1.3173  0.0542  2.0248
 5895TIP3   OH239319   3.324   2.712   6.652 -0.7805 -0.3095  0.1856
 5895TIP3    H139320   3.256   2.659   6.611  0.7679 -2.0388 -0.2925
 5895TIP3    H239321   3.404   2.660   6.642  0.1998  0.5086  2.8636
 5896TIP3   OH239322   3.201   7.052   0.510 -0.0980 -0.5672 -0.5464
 5896TIP3    H139323   3.295   7.049   0.526 -0.3873 -2.4679  1.1593
 5896TIP3    H239324   3.176   6.961   0.494 -1.5204  0.0200 -1.9526
 5897TIP3   OH239325   5.810   5.522   0.803 -0.1149  0.3840  0.4255
 5897TIP3    H139326   5.890   5.544   0.850 -0.4663 -0.1342  1.2854
 5897TIP3    H239327   5.822   5.560   0.716  0.5956  1.2624  0.8893
 5898TIP3   OH239328   1.142   2.741   1.714 -0.3488 -0.3858 -0.7471
 5898TIP3    H139329   1.135   2.651   1.744 -1.8333 -0.5847 -1.5900
 5898TIP3    H239330   1.123   2.794   1.791  1.0832 -0.7707 -0.1180
 5899TIP3   OH239331   0.237   0.801   6.788  0.1128  0.8286 -0.2065
 5899TIP3    H139332   0.188   0.783   6.708  0.7539  0.4410 -0.5222
 5899TIP3    H239333   0.284   0.720   6.806  1.3931  1.4917 -0.4577
 5900TIP3   OH239334   0.970   3.123   1.198  0.5068 -0.6274  0.4739
 5900TIP3    H139335   1.012   3.206   1.222  0.9266 -1.2335  1.9298
 5900TIP3    H239336   0.970   3.124   1.102 -1.6006  2.0905  0.3696
 5901TIP3   OH239337   1.950   5.125   0.861  0.2081  0.1666  0.0052
 5901TIP3    H139338   1.867   5.097   0.901  0.6460 -0.5867  0.3984
 5901TIP3    H239339   1.990   5.181   0.928  0.6410 -0.5703  0.3700
 5902TIP3   OH239340   4.307   0.105   2.013  0.4296 -0.5800 -0.2446
 5902TIP3    H139341   4.374   0.069   1.956  0.6268  1.4117 -1.3788
 5902TIP3    H239342   4.290   0.193   1.978 -1.8397 -0.5242  0.7882
 5903TIP3   OH239343   2.083   6.743   6.807 -0.3779  0.0594  0.3117
 5903TIP3    H139344   2.178   6.733   6.814 -0.4070  0.5603  1.5638
 5903TIP3    H239345   2.047   6.681   6.870 -1.0413 -2.2752 -2.1606
 5904TIP3   OH239346   6.115   0.497   7.829 -0.3750 -0.0204  0.0297
 5904TIP3    H139347   6.076   0.415   7.798 -1.6908  0.4323  0.4489
 5904TIP3    H239348   6.052   0.564   7.804 -1.3721  0.4162  3.3430
 5905TIP3   OH239349   1.192   3.741   1.670 -0.6204  0.4300 -0.4823
 5905TIP3    H139350   1.229   3.748   1.582 -1.4772 -1.4026 -1.0213
 5905TIP3    H239351   1.097   3.738   1.657 -0.7412 -0.3958  0.4606
 5906TIP3   OH239352   5.595   6.594   6.931 -0.4175 -0.3395  0.1717
 5906TIP3    H139353   5.543   6.521   6.965  0.7853 -1.3876 -0.1593
 5906TIP3    H239354   5.551   6.619   6.850  0.6788 -2.6138 -1.2340
 5907TIP3   OH239355   5.492   5.705   0.810  0.0856  0.1356  0.0279
 5907TIP3    H139356   5.429   5.766   0.848  0.7867  1.1996 -0.4758
 5907TIP3    H239357   5.453   5.678   0.727 -0.6502 -0.8478  0.6682
 5908TIP3   OH239358   3.518   5.311   6.360 -0.0419 -0.0062  0.1616
 5908TIP3    H139359   3.440   5.303   6.415 -0.8545 -0.5881 -1.0171
 5908TIP3    H239360   3.545   5.402   6.369 -1.7407  0.6045 -0.5243
 5909TIP3   OH239361   6.643   2.937   8.138  0.0322 -0.3184 -0.1599
 5909TIP3    H139362   6.659   2.866   8.200  0.1496 -0.1110  0.0474
 5909TIP3    H239363   6.548   2.947   8.137  0.0934  1.6038  2.1958
 5910TIP3   OH239364   0.159   0.505   0.661 -0.1058  0.4758 -0.3808
 5910TIP3    H139365   0.089   0.465   0.610 -0.2591 -0.9624  0.8703
 5910TIP3    H239366   0.218   0.432   0.682  1.6187  1.5799 -1.1129
 5911TIP3   OH239367   5.018   5.944   1.364 -0.8033  0.2142  0.0555
 5911TIP3    H139368   4.990   5.900   1.444  3.0378 -1.6568  0.6104
 5911TIP3    H239369   5.060   5.876   1.312  0.0197  2.0877 -1.9132
 5912TIP3   OH239370   6.549   0.010   0.836 -0.4824  0.1883  0.1283
 5912TIP3    H139371   6.597  -0.064   0.798 -2.0010  0.1331 -1.8704
 5912TIP3    H239372   6.466  -0.028   0.865 -1.5748  1.1563 -1.5735
 5913TIP3   OH239373   0.083   2.745   0.516  0.1180 -0.3528 -0.2983
 5913TIP3    H139374   0.053   2.654   0.521  0.6169 -0.6845 -2.5913
 5913TIP3    H239375   0.049   2.778   0.433 -0.2678  1.6806  0.6010
 5914TIP3   OH239376   2.627   2.619   7.683  0.1870 -0.1325  0.1141
 5914TIP3    H139377   2.617   2.699   7.734  1.1159  0.4400 -0.5582
 5914TIP3    H239378   2.704   2.576   7.720 -0.1071 -0.5434  0.2513
 5915TIP3   OH239379   1.649   2.037   0.916 -0.5851 -0.2799 -0.1383
 5915TIP3    H139380   1.671   2.130   0.922 -0.2870 -0.3823  0.4975
 5915TIP3    H239381   1.701   2.004   0.843  0.8544 -0.3588  0.8646
 5916TIP3   OH239382   0.330   4.914   7.184 -0.0420  0.8470  0.5896
 5916TIP3    H139383   0.272   4.985   7.159 -1.8812 -0.5472  0.6561
 5916TIP3    H239384   0.394   4.909   7.113 -0.6998  1.7089 -0.0861
 5917TIP3   OH239385   5.226   1.248   2.706 -0.1696 -0.1867 -0.4167
 5917TIP3    H139386   5.174   1.321   2.671  0.5878  0.6180  0.0783
 5917TIP3    H239387   5.312   1.258   2.664  0.4263  0.1598  0.8214
 5918TIP3   OH239388   2.231   2.391   0.932  0.8345  0.2889 -0.1761
 5918TIP3    H139389   2.240   2.307   0.976 -0.7188  1.2446  2.2151
 5918TIP3    H239390   2.278   2.453   0.989 -0.1699  1.3947 -0.4947
 5919TIP3   OH239391   4.658   6.430   1.660  0.5864 -0.0377  0.1676
 5919TIP3    H139392   4.572   6.416   1.701 -0.0099 -2.7727 -1.7711
 5919TIP3    H239393   4.637   6.465   1.574  1.5878  1.1377  0.3731
 5920TIP3   OH239394   5.009   1.952   1.601 -0.1515 -0.5694  0.4964
 5920TIP3    H139395   5.088   1.989   1.562  1.5137 -1.6759  2.5890
 5920TIP3    H239396   4.993   2.006   1.678 -1.4697 -0.3510  0.0906
 5921TIP3   OH239397   1.508   0.912   6.768  0.6487 -0.0930  0.3456
 5921TIP3    H139398   1.556   0.867   6.837  1.0923  2.0561  1.5450
 5921TIP3    H239399   1.423   0.933   6.807  0.3572 -0.1012 -0.2623
 5922TIP3   OH239400   4.739   1.137   0.036 -0.2800  0.6860 -0.6984
 5922TIP3    H139401   4.725   1.230   0.053  1.0295  0.6951  0.5753
 5922TIP3    H239402   4.792   1.107   0.111  1.2065 -0.5734 -2.1647
 5923TIP3   OH239403   6.272   5.011   2.984 -0.1658  0.1168  0.1350
 5923TIP3    H139404   6.250   4.959   3.062  0.3287  1.8934  1.5164
 5923TIP3    H239405   6.360   5.044   3.002  0.1570  0.1654 -1.4275
 5924TIP3   OH239406   6.412   4.946   0.082  0.1805 -0.1833 -0.2529
 5924TIP3    H139407   6.407   5.026   0.135 -1.1386  1.1259 -2.2217
 5924TIP3    H239408   6.503   4.945   0.050 -0.1009  1.2383 -1.1818
 5925TIP3   OH239409   5.774   6.269   6.668  0.0058 -0.2097  0.2647
 5925TIP3    H139410   5.708   6.205   6.695  1.7966 -1.9689  0.6716
 5925TIP3    H239411   5.791   6.249   6.576 -0.4598  0.6871 -0.0354
 5926TIP3   OH239412   6.388   1.394   2.070 -0.0787  0.7207 -0.4536
 5926TIP3    H139413   6.455   1.439   2.017 -1.2373  2.3351 -0.6064
 5926TIP3    H239414   6.396   1.433   2.157  0.5603 -0.6062  0.1197
 5927TIP3   OH239415   6.902   6.647   1.851 -0.4131  0.6168 -0.1707
 5927TIP3    H139416   6.899   6.709   1.924  0.7802  1.9167 -1.1796
 5927TIP3    H239417   6.993   6.616   1.849 -0.6235 -0.0038 -0.6468
 5928TIP3   OH239418   0.653   2.840   7.379 -0.3624 -0.2992  0.5243
 5928TIP3    H139419   0.614   2.855   7.293 -0.3969  1.5722  0.8120
 5928TIP3    H239420   0.744   2.870   7.370 -0.6687  0.9936  1.3957
 5929TIP3   OH239421   3.231   2.146   0.392 -0.3517  0.3234  0.3648
 5929TIP3    H139422   3.157   2.126   0.450  0.1638  0.7805  1.2036
 5929TIP3    H239423   3.304   2.163   0.452  0.5867 -0.6849 -0.4648
 5930TIP3   OH239424   4.222   6.489   0.441 -0.3774  0.2051 -0.3013
 5930TIP3    H139425   4.296   6.449   0.485  0.6209 -1.8105 -3.4641
 5930TIP3    H239426   4.246   6.582   0.433  1.9784 -0.4279 -1.4285
 5931TIP3   OH239427   5.420   1.618   1.538 -0.3958  0.0387 -0.1625
 5931TIP3    H139428   5.417   1.596   1.631 -1.1582  0.0538 -0.1789
 5931TIP3    H239429   5.406   1.713   1.534  0.0281  0.0996 -0.2703
 5932TIP3   OH239430   2.483   3.154   0.954 -0.3906  0.5838 -0.2495
 5932TIP3    H139431   2.444   3.227   0.906 -0.6402 -0.1861 -1.2558
 5932TIP3    H239432   2.519   3.097   0.886  0.7883  0.3158  0.5714
 5933TIP3   OH239433   3.104   6.009   1.863  0.0616  0.0638 -0.2352
 5933TIP3    H139434   3.059   5.960   1.794 -1.6619  0.8592  0.2607
 5933TIP3    H239435   3.197   6.004   1.839 -0.3797 -0.5776 -2.0166
 5934TIP3   OH239436   4.324   1.487   0.277 -0.0656 -0.0302 -0.4118
 5934TIP3    H139437   4.315   1.504   0.183 -0.3256 -0.1513 -0.4095
 5934TIP3    H239438   4.398   1.427   0.284 -0.7688 -0.9308 -0.6370
 5935TIP3   OH239439   6.824   1.143   7.681  0.1116  0.2340  0.2784
 5935TIP3    H139440   6.747   1.119   7.734  1.6391 -1.2884  1.9341
 5935TIP3    H239441   6.800   1.118   7.592 -1.0593 -0.9012  0.8748
 5936TIP3   OH239442   5.876   1.297   0.722  0.3299 -0.3705  0.6059
 5936TIP3    H139443   5.830   1.227   0.769  0.8788 -0.3675  1.1640
 5936TIP3    H239444   5.907   1.254   0.642  2.4975 -1.4009  1.8988
 5937TIP3   OH239445   1.008   0.470   6.546 -0.0947  0.2162  0.0338
 5937TIP3    H139446   1.076   0.529   6.512  1.2356  0.3271  2.6209
 5937TIP3    H239447   0.928   0.496   6.500  0.8145  2.8323 -0.2359
 5938TIP3   OH239448   5.559   3.888   8.015 -0.1756 -0.4578 -0.0385
 5938TIP3    H139449   5.500   3.816   8.037  0.5529 -0.8456  0.7244
 5938TIP3    H239450   5.570   3.936   8.097 -2.0241  1.5997 -0.9002
 5939TIP3   OH239451   2.494   5.183   6.742 -0.1528  0.2163  0.6379
 5939TIP3    H139452   2.411   5.138   6.759 -0.8139  1.7454  1.6729
 5939TIP3    H239453   2.472   5.249   6.677  0.5369 -0.1720  0.0102
 5940TIP3   OH239454   1.508   5.290   0.209 -0.1821 -0.0045  0.3028
 5940TIP3    H139455   1.431   5.344   0.192 -0.5424 -0.4003  0.6369
 5940TIP3    H239456   1.551   5.281   0.124 -1.1438 -0.7430 -0.1262
 5941TIP3   OH239457   5.820   0.563   2.159 -0.1875  0.1662 -0.1056
 5941TIP3    H139458   5.803   0.610   2.077  1.0736  0.4461 -0.2238
 5941TIP3    H239459   5.891   0.502   2.137  0.5731  0.6680  0.9223
 5942TIP3   OH239460   4.143   3.218   8.166 -0.3897 -0.2223 -0.3113
 5942TIP3    H139461   4.056   3.192   8.136 -0.2088  0.1491 -1.2061
 5942TIP3    H239462   4.147   3.313   8.149  0.3497 -0.3156 -0.7118
 5943TIP3   OH239463   6.593   2.852   1.518  0.3268  0.0052  0.6246
 5943TIP3    H139464   6.590   2.758   1.535  4.3525 -0.4356 -0.0789
 5943TIP3    H239465   6.555   2.863   1.431 -1.6215 -0.6291  1.3300
 5944TIP3   OH239466   6.989   6.306   1.780  0.0447  0.1717  0.0382
 5944TIP3    H139467   7.044   6.373   1.820  0.1736  0.5635 -0.7703
 5944TIP3    H239468   6.970   6.340   1.692 -0.6016 -0.4543 -0.0729
 5945TIP3   OH239469   6.113   7.041   0.002  0.5324 -0.1528  0.1192
 5945TIP3    H139470   6.100   7.004   0.089  1.5912  0.8639  0.7438
 5945TIP3    H239471   6.163   6.975  -0.046 -0.4748 -0.9250  0.0995
 5946TIP3   OH239472   0.842   6.295   1.457  0.3837  0.4931  0.4215
 5946TIP3    H139473   0.885   6.368   1.413  1.0629 -0.2555 -0.1928
 5946TIP3    H239474   0.765   6.334   1.499  0.8442  1.5838  0.2739
 5947TIP3   OH239475   1.900   1.351   1.644  0.0397 -0.6449 -0.2336
 5947TIP3    H139476   1.901   1.320   1.553  0.9371  0.6594 -0.6851
 5947TIP3    H239477   1.830   1.300   1.685 -2.5001  0.8555 -2.4088
 5948TIP3   OH239478   6.791   3.256   8.036  0.3174  0.0322  0.3115
 5948TIP3    H139479   6.862   3.195   8.013 -0.0100  0.0733 -0.8542
 5948TIP3    H239480   6.714   3.201   8.047 -0.0176  0.2209 -0.9108
 5949TIP3   OH239481   3.298   5.287   1.590 -0.7538 -0.2564 -0.0473
 5949TIP3    H139482   3.275   5.228   1.519 -0.7785  0.0072 -0.2612
 5949TIP3    H239483   3.231   5.356   1.586  0.5451  1.0093 -1.2466
 5950TIP3   OH239484   6.545   3.401   1.034 -0.0599  0.0037 -0.0855
 5950TIP3    H139485   6.602   3.338   0.990 -0.1945 -0.2984  0.1650
 5950TIP3    H239486   6.483   3.346   1.084  1.3080  0.3171  2.0833
 5951TIP3   OH239487   4.209   2.630   1.368 -0.6603 -0.1457 -0.1823
 5951TIP3    H139488   4.253   2.676   1.296  2.2154  2.8536  3.0781
 5951TIP3    H239489   4.138   2.689   1.394 -0.2309 -0.0554  0.8185
 5952TIP3   OH239490   5.742   5.972   7.122  0.0577  0.3771 -0.4105
 5952TIP3    H139491   5.767   5.933   7.038 -2.9410  0.5194 -1.4877
 5952TIP3    H239492   5.684   5.908   7.162 -0.8399  1.5262  0.1923
 5953TIP3   OH239493   3.244   4.372   6.700  0.0770 -0.0003 -0.0328
 5953TIP3    H139494   3.169   4.381   6.641 -1.2897  1.0643  1.7779
 5953TIP3    H239495   3.276   4.283   6.683 -1.7003 -0.5603 -0.7650
 5954TIP3   OH239496   4.793   2.455   0.809 -0.2227 -0.4806 -0.0750
 5954TIP3    H139497   4.768   2.428   0.721  0.3147 -0.0872 -0.3548
 5954TIP3    H239498   4.816   2.373   0.853 -3.5897 -1.1105  0.7652
 5955TIP3   OH239499   1.098   2.596   7.905  0.1749  0.2824  0.0612
 5955TIP3    H139500   1.085   2.662   7.972 -1.7720  1.2502 -1.1760
 5955TIP3    H239501   1.020   2.602   7.850  1.6275 -0.5335 -2.2356
 5956TIP3   OH239502   5.962   1.189   1.758 -0.3426 -0.4129  1.0542
 5956TIP3    H139503   5.968   1.278   1.792 -1.9937  0.0998  0.1570
 5956TIP3    H239504   6.052   1.160   1.749  0.2901  1.5708  0.3893
 5957TIP3   OH239505   0.290   5.886   1.672 -0.2664  0.2886 -0.1893
 5957TIP3    H139506   0.271   5.797   1.703 -0.8285  0.8103  1.0274
 5957TIP3    H239507   0.379   5.881   1.638  0.4399 -0.3194  1.6297
 5958TIP3   OH239508   3.237   4.659   1.501 -0.0341 -0.5671  0.3070
 5958TIP3    H139509   3.332   4.672   1.496 -0.3610  1.7299 -2.8004
 5958TIP3    H239510   3.226   4.564   1.501  2.2184 -0.9597  2.5199
 5959TIP3   OH239511   4.389   2.894   2.731 -0.0532  0.0284 -0.2871
 5959TIP3    H139512   4.294   2.881   2.731 -0.0541 -0.3371  2.0021
 5959TIP3    H239513   4.418   2.860   2.815  2.0772  0.5134 -0.7673
 5960TIP3   OH239514   1.853   1.544   1.930  0.1884  1.0369 -0.1102
 5960TIP3    H139515   1.817   1.577   2.012 -1.9134 -0.4849 -0.3204
 5960TIP3    H239516   1.824   1.606   1.863  1.9274  2.2936  0.2401
 5961TIP3   OH239517   0.836   3.048   0.599  0.3595  0.2190 -0.6126
 5961TIP3    H139518   0.894   3.034   0.524 -1.4997  2.1507 -2.5708
 5961TIP3    H239519   0.790   2.965   0.610  2.6618 -1.0263  0.3591
 5962TIP3   OH239520   4.413   1.419   0.558  0.2060  0.2124  0.2197
 5962TIP3    H139521   4.322   1.433   0.530 -0.1340  1.5748  1.8499
 5962TIP3    H239522   4.409   1.338   0.609 -0.2477  0.6518  0.8934
 5963TIP3   OH239523   2.562   6.554   2.675  0.0280 -0.2449 -0.7026
 5963TIP3    H139524   2.649   6.536   2.711  0.0812  0.2387 -0.5852
 5963TIP3    H239525   2.578   6.617   2.605 -0.2331 -0.0972 -0.6312
 5964TIP3   OH239526   6.566   2.570   1.609 -0.3485  0.3452  0.1405
 5964TIP3    H139527   6.552   2.578   1.704  1.1667  0.3585  0.3866
 5964TIP3    H239528   6.564   2.475   1.593 -0.6067  0.3431  0.1783
 5965TIP3   OH239529   2.316   2.863   0.871 -0.0452 -0.5004 -0.1709
 5965TIP3    H139530   2.272   2.829   0.949 -0.3378  1.5647  0.6419
 5965TIP3    H239531   2.408   2.839   0.882 -0.4619 -2.3238 -0.4297
 5966TIP3   OH239532   2.211   3.139   7.893 -0.1446 -0.1870 -0.1440
 5966TIP3    H139533   2.288   3.101   7.936  0.0675  0.2385 -0.1456
 5966TIP3    H239534   2.161   3.063   7.863  0.0319 -0.4791  0.2811
 5967TIP3   OH239535   0.377   2.263   2.510  0.5026 -0.2821 -0.3944
 5967TIP3    H139536   0.397   2.170   2.522  1.1955 -0.0017  0.8323
 5967TIP3    H239537   0.349   2.270   2.419 -0.0803 -1.7780 -0.3569
 5968TIP3   OH239538   0.390   0.476   7.535  0.6396  0.4337 -0.3663
 5968TIP3    H139539   0.331   0.528   7.480 -1.5209 -0.7911  0.6802
 5968TIP3    H239540   0.405   0.530   7.613 -0.9645 -0.1156  0.3642
 5969TIP3   OH239541   3.914   4.234   1.527  0.1131 -0.1813 -0.1039
 5969TIP3    H139542   3.953   4.290   1.594 -0.7594 -0.7631  0.9267
 5969TIP3    H239543   3.828   4.211   1.562 -0.4509 -0.3460 -1.5185
 5970TIP3   OH239544   3.847   5.446   7.641 -0.0183  0.1317 -0.2779
 5970TIP3    H139545   3.893   5.367   7.669 -1.6396 -0.3558  1.1713
 5970TIP3    H239546   3.914   5.497   7.595  1.9033 -0.6882  1.4287
 5971TIP3   OH239547   5.648   4.522   1.258 -0.5576  0.1854  0.2753
 5971TIP3    H139548   5.698   4.444   1.281  0.5614  0.5394 -0.7612
 5971TIP3    H239549   5.557   4.493   1.254 -0.2337 -0.9132  0.5102
 5972TIP3   OH239550   4.134   3.044   0.742 -0.6799  0.2055 -0.2155
 5972TIP3    H139551   4.162   3.121   0.792  0.1130 -0.0592 -0.2336
 5972TIP3    H239552   4.107   2.981   0.809  2.9995 -1.2150  0.1864
 5973TIP3   OH239553   0.740   1.534   2.102  0.6629 -0.4254  0.0352
 5973TIP3    H139554   0.781   1.618   2.121 -0.7487  0.1301  0.7827
 5973TIP3    H239555   0.739   1.487   2.186  0.8844 -0.9522 -0.2458
 5974TIP3   OH239556   6.459   6.226   0.786  0.5595  0.1354  0.1489
 5974TIP3    H139557   6.527   6.189   0.843 -0.2926  1.2505  1.9734
 5974TIP3    H239558   6.377   6.203   0.829 -0.1865 -0.0265 -1.3009
 5975TIP3   OH239559   1.979   6.785   0.297  0.4739  0.3981 -0.4111
 5975TIP3    H139560   1.915   6.727   0.340  0.8872  0.2685  0.0351
 5975TIP3    H239561   2.023   6.830   0.369  0.5121  0.8883 -0.7400
 5976TIP3   OH239562   2.234   5.762   0.426  0.2464  0.1729 -0.0253
 5976TIP3    H139563   2.148   5.802   0.412  0.4795  0.7368  0.1174
 5976TIP3    H239564   2.269   5.808   0.502  1.9200  2.0688 -1.8309
 5977TIP3   OH239565   1.812   0.415   7.168  0.1102  0.4252  0.0436
 5977TIP3    H139566   1.771   0.431   7.083  0.1879  0.8489  0.0874
 5977TIP3    H239567   1.835   0.501   7.201 -1.0384  0.3693  1.0634
 5978TIP3   OH239568   6.654   4.016   2.117 -0.1046 -0.3360 -0.1849
 5978TIP3    H139569   6.713   4.065   2.061 -0.3150  0.0507 -0.0679
 5978TIP3    H239570   6.623   3.944   2.061 -0.1000 -0.1122 -0.4774
 5979TIP3   OH239571   3.603   5.417   7.764 -0.2182  0.5134 -0.3195
 5979TIP3    H139572   3.623   5.476   7.837  0.8251  0.1738 -0.3036
 5979TIP3    H239573   3.660   5.447   7.693  0.3815 -0.4936 -0.2887
 5980TIP3   OH239574   5.269   4.994   0.136  0.2815 -0.1258 -0.1175
 5980TIP3    H139575   5.317   5.026   0.213 -0.1209  0.3654 -0.0721
 5980TIP3    H239576   5.245   5.072   0.087 -1.2599 -0.2942  0.3230
 5981TIP3   OH239577   5.429   3.598   0.777  0.1100  0.2408 -0.2176
 5981TIP3    H139578   5.341   3.560   0.774 -0.2699  1.1429 -1.8083
 5981TIP3    H239579   5.425   3.671   0.716  2.6005 -1.0470 -2.0973
 5982TIP3   OH239580   6.597   0.609   7.830 -0.0957 -0.4034 -0.1821
 5982TIP3    H139581   6.588   0.557   7.910  2.1003  0.5026  0.7203
 5982TIP3    H239582   6.686   0.594   7.800 -0.1902  0.9368 -1.2599
 5983TIP3   OH239583   0.579   5.063   0.630 -0.9841 -0.7860  0.0606
 5983TIP3    H139584   0.553   5.064   0.722  0.3535 -0.4175  0.4630
 5983TIP3    H239585   0.505   5.101   0.583 -1.4771 -0.5036  1.0529
 5984TIP3   OH239586   3.617   5.667   0.017  0.5140  0.4069 -0.7541
 5984TIP3    H139587   3.521   5.658   0.021  0.5298  0.2385  2.7907
 5984TIP3    H239588   3.634   5.757   0.046  1.4222 -0.0412  0.1757
 5985TIP3   OH239589   0.550   5.217   7.254  0.3353  0.3404  0.3877
 5985TIP3    H139590   0.497   5.256   7.185  0.8008  0.2872 -0.0039
 5985TIP3    H239591   0.641   5.226   7.223  0.9040  3.3052  2.4325
 5986TIP3   OH239592   3.352   0.581   7.372 -0.0990  0.7080 -0.3275
 5986TIP3    H139593   3.351   0.510   7.436 -4.4652 -0.3665 -1.2648
 5986TIP3    H239594   3.424   0.560   7.314 -0.9065 -2.7834 -0.2598
 5987TIP3   OH239595   2.824   5.875   6.907 -0.1813 -1.0368 -0.0681
 5987TIP3    H139596   2.902   5.925   6.882 -0.2183  0.2846  2.2011
 5987TIP3    H239597   2.851   5.783   6.901  0.6463 -0.7179 -1.9983
 5988TIP3   OH239598   2.229   5.661   1.058 -0.1204 -0.2087  0.4492
 5988TIP3    H139599   2.136   5.675   1.040  0.3777  3.8842 -0.0482
 5988TIP3    H239600   2.271   5.672   0.973  0.8791 -2.1661  0.6474
 5989TIP3   OH239601   6.960   0.372   7.508 -0.0695 -0.0690  0.2982
 5989TIP3    H139602   7.022   0.442   7.529  1.9076 -1.2161 -1.4167
 5989TIP3    H239603   6.933   0.389   7.418  1.5516 -2.2051 -0.6748
 5990TIP3   OH239604   6.472   3.987   7.798 -0.2910 -0.5204 -0.1672
 5990TIP3    H139605   6.377   3.988   7.794 -0.2952 -0.4393 -0.0714
 5990TIP3    H239606   6.496   4.080   7.795 -0.2095 -0.5466 -0.3216
 5991TIP3   OH239607   1.656   4.613   0.826  0.6169  0.4745 -0.3384
 5991TIP3    H139608   1.709   4.662   0.762  1.7976 -1.3199 -0.8212
 5991TIP3    H239609   1.639   4.530   0.783 -1.1685  0.3537  0.5354
 5992TIP3   OH239610   3.329   7.031   7.820  0.0960  0.5809  0.2803
 5992TIP3    H139611   3.395   6.979   7.775  0.2354  0.8142  0.2138
 5992TIP3    H239612   3.368   7.053   7.904 -0.3216 -0.1955  0.6882
 5993TIP3   OH239613   4.360   4.509   0.079 -0.2706 -0.5691  0.5426
 5993TIP3    H139614   4.357   4.547   0.167  0.6640  1.3030 -0.1797
 5993TIP3    H239615   4.286   4.449   0.077 -1.3619  0.6298  2.0589
 5994TIP3   OH239616   3.342   6.473   0.320  0.7925  0.0277 -0.1174
 5994TIP3    H139617   3.298   6.415   0.382 -0.9203 -0.5252 -1.7345
 5994TIP3    H239618   3.397   6.414   0.267  0.3613  0.1088 -0.6672
 5995TIP3   OH239619   2.000   5.919   1.211 -0.9508 -0.2625  0.1967
 5995TIP3    H139620   2.054   5.976   1.156 -0.9284 -0.5477 -0.0753
 5995TIP3    H239621   1.916   5.965   1.217 -1.4173 -0.8963 -1.2207
 5996TIP3   OH239622   2.262   5.009   6.760  0.2099  0.0237 -0.0178
 5996TIP3    H139623   2.303   4.975   6.840 -0.3419 -0.0501  0.2388
 5996TIP3    H239624   2.224   4.931   6.718  0.8059  0.0114 -0.5338
 5997TIP3   OH239625   6.732   4.561   0.823  0.0461 -0.3392 -0.1341
 5997TIP3    H139626   6.764   4.495   0.885  1.5590  1.1211  0.7405
 5997TIP3    H239627   6.680   4.621   0.877  1.2494  0.8646 -0.2318
 5998TIP3   OH239628   4.577   2.327   0.322  0.2683 -0.2454  0.4147
 5998TIP3    H139629   4.611   2.309   0.410  1.9071 -0.8909 -0.3176
 5998TIP3    H239630   4.632   2.398   0.289  1.0467 -1.3893 -0.8453
 5999TIP3   OH239631   3.657   7.083   6.684  0.0338 -0.0027  0.2804
 5999TIP3    H139632   3.613   7.075   6.769  0.4252 -0.2759  0.4539
 5999TIP3    H239633   3.591   7.126   6.629 -0.6709 -0.9086  0.3834
 6000TIP3   OH239634   5.600   6.721   1.654 -0.5799  0.8462  0.2775
 6000TIP3    H139635   5.676   6.695   1.705  0.2463  0.9317 -0.8601
 6000TIP3    H239636   5.637   6.754   1.572 -1.8518  0.7250 -0.3695
 6001TIP3   OH239637   2.332   1.180   2.265  0.4547  0.3198  0.1716
 6001TIP3    H139638   2.410   1.138   2.302  0.4996  1.2552  1.1710
 6001TIP3    H239639   2.269   1.110   2.255  1.7017 -0.6328 -1.4685
 6002TIP3   OH239640   7.073   0.848   2.067  0.5658  0.3460  0.0758
 6002TIP3    H139641   7.010   0.910   2.105  1.0968  2.2205 -1.8859
 6002TIP3    H239642   7.019   0.787   2.017  0.1371  0.0261  0.8938
 6003TIP3   OH239643   6.671   0.388   7.201  0.0892  0.2922 -0.0619
 6003TIP3    H139644   6.649   0.411   7.111  0.7480  1.0411 -0.0402
 6003TIP3    H239645   6.713   0.466   7.236  0.8061 -0.3629  0.5717
 6004TIP3   OH239646   1.795   6.149   1.933  0.0897  0.1549 -0.1689
 6004TIP3    H139647   1.787   6.181   2.023 -1.0389  1.5170 -0.7086
 6004TIP3    H239648   1.723   6.086   1.923 -1.2413  1.7019 -0.7542
 6005TIP3   OH239649   1.155   0.805   7.864 -0.4746  0.0155 -0.6147
 6005TIP3    H139650   1.168   0.741   7.793 -0.1016  0.0059 -0.5416
 6005TIP3    H239651   1.176   0.756   7.944  3.2441  1.0664 -0.7418
 6006TIP3   OH239652   4.115   4.466   2.971 -1.5461 -0.1497  0.1122
 6006TIP3    H139653   4.165   4.547   2.965 -1.1380 -0.3553  0.7481
 6006TIP3    H239654   4.058   4.468   2.893 -1.5253  0.7263  0.1063
 6007TIP3   OH239655   2.647   0.073   0.498  0.1745  0.5879  0.4624
 6007TIP3    H139656   2.614   0.153   0.459 -2.2709 -1.8488 -3.0935
 6007TIP3    H239657   2.570   0.033   0.539  0.9695 -0.6677  0.7786
 6008TIP3   OH239658   1.122   0.647   1.866  0.2349 -0.0171 -0.1028
 6008TIP3    H139659   1.206   0.625   1.826 -0.1530  0.4684 -1.2046
 6008TIP3    H239660   1.138   0.638   1.960  1.5097  0.0447 -0.2938
 6009TIP3   OH239661   6.817   5.114   1.803  0.2092 -0.1631  0.2512
 6009TIP3    H139662   6.894   5.147   1.850 -0.7517  0.6346  1.3285
 6009TIP3    H239663   6.827   5.148   1.714  0.3098  1.2954  0.7906
 6010TIP3   OH239664   4.954   4.602   0.014 -0.1499  0.4237 -0.0823
 6010TIP3    H139665   4.873   4.617   0.063  0.6438  2.5484  0.6688
 6010TIP3    H239666   4.926   4.600  -0.078 -1.1162  0.6165  0.1906
 6011TIP3   OH239667   1.865   4.170   8.170  0.6122  0.7264 -0.4700
 6011TIP3    H139668   1.790   4.229   8.176  0.4583  0.4376  0.5494
 6011TIP3    H239669   1.925   4.200   8.238  0.6233 -0.1513 -0.0786
 6012TIP3   OH239670   2.425   4.303   2.070  0.3608 -0.3665 -0.0441
 6012TIP3    H139671   2.411   4.251   1.991 -1.3276 -0.1866  0.0864
 6012TIP3    H239672   2.388   4.389   2.049 -0.3272 -0.3877  1.0050
 6013TIP3   OH239673   1.877   5.652   8.110 -0.2293  0.1361 -0.3805
 6013TIP3    H139674   1.943   5.656   8.179 -1.1892 -0.9073  0.6079
 6013TIP3    H239675   1.873   5.742   8.076  2.6344 -0.0091 -1.4006
 6014TIP3   OH239676   0.150   2.546   7.385  0.7603  0.2919 -0.1241
 6014TIP3    H139677   0.103   2.595   7.452  2.1114  0.3429  0.8451
 6014TIP3    H239678   0.102   2.463   7.377 -0.2548  0.8752 -0.1645
 6015TIP3   OH239679   6.779   3.824   7.728  0.0878  0.2053 -0.1374
 6015TIP3    H139680   6.699   3.839   7.677 -1.3271 -0.7628  1.6767
 6015TIP3    H239681   6.756   3.851   7.817  1.1834 -1.6943  0.7918
 6016TIP3   OH239682   1.946   4.752   0.430  0.2779 -0.9155 -0.2511
 6016TIP3    H139683   1.929   4.822   0.366  1.4897 -1.2670 -0.9860
 6016TIP3    H239684   2.022   4.782   0.479 -0.8035 -0.5126  1.2892
 6017TIP3   OH239685   1.672   3.750   8.183  0.5652  0.2733  0.3220
 6017TIP3    H139686   1.586   3.707   8.192  0.9359 -0.5911 -0.1130
 6017TIP3    H239687   1.651   3.841   8.165 -0.3788 -0.4348 -2.7020
 6018TIP3   OH239688   3.907   0.143   7.588 -0.7862  0.8200  0.1827
 6018TIP3    H139689   3.917   0.117   7.679 -1.5013 -0.8951 -0.2033
 6018TIP3    H239690   3.865   0.069   7.546 -1.7250  2.1159 -1.2723
 6019TIP3   OH239691   2.645   6.806   2.488  0.1086 -0.4078 -0.0303
 6019TIP3    H139692   2.716   6.774   2.433  0.5970  2.3416 -1.1664
 6019TIP3    H239693   2.565   6.780   2.442  0.4968  0.6004 -1.3425
 6020TIP3   OH239694   5.929   1.989   0.057 -0.0291 -0.1921  0.3375
 6020TIP3    H139695   5.907   2.033  -0.025 -0.1518 -0.0255  0.4615
 6020TIP3    H239696   5.845   1.978   0.102  0.1547  0.5731  0.8720
 6021TIP3   OH239697   5.748   2.907   1.460  0.2938  0.0298 -0.5064
 6021TIP3    H139698   5.831   2.868   1.430  0.7609  1.2328 -0.8285
 6021TIP3    H239699   5.742   2.990   1.413 -1.3983 -0.2927 -0.9311
 6022TIP3   OH239700   1.336   5.882   1.756  0.1956  0.1311 -0.6377
 6022TIP3    H139701   1.327   5.789   1.736 -0.2866 -0.2787  1.3516
 6022TIP3    H239702   1.271   5.899   1.824  1.3188  1.5817  0.1292
 6023TIP3   OH239703   1.094   4.077   8.053 -0.0406 -0.4789  0.2926
 6023TIP3    H139704   1.132   4.158   8.020 -2.5705 -0.3267 -2.7254
 6023TIP3    H239705   1.009   4.103   8.090 -0.4677 -1.6319  0.1673
 6024TIP3   OH239706   2.238   2.568   0.557 -0.1129 -0.0368  0.0923
 6024TIP3    H139707   2.151   2.549   0.522 -1.6873  2.1504  2.3754
 6024TIP3    H239708   2.262   2.489   0.606 -1.8531  0.0435  1.1679
 6025TIP3   OH239709   0.342   1.126   8.100  0.4669 -0.3639  0.0999
 6025TIP3    H139710   0.414   1.162   8.151 -0.6319  0.1421  1.3619
 6025TIP3    H239711   0.384   1.066   8.038  1.8168 -1.7376  2.2157
 6026TIP3   OH239712   4.843   1.292   0.708  0.4993 -0.0440 -0.4592
 6026TIP3    H139713   4.826   1.251   0.623 -0.2721  0.2131 -0.4339
 6026TIP3    H239714   4.775   1.258   0.765  0.8074  0.0556 -0.0260
 6027TIP3   OH239715   0.182   5.125   8.119  0.1600  0.2363  0.4624
 6027TIP3    H139716   0.227   5.209   8.127 -0.2988  0.3255  2.6587
 6027TIP3    H239717   0.175   5.093   8.209 -0.6669 -1.6377 -0.2233
 6028TIP3   OH239718   3.221   6.847   8.131 -0.2995 -0.2885 -0.1563
 6028TIP3    H139719   3.190   6.932   8.162 -1.4873 -0.2766 -1.2680
 6028TIP3    H239720   3.168   6.829   8.054  0.5701 -1.6254 -0.4829
 6029TIP3   OH239721   1.659   4.559   0.374  0.1481 -0.6570  0.8178
 6029TIP3    H139722   1.671   4.495   0.304  0.8268  0.2525  0.0689
 6029TIP3    H239723   1.748   4.576   0.406  0.2737  1.3733 -0.3814
 6030TIP3   OH239724   0.228   1.444   0.848  0.3534 -0.2971 -0.2682
 6030TIP3    H139725   0.198   1.353   0.852 -1.3706  0.2719  0.8920
 6030TIP3    H239726   0.298   1.448   0.914  0.6747 -0.8416 -0.5620
 6031TIP3   OH239727   0.175   5.628   7.377  0.0644  0.4062 -0.8799
 6031TIP3    H139728   0.217   5.623   7.292  0.3165 -0.3529 -0.7223
 6031TIP3    H239729   0.081   5.623   7.357  0.1455 -2.7782 -1.0006
 6032TIP3   OH239730   3.268   0.663   0.976 -0.2423  0.4279  0.0823
 6032TIP3    H139731   3.329   0.649   1.049 -0.7902  0.9336  0.6603
 6032TIP3    H239732   3.197   0.600   0.993  0.0014  0.0055 -0.4545
 6033TIP3   OH239733   4.213   6.322   0.815 -0.0955 -0.0898 -0.4891
 6033TIP3    H139734   4.179   6.340   0.902  0.0044 -0.0957 -0.4494
 6033TIP3    H239735   4.135   6.316   0.760 -0.1479  0.1148 -0.4382
 6034TIP3   OH239736   6.883   4.344   6.531  0.4498  0.5179  0.0749
 6034TIP3    H139737   6.857   4.413   6.592  1.3578  0.1154  0.9577
 6034TIP3    H239738   6.807   4.332   6.474 -0.3165  1.1304  0.9309
 6035TIP3   OH239739   3.370   1.187   6.452 -0.0142 -0.1582 -0.4705
 6035TIP3    H139740   3.424   1.251   6.499  1.3208 -0.6823 -1.2270
 6035TIP3    H239741   3.280   1.210   6.474  0.5058  0.8528  0.7085
 6036TIP3   OH239742   2.626   6.577   1.993 -0.1946  0.2154 -0.2843
 6036TIP3    H139743   2.712   6.614   1.975 -0.9621  1.5101 -1.5649
 6036TIP3    H239744   2.629   6.551   2.085  1.3294  0.8434 -0.1272
 6037TIP3   OH239745   1.500   3.122   0.479  0.3826 -0.3407  0.0565
 6037TIP3    H139746   1.414   3.119   0.437  1.4456 -1.2613 -2.1807
 6037TIP3    H239747   1.482   3.101   0.571 -1.9098  0.7147 -0.0838
 6038TIP3   OH239748   2.006   2.155   2.330  0.2726  0.4573  0.6880
 6038TIP3    H139749   2.025   2.213   2.257 -0.5811  0.1770  0.2277
 6038TIP3    H239750   1.959   2.210   2.393 -2.2541 -0.1252 -0.5712
 6039TIP3   OH239751   0.184   5.419   0.467  0.0954  0.0191  0.0844
 6039TIP3    H139752   0.096   5.448   0.491 -0.0911  0.9845 -1.5962
 6039TIP3    H239753   0.211   5.480   0.397  0.4755 -2.6851 -2.3041
 6040TIP3   OH239754   0.753   4.650   0.779  0.2418  0.0585 -0.2767
 6040TIP3    H139755   0.676   4.614   0.822  0.3736  1.6213  1.3981
 6040TIP3    H239756   0.755   4.741   0.806  2.5831  0.1030 -0.4027
 6041TIP3   OH239757   4.141   3.533   0.944  0.1924  0.1244  0.0325
 6041TIP3    H139758   4.078   3.551   0.874  0.0296  0.1022  0.1727
 6041TIP3    H239759   4.202   3.607   0.942 -1.4316  1.6074  1.6997
 6042TIP3   OH239760   0.300   4.731   1.959  0.1209 -0.4721 -0.8268
 6042TIP3    H139761   0.325   4.739   2.051  0.9460 -0.8200 -1.0072
 6042TIP3    H239762   0.207   4.710   1.961 -0.5130  2.0348 -0.1436
 6043TIP3   OH239763   5.082   0.709   1.667 -0.1965 -0.1421 -0.6766
 6043TIP3    H139764   5.129   0.641   1.717 -0.0363 -0.5937 -1.4200
 6043TIP3    H239765   4.998   0.717   1.711  0.6191  0.8158  0.8050
 6044TIP3   OH239766   5.943   0.587   7.372 -0.0506  0.3126 -0.2165
 6044TIP3    H139767   5.914   0.641   7.446 -1.0799  1.0240 -1.1216
 6044TIP3    H239768   6.012   0.639   7.330  0.5974 -0.1317  0.2664
 6045TIP3   OH239769   1.847   5.854   0.159 -0.1240 -0.2543 -0.4817
 6045TIP3    H139770   1.809   5.770   0.186  1.1859 -0.3288  1.3039
 6045TIP3    H239771   1.772   5.906   0.130 -1.5569 -0.6994  2.0872
 6046TIP3   OH239772   5.210   0.922   0.222 -0.3239  0.6237 -0.2108
 6046TIP3    H139773   5.132   0.904   0.275  1.1446  0.0052  1.9029
 6046TIP3    H239774   5.229   1.015   0.237 -0.4895  0.6953 -0.4575
 6047TIP3   OH239775   6.659   0.787   8.029 -0.4505  0.1625  0.4873
 6047TIP3    H139776   6.635   0.754   7.943  1.1903  1.3437 -0.4946
 6047TIP3    H239777   6.654   0.711   8.087 -0.3482 -0.9480 -0.9125
 6048TIP3   OH239778   5.014   1.756   1.063  0.0603  0.0524  0.0235
 6048TIP3    H139779   5.025   1.775   1.157  0.5489  0.0907 -0.0372
 6048TIP3    H239780   5.032   1.662   1.056  2.1790  0.4270 -0.3285
 6049TIP3   OH239781   0.751   4.848   7.418 -0.1785 -0.0922 -0.1513
 6049TIP3    H139782   0.674   4.904   7.423  0.0373  0.2218 -0.3065
 6049TIP3    H239783   0.817   4.901   7.374 -0.4873 -1.0593 -1.8619
 6050TIP3   OH239784   0.905   6.360   1.080 -0.3987 -0.1570 -0.5270
 6050TIP3    H139785   0.974   6.298   1.100 -0.0000  0.6573  0.7014
 6050TIP3    H239786   0.947   6.426   1.024  0.2072  1.0373  1.2603
 6051TIP3   OH239787   5.314   6.945   2.262  0.0612 -0.5463 -0.2375
 6051TIP3    H139788   5.309   6.965   2.169 -3.2192  4.0257  0.5925
 6051TIP3    H239789   5.228   6.911   2.285  0.4885 -0.6927  1.2987
 6052TIP3   OH239790   5.397   2.259   6.803 -0.3509 -0.3063  0.3126
 6052TIP3    H139791   5.424   2.216   6.721 -2.7173  1.5398 -1.6124
 6052TIP3    H239792   5.305   2.235   6.813 -0.9799  1.9625  0.6520
 6053TIP3   OH239793   1.502   4.824   0.234  0.3492  0.4133  0.2283
 6053TIP3    H139794   1.462   4.908   0.215  1.2176  0.0989 -3.9410
 6053TIP3    H239795   1.596   4.839   0.222  0.4625 -1.2021 -1.4299
 6054TIP3   OH239796   2.757   3.130   7.852  0.4139  0.0076  0.1443
 6054TIP3    H139797   2.747   3.054   7.910  0.0437 -0.2267 -0.2178
 6054TIP3    H239798   2.744   3.206   7.908 -1.6813 -0.2338  0.0779
 6055TIP3   OH239799   4.986   2.393   7.232  0.0987 -0.2159 -0.5657
 6055TIP3    H139800   4.912   2.377   7.174 -0.2483  0.8252 -0.4323
 6055TIP3    H239801   5.056   2.423   7.173 -0.5114  1.6658 -0.3991
 6056TIP3   OH239802   6.064   0.138   2.327  0.4651  0.1274  0.2964
 6056TIP3    H139803   6.019   0.060   2.362  0.4272  0.3189  0.6777
 6056TIP3    H239804   6.136   0.153   2.387 -0.9480  1.8293  1.6597
 6057TIP3   OH239805   5.872   2.690   8.146  0.5787  0.2320 -0.4406
 6057TIP3    H139806   5.876   2.600   8.178  0.9637  0.7845  1.2218
 6057TIP3    H239807   5.930   2.692   8.070 -0.0823 -1.0907 -1.0038
 6058TIP3   OH239808   5.287   2.579   8.016 -0.1283  0.1613  0.6530
 6058TIP3    H139809   5.337   2.647   7.972  2.7793 -1.0170  1.9146
 6058TIP3    H239810   5.244   2.531   7.946  1.0767  0.8202 -0.5772
 6059TIP3   OH239811   4.895   4.238   8.201  0.2786 -0.4138  0.7454
 6059TIP3    H139812   4.986   4.209   8.213  0.6124  0.1068 -0.3815
 6059TIP3    H239813   4.901   4.313   8.142 -0.9851 -1.1455 -0.3744
 6060TIP3   OH239814   2.161   6.139   0.325 -1.1448  0.4417  0.0741
 6060TIP3    H139815   2.255   6.147   0.310 -1.0133 -0.7682  0.1747
 6060TIP3    H239816   2.146   6.184   0.408 -0.6118  0.4435  0.1699
 6061TIP3   OH239817   2.848   1.775   0.079  0.4555 -0.1741 -0.7775
 6061TIP3    H139818   2.876   1.865   0.061 -0.3745 -0.2679 -2.7995
 6061TIP3    H239819   2.929   1.724   0.080  0.7601  0.2583 -1.9396
 6062TIP3   OH239820   6.197   2.474   2.366  0.4467  0.4748  0.2942
 6062TIP3    H139821   6.217   2.568   2.375 -0.2586  0.8290 -1.3743
 6062TIP3    H239822   6.102   2.470   2.375  0.4721 -0.0663  0.3073
 6063TIP3   OH239823   3.238   2.349   8.108  0.1915 -0.0389 -0.0465
 6063TIP3    H139824   3.240   2.352   8.203 -1.1042  1.1059 -0.0393
 6063TIP3    H239825   3.270   2.261   8.086 -0.6535 -0.7477  1.4726
 6064TIP3   OH239826   5.243   2.096   1.463  0.8693 -0.2167  0.1197
 6064TIP3    H139827   5.196   2.135   1.389 -2.1345 -1.2747  1.3340
 6064TIP3    H239828   5.311   2.160   1.484  0.6566  0.9503 -2.3845
 6065TIP3   OH239829   1.760   5.003   1.361 -0.0057 -0.4855 -0.1944
 6065TIP3    H139830   1.746   5.087   1.319 -0.3431 -0.1810  0.5131
 6065TIP3    H239831   1.690   4.947   1.326  0.1607 -0.4451 -0.5917
 6066TIP3   OH239832   6.215   1.079   1.856 -0.1258 -0.3079  0.2864
 6066TIP3    H139833   6.164   0.999   1.874 -2.2646  0.8108 -0.4655
 6066TIP3    H239834   6.281   1.051   1.793  0.1160 -1.7783  1.1263
 6067TIP3   OH239835   4.446   4.149   2.713  0.4220 -0.2210  0.0665
 6067TIP3    H139836   4.442   4.219   2.778  1.8940 -0.5678  0.5632
 6067TIP3    H239837   4.474   4.192   2.633 -1.3240  0.1954 -0.3591
 6068TIP3   OH239838   2.687   0.494   2.050  0.6105 -0.1925  0.3458
 6068TIP3    H139839   2.682   0.589   2.041  0.5003 -0.0855  1.4085
 6068TIP3    H239840   2.607   0.469   2.097  0.2611 -0.9110 -0.6000
 6069TIP3   OH239841   3.100   6.257   1.648 -0.3831 -0.2711 -0.1136
 6069TIP3    H139842   3.133   6.210   1.571 -0.0360 -1.5798  0.7973
 6069TIP3    H239843   3.146   6.216   1.721 -2.7861 -1.0383  1.0639
 6070TIP3   OH239844   5.351   0.235   0.615 -0.0821 -0.1611 -0.2660
 6070TIP3    H139845   5.290   0.182   0.666 -0.2920 -0.4382 -0.7957
 6070TIP3    H239846   5.409   0.171   0.573 -0.0552  0.0464 -0.5527
 6071TIP3   OH239847   0.307   1.031   7.361 -0.5874  0.4391 -0.2185
 6071TIP3    H139848   0.338   1.069   7.444 -0.5069  0.4006 -0.2306
 6071TIP3    H239849   0.212   1.035   7.367 -0.5797  0.6419 -0.2193
 6072TIP3   OH239850   3.663   5.209   6.575 -0.1359 -0.1124 -0.3278
 6072TIP3    H139851   3.624   5.224   6.489 -0.6610 -2.0909 -0.4914
 6072TIP3    H239852   3.593   5.228   6.637  0.5024  2.1983 -0.2107
 6073TIP3   OH239853   5.509   5.921   6.450 -0.0826  0.3503  0.8220
 6073TIP3    H139854   5.424   5.880   6.434 -0.3924  0.2790  2.4638
 6073TIP3    H239855   5.492   6.015   6.437 -0.3954  0.3281  1.0413
 6074TIP3   OH239856   4.076   4.213   8.039  0.0304  0.0051  0.2935
 6074TIP3    H139857   4.138   4.254   7.978 -0.2989 -2.1536 -1.6395
 6074TIP3    H239858   3.990   4.240   8.007 -0.1248 -0.3353  0.4214
 6075TIP3   OH239859   1.620   6.932   0.547 -0.0874 -0.5337  0.3314
 6075TIP3    H139860   1.537   6.960   0.510  0.0510 -1.2303 -0.5232
 6075TIP3    H239861   1.601   6.916   0.640 -0.1206  2.5310  0.9560
 6076TIP3   OH239862   0.334   6.571   2.342 -0.3048 -0.2453 -0.4614
 6076TIP3    H139863   0.410   6.537   2.389 -0.6399  1.6086  1.5593
 6076TIP3    H239864   0.259   6.529   2.385 -0.6284  1.6814  0.9854
 6077TIP3   OH239865   0.908   3.740   0.215  0.2094 -0.1762  0.2084
 6077TIP3    H139866   0.902   3.830   0.184 -2.4687 -0.5412 -0.5606
 6077TIP3    H239867   0.848   3.691   0.159  0.1974 -2.0906  1.7794
 6078TIP3   OH239868   1.606   6.914   7.689 -0.7998  0.2660 -0.7087
 6078TIP3    H139869   1.687   6.901   7.640  0.6070  0.7106  1.3778
 6078TIP3    H239870   1.614   6.855   7.764 -1.9481  1.0421  0.0525
 6079TIP3   OH239871   0.525   0.857   0.854  0.1441  0.2948 -0.2175
 6079TIP3    H139872   0.597   0.826   0.800 -1.1625  1.7672 -2.9768
 6079TIP3    H239873   0.453   0.796   0.837 -0.2542  0.7112 -0.0641
 6080TIP3   OH239874   6.268   5.071   2.577 -0.0173 -0.0812  0.1552
 6080TIP3    H139875   6.328   5.119   2.519 -1.3942 -0.3300 -1.5511
 6080TIP3    H239876   6.229   5.004   2.521 -1.6252 -0.1690  1.3081
 6081TIP3   OH239877   1.478   1.169   0.016 -0.2247 -1.1013  0.5693
 6081TIP3    H139878   1.521   1.113   0.081  1.9978  1.0992  1.1520
 6081TIP3    H239879   1.493   1.258   0.047 -2.2671 -0.0762 -1.1268
 6082TIP3   OH239880   3.383   6.460   7.216 -0.9118  0.5142  0.1300
 6082TIP3    H139881   3.351   6.416   7.137 -0.6194 -1.0911  0.8766
 6082TIP3    H239882   3.313   6.450   7.280 -0.3593  0.0296  0.6823
 6083TIP3   OH239883   1.935   6.296   7.444  0.0532 -0.0729 -0.0341
 6083TIP3    H139884   1.978   6.381   7.438 -0.0808  0.0907  1.1757
 6083TIP3    H239885   1.914   6.274   7.353 -1.0277  1.7566 -0.2811
 6084TIP3   OH239886   2.646   2.717   8.034  1.2468 -0.0130 -0.0799
 6084TIP3    H139887   2.621   2.625   8.031 -0.9095  0.4888  0.5921
 6084TIP3    H239888   2.611   2.754   7.953  1.0938  0.4187  0.1792
 6085TIP3   OH239889   1.454   1.743   7.773 -0.1152  0.2298  0.0334
 6085TIP3    H139890   1.403   1.819   7.745  0.4564  0.2398 -1.0147
 6085TIP3    H239891   1.421   1.724   7.861 -0.8153  1.2020  0.0037
 6086TIP3   OH239892   2.462   0.557   0.148  0.2698 -0.1490 -0.0936
 6086TIP3    H139893   2.473   0.471   0.189 -0.3031 -0.7131 -1.0635
 6086TIP3    H239894   2.525   0.613   0.192  0.9636 -1.1843  0.2758
 6087TIP3   OH239895   7.006   1.847   7.028 -0.2587  0.6080  0.2184
 6087TIP3    H139896   7.043   1.840   6.939 -0.4602 -0.1204  0.1830
 6087TIP3    H239897   7.004   1.757   7.060 -0.2374  0.8600  0.9491
 6088TIP3   OH239898   2.466   0.679   6.579  0.1552  0.2171  0.4874
 6088TIP3    H139899   2.542   0.662   6.523 -0.4880 -0.1224 -0.3004
 6088TIP3    H239900   2.398   0.620   6.546 -1.1886  2.1113 -0.3154
 6089TIP3   OH239901   3.360   1.154   0.766 -0.3100  0.0478  0.1237
 6089TIP3    H139902   3.406   1.233   0.794 -0.7483  0.2264  0.3713
 6089TIP3    H239903   3.343   1.106   0.848 -0.6768  0.0522  0.0519
 6090TIP3   OH239904   0.904   1.008   7.807  0.5009  0.3340 -0.1429
 6090TIP3    H139905   0.914   0.965   7.892  1.3996 -1.2997 -1.0212
 6090TIP3    H239906   0.823   0.972   7.771 -1.0791  2.6331  0.8404
 6091TIP3   OH239907   6.240   5.729   7.736  0.3094 -0.2606  0.2181
 6091TIP3    H139908   6.294   5.804   7.712 -2.5951  2.1640  0.8113
 6091TIP3    H239909   6.195   5.704   7.655  1.8138 -2.0092 -0.1716
 6092TIP3   OH239910   1.567   4.707   7.661  0.1877  0.0220 -0.0980
 6092TIP3    H139911   1.481   4.667   7.675 -0.5614  1.4596 -0.4359
 6092TIP3    H239912   1.552   4.801   7.671  2.1405  0.2050  2.0074
 6093TIP3   OH239913   3.926   6.494   0.425 -0.2258  0.2091 -0.0434
 6093TIP3    H139914   3.859   6.463   0.485  0.0195 -1.3721 -0.5175
 6093TIP3    H239915   4.008   6.485   0.473 -0.1607  0.1801 -0.1583
 6094TIP3   OH239916   0.556   4.454   1.599 -0.2352 -0.8070  0.0874
 6094TIP3    H139917   0.618   4.383   1.588 -0.9701 -1.4276 -0.1253
 6094TIP3    H239918   0.575   4.489   1.686  0.3131 -1.0758  0.0812
 6095TIP3   OH239919   5.895   3.708   1.381  0.6850  0.7881  0.1218
 6095TIP3    H139920   5.869   3.705   1.473  1.9293  0.9144  0.4834
 6095TIP3    H239921   5.856   3.789   1.347  0.4275  0.8609  0.5873
 6096TIP3   OH239922   5.380   1.143   0.956 -0.3982  0.2853 -0.1582
 6096TIP3    H139923   5.400   1.234   0.936 -2.1112  0.4360 -1.4578
 6096TIP3    H239924   5.291   1.130   0.922 -0.7690 -1.4741  1.2796
 6097TIP3   OH239925   5.024   5.747   1.130 -0.4422 -0.4117 -0.2297
 6097TIP3    H139926   5.078   5.742   1.051  0.1873 -1.1069  0.2234
 6097TIP3    H239927   5.041   5.664   1.175 -1.2376 -0.2707  0.3531
 6098TIP3   OH239928   2.785   4.603   7.545  0.1997 -0.3455  0.7537
 6098TIP3    H139929   2.790   4.536   7.476  2.1864 -0.0267  0.5049
 6098TIP3    H239930   2.728   4.670   7.509  0.9900 -0.3095 -0.5199
 6099TIP3   OH239931   4.808   5.929   1.158 -0.1095  0.0484 -0.7707
 6099TIP3    H139932   4.855   5.858   1.113  1.5837  1.2575 -1.0091
 6099TIP3    H239933   4.877   5.984   1.193 -1.4077  0.7149  0.8345
 6100TIP3   OH239934   4.834   3.764   0.127  0.2306 -0.3407 -0.2181
 6100TIP3    H139935   4.882   3.747   0.208  1.4861  0.2432 -0.8115
 6100TIP3    H239936   4.809   3.856   0.132 -1.6105 -0.8198  0.4469
 6101TIP3   OH239937   4.871   6.520   6.868 -0.2876  0.1230 -0.0256
 6101TIP3    H139938   4.865   6.439   6.817 -0.0669  0.4851 -0.6357
 6101TIP3    H239939   4.779   6.546   6.880 -0.3568 -0.1774  0.1069
 6102TIP3   OH239940   0.569   1.874   7.421  0.3247 -0.2034 -0.1252
 6102TIP3    H139941   0.606   1.953   7.382 -0.3275 -0.4211 -1.2287
 6102TIP3    H239942   0.487   1.860   7.372  1.1245 -2.3466 -0.9491
 6103TIP3   OH239943   3.355   5.292   7.674 -0.2275  0.0337  0.5351
 6103TIP3    H139944   3.422   5.242   7.719  1.3957  0.4154 -1.3377
 6103TIP3    H239945   3.399   5.372   7.646 -0.9639 -0.3983 -2.1205
 6104TIP3   OH239946   4.588   4.556   0.737  0.1786 -0.0728 -0.1856
 6104TIP3    H139947   4.569   4.632   0.682 -0.3683 -0.2850 -0.3000
 6104TIP3    H239948   4.682   4.560   0.752  0.1613  0.5917 -0.2408
 6105TIP3   OH239949   1.454   1.796   7.364 -0.2932 -0.0601  0.3494
 6105TIP3    H139950   1.390   1.819   7.432  0.4533 -1.7258  1.7039
 6105TIP3    H239951   1.527   1.759   7.413  1.8309  1.9223 -1.1503
 6106TIP3   OH239952   5.237   1.895   7.006 -0.0737 -0.2815 -0.2867
 6106TIP3    H139953   5.177   1.969   7.018 -0.7409 -1.0927  1.8791
 6106TIP3    H239954   5.232   1.875   6.913 -1.9330  0.7250 -0.4572
 6107TIP3   OH239955   4.568   4.969   2.216 -0.0008 -0.2955  0.2784
 6107TIP3    H139956   4.643   4.991   2.161 -1.3393  2.2211 -0.6967
 6107TIP3    H239957   4.496   5.021   2.181 -2.4366 -3.1091  0.7457
 6108TIP3   OH239958   3.067   1.119   0.218 -0.5477  0.3738  0.0852
 6108TIP3    H139959   2.999   1.174   0.179  0.0707  1.0468 -0.0509
 6108TIP3    H239960   3.047   1.120   0.312 -1.2896 -0.2265 -0.0510
 6109TIP3   OH239961   6.614   4.860   6.555 -0.2258 -0.3760  0.0463
 6109TIP3    H139962   6.609   4.771   6.590  0.4953  0.5534  2.7512
 6109TIP3    H239963   6.527   4.877   6.519 -0.8576 -1.6313  0.9139
 6110TIP3   OH239964   5.817   3.214   7.363 -1.0612  0.1221 -0.0250
 6110TIP3    H139965   5.899   3.243   7.403 -0.4204 -0.2077 -1.0530
 6110TIP3    H239966   5.816   3.255   7.277 -1.6001 -0.4863 -0.3215
 6111TIP3   OH239967   3.669   6.433   0.528  0.0983  0.1551  0.2036
 6111TIP3    H139968   3.668   6.411   0.435  1.2062  0.3359  0.1309
 6111TIP3    H239969   3.619   6.364   0.570  0.0848 -0.2469 -0.4664
 6112TIP3   OH239970   2.557   4.219   6.832 -0.6654 -0.3082 -0.3030
 6112TIP3    H139971   2.517   4.267   6.904  2.1431  0.5161  0.7943
 6112TIP3    H239972   2.595   4.286   6.776  0.3377 -1.0951 -0.5921
 6113TIP3   OH239973   1.407   0.042   8.203  0.5097 -0.1872  0.5902
 6113TIP3    H139974   1.313   0.054   8.216  0.4175  1.4836 -1.2225
 6113TIP3    H239975   1.446   0.063   8.288 -0.7054 -0.3522  1.2071
 6114TIP3   OH239976   2.860   1.567   2.658  0.2741  0.0192  0.0710
 6114TIP3    H139977   2.923   1.538   2.723 -0.4921 -1.6778  0.1274
 6114TIP3    H239978   2.822   1.647   2.695 -0.7452 -1.3358  2.1624
 6115TIP3   OH239979   2.430   5.113   0.829 -0.1345 -0.4406 -0.1170
 6115TIP3    H139980   2.352   5.167   0.820  0.1074  0.1897  1.2749
 6115TIP3    H239981   2.503   5.170   0.806  0.0144 -0.6222 -0.1023
 6116TIP3   OH239982   0.094   3.389   2.252 -0.5617  0.6338 -0.4167
 6116TIP3    H139983   0.181   3.414   2.222 -0.0215 -0.3002  0.3305
 6116TIP3    H239984   0.081   3.439   2.333 -1.0934  1.4403 -0.9873
 6117TIP3   OH239985   0.606   6.761   0.981  0.5028 -0.3406  0.4411
 6117TIP3    H139986   0.550   6.838   0.966  0.5130 -0.4715 -0.2572
 6117TIP3    H239987   0.664   6.758   0.905  0.0039 -1.4822  0.0932
 6118TIP3   OH239988   5.650   0.834   7.128 -0.1458 -0.1716 -0.0023
 6118TIP3    H139989   5.702   0.881   7.063 -2.0240 -0.8724 -2.1464
 6118TIP3    H239990   5.713   0.811   7.196  1.7903  1.2235 -1.1837
 6119TIP3   OH239991   4.955   2.010   0.680  0.0382  0.7702 -0.5759
 6119TIP3    H139992   4.942   1.989   0.773 -3.3637  0.7332 -0.9329
 6119TIP3    H239993   4.967   2.105   0.678 -0.2662  0.8254 -0.0907
 6120TIP3   OH239994   2.498   3.218   7.125  0.5350  0.1208 -0.5603
 6120TIP3    H139995   2.465   3.246   7.210 -0.2723  0.0257 -0.8356
 6120TIP3    H239996   2.523   3.126   7.137 -0.4611 -0.1761 -0.6584
 6121TIP3   OH239997   5.263   4.066   1.480 -0.4313 -0.5394 -0.5868
 6121TIP3    H139998   5.329   4.009   1.440 -1.1215 -2.0622  0.3570
 6121TIP3    H239999   5.210   4.096   1.406  1.4387  0.9594 -1.4011
 6122TIP3   OH240000   2.473   1.244   1.265  0.2322 -0.0766  0.5846
 6122TIP3    H140001   2.519   1.238   1.181 -0.1933 -1.2746  0.4281
 6122TIP3    H240002   2.454   1.154   1.289 -2.3845  0.3593  0.4546
 6123TIP3   OH240003   7.085   6.540   0.738 -0.2968  0.1750  0.1357
 6123TIP3    H140004   7.101   6.454   0.698  1.1623 -0.6064  2.1848
 6123TIP3    H240005   7.062   6.520   0.829  0.0898  1.9502  0.6625
 6124TIP3   OH240006   3.541   1.965   0.099  0.1368 -0.2561 -0.1472
 6124TIP3    H140007   3.460   1.939   0.054  0.4256 -1.0013 -0.2499
 6124TIP3    H240008   3.605   1.899   0.073  0.7912  0.3464 -0.0836
 6125TIP3   OH240009   6.946   0.340   7.989  0.5064  0.2869  0.1543
 6125TIP3    H140010   6.998   0.304   7.917  1.7653  0.1383  1.0988
 6125TIP3    H240011   6.943   0.269   8.054 -1.8440 -0.1134 -0.3007
 6126TIP3   OH240012   2.369   4.933   2.063  0.7837 -0.5460  0.3231
 6126TIP3    H140013   2.291   4.930   2.008  1.3603 -0.9289 -0.4990
 6126TIP3    H240014   2.345   4.882   2.141 -0.5025  1.1394  1.0929
 6127TIP3   OH240015   2.947   6.741   6.747 -0.2987  0.4890  0.3066
 6127TIP3    H140016   2.867   6.794   6.750 -0.8617 -0.3146 -0.2125
 6127TIP3    H240017   2.989   6.766   6.664  0.8758  2.1384  1.3405
 6128TIP3   OH240018   0.376   1.374   1.120  0.4385 -0.3520 -0.7772
 6128TIP3    H140019   0.422   1.290   1.129 -2.0819 -1.8669 -1.2361
 6128TIP3    H240020   0.300   1.366   1.178  1.3164  2.5893  0.9860
 6129TIP3   OH240021   1.765   4.813   0.618 -0.2337 -0.1998 -0.2439
 6129TIP3    H140022   1.846   4.797   0.568  0.1354  1.0582 -0.0869
 6129TIP3    H240023   1.705   4.852   0.554 -0.6454 -0.8986 -0.2966
 6130TIP3   OH240024   1.901   1.927   1.890  0.2970  0.1670  0.9199
 6130TIP3    H140025   1.958   1.938   1.966 -0.2040  2.8134  1.0175
 6130TIP3    H240026   1.815   1.906   1.927  0.3933 -0.1614  0.9653
 6131TIP3   OH240027   6.322   4.251   0.704 -0.2202  0.0040  0.6530
 6131TIP3    H140028   6.415   4.261   0.685 -0.0448 -0.2704  1.3245
 6131TIP3    H240029   6.317   4.174   0.761 -0.8768 -0.0808  0.4992
 6132TIP3   OH240030   0.948   4.707   1.736 -0.0636 -0.2302  0.9418
 6132TIP3    H140031   0.931   4.660   1.655  0.9868  1.2615 -0.2017
 6132TIP3    H240032   1.044   4.716   1.739 -0.2108  4.1869 -0.4377
 6133TIP3   OH240033   3.322   5.638   6.812 -0.2639 -0.2820  0.1816
 6133TIP3    H140034   3.237   5.683   6.812  0.3763  0.9666  0.9150
 6133TIP3    H240035   3.300   5.546   6.827 -1.6855 -0.4454 -2.2806
 6134TIP3   OH240036   4.337   6.171   0.252  0.8070  0.0911 -0.7009
 6134TIP3    H140037   4.352   6.130   0.337 -2.0418  1.9508  0.8681
 6134TIP3    H240038   4.297   6.102   0.199 -1.0472 -0.1192  0.8524
 6135TIP3   OH240039   4.671   4.975   2.476 -0.0974  0.1946 -0.2700
 6135TIP3    H140040   4.621   4.992   2.396 -0.4731  1.5417  0.2377
 6135TIP3    H240041   4.614   4.916   2.527 -1.2425  1.7346  0.3189
 6136TIP3   OH240042   5.598   2.682   8.122 -0.0594 -0.1666  0.7483
 6136TIP3    H140043   5.589   2.624   8.197 -1.4322  0.8162  1.3825
 6136TIP3    H240044   5.684   2.723   8.133  0.5237 -1.3688  0.7819
 6137TIP3   OH240045   6.576   6.780   7.521  0.3138  0.4487  0.0924
 6137TIP3    H140046   6.483   6.794   7.503  0.0628 -1.4150 -0.2461
 6137TIP3    H240047   6.578   6.708   7.584  1.5278 -0.1279 -0.5625
 6138TIP3   OH240048   4.262   4.936   0.467  0.0827 -0.2944 -0.2663
 6138TIP3    H140049   4.204   4.883   0.522  0.6220  1.1403  1.8114
 6138TIP3    H240050   4.204   4.988   0.412 -0.6744  1.0287  1.6879
 6139TIP3   OH240051   3.217   0.275   0.424  0.1578 -0.0595  0.1704
 6139TIP3    H140052   3.211   0.187   0.461  0.6875 -0.1305  0.0948
 6139TIP3    H240053   3.248   0.262   0.335 -0.6940  0.1421 -0.1624
 6140TIP3   OH240054   3.829   2.400   1.920 -0.1835  0.0168  0.1666
 6140TIP3    H140055   3.769   2.355   1.980 -0.2918  2.1018  1.7497
 6140TIP3    H240056   3.782   2.479   1.894  1.2942  0.9853  0.3091
 6141TIP3   OH240057   5.999   5.470   0.072  0.5892  0.0543  0.7490
 6141TIP3    H140058   5.944   5.398   0.105 -0.1124  0.1309 -0.2152
 6141TIP3    H240059   6.046   5.432  -0.002  1.1491  0.2555  0.9966
 6142TIP3   OH240060   6.741   2.517   1.939 -0.0993  0.4417  0.6482
 6142TIP3    H140061   6.668   2.456   1.927  0.8812 -0.8127  0.9307
 6142TIP3    H240062   6.811   2.464   1.977  0.4671  1.9532  1.8297
 6143TIP3   OH240063   0.617   6.858   6.590  0.0636 -0.1440 -0.5292
 6143TIP3    H140064   0.607   6.770   6.626 -0.4266 -0.1299 -0.6198
 6143TIP3    H240065   0.527   6.890   6.579  0.2194  1.1007  1.2919
 6144TIP3   OH240066   1.370   4.956   7.662 -0.4064 -0.1743  0.1777
 6144TIP3    H140067   1.396   5.009   7.587  0.7284 -0.6568  0.2020
 6144TIP3    H240068   1.329   5.018   7.723 -0.3897  0.4044 -0.3934
 6145TIP3   OH240069   2.177   3.783   8.107  0.1249  0.6180  0.1893
 6145TIP3    H140070   2.089   3.819   8.116  0.1087  0.5591  0.2768
 6145TIP3    H240071   2.236   3.855   8.129  0.1300  0.9711 -0.9316
 6146TIP3   OH240072   0.986   5.776   7.469  0.1545  0.3403  0.0589
 6146TIP3    H140073   0.993   5.764   7.564  1.4510 -0.2464 -0.0911
 6146TIP3    H240074   1.058   5.835   7.447  1.4273 -1.5027 -0.8797
 6147TIP3   OH240075   3.246   3.595   0.268 -0.0056  0.0581 -0.0251
 6147TIP3    H140076   3.193   3.626   0.194  0.5307 -1.0584 -0.9221
 6147TIP3    H240077   3.187   3.540   0.319 -0.2608  0.4831  0.1427
 6148TIP3   OH240078   1.231   3.780   1.953  0.8427 -0.5645 -0.5064
 6148TIP3    H140079   1.213   3.768   1.860 -1.3394  1.1543 -0.3783
 6148TIP3    H240080   1.216   3.694   1.992 -0.7063 -0.7347 -1.4155
 6149TIP3   OH240081   5.632   2.880   0.781 -0.7713  0.1376 -0.6008
 6149TIP3    H140082   5.660   2.971   0.777 -1.7779  0.4242 -1.6158
 6149TIP3    H240083   5.688   2.835   0.718  0.0929 -0.0746  0.2868
 6150TIP3   OH240084   6.681   0.608   1.515 -0.4777  0.8303  1.4359
 6150TIP3    H140085   6.614   0.545   1.486  0.7754  0.0953 -0.0290
 6150TIP3    H240086   6.657   0.690   1.472 -0.2522  0.4661  0.5851
 6151TIP3   OH240087   6.758   1.259   1.920 -0.6282 -0.4191  0.1820
 6151TIP3    H140088   6.711   1.342   1.923  2.6523  1.5610  1.3300
 6151TIP3    H240089   6.767   1.241   1.826  0.0356  1.4216 -0.1441
 6152TIP3   OH240090   3.980   6.308   0.693  0.0220  0.0026 -0.2290
 6152TIP3    H140091   3.939   6.263   0.620  0.5914 -1.2368  0.1950
 6152TIP3    H240092   3.935   6.274   0.771  0.5649  0.0548  0.1098
 6153TIP3   OH240093   2.815   5.767   7.402  0.0071 -0.2408 -0.0458
 6153TIP3    H140094   2.763   5.834   7.357  2.7344  1.0931 -1.4513
 6153TIP3    H240095   2.862   5.723   7.331  1.3693 -0.8572  1.2043
 6154TIP3   OH240096   6.451   6.853   2.615 -0.7235 -0.0924 -0.7754
 6154TIP3    H140097   6.452   6.948   2.604  0.3191 -0.2391 -2.2330
 6154TIP3    H240098   6.535   6.824   2.578 -0.8073 -1.5410  0.0820
 6155TIP3   OH240099   6.527   3.649   0.579  0.2263 -0.2789 -0.1184
 6155TIP3    H140100   6.533   3.582   0.647  0.5775 -0.2867 -0.1575
 6155TIP3    H240101   6.613   3.691   0.577  0.5720 -0.9830 -1.2771
 6156TIP3   OH240102   3.684   1.972   6.747  0.1264 -0.2033  0.4530
 6156TIP3    H140103   3.768   2.011   6.772  0.2930 -0.7503  0.7488
 6156TIP3    H240104   3.672   1.899   6.807 -0.4567 -0.2689  0.2630
 6157TIP3   OH240105   5.488   4.574   0.025 -0.1468  0.0305 -0.4169
 6157TIP3    H140106   5.481   4.644  -0.039 -2.7638  0.6393  0.3845
 6157TIP3    H240107   5.540   4.611   0.097 -1.2041  1.0655 -0.1553
 6158TIP3   OH240108   2.517   2.438   8.081  0.0177  0.5079  0.3408
 6158TIP3    H140109   2.587   2.393   8.032  0.2395  0.6088  0.5661
 6158TIP3    H240110   2.437   2.392   8.054  0.3944 -1.0542  1.7299
 6159TIP3   OH240111   1.228   6.100   7.738  0.3750 -0.2533  0.2086
 6159TIP3    H140112   1.263   6.098   7.827  1.0779  1.0793 -0.0174
 6159TIP3    H240113   1.239   6.011   7.705 -0.4108 -0.9019  1.6401
 6160TIP3   OH240114   3.541   4.776   1.274  0.2385 -0.2779 -0.7007
 6160TIP3    H140115   3.547   4.864   1.311  1.7375 -0.8736  0.5619
 6160TIP3    H240116   3.519   4.720   1.349  0.7768 -1.1784 -1.2037
 6161TIP3   OH240117   1.407   1.876   0.871  0.4065 -0.3438  0.6278
 6161TIP3    H140118   1.318   1.908   0.888  0.1396  0.9466 -2.5044
 6161TIP3    H240119   1.464   1.946   0.901  0.2244 -0.1571  0.5426
 6162TIP3   OH240120   1.524   1.436   7.329 -0.1658  0.5165  0.6443
 6162TIP3    H140121   1.603   1.383   7.320 -0.2049 -0.0491  2.9553
 6162TIP3    H240122   1.452   1.374   7.317 -0.2323  0.5787  0.7191
 6163TIP3   OH240123   1.600   4.562   6.564  0.1967 -0.7769  0.6972
 6163TIP3    H140124   1.527   4.510   6.531 -0.1237  0.8340 -1.2662
 6163TIP3    H240125   1.678   4.523   6.523 -0.3007  2.1930 -3.8299
 6164TIP3   OH240126   6.413   2.332   2.645 -0.2853  0.0702 -0.1515
 6164TIP3    H140127   6.429   2.424   2.667 -0.4823 -0.5096  2.7323
 6164TIP3    H240128   6.497   2.301   2.610 -0.4846  1.5214 -2.0887
 6165TIP3   OH240129   2.984   1.146   7.716 -0.6679 -0.6852 -0.2847
 6165TIP3    H140130   3.072   1.147   7.678 -0.3205  0.1538  0.5137
 6165TIP3    H240131   2.970   1.235   7.747 -1.7520 -0.8484 -0.2737
 6166TIP3   OH240132   0.893   5.887   2.233  0.6573 -0.1972  0.3775
 6166TIP3    H140133   0.982   5.876   2.199  0.6686 -1.7208  0.8251
 6166TIP3    H240134   0.863   5.970   2.196  2.7095  0.9862  1.2165
 6167TIP3   OH240135   2.126   1.228   0.657  0.2867  0.4843 -1.6055
 6167TIP3    H140136   2.215   1.221   0.623  1.9127 -3.5376  2.4604
 6167TIP3    H240137   2.133   1.287   0.732 -1.0534  1.8313 -2.4943
 6168TIP3   OH240138   1.763   4.243   2.057 -0.5450 -0.5519  0.2003
 6168TIP3    H140139   1.743   4.306   2.126  0.0766 -0.2080  0.0760
 6168TIP3    H240140   1.857   4.254   2.041 -1.0455  0.9766 -2.2582
 6169TIP3   OH240141   0.167   5.188   2.337 -0.2277 -0.0118  0.3924
 6169TIP3    H140142   0.124   5.103   2.338 -0.7947  0.2781  1.0102
 6169TIP3    H240143   0.260   5.167   2.349 -0.5778 -0.4313  2.7547
 6170TIP3   OH240144   6.217   6.063   7.915  0.0761 -0.3605 -0.2713
 6170TIP3    H140145   6.225   6.017   7.998  0.8532 -0.9049 -0.6353
 6170TIP3    H240146   6.280   6.135   7.921  0.5847 -0.7692 -0.6205
 6171TIP3   OH240147   2.664   3.932   1.032  0.8387  0.2681  0.2529
 6171TIP3    H140148   2.691   3.973   1.115 -1.2216 -1.1662  1.7145
 6171TIP3    H240149   2.702   3.844   1.035  1.6306  0.5426 -0.8640
 6172TIP3   OH240150   3.895   1.461   1.843  0.0132  0.4191 -0.7816
 6172TIP3    H140151   3.886   1.517   1.765 -0.9265  0.3386 -0.7509
 6172TIP3    H240152   3.946   1.386   1.813  2.0152  1.6579 -0.6092
 6173TIP3   OH240153   2.580   4.079   7.185 -0.0668 -0.5233 -0.4541
 6173TIP3    H140154   2.578   3.996   7.137 -1.1085 -0.9199  0.2197
 6173TIP3    H240155   2.488   4.094   7.210  0.3560 -0.0180  0.8679
 6174TIP3   OH240156   6.362   6.896   0.802  0.1827  0.8046 -0.2120
 6174TIP3    H140157   6.271   6.883   0.829  0.1644  1.6416  0.1743
 6174TIP3    H240158   6.356   6.922   0.710  0.0556  0.5743 -0.2700
 6175TIP3   OH240159   6.065   5.537   0.949  0.0053 -0.3741 -0.8095
 6175TIP3    H140160   6.148   5.546   0.998 -0.8017  3.1613  0.2391
 6175TIP3    H240161   6.082   5.581   0.866 -1.2072  2.1131  0.1525
 6176TIP3   OH240162   0.789   6.028   0.785 -0.2340  0.1551 -0.2384
 6176TIP3    H140163   0.712   5.989   0.743 -1.0247  0.8989  0.4754
 6176TIP3    H240164   0.752   6.091   0.847  0.9305 -0.1936  0.8369
 6177TIP3   OH240165   0.802   2.876   1.676 -0.2608  0.6481  0.1859
 6177TIP3    H140166   0.760   2.818   1.612  0.3834  0.5201 -0.1283
 6177TIP3    H240167   0.851   2.939   1.622  0.5610  0.3348  0.5589
 6178TIP3   OH240168   4.404   6.591   0.054 -0.4309 -0.1957  0.2417
 6178TIP3    H140169   4.372   6.637  -0.024 -0.3800 -1.0690 -0.3025
 6178TIP3    H240170   4.362   6.637   0.127  0.1039  1.1085 -0.2393
 6179TIP3   OH240171   6.642   4.566   1.834  0.0750  0.8842 -0.4831
 6179TIP3    H140172   6.731   4.580   1.803  0.4277 -0.6348 -0.2060
 6179TIP3    H240173   6.636   4.616   1.915  1.1395 -0.1185  0.2412
 6180TIP3   OH240174   5.359   2.211   0.013  0.3907 -0.4051 -0.2933
 6180TIP3    H140175   5.424   2.242  -0.051  1.2483 -0.3975  0.5659
 6180TIP3    H240176   5.316   2.291   0.045 -1.3090 -0.5005 -2.1182
 6181TIP3   OH240177   7.071   4.063   2.002  0.3437 -0.1841  0.3244
 6181TIP3    H140178   7.060   3.993   1.939  2.0610  0.4366 -0.7331
 6181TIP3    H240179   7.139   4.031   2.062  2.2247  1.0575 -1.0274
 6182TIP3   OH240180   2.717   1.354   7.347 -0.0958  0.1499 -0.1567
 6182TIP3    H140181   2.658   1.424   7.318  0.7091  1.5414  1.3794
 6182TIP3    H240182   2.681   1.326   7.431 -0.1272 -0.9815 -0.5266
 6183TIP3   OH240183   6.679   2.203   0.109  0.0539  0.6940 -0.4225
 6183TIP3    H140184   6.729   2.284   0.120  2.1960 -0.3704 -1.6112
 6183TIP3    H240185   6.669   2.168   0.198  1.0415  1.1760 -0.1076
 6184TIP3   OH240186   3.174   3.187   7.876 -0.3943  0.1923 -0.4570
 6184TIP3    H140187   3.138   3.099   7.865  0.5236 -0.4283  1.1072
 6184TIP3    H240188   3.181   3.221   7.788 -0.3584 -1.4759 -1.1381
 6185TIP3   OH240189   3.859   6.138   8.040 -0.0435  0.3054 -0.0040
 6185TIP3    H140190   3.768   6.167   8.036 -0.0323  0.2491 -2.8604
 6185TIP3    H240191   3.909   6.217   8.058 -0.4859  0.9093 -1.3240
 6186TIP3   OH240192   6.321   1.689   2.178 -0.7382  0.0942  0.6260
 6186TIP3    H140193   6.317   1.704   2.083 -0.3199 -1.0941  0.4038
 6186TIP3    H240194   6.231   1.675   2.204 -0.9863  1.4901  0.6085
 6187TIP3   OH240195   5.024   4.933   0.326  0.2340  0.3660 -0.2423
 6187TIP3    H140196   5.086   4.936   0.253  2.0059  0.6363  1.2062
 6187TIP3    H240197   5.010   4.840   0.342  0.0785  0.3056 -0.6984
 6188TIP3   OH240198   5.878   1.373   1.971  0.3170  0.6260  0.0494
 6188TIP3    H140199   5.810   1.373   1.903  1.4503  0.5525 -1.1293
 6188TIP3    H240200   5.897   1.466   1.985  0.2228  0.6348  0.1186
 6189TIP3   OH240201   0.023   6.057   0.693 -0.2199 -0.0563  0.0034
 6189TIP3    H140202  -0.050   6.038   0.752 -0.7437  0.3182 -0.5155
 6189TIP3    H240203   0.015   5.991   0.624 -0.8678  0.8054 -0.7583
 6190TIP3   OH240204   2.521   3.616   0.399 -0.5442 -0.0986  0.2247
 6190TIP3    H140205   2.607   3.575   0.392 -0.5900 -0.1919  0.2103
 6190TIP3    H240206   2.527   3.695   0.346 -0.6352 -0.3765 -0.2046
 6191TIP3   OH240207   3.279   3.979   0.608 -0.3309  0.0804  0.2186
 6191TIP3    H140208   3.233   4.058   0.580  1.1967  1.5838  1.7534
 6191TIP3    H240209   3.292   3.929   0.527 -1.4502  1.3133 -0.7641
 6192TIP3   OH240210   0.781   2.118   8.113  0.7606 -0.0187  0.0059
 6192TIP3    H140211   0.753   2.091   8.025 -0.7507  0.2758  0.3754
 6192TIP3    H240212   0.812   2.208   8.102  2.2868 -0.5884 -0.5403
 6193TIP3   OH240213   4.896   1.561   0.073  0.0017  0.2280  0.1722
 6193TIP3    H140214   4.832   1.505   0.118 -2.2252  2.5983  0.2418
 6193TIP3    H240215   4.886   1.646   0.116  1.6324  1.2472 -1.3456
 6194TIP3   OH240216   4.692   5.624   2.004 -0.2899 -0.1331 -0.3970
 6194TIP3    H140217   4.745   5.561   1.956  0.1265  0.1489 -0.3155
 6194TIP3    H240218   4.720   5.709   1.970 -0.0297  0.0653  0.3023
 6195TIP3   OH240219   1.949   2.324   0.746 -0.3642 -0.1525 -0.2176
 6195TIP3    H140220   1.941   2.336   0.651 -0.3850 -0.3049 -0.2350
 6195TIP3    H240221   1.972   2.232   0.757  1.2226  0.2264 -0.1663
 6196TIP3   OH240222   3.927   3.907   1.023 -0.0462  0.2318  0.0970
 6196TIP3    H140223   3.852   3.967   1.028  0.7297  1.1381  1.3012
 6196TIP3    H240224   3.963   3.921   0.935 -2.7513 -2.1120 -1.5570
 6197TIP3   OH240225   6.441   6.141   0.096  0.0898 -0.2625  0.1943
 6197TIP3    H140226   6.366   6.105   0.143 -0.2348  1.2725  0.9221
 6197TIP3    H240227   6.489   6.064   0.065 -0.8880 -1.2934  1.1359
 6198TIP3   OH240228   6.650   2.526   7.682 -0.4668 -0.0063 -0.0398
 6198TIP3    H140229   6.716   2.594   7.672  0.3735 -0.7557  0.2311
 6198TIP3    H240230   6.665   2.467   7.608 -1.0388 -0.0109 -0.1545
 6199TIP3   OH240231   0.344   4.586   6.285 -0.0416 -0.3946 -0.4666
 6199TIP3    H140232   0.346   4.501   6.330  2.2113 -0.3217 -0.3154
 6199TIP3    H240233   0.291   4.642   6.342 -2.0156 -1.7846 -0.8298
 6200TIP3   OH240234   1.864   6.100   6.576 -0.3694  0.2836 -0.4623
 6200TIP3    H140235   1.835   6.044   6.649 -1.1478 -1.3212 -1.9349
 6200TIP3    H240236   1.891   6.038   6.508 -2.8722  1.6298 -2.8459
 6201TIP3   OH240237   5.491   6.475   7.316  0.5233  0.0661  0.5473
 6201TIP3    H140238   5.473   6.395   7.365  1.3661  0.2579  1.1906
 6201TIP3    H240239   5.585   6.489   7.325  0.3705  1.2189  0.6096
 6202TIP3   OH240240   3.438   2.991   2.015 -0.3860  0.6528 -0.3895
 6202TIP3    H140241   3.410   3.081   2.028 -1.2016  0.5415 -1.2508
 6202TIP3    H240242   3.372   2.938   2.059 -0.9093  0.4244 -1.4241
 6203TIP3   OH240243   4.661   6.434   2.535 -0.8581 -0.1518 -0.9093
 6203TIP3    H140244   4.634   6.494   2.604  3.4250  1.4165 -0.2755
 6203TIP3    H240245   4.658   6.486   2.455 -1.6240 -0.6016 -1.1800
 6204TIP3   OH240246   2.006   6.577   1.199 -0.0072  0.1668  0.3358
 6204TIP3    H140247   2.090   6.534   1.185  0.0483  0.0943  0.8398
 6204TIP3    H240248   1.944   6.529   1.144  0.4040  0.6752 -0.5890
 6205TIP3   OH240249   5.348   5.595   1.679  0.8236  0.4005  0.2044
 6205TIP3    H140250   5.386   5.544   1.750 -1.3692 -0.9008  0.5048
 6205TIP3    H240251   5.383   5.684   1.692  1.2429 -0.0354  2.2867
 6206TIP3   OH240252   0.985   6.569   0.915  0.0005 -0.5273 -0.4912
 6206TIP3    H140253   0.989   6.664   0.907  3.1601 -0.4953  0.2637
 6206TIP3    H240254   1.003   6.537   0.827  1.5400 -0.3571 -0.2690
 6207TIP3   OH240255   1.669   1.867   2.009 -0.0518 -0.4537 -0.0592
 6207TIP3    H140256   1.668   1.798   2.076 -2.0818 -2.7730 -2.2693
 6207TIP3    H240257   1.587   1.853   1.960 -0.9841  4.0758 -0.1863
 6208TIP3   OH240258   5.975   6.054   7.239  0.0588 -0.1913  0.2947
 6208TIP3    H140259   5.979   6.143   7.273 -0.2718 -0.8066  2.0333
 6208TIP3    H240260   5.886   6.045   7.204  0.1793  0.2352 -0.1226
 6209TIP3   OH240261   6.267   5.961   0.938  0.0270  0.2109  0.0930
 6209TIP3    H140262   6.182   5.922   0.955 -0.1955 -0.2828 -1.8283
 6209TIP3    H240263   6.273   5.963   0.842  2.6971 -0.9152  0.1589
 6210TIP3   OH240264   1.071   1.112   7.354 -0.0833 -0.0582 -0.0780
 6210TIP3    H140265   0.979   1.119   7.379 -0.1335 -0.8903 -0.0020
 6210TIP3    H240266   1.074   1.036   7.295  0.4714  0.2685 -0.4867
 6211TIP3   OH240267   4.800   4.032   0.173 -0.0403 -0.0650 -0.0803
 6211TIP3    H140268   4.817   4.099   0.240 -0.1184  1.0066 -1.0933
 6211TIP3    H240269   4.819   4.076   0.090 -2.5270 -0.4803 -0.9608
 6212TIP3   OH240270   6.327   4.733   0.227  0.4553  0.5488  0.5477
 6212TIP3    H140271   6.359   4.814   0.187  0.7785  1.0254  1.7133
 6212TIP3    H240272   6.372   4.664   0.179 -1.4695  0.9046 -1.9387
 6213TIP3   OH240273   4.875   3.434   1.075 -0.4275  0.2291 -0.4158
 6213TIP3    H140274   4.877   3.370   1.004 -0.5864 -0.4763  0.2105
 6213TIP3    H240275   4.890   3.383   1.154  1.2084  1.1778 -0.0520
 6214TIP3   OH240276   1.797   2.425   1.754  0.2318  0.3696 -0.2438
 6214TIP3    H140277   1.857   2.468   1.814  1.0661  1.1105 -1.5600
 6214TIP3    H240278   1.754   2.496   1.707 -2.3198 -0.0896  1.1666
 6215TIP3   OH240279   0.427   4.023   7.276 -0.3188 -0.1070  0.1951
 6215TIP3    H140280   0.432   4.116   7.255 -1.1924  0.3788  1.9560
 6215TIP3    H240281   0.366   3.987   7.213  1.2150  0.1478 -1.5207
 6216TIP3   OH240282   1.042   3.404   1.676 -0.5674  0.3931  0.0284
 6216TIP3    H140283   1.065   3.311   1.675  0.4839  0.6373 -0.8916
 6216TIP3    H240284   0.986   3.414   1.753  1.6967 -0.4568  1.9441
 6217TIP3   OH240285   6.654   0.179   7.587  0.1454  0.0344 -0.2984
 6217TIP3    H140286   6.659   0.225   7.671  2.4493 -0.2242 -0.2405
 6217TIP3    H240287   6.725   0.115   7.590 -0.9136 -1.2650 -1.7173
 6218TIP3   OH240288   1.766   6.221   7.236 -0.2704 -0.2966  0.0192
 6218TIP3    H140289   1.815   6.232   7.155  1.6634  0.1837  1.1828
 6218TIP3    H240290   1.759   6.126   7.247 -0.0656 -0.3634 -0.4186
 6219TIP3   OH240291   4.700   2.559   1.038 -0.1252  0.1213  0.1776
 6219TIP3    H140292   4.703   2.510   0.955 -1.1882  0.5549 -0.1335
 6219TIP3    H240293   4.698   2.651   1.011 -3.2754  0.2610  0.5091
 6220TIP3   OH240294   3.244   6.511   1.877  0.0153 -0.0917 -0.0015
 6220TIP3    H140295   3.172   6.530   1.816  0.0632 -0.2420 -0.1040
 6220TIP3    H240296   3.266   6.597   1.915 -1.7532 -0.3411  1.7709
 6221TIP3   OH240297   1.329   7.081   5.608  0.3770  0.1278 -0.1549
 6221TIP3    H140298   1.413   7.102   5.649  0.9484  0.0063 -1.2089
 6221TIP3    H240299   1.320   6.986   5.619  0.3374  0.1547  0.0394
 6222TIP3   OH240300   5.749   1.171   0.392  0.4516  0.1757  0.1169
 6222TIP3    H140301   5.740   1.076   0.404  0.4442 -0.2966 -2.9155
 6222TIP3    H240302   5.835   1.191   0.429  1.0069 -1.2622 -0.3268
 6223TIP3   OH240303   0.704   0.548   1.630 -0.7694  0.1188 -0.0197
 6223TIP3    H140304   0.647   0.584   1.698 -1.3090 -0.3765 -0.1922
 6223TIP3    H240305   0.686   0.602   1.553 -1.6719 -0.5602 -0.3132
 6224TIP3   OH240306   4.965   6.817   0.869  0.3340 -0.1416 -0.6537
 6224TIP3    H140307   4.902   6.775   0.927  0.8534 -0.5654 -0.3850
 6224TIP3    H240308   5.020   6.745   0.838 -0.8761 -0.1794 -2.8996
 6225TIP3   OH240309   4.366   5.906   7.898 -0.0075 -0.0444 -0.4182
 6225TIP3    H140310   4.455   5.925   7.925  0.7421 -1.9655 -1.2900
 6225TIP3    H240311   4.346   5.970   7.830  0.4615  0.7850  0.2193
 6226TIP3   OH240312   5.011   6.476   6.432  0.4089  0.0196 -0.3331
 6226TIP3    H140313   5.012   6.541   6.501 -1.7375 -0.4029  0.1673
 6226TIP3    H240314   4.985   6.524   6.353 -0.3488 -0.0413 -0.1347
 6227TIP3   OH240315   4.301   5.465   0.633  0.1818 -0.1423 -0.1188
 6227TIP3    H140316   4.257   5.512   0.563  0.3867 -1.3173 -1.0763
 6227TIP3    H240317   4.272   5.508   0.714  0.1575  1.4163 -0.9266
 6228TIP3   OH240318   6.995   1.154   1.978  0.1929  0.5480 -0.1225
 6228TIP3    H140319   7.012   1.202   2.059 -2.1078 -1.2821  1.5580
 6228TIP3    H240320   6.907   1.181   1.952  0.3020 -0.0583 -1.1770
 6229TIP3   OH240321   0.197   6.477   0.983 -1.2480  0.7650  0.3853
 6229TIP3    H140322   0.177   6.385   1.003 -0.8178  0.5606 -0.0964
 6229TIP3    H240323   0.126   6.527   1.023 -0.9149  0.2987  1.6154
 6230TIP3   OH240324   2.395   6.335   0.364 -0.2747  0.1094 -0.4503
 6230TIP3    H140325   2.440   6.408   0.321 -1.3819  0.8699 -0.3703
 6230TIP3    H240326   2.324   6.377   0.414 -0.7577 -1.0009 -0.1766
 6231TIP3   OH240327   4.913   4.720   7.600  0.4128 -0.7500 -0.3134
 6231TIP3    H140328   4.994   4.749   7.559  0.5867 -0.4316  0.2369
 6231TIP3    H240329   4.895   4.635   7.560  1.2607 -1.0319 -0.1288
 6232TIP3   OH240330   5.690   2.237   0.137  0.3073  0.1483 -0.0684
 6232TIP3    H140331   5.638   2.311   0.169  0.8467  0.2531  0.5925
 6232TIP3    H240332   5.727   2.198   0.216  1.6915  0.4198 -0.5494
 6233TIP3   OH240333   0.182   2.495   2.444 -0.1523  0.0235  0.0431
 6233TIP3    H140334   0.175   2.460   2.355 -0.4057  0.5076 -0.1323
 6233TIP3    H240335   0.267   2.538   2.447  0.2172 -0.7045  0.3000
 6234TIP3   OH240336   2.329   3.274   0.280 -0.0964  0.2604  0.1140
 6234TIP3    H140337   2.310   3.322   0.199 -0.6753  0.0656  0.1231
 6234TIP3    H240338   2.341   3.183   0.251 -2.5139 -0.2476  0.4416
 6235TIP3   OH240339   5.389   1.160   0.092 -0.1330 -0.4039 -0.5650
 6235TIP3    H140340   5.472   1.116   0.112 -0.6371 -1.3365 -0.4862
 6235TIP3    H240341   5.388   1.236   0.150  0.3770 -0.7391 -0.1023
 6236TIP3   OH240342   2.961   1.506   1.974  0.0735  0.2732  0.2553
 6236TIP3    H140343   3.047   1.510   1.933  0.3825 -1.3788  0.6805
 6236TIP3    H240344   2.974   1.449   2.050 -1.4069 -0.0064  0.3136
 6237TIP3   OH240345   2.578   1.277   0.131 -0.1302 -0.1928  0.6033
 6237TIP3    H140346   2.603   1.365   0.158  1.1600 -0.7724  1.4265
 6237TIP3    H240347   2.495   1.260   0.176  0.3327  0.0883  1.5932
 6238TIP3   OH240348   2.019   5.183   1.483 -0.0417  0.4460 -0.7651
 6238TIP3    H140349   2.003   5.147   1.571 -4.0761  0.4997 -1.2475
 6238TIP3    H240350   2.083   5.253   1.497 -0.3806  0.3223  2.1136
 6239TIP3   OH240351   5.960   2.870   2.285 -0.2953  0.6344 -0.1526
 6239TIP3    H140352   5.893   2.936   2.268  1.2806  2.9679  2.0214
 6239TIP3    H240353   5.996   2.892   2.371  1.8260 -1.7736 -0.2736
 6240TIP3   OH240354   4.840   4.156   6.832 -0.0899 -0.3769 -0.3424
 6240TIP3    H140355   4.882   4.144   6.747 -1.1308  0.3121 -0.9849
 6240TIP3    H240356   4.899   4.214   6.881 -1.3004  2.5970 -2.1056
 6241TIP3   OH240357   5.137   5.043   8.077  0.0549 -0.2073  0.1913
 6241TIP3    H140358   5.124   4.949   8.074 -1.5837 -0.0162  0.2345
 6241TIP3    H240359   5.080   5.077   8.008  0.0065  0.7944  0.7040
 6242TIP3   OH240360   0.451   5.002   0.005  0.0961 -0.6540 -0.3705
 6242TIP3    H140361   0.406   5.083   0.030 -0.0771 -0.2192 -1.9582
 6242TIP3    H240362   0.387   4.933   0.021  0.0277 -0.4212  0.4167
 6243TIP3   OH240363   2.507   4.116   7.549  0.2737  0.5160 -0.3574
 6243TIP3    H140364   2.601   4.132   7.545  0.0689  1.6618 -0.9248
 6243TIP3    H240365   2.473   4.182   7.609 -0.0382 -0.6387  0.7977
 6244TIP3   OH240366   4.989   5.145   0.063  0.2942  0.8697 -0.0713
 6244TIP3    H140367   5.004   5.139  -0.031 -1.3825 -0.4762 -0.2920
 6244TIP3    H240368   4.919   5.083   0.080  0.0758  1.6128  1.9671
 6245TIP3   OH240369   5.912   0.696   1.466 -0.3272 -0.1197 -0.8594
 6245TIP3    H140370   5.902   0.601   1.461 -0.3003 -0.1083 -1.1269
 6245TIP3    H240371   5.875   0.729   1.384 -0.0515  0.0787 -0.9076
 6246TIP3   OH240372   6.398   2.119   7.652  0.3336  0.3426 -0.2106
 6246TIP3    H140373   6.318   2.133   7.701 -0.4241 -0.3012 -1.2262
 6246TIP3    H240374   6.387   2.170   7.571  0.8049 -0.0077 -0.5052
 6247TIP3   OH240375   2.078   0.119   0.595 -0.4258 -0.4951 -0.5505
 6247TIP3    H140376   2.019   0.045   0.611 -1.4300  0.2222 -0.8135
 6247TIP3    H240377   2.129   0.127   0.675 -1.4098 -0.5031  0.0964
 6248TIP3   OH240378   5.612   5.517   6.376 -0.3563 -0.5613 -0.0181
 6248TIP3    H140379   5.698   5.558   6.376 -0.8260  0.4520 -0.5958
 6248TIP3    H240380   5.608   5.471   6.460  0.4104  0.0955  0.3947
 6249TIP3   OH240381   2.551   1.394   1.966 -0.2873  0.0454 -0.0402
 6249TIP3    H140382   2.594   1.342   2.034 -1.3389 -0.3281  0.3564
 6249TIP3    H240383   2.564   1.345   1.886 -1.7183 -1.1257  0.4132
 6250TIP3   OH240384   0.709   5.489   7.787  0.1708 -0.0162  0.6382
 6250TIP3    H140385   0.702   5.578   7.753  1.2670 -0.2918 -0.3753
 6250TIP3    H240386   0.637   5.442   7.746 -0.9699  0.5834  1.8764
 6251TIP3   OH240387   5.005   5.174   0.449  0.2971 -0.3164 -0.2130
 6251TIP3    H140388   4.921   5.180   0.494 -0.2302  0.8551 -1.2903
 6251TIP3    H240389   4.998   5.094   0.397 -0.5168  0.2026 -0.9408
 6252TIP3   OH240390   2.991   3.648   6.664 -0.0466 -0.5078  0.5674
 6252TIP3    H140391   2.955   3.721   6.714 -0.2114  0.1475 -0.4886
 6252TIP3    H240392   2.917   3.589   6.652 -0.3435 -0.0267 -0.0372
 6253TIP3   OH240393   1.500   4.647   2.007 -0.2423 -0.2290 -0.2027
 6253TIP3    H140394   1.500   4.558   1.970  1.4552 -0.3529  0.0199
 6253TIP3    H240395   1.462   4.701   1.938  1.4322 -0.6979 -1.5623
 6254TIP3   OH240396   5.728   6.566   1.885 -0.2493  0.0372 -0.0832
 6254TIP3    H140397   5.773   6.532   1.963 -1.8035 -0.8860  0.4616
 6254TIP3    H240398   5.680   6.643   1.917  0.6756  0.8344 -0.5868
 6255TIP3   OH240399   2.223   2.257   1.380 -0.2512  0.6677  0.0579
 6255TIP3    H140400   2.215   2.286   1.289 -0.5413  1.7422  0.4143
 6255TIP3    H240401   2.175   2.175   1.384 -1.0784  1.1146 -0.5417
 6256TIP3   OH240402   4.704   5.794   0.323 -0.4232  0.3430  0.5764
 6256TIP3    H140403   4.726   5.864   0.261 -1.0468 -0.1306 -0.1951
 6256TIP3    H240404   4.611   5.778   0.309 -0.5258  0.0775  1.4997
 6257TIP3   OH240405   1.466   4.472   1.719 -0.2874  0.2182 -0.1466
 6257TIP3    H140406   1.543   4.447   1.668 -0.9511  0.2643 -1.1780
 6257TIP3    H240407   1.409   4.517   1.657 -1.3573 -0.2158  0.4951
 6258TIP3   OH240408   2.814   5.530   6.385  0.1854 -0.0649  0.6494
 6258TIP3    H140409   2.865   5.573   6.316  0.2132 -0.6725  0.2863
 6258TIP3    H240410   2.866   5.544   6.464  1.1283 -0.9802  0.2304
 6259TIP3   OH240411   4.969   1.124   7.565 -0.0936  0.2160  0.1829
 6259TIP3    H140412   4.968   1.154   7.474  0.2076 -0.8424 -0.1871
 6259TIP3    H240413   5.038   1.176   7.606  0.1530  0.3140 -0.3419
 6260TIP3   OH240414   3.827   4.417   1.908 -0.1640  0.6451 -0.1833
 6260TIP3    H140415   3.774   4.348   1.949  0.6516 -0.1173 -0.3740
 6260TIP3    H240416   3.918   4.391   1.926  0.1599  1.7643 -0.1216
 6261TIP3   OH240417   6.186   5.952   8.156  0.4733  0.8633  0.0801
 6261TIP3    H140418   6.143   6.032   8.187 -1.9068  0.3219 -1.5342
 6261TIP3    H240419   6.173   5.889   8.227 -0.5094  1.0205  0.0535
 6262TIP3   OH240420   1.497   1.549   0.547  0.5592 -0.3054 -0.4332
 6262TIP3    H140421   1.444   1.508   0.479 -0.2995  0.8792 -0.5160
 6262TIP3    H240422   1.440   1.617   0.584  1.6054  0.1994  0.3039
 6263TIP3   OH240423   2.281   4.892   2.556  0.2393 -0.2760  0.4954
 6263TIP3    H140424   2.196   4.862   2.524  1.0043 -1.4896 -0.5172
 6263TIP3    H240425   2.300   4.838   2.632 -0.1786  0.4532  1.1275
 6264TIP3   OH240426   2.968   6.690   0.079 -0.8273 -0.0824  0.2937
 6264TIP3    H140427   2.971   6.764   0.139  0.7634  0.6536 -0.6176
 6264TIP3    H240428   2.943   6.616   0.133 -0.7814  0.8106  1.5814
 6265TIP3   OH240429   5.993   3.455   1.523 -0.4691  0.0437  0.5260
 6265TIP3    H140430   5.987   3.484   1.614  2.7008  1.1988  0.4909
 6265TIP3    H240431   5.972   3.533   1.471  1.2928  0.4552  0.3656
 6266TIP3   OH240432   6.304   1.300   2.524 -0.3373 -0.7795 -0.3185
 6266TIP3    H140433   6.225   1.307   2.577 -0.5012 -1.7566 -0.4243
 6266TIP3    H240434   6.348   1.385   2.536 -2.3178  0.5535 -1.7732
 6267TIP3   OH240435   0.493   6.472   1.853  0.0133  0.1324 -0.0954
 6267TIP3    H140436   0.468   6.535   1.921  0.1622 -1.2006  1.2398
 6267TIP3    H240437   0.422   6.408   1.851  0.2069 -0.0799 -0.9217
 6268TIP3   OH240438   4.889   3.328   1.533 -0.5908 -0.4544 -0.4119
 6268TIP3    H140439   4.963   3.333   1.594  0.3481  1.6414 -1.6347
 6268TIP3    H240440   4.884   3.235   1.510  0.0914 -1.0165  1.5538
 6269TIP3   OH240441   0.351   4.967   6.333 -0.0774  0.3792  0.2426
 6269TIP3    H140442   0.313   4.976   6.421 -0.0477 -0.9449  0.4171
 6269TIP3    H240443   0.284   5.003   6.274  0.3128  2.2004  0.8445
 6270TIP3   OH240444   6.072   7.025   7.146  0.3642 -0.0807 -0.0805
 6270TIP3    H140445   6.159   7.066   7.152 -0.3388  1.2236  1.8559
 6270TIP3    H240446   6.082   6.960   7.076  2.8773  0.0687  0.0440
 6271TIP3   OH240447   3.709   2.359   2.188  0.0728  0.1501  0.5327
 6271TIP3    H140448   3.655   2.350   2.267  2.2246  1.1686  2.2306
 6271TIP3    H240449   3.798   2.345   2.218  0.9257 -0.0468 -1.8904
 6272TIP3   OH240450   3.040   6.963   0.859 -0.3476 -0.1658  0.3793
 6272TIP3    H140451   3.047   6.930   0.949  0.3170 -3.2504 -0.6552
 6272TIP3    H240452   2.949   6.991   0.851 -0.4838 -0.0650  1.9304
 6273TIP3   OH240453   6.474   6.539   0.396  0.4908  0.1901  0.7594
 6273TIP3    H140454   6.393   6.579   0.428 -0.1678 -0.4018 -0.1057
 6273TIP3    H240455   6.446   6.454   0.360  1.2381  0.6071 -0.8998
 6274TIP3   OH240456   2.373   3.967   0.795  0.9473 -0.4441  0.1748
 6274TIP3    H140457   2.367   3.884   0.749 -0.0916 -0.0266 -0.4854
 6274TIP3    H240458   2.352   4.033   0.729  0.9287  0.2832  0.8814
 6275TIP3   OH240459   6.524   2.695   2.433 -0.6644 -0.4025  0.0028
 6275TIP3    H140460   6.517   2.682   2.528  0.0462 -1.3503 -0.0669
 6275TIP3    H240461   6.444   2.656   2.397 -1.1399  0.3376  0.2348
 6276TIP3   OH240462   0.029   1.183   1.519 -0.2039  0.5307 -0.4149
 6276TIP3    H140463   0.111   1.139   1.500 -0.8296 -0.3389 -1.2115
 6276TIP3    H240464   0.013   1.165   1.612  0.9886  1.5778  0.0213
 6277TIP3   OH240465   1.889   2.863   0.190  0.0264  0.5107 -0.3329
 6277TIP3    H140466   1.908   2.818   0.272 -1.7629 -0.0730 -0.1978
 6277TIP3    H240467   1.885   2.793   0.125  3.5998  1.1455 -1.4475
 6278TIP3   OH240468   4.934   3.695   2.953 -0.2247 -0.2821 -0.0257
 6278TIP3    H140469   4.870   3.625   2.943  2.3456 -2.8057 -0.1622
 6278TIP3    H240470   4.897   3.753   3.020 -2.5334 -1.6722 -0.0135
 6279TIP3   OH240471   5.154   2.159   6.784  0.0758  0.6590  0.0409
 6279TIP3    H140472   5.087   2.195   6.726  0.5393  0.1054 -0.8593
 6279TIP3    H240473   5.145   2.064   6.775  0.1786  0.5669  0.8541
 6280TIP3   OH240474   3.955   2.084   7.076  0.3716  0.3167 -0.7276
 6280TIP3    H140475   3.941   2.115   6.986  0.6196 -0.5530 -1.0737
 6280TIP3    H240476   3.933   1.991   7.073  0.1347  0.3334  0.1798
 6281TIP3   OH240477   6.618   5.132   7.869  0.2167 -1.3402 -0.0704
 6281TIP3    H140478   6.633   5.209   7.924  2.4815 -2.4613  1.0468
 6281TIP3    H240479   6.656   5.154   7.784 -1.3723 -0.3785 -0.5689
 6282TIP3   OH240480   4.082   1.587   0.072 -0.0186 -0.2740 -0.1300
 6282TIP3    H140481   4.173   1.595   0.043 -0.0938 -1.1281 -0.6477
 6282TIP3    H240482   4.079   1.634   0.155  0.4846  1.2461 -0.9331
 6283TIP3   OH240483   0.373   4.048   2.395  0.0184  0.1294  0.7214
 6283TIP3    H140484   0.406   3.964   2.427  1.1780  0.4108  0.3227
 6283TIP3    H240485   0.302   4.071   2.455 -1.8058 -2.1514 -0.3775
 6284TIP3   OH240486   6.437   4.946   7.956  0.0088  0.0584  0.0010
 6284TIP3    H140487   6.514   5.002   7.951 -0.9061  1.5933  1.8487
 6284TIP3    H240488   6.377   4.982   7.891  0.6841 -0.9627 -1.2362
 6285TIP3   OH240489   2.234   3.943   2.901  0.8362  0.2166 -0.3599
 6285TIP3    H140490   2.297   3.988   2.845  0.2716  1.3140 -0.1309
 6285TIP3    H240491   2.286   3.905   2.971  1.1540  2.1160  0.4918
 6286TIP3   OH240492   6.328   6.594   2.628 -0.0730  0.2998 -0.1186
 6286TIP3    H140493   6.373   6.674   2.599 -0.0141  0.4387  0.3522
 6286TIP3    H240494   6.388   6.523   2.606  0.4365  0.4940  0.6272
 6287TIP3   OH240495   5.163   5.056   7.251  0.6119 -0.2277  0.0368
 6287TIP3    H140496   5.222   5.063   7.176  1.8699  0.3542  1.0649
 6287TIP3    H240497   5.219   5.031   7.325 -0.1327  1.8033  1.3640
 6288TIP3   OH240498   0.465   5.548   1.537  0.3560 -0.1429  0.4169
 6288TIP3    H140499   0.390   5.592   1.576  0.6221  0.1820  0.5652
 6288TIP3    H240500   0.456   5.565   1.443 -0.1973 -0.7930  0.3411
 6289TIP3   OH240501   0.085   6.525   0.061  0.2614  0.7312  0.6194
 6289TIP3    H140502   0.056   6.447   0.014 -2.2892  0.9245  1.6943
 6289TIP3    H240503   0.101   6.494   0.151  0.7837  1.1459  0.6707
 6290TIP3   OH240504   4.511   6.754   0.864 -0.2041  0.7753  0.3447
 6290TIP3    H140505   4.603   6.743   0.889 -0.9459  0.3780  3.3987
 6290TIP3    H240506   4.482   6.665   0.842 -0.0387  0.7879  0.0698
 6291TIP3   OH240507   4.961   6.371   7.339 -0.0869 -0.3690 -0.0089
 6291TIP3    H140508   5.057   6.368   7.338 -0.0515 -0.8827  1.6034
 6291TIP3    H240509   4.935   6.302   7.278  0.5492  0.0586 -0.7908
 6292TIP3   OH240510   0.121   0.781   2.394  0.5631  0.3321 -0.4535
 6292TIP3    H140511   0.096   0.729   2.318 -1.4060 -0.1367  0.4526
 6292TIP3    H240512   0.101   0.871   2.369  0.6631  0.2696 -0.7670
 6293TIP3   OH240513   3.486   5.038   0.099  0.1737 -0.0510  0.8591
 6293TIP3    H140514   3.440   4.983   0.035  0.4259  1.0808 -0.3346
 6293TIP3    H240515   3.420   5.098   0.131  0.4151  0.4478  0.4334
 6294TIP3   OH240516   6.684   6.408   0.807 -0.1467 -0.5342 -0.1755
 6294TIP3    H140517   6.617   6.344   0.783  0.5931 -1.1404 -0.6509
 6294TIP3    H240518   6.679   6.475   0.739  0.7231 -1.3339 -1.0518
 6295TIP3   OH240519   4.540   3.570   2.372  0.1300 -0.3260  0.0258
 6295TIP3    H140520   4.605   3.637   2.395 -1.2995  1.1922 -0.1422
 6295TIP3    H240521   4.506   3.540   2.456  0.6515 -0.7300  0.0971
 6296TIP3   OH240522   0.050   5.220   2.608  0.6481 -0.3480  0.1412
 6296TIP3    H140523   0.045   5.125   2.600  0.4338 -0.3704  0.5246
 6296TIP3    H240524   0.028   5.238   2.699  0.2883  0.0937 -0.0253
 6297TIP3   OH240525   0.293   2.971   7.532  0.1917  0.3004  0.0220
 6297TIP3    H140526   0.285   3.065   7.517 -0.4566  0.5943  1.8791
 6297TIP3    H240527   0.304   2.933   7.445  1.5054  2.1714 -0.6847
 6298TIP3   OH240528   1.576   6.953   5.805  0.6382  0.9355  0.3285
 6298TIP3    H140529   1.540   7.026   5.855 -1.6322  0.3098 -0.2720
 6298TIP3    H240530   1.505   6.889   5.801  2.2009 -0.8638 -0.0739
 6299TIP3   OH240531   6.050   3.025   1.562 -0.2552 -0.1886  0.4680
 6299TIP3    H140532   6.034   2.958   1.495  0.0235  2.0144 -1.9633
 6299TIP3    H240533   5.965   3.039   1.603 -0.4564 -1.5306  0.5541
 6300TIP3   OH240534   4.884   6.030   2.235  0.0554 -0.3675 -0.6977
 6300TIP3    H140535   4.954   5.967   2.220 -0.1692 -0.4664 -1.3702
 6300TIP3    H240536   4.859   6.060   2.147 -0.2344  0.2241 -0.4210
 6301TIP3   OH240537   1.355   2.977   7.242  0.0335 -0.1548 -0.5396
 6301TIP3    H140538   1.324   2.999   7.154  1.1965 -0.9787 -1.1750
 6301TIP3    H240539   1.293   2.911   7.273 -0.8194  0.6798 -0.4301
 6302TIP3   OH240540   5.752   0.317   2.396  0.1906  0.0648 -0.1036
 6302TIP3    H140541   5.772   0.371   2.320 -2.7597  0.5068 -0.6809
 6302TIP3    H240542   5.802   0.356   2.468  0.7847  1.4160 -1.2212
 6303TIP3   OH240543   5.616   0.608   0.892 -0.0852  0.3534  0.6485
 6303TIP3    H140544   5.659   0.694   0.889  1.0495 -0.1727  1.2193
 6303TIP3    H240545   5.523   0.627   0.877  0.4730  1.3767 -1.9823
 6304TIP3   OH240546   1.122   1.286   1.574 -0.4280 -0.8358 -0.3412
 6304TIP3    H140547   1.146   1.223   1.642 -0.9143 -0.6544  0.0050
 6304TIP3    H240548   1.198   1.288   1.515  1.6188  1.7138  2.1143
 6305TIP3   OH240549   6.808   2.543   0.352  0.4673 -0.5548 -0.8421
 6305TIP3    H140550   6.864   2.495   0.291  0.3167 -1.9505  0.0739
 6305TIP3    H240551   6.802   2.486   0.429  0.4028  1.0152  0.3702
 6306TIP3   OH240552   1.541   1.639   0.955  0.2075  0.1495 -0.0041
 6306TIP3    H140553   1.485   1.708   0.917  0.0693 -0.2520 -0.5401
 6306TIP3    H240554   1.562   1.671   1.042 -1.2979  0.0649  0.4085
 6307TIP3   OH240555   2.177   5.855   7.257 -0.3846  0.5028  0.4007
 6307TIP3    H140556   2.250   5.839   7.317 -0.4600  0.9766  0.6179
 6307TIP3    H240557   2.174   5.776   7.203  0.9632  0.9133 -0.3155
 6308TIP3   OH240558   5.601   5.516   0.515 -0.2656  0.1648  0.1563
 6308TIP3    H140559   5.638   5.604   0.516  2.2454 -0.7560  2.7007
 6308TIP3    H240560   5.676   5.459   0.500 -1.4213 -1.6451  0.9338
 6309TIP3   OH240561   0.639   2.509   1.217 -0.4647 -0.2714 -0.3559
 6309TIP3    H140562   0.725   2.478   1.246  0.3684  0.9082 -1.4389
 6309TIP3    H240563   0.600   2.548   1.296  0.6793  0.6010 -0.1941
 6310TIP3   OH240564   6.626   0.926   6.886  0.6001 -0.4673 -0.5626
 6310TIP3    H140565   6.613   0.831   6.886  0.4918 -0.4920  1.6175
 6310TIP3    H240566   6.639   0.948   6.794 -0.0338 -2.4975 -1.1900
 6311TIP3   OH240567   4.270   6.298   7.795  0.1607  0.3403  0.1184
 6311TIP3    H140568   4.269   6.301   7.891 -0.7979  0.2524  0.1283
 6311TIP3    H240569   4.357   6.267   7.772  0.7005  1.2359  0.9302
 6312TIP3   OH240570   3.394   5.704   7.065  0.3049  0.5446  0.3032
 6312TIP3    H140571   3.359   5.685   6.978 -1.8958  0.2831  1.1658
 6312TIP3    H240572   3.421   5.619   7.099 -0.8608  0.2886  0.6505
 6313TIP3   OH240573   3.201   1.917   0.233  0.1179 -0.0756 -0.0423
 6313TIP3    H140574   3.218   1.983   0.300  1.3275 -0.4667  0.0537
 6313TIP3    H240575   3.139   1.959   0.174  0.1026  0.7797  0.5570
 6314TIP3   OH240576   1.411   3.661   1.086  0.4529  0.1967  0.9866
 6314TIP3    H140577   1.340   3.643   1.025 -0.3484  2.0859  1.3141
 6314TIP3    H240578   1.391   3.608   1.163 -0.4465  0.4949  0.9620
 6315TIP3   OH240579   5.064   0.194   1.348  0.0995 -0.3386 -0.2003
 6315TIP3    H140580   4.980   0.150   1.364 -0.2263  0.4141  0.1987
 6315TIP3    H240581   5.064   0.213   1.254 -0.3376 -0.0213 -0.1375
 6316TIP3   OH240582   5.493   3.594   2.357  0.1497  0.8171  0.1107
 6316TIP3    H140583   5.473   3.675   2.404  0.3907  1.1960 -0.4230
 6316TIP3    H240584   5.486   3.525   2.423 -1.6906  1.0613  0.2371
 6317TIP3   OH240585   1.179   5.743   0.197 -0.1907  0.1314 -0.3086
 6317TIP3    H140586   1.141   5.824   0.229  0.6409  0.4828 -0.1860
 6317TIP3    H240587   1.149   5.736   0.106 -0.8431  0.2003 -0.1050
 6318TIP3   OH240588   1.416   0.645   0.301  0.4520  0.6152 -0.4737
 6318TIP3    H140589   1.424   0.560   0.257 -0.1494 -0.9744  2.2185
 6318TIP3    H240590   1.502   0.686   0.291  1.2292 -0.9795 -0.6221
 6319TIP3   OH240591   4.471   5.055   7.358  0.1534 -0.6149 -0.7907
 6319TIP3    H140592   4.453   5.114   7.285 -0.5285  0.2435  0.0482
 6319TIP3    H240593   4.411   4.981   7.345 -0.9266  0.1783 -0.3715
 6320TIP3   OH240594   5.054   3.614   2.060 -0.4816 -0.1698  0.0051
 6320TIP3    H140595   4.979   3.673   2.059 -2.7015 -2.6855  2.1175
 6320TIP3    H240596   5.036   3.554   2.133  1.7877 -3.1705 -1.6977
 6321TIP3   OH240597   5.462   4.950   1.505  0.0555  0.1635 -0.6591
 6321TIP3    H140598   5.501   4.962   1.592 -0.0349 -0.0197 -0.5928
 6321TIP3    H240599   5.523   4.892   1.459 -0.9869 -1.5207  0.0253
 6322TIP3   OH240600   3.194   1.521   1.422 -0.2928  0.4582  0.0132
 6322TIP3    H140601   3.273   1.506   1.371  1.5795  2.9142  1.8921
 6322TIP3    H240602   3.196   1.452   1.489  0.4708  0.6934  0.2465
 6323TIP3   OH240603   4.078   6.751   7.172  0.0089  0.5848  0.0439
 6323TIP3    H140604   4.138   6.821   7.147  0.7065 -0.1404 -0.3529
 6323TIP3    H240605   4.093   6.683   7.107  1.5435 -1.2033  2.1293
 6324TIP3   OH240606   3.793   0.722   6.630  0.1693  0.0392 -0.3390
 6324TIP3    H140607   3.885   0.737   6.607  0.5035 -0.0819  0.8359
 6324TIP3    H240608   3.790   0.734   6.725 -1.1358  0.5595 -0.4181
 6325TIP3   OH240609   0.415   2.219   8.110  0.0829  0.3354  0.1149
 6325TIP3    H140610   0.410   2.293   8.171 -0.1357  0.8654 -0.5250
 6325TIP3    H240611   0.452   2.257   8.031 -0.8749 -0.0323 -0.5308
 6326TIP3   OH240612   4.887   5.582   2.771  0.0911  0.0439 -0.4864
 6326TIP3    H140613   4.971   5.621   2.796 -0.1904 -0.5957  1.7252
 6326TIP3    H240614   4.894   5.566   2.677  1.7416  1.6504 -0.6846
 6327TIP3   OH240615   6.668   1.308   7.910  0.0356  0.4659 -0.2797
 6327TIP3    H140616   6.640   1.216   7.913  0.0778  0.2992 -2.7282
 6327TIP3    H240617   6.592   1.358   7.939 -0.8610 -0.2513 -1.3246
 6328TIP3   OH240618   6.066   1.422   2.703  0.2144 -0.3437 -0.3120
 6328TIP3    H140619   6.138   1.393   2.759  0.9372  1.0795 -0.4444
 6328TIP3    H240620   6.030   1.498   2.749 -1.4693 -1.2512 -0.0648
 6329TIP3   OH240621   0.553   4.723   8.097  0.2426  0.5148  0.4090
 6329TIP3    H140622   0.518   4.772   8.171  1.2819  1.0471  0.5665
 6329TIP3    H240623   0.646   4.746   8.094  0.6680 -1.0819  0.1984
 6330TIP3   OH240624   4.734   6.983   1.175 -0.3397 -0.1850 -0.1932
 6330TIP3    H140625   4.657   6.978   1.118  0.1799 -2.0285 -0.8045
 6330TIP3    H240626   4.734   6.900   1.223  0.2621  0.5712  1.1735
 6331TIP3   OH240627   5.422   5.409   1.869  0.1032  0.1404  0.0458
 6331TIP3    H140628   5.481   5.401   1.794  0.2645 -1.9075  0.3263
 6331TIP3    H240629   5.479   5.428   1.943 -0.0318  1.9291 -0.2663
 6332TIP3   OH240630   1.702   1.732   0.436 -0.3635  0.2370 -0.7168
 6332TIP3    H140631   1.675   1.674   0.365 -0.9873 -2.3999  1.4733
 6332TIP3    H240632   1.637   1.717   0.505  1.1161  1.3859  1.0266
 6333TIP3   OH240633   5.526   6.120   0.324 -0.7806 -0.0481 -0.0964
 6333TIP3    H140634   5.432   6.130   0.342 -0.8534  1.4749 -1.1225
 6333TIP3    H240635   5.567   6.194   0.369 -0.1170 -0.4655 -0.0044
 6334TIP3   OH240636   0.936   0.120   7.692 -0.1983  0.0248  0.0087
 6334TIP3    H140637   0.956   0.213   7.693  0.3408 -0.0839  0.8214
 6334TIP3    H240638   1.006   0.081   7.638 -1.1000  0.2075 -1.3485
 6335TIP3   OH240639   0.395   5.466   2.611 -0.2721 -0.4479 -0.6916
 6335TIP3    H140640   0.428   5.556   2.610 -0.4702 -0.3421  0.7090
 6335TIP3    H240641   0.459   5.416   2.560  1.4636 -0.0374  0.9795
 6336TIP3   OH240642   1.463   3.472   6.906 -0.0514 -0.7809 -0.1900
 6336TIP3    H140643   1.502   3.504   6.824  0.2703  3.6493  1.4425
 6336TIP3    H240644   1.510   3.391   6.924  2.2732 -0.1546 -2.6688
 6337TIP3   OH240645   4.050   3.141   7.717  0.2365  0.3963  0.0468
 6337TIP3    H140646   4.027   3.222   7.762  1.0897  0.5165  0.2909
 6337TIP3    H240647   4.123   3.106   7.768  0.0688 -0.3736 -0.2280
 6338TIP3   OH240648   4.277   0.738   1.393  0.5840 -0.1774 -0.5214
 6338TIP3    H140649   4.328   0.817   1.374  0.9773 -0.6034 -1.3148
 6338TIP3    H240650   4.304   0.676   1.326 -0.6566 -0.5752 -0.6748
 6339TIP3   OH240651   4.685   0.911   2.014  0.2620  0.0496 -0.0640
 6339TIP3    H140652   4.627   0.836   2.004  2.4644 -1.9358  1.0619
 6339TIP3    H240653   4.657   0.953   2.096 -0.2538 -0.2529 -0.0890
 6340TIP3   OH240654   6.268   3.489   7.061 -0.3979 -0.5534  0.2074
 6340TIP3    H140655   6.286   3.444   6.978 -1.4507  1.1170 -0.9991
 6340TIP3    H240656   6.354   3.514   7.094 -0.0116  0.9696 -1.7334
 6341TIP3   OH240657   5.409   3.015   1.734 -0.3947  0.3525  0.0533
 6341TIP3    H140658   5.493   3.010   1.781  0.1231 -2.1375 -0.9790
 6341TIP3    H240659   5.428   3.069   1.657  0.0699  0.4045  0.1990
 6342TIP3   OH240660   0.288   2.556   0.617 -0.2953  0.0773  0.2235
 6342TIP3    H140661   0.213   2.530   0.669 -0.9415  2.0513  0.3405
 6342TIP3    H240662   0.309   2.644   0.646  0.7497  0.3772 -1.2856
 6343TIP3   OH240663   1.222   3.118   0.381  0.1981  0.3908  0.4358
 6343TIP3    H140664   1.140   3.168   0.386  0.1483  0.3070  0.4709
 6343TIP3    H240665   1.194   3.026   0.390  0.3780  0.4169  1.3310
 6344TIP3   OH240666   2.384   6.260   6.274  0.1703  0.0140 -0.1489
 6344TIP3    H140667   2.342   6.340   6.304 -0.0021 -0.5852  1.3319
 6344TIP3    H240668   2.311   6.199   6.259  0.3297 -0.0388 -0.7301
 6345TIP3   OH240669   2.908   4.095   2.291  0.2933  0.4262  0.0989
 6345TIP3    H140670   2.882   4.186   2.279 -1.5808 -0.2762 -1.6338
 6345TIP3    H240671   2.993   4.088   2.248  0.7428  1.4448  0.7680
 6346TIP3   OH240672   5.977   6.459   2.393  0.4811  0.3867  0.4164
 6346TIP3    H140673   6.050   6.498   2.344  0.4066 -1.9291 -1.7464
 6346TIP3    H240674   6.015   6.381   2.435 -0.4760 -0.2294  0.1741
 6347TIP3   OH240675   3.792   4.545   1.019 -0.3551 -0.1040  0.2812
 6347TIP3    H140676   3.816   4.583   1.103 -1.8560  0.1203  0.6250
 6347TIP3    H240677   3.773   4.621   0.963 -0.5215 -0.2820  0.0931
 6348TIP3   OH240678   5.177   5.705   7.406 -0.2014 -0.5142 -0.1477
 6348TIP3    H140679   5.121   5.627   7.405 -0.7905 -0.1033 -0.1196
 6348TIP3    H240680   5.208   5.713   7.316  0.5951 -1.2904  0.0492
 6349TIP3   OH240681   4.790   0.635   1.783 -0.6454  0.0207 -0.2853
 6349TIP3    H140682   4.801   0.549   1.742 -0.0718  0.3433 -0.8208
 6349TIP3    H240683   4.700   0.635   1.815 -0.7261 -0.6845 -0.5002
 6350TIP3   OH240684   4.610   1.243   7.510  0.7603 -0.2492  0.0724
 6350TIP3    H140685   4.614   1.190   7.431 -1.2135 -0.3109 -0.0428
 6350TIP3    H240686   4.567   1.187   7.575 -1.7494  1.2216 -0.1694
 6351TIP3   OH240687   6.717   1.802   0.020 -0.2567 -0.4682  0.3312
 6351TIP3    H140688   6.720   1.714  -0.015  0.9442 -1.1359  1.9752
 6351TIP3    H240689   6.683   1.792   0.109  0.9338  0.5393  0.9457
 6352TIP3   OH240690   1.525   2.651   7.504 -0.0236  0.6063 -0.3110
 6352TIP3    H140691   1.440   2.622   7.537 -0.0014 -0.2768 -0.9866
 6352TIP3    H240692   1.576   2.668   7.583 -0.2683 -0.5534  0.1224
 6353TIP3   OH240693   0.645   0.584   7.106 -0.1854  0.1137 -0.3399
 6353TIP3    H140694   0.717   0.525   7.083 -0.2459 -0.0760 -0.0413
 6353TIP3    H240695   0.676   0.671   7.078  1.3595  0.4984  2.2663
 6354TIP3   OH240696   5.883   2.642   1.275  0.1475 -0.0178  0.6002
 6354TIP3    H140697   5.818   2.582   1.311 -2.1203  1.8471 -0.0705
 6354TIP3    H240698   5.961   2.588   1.260 -0.6643 -2.0232  2.9777
 6355TIP3   OH240699   4.790   2.905   8.203  0.3291 -0.7194 -0.0389
 6355TIP3    H140700   4.843   2.870   8.274  0.9398  2.3756  1.2190
 6355TIP3    H240701   4.716   2.845   8.196 -0.1964 -0.7880  3.8639
 6356TIP3   OH240702   5.179   5.335   0.797 -0.0871 -0.3947 -0.2226
 6356TIP3    H140703   5.179   5.401   0.728 -1.4670 -1.5058 -1.3445
 6356TIP3    H240704   5.087   5.326   0.822  0.3057 -0.4672  1.3511
 6357TIP3   OH240705   4.191   5.401   1.094  0.1663 -0.3449 -0.0986
 6357TIP3    H140706   4.162   5.315   1.062  0.5461 -0.6074  0.2489
 6357TIP3    H240707   4.263   5.381   1.154  0.4732  0.2411 -0.2689
 6358TIP3   OH240708   1.386   6.594   7.216  0.2610 -0.4473  0.3063
 6358TIP3    H140709   1.475   6.574   7.246  0.4526  1.6675  1.3211
 6358TIP3    H240710   1.372   6.685   7.242 -0.3376  0.9966 -4.2799
 6359TIP3   OH240711   0.231   5.628   1.672  0.6314  0.1467  0.0679
 6359TIP3    H140712   0.162   5.640   1.607  1.1530 -0.3866 -0.6087
 6359TIP3    H240713   0.193   5.570   1.738  0.8148 -1.1572 -0.9333
 6360TIP3   OH240714   4.534   3.128   0.779  0.1879 -0.4733 -0.2769
 6360TIP3    H140715   4.465   3.159   0.720  0.5884  1.3416  0.1483
 6360TIP3    H240716   4.487   3.081   0.848 -0.5807  0.2218 -0.3070
 6361TIP3   OH240717   6.326   1.815   0.096 -1.0926 -0.2152  0.4516
 6361TIP3    H140718   6.397   1.757   0.070  0.3605  1.6137  0.0764
 6361TIP3    H240719   6.323   1.810   0.191  1.4016  1.6210  0.7188
 6362TIP3   OH240720   1.797   5.140   0.443 -0.2390  0.2543  0.4477
 6362TIP3    H140721   1.753   5.224   0.456 -0.4599  0.1998  0.0604
 6362TIP3    H240722   1.732   5.075   0.469  0.6692  0.2272  2.9617
 6363TIP3   OH240723   6.145   5.776   1.535  0.2495  0.2659 -0.2491
 6363TIP3    H140724   6.091   5.759   1.612 -1.6463  0.8646 -1.3637
 6363TIP3    H240725   6.143   5.694   1.486  2.7732 -0.6450  1.0115
 6364TIP3   OH240726   4.569   2.055   1.964 -0.6731  0.0641 -0.3551
 6364TIP3    H140727   4.513   2.056   2.041  0.7750 -1.7313  0.7950
 6364TIP3    H240728   4.530   1.990   1.905 -0.0829 -0.8678  0.2581
 6365TIP3   OH240729   2.682   0.383   1.464  0.1186  0.7613  0.1318
 6365TIP3    H140730   2.660   0.402   1.373 -0.4954 -0.4465  0.0055
 6365TIP3    H240731   2.767   0.339   1.460 -0.9421 -1.4156 -0.1314
 6366TIP3   OH240732   3.964   2.276   1.015 -0.7842  0.3845  0.8513
 6366TIP3    H140733   3.973   2.279   0.920  1.8218 -3.4975  0.7787
 6366TIP3    H240734   4.014   2.352   1.046  0.9090  0.0273 -0.8352
 6367TIP3   OH240735   6.768   1.152   0.001  0.4729 -0.2155  0.6631
 6367TIP3    H140736   6.831   1.165   0.071  0.6861 -1.4619  0.7366
 6367TIP3    H240737   6.814   1.097  -0.063 -0.9841 -2.4716  1.4408
 6368TIP3   OH240738   1.696   1.280   1.887 -0.1442 -0.0737  0.0301
 6368TIP3    H140739   1.708   1.359   1.939  0.5194  0.5682 -1.0768
 6368TIP3    H240740   1.613   1.294   1.841  0.7783  0.7384 -1.4437
 6369TIP3   OH240741   6.568   5.077   2.257  0.1016 -0.5826 -0.8265
 6369TIP3    H140742   6.566   5.139   2.184 -2.4348  0.1035 -0.2730
 6369TIP3    H240743   6.551   5.131   2.334 -1.6859 -1.8747 -0.2721
 6370TIP3   OH240744   3.329   3.573   7.834 -0.5720  0.5477 -0.3748
 6370TIP3    H140745   3.362   3.485   7.819 -1.5719 -0.1838  1.5376
 6370TIP3    H240746   3.347   3.619   7.752  0.3897 -1.2819 -1.2397
 6371TIP3   OH240747   3.074   6.492   6.785 -0.1286 -0.6438 -0.7491
 6371TIP3    H140748   3.039   6.439   6.713  1.3528 -1.0716 -1.1960
 6371TIP3    H240749   3.026   6.575   6.780 -1.9537 -1.6451 -0.5087
 6372TIP3   OH240750   4.746   1.740   0.763  0.0229  0.1119 -0.4061
 6372TIP3    H140751   4.692   1.673   0.805 -1.4636 -0.0493 -2.4498
 6372TIP3    H240752   4.820   1.692   0.725  0.2229 -0.0133  0.1220
 6373TIP3   OH240753   6.161   6.587   2.236 -1.2364 -0.4016 -0.0181
 6373TIP3    H140754   6.111   6.651   2.187  0.0819  0.2338 -0.5746
 6373TIP3    H240755   6.195   6.526   2.170 -0.4806 -0.2577  0.2252
 6374TIP3   OH240756   6.036   0.953   6.976 -0.0046 -0.4812 -0.0803
 6374TIP3    H140757   5.956   0.952   7.029  1.1010 -0.6796  1.6550
 6374TIP3    H240758   6.024   1.028   6.917 -0.9043  0.3062  1.0491
 6375TIP3   OH240759   0.814   1.298   1.251  0.3524 -0.0657  0.3605
 6375TIP3    H140760   0.783   1.341   1.330 -2.6089 -0.2973 -0.5549
 6375TIP3    H240761   0.800   1.362   1.181 -2.2595 -1.6397 -0.7148
 6376TIP3   OH240762   1.292   4.252   2.146 -0.5015  0.0438  0.0381
 6376TIP3    H140763   1.347   4.300   2.084 -3.7424  0.8077 -2.5247
 6376TIP3    H240764   1.340   4.172   2.165  1.8002  1.0064 -1.3876
 6377TIP3   OH240765   2.864   5.424   1.187  0.4126 -0.1655 -0.5997
 6377TIP3    H140766   2.950   5.466   1.192  0.6627 -0.7658  3.9243
 6377TIP3    H240767   2.880   5.333   1.210 -1.1522 -1.1086 -2.8182
 6378TIP3   OH240768   0.120   4.567   2.648  0.3030  0.2612  0.4651
 6378TIP3    H140769   0.093   4.500   2.711  1.8316  0.7507  1.7295
 6378TIP3    H240770   0.083   4.648   2.683 -2.0330  0.0723 -1.3704
 6379TIP3   OH240771   1.825   5.393   7.999 -0.0119 -0.2710 -0.0704
 6379TIP3    H140772   1.874   5.396   7.917 -0.5822  0.7997 -0.3957
 6379TIP3    H240773   1.786   5.480   8.007 -0.4061 -0.5298  1.0706
 6380TIP3   OH240774   5.832   7.061   1.678  0.1305 -0.1299  0.4104
 6380TIP3    H140775   5.923   7.034   1.661 -0.2106 -0.1980 -1.5822
 6380TIP3    H240776   5.782   7.019   1.608 -1.3159  0.6459  0.9520
 6381TIP3   OH240777   4.842   5.813   1.880 -0.2962  0.2990 -0.8175
 6381TIP3    H140778   4.867   5.899   1.845 -1.0272  0.7786 -0.2025
 6381TIP3    H240779   4.925   5.772   1.904  0.0080  1.3787  0.0915
 6382TIP3   OH240780   0.862   4.934   0.965  0.2411 -0.1884  0.3617
 6382TIP3    H140781   0.929   4.887   0.915 -0.8877 -0.5708 -0.8635
 6382TIP3    H240782   0.912   4.989   1.026  1.6494 -0.7725 -0.2092
 6383TIP3   OH240783   5.946   3.754   7.967  0.2168  0.0223 -0.3566
 6383TIP3    H140784   5.871   3.704   7.934 -0.4251  1.1136 -0.5798
 6383TIP3    H240785   5.911   3.841   7.984  1.3592  0.4443 -0.1065
 6384TIP3   OH240786   6.948   3.605   0.285 -0.3012 -0.4151  0.0516
 6384TIP3    H140787   6.909   3.664   0.221  0.7962  1.1180  0.7282
 6384TIP3    H240788   6.876   3.580   0.342 -0.6674  0.9510  0.2265
 6385TIP3   OH240789   5.955   2.328   7.773 -0.3701 -0.0866  0.1919
 6385TIP3    H140790   5.866   2.360   7.790 -0.8783 -1.3327  0.0657
 6385TIP3    H240791   5.960   2.324   7.677 -0.9624 -1.9581  0.1941
 6386TIP3   OH240792   2.115   6.592   0.612 -0.3747 -0.2283 -0.0346
 6386TIP3    H140793   2.119   6.530   0.538 -1.0417  0.3763 -0.5850
 6386TIP3    H240794   2.023   6.592   0.638 -0.2518  0.0325  0.3951
 6387TIP3   OH240795   6.458   6.058   7.121  0.5594  0.1132 -0.0341
 6387TIP3    H140796   6.539   6.054   7.172  0.9569 -0.9182 -0.7053
 6387TIP3    H240797   6.403   6.121   7.167  1.0705 -0.4730  1.4246
 6388TIP3   OH240798   1.261   0.390   0.485 -0.2563 -0.1215  0.1216
 6388TIP3    H140799   1.250   0.307   0.438  1.2693 -0.2389 -0.0714
 6388TIP3    H240800   1.214   0.453   0.431 -2.9776 -1.1051  1.1857
 6389TIP3   OH240801   6.840   2.634   1.724 -0.9021 -0.4098  0.7841
 6389TIP3    H140802   6.800   2.583   1.653  1.3318 -0.5652 -0.4633
 6389TIP3    H240803   6.819   2.585   1.803 -3.1032 -0.4704  0.2217
 6390TIP3   OH240804   1.418   2.740   1.933 -0.2963 -0.2921 -0.1153
 6390TIP3    H140805   1.461   2.820   1.904 -0.2256  0.1607  1.1800
 6390TIP3    H240806   1.440   2.733   2.026 -0.6667 -1.5816 -0.1097
 6391TIP3   OH240807   2.125   3.307   0.428  0.2258 -0.5389  0.4143
 6391TIP3    H140808   2.198   3.295   0.367 -1.1998 -0.2042 -1.4430
 6391TIP3    H240809   2.077   3.383   0.394 -0.2459  0.1093  2.3890
 6392TIP3   OH240810   3.108   5.035   1.927 -0.2876 -0.6526  0.4166
 6392TIP3    H140811   3.068   5.104   1.981 -0.4934 -0.6001  0.2016
 6392TIP3    H240812   3.191   5.072   1.898 -0.9543  0.0163 -0.7349
 6393TIP3   OH240813   1.787   6.144   1.137  0.2170  0.5121  0.1695
 6393TIP3    H140814   1.713   6.099   1.097  1.7823 -1.2571 -0.9127
 6393TIP3    H240815   1.810   6.212   1.074 -0.7020  1.3230  0.6923
 6394TIP3   OH240816   5.123   5.687   7.736  0.3791  0.3355 -0.0967
 6394TIP3    H140817   5.202   5.675   7.789  0.4932  0.6755 -0.1840
 6394TIP3    H240818   5.154   5.685   7.646  0.2067 -0.0820 -0.1452
 6395TIP3   OH240819   6.772   0.783   0.995  0.2748 -0.7030  0.1808
 6395TIP3    H140820   6.729   0.751   0.916 -0.6412  2.0545 -0.5601
 6395TIP3    H240821   6.839   0.844   0.963 -0.1581  0.5076  1.4805
 6396TIP3   OH240822   7.057   5.467   0.618  0.4531  0.1046  0.1151
 6396TIP3    H140823   7.009   5.548   0.634 -3.2660 -1.8110 -0.2930
 6396TIP3    H240824   7.035   5.410   0.692  1.8473 -1.0071 -0.2717
 6397TIP3   OH240825   4.289   5.181   8.131 -0.1186  0.5030 -0.2356
 6397TIP3    H140826   4.376   5.214   8.151 -0.0093  0.8677 -1.2491
 6397TIP3    H240827   4.245   5.174   8.216  0.8255  0.5028  0.2572
 6398TIP3   OH240828   0.684   1.633   2.403 -0.0757 -0.6269  0.4706
 6398TIP3    H140829   0.735   1.703   2.363  0.3835 -2.0982 -1.6759
 6398TIP3    H240830   0.603   1.675   2.431  1.5422  1.4308  2.4629
 6399TIP3   OH240831   5.476   3.995   1.224  0.0644 -0.2436 -0.5283
 6399TIP3    H140832   5.400   3.940   1.203 -1.7524  1.8799  0.1360
 6399TIP3    H240833   5.515   3.954   1.301 -0.6980 -1.1067 -0.5846
 6400TIP3   OH240834   5.292   4.825   2.629  0.2312 -0.2350 -0.5598
 6400TIP3    H140835   5.232   4.810   2.702 -0.8081  1.0634 -1.0959
 6400TIP3    H240836   5.313   4.918   2.634 -1.2928  0.3276 -2.8972
 6401TIP3   OH240837   3.623   6.221   6.946  0.2166  0.4671  0.2078
 6401TIP3    H140838   3.529   6.208   6.932  0.0684 -0.5307  1.9375
 6401TIP3    H240839   3.649   6.280   6.875 -1.3336 -0.6599 -1.3923
 6402TIP3   OH240840   5.776   3.537   2.227  0.6435  0.3342 -0.0459
 6402TIP3    H140841   5.737   3.618   2.258  0.5162 -0.0844  0.9343
 6402TIP3    H240842   5.869   3.557   2.216  0.7276  0.4345  0.8354
 6403TIP3   OH240843   1.939   3.289   7.478  0.3974 -0.2604  0.1977
 6403TIP3    H140844   2.024   3.333   7.485  0.4178 -0.2721  0.0387
 6403TIP3    H240845   1.952   3.205   7.522 -0.1471  0.5814  2.0538
 6404TIP3   OH240846   1.469   4.240   7.385  0.2244  0.0785  0.0374
 6404TIP3    H140847   1.460   4.335   7.397  0.9861  0.2503 -0.6509
 6404TIP3    H240848   1.559   4.228   7.354  0.7740 -1.0717  1.9587
 6405TIP3   OH240849   0.230   5.101   7.731 -0.1381  0.5586  0.8762
 6405TIP3    H140850   0.188   5.033   7.783  0.4374 -0.1042  0.4879
 6405TIP3    H240851   0.292   5.142   7.791 -1.0836  1.3217  1.3551
 6406TIP3   OH240852   2.995   0.383   2.221 -0.0288  0.7026  0.2516
 6406TIP3    H140853   2.924   0.378   2.158  0.3133  1.2452 -0.1808
 6406TIP3    H240854   2.971   0.319   2.289 -0.9940  0.9829  0.1876
 6407TIP3   OH240855   3.372   1.990   1.074 -0.4966 -0.3851 -0.4766
 6407TIP3    H140856   3.315   2.066   1.079 -1.7148 -1.3503  2.6729
 6407TIP3    H240857   3.315   1.919   1.044 -0.0091 -0.6361 -0.8295
 6408TIP3   OH240858   7.021   4.588   2.458  0.1354 -0.2770  0.9299
 6408TIP3    H140859   7.064   4.554   2.536  1.4495  2.0240  1.3026
 6408TIP3    H240860   6.938   4.623   2.489 -0.2686 -1.1730  0.9002
 6409TIP3   OH240861   2.063   6.074   7.137 -0.2086 -0.5198  0.3766
 6409TIP3    H140862   1.984   6.021   7.131  0.3457 -1.3038 -0.2347
 6409TIP3    H240863   2.123   6.022   7.190  0.7863 -1.1128 -1.2560
 6410TIP3   OH240864   2.980   0.159   0.048 -0.0080  0.5708  0.4308
 6410TIP3    H140865   2.948   0.126  -0.036  0.3673 -0.7480  0.7819
 6410TIP3    H240866   2.916   0.128   0.112  1.0570 -0.6510  0.9331
 6411TIP3   OH240867   2.535   5.686   2.037  0.1369 -0.1393  0.1605
 6411TIP3    H140868   2.462   5.626   2.052 -0.3158  0.3444 -0.0773
 6411TIP3    H240869   2.578   5.651   1.959  1.8012 -1.9831  1.7960
 6412TIP3   OH240870   4.657   0.233   0.213 -0.3449 -0.1336 -0.9536
 6412TIP3    H140871   4.567   0.250   0.188 -0.5980 -2.0482 -1.4893
 6412TIP3    H240872   4.652   0.164   0.280  0.5357  2.4586  2.0576
 6413TIP3   OH240873   2.222   2.592   2.076 -0.4072  0.0610  0.2491
 6413TIP3    H140874   2.245   2.667   2.130 -0.6989  0.4463 -0.1553
 6413TIP3    H240875   2.304   2.544   2.066  0.1775  1.2296 -0.8926
 6414TIP3   OH240876   6.606   1.943   7.222  0.2923 -0.1109  0.1397
 6414TIP3    H140877   6.537   1.949   7.288 -1.0406 -0.6515 -1.1530
 6414TIP3    H240878   6.684   1.977   7.266 -0.2485 -1.5193  2.3545
 6415TIP3   OH240879   3.968   2.251   7.753 -0.1695 -0.2459 -0.1039
 6415TIP3    H140880   4.027   2.178   7.736 -0.2464  0.2969 -3.3406
 6415TIP3    H240881   3.885   2.210   7.776  0.2574 -1.1408 -0.1409
 6416TIP3   OH240882   2.082   0.915   7.051 -0.3560 -0.2758  0.2753
 6416TIP3    H140883   2.158   0.937   7.104 -0.5071  0.5130  0.1855
 6416TIP3    H240884   2.031   0.855   7.105 -0.5502  0.5794  1.0668
 6417TIP3   OH240885   6.015   2.022   2.344  0.5235 -0.1853 -0.2120
 6417TIP3    H140886   5.929   2.062   2.339  0.2624 -0.5607  0.9559
 6417TIP3    H240887   6.074   2.094   2.366  0.4128 -0.0460 -0.3666
 6418TIP3   OH240888   6.398   5.816   6.961  0.0377 -0.9731  0.0143
 6418TIP3    H140889   6.474   5.790   6.908 -0.0686  1.5645 -1.5546
 6418TIP3    H240890   6.427   5.895   7.006 -1.4808 -0.2793 -0.1798
 6419TIP3   OH240891   5.395   0.221   1.836 -0.0572 -1.1635  0.2241
 6419TIP3    H140892   5.330   0.175   1.782 -0.9655  1.8041 -1.4591
 6419TIP3    H240893   5.479   0.183   1.810 -0.7179 -1.6770 -1.2988
 6420TIP3   OH240894   3.627   3.976   0.510  0.5290  0.1470 -0.6808
 6420TIP3    H140895   3.591   3.950   0.425 -1.1014  2.9456 -0.9729
 6420TIP3    H240896   3.710   4.020   0.488  1.0490 -0.7804 -0.6132
 6421TIP3   OH240897   4.487   6.873   7.278  0.3957  0.3017  0.6436
 6421TIP3    H140898   4.497   6.865   7.373  1.0242 -1.9608  0.4311
 6421TIP3    H240899   4.539   6.801   7.242 -2.1163 -0.6795 -1.3081
 6422TIP3   OH240900   4.152   7.011   6.727  0.6085 -0.3592 -0.8092
 6422TIP3    H140901   4.156   6.923   6.689  2.0632 -1.1151  0.9073
 6422TIP3    H240902   4.241   7.046   6.716  0.6995 -0.0808  0.6181
 6423TIP3   OH240903   3.924   0.060   7.238  0.6184 -0.0799 -0.5067
 6423TIP3    H140904   3.852   0.095   7.185  1.9190  1.1854 -1.5244
 6423TIP3    H240905   3.884  -0.011   7.288 -1.1541  0.0470 -1.6272
 6424TIP3   OH240906   5.530   2.955   0.308 -0.5815  0.2016 -0.0385
 6424TIP3    H140907   5.621   2.969   0.336 -0.4348 -1.1689  0.2414
 6424TIP3    H240908   5.478   2.982   0.384 -0.2379 -2.2187  1.1465
 6425TIP3   OH240909   4.688   4.867   7.757  0.7443 -0.8404 -0.5130
 6425TIP3    H140910   4.619   4.926   7.787  0.8980 -0.4133 -0.9964
 6425TIP3    H240911   4.697   4.886   7.663  0.9377 -1.4822 -0.6321
 6426TIP3   OH240912   6.679   2.033   1.696  0.0032  0.2172  0.1979
 6426TIP3    H140913   6.606   1.993   1.649 -0.5400  2.0982 -0.6275
 6426TIP3    H240914   6.744   2.050   1.628  0.1292  0.9441  0.4955
 6427TIP3   OH240915   4.618   5.853   1.696 -0.0934  0.1732  0.0078
 6427TIP3    H140916   4.682   5.839   1.765  1.0193  0.6370 -0.8986
 6427TIP3    H240917   4.614   5.948   1.685 -1.0867  0.1668  0.1678
 6428TIP3   OH240918   7.014   4.800   2.670 -0.3820  0.2656 -0.1908
 6428TIP3    H140919   7.093   4.852   2.682  0.0705 -0.6314  0.8302
 6428TIP3    H240920   6.998   4.760   2.755 -0.8438 -1.0800 -0.8803
 6429TIP3   OH240921   5.350   4.681   1.918  0.2066 -0.2006 -0.5052
 6429TIP3    H140922   5.387   4.752   1.864  0.2611 -0.5527 -0.9363
 6429TIP3    H240923   5.420   4.661   1.981  0.7770 -0.8837 -1.3377
 6430TIP3   OH240924   3.789   5.117   0.724  0.0101 -0.2229 -0.0676
 6430TIP3    H140925   3.696   5.139   0.732  0.1161  0.4314 -0.5775
 6430TIP3    H240926   3.834   5.189   0.768  0.2704 -0.7106  0.4778
 6431TIP3   OH240927   0.034   4.697   1.977 -0.0092 -0.0611 -0.4012
 6431TIP3    H140928   0.024   4.637   2.052 -0.6473  0.3307 -0.1649
 6431TIP3    H240929  -0.047   4.748   1.976  0.1888  0.2529 -1.0889
 6432TIP3   OH240930   5.464   6.994   1.332  0.5721 -0.0865 -0.3765
 6432TIP3    H140931   5.426   7.081   1.348 -0.0050 -0.5505  0.9445
 6432TIP3    H240932   5.411   6.957   1.261 -0.5400 -0.1448  0.4469
 6433TIP3   OH240933   2.173   3.919   7.255  0.1084 -0.1030 -0.2441
 6433TIP3    H140934   2.089   3.932   7.300 -0.4535  0.1323 -1.3282
 6433TIP3    H240935   2.239   3.938   7.321 -0.6978  1.6838  0.0919
 6434TIP3   OH240936   4.139   4.514   7.699 -0.3297 -0.1013  0.3005
 6434TIP3    H140937   4.219   4.501   7.649  0.5262 -1.7646  1.9506
 6434TIP3    H240938   4.166   4.565   7.775 -0.9622 -0.0980  0.5299
 6435TIP3   OH240939   4.996   5.656   0.391  0.2246  0.0427  0.2123
 6435TIP3    H140940   4.904   5.631   0.402 -0.2982  2.2457  1.6708
 6435TIP3    H240941   5.031   5.592   0.330 -2.7513  0.1629 -1.8370
 6436TIP3   OH240942   3.486   1.810   1.611 -0.2213  0.3084 -0.0225
 6436TIP3    H140943   3.451   1.895   1.586  0.6085  1.4294  2.3684
 6436TIP3    H240944   3.428   1.779   1.680  0.1472 -0.5293 -0.0730
 6437TIP3   OH240945   1.054   2.782   6.826  0.5793 -0.2003 -0.3970
 6437TIP3    H140946   1.094   2.711   6.875  0.0432  0.2522  0.7408
 6437TIP3    H240947   1.128   2.829   6.787  0.9197 -1.5439 -1.4435
 6438TIP3   OH240948   1.918   2.223   1.994  0.1883  0.2371  0.6395
 6438TIP3    H140949   1.840   2.171   2.012  1.4485 -1.5460  1.3116
 6438TIP3    H240950   1.899   2.310   2.029 -1.4506 -0.1836  0.8307
 6439TIP3   OH240951   4.625   6.503   8.091 -0.7868 -0.0268  0.1729
 6439TIP3    H140952   4.548   6.555   8.114 -0.4671  1.4002 -1.6820
 6439TIP3    H240953   4.692   6.531   8.154 -0.4703  2.3287 -1.0659
 6440TIP3   OH240954   6.415   5.520   7.443  0.3302  0.0933 -0.1949
 6440TIP3    H140955   6.360   5.480   7.510 -1.0819  0.7933 -0.8825
 6440TIP3    H240956   6.481   5.569   7.491  0.0844 -0.4102  0.6675
 6441TIP3   OH240957   6.375   2.858   0.078 -0.0190 -0.1465  0.3421
 6441TIP3    H140958   6.324   2.938   0.065 -1.4546 -0.5230  3.0167
 6441TIP3    H240959   6.343   2.797   0.011  0.2612  1.0887 -0.9570
 6442TIP3   OH240960   2.530   2.963   7.598  0.2658 -0.1370  0.1639
 6442TIP3    H140961   2.562   2.989   7.511  1.9801 -0.5498  0.6374
 6442TIP3    H240962   2.440   2.933   7.582  0.8944 -1.2130 -1.6485
 6443TIP3   OH240963   5.177   5.239   1.137  0.1519  0.0187  0.3054
 6443TIP3    H140964   5.226   5.195   1.067  1.1498  1.5142  0.0217
 6443TIP3    H240965   5.193   5.185   1.214 -2.2240 -2.5417 -0.8380
 6444TIP3   OH240966   4.792   1.542   8.044 -0.6114 -0.4817 -0.1474
 6444TIP3    H140967   4.753   1.455   8.034 -0.7780 -0.3921 -0.2804
 6444TIP3    H240968   4.853   1.533   8.117  0.0895 -0.9675 -0.7828
 6445TIP3   OH240969   5.417   5.412   7.242  0.5035 -0.0603 -0.8741
 6445TIP3    H140970   5.481   5.406   7.313 -0.8080 -2.4839  0.2296
 6445TIP3    H240971   5.465   5.384   7.165  0.7025 -2.5473  0.0609
 6446TIP3   OH240972   1.621   6.074   1.609 -0.1381 -0.0674  0.1838
 6446TIP3    H140973   1.638   6.010   1.678 -4.0986 -1.3409  0.2120
 6446TIP3    H240974   1.644   6.027   1.528  1.3473  0.2263  0.4080
 6447TIP3   OH240975   5.267   3.749   1.972  0.5803 -0.2113  0.5743
 6447TIP3    H140976   5.193   3.703   2.011 -1.6581  2.0930 -0.6471
 6447TIP3    H240977   5.263   3.726   1.879  0.7940  0.6733  0.3387
 6448TIP3   OH240978   1.916   6.557   7.774  0.1293 -0.1099  0.0360
 6448TIP3    H140979   1.897   6.470   7.809  1.7699 -0.1854  0.8129
 6448TIP3    H240980   2.011   6.565   7.779  0.0160  1.7060 -0.0972
 6449TIP3   OH240981   4.639   1.896   7.818 -0.4764  0.1614  0.0759
 6449TIP3    H140982   4.720   1.929   7.780  0.0418  0.5117  1.4288
 6449TIP3    H240983   4.660   1.882   7.911 -1.1358 -2.3929 -0.0853
 6450TIP3   OH240984   6.575   5.651   1.211  0.0125 -0.0874  0.0041
 6450TIP3    H140985   6.669   5.662   1.196  0.4097 -1.2528  1.3403
 6450TIP3    H240986   6.567   5.564   1.250 -1.9067 -1.0065 -2.1923
 6451TIP3   OH240987   6.913   5.832   8.197  0.2703 -0.1027  0.3998
 6451TIP3    H140988   6.980   5.901   8.193  0.4370 -0.3122 -1.0952
 6451TIP3    H240989   6.931   5.777   8.121 -1.0151 -0.7241  0.5201
 6452TIP3   OH240990   2.519   0.080   5.787  0.0298 -0.3991 -0.2619
 6452TIP3    H140991   2.476   0.161   5.814  3.0579  0.7058  1.8637
 6452TIP3    H240992   2.463   0.010   5.821 -1.2562  0.8460  0.2754
 6453TIP3   OH240993   0.139   5.368   2.132  0.2169 -0.1989 -0.2605
 6453TIP3    H140994   0.163   5.288   2.179 -0.7824  0.2541  1.1140
 6453TIP3    H240995   0.063   5.401   2.181  1.4966  2.3601  0.1272
 6454TIP3   OH240996   3.520   6.888   6.947 -0.4495 -0.5559  0.7927
 6454TIP3    H140997   3.514   6.983   6.949  0.0717 -0.5299  2.5423
 6454TIP3    H240998   3.606   6.868   6.984 -0.0672 -1.7021 -0.5995
 6455TIP3   OH240999   5.528   6.726   0.377 -0.1380  0.4775  0.4133
 6455TIP3    H141000   5.503   6.772   0.456 -0.3326  1.1158 -0.0132
 6455TIP3    H241001   5.518   6.790   0.307 -2.1901 -0.6689 -0.4624
 6456TIP3   OH241002   0.454   0.138   1.446 -0.0478 -0.6173 -0.3602
 6456TIP3    H141003   0.448   0.056   1.396 -0.5498 -0.0639 -1.2334
 6456TIP3    H241004   0.365   0.172   1.446 -0.1847 -0.8759  1.4354
 6457TIP3   OH241005   6.366   5.279   6.446  0.0324 -0.3208 -0.1547
 6457TIP3    H141006   6.300   5.225   6.489 -0.4807  0.5493  0.1620
 6457TIP3    H241007   6.442   5.221   6.438 -0.3548 -0.9528  0.5814
 6458TIP3   OH241008   4.046   6.188   7.668 -0.4230  0.0017  0.6452
 6458TIP3    H141009   4.095   6.232   7.738 -1.6934  0.7740  1.0842
 6458TIP3    H241010   4.023   6.259   7.608 -0.8036 -0.3889  0.3308
 6459TIP3   OH241011   5.915   5.617   1.158  0.1597  0.1475 -0.1101
 6459TIP3    H141012   5.965   5.572   1.090 -0.4711  0.5647 -0.8787
 6459TIP3    H241013   5.824   5.615   1.126 -0.0587  0.8700  0.4332
 6460TIP3   OH241014   6.350   7.001   2.346  0.2268 -0.3103 -0.3246
 6460TIP3    H141015   6.443   7.022   2.345 -0.3164  3.1196  2.3895
 6460TIP3    H241016   6.344   6.923   2.401  1.4334  0.2720  0.6949
 6461TIP3   OH241017   2.094   0.284   7.870  0.8760 -0.0924  1.0648
 6461TIP3    H141018   2.101   0.350   7.939  1.9752 -0.5684  1.4247
 6461TIP3    H241019   2.000   0.277   7.853  0.6582  0.6564  1.8998
 6462TIP3   OH241020   6.437   6.622   2.335  0.1952 -0.3568  0.2147
 6462TIP3    H141021   6.457   6.567   2.410  0.5291 -0.4732  0.0445
 6462TIP3    H241022   6.342   6.615   2.324  0.1639 -0.4544  0.5325
 6463TIP3   OH241023   4.989   7.068   2.376  0.0959  0.1976 -0.3895
 6463TIP3    H141024   4.989   7.120   2.296 -3.2343  0.3509 -0.4337
 6463TIP3    H241025   5.007   6.978   2.346 -1.1947  0.2384 -1.3764
 6464TIP3   OH241026   6.731   7.016   7.408 -0.6162  0.4147  0.0435
 6464TIP3    H141027   6.656   7.058   7.449 -0.7015 -2.1229  2.7923
 6464TIP3    H241028   6.804   7.076   7.424 -1.4672  1.4627  0.0838
 6465TIP3   OH241029   4.752   2.284   0.584  0.2457 -0.3519  0.8913
 6465TIP3    H141030   4.715   2.199   0.610 -0.6613 -1.1170 -2.4385
 6465TIP3    H241031   4.832   2.262   0.536  0.8308  0.7996  1.3040
 6466TIP3   OH241032   5.455   2.662   7.616  0.3791 -0.0067 -0.6653
 6466TIP3    H141033   5.485   2.571   7.623  2.1740  0.6426  0.7791
 6466TIP3    H241034   5.527   2.708   7.573  0.6938  1.2350  1.0909
 6467TIP3   OH241035   0.025   5.217   1.641  0.9039  0.1681  0.2094
 6467TIP3    H141036   0.118   5.228   1.621  1.4678 -1.5098  1.6524
 6467TIP3    H241037   0.023   5.190   1.733 -0.8089 -2.1425 -0.4060
 6468TIP3   OH241038   6.313   3.608   2.132  0.2173 -0.1108  0.6036
 6468TIP3    H141039   6.344   3.659   2.057 -1.7170 -0.8099 -0.7432
 6468TIP3    H241040   6.382   3.618   2.198  0.5154  3.2301 -0.0249
 6469TIP3   OH241041   6.102   4.340   8.215  0.3813  0.7809 -0.1881
 6469TIP3    H141042   6.154   4.403   8.165 -0.7478  0.1571 -2.2523
 6469TIP3    H241043   6.142   4.341   8.302  2.6495  1.7031 -1.1406
 6470TIP3   OH241044   3.267   5.814   7.987  0.4518 -0.7375 -0.3096
 6470TIP3    H141045   3.336   5.880   7.999 -0.6640  0.5722 -0.8355
 6470TIP3    H241046   3.249   5.781   8.075  0.6672  0.0439  0.0348
 6471TIP3   OH241047   6.699   4.322   6.348  0.4074  0.0332  0.5419
 6471TIP3    H141048   6.676   4.275   6.268  0.2858 -1.3243  1.3442
 6471TIP3    H241049   6.715   4.412   6.319  2.4309 -0.8458 -1.3291
 6472TIP3   OH241050   0.919   2.521   2.489 -0.1401 -1.4267 -0.5132
 6472TIP3    H141051   0.861   2.562   2.553  0.0150 -0.9993 -0.6432
 6472TIP3    H241052   0.998   2.499   2.538  0.3610 -0.2382 -0.7449
 6473TIP3   OH241053   3.067   3.085   1.041  0.2061 -0.6937  0.3957
 6473TIP3    H141054   2.993   3.104   1.098  0.0379  0.2240 -0.1209
 6473TIP3    H241055   3.057   2.992   1.019  0.0313 -0.9402  1.4899
 6474TIP3   OH241056   2.424   3.186   0.551 -0.5071  0.1467 -0.5100
 6474TIP3    H141057   2.354   3.194   0.615 -0.5135  1.3550 -0.6494
 6474TIP3    H241058   2.389   3.227   0.472  0.1254  0.2158 -0.7612
 6475TIP3   OH241059   3.159   0.947   6.879  0.1946 -0.4787 -0.6367
 6475TIP3    H141060   3.129   0.957   6.969  1.3454 -0.1309 -0.2674
 6475TIP3    H241061   3.104   1.006   6.828 -1.2664 -1.5447 -0.3745
 6476TIP3   OH241062   3.459   0.914   6.445 -0.1460 -0.1261 -0.2139
 6476TIP3    H141063   3.424   0.997   6.414  1.2260 -0.9216 -4.5812
 6476TIP3    H241064   3.381   0.863   6.469 -1.0668  1.8800  1.3972
 6477TIP3   OH241065   0.497   5.385   7.593 -0.3103 -0.4345 -0.1651
 6477TIP3    H141066   0.410   5.379   7.555 -0.5981 -2.2528  0.6600
 6477TIP3    H241067   0.547   5.439   7.532 -1.9766  0.5904 -0.6782
 6478TIP3   OH241068   1.585   6.638   0.764 -0.2179  0.1916 -0.1923
 6478TIP3    H141069   1.526   6.713   0.754 -0.3676  0.0068 -0.7371
 6478TIP3    H241070   1.539   6.579   0.823  0.3183  0.9451  1.0148
 6479TIP3   OH241071   0.391   4.502   2.190  0.1267  0.0534  0.0351
 6479TIP3    H141072   0.399   4.596   2.211  0.6503  0.0123  0.0325
 6479TIP3    H241073   0.337   4.467   2.261  0.5955  0.2107  0.4791
 6480TIP3   OH241074   2.963   5.321   6.815 -0.4531 -0.4692 -0.2213
 6480TIP3    H141075   2.880   5.284   6.843 -1.0973  1.2444  0.3002
 6480TIP3    H241076   3.030   5.264   6.853 -1.3773 -1.7407 -0.4768
 6481TIP3   OH241077   0.870   0.980   6.436 -0.2882  0.1402 -0.4203
 6481TIP3    H141078   0.781   1.009   6.459  0.3773  2.9925 -1.0397
 6481TIP3    H241079   0.928   1.037   6.486  1.2468 -1.6495 -0.0599
 6482TIP3   OH241080   0.674   5.421   8.052  0.4262 -0.0778  0.5988
 6482TIP3    H141081   0.599   5.455   8.004  0.6510 -1.6783 -0.9741
 6482TIP3    H241082   0.747   5.476   8.025  0.4974 -0.7915 -0.7386
 6483TIP3   OH241083   3.346   4.407   2.725  0.6370 -0.0889  0.1842
 6483TIP3    H141084   3.309   4.486   2.685 -1.4397 -2.2121 -2.4630
 6483TIP3    H241085   3.273   4.365   2.770  1.9394 -0.0851  2.4538
 6484TIP3   OH241086   0.878   2.400   8.104  0.0645 -0.0435  0.3958
 6484TIP3    H141087   0.921   2.380   8.021 -1.2757 -0.9944 -0.0961
 6484TIP3    H241088   0.845   2.489   8.093  1.4718  0.5350  0.6191
 6485TIP3   OH241089   6.826   5.609   2.687  0.7907 -0.4152  0.1850
 6485TIP3    H141090   6.737   5.593   2.719  0.0767  0.9430 -1.0035
 6485TIP3    H241091   6.858   5.681   2.741  0.7309 -0.1632 -0.1079
 6486TIP3   OH241092   2.949   0.710   1.085  0.8304 -0.8102 -0.2705
 6486TIP3    H141093   2.899   0.651   1.028  1.2007 -0.7672 -0.6445
 6486TIP3    H241094   2.970   0.657   1.162  0.7148 -1.0084 -0.3728
 6487TIP3   OH241095   0.731   2.028   2.081 -0.1706 -0.1688 -0.9032
 6487TIP3    H141096   0.682   2.090   2.026 -0.0267 -0.4814 -1.3856
 6487TIP3    H241097   0.822   2.056   2.072 -0.3228  1.1508  0.9161
 6488TIP3   OH241098   1.215   5.099   1.661 -0.4383 -0.1726  0.8129
 6488TIP3    H141099   1.178   5.018   1.624  1.2954  0.2666 -2.1802
 6488TIP3    H241100   1.189   5.167   1.599  3.1867  0.5178 -0.1539
 6489TIP3   OH241101   6.366   3.714   6.502 -0.5200  0.4749 -0.0037
 6489TIP3    H141102   6.374   3.620   6.519  0.4214  0.2423 -1.5271
 6489TIP3    H241103   6.333   3.719   6.412 -0.3855  1.5971 -0.0021
 6490TIP3   OH241104   1.630   2.189   7.619 -0.2181 -0.6583 -0.1338
 6490TIP3    H141105   1.545   2.231   7.636 -0.3451 -1.4136  1.2651
 6490TIP3    H241106   1.680   2.256   7.573  0.5222  2.2197  4.2708
 6491TIP3   OH241107   6.583   1.872   2.731 -0.1726 -0.1152  0.6029
 6491TIP3    H141108   6.663   1.925   2.730  0.1260 -0.4221  2.7040
 6491TIP3    H241109   6.584   1.825   2.648 -0.5799  3.2832 -1.5109
 6492TIP3   OH241110   3.008   0.597   1.323  0.4821  0.0935  0.3930
 6492TIP3    H141111   3.089   0.558   1.291 -0.0884  0.5350 -1.7620
 6492TIP3    H241112   2.999   0.565   1.413  2.1999 -1.2423  0.1297
 6493TIP3   OH241113   3.453   5.127   7.151 -0.0791 -0.1810 -0.0127
 6493TIP3    H141114   3.458   5.043   7.198  2.0282 -0.1332 -0.0568
 6493TIP3    H241115   3.449   5.192   7.221  0.5811 -0.2209  0.0652
 6494TIP3   OH241116   3.439   1.580   7.187 -0.2302 -0.0030 -0.2648
 6494TIP3    H141117   3.498   1.595   7.260  1.6035 -2.5404 -1.0941
 6494TIP3    H241118   3.378   1.513   7.219 -0.5516  0.1610 -0.5213
 6495TIP3   OH241119   1.519   6.929   8.043 -0.4617 -0.2447  0.3789
 6495TIP3    H141120   1.447   6.867   8.033 -0.4717 -0.0579 -0.8555
 6495TIP3    H241121   1.491   6.987   8.113 -1.3938 -0.3519  0.1080
 6496TIP3   OH241122   4.166   2.071   7.727  0.4297  0.6102  1.3125
 6496TIP3    H141123   4.151   1.986   7.769 -1.4103  0.2360  0.0321
 6496TIP3    H241124   4.248   2.059   7.678 -0.0693 -0.6497  0.7094
 6497TIP3   OH241125   5.528   6.891   0.151  0.4238 -0.0881  0.4763
 6497TIP3    H141126   5.538   6.852   0.064 -0.5791  2.1431 -0.7541
 6497TIP3    H241127   5.531   6.986   0.134 -2.2274  0.4838  2.5021
 6498TIP3   OH241128   1.103   3.781   7.402 -0.3917 -0.2014 -0.1298
 6498TIP3    H141129   1.016   3.821   7.403 -0.7766 -0.9592  1.8024
 6498TIP3    H241130   1.136   3.794   7.491  1.2109 -0.5216 -0.6459
 6499TIP3   OH241131   4.067   5.056   0.299  0.3001 -1.0729 -0.2258
 6499TIP3    H141132   4.025   5.084   0.218  0.1565  0.1649  0.2586
 6499TIP3    H241133   4.002   5.000   0.342 -0.5924  0.2065  0.1540
 6500TIP3   OH241134   2.809   2.433   0.506  0.1441  0.3148  0.1617
 6500TIP3    H141135   2.797   2.338   0.517 -0.1191  0.5168  1.9420
 6500TIP3    H241136   2.891   2.441   0.458  0.5364 -0.8110  0.6086
 6501TIP3   OH241137   1.202   0.246   1.603 -0.5706  0.4559 -0.3647
 6501TIP3    H141138   1.141   0.295   1.549 -0.3694 -0.0270 -1.0417
 6501TIP3    H241139   1.148   0.178   1.644 -0.4463 -0.1950 -1.2399
 6502TIP3   OH241140   3.614   4.094   2.346 -0.0914 -0.2696 -0.1969
 6502TIP3    H141141   3.654   4.026   2.400  0.6081 -1.5154 -2.1560
 6502TIP3    H241142   3.686   4.129   2.295 -0.9514 -0.3036 -1.4929
 6503TIP3   OH241143   0.126   6.468   7.458  0.0522  0.2680 -0.1424
 6503TIP3    H141144   0.147   6.529   7.386 -0.1726  0.0740 -0.3746
 6503TIP3    H241145   0.044   6.501   7.494  0.0001  0.1804 -0.1808
 6504TIP3   OH241146   1.470   1.461   7.793 -0.6787  0.4147 -0.2857
 6504TIP3    H141147   1.455   1.452   7.887 -1.1034  1.7239 -0.1987
 6504TIP3    H241148   1.477   1.556   7.779  1.2301  0.1770 -1.3033
 6505TIP3   OH241149   5.832   1.373   1.526  1.6620  0.3991 -0.5015
 6505TIP3    H141150   5.882   1.407   1.600  1.1649  0.5683 -0.2348
 6505TIP3    H241151   5.817   1.448   1.469  2.2373  0.2243 -0.8956
 6506TIP3   OH241152   5.996   5.227   2.365 -0.4478  0.6990  0.4120
 6506TIP3    H141153   5.965   5.246   2.454 -0.7874 -0.9702  0.6981
 6506TIP3    H241154   6.002   5.131   2.363  0.5186  0.7671 -1.0549
 6507TIP3   OH241155   0.428   6.837   0.542  0.2138 -0.4793 -0.9222
 6507TIP3    H141156   0.425   6.928   0.513  0.0557 -0.2042 -0.0576
 6507TIP3    H241157   0.503   6.799   0.495  0.0845  0.0003 -1.5299
 6508TIP3   OH241158   0.931   0.834   1.765 -0.2749 -0.1527  0.6463
 6508TIP3    H141159   0.946   0.805   1.674 -1.3154 -1.4483  0.8587
 6508TIP3    H241160   1.003   0.794   1.814 -0.1948 -0.1514  0.5325
 6509TIP3   OH241161   5.599   3.824   7.037  0.1462  0.0578  0.3889
 6509TIP3    H141162   5.629   3.813   6.947  0.4301 -0.0550  0.4950
 6509TIP3    H241163   5.591   3.919   7.048  1.2095  0.1404  0.5877
 6510TIP3   OH241164   0.165   4.168   0.540 -0.1984  0.0561 -0.2043
 6510TIP3    H141165   0.212   4.247   0.566  0.5669  0.7109 -3.1511
 6510TIP3    H241166   0.221   4.096   0.567  0.9677  0.7117 -0.8131
 6511TIP3   OH241167   2.798   6.018   0.664 -0.1985 -0.2284 -0.2968
 6511TIP3    H141168   2.813   5.962   0.588  2.3142 -0.0852 -0.0016
 6511TIP3    H241169   2.820   6.106   0.633  2.0631 -0.3281  0.8241
 6512TIP3   OH241170   2.529   3.651   1.691  0.3310 -0.0617 -0.3767
 6512TIP3    H141171   2.487   3.696   1.617 -1.7415 -0.0492  0.7469
 6512TIP3    H241172   2.562   3.722   1.746 -2.4576  0.2043  1.1178
 6513TIP3   OH241173   4.886   3.903   6.765  0.5198 -0.4975 -0.0739
 6513TIP3    H141174   4.852   3.962   6.832  2.9797  0.4995  0.4002
 6513TIP3    H241175   4.811   3.885   6.709 -1.3464 -0.4597  2.2683
 6514TIP3   OH241176   4.261   0.834   8.213  0.0213  0.0885  0.5460
 6514TIP3    H141177   4.212   0.916   8.212 -0.8539 -0.3992  1.2092
 6514TIP3    H241178   4.195   0.768   8.237  0.3615 -1.0285 -1.4237
 6515TIP3   OH241179   4.345   3.377   0.361  0.1679 -0.1857  0.3355
 6515TIP3    H141180   4.344   3.291   0.403 -1.0115  0.3021  1.3571
 6515TIP3    H241181   4.310   3.437   0.427 -0.1133  0.8943 -0.7522
 6516TIP3   OH241182   1.299   6.090   2.279  0.3681 -0.2957 -0.2724
 6516TIP3    H141183   1.275   6.104   2.371  2.5879 -2.1654  0.7012
 6516TIP3    H241184   1.248   6.014   2.252  2.2106 -1.9389  0.6133
 6517TIP3   OH241185   2.913   1.398   7.822  0.2467  0.2106 -0.2710
 6517TIP3    H141186   2.870   1.395   7.908  0.2932  1.5751 -0.1830
 6517TIP3    H241187   2.955   1.484   7.819  1.7420 -0.5114 -0.9634
 6518TIP3   OH241188   1.543   0.955   0.208 -0.2456 -0.1189  0.1439
 6518TIP3    H141189   1.501   1.009   0.274 -0.3843 -2.1116  1.7782
 6518TIP3    H241190   1.629   0.933   0.245  0.3594  0.0832 -1.0806
 6519TIP3   OH241191   4.813   3.570   6.900  0.0005 -0.3425 -0.2997
 6519TIP3    H141192   4.802   3.610   6.813  0.0527 -2.1838 -1.2059
 6519TIP3    H241193   4.907   3.569   6.914 -0.0619  1.6450  0.6717
 6520TIP3   OH241194   1.272   5.972   7.026 -0.0513  0.2161 -0.1204
 6520TIP3    H141195   1.249   6.005   6.939  0.8067  1.5166  0.1267
 6520TIP3    H241196   1.193   5.927   7.056 -0.5813  0.3388 -1.2922
 6521TIP3   OH241197   5.204   3.869   0.952  0.3725 -0.2740  0.1682
 6521TIP3    H141198   5.210   3.784   0.995  1.2593  0.6268  1.9118
 6521TIP3    H241199   5.136   3.916   1.000 -0.7089 -0.2369 -1.3094
 6522TIP3   OH241200   0.395   6.570   2.065  0.2125  0.1283 -0.5497
 6522TIP3    H141201   0.367   6.592   2.154  1.2607  0.6282 -0.3319
 6522TIP3    H241202   0.369   6.479   2.054  0.1836  0.0216  0.3177
 6523TIP3   OH241203   6.058   4.417   3.308 -0.3623 -0.0518  0.4345
 6523TIP3    H141204   6.110   4.431   3.229 -0.4410  1.0113  0.5542
 6523TIP3    H241205   6.030   4.505   3.334 -0.7865 -0.4415  1.3414
 6524TIP3   OH241206   0.383   4.358   6.425  0.2230  0.0629  0.5197
 6524TIP3    H141207   0.307   4.300   6.418 -1.3239  1.7377  2.1596
 6524TIP3    H241208   0.448   4.321   6.365 -1.5590 -1.9357 -0.2914
 6525TIP3   OH241209   5.744   0.855   7.971 -0.0022  0.1690  0.4966
 6525TIP3    H141210   5.785   0.772   7.995 -1.5085 -0.6604  0.3016
 6525TIP3    H241211   5.659   0.854   8.016  0.2822  1.9891  1.1696
 6526TIP3   OH241212   6.239   5.217   7.588 -0.7242  0.4701 -0.5118
 6526TIP3    H141213   6.163   5.235   7.642 -0.2538  1.2493 -0.1008
 6526TIP3    H241214   6.297   5.292   7.600  0.4865 -0.4755 -0.1664
 6527TIP3   OH241215   3.828   6.856   6.640 -0.4622  0.2216  0.2085
 6527TIP3    H141216   3.800   6.936   6.684 -1.9356  0.3324 -0.8429
 6527TIP3    H241217   3.779   6.856   6.557  1.6596 -0.3198 -1.1236
 6528TIP3   OH241218   6.236   2.329   1.294  0.0589 -0.3767 -0.2488
 6528TIP3    H141219   6.275   2.251   1.257 -0.2585 -0.4491 -0.4368
 6528TIP3    H241220   6.300   2.399   1.279 -0.1951 -0.3450 -1.2012
 6529TIP3   OH241221   2.058   4.774   2.441  0.2739  0.1908 -0.2885
 6529TIP3    H141222   2.029   4.837   2.376  0.7221  1.1007  0.3784
 6529TIP3    H241223   1.980   4.755   2.493  0.0891  0.0152 -0.6216
 6530TIP3   OH241224   1.789   4.309   1.717  0.2049 -0.2070 -0.5945
 6530TIP3    H141225   1.710   4.288   1.666  0.5812  1.1304 -1.7691
 6530TIP3    H241226   1.842   4.362   1.658  2.4986 -1.9366 -0.2102
 6531TIP3   OH241227   6.494   3.796   1.682  0.0661 -0.0051 -0.1495
 6531TIP3    H141228   6.576   3.749   1.700  0.3387  0.8759  1.0511
 6531TIP3    H241229   6.456   3.810   1.768 -0.7154  0.7194 -0.6039
 6532TIP3   OH241230   3.189   3.349   1.535  0.3135  0.4985 -0.1630
 6532TIP3    H141231   3.209   3.290   1.609  0.4980  0.8094  0.0365
 6532TIP3    H241232   3.183   3.436   1.575  1.1644  0.7806 -0.6304
 6533TIP3   OH241233   5.257   4.434   2.778  0.3205  0.1625  0.0892
 6533TIP3    H141234   5.190   4.365   2.772  1.5773 -0.9837 -1.4872
 6533TIP3    H241235   5.211   4.514   2.754 -0.3896 -0.7025 -1.6277
 6534TIP3   OH241236   1.791   7.061   7.847  0.5666 -0.3830 -0.0185
 6534TIP3    H141237   1.706   7.048   7.804  0.0213  0.5726  0.7456
 6534TIP3    H241238   1.790   6.999   7.920  0.8529 -0.9015 -0.4422
 6535TIP3   OH241239   0.560   4.298   7.302  0.0231 -0.1349  0.1195
 6535TIP3    H141240   0.568   4.380   7.350 -1.9720 -0.3589  0.8989
 6535TIP3    H241241   0.589   4.231   7.364 -3.0925 -0.4868  1.3637
 6536TIP3   OH241242   3.815   5.488   2.782 -0.0768 -0.1212  0.1865
 6536TIP3    H141243   3.751   5.434   2.736  0.5727 -0.0786 -0.7791
 6536TIP3    H241244   3.867   5.528   2.713  0.5104  0.4460  0.9424
 6537TIP3   OH241245   1.515   6.433   0.565  0.4704 -0.1091 -0.2941
 6537TIP3    H141246   1.512   6.481   0.483 -2.6267 -0.2806 -0.3939
 6537TIP3    H241247   1.534   6.499   0.632  0.7007  0.4416 -0.9009
 6538TIP3   OH241248   4.522   5.826   2.122  0.3532  0.1219 -0.3604
 6538TIP3    H141249   4.536   5.917   2.095 -2.0477  0.3215 -1.1393
 6538TIP3    H241250   4.571   5.775   2.057 -1.3457  0.7901 -2.2775
 6539TIP3   OH241251   3.120   5.125   7.624  0.0893 -0.2420 -0.2518
 6539TIP3    H141252   3.171   5.044   7.630  1.8098  0.8634  0.8009
 6539TIP3    H241253   3.181   5.194   7.651 -2.1288  1.0996  1.6435
 6540TIP3   OH241254   4.058   3.038   7.012  0.0350 -0.5025 -0.5708
 6540TIP3    H141255   4.008   2.995   7.082  0.3621 -2.0187 -1.2221
 6540TIP3    H241256   4.004   3.027   6.934  0.3995 -0.2266 -0.8665
 6541TIP3   OH241257   1.771   1.032   1.897  0.4423  0.1574  0.0161
 6541TIP3    H141258   1.744   1.124   1.886 -0.4449  0.0597  1.1569
 6541TIP3    H241259   1.691   0.987   1.925  1.8447  0.0073  4.5496
 6542TIP3   OH241260   5.342   3.815   6.644 -0.2597  0.1587  0.2493
 6542TIP3    H141261   5.260   3.832   6.597 -0.2369  0.8159  0.4452
 6542TIP3    H241262   5.338   3.722   6.666  0.0489 -0.3562 -1.6822
 6543TIP3   OH241263   5.891   6.393   0.487  0.3699 -0.6912 -0.3370
 6543TIP3    H141264   5.848   6.443   0.418  1.0249  0.6546  0.1945
 6543TIP3    H241265   5.975   6.365   0.449  0.3923 -0.6139 -0.3446
 6544TIP3   OH241266   3.860   5.296   1.631  0.2413  0.0650 -0.2532
 6544TIP3    H141267   3.922   5.334   1.569  1.0009 -1.7614 -0.6805
 6544TIP3    H241268   3.774   5.318   1.596  0.6049  1.8529 -0.1440
 6545TIP3   OH241269   3.266   0.045   7.480 -0.2759  0.2805 -0.0841
 6545TIP3    H141270   3.198  -0.001   7.530 -1.1419 -0.2189 -1.6710
 6545TIP3    H241271   3.345  -0.007   7.494 -1.2387 -1.7710 -1.8628
 6546TIP3   OH241272   0.774   3.493   1.226  0.3702 -0.1723  0.0440
 6546TIP3    H141273   0.685   3.462   1.245  0.5051 -1.2580 -0.9541
 6546TIP3    H241274   0.801   3.443   1.149  1.2670  1.2723 -0.6275
 6547TIP3   OH241275   1.928   4.348   7.842 -0.2833 -0.2584  0.1985
 6547TIP3    H141276   1.876   4.337   7.762  0.3450  2.6931 -0.7672
 6547TIP3    H241277   2.016   4.368   7.809  0.4555 -0.9392  1.7038
 6548TIP3   OH241278   1.309   6.455   2.549  0.4478  0.2196 -0.4826
 6548TIP3    H141279   1.334   6.364   2.566 -1.7419 -0.5106 -0.8760
 6548TIP3    H241280   1.214   6.453   2.540  0.4524  2.3505 -1.8064
 6549TIP3   OH241281   6.217   3.132   0.923 -0.9861  0.3797 -0.0855
 6549TIP3    H141282   6.146   3.109   0.863 -2.5723 -0.7993  2.1113
 6549TIP3    H241283   6.296   3.127   0.869 -2.3291 -0.4089 -2.1036
 6550TIP3   OH241284   2.344   0.038   0.417  0.4547 -0.4198 -0.8707
 6550TIP3    H141285   2.256   0.007   0.439  1.2173 -0.1332  3.4992
 6550TIP3    H241286   2.333   0.131   0.398 -0.1856 -0.2118  0.3731
 6551TIP3   OH241287   6.366   4.075   2.765 -0.0407 -0.0552 -0.0286
 6551TIP3    H141288   6.340   4.157   2.724 -1.0350  0.9727  2.4721
 6551TIP3    H241289   6.320   4.007   2.716 -2.3711  1.2308  0.2871
 6552TIP3   OH241290   1.099   2.809   8.130  0.5553 -0.1917  0.1445
 6552TIP3    H141291   1.053   2.848   8.204 -0.0450  0.7100 -0.6923
 6552TIP3    H241292   1.161   2.748   8.171 -0.2029 -0.1905  1.3553
 6553TIP3   OH241293   6.004   4.714   0.151  0.2841 -0.8435 -0.1235
 6553TIP3    H141294   5.970   4.728   0.063 -0.6802  0.8397  0.4780
 6553TIP3    H241295   6.094   4.746   0.147 -0.4286  1.3307  0.0116
 6554TIP3   OH241296   5.877   4.384   1.907 -0.0751 -0.0226  0.0693
 6554TIP3    H141297   5.841   4.472   1.915  1.5506  0.5404  1.7081
 6554TIP3    H241298   5.802   4.326   1.924 -0.7796  1.0606  0.7847
 6555TIP3   OH241299   2.371   7.085   7.866 -0.1898 -0.2343 -0.1135
 6555TIP3    H141300   2.464   7.072   7.885 -0.2622 -1.1125 -0.2837
 6555TIP3    H241301   2.340   7.146   7.933  0.3187 -0.6264  0.4885
 6556TIP3   OH241302   5.656   2.754   1.141 -0.6375  0.0134 -0.6416
 6556TIP3    H141303   5.670   2.688   1.073  0.5173 -0.6001  0.1537
 6556TIP3    H241304   5.718   2.730   1.210 -0.4101  1.7549 -0.2016
 6557TIP3   OH241305   4.738   2.533   7.549  0.3876 -0.2376 -0.4494
 6557TIP3    H141306   4.810   2.583   7.512  0.3957  0.0365 -0.0626
 6557TIP3    H241307   4.693   2.495   7.473 -0.1284  1.0419 -0.8064
 6558TIP3   OH241308   4.318   0.357   1.880 -0.2563 -0.0846  0.2218
 6558TIP3    H141309   4.299   0.352   1.786  0.3286  2.5127 -0.1111
 6558TIP3    H241310   4.276   0.438   1.909 -0.7034 -1.0038  2.3165
 6559TIP3   OH241311   2.978   5.198   1.730 -0.2381  0.5522 -0.9107
 6559TIP3    H141312   2.956   5.135   1.661 -2.0772  0.5332 -0.3513
 6559TIP3    H241313   3.002   5.144   1.805 -0.9786  0.5170 -0.6931
 6560TIP3   OH241314   5.295   3.538   0.492  0.6391  0.3013 -0.2275
 6560TIP3    H141315   5.325   3.473   0.555  0.2496 -1.8475 -2.1179
 6560TIP3    H241316   5.310   3.622   0.535  0.4546 -1.0240  2.6465
 6561TIP3   OH241317   3.874   3.285   7.141  0.3427 -0.3959 -0.5361
 6561TIP3    H141318   3.860   3.302   7.048  0.6947  1.5700 -0.2668
 6561TIP3    H241319   3.964   3.313   7.156  0.1699 -0.3696  0.4724
 6562TIP3   OH241320   3.607   5.547   8.000  0.5863 -0.0613  0.4382
 6562TIP3    H141321   3.621   5.601   8.078 -2.5045 -0.6020  1.5175
 6562TIP3    H241322   3.589   5.460   8.034 -0.9906 -0.2734 -0.8201
 6563TIP3   OH241323   5.809   3.826   0.306  0.3581 -0.1202  0.8544
 6563TIP3    H141324   5.869   3.847   0.378  0.6795  4.6269 -0.4830
 6563TIP3    H241325   5.856   3.850   0.227 -2.3275  1.3796 -0.4256
 6564TIP3   OH241326   6.322   6.176   7.414 -0.6810  0.1738  0.2659
 6564TIP3    H141327   6.316   6.244   7.481 -0.0906  0.6030 -0.1109
 6564TIP3    H241328   6.347   6.223   7.335  0.2552 -0.5520  0.1211
 6565TIP3   OH241329   5.447   5.722   6.971  0.0380  0.5851  0.0672
 6565TIP3    H141330   5.440   5.757   6.882  1.5574  0.3997 -0.1641
 6565TIP3    H241331   5.472   5.630   6.959 -2.8111 -0.3540  0.6840
 6566TIP3   OH241332   3.432   3.413   1.950  0.0865 -0.0956 -0.2360
 6566TIP3    H141333   3.366   3.346   1.965  0.2739 -0.0704  0.7657
 6566TIP3    H241334   3.393   3.494   1.983  0.5876 -0.0753  0.3304
 6567TIP3   OH241335   3.172   6.353   7.421  0.3920 -0.0318 -0.6718
 6567TIP3    H141336   3.101   6.349   7.485  0.2628 -0.4333 -0.8328
 6567TIP3    H241337   3.190   6.261   7.400 -0.2936  0.1197 -2.0151
 6568TIP3   OH241338   1.515   0.998   1.805  0.0076 -0.0361 -0.1265
 6568TIP3    H141339   1.512   0.906   1.833  2.1558  0.0648  0.6305
 6568TIP3    H241340   1.562   0.995   1.721  0.0079  0.3470 -0.1382
 6569TIP3   OH241341   6.196   0.218   7.535  0.4801 -0.0299  0.4844
 6569TIP3    H141342   6.225   0.308   7.522  0.5014  0.3022  2.4561
 6569TIP3    H241343   6.104   0.226   7.563 -0.0239 -0.7520 -0.8535
 6570TIP3   OH241344   3.867   7.024   0.835 -0.1841  0.2849 -0.7699
 6570TIP3    H141345   3.833   6.950   0.885  1.6720  0.0943  0.3114
 6570TIP3    H241346   3.832   7.101   0.879 -0.4954  0.0861 -0.6657
 6571TIP3   OH241347   0.956   4.531   7.851  0.3860 -0.1898 -0.3572
 6571TIP3    H141348   0.993   4.472   7.785 -0.3749  0.5914 -1.5163
 6571TIP3    H241349   0.910   4.598   7.801 -0.7623  0.0841  0.9735
 6572TIP3   OH241350   0.932   2.455   7.517 -0.0019  0.5289  0.3375
 6572TIP3    H141351   0.942   2.549   7.527 -1.4989  0.8952 -1.1091
 6572TIP3    H241352   0.861   2.431   7.577 -0.3268  0.5062 -0.0543
 6573TIP3   OH241353   1.979   4.503   8.093  0.7761  0.1437 -0.0250
 6573TIP3    H141354   2.028   4.451   8.155 -0.9105 -0.2594  1.0290
 6573TIP3    H241355   1.977   4.450   8.013  3.1169  0.7518 -0.5645
 6574TIP3   OH241356   0.582   5.823   1.002 -0.1822 -0.4830  0.6598
 6574TIP3    H141357   0.551   5.913   0.992  1.1027 -0.1356 -0.4886
 6574TIP3    H241358   0.502   5.769   0.999 -0.7731  0.4225 -1.4669
 6575TIP3   OH241359   6.584   6.841   0.457  0.1466 -0.3746  0.2318
 6575TIP3    H141360   6.624   6.898   0.392  1.7153 -1.7108 -0.0597
 6575TIP3    H241361   6.491   6.841   0.436  0.4383  0.2741 -1.1607
 6576TIP3   OH241362   5.530   5.299   1.614  0.1502  0.1988  0.3540
 6576TIP3    H141363   5.601   5.243   1.645 -0.2100 -0.4884 -0.0325
 6576TIP3    H241364   5.573   5.375   1.576  0.6607  0.0355  0.6102
 6577TIP3   OH241365   0.229   3.897   7.111 -0.0118  0.0843  0.4469
 6577TIP3    H141366   0.267   3.814   7.140 -2.4512 -0.6737  1.8005
 6577TIP3    H241367   0.241   3.898   7.017  0.9684 -1.3220  0.5280
 6578TIP3   OH241368   5.015   5.183   7.847  0.3286 -0.5101  0.0516
 6578TIP3    H141369   5.026   5.134   7.765  1.6566  0.8498 -0.6369
 6578TIP3    H241370   4.923   5.210   7.846 -0.0697 -1.7712 -0.2218
 6579TIP3   OH241371   1.219   5.283   1.248 -0.2448  0.0178 -0.0218
 6579TIP3    H141372   1.253   5.289   1.337  1.2522 -0.1803 -0.5529
 6579TIP3    H241373   1.296   5.295   1.192 -0.7627 -2.0180 -1.2754
 6580TIP3   OH241374   3.408   0.316   0.982  0.5237 -0.1818 -0.2683
 6580TIP3    H141375   3.330   0.357   0.945  0.6861  0.7162  0.3310
 6580TIP3    H241376   3.470   0.311   0.910  0.2371 -0.0324 -0.5259
 6581TIP3   OH241377   3.245   2.624   7.429  0.5373  0.7147  0.2034
 6581TIP3    H141378   3.311   2.635   7.498  0.3514 -0.6109  0.6093
 6581TIP3    H241379   3.208   2.537   7.443  1.0540  0.0501 -2.0459
 6582TIP3   OH241380   1.773   3.587   2.445  0.6031 -0.1004 -0.1557
 6582TIP3    H141381   1.827   3.661   2.472  1.0131  0.7219 -2.9400
 6582TIP3    H241382   1.683   3.620   2.450  0.5620 -0.3497  1.1798
 6583TIP3   OH241383   6.026   5.534   1.400 -0.1127  0.7094 -0.2141
 6583TIP3    H141384   5.990   5.512   1.314 -1.6771  1.3668  0.2561
 6583TIP3    H241385   6.001   5.461   1.456 -1.0669  1.3412  0.2003
 6584TIP3   OH241386   5.545   4.791   2.201  0.6897  0.3720 -0.2430
 6584TIP3    H141387   5.575   4.708   2.162 -1.6901 -0.4485 -0.4769
 6584TIP3    H241388   5.584   4.790   2.289 -0.9332 -2.0835  0.5577
 6585TIP3   OH241389   0.639   3.682   7.974  0.3934 -0.0118 -0.6830
 6585TIP3    H141390   0.589   3.632   8.039 -0.1047  0.3328 -0.8003
 6585TIP3    H241391   0.609   3.772   7.984 -1.0183 -0.2054 -2.5776
 6586TIP3   OH241392   3.389   3.037   1.585  0.0007  0.3337 -0.5161
 6586TIP3    H141393   3.480   3.041   1.614  0.2608  1.9459 -1.4262
 6586TIP3    H241394   3.338   3.060   1.664  0.5985  2.8275 -0.7859
 6587TIP3   OH241395   3.083   1.528   2.802  0.0382  0.4278  0.0558
 6587TIP3    H141396   3.171   1.493   2.788 -0.4790 -0.5595 -0.9160
 6587TIP3    H241397   3.096   1.620   2.824  1.3697  0.0176  1.0785
 6588TIP3   OH241398   4.654   0.402   1.018  0.0313 -0.3100  0.0870
 6588TIP3    H141399   4.738   0.355   1.020  0.8161  0.8031 -2.4813
 6588TIP3    H241400   4.603   0.362   1.088  1.7678 -2.8149  0.0620
 6589TIP3   OH241401   4.547   1.171   2.077 -0.1523 -0.0073 -0.5361
 6589TIP3    H141402   4.482   1.181   2.008 -1.4500  1.9050  0.8803
 6589TIP3    H241403   4.496   1.169   2.159  1.4768  0.4713  0.5444
 6590TIP3   OH241404   4.466   0.809   1.882  0.4695 -0.9123  0.0468
 6590TIP3    H141405   4.516   0.839   1.806  0.0524 -0.2394  0.0279
 6590TIP3    H241406   4.378   0.845   1.869  0.9807  1.3820  2.0396
 6591TIP3   OH241407   2.368   0.554   1.759 -0.2055 -0.1033 -0.0856
 6591TIP3    H141408   2.391   0.467   1.793  0.1169  0.7875  2.1120
 6591TIP3    H241409   2.319   0.595   1.830  1.4265  2.2727 -0.2279
 6592TIP3   OH241410   0.952   3.033   0.327 -0.3428 -0.4698 -0.2699
 6592TIP3    H141411   0.945   3.102   0.261  0.0054 -0.3458 -0.1739
 6592TIP3    H241412   0.912   2.957   0.285 -1.2532 -0.0663 -0.1637
 6593TIP3   OH241413   1.511   0.003   0.991  0.2065  0.0287  0.0316
 6593TIP3    H141414   1.548   0.088   0.964  0.5607 -0.1426 -0.0283
 6593TIP3    H241415   1.528  -0.001   1.085 -1.1437  0.6831  0.3222
 6594TIP3   OH241416   4.788   5.745   6.907 -0.1480 -0.3193 -0.2494
 6594TIP3    H141417   4.745   5.660   6.921 -0.7985  0.3480  2.3553
 6594TIP3    H241418   4.870   5.738   6.956 -1.3044  1.2925  2.0976
 6595TIP3   OH241419   2.914   6.644   0.695 -0.0469  0.1406  0.1730
 6595TIP3    H141420   2.968   6.660   0.772  0.4167  0.8498 -0.2801
 6595TIP3    H241421   2.909   6.729   0.652 -2.0874  0.2556  0.5388
 6596TIP3   OH241422   0.048   6.867   1.950 -0.4310 -1.0295  0.4583
 6596TIP3    H141423   0.001   6.932   2.003  0.4549  0.5525 -0.6136
 6596TIP3    H241424   0.058   6.791   2.008 -1.7339 -0.3148  1.6626
 6597TIP3   OH241425   1.420   1.155   0.365  0.6297 -0.1571  0.7289
 6597TIP3    H141426   1.364   1.217   0.317  1.2871  0.4343  0.7062
 6597TIP3    H241427   1.488   1.210   0.404  0.5980 -0.7430  1.6299
 6598TIP3   OH241428   2.535   5.028   1.514  0.7440 -0.0136 -0.3717
 6598TIP3    H141429   2.501   5.034   1.425 -0.5289  1.3384  0.1559
 6598TIP3    H241430   2.610   4.969   1.507  1.4103  0.9768 -2.5390
 6599TIP3   OH241431   0.345   5.191   1.647  0.1995 -0.1866  0.0824
 6599TIP3    H141432   0.413   5.246   1.686 -0.8486 -0.1056  1.9253
 6599TIP3    H241433   0.376   5.101   1.662  0.4483 -0.1355 -0.1288
 6600TIP3   OH241434   1.336   5.357   6.829 -0.3474 -0.1424 -0.1648
 6600TIP3    H141435   1.425   5.325   6.814  0.2501  0.1373  2.2758
 6600TIP3    H241436   1.292   5.346   6.745  1.6932 -1.2287 -1.1776
 6601TIP3   OH241437   3.753   2.156   2.674  0.0474 -0.3486  0.2757
 6601TIP3    H141438   3.671   2.206   2.669  0.2980  0.1117  0.6321
 6601TIP3    H241439   3.753   2.101   2.596 -1.1735 -1.2546  0.8758
 6602TIP3   OH241440   5.888   2.142   1.907 -0.0568 -0.0822  0.1785
 6602TIP3    H141441   5.871   2.179   1.994 -0.3719 -0.0581  0.1071
 6602TIP3    H241442   5.813   2.168   1.854  1.3501  2.1407 -0.8463
 6603TIP3   OH241443   6.145   1.103   7.355  0.6260 -0.2812 -0.0374
 6603TIP3    H141444   6.085   1.171   7.384 -0.6531 -1.1851 -0.4364
 6603TIP3    H241445   6.223   1.150   7.324 -0.3882  1.0245 -0.7131
 6604TIP3   OH241446   4.165   5.829   0.944 -0.1671  0.0829  0.1285
 6604TIP3    H141447   4.172   5.908   0.998 -2.3692 -0.4167  1.2401
 6604TIP3    H241448   4.133   5.762   1.004  0.0821 -1.2598 -1.1800
 6605TIP3   OH241449   3.943   5.979   7.816  0.2836 -0.0827  0.4274
 6605TIP3    H141450   3.944   6.041   7.743 -1.2596 -1.6464 -1.0304
 6605TIP3    H241451   3.956   6.033   7.894  1.0902  1.7751 -0.9264
 6606TIP3   OH241452   1.715   2.896   7.443 -0.3352 -0.2064 -0.0336
 6606TIP3    H141453   1.621   2.912   7.437 -0.6217  0.6897  3.8478
 6606TIP3    H241454   1.723   2.804   7.467 -0.5323  0.3039  2.2534
 6607TIP3   OH241455   5.175   0.765   0.638  0.2501 -0.2342  0.0213
 6607TIP3    H141456   5.146   0.810   0.717 -1.3439 -0.4578 -0.3951
 6607TIP3    H241457   5.194   0.836   0.576  1.0747 -0.0705  0.4521
 6608TIP3   OH241458   1.581   5.163   7.992 -0.5399 -0.4165 -0.3123
 6608TIP3    H141459   1.644   5.154   7.920 -1.1563  1.0705 -1.0810
 6608TIP3    H241460   1.579   5.257   8.011 -1.0667 -0.6706  1.0549
 6609TIP3   OH241461   6.865   1.159   7.061  0.4328 -0.4108 -0.5504
 6609TIP3    H141462   6.898   1.218   6.993  0.6045 -0.8902 -0.8948
 6609TIP3    H241463   6.773   1.184   7.071  0.3823 -0.3848 -1.0225
 6610TIP3   OH241464   1.168   2.467   1.590 -0.3652 -0.0335  0.4017
 6610TIP3    H141465   1.203   2.378   1.579 -0.7127 -0.0811 -0.4830
 6610TIP3    H241466   1.228   2.522   1.540  0.0609  0.2950  1.2566
 6611TIP3   OH241467   2.298   5.694   8.086 -0.7967 -0.5624  0.0523
 6611TIP3    H141468   2.357   5.634   8.133 -1.0275 -1.1034 -0.3327
 6611TIP3    H241469   2.214   5.684   8.130 -0.4804  0.6464  0.9736
 6612TIP3   OH241470   2.047   3.624   2.140  0.6876 -0.4611 -0.5091
 6612TIP3    H141471   2.070   3.622   2.233  0.5547 -0.3225 -0.4741
 6612TIP3    H241472   2.005   3.539   2.124  0.9464 -0.5918 -0.5038
 6613TIP3   OH241473   2.232   0.853   7.795  0.0291 -0.0875 -0.2546
 6613TIP3    H141474   2.289   0.785   7.833 -1.5585 -1.6276 -0.4882
 6613TIP3    H241475   2.148   0.810   7.785 -1.9706  2.7816  2.3539
 6614TIP3   OH241476   6.050   3.733   2.455 -0.2927  0.3904 -0.3832
 6614TIP3    H141477   5.959   3.704   2.469 -0.0320  0.4836  1.9128
 6614TIP3    H241478   6.057   3.743   2.360 -2.8137  0.7995 -0.6147
 6615TIP3   OH241479   5.482   6.458   1.687 -0.3161 -0.4211 -0.3901
 6615TIP3    H141480   5.559   6.405   1.709 -1.5472 -1.9683  0.3905
 6615TIP3    H241481   5.515   6.548   1.681  1.3280 -0.8837  1.0922
 6616TIP3   OH241482   0.873   2.352   2.714  0.2852 -0.0405 -0.4159
 6616TIP3    H141483   0.905   2.274   2.759 -1.8180 -0.8546 -0.2292
 6616TIP3    H241484   0.818   2.396   2.779 -0.6459  0.1920 -1.3346
 6617TIP3   OH241485   6.413   3.097   1.481  0.0889  0.0626  0.5972
 6617TIP3    H141486   6.366   3.176   1.505 -0.5048 -0.7325  2.2207
 6617TIP3    H241487   6.480   3.126   1.419 -2.5419  1.2331 -1.9537
 6618TIP3   OH241488   5.643   2.014   1.400  0.3896  0.2363  0.4872
 6618TIP3    H141489   5.650   2.101   1.361 -0.8178 -0.5737 -1.7113
 6618TIP3    H241490   5.723   1.969   1.372  0.5602  0.3373  0.8105
 6619TIP3   OH241491   6.218   0.083   2.102 -0.1842  0.0603 -0.1534
 6619TIP3    H141492   6.150   0.091   2.169 -0.0616 -1.9467  0.2928
 6619TIP3    H241493   6.300   0.084   2.150  0.1363  2.1904 -0.6673
 6620TIP3   OH241494   1.823   2.352   2.912 -0.3632 -0.5566 -0.2491
 6620TIP3    H141495   1.762   2.407   2.863  1.0787  0.0872 -1.4010
 6620TIP3    H241496   1.902   2.348   2.858  1.1005 -0.3321  1.7303
 6621TIP3   OH241497   1.125   6.196   1.674 -0.4380  0.2198  0.2345
 6621TIP3    H141498   1.169   6.157   1.749 -0.0857  1.1271  0.5158
 6621TIP3    H241499   1.190   6.255   1.636 -1.1868  1.0890  0.2650
 6622TIP3   OH241500   5.004   4.266   2.231  0.5133 -0.5143  0.4302
 6622TIP3    H141501   5.005   4.305   2.143 -0.3181  1.1946  1.1465
 6622TIP3    H241502   5.093   4.233   2.242  0.9603  0.2579 -0.6209
 6623TIP3   OH241503   4.455   1.892   1.775 -0.2642 -0.1758  0.1255
 6623TIP3    H141504   4.466   1.828   1.704  1.7004  0.9859 -0.7124
 6623TIP3    H241505   4.388   1.952   1.742 -0.5569 -0.5770 -0.0191
 6624TIP3   OH241506   4.425   3.758   7.864  0.4186  0.0109  0.1236
 6624TIP3    H141507   4.492   3.692   7.885  0.9429  0.2554 -0.7269
 6624TIP3    H241508   4.358   3.710   7.816  1.1763  0.2186 -1.1935
 6625TIP3   OH241509   6.037   1.175   1.114 -0.0151  0.0095 -0.4424
 6625TIP3    H141510   5.976   1.182   1.041 -0.5139  2.0417  0.1064
 6625TIP3    H241511   5.987   1.204   1.190  1.2413  0.4216  0.2517
 6626TIP3   OH241512   3.583   4.960   0.642  0.8113 -0.2266 -0.1592
 6626TIP3    H141513   3.554   4.980   0.552  1.5384 -1.0192 -0.5782
 6626TIP3    H241514   3.677   4.975   0.640  0.6798  0.9222  0.8163
 6627TIP3   OH241515   2.965   1.722   6.627 -0.0953 -0.3197 -0.3554
 6627TIP3    H141516   2.923   1.652   6.576 -0.0570 -1.6343  1.2911
 6627TIP3    H241517   2.892   1.772   6.664 -0.1306  0.1949 -1.1102
 6628TIP3   OH241518   2.016   2.668   8.176  0.1749 -0.5089  0.3306
 6628TIP3    H141519   2.045   2.589   8.221  0.6317  0.1117  1.1481
 6628TIP3    H241520   2.066   2.668   8.094 -0.1967 -1.3136  0.0890
 6629TIP3   OH241521   4.027   0.271   0.399 -0.5086  0.2432 -0.4835
 6629TIP3    H141522   3.962   0.335   0.427 -0.7876 -0.0993 -0.3459
 6629TIP3    H241523   4.006   0.192   0.449  1.5951  0.8748  1.5571
 6630TIP3   OH241524   4.090   4.729   1.091 -0.4385 -0.4766  0.5049
 6630TIP3    H141525   4.066   4.644   1.128 -1.2285 -0.5117 -0.0640
 6630TIP3    H241526   4.014   4.755   1.039  0.5970 -0.4124 -1.0643
 6631TIP3   OH241527   1.637   3.624   0.343 -0.1495 -0.0221 -0.1384
 6631TIP3    H141528   1.672   3.538   0.367  0.0453 -0.7938 -2.8296
 6631TIP3    H241529   1.557   3.604   0.294 -0.3711  1.3508 -0.3603
 6632TIP3   OH241530   4.116   5.470   7.530  0.1827 -0.0441 -0.3027
 6632TIP3    H141531   4.044   5.412   7.502  1.3974 -0.7463 -2.1504
 6632TIP3    H241532   4.159   5.495   7.449  3.0148 -0.9289  0.8195
 6633TIP3   OH241533   0.883   2.550   0.480 -0.5103 -0.6654  0.1129
 6633TIP3    H141534   0.945   2.585   0.417 -0.9080  0.3772  0.2848
 6633TIP3    H241535   0.808   2.522   0.428 -1.1605  0.8962  0.1608
 6634TIP3   OH241536   0.111   6.744   7.804  0.3541  0.5147 -0.4901
 6634TIP3    H141537   0.135   6.803   7.876  1.5301 -1.1635  0.5736
 6634TIP3    H241538   0.105   6.657   7.844  0.2877 -0.3654 -2.2820
 6635TIP3   OH241539   6.139   1.997   1.068  0.4145 -0.2562 -0.3372
 6635TIP3    H141540   6.209   2.038   1.119 -0.5639  1.0996 -0.0080
 6635TIP3    H241541   6.080   2.070   1.046 -0.4445 -1.2158 -1.3325
 6636TIP3   OH241542   6.213   3.895   2.640  0.7641 -0.1994  0.0272
 6636TIP3    H141543   6.170   3.894   2.555  0.7484  0.7906  0.0077
 6636TIP3    H241544   6.217   3.803   2.667 -1.2118 -0.3480 -0.0389
 6637TIP3   OH241545   5.377   0.556   0.616 -0.4082  0.2092  0.6893
 6637TIP3    H141546   5.337   0.643   0.627  0.8965  1.0572 -0.7839
 6637TIP3    H241547   5.334   0.520   0.539  1.7777  1.2963 -1.1592
 6638TIP3   OH241548   0.990   6.060   8.065  0.3614 -0.4376 -0.4497
 6638TIP3    H141549   0.952   5.983   8.108  1.0188 -0.9669 -0.8094
 6638TIP3    H241550   1.080   6.063   8.096  0.0111  0.9087  0.5218
 6639TIP3   OH241551   3.702   5.811   1.654 -0.5902 -0.3946  0.1349
 6639TIP3    H141552   3.683   5.895   1.611 -0.3027  0.2753  1.2895
 6639TIP3    H241553   3.759   5.834   1.727  0.8899 -1.7994 -0.5133
 6640TIP3   OH241554   0.906   1.825   7.148  0.0230 -0.2175  0.2677
 6640TIP3    H141555   0.844   1.819   7.075  0.7064  0.2831 -0.3682
 6640TIP3    H241556   0.877   1.901   7.198  0.0453 -0.0645  0.0477
 6641TIP3   OH241557   5.451   1.912   7.903 -0.4374 -0.6418 -0.0865
 6641TIP3    H141558   5.447   1.902   7.808 -0.4670  1.4502 -0.3553
 6641TIP3    H241559   5.388   1.849   7.938 -0.8206 -1.0463 -1.4768
 6642TIP3   OH241560   5.800   5.881   6.876 -0.0317  0.0232  0.4676
 6642TIP3    H141561   5.798   5.787   6.892 -0.9406  0.1449  1.1561
 6642TIP3    H241562   5.761   5.892   6.789 -0.4762 -0.1895  0.6393
 6643TIP3   OH241563   0.075   2.765   2.470  0.1632  0.1320  0.0099
 6643TIP3    H141564   0.149   2.707   2.486  1.8898  1.9715 -0.8894
 6643TIP3    H241565  -0.002   2.709   2.480  1.6721 -1.9856  0.4189
 6644TIP3   OH241566   2.897   4.035   7.723 -0.1577 -0.1201 -0.0182
 6644TIP3    H141567   2.970   3.978   7.750 -0.9299 -0.8182  0.6658
 6644TIP3    H241568   2.888   4.019   7.629  0.7401  0.1894 -0.1706
 6645TIP3   OH241569   5.547   4.987   7.981  0.1694 -0.1697  0.5720
 6645TIP3    H141570   5.504   4.905   8.005 -0.7954  0.0410 -0.3630
 6645TIP3    H241571   5.561   4.980   7.887  0.9206  0.3611  0.6355
 6646TIP3   OH241572   4.277   1.247   7.463 -0.2035 -0.3341  0.0518
 6646TIP3    H141573   4.252   1.212   7.549 -1.1939 -0.2820 -0.1984
 6646TIP3    H241574   4.286   1.170   7.407  0.5284 -0.3741  0.2147
 6647TIP3   OH241575   3.765   2.928   7.888  0.2367  0.5308  0.0868
 6647TIP3    H141576   3.766   2.888   7.802 -1.2801 -2.3308  1.2576
 6647TIP3    H241577   3.800   2.861   7.947  0.7093  2.1752  1.8105
 6648TIP3   OH241578   1.616   1.908   1.415 -0.3065  0.0067  0.0517
 6648TIP3    H141579   1.700   1.906   1.370 -0.6988 -1.9497 -0.7024
 6648TIP3    H241580   1.637   1.921   1.507  0.6467  1.8323 -0.3731
 6649TIP3   OH241581   4.087   5.987   2.049  0.4466 -0.5481  0.2173
 6649TIP3    H141582   4.128   6.072   2.035 -1.2947  0.2479 -0.2535
 6649TIP3    H241583   4.088   5.945   1.963 -3.2913  1.1772 -0.8615
 6650TIP3   OH241584   3.860   5.194   0.182 -0.1592  0.3394  0.5388
 6650TIP3    H141585   3.902   5.242   0.111  0.8208 -0.2327  0.7159
 6650TIP3    H241586   3.783   5.247   0.204 -1.2844 -0.1633 -1.8475
 6651TIP3   OH241587   3.152   0.069   1.291 -0.0968  0.4255  0.0681
 6651TIP3    H141588   3.247   0.068   1.280 -0.0792  0.5694  0.2053
 6651TIP3    H241589   3.129  -0.023   1.306  0.4105  0.7040  3.2468
 6652TIP3   OH241590   5.590   2.496   1.596 -0.7145 -0.0016  0.4487
 6652TIP3    H141591   5.640   2.448   1.662  1.6826  1.0851 -0.4603
 6652TIP3    H241592   5.603   2.588   1.618 -2.0158  0.3327 -0.0842
 6653TIP3   OH241593   6.263   6.789   1.781  0.2585  0.3072 -0.5881
 6653TIP3    H141594   6.213   6.834   1.849 -1.1608 -1.6322 -0.2708
 6653TIP3    H241595   6.354   6.807   1.803 -0.1303 -0.6198  2.1387
 6654TIP3   OH241596   5.776   1.892   7.654 -0.2913  0.1997  0.0751
 6654TIP3    H141597   5.789   1.940   7.736  0.4455  1.4768 -0.7654
 6654TIP3    H241598   5.689   1.853   7.663  0.2325 -0.6925  1.9503
 6655TIP3   OH241599   0.813   2.422   1.675 -0.0523 -0.2224 -0.2094
 6655TIP3    H141600   0.792   2.390   1.763  1.6958 -2.0404 -0.3766
 6655TIP3    H241601   0.909   2.425   1.673 -0.0720  2.3041 -1.2516
 6656TIP3   OH241602   5.123   3.863   7.524  0.0717  0.5239  0.2413
 6656TIP3    H141603   5.190   3.797   7.537  0.5000  0.5517 -1.5224
 6656TIP3    H241604   5.059   3.847   7.593  0.3508 -1.4929  0.0832
 6657TIP3   OH241605   1.955   2.611   7.398  0.0420  0.1591 -0.4407
 6657TIP3    H141606   1.925   2.581   7.312 -0.9303  0.5790 -0.2502
 6657TIP3    H241607   1.983   2.701   7.383 -0.5978  0.3972 -0.2152
 6658TIP3   OH241608   1.115   4.721   7.984 -0.0224 -0.1542  0.2930
 6658TIP3    H141609   1.154   4.720   7.896  0.3787 -0.6501  0.4723
 6658TIP3    H241610   1.043   4.657   7.979  0.1721 -0.3817  0.4017
 6659TIP3   OH241611   6.873   4.064   8.149  0.0741 -0.2150 -0.7442
 6659TIP3    H141612   6.841   4.020   8.070 -0.5772 -0.5154 -0.3184
 6659TIP3    H241613   6.892   4.154   8.120  0.7367 -0.5679 -1.4539
 6660TIP3   OH241614   3.952   0.708   2.344  0.1565  0.3051 -0.8039
 6660TIP3    H141615   3.899   0.771   2.392  0.4592 -0.3928  0.5069
 6660TIP3    H241616   3.999   0.761   2.278 -0.5629  1.2290 -0.5913
 6661TIP3   OH241617   0.800   0.202   0.519 -0.1356  0.3899  0.1037
 6661TIP3    H141618   0.807   0.292   0.488  0.7299  0.7107  1.1828
 6661TIP3    H241619   0.851   0.151   0.456  2.3337  1.1417  1.3532
 6662TIP3   OH241620   1.263   0.859   1.603  0.1411 -0.1222  0.5124
 6662TIP3    H141621   1.175   0.825   1.586  0.8158 -2.1293  0.7647
 6662TIP3    H241622   1.304   0.863   1.517  0.7105 -1.9604  0.6599
 6663TIP3   OH241623   6.246   2.772   7.722 -0.0737  0.2345 -0.0692
 6663TIP3    H141624   6.218   2.799   7.635  1.2414  0.5102 -0.4210
 6663TIP3    H241625   6.281   2.684   7.710 -1.9515 -0.6799  0.6185
 6664TIP3   OH241626   4.020   1.478   6.669  0.0930 -0.1055 -0.1316
 6664TIP3    H141627   3.946   1.420   6.689 -0.0044  0.0149 -0.1361
 6664TIP3    H241628   4.024   1.480   6.574 -0.0013  0.0148 -0.1340
 6665TIP3   OH241629   1.017   0.064   0.783 -0.0670  0.2848 -0.3569
 6665TIP3    H141630   0.979   0.012   0.854  2.3781  0.3506  1.1168
 6665TIP3    H241631   0.997   0.154   0.806  3.3459  0.6161  2.2087
 6666TIP3   OH241632   3.545   0.384   0.467 -0.1017 -0.2045 -0.5918
 6666TIP3    H141633   3.527   0.307   0.413 -0.0334  0.8206 -2.1221
 6666TIP3    H241634   3.524   0.458   0.411  1.8118  0.9264  0.1073
 6667TIP3   OH241635   4.853   1.918   0.931 -0.3966 -0.1237  0.3410
 6667TIP3    H141636   4.777   1.862   0.913 -1.3783  1.1674  0.2724
 6667TIP3    H241637   4.904   1.869   0.996 -0.5119 -1.6627 -0.6740
 6668TIP3   OH241638   4.891   6.802   7.469 -0.5276  0.1385  0.2107
 6668TIP3    H141639   4.838   6.722   7.461 -0.4094 -0.0001  0.7245
 6668TIP3    H241640   4.929   6.796   7.557  0.3975  0.2071 -0.1730
 6669TIP3   OH241641   2.580   0.714   0.827 -0.2187  0.2918  0.3738
 6669TIP3    H141642   2.533   0.770   0.889 -0.6564  0.7627 -0.3743
 6669TIP3    H241643   2.637   0.774   0.779 -1.5945  0.3122 -1.2892
 6670TIP3   OH241644   4.643   4.180   8.116 -0.3530  0.3515  0.0083
 6670TIP3    H141645   4.733   4.147   8.112 -0.4238  0.1515  0.0711
 6670TIP3    H241646   4.627   4.216   8.029  0.0074  0.9664  0.1896
 6671TIP3   OH241647   6.381   5.269   6.854 -0.3836  0.3740 -0.2886
 6671TIP3    H141648   6.359   5.279   6.947  1.3795 -1.2642  0.3852
 6671TIP3    H241649   6.302   5.232   6.815 -1.1638  1.1147  0.5380
 6672TIP3   OH241650   0.856   3.605   7.833  0.0424  0.0326  0.1935
 6672TIP3    H141651   0.876   3.534   7.894  0.1853  0.1011  0.2286
 6672TIP3    H241652   0.762   3.620   7.843  0.1865  0.5013  0.8937
 6673TIP3   OH241653   4.917   4.448   7.992 -0.2785  0.2740  0.2596
 6673TIP3    H141654   4.966   4.447   7.910  2.0293  0.2188  1.5457
 6673TIP3    H241655   4.838   4.500   7.973  0.2323  0.3165 -1.9368
 6674TIP3   OH241656   4.887   0.341   7.996 -0.2940 -0.4137 -0.1297
 6674TIP3    H141657   4.953   0.406   7.973  0.0193 -0.5058  0.4847
 6674TIP3    H241658   4.822   0.346   7.926 -0.6211  1.0176  0.2563
 6675TIP3   OH241659   5.981   4.143   0.864 -0.4232  0.5507  0.6251
 6675TIP3    H141660   5.966   4.158   0.957 -1.2360 -1.1812  0.8153
 6675TIP3    H241661   6.023   4.057   0.860  0.0259  0.8058 -0.5879
 6676TIP3   OH241662   1.547   6.551   0.296 -0.0536 -0.1835 -0.2786
 6676TIP3    H141663   1.600   6.499   0.236 -0.4419 -1.3001  0.3102
 6676TIP3    H241664   1.461   6.557   0.255 -0.3228 -0.9577  0.1453
 6677TIP3   OH241665   3.860   4.558   2.182  0.0870  0.7456  0.1743
 6677TIP3    H141666   3.888   4.481   2.231  0.2760  1.1300  0.6765
 6677TIP3    H241667   3.933   4.579   2.124  0.1144  0.6627  0.1802
 6678TIP3   OH241668   4.595   2.103   7.493  0.1119  0.7564  0.2185
 6678TIP3    H141669   4.566   2.135   7.407 -0.6012 -0.8963 -0.2086
 6678TIP3    H241670   4.690   2.100   7.486  0.0161 -0.9012 -1.1622
 6679TIP3   OH241671   6.794   1.846   6.640  0.0138 -0.2726 -0.2648
 6679TIP3    H141672   6.876   1.895   6.638  0.8933 -1.5736  1.3684
 6679TIP3    H241673   6.732   1.904   6.684  0.4505  0.1597 -0.2155
 6680TIP3   OH241674   6.412   1.286   1.362 -0.4609 -0.2174  0.0864
 6680TIP3    H141675   6.455   1.367   1.333  0.7090  0.0338  2.3389
 6680TIP3    H241676   6.380   1.306   1.450 -1.2318 -1.8326  0.1986
 6681TIP3   OH241677   0.919   3.064   6.815 -0.1855 -0.9360 -0.1861
 6681TIP3    H141678   1.000   3.112   6.797 -0.2347 -0.4958  0.6928
 6681TIP3    H241679   0.945   2.972   6.817 -0.0472 -0.9502 -1.6784
 6682TIP3   OH241680   5.280   3.355   1.617 -0.2027 -0.0827  0.2415
 6682TIP3    H141681   5.292   3.376   1.710 -0.5421 -0.2780  0.3314
 6682TIP3    H241682   5.225   3.276   1.617 -1.4985  0.7870 -0.1459
 6683TIP3   OH241683   0.982   3.699   1.254  0.8028 -0.2010  0.3476
 6683TIP3    H141684   0.938   3.615   1.241 -0.6229  0.5199  0.3685
 6683TIP3    H241685   1.036   3.711   1.176 -0.6208 -0.1735 -0.6712
 6684TIP3   OH241686   1.448   1.982   1.191  0.5694 -0.7188 -0.4589
 6684TIP3    H141687   1.515   1.970   1.124  0.2671 -0.7676 -0.7594
 6684TIP3    H241688   1.494   1.972   1.274  1.1725  0.4871 -0.6289
 6685TIP3   OH241689   3.120   1.979   1.448 -0.0290 -0.3469 -0.0141
 6685TIP3    H141690   3.067   2.033   1.507  1.4655 -0.3189  1.3932
 6685TIP3    H241691   3.066   1.902   1.431 -0.6963 -0.1379  1.0435
 6686TIP3   OH241692   3.415   7.055   1.367 -0.2160 -0.0767  0.1067
 6686TIP3    H141693   3.458   6.992   1.426 -2.0621 -0.8323  0.7229
 6686TIP3    H241694   3.364   7.111   1.426  0.7744  1.5177 -0.5141
 6687TIP3   OH241695   3.874   3.728   0.177  0.6751 -0.0273  0.2000
 6687TIP3    H141696   3.906   3.716   0.266  0.9103  1.4120  0.3299
 6687TIP3    H241697   3.930   3.796   0.140 -1.3584  1.6386 -0.0034
 6688TIP3   OH241698   4.060   1.187   7.939 -0.2008 -0.1085  0.0550
 6688TIP3    H141699   3.994   1.124   7.912 -1.6232  0.6687  1.5121
 6688TIP3    H241700   4.074   1.170   8.032 -1.0674  2.0014  0.6522
 6689TIP3   OH241701   2.062   2.362   8.177  0.4886  0.2247 -0.2838
 6689TIP3    H141702   2.030   2.363   8.087 -1.8961 -0.8442  0.4677
 6689TIP3    H241703   2.107   2.278   8.186  0.2914  0.1111 -0.3516
 6690TIP3   OH241704   6.179   0.554   1.006  0.2721 -0.3889  0.2546
 6690TIP3    H141705   6.133   0.620   1.058  0.6605 -0.5907  0.8631
 6690TIP3    H241706   6.109   0.506   0.961  0.0267  0.8848 -0.7503
 6691TIP3   OH241707   2.305   0.204   8.091 -0.1905 -0.0826  0.1867
 6691TIP3    H141708   2.234   0.182   8.152 -0.4584  0.1611 -0.0316
 6691TIP3    H241709   2.278   0.288   8.053  0.1715 -0.0373  0.0321
 6692TIP3   OH241710   5.841   1.594   1.290 -0.1051  0.5476  0.3082
 6692TIP3    H141711   5.912   1.572   1.230 -0.2023  1.5074 -0.1881
 6692TIP3    H241712   5.762   1.559   1.249  0.0346 -0.2923  0.7328
 6693TIP3   OH241713   2.871   3.580   0.885 -0.1911  0.5449  0.5207
 6693TIP3    H141714   2.804   3.614   0.945 -1.2182  1.2133 -0.9642
 6693TIP3    H241715   2.941   3.550   0.943 -1.0742  1.3099  2.0537
 6694TIP3   OH241716   2.830   1.529   1.059 -0.5233 -0.0296 -0.1531
 6694TIP3    H141717   2.911   1.580   1.054 -0.6148  0.1240 -0.0992
 6694TIP3    H241718   2.793   1.551   1.145  0.2434 -1.4358  0.5627
 6695TIP3   OH241719   3.806   4.756   1.191  0.0267 -0.9533  0.7341
 6695TIP3    H141720   3.713   4.759   1.212 -0.2845 -1.0749 -0.5508
 6695TIP3    H241721   3.849   4.745   1.276 -0.9810  1.0994  1.5851
 6696TIP3   OH241722   4.251   5.933   0.132 -0.1122  0.4002 -0.0897
 6696TIP3    H141723   4.219   5.896   0.050  1.3905 -2.8845  0.6357
 6696TIP3    H241724   4.195   5.896   0.199  1.6893 -1.0341  0.7109
 6697TIP3   OH241725   5.989   5.836   1.013 -0.0313 -0.5361 -0.5538
 6697TIP3    H141726   5.929   5.825   0.939  1.3380 -3.0631 -1.4163
 6697TIP3    H241727   5.975   5.758   1.068  1.8830 -0.8318 -0.4115
 6698TIP3   OH241728   0.183   5.440   8.093  0.1867 -0.4569 -0.2896
 6698TIP3    H141729   0.172   5.506   8.161  0.5780 -1.8622  1.1924
 6698TIP3    H241730   0.278   5.436   8.079  0.0410  0.9165 -2.1083
 6699TIP3   OH241731   5.161   2.955   1.447  0.1136 -0.1595  0.1902
 6699TIP3    H141732   5.184   3.043   1.416 -0.3975 -0.4233 -0.9919
 6699TIP3    H241733   5.109   2.918   1.376  1.3836 -1.9031  0.1281
 6700TIP3   OH241734   2.528   5.307   2.600 -0.2504  0.3505  0.0066
 6700TIP3    H141735   2.433   5.301   2.596 -0.1748 -2.0055  0.5479
 6700TIP3    H241736   2.560   5.247   2.534  0.7758 -2.6819  2.9634
 6701TIP3   OH241737   2.167   5.835   6.098 -0.1116  0.2325 -0.2888
 6701TIP3    H141738   2.117   5.754   6.088  1.0062 -0.4055 -0.9137
 6701TIP3    H241739   2.255   5.806   6.122  0.1320  1.3037  0.1664
 6702TIP3   OH241740   4.070   3.592   0.694 -0.0480  0.1611  0.6254
 6702TIP3    H141741   4.070   3.687   0.682 -0.6889  0.0571 -0.2453
 6702TIP3    H241742   4.160   3.565   0.674  0.4274  0.6913  1.9081
 6703TIP3   OH241743   6.193   1.913   6.677 -0.3231 -0.3329  0.2050
 6703TIP3    H141744   6.264   1.868   6.630 -0.6516  0.0452 -0.6722
 6703TIP3    H241745   6.123   1.920   6.613 -0.4954  0.9039  0.5038
 6704TIP3   OH241746   1.734   3.782   0.544 -0.6947 -0.3970 -0.2151
 6704TIP3    H141747   1.726   3.764   0.638 -0.5812 -0.4107 -0.2084
 6704TIP3    H241748   1.696   3.705   0.501 -0.4135 -0.5551 -0.1844
 6705TIP3   OH241749   6.523   3.887   8.176 -0.2555  0.3874  0.4647
 6705TIP3    H141750   6.533   3.794   8.153 -0.6726 -0.2568  2.6107
 6705TIP3    H241751   6.540   3.890   8.271 -1.3026  2.3344  0.6462
 6706TIP3   OH241752   3.708   4.147   1.706  0.3107 -0.1318 -0.0038
 6706TIP3    H141753   3.617   4.126   1.686 -0.9998  2.9352  1.9112
 6706TIP3    H241754   3.705   4.181   1.796  3.7017 -1.6187  0.8449
 6707TIP3   OH241755   1.342   4.172   0.172 -0.1161  0.3316  0.0351
 6707TIP3    H141756   1.346   4.242   0.237  0.7818 -0.3052  0.7026
 6707TIP3    H241757   1.303   4.212   0.095  0.4086  1.5700  0.3921
 6708TIP3   OH241758   5.953   0.918   7.256 -0.0242  0.4441  0.5203
 6708TIP3    H141759   6.015   0.988   7.280  0.5804 -0.0929  0.5314
 6708TIP3    H241760   6.008   0.844   7.233 -0.6758 -0.2696  1.2235
 6709TIP3   OH241761   5.758   0.514   0.687  0.6763  0.5184 -0.5792
 6709TIP3    H141762   5.700   0.506   0.612  1.4540 -0.5869 -1.1053
 6709TIP3    H241763   5.706   0.557   0.754 -0.4368  0.3863 -1.3344
 6710TIP3   OH241764   5.088   6.045   7.777  0.6577 -0.2763  0.1348
 6710TIP3    H141765   5.024   5.974   7.778  1.9431 -1.5177  1.9771
 6710TIP3    H241766   5.163   6.010   7.730 -0.0826  1.3313 -2.4190
 6711TIP3   OH241767   1.003   5.652   1.200 -0.1220  0.5036 -0.3884
 6711TIP3    H141768   1.080   5.703   1.178 -0.8858  1.0383 -1.9487
 6711TIP3    H241769   0.945   5.713   1.245  1.4561 -0.5944  3.5795
 6712TIP3   OH241770   2.507   0.822   0.417 -0.5588  0.4138  0.2333
 6712TIP3    H141771   2.558   0.755   0.462 -1.9402  0.2183  1.5747
 6712TIP3    H241772   2.566   0.854   0.348  1.4500  0.3536  1.8219
 6713TIP3   OH241773   5.955   2.404   7.233  0.4316  0.4846  0.1828
 6713TIP3    H141774   5.940   2.448   7.149  0.8344  0.8452  0.2946
 6713TIP3    H241775   6.030   2.346   7.217  0.9016  1.0014  0.4421
 6714TIP3   OH241776   2.435   0.305   0.240  0.2032  0.7960  0.4638
 6714TIP3    H141777   2.472   0.224   0.203  0.1202  0.8952  0.1598
 6714TIP3    H241778   2.451   0.297   0.334 -0.4467  0.0866  0.5278
 6715TIP3   OH241779   0.180   4.706   7.313  0.5369  0.0770  0.0635
 6715TIP3    H141780   0.173   4.753   7.396  1.7348 -1.6048  1.2003
 6715TIP3    H241781   0.242   4.757   7.261 -0.1770  1.1170  0.2191
 6716TIP3   OH241782   5.730   2.027   1.034 -0.2713 -0.1243  0.0925
 6716TIP3    H141783   5.799   2.092   1.020  0.5463 -0.9821 -0.0402
 6716TIP3    H241784   5.721   1.984   0.949  1.1906 -2.0241  0.8070
 6717TIP3   OH241785   3.235   2.393   1.452  0.4326  0.0631 -0.0633
 6717TIP3    H141786   3.184   2.390   1.533  0.9403  0.8610  0.2941
 6717TIP3    H241787   3.322   2.423   1.479  0.8459 -0.4469 -0.7888
 6718TIP3   OH241788   6.870   2.409   1.236  0.2935  0.1022 -0.2102
 6718TIP3    H141789   6.839   2.490   1.276 -0.0162 -0.9596  1.8507
 6718TIP3    H241790   6.810   2.342   1.269  1.3547 -1.1708 -0.7805
 6719TIP3   OH241791   5.518   3.968   1.743 -0.3764  0.1222 -0.1804
 6719TIP3    H141792   5.511   3.878   1.713 -1.6519 -0.0325  0.5090
 6719TIP3    H241793   5.428   3.993   1.764 -0.0317  1.5262 -0.2702
 6720TIP3   OH241794   5.164   6.904   1.435 -0.4985 -0.0796 -0.4777
 6720TIP3    H141795   5.190   6.981   1.386 -0.0852 -1.1277 -1.9785
 6720TIP3    H241796   5.206   6.914   1.521 -0.4412  1.3217 -0.6588
 6721TIP3   OH241797   3.103   5.176   0.483  0.3848  0.0906 -0.0886
 6721TIP3    H141798   3.069   5.089   0.464  0.1876 -0.0041  0.6645
 6721TIP3    H241799   3.150   5.166   0.565  0.4656  0.6720 -0.0588
 6722TIP3   OH241800   5.155   1.571   7.704  0.2805 -0.6463 -0.0515
 6722TIP3    H141801   5.201   1.652   7.683 -0.8076 -0.6192 -2.7927
 6722TIP3    H241802   5.078   1.599   7.754 -0.0770  0.0489 -0.9593
 6723TIP3   OH241803   0.741   6.925   6.365 -0.1480  0.0876  0.2665
 6723TIP3    H141804   0.658   6.959   6.332 -0.0797 -0.4792 -0.5107
 6723TIP3    H241805   0.717   6.872   6.441 -0.7761 -1.9207 -1.2560
 6724TIP3   OH241806   2.368   6.297   1.427 -0.1097 -0.3734  0.1174
 6724TIP3    H141807   2.328   6.267   1.346  0.0883  1.6067 -0.7707
 6724TIP3    H241808   2.317   6.374   1.452  0.6224 -0.2119  1.1904
 6725TIP3   OH241809   7.059   2.454   1.011 -0.2264 -0.4914 -0.7775
 6725TIP3    H141810   7.101   2.534   1.045  3.5432 -1.9497 -1.5470
 6725TIP3    H241811   7.013   2.418   1.087  0.2663  1.0034  0.2950
 6726TIP3   OH241812   2.392   2.451   7.781  0.5681  0.2322 -0.3150
 6726TIP3    H141813   2.417   2.383   7.719  1.6668  0.7656 -0.4825
 6726TIP3    H241814   2.458   2.520   7.769 -0.6588  1.4422 -0.3344
 6727TIP3   OH241815   3.969   1.685   0.818  0.0458 -0.1002 -0.4324
 6727TIP3    H141816   4.044   1.740   0.840  0.8560 -2.0193  2.0867
 6727TIP3    H241817   4.006   1.596   0.811 -2.1889 -1.6419  3.7677
 6728TIP3   OH241818   3.715   3.887   1.332 -0.6367  0.3542  0.4665
 6728TIP3    H141819   3.699   3.980   1.314 -0.4738  0.3432  0.2600
 6728TIP3    H241820   3.654   3.841   1.274 -1.1158  0.3371  0.9721
 6729TIP3   OH241821   4.429   5.116   2.638 -0.1500 -0.6041 -0.4692
 6729TIP3    H141822   4.418   5.037   2.690 -0.1037 -0.3998 -0.1472
 6729TIP3    H241823   4.388   5.185   2.690  1.8435  0.0339  0.3852
 6730TIP3   OH241824   1.892   0.548   5.695  1.1108 -0.0229 -0.1486
 6730TIP3    H141825   1.810   0.539   5.646  0.7950  1.0431  0.1465
 6730TIP3    H241826   1.899   0.466   5.745  2.5170 -2.1120 -3.4601
 6731TIP3   OH241827   3.889   5.226   6.727 -0.1811  0.1380 -0.4404
 6731TIP3    H141828   3.813   5.201   6.675  0.8161  0.8990 -2.3732
 6731TIP3    H241829   3.918   5.309   6.689  1.6497 -0.1496  0.1980
 6732TIP3   OH241830   6.101   6.446   0.770  0.0611  0.3137 -0.5329
 6732TIP3    H141831   6.082   6.464   0.862 -1.1216 -1.1073 -0.4652
 6732TIP3    H241832   6.051   6.368   0.750  0.0180  0.7974 -2.5030
 6733TIP3   OH241833   3.702   6.724   1.073  0.0005 -0.2984  0.3316
 6733TIP3    H141834   3.636   6.695   1.010 -0.8560  1.0271  0.5975
 6733TIP3    H241835   3.679   6.814   1.093  2.7528  0.7363 -0.6859
 6734TIP3   OH241836   2.105   4.458   7.652  0.1300 -0.3207  0.2135
 6734TIP3    H141837   2.151   4.382   7.617  3.1819  1.6178 -0.4262
 6734TIP3    H241838   2.174   4.512   7.690 -2.0536  1.5739  1.8027
 6735TIP3   OH241839   0.869   0.344   8.188  0.5207  0.1269  0.3021
 6735TIP3    H141840   0.956   0.306   8.175 -0.0659 -1.1772  0.0273
 6735TIP3    H241841   0.813   0.297   8.126 -0.4321  0.7584  0.6641
 6736TIP3   OH241842   2.235   0.156   0.806 -0.4461 -0.0166 -0.2729
 6736TIP3    H141843   2.255   0.119   0.892 -0.5814  1.3680  0.3816
 6736TIP3    H241844   2.307   0.127   0.750  0.0067 -0.3619  0.4728
 6737TIP3   OH241845   0.927   4.527   6.923  0.3323  0.2657  0.2047
 6737TIP3    H141846   0.996   4.491   6.979  1.1123  0.2329 -0.7436
 6737TIP3    H241847   0.968   4.533   6.837 -0.9970 -0.1583 -0.4801
 6738TIP3   OH241848   2.341   1.268   7.427 -0.4522  0.1037 -0.4551
 6738TIP3    H141849   2.308   1.180   7.448  0.4329  0.2659  1.8833
 6738TIP3    H241850   2.426   1.252   7.387 -0.8425 -0.1195 -1.2215
 6739TIP3   OH241851   1.409   0.737   1.801  0.1505  0.1897 -0.4929
 6739TIP3    H141852   1.349   0.801   1.764 -1.3283  0.0390  1.4288
 6739TIP3    H241853   1.402   0.661   1.743  0.3388  1.0229 -1.6277
 6740TIP3   OH241854   1.806   2.142   6.966 -0.2253 -0.0676 -0.4406
 6740TIP3    H141855   1.856   2.146   6.885 -2.3623 -4.0203 -2.2194
 6740TIP3    H241856   1.798   2.049   6.985 -1.1581  0.6438  3.5553
 6741TIP3   OH241857   4.450   3.094   2.481  0.0384 -0.1757  0.7043
 6741TIP3    H141858   4.504   3.016   2.480 -2.1231 -1.7760 -0.7254
 6741TIP3    H241859   4.391   3.082   2.555  0.3826  0.6502  1.1284
 6742TIP3   OH241860   4.022   5.412   1.440 -0.1561  0.1645 -0.0522
 6742TIP3    H141861   3.993   5.503   1.436 -1.0890 -0.0216  1.4878
 6742TIP3    H241862   4.116   5.416   1.423  0.3728  1.8047  2.5688
 6743TIP3   OH241863   0.115   0.764   2.841 -0.4238  0.2390  0.5622
 6743TIP3    H141864   0.057   0.813   2.783 -2.3554 -1.1652  1.1959
 6743TIP3    H241865   0.125   0.679   2.799 -0.7977 -0.3438  1.6132
 6744TIP3   OH241866   6.719   5.888   7.518 -0.4497  0.2632 -0.1220
 6744TIP3    H141867   6.798   5.879   7.573 -0.3394 -2.2356 -0.5941
 6744TIP3    H241868   6.650   5.844   7.568 -0.8428 -0.1544 -1.0147
 6745TIP3   OH241869   6.988   3.858   1.032  0.2221  0.4179 -0.5615
 6745TIP3    H141870   7.068   3.906   1.009  0.7240 -0.4975 -0.8008
 6745TIP3    H241871   6.958   3.899   1.113  3.0191 -1.5224  1.6804
 6746TIP3   OH241872   5.995   4.238   2.209  0.1308 -0.1445 -0.8897
 6746TIP3    H141873   6.019   4.322   2.171  0.6963  0.5753  0.9471
 6746TIP3    H241874   6.079   4.196   2.229 -0.0508  0.6397  1.8811
 6747TIP3   OH241875   0.426   3.289   0.893  0.0110  0.2184 -0.1212
 6747TIP3    H141876   0.401   3.278   0.985 -0.0058 -0.3812 -0.1909
 6747TIP3    H241877   0.517   3.317   0.895  0.6579 -1.7727  0.0449
 6748TIP3   OH241878   3.385   6.315   0.581  0.0395 -0.2947  0.1322
 6748TIP3    H141879   3.407   6.275   0.665  0.0786 -0.1567  0.1882
 6748TIP3    H241880   3.320   6.382   0.603  0.6841  0.3324  0.1716
 6749TIP3   OH241881   0.184   6.318   0.230  0.1037  0.4063 -0.9120
 6749TIP3    H141882   0.257   6.307   0.170  0.4906 -0.2854 -0.3426
 6749TIP3    H241883   0.181   6.235   0.279  1.3670  1.7767  1.7172
 6750TIP3   OH241884   1.767   5.292   1.489 -0.3310  0.1886 -0.3502
 6750TIP3    H141885   1.747   5.293   1.582 -0.2480  0.3265 -0.3335
 6750TIP3    H241886   1.834   5.225   1.479 -1.0585 -0.5486 -0.4617
 6751TIP3   OH241887   4.285   3.435   0.644 -0.2670 -0.0348  0.1177
 6751TIP3    H141888   4.250   3.371   0.706 -0.6902 -0.0472 -0.1234
 6751TIP3    H241889   4.376   3.409   0.631  0.5398  1.3400  2.4851
 6752TIP3   OH241890   2.639   1.485   0.523  0.1686 -0.1299  0.5936
 6752TIP3    H141891   2.672   1.562   0.570  0.4274  0.9610 -1.2810
 6752TIP3    H241892   2.598   1.520   0.444 -0.6480 -1.8633  0.1940
 6753TIP3   OH241893   2.056   0.574   1.081  0.3072 -0.3646 -0.1088
 6753TIP3    H141894   2.117   0.621   1.023  1.1592  0.2372  1.2030
 6753TIP3    H241895   2.012   0.644   1.130  0.7313 -0.8789  1.0385
 6754TIP3   OH241896   2.523   1.676   1.893 -0.2209 -0.2524  0.4647
 6754TIP3    H141897   2.533   1.581   1.897 -0.9684 -0.5114 -2.0506
 6754TIP3    H241898   2.594   1.705   1.836 -1.0352  0.4661 -0.2040
 6755TIP3   OH241899   0.305   3.670   1.874 -0.4346  0.1509  0.4959
 6755TIP3    H141900   0.391   3.695   1.841  0.5480  0.6954  3.2466
 6755TIP3    H241901   0.244   3.730   1.831  0.7626  0.8751 -0.2399
 6756TIP3   OH241902   0.245   2.217   7.037 -0.2713  0.2878 -0.1849
 6756TIP3    H141903   0.177   2.151   7.028  1.1832 -1.5407  1.2422
 6756TIP3    H241904   0.281   2.226   6.949 -0.3413 -1.0545 -0.3809
 6757TIP3   OH241905   5.151   1.045   7.833 -0.5708  0.5291  0.2350
 6757TIP3    H141906   5.199   1.055   7.915  2.0126 -1.4180 -0.9280
 6757TIP3    H241907   5.158   1.131   7.791 -0.0682  0.9247  1.0990
 6758TIP3   OH241908   2.985   1.677   7.833  0.7893 -0.1213 -0.1212
 6758TIP3    H141909   2.904   1.727   7.848  0.4501 -0.6643 -0.1195
 6758TIP3    H241910   3.043   1.703   7.905  0.9789  1.0022 -0.6549
 6759TIP3   OH241911   5.930   4.243   8.033 -0.3217 -0.3748 -0.2568
 6759TIP3    H141912   5.998   4.259   8.097  0.2813 -0.6326 -0.8180
 6759TIP3    H241913   5.865   4.312   8.048  0.2735  0.1359 -0.0131
 6760TIP3   OH241914   3.100   5.410   1.424 -0.6289  0.1701  0.0925
 6760TIP3    H141915   3.089   5.499   1.457 -2.0062 -0.0337  0.2411
 6760TIP3    H241916   3.145   5.421   1.340 -0.0783  0.9424  0.4852
 6761TIP3   OH241917   2.328   5.262   7.014  0.3223 -0.3295  0.2752
 6761TIP3    H141918   2.314   5.357   7.013  1.1971 -0.1927  0.1273
 6761TIP3    H241919   2.394   5.247   6.946 -0.1080 -1.1002  0.0162
 6762TIP3   OH241920   3.190   2.268   0.142 -0.9411 -0.3039 -0.4597
 6762TIP3    H141921   3.134   2.345   0.150 -0.8421 -0.3362  0.7791
 6762TIP3    H241922   3.211   2.244   0.232 -0.7107 -1.6016 -0.8370
 6763TIP3   OH241923   3.006   7.046   7.650 -0.2150 -0.0066  0.3083
 6763TIP3    H141924   2.913   7.068   7.643  0.0629  0.9199 -0.8520
 6763TIP3    H241925   3.037   7.097   7.724 -0.2104  1.3185 -0.5730
 6764TIP3   OH241926   1.582   2.595   0.492 -0.1832 -0.1048  0.6784
 6764TIP3    H141927   1.584   2.647   0.411 -1.2140 -1.6900 -0.4347
 6764TIP3    H241928   1.511   2.631   0.543 -1.5029 -0.9163 -0.4975
 6765TIP3   OH241929   6.000   0.205   0.122 -0.1871  0.0801 -0.1224
 6765TIP3    H141930   6.082   0.221   0.168 -0.5085 -1.5772  1.1182
 6765TIP3    H241931   6.008   0.115   0.090 -0.8480  0.4769 -1.4880
 6766TIP3   OH241932   2.807   3.363   1.712  0.5672  0.5266  0.3661
 6766TIP3    H141933   2.833   3.452   1.687  0.6075  0.3888 -0.1006
 6766TIP3    H241934   2.744   3.375   1.783  1.6960  0.8777  1.3371
 6767TIP3   OH241935   2.622   2.856   2.654 -0.1265  0.1434 -0.7797
 6767TIP3    H141936   2.678   2.886   2.726  1.4764  1.4037 -2.4583
 6767TIP3    H241937   2.622   2.761   2.662 -0.0877  0.2418  0.9088
 6768TIP3   OH241938   1.566   5.125   2.636 -0.5383  0.4088 -0.1880
 6768TIP3    H141939   1.614   5.194   2.681 -0.8641 -0.3136  1.3083
 6768TIP3    H241940   1.477   5.160   2.627 -1.1340 -0.3454  1.9918
 6769TIP3   OH241941   6.601   0.429   0.502  0.0203  0.3139  0.0116
 6769TIP3    H141942   6.516   0.449   0.463  0.1845  0.0560 -0.4811
 6769TIP3    H241943   6.595   0.337   0.528 -0.3626  0.6811  1.3209
 6770TIP3   OH241944   1.099   2.282   1.037  0.1381  0.6525  0.1341
 6770TIP3    H141945   1.100   2.326   1.122  1.4560  2.3074 -0.6882
 6770TIP3    H241946   1.023   2.319   0.992 -1.8551 -1.7685  1.2769
 6771TIP3   OH241947   0.404   3.115   1.341 -0.0842  0.4700 -0.4640
 6771TIP3    H141948   0.310   3.119   1.321  0.4365 -0.4091 -3.7150
 6771TIP3    H241949   0.409   3.126   1.436 -3.5383 -0.4534 -0.0300
 6772TIP3   OH241950   5.667   3.697   6.671  0.3446 -0.1547 -0.2518
 6772TIP3    H141951   5.609   3.641   6.619  0.7112 -0.8857  0.1039
 6772TIP3    H241952   5.749   3.697   6.622  0.0924  0.7815 -0.6933
 6773TIP3   OH241953   6.049   5.151   2.077  0.5632 -0.0362 -0.3507
 6773TIP3    H141954   5.991   5.097   2.130  2.0448 -1.8177 -0.4394
 6773TIP3    H241955   6.128   5.161   2.129  0.1373  2.6580 -0.0795
 6774TIP3   OH241956   5.572   3.752   2.034 -0.3095  0.3160 -0.0460
 6774TIP3    H141957   5.594   3.839   1.999 -0.5505  0.3823 -0.0328
 6774TIP3    H241958   5.481   3.738   2.009  0.0681 -0.4461 -1.0824
 6775TIP3   OH241959   5.405   6.029   0.700 -0.2900  0.4749 -0.6147
 6775TIP3    H141960   5.339   6.013   0.767  0.8009 -0.1942  0.3334
 6775TIP3    H241961   5.474   6.078   0.745 -0.4121  1.7208 -1.7457
 6776TIP3   OH241962   1.332   1.431   0.798  0.0175 -0.2075 -0.6128
 6776TIP3    H141963   1.402   1.482   0.840  0.2457 -1.8004  1.0824
 6776TIP3    H241964   1.278   1.497   0.755  1.1589  1.3169  0.1558
 6777TIP3   OH241965   6.702   1.446   6.870 -0.2042  0.4974  0.3286
 6777TIP3    H141966   6.668   1.394   6.797 -2.1199 -0.2094  1.6396
 6777TIP3    H241967   6.794   1.423   6.875 -0.7749 -2.0527  0.2379
 6778TIP3   OH241968   6.875   0.402   0.815  0.7053  0.7773  0.5276
 6778TIP3    H141969   6.939   0.375   0.880  0.2336 -0.3845  0.5322
 6778TIP3    H241970   6.796   0.351   0.836 -0.2226  2.1388  0.5121
 6779TIP3   OH241971   4.404   3.390   2.556  0.1775 -0.2573  0.1630
 6779TIP3    H141972   4.312   3.378   2.581  1.1250 -2.8708  2.7920
 6779TIP3    H241973   4.423   3.317   2.498  0.9107 -0.4114  0.5890
 6780TIP3   OH241974   6.784   6.057   0.188  0.6083  0.3133 -0.3969
 6780TIP3    H141975   6.874   6.089   0.181  0.7182 -0.1958 -1.8224
 6780TIP3    H241976   6.761   6.033   0.098 -0.3710 -1.1340  0.2069
 6781TIP3   OH241977   6.865   0.328   1.151  0.5777 -0.1537 -1.2898
 6781TIP3    H141978   6.897   0.415   1.129 -1.6326  0.9428 -0.4745
 6781TIP3    H241979   6.769   0.337   1.150  0.2921 -2.5735 -1.1634
 6782TIP3   OH241980   5.570   4.362   2.229  0.9437 -0.1819 -0.2561
 6782TIP3    H141981   5.498   4.303   2.253  0.6101  1.2040  2.4778
 6782TIP3    H241982   5.648   4.322   2.269  1.5281 -0.9165 -2.0021
 6783TIP3   OH241983   1.936   0.183   6.833 -0.1830 -0.0540 -0.1290
 6783TIP3    H141984   1.900   0.104   6.793 -2.2274  1.0858 -0.6423
 6783TIP3    H241985   1.943   0.161   6.926 -1.6602 -0.5262 -0.1089
 6784TIP3   OH241986   1.656   0.755   6.440  0.2192  0.2709 -0.3141
 6784TIP3    H141987   1.604   0.746   6.361  0.6195 -0.8997 -0.4711
 6784TIP3    H241988   1.732   0.807   6.413  0.2779  0.0071 -0.6640
 6785TIP3   OH241989   0.809   4.984   7.737  0.3891  0.2505 -0.1931
 6785TIP3    H141990   0.762   5.049   7.790  0.3185 -0.6718  0.9023
 6785TIP3    H241991   0.843   5.035   7.663  0.0510  1.4741  0.4563
 6786TIP3   OH241992   5.434   3.453   1.395 -0.5871 -0.0721  0.0279
 6786TIP3    H141993   5.528   3.467   1.406 -0.7578 -0.0616  1.7032
 6786TIP3    H241994   5.403   3.426   1.482 -1.7502 -2.3606 -0.9971
 6787TIP3   OH241995   3.073   4.262   0.158  0.2386 -0.2601 -0.3516
 6787TIP3    H141996   3.022   4.319   0.101  2.1609  0.8308 -1.0634
 6787TIP3    H241997   3.098   4.188   0.103 -0.3898 -0.7036 -0.0540
 6788TIP3   OH241998   0.938   6.534   5.793  0.0039  0.0710  0.0585
 6788TIP3    H141999   0.892   6.608   5.832  0.1581 -0.4376  1.2798
 6788TIP3    H242000   0.901   6.457   5.836  1.6636 -0.3761  0.7846
 6789TIP3   OH242001   6.643   2.782   0.776 -0.3976  0.5052  0.3089
 6789TIP3    H142002   6.592   2.819   0.704 -0.9522 -0.5094  0.1688
 6789TIP3    H242003   6.671   2.696   0.745  1.6129  1.1006  0.2971
 6790TIP3   OH242004   4.738   6.949   0.724  0.2171  0.1892 -0.2126
 6790TIP3    H142005   4.719   7.040   0.749  0.4348 -0.4619  2.6166
 6790TIP3    H242006   4.820   6.929   0.769  0.4379 -1.2808 -1.2246
 6791TIP3   OH242007   0.428   2.857   8.223  0.4508  0.3094 -0.5878
 6791TIP3    H142008   0.369   2.894   8.290  1.7289  0.5721  0.4435
 6791TIP3    H242009   0.410   2.910   8.145 -1.7725 -0.6316 -0.7997
 6792TIP3   OH242010   4.642   5.383   7.344 -0.4800 -0.3718  0.4150
 6792TIP3    H142011   4.602   5.402   7.428  0.5132  2.7515  0.3048
 6792TIP3    H242012   4.736   5.399   7.358  0.2451 -3.3625 -0.4073
 6793TIP3   OH242013   6.486   2.568   1.317 -0.0092  0.1345  0.9337
 6793TIP3    H142014   6.535   2.552   1.398  1.7464  0.0477 -0.0988
 6793TIP3    H242015   6.508   2.658   1.293  0.4060 -0.2180 -0.0462
 6794TIP3   OH242016   0.021   5.630   7.104 -0.0436  0.6057  0.6373
 6794TIP3    H142017   0.114   5.653   7.104  0.9071 -1.7861 -4.4868
 6794TIP3    H242018  -0.018   5.687   7.038 -1.5074 -0.5547  0.4432
 6795TIP3   OH242019   1.499   4.120   2.949 -0.4744 -0.4970  0.3063
 6795TIP3    H142020   1.494   4.207   2.990 -1.0018 -0.3038 -0.1509
 6795TIP3    H242021   1.592   4.101   2.944 -0.3420  0.1572  0.1780
 6796TIP3   OH242022   1.113   1.765   0.224 -0.3462 -0.6602 -0.3790
 6796TIP3    H142023   1.164   1.817   0.286 -2.8330  1.1828  0.2572
 6796TIP3    H242024   1.072   1.697   0.277 -2.5005  0.9368  0.1159
 6797TIP3   OH242025   1.405   5.613   0.304 -0.1869 -0.6745 -0.3571
 6797TIP3    H142026   1.338   5.674   0.271  0.4853 -0.4192 -1.2774
 6797TIP3    H242027   1.402   5.624   0.399 -0.6163  0.2275 -0.4638
 6798TIP3   OH242028   5.861   3.147   2.291  0.0063 -0.1702  0.0402
 6798TIP3    H142029   5.778   3.163   2.335 -0.8829  0.3115 -1.7144
 6798TIP3    H242030   5.923   3.131   2.362 -0.9884  2.1251  1.5690
 6799TIP3   OH242031   4.807   1.490   7.171  0.5805 -0.0809 -0.3363
 6799TIP3    H142032   4.821   1.523   7.260  2.3115  0.4078 -0.7483
 6799TIP3    H242033   4.785   1.568   7.120 -1.5932 -0.5264 -0.1495
 6800TIP3   OH242034   6.402   2.170   1.943 -0.3893  0.3623  0.5547
 6800TIP3    H142035   6.492   2.145   1.964 -0.1362 -1.3070 -2.0012
 6800TIP3    H242036   6.348   2.116   2.000  0.2570 -1.4536 -0.4588
 6801TIP3   OH242037   4.216   4.220   3.100 -0.2514 -0.1931  0.4497
 6801TIP3    H142038   4.196   4.309   3.070  0.8834 -0.3815 -1.0069
 6801TIP3    H242039   4.220   4.227   3.195  0.8583  1.5834  0.3314
 6802TIP3   OH242040   4.503   0.634   7.918 -0.0938  0.1179 -0.0666
 6802TIP3    H142041   4.466   0.560   7.967 -0.7363  0.4673 -0.0186
 6802TIP3    H242042   4.507   0.603   7.827  0.2985 -0.2219  0.0601
 6803TIP3   OH242043   0.351   3.138   2.030 -0.2374  0.2684 -0.3196
 6803TIP3    H142044   0.288   3.111   1.964 -0.5356 -0.5313  0.2698
 6803TIP3    H242045   0.419   3.071   2.027 -1.6078 -1.3718  2.0239
 6804TIP3   OH242046   1.425   3.202   0.883 -0.0737 -0.2142  0.2088
 6804TIP3    H142047   1.349   3.215   0.827  0.7927  0.0280 -0.9419
 6804TIP3    H242048   1.417   3.270   0.951  0.1057  1.1068 -1.0310
 6805TIP3   OH242049   6.197   5.019   7.815 -0.6403 -0.6061 -0.0754
 6805TIP3    H142050   6.121   4.964   7.834 -1.0610 -0.5020 -1.3687
 6805TIP3    H242051   6.159   5.103   7.790 -0.0476 -0.2237  0.2932
 6806TIP3   OH242052   2.907   3.010   1.457  0.1169  0.6093 -0.0819
 6806TIP3    H142053   2.846   2.964   1.399  0.9321 -0.1802 -0.3375
 6806TIP3    H242054   2.873   3.099   1.461 -1.1184  0.1614 -0.1221
 6807TIP3   OH242055   3.158   6.560   7.665 -0.1995  0.2232 -0.0645
 6807TIP3    H142056   3.131   6.618   7.594 -1.1504  0.9290  0.8447
 6807TIP3    H242057   3.138   6.472   7.632  0.3307  0.4650 -1.0618
 6808TIP3   OH242058   2.731   4.564   7.789 -1.0793 -0.1310 -0.2267
 6808TIP3    H142059   2.750   4.610   7.708  0.3055  1.8207  1.1007
 6808TIP3    H242060   2.813   4.520   7.812 -0.4253  1.8717  1.5962
 6809TIP3   OH242061   5.450   6.193   6.372  0.0684  0.3784  0.0039
 6809TIP3    H142062   5.450   6.197   6.276 -0.0411  0.6350  0.0145
 6809TIP3    H242063   5.390   6.262   6.399  1.4536  1.5087  0.3016
 6810TIP3   OH242064   0.104   3.207   6.936 -0.4634  0.3852  0.3676
 6810TIP3    H142065   0.179   3.264   6.923 -0.8032  0.6152 -0.7560
 6810TIP3    H242066   0.099   3.155   6.856  0.6684 -2.2722  1.8874
 6811TIP3   OH242067   5.788   4.887   0.396  0.2707 -0.0650 -0.0185
 6811TIP3    H142068   5.804   4.945   0.321  0.7867  1.5390  1.2704
 6811TIP3    H242069   5.875   4.861   0.425  0.0488 -1.2601 -0.3791
 6812TIP3   OH242070   0.316   4.392   6.903  0.4820 -0.3129  1.0493
 6812TIP3    H142071   0.276   4.467   6.948 -0.1746 -0.1203  0.1696
 6812TIP3    H242072   0.327   4.422   6.813  0.6271 -1.1275  0.7909
 6813TIP3   OH242073   0.551   6.364   7.884  0.5590 -0.7507  0.5518
 6813TIP3    H142074   0.472   6.312   7.900 -0.4787  0.8491  0.9980
 6813TIP3    H242075   0.546   6.388   7.792  1.0844 -1.4965  0.3238
 6814TIP3   OH242076   6.180   5.569   0.686  0.2480 -0.1731  0.6525
 6814TIP3    H142077   6.146   5.486   0.653  2.7336 -1.4317  0.9566
 6814TIP3    H242078   6.196   5.621   0.607  0.6946 -0.8549  0.2792
 6815TIP3   OH242079   6.956   4.313   2.093  0.2114  0.6259 -0.2181
 6815TIP3    H142080   6.870   4.279   2.068  0.4229 -0.5858  0.5959
 6815TIP3    H242081   7.018   4.248   2.061  0.6612  0.3912  1.0541
 6816TIP3   OH242082   5.329   1.719   8.050  0.5044 -0.0461  0.0468
 6816TIP3    H142083   5.343   1.653   8.119  0.2609  0.7171  0.8441
 6816TIP3    H242084   5.257   1.683   7.998  2.1682 -1.7265 -1.2388
 6817TIP3   OH242085   2.011   5.175   7.873 -0.8355 -0.2415 -0.0163
 6817TIP3    H142086   1.964   5.258   7.861 -0.2267  0.0658 -0.3041
 6817TIP3    H242087   1.981   5.143   7.958 -0.1315  0.9175  0.6974
 6818TIP3   OH242088   6.636   4.309   7.986  0.4445 -0.0502  0.2603
 6818TIP3    H142089   6.687   4.389   8.003 -0.6434  1.0157 -1.2328
 6818TIP3    H242090   6.702   4.244   7.962  1.1771  1.2067 -1.3408
 6819TIP3   OH242091   2.175   5.355   7.515 -0.3549 -0.5442 -0.0259
 6819TIP3    H142092   2.230   5.388   7.444 -0.3057 -0.9192 -0.1627
 6819TIP3    H242093   2.227   5.369   7.594 -0.6512  0.4316  0.0186
 6820TIP3   OH242094   2.030   0.360   5.538 -0.2183 -0.0143 -0.5825
 6820TIP3    H142095   2.012   0.445   5.579  0.0076 -0.3144  0.1666
 6820TIP3    H242096   2.126   0.358   5.528 -0.2055 -0.2606 -0.4155
 6821TIP3   OH242097   0.989   5.680   8.190 -0.0452  0.2558  0.3607
 6821TIP3    H142098   0.920   5.738   8.157  0.5672 -0.1527 -1.7793
 6821TIP3    H242099   0.960   5.656   8.278 -0.8118  2.9711  0.9162
 6822TIP3   OH242100   1.634   0.180   7.658 -0.0326 -0.2038  0.4449
 6822TIP3    H142101   1.593   0.258   7.619  1.0045 -0.0137 -0.3000
 6822TIP3    H242102   1.698   0.216   7.721  0.2393 -0.4548  0.3136
 6823TIP3   OH242103   1.980   1.665   1.708 -0.3585  0.9234  0.0074
 6823TIP3    H142104   2.021   1.750   1.725 -1.2360  1.1631  1.0196
 6823TIP3    H242105   1.924   1.680   1.632  1.0687  0.6835 -1.1608
 6824TIP3   OH242106   6.617   1.725   1.799  0.0977  0.4800 -0.4633
 6824TIP3    H142107   6.585   1.739   1.710  3.3760 -0.0454 -1.8689
 6824TIP3    H242108   6.656   1.809   1.823 -0.0474  0.3673  0.1659
 6825TIP3   OH242109   6.831   2.039   7.351  0.3022  0.0283  0.3670
 6825TIP3    H142110   6.808   1.966   7.407 -0.1358 -0.7758 -0.8148
 6825TIP3    H242111   6.927   2.041   7.352  0.5457 -2.7393 -2.1472
 6826TIP3   OH242112   5.796   6.560   7.575 -0.0135  0.4640  0.0935
 6826TIP3    H142113   5.861   6.630   7.572  1.7487 -1.1051 -3.0737
 6826TIP3    H242114   5.835   6.494   7.632 -0.1707  0.6869  0.4636
 6827TIP3   OH242115   1.241   2.199   1.543 -0.0283  0.2145  0.5031
 6827TIP3    H142116   1.181   2.141   1.497 -0.3595  1.8131 -1.2020
 6827TIP3    H242117   1.313   2.143   1.571 -0.5764 -1.1009 -0.6263
 6828TIP3   OH242118   3.287   6.761   0.561 -0.4308  0.3855 -0.2177
 6828TIP3    H142119   3.259   6.701   0.492 -0.6153 -0.1734  0.3293
 6828TIP3    H242120   3.381   6.768   0.550 -0.4068 -0.0078 -0.3000
 6829TIP3   OH242121   3.458   2.108   6.835 -0.8318 -0.0467  0.2359
 6829TIP3    H142122   3.521   2.047   6.797 -0.0942  0.7734  0.1251
 6829TIP3    H242123   3.446   2.077   6.925 -1.1672 -0.8949 -0.0946
 6830TIP3   OH242124   5.223   1.786   2.538 -0.1412 -0.2262 -0.1000
 6830TIP3    H142125   5.309   1.772   2.497 -0.5371  0.7681 -1.3465
 6830TIP3    H242126   5.222   1.879   2.560 -0.3668 -0.5313  1.2197
 6831TIP3   OH242127   1.306   5.857   7.855 -0.3173  0.0454  0.0824
 6831TIP3    H142128   1.298   5.932   7.914  0.2005 -0.0569  0.2860
 6831TIP3    H242129   1.386   5.812   7.884 -0.2167 -0.1649 -0.5098
 6832TIP3   OH242130   6.063   0.846   1.876 -0.0881  0.3050  0.1060
 6832TIP3    H142131   6.060   0.757   1.841  0.2243  0.0649  0.6736
 6832TIP3    H242132   6.031   0.837   1.966  1.6242  0.4610  0.7547
 6833TIP3   OH242133   6.190   3.955   7.857  0.1677 -0.0209  0.1030
 6833TIP3    H142134   6.204   3.991   7.945 -1.7673 -2.0651  1.3453
 6833TIP3    H242135   6.095   3.962   7.843  0.2241 -1.2401 -1.1196
 6834TIP3   OH242136   6.054   3.333   7.476 -0.1606 -0.1657  0.2732
 6834TIP3    H142137   6.107   3.309   7.552 -0.9733  0.4019  1.0301
 6834TIP3    H242138   6.115   3.331   7.402  0.5353 -1.1639  0.8646
 6835TIP3   OH242139   4.002   6.151   6.678  0.1170  0.2988 -0.2368
 6835TIP3    H142140   4.010   6.163   6.583  0.6201  0.6700 -0.1507
 6835TIP3    H242141   3.960   6.231   6.709 -1.1091 -0.2999 -0.2784
 6836TIP3   OH242142   2.622   5.323   1.338  0.3115 -0.3120 -0.0467
 6836TIP3    H142143   2.599   5.242   1.293  0.9332 -0.1469 -0.6843
 6836TIP3    H242144   2.686   5.297   1.404 -0.5470 -0.5441  0.7125
 6837TIP3   OH242145   2.817   3.744   0.479  0.2200 -0.7138  0.1795
 6837TIP3    H142146   2.799   3.652   0.497  0.6722 -1.2066 -1.6805
 6837TIP3    H242147   2.913   3.749   0.472  0.0984 -0.7795 -2.6978
 6838TIP3   OH242148   1.227   2.661   2.187  0.1115  0.0877  0.2605
 6838TIP3    H142149   1.279   2.732   2.224  2.5353 -0.1031 -2.4376
 6838TIP3    H242150   1.239   2.588   2.248 -2.4444  1.7994  3.0917
 6839TIP3   OH242151   4.469   1.446   1.749 -0.1013 -0.3052 -0.1017
 6839TIP3    H142152   4.494   1.527   1.794  1.5377 -0.6575 -0.2967
 6839TIP3    H242153   4.449   1.385   1.820  0.7846 -0.3515  0.1202
 6840TIP3   OH242154   2.893   3.094   0.059 -0.4901  0.4030  0.0062
 6840TIP3    H142155   2.877   3.012   0.011  0.5092  0.5583 -0.6297
 6840TIP3    H242156   2.891   3.162  -0.009 -2.4780  1.0995  0.6775
 6841TIP3   OH242157   3.849   0.658   1.923 -0.2142 -0.1235  0.3097
 6841TIP3    H142158   3.837   0.564   1.914 -0.3937 -0.0917  0.2137
 6841TIP3    H242159   3.877   0.670   2.014 -2.9192 -0.0113  1.2248
 6842TIP3   OH242160   4.439   0.068   7.336 -0.5847  0.2978 -0.2530
 6842TIP3    H142161   4.356   0.113   7.325 -0.2950  1.2471  1.0755
 6842TIP3    H242162   4.417  -0.016   7.376 -0.8347  1.1251  1.4212
 6843TIP3   OH242163   2.346   3.974   1.745 -0.0926  0.2232 -0.0357
 6843TIP3    H142164   2.416   3.919   1.782  0.2975 -0.4502 -1.6788
 6843TIP3    H242165   2.265   3.932   1.773  0.1411  0.6669  1.3901
 6844TIP3   OH242166   3.176   0.155   2.328 -0.5101 -0.2209  0.5167
 6844TIP3    H142167   3.233   0.079   2.317 -0.2863 -0.0045  0.1629
 6844TIP3    H242168   3.116   0.152   2.252  0.2994  0.6378 -0.1838
 6845TIP3   OH242169   0.862   4.156   0.919 -0.1165 -0.4291 -0.1034
 6845TIP3    H142170   0.905   4.157   1.005  0.2996  1.9262 -0.2664
 6845TIP3    H242171   0.913   4.094   0.867  0.5862 -0.7086  0.8824
 6846TIP3   OH242172   0.607   5.729   2.599 -0.2831  0.7899  0.5093
 6846TIP3    H142173   0.644   5.700   2.515 -0.8306  2.3256 -0.3065
 6846TIP3    H242174   0.677   5.779   2.640 -0.3208  0.8021  0.5585
 6847TIP3   OH242175   4.448   2.057   7.721 -0.4144  0.0056 -0.4327
 6847TIP3    H142176   4.509   2.014   7.781  0.3051  2.4738  0.7345
 6847TIP3    H242177   4.500   2.075   7.643 -0.4974 -0.5040 -0.6094
 6848TIP3   OH242178   0.551   6.962   2.424  0.5757  0.2936  0.7233
 6848TIP3    H142179   0.566   6.899   2.354 -0.8748  1.1314 -0.3937
 6848TIP3    H242180   0.635   7.006   2.435  0.7421  0.3820 -0.7455
 6849TIP3   OH242181   6.154   1.296   6.990  0.4116  0.4059  0.2259
 6849TIP3    H142182   6.147   1.381   6.946 -1.1223 -0.2522 -0.8869
 6849TIP3    H242183   6.067   1.279   7.025  0.6912 -0.7205  0.4319
 6850TIP3   OH242184   2.940   6.062   1.287  0.1183 -1.0409  0.1635
 6850TIP3    H142185   2.908   6.087   1.374  2.4401 -0.2918  0.8731
 6850TIP3    H242186   2.880   6.106   1.226 -0.7845 -0.5366  1.3723
 6851TIP3   OH242187   2.256   2.196   0.049  0.0324 -0.2142 -0.6033
 6851TIP3    H142188   2.278   2.154  -0.034 -2.7029 -0.4647 -1.3090
 6851TIP3    H242189   2.203   2.131   0.095 -1.3952  1.1698 -0.2205
 6852TIP3   OH242190   3.760   3.080   0.043 -0.1873  0.0461 -0.0539
 6852TIP3    H142191   3.701   3.006   0.028  0.4799 -0.7556  1.0819
 6852TIP3    H242192   3.794   3.103  -0.043 -1.0407 -0.4324 -0.5256
 6853TIP3   OH242193   4.508   4.212   2.449 -0.1193 -0.4917 -0.1034
 6853TIP3    H142194   4.579   4.232   2.389 -0.4070  2.0256  0.2985
 6853TIP3    H242195   4.446   4.284   2.438 -0.4675 -0.2614  2.7473
 6854TIP3   OH242196   4.781   6.579   7.383  1.0526 -0.0560  0.1983
 6854TIP3    H142197   4.832   6.503   7.356  0.9330  0.2567 -0.9620
 6854TIP3    H242198   4.764   6.626   7.302 -1.0481 -0.1357  0.5273
 6855TIP3   OH242199   4.474   1.895   0.034 -0.6973 -0.3949  0.3125
 6855TIP3    H142200   4.504   1.981   0.064 -0.8548 -0.5933  1.0400
 6855TIP3    H242201   4.428   1.914  -0.048  1.0542 -0.0332 -0.6472
 6856TIP3   OH242202   0.689   6.585   0.630  0.2300  0.1524  0.1039
 6856TIP3    H142203   0.690   6.661   0.688  2.0525  0.7131 -0.5946
 6856TIP3    H242204   0.664   6.620   0.544  0.4146 -0.1688 -0.0824
 6857TIP3   OH242205   1.988   6.910   7.730  0.4676  0.6116 -0.1235
 6857TIP3    H142206   2.069   6.957   7.749  1.1212 -0.8536  0.9144
 6857TIP3    H242207   1.920   6.957   7.778  0.9905  0.8451  0.3925
 6858TIP3   OH242208   2.334   6.884   0.239 -0.0702 -0.0125 -0.2064
 6858TIP3    H142209   2.364   6.960   0.288 -0.5810 -0.4844  0.8761
 6858TIP3    H242210   2.345   6.909   0.147 -0.1320  1.3132  0.1252
 6859TIP3   OH242211   3.831   4.182   0.803 -0.2925 -0.1000 -0.5742
 6859TIP3    H142212   3.901   4.246   0.795  0.8928 -1.2212  0.3423
 6859TIP3    H242213   3.771   4.221   0.867 -0.4683  0.8116 -1.2696
 6860TIP3   OH242214   5.493   6.902   7.849 -0.4112  0.0006  0.2230
 6860TIP3    H142215   5.418   6.899   7.789 -0.0606 -0.3938 -0.2113
 6860TIP3    H242216   5.528   6.991   7.840 -0.2472 -0.1129 -0.3143
 6861TIP3   OH242217   0.890   5.476   7.452 -0.2578  0.0795 -0.0890
 6861TIP3    H142218   0.957   5.460   7.385 -0.5790 -0.3038 -0.3246
 6861TIP3    H242219   0.926   5.546   7.506 -0.3749  1.0483 -1.2068
 6862TIP3   OH242220   6.740   0.478   2.171  0.2581  0.3559 -0.1946
 6862TIP3    H142221   6.668   0.455   2.113  1.1660  0.2891 -1.3329
 6862TIP3    H242222   6.746   0.404   2.232 -1.9035  1.2792  1.2368
 6863TIP3   OH242223   5.454   4.174   2.430 -0.1706  0.3893  0.3742
 6863TIP3    H142224   5.505   4.093   2.438 -1.0947 -0.1730  0.6838
 6863TIP3    H242225   5.469   4.220   2.514 -1.3958 -0.5104  1.1093
 6864TIP3   OH242226   3.063   2.333   7.481  0.3338  0.0308  0.3345
 6864TIP3    H142227   3.019   2.401   7.532  0.1827 -0.2246  0.5461
 6864TIP3    H242228   3.156   2.350   7.495  0.3058 -0.7172  1.6328
 6865TIP3   OH242229   4.310   4.292   1.370 -0.0703 -0.4634  0.0620
 6865TIP3    H142230   4.221   4.261   1.353 -0.5188  0.8905 -0.1740
 6865TIP3    H242231   4.366   4.234   1.317 -0.8532 -0.9213 -0.2873
 6866TIP3   OH242232   6.144   6.248   2.520 -0.5896  1.0310  0.3955
 6866TIP3    H142233   6.107   6.160   2.522 -0.0716  0.8189  1.4371
 6866TIP3    H242234   6.219   6.241   2.460 -1.0178  0.9621 -0.1329
 6867TIP3   OH242235   4.822   3.718   1.413  0.4271 -0.6418  0.0344
 6867TIP3    H142236   4.834   3.667   1.493 -0.0296  0.2262  0.6703
 6867TIP3    H242237   4.905   3.764   1.402 -0.0640  0.5302  0.9641
 6868TIP3   OH242238   2.855   4.050   8.161  0.5412 -0.0834  0.0393
 6868TIP3    H142239   2.837   4.085   8.074  2.6196  0.6587 -0.1532
 6868TIP3    H242240   2.798   4.101   8.219 -0.9689 -0.6855 -0.8539
 6869TIP3   OH242241   0.916   0.059   2.265  0.2146  0.6144  0.3383
 6869TIP3    H142242   0.973   0.008   2.209  3.6308  2.2543  2.0007
 6869TIP3    H242243   0.882   0.129   2.209  2.7379  1.6311 -0.0531
 6870TIP3   OH242244   0.861   6.485   8.118  0.0248 -0.4982 -1.2095
 6870TIP3    H142245   0.780   6.446   8.151 -0.1338  0.4665 -0.4239
 6870TIP3    H242246   0.832   6.551   8.055  0.2425 -0.7523 -1.5820
 6871TIP3   OH242247   6.897   6.792   1.619 -0.2327 -0.1728 -0.6940
 6871TIP3    H142248   6.912   6.731   1.691  1.1732  0.7529 -0.1608
 6871TIP3    H242249   6.828   6.851   1.651  1.0659  0.8491  0.3441
 6872TIP3   OH242250   1.327   0.043   5.143  0.2131 -0.3105 -0.0680
 6872TIP3    H142251   1.376  -0.011   5.206  1.2379  1.5672  0.8225
 6872TIP3    H242252   1.287   0.111   5.197 -1.6281 -0.5410 -1.0793
 6873TIP3   OH242253   3.421   1.395   1.298 -0.1480  0.3933 -0.4131
 6873TIP3    H142254   3.404   1.362   1.387  1.3687  2.5152  0.7449
 6873TIP3    H242255   3.503   1.353   1.273 -0.5981 -0.2394 -0.8875
 6874TIP3   OH242256   2.876   0.863   0.333  0.3815  0.1683  0.5519
 6874TIP3    H142257   2.949   0.830   0.385 -0.4560 -1.2138  0.9058
 6874TIP3    H242258   2.915   0.931   0.278  1.8055 -0.1089  1.1661
 6875TIP3   OH242259   3.090   1.735   8.075  0.4698  0.2563 -0.3364
 6875TIP3    H142260   3.089   1.685   8.157  0.1312 -0.9744 -1.0758
 6875TIP3    H242261   3.181   1.730   8.046  0.8836  1.7652  0.5707
 6876TIP3   OH242262   1.805   1.118   6.988 -0.1163  0.2247  0.9944
 6876TIP3    H142263   1.766   1.192   6.941  0.1722 -1.3954 -2.0281
 6876TIP3    H242264   1.882   1.156   7.031  0.5949  1.5838 -1.2749
 6877TIP3   OH242265   1.883   6.100   7.616 -0.0204 -0.9583  0.1229
 6877TIP3    H142266   1.891   6.186   7.574 -3.8771 -1.0832 -1.1851
 6877TIP3    H242267   1.921   6.040   7.552  0.3143 -0.5045 -0.1201
 6878TIP3   OH242268   6.575   6.454   2.512  0.6995  0.3763 -0.3246
 6878TIP3    H142269   6.582   6.501   2.595  0.6779  2.2247 -1.3112
 6878TIP3    H242270   6.651   6.484   2.462  0.8906 -0.9653 -0.8608
 6879TIP3   OH242271   1.759   6.050   7.847 -0.2653  0.3465 -0.3490
 6879TIP3    H142272   1.827   6.008   7.899 -0.3437  0.4951 -0.1276
 6879TIP3    H242273   1.798   6.058   7.759 -0.4267 -0.6227 -0.5227
 6880TIP3   OH242274   2.788   2.086   7.674 -0.4686  0.4169 -0.1208
 6880TIP3    H142275   2.803   2.088   7.580  1.2629 -1.3051  0.0400
 6880TIP3    H242276   2.874   2.103   7.713 -0.9710  0.2540  1.1298
 6881TIP3   OH242277   5.583   4.568   2.036  0.1416 -0.0333  0.4003
 6881TIP3    H142278   5.562   4.526   1.953 -2.1637 -0.1597  0.9948
 6881TIP3    H242279   5.573   4.499   2.101 -1.0208  0.7629  1.0963
 6882TIP3   OH242280   4.922   4.017   3.150  0.1714 -0.5828 -0.0408
 6882TIP3    H142281   4.873   4.049   3.074 -1.2610 -0.5221  0.8560
 6882TIP3    H242282   4.878   3.935   3.174  0.8971 -0.8427  0.4285
 6883TIP3   OH242283   4.968   3.205   8.147  0.0296  0.5833  0.1182
 6883TIP3    H142284   5.055   3.173   8.168  0.0875  1.3631  1.1447
 6883TIP3    H242285   4.925   3.217   8.232 -1.6045 -1.1535 -0.3831
 6884TIP3   OH242286   6.200   6.363   6.393  0.4297 -0.0896  0.4750
 6884TIP3    H142287   6.191   6.338   6.301  0.9911 -1.0364  0.6672
 6884TIP3    H242288   6.161   6.451   6.397 -1.8946 -0.9898 -0.1914
 6885TIP3   OH242289   5.908   2.868   0.112 -0.1373  0.2521  0.1374
 6885TIP3    H142290   5.968   2.807   0.156 -0.7152  1.0740  2.2067
 6885TIP3    H242291   5.870   2.817   0.040  0.5987 -1.3070  0.7994
 6886TIP3   OH242292   4.870   0.735   7.040  0.6397  0.2119  0.5873
 6886TIP3    H142293   4.957   0.727   7.003  1.3020 -0.6091  2.2105
 6886TIP3    H242294   4.810   0.715   6.968  1.6816  2.3812 -0.9958
 6887TIP3   OH242295   1.615   2.292   7.104 -0.1715  0.7245  0.0787
 6887TIP3    H142296   1.630   2.385   7.092  2.0619  0.6364  1.5099
 6887TIP3    H242297   1.693   2.250   7.066 -0.0544 -0.3678  1.4340
 6888TIP3   OH242298   6.385   3.940   0.594 -0.2287 -0.1938 -0.7251
 6888TIP3    H142299   6.377   3.855   0.550  0.7417  0.8423 -3.0453
 6888TIP3    H242300   6.325   3.998   0.546 -0.7572  0.5142  0.7204
 6889TIP3   OH242301   6.773   4.188   1.945  0.1359  0.2378  0.1571
 6889TIP3    H142302   6.830   4.134   1.890  0.2933 -0.3640  0.9047
 6889TIP3    H242303   6.726   4.244   1.882 -1.4722 -2.0787 -0.8292
 6890TIP3   OH242304   2.072   3.160   2.183  0.7175 -0.0231  0.1081
 6890TIP3    H142305   2.155   3.198   2.212  0.3927 -0.2128  1.3298
 6890TIP3    H242306   2.032   3.126   2.263  0.3360 -1.6526 -0.7381
 6891TIP3   OH242307   1.091   5.236   7.662  0.5304 -0.4300  0.6401
 6891TIP3    H142308   1.012   5.183   7.650 -0.1345  0.2958  1.6771
 6891TIP3    H242309   1.134   5.199   7.739  1.0021 -0.5656  0.3186
 6892TIP3   OH242310   2.196   3.275   0.035 -0.2388  0.0266 -0.4068
 6892TIP3    H142311   2.108   3.250   0.064 -0.5848  1.1752 -0.4409
 6892TIP3    H242312   2.182   3.343  -0.031  0.6661  0.0255 -0.6159
 6893TIP3   OH242313   4.162   4.428   7.360 -0.1236  0.5698 -0.3027
 6893TIP3    H142314   4.087   4.452   7.415 -1.3346  0.4740 -1.8348
 6893TIP3    H242315   4.203   4.355   7.406 -0.8398  0.7643  0.6767
 6894TIP3   OH242316   1.662   4.001   2.045 -0.5697  0.0761  0.3172
 6894TIP3    H142317   1.733   3.936   2.039 -0.4043  0.1880  0.9480
 6894TIP3    H242318   1.705   4.085   2.026 -0.6414  0.0836  0.1869
 6895TIP3   OH242319   1.238   0.438   0.042  0.5159  0.3216  0.8972
 6895TIP3    H142320   1.199   0.358   0.007  0.7524  1.3680 -1.9569
 6895TIP3    H242321   1.328   0.413   0.064  0.7417 -0.1302 -0.4350
 6896TIP3   OH242322   4.805   6.418   1.041 -0.4170  0.1352 -0.3181
 6896TIP3    H142323   4.770   6.403   0.953 -0.5640  0.4354 -0.3113
 6896TIP3    H242324   4.730   6.409   1.099 -0.3467  0.0790 -0.2335
 6897TIP3   OH242325   6.130   5.545   7.921 -0.5723 -0.3238 -0.5366
 6897TIP3    H142326   6.175   5.574   8.000 -1.9344 -0.5984  0.3639
 6897TIP3    H242327   6.175   5.590   7.850  0.8338 -0.2602  0.3582
 6898TIP3   OH242328   0.039   2.068   7.430 -0.7084  0.1076  0.0273
 6898TIP3    H142329   0.008   2.017   7.505  2.0851  0.2146  1.3999
 6898TIP3    H242330   0.039   2.158   7.461  0.2140  0.1860 -0.1563
 6899TIP3   OH242331   6.538   0.790   1.233 -0.3144  0.6821 -0.0375
 6899TIP3    H142332   6.556   0.846   1.308  1.8158  1.3717 -0.9762
 6899TIP3    H242333   6.620   0.787   1.184 -1.5348  0.0649 -2.2306
 6900TIP3   OH242334   3.355   3.508   2.448 -0.1271  0.5926  0.0390
 6900TIP3    H142335   3.325   3.598   2.463 -1.3790  0.4837 -1.5155
 6900TIP3    H242336   3.284   3.467   2.399  0.8256 -0.9810 -0.1059
 6901TIP3   OH242337   0.192   2.655   6.876 -0.5051 -0.4904 -0.4343
 6901TIP3    H142338   0.206   2.602   6.955  0.4488 -1.2989 -1.1246
 6901TIP3    H242339   0.182   2.745   6.909  0.2423 -0.7654  0.5947
 6902TIP3   OH242340   4.777   1.082   7.786 -0.0081 -0.0064  0.0139
 6902TIP3    H142341   4.834   1.099   7.711 -0.5612  1.1163 -0.1810
 6902TIP3    H242342   4.809   1.000   7.823  0.4702 -0.4158 -1.2691
 6903TIP3   OH242343   3.803   5.941   1.878 -0.1386 -0.0708 -0.3507
 6903TIP3    H142344   3.890   5.923   1.912 -0.0112 -0.5595 -0.9191
 6903TIP3    H242345   3.760   5.993   1.946  0.8012  0.6981 -0.3347
 6904TIP3   OH242346   5.448   6.484   2.599 -0.3017  0.0235  0.1469
 6904TIP3    H142347   5.414   6.548   2.536  1.8667  0.5983 -0.5065
 6904TIP3    H242348   5.507   6.534   2.654  1.3356 -1.3535 -0.2850
 6905TIP3   OH242349   6.509   4.812   7.416  0.3915  0.4100  0.1061
 6905TIP3    H142350   6.472   4.863   7.488  0.6302 -0.2744  0.7184
 6905TIP3    H242351   6.527   4.726   7.454  0.0820 -0.1113 -0.8882
 6906TIP3   OH242352   3.167   6.273   1.092 -0.3136 -0.3661  0.0246
 6906TIP3    H142353   3.175   6.197   1.034 -1.7860  0.0855 -0.8309
 6906TIP3    H242354   3.073   6.279   1.110  0.0280 -0.0659  1.9174
 6907TIP3   OH242355   4.159   4.574   1.755  0.0392 -0.1890  0.2666
 6907TIP3    H142356   4.210   4.550   1.832 -0.7195  0.7000  1.0823
 6907TIP3    H242357   4.207   4.537   1.681  0.7479 -1.1253  1.1697
 6908TIP3   OH242358   6.187   0.809   2.269 -0.3060  0.0534 -0.0583
 6908TIP3    H142359   6.233   0.735   2.230 -2.4249 -1.0222 -0.6648
 6908TIP3    H242360   6.154   0.775   2.352  1.9431  1.5421  1.5670
 6909TIP3   OH242361   2.386   5.450   0.624 -0.4033  0.0689  0.3495
 6909TIP3    H142362   2.324   5.402   0.569  0.8213 -0.2153 -0.8220
 6909TIP3    H242363   2.470   5.404   0.612  0.0150  0.2881  2.0883
 6910TIP3   OH242364   4.543   3.428   7.408 -0.3687 -0.6112 -0.3470
 6910TIP3    H142365   4.478   3.459   7.471 -1.8731 -0.7568 -1.7458
 6910TIP3    H242366   4.567   3.341   7.439  0.7352  0.2304  1.3059
 6911TIP3   OH242367   7.029   1.941   1.368 -0.3623  0.1583 -0.2456
 6911TIP3    H142368   6.997   1.962   1.456 -1.3943 -0.5178 -0.4385
 6911TIP3    H242369   7.066   2.022   1.336 -0.1577  0.4700  0.7415
 6912TIP3   OH242370   2.208   0.536   7.050  0.0651 -0.2258  0.4535
 6912TIP3    H142371   2.262   0.556   6.973 -0.0758  0.2860  0.4801
 6912TIP3    H242372   2.271   0.506   7.115  0.4445  1.1076  0.7413
 6913TIP3   OH242373   2.580   2.975   0.758  0.0803  0.1268  0.0720
 6913TIP3    H142374   2.558   2.965   0.665 -2.2361 -0.0384  0.5656
 6913TIP3    H242375   2.592   2.885   0.789 -0.5748  0.0783  0.2089
 6914TIP3   OH242376   0.229   3.994   8.006  0.2349 -0.1180  0.3274
 6914TIP3    H142377   0.256   3.928   7.943 -0.2697  0.5339 -0.6002
 6914TIP3    H242378   0.161   3.952   8.059 -0.5509 -0.1563 -0.6802
 6915TIP3   OH242379   6.211   1.966   2.604  0.6928 -0.2006  0.4861
 6915TIP3    H142380   6.299   1.950   2.573  1.2250  0.6387  1.4929
 6915TIP3    H242381   6.220   1.977   2.699 -0.4323  0.2752  0.5592
 6916TIP3   OH242382   5.056   4.655   0.418 -0.1256  0.1149  0.2162
 6916TIP3    H142383   5.148   4.680   0.427 -0.2138  0.1516  1.0623
 6916TIP3    H242384   5.025   4.641   0.507 -0.5902 -1.2091 -0.1200
 6917TIP3   OH242385   1.086   0.685   5.764  0.1073  0.3865  0.0479
 6917TIP3    H142386   1.099   0.774   5.730  1.0998 -0.2606 -1.4193
 6917TIP3    H242387   1.106   0.692   5.857  0.0006  1.7283 -0.0047
 6918TIP3   OH242388   6.174   6.154   6.654 -0.1719  0.7063  0.1399
 6918TIP3    H142389   6.150   6.084   6.593 -0.0016 -1.1410  2.0923
 6918TIP3    H242390   6.115   6.144   6.728 -0.1872  2.7108  0.4662
 6919TIP3   OH242391   6.905   4.226   0.317 -0.2269  0.2276 -0.1330
 6919TIP3    H142392   6.873   4.257   0.401  0.3064 -0.0749  0.1919
 6919TIP3    H242393   6.991   4.267   0.308 -0.5208  0.7120 -0.7983
 6920TIP3   OH242394   6.851   5.192   1.533 -0.5421 -0.0325 -0.5349
 6920TIP3    H142395   6.943   5.193   1.558 -1.0875 -0.0149  1.7618
 6920TIP3    H242396   6.848   5.232   1.446  1.4396  1.3023 -0.0444
 6921TIP3   OH242397   0.134   2.763   6.504 -0.2207 -0.4603 -0.3792
 6921TIP3    H142398   0.120   2.669   6.499  0.1999 -0.4572 -2.2260
 6921TIP3    H242399   0.046   2.800   6.497 -0.5176 -0.6934  1.5190
 6922TIP3   OH242400   2.943   2.449   6.814  0.0226  0.3676  0.6649
 6922TIP3    H142401   2.924   2.374   6.757  0.9706  0.1859  0.5591
 6922TIP3    H242402   2.900   2.428   6.897 -1.9146  0.9391 -0.1652
 6923TIP3   OH242403   1.008   4.180   2.468 -0.3191 -0.3415 -0.1748
 6923TIP3    H142404   0.932   4.216   2.421  0.3743  1.2532 -0.1196
 6923TIP3    H242405   0.993   4.202   2.560  0.8460  1.2228 -0.3263
 6924TIP3   OH242406   4.797   6.830   2.078  0.1948 -0.6103 -0.7393
 6924TIP3    H142407   4.709   6.801   2.103 -0.7207  2.2135 -0.3199
 6924TIP3    H242408   4.855   6.788   2.142 -1.2970  0.4562  1.4103
 6925TIP3   OH242409   0.966   5.074   6.673 -0.4777 -0.4066 -0.3484
 6925TIP3    H142410   0.986   4.982   6.657 -2.4222 -0.7772 -0.7782
 6925TIP3    H242411   0.910   5.100   6.600  0.4186  1.2747 -0.4941
 6926TIP3   OH242412   5.916   5.816   2.102 -0.9694 -0.0292 -0.4110
 6926TIP3    H142413   5.947   5.877   2.169 -0.7174 -0.5203 -0.0759
 6926TIP3    H242414   5.970   5.835   2.025 -0.9186  0.1975 -0.3192
 6927TIP3   OH242415   3.858   0.372   1.995  0.0429 -0.2781 -0.0199
 6927TIP3    H142416   3.830   0.377   2.087 -2.6244 -0.3534 -0.7598
 6927TIP3    H242417   3.873   0.279   1.979  1.7721 -0.1480  0.6303
 6928TIP3   OH242418   6.899   4.638   1.741 -0.4935  0.1372  0.6785
 6928TIP3    H142419   6.956   4.712   1.759  0.5969 -0.6993  0.7430
 6928TIP3    H242420   6.898   4.632   1.645  1.7768 -1.4961  0.6832
 6929TIP3   OH242421   1.930   3.180   0.693  0.0559 -0.1865 -0.4032
 6929TIP3    H142422   1.865   3.172   0.623  2.5298  1.7902 -3.1521
 6929TIP3    H242423   1.996   3.115   0.671 -0.4523 -1.5979  1.8951
 6930TIP3   OH242424   3.977   5.242   7.430 -0.6587 -0.1888  0.2507
 6930TIP3    H142425   3.914   5.212   7.495 -0.2358 -0.7568  0.4108
 6930TIP3    H242426   4.047   5.177   7.433 -0.9546 -0.6207 -1.2862
 6931TIP3   OH242427   4.734   5.302   2.326 -0.4996 -0.4870 -0.3173
 6931TIP3    H142428   4.762   5.282   2.415 -2.3742  1.2563  0.7605
 6931TIP3    H242429   4.809   5.278   2.271  1.6075  0.4774  1.9347
 6932TIP3   OH242430   6.912   2.346   0.125  0.2467  0.1557 -0.2994
 6932TIP3    H142431   6.969   2.356   0.048  1.8421  1.4597  0.9804
 6932TIP3    H242432   6.964   2.296   0.187 -1.3875 -1.7245 -0.3569
 6933TIP3   OH242433   2.793   6.572   7.249 -0.0377  0.1292 -0.3509
 6933TIP3    H142434   2.702   6.570   7.278  0.4673 -1.5148  1.3001
 6933TIP3    H242435   2.789   6.576   7.153 -1.8311 -0.2009 -0.3059
 6934TIP3   OH242436   4.262   4.438   2.640  0.2632  0.6443  0.1778
 6934TIP3    H142437   4.328   4.438   2.710  1.4578  4.1361 -0.7106
 6934TIP3    H242438   4.211   4.517   2.656  0.1017  1.1539 -2.4235
 6935TIP3   OH242439   0.551   4.675   0.586 -0.3031 -0.4047 -0.4809
 6935TIP3    H142440   0.528   4.582   0.582  0.3162 -0.6038  0.3368
 6935TIP3    H242441   0.618   4.680   0.654  1.4663  0.2692 -2.1569
 6936TIP3   OH242442   6.295   1.816   0.397 -1.0435 -0.0023  0.4327
 6936TIP3    H142443   6.319   1.902   0.431 -0.3433  0.4340 -1.0810
 6936TIP3    H242444   6.365   1.758   0.428 -1.8691 -0.2137  2.0313
 6937TIP3   OH242445   6.593   6.099   7.352 -0.0979 -0.3868  0.3869
 6937TIP3    H142446   6.498   6.101   7.361 -0.1489 -0.9405 -0.0001
 6937TIP3    H242447   6.623   6.041   7.422 -0.0170  0.0018  0.6804
 6938TIP3   OH242448   1.912   3.887   8.101 -0.2918  0.0225 -0.1600
 6938TIP3    H142449   1.879   3.969   8.137 -0.0379 -0.4396  1.1683
 6938TIP3    H242450   1.847   3.822   8.125 -0.3353 -0.2291 -0.9359
 6939TIP3   OH242451   2.541   4.345   1.120 -0.1323 -0.0855 -0.1970
 6939TIP3    H142452   2.502   4.265   1.154  0.3990  0.0806  0.8489
 6939TIP3    H242453   2.633   4.341   1.149  0.1382  0.4451 -0.9556
 6940TIP3   OH242454   5.536   5.839   1.749  0.1591 -0.2767  0.1776
 6940TIP3    H142455   5.467   5.905   1.745  0.6433  0.2300 -2.8595
 6940TIP3    H242456   5.575   5.848   1.836 -1.5140  1.5994  0.7932
 6941TIP3   OH242457   4.689   3.130   6.561  0.4984 -0.0767  0.4174
 6941TIP3    H142458   4.601   3.097   6.548  0.3257 -0.3081  2.0342
 6941TIP3    H242459   4.677   3.219   6.593  0.9218  0.6696 -1.3584
 6942TIP3   OH242460   3.409   1.697   0.633 -0.0463  0.2856  0.0889
 6942TIP3    H142461   3.341   1.630   0.640 -0.0839  0.2329 -0.6191
 6942TIP3    H242462   3.475   1.658   0.576 -0.7071  1.3307 -1.4924
 6943TIP3   OH242463   2.599   0.677   7.629  0.4606  0.4114 -0.2128
 6943TIP3    H142464   2.674   0.631   7.592  0.5307 -0.2091  0.6889
 6943TIP3    H242465   2.540   0.607   7.657 -0.0290  0.8903 -0.0313
 6944TIP3   OH242466   0.725   4.591   2.988  0.3111 -0.6320 -0.2486
 6944TIP3    H142467   0.784   4.538   2.934 -0.3376 -2.6199  0.8767
 6944TIP3    H242468   0.733   4.553   3.076  2.5775  3.4639  1.6050
 6945TIP3   OH242469   5.674   0.748   1.875 -0.0411 -0.1431 -0.3303
 6945TIP3    H142470   5.692   0.710   1.789  0.8629 -0.4268 -0.0242
 6945TIP3    H242471   5.708   0.837   1.870 -0.9979  0.2235 -0.6205
 6946TIP3   OH242472   5.149   2.954   7.405 -0.0151 -0.1450  0.3845
 6946TIP3    H142473   5.237   2.922   7.385 -0.1594 -0.7520  0.7179
 6946TIP3    H242474   5.111   2.973   7.319  1.2410  2.3599  0.2814
 6947TIP3   OH242475   6.347   2.578   0.477  0.7959 -0.4107 -0.0702
 6947TIP3    H142476   6.353   2.537   0.563 -0.0557 -0.1179  0.1443
 6947TIP3    H242477   6.377   2.511   0.416  0.1764 -1.0868  0.3471
 6948TIP3   OH242478   2.221   1.127   1.608  0.5585 -0.3723  0.3940
 6948TIP3    H142479   2.139   1.082   1.629 -0.7450  2.1060  1.0387
 6948TIP3    H242480   2.289   1.063   1.629 -1.1491 -2.2722  0.5439
 6949TIP3   OH242481   2.015   3.352   1.520 -0.3248 -0.1353  0.4614
 6949TIP3    H142482   1.967   3.400   1.587 -0.3494 -1.0776  1.1548
 6949TIP3    H242483   1.960   3.275   1.502  0.9249 -1.3099  1.3709
 6950TIP3   OH242484   3.264   5.041   1.415  0.1569  0.4502 -0.5110
 6950TIP3    H142485   3.193   5.000   1.366  0.2772 -0.6682  0.2270
 6950TIP3    H242486   3.272   4.990   1.495  0.6898  1.5846  0.1935
 6951TIP3   OH242487   4.509   1.236   1.579  0.3282 -0.0813  0.1737
 6951TIP3    H142488   4.509   1.274   1.491  0.2978  0.5074  0.4308
 6951TIP3    H242489   4.505   1.310   1.639  1.4510 -0.4352  0.7056
 6952TIP3   OH242490   5.807   4.119   7.232 -0.0483 -0.0717 -0.0899
 6952TIP3    H142491   5.764   4.186   7.286  1.4059  2.3400 -1.7283
 6952TIP3    H242492   5.899   4.124   7.257 -0.1807 -3.5117  1.6848
 6953TIP3   OH242493   7.006   3.165   2.233 -0.8032 -0.5869 -0.2297
 6953TIP3    H142494   7.075   3.227   2.258 -0.9936  0.2143 -1.6140
 6953TIP3    H242495   6.925   3.215   2.240 -1.0367 -0.9009 -0.6566
 6954TIP3   OH242496   0.437   5.254   7.842  0.3399 -0.8394  0.5613
 6954TIP3    H142497   0.452   5.338   7.885  3.3653 -1.8476  1.7528
 6954TIP3    H242498   0.483   5.261   7.758 -2.3439 -0.1969 -0.9510
 6955TIP3   OH242499   1.684   1.240   7.400  0.2608 -0.1359  0.1058
 6955TIP3    H142500   1.750   1.171   7.397 -0.8691 -1.3953  2.0441
 6955TIP3    H242501   1.675   1.260   7.493 -1.2737  0.8136 -0.2091
 6956TIP3   OH242502   3.036   5.571   2.217  0.2265 -0.7814  0.1787
 6956TIP3    H142503   3.022   5.664   2.199 -0.0517 -1.2163 -2.2586
 6956TIP3    H242504   2.953   5.541   2.255  0.9882  0.3095  2.9046
 6957TIP3   OH242505   4.624   1.567   0.924 -0.0661 -0.2194 -0.0542
 6957TIP3    H142506   4.670   1.546   1.006 -0.7531 -0.2655  0.3244
 6957TIP3    H242507   4.547   1.510   0.925  0.3752 -0.8560 -1.1573
 6958TIP3   OH242508   1.343   0.131   7.717 -0.3522  0.9284 -1.1053
 6958TIP3    H142509   1.437   0.130   7.700  0.0914 -1.4050  0.8149
 6958TIP3    H242510   1.330   0.060   7.780 -3.2945  1.7488 -0.6452
 6959TIP3   OH242511   2.620   1.330   7.624 -0.5668  0.0235  0.1798
 6959TIP3    H142512   2.614   1.310   7.717 -2.5795 -1.2825 -0.1717
 6959TIP3    H242513   2.672   1.410   7.620 -0.2873  0.0200  2.3975
 6960TIP3   OH242514   5.244   1.551   1.114  0.2658 -0.0788  0.6316
 6960TIP3    H142515   5.251   1.494   1.191 -1.5208  0.0408  0.9135
 6960TIP3    H242516   5.274   1.637   1.145  0.6014 -0.2884  0.8894
 6961TIP3   OH242517   1.733   6.607   1.492 -0.1562 -0.6060  0.4256
 6961TIP3    H142518   1.673   6.538   1.463 -0.0850 -0.4544 -0.0913
 6961TIP3    H242519   1.767   6.575   1.575 -0.5574 -0.9345  0.4706
 6962TIP3   OH242520   3.946   5.965   1.348  0.1456 -0.0673 -0.1584
 6962TIP3    H142521   3.890   6.024   1.397 -0.2624  0.5256 -1.3060
 6962TIP3    H242522   4.024   6.016   1.327  0.7149 -0.5950  0.6225
 6963TIP3   OH242523   4.799   6.165   7.225  0.7352 -0.0154  0.4020
 6963TIP3    H142524   4.802   6.079   7.183  0.7102  0.4530 -0.5723
 6963TIP3    H242525   4.706   6.189   7.226  0.8708  0.5990 -0.5849
 6964TIP3   OH242526   2.164   2.016   7.627  0.5253 -0.4738 -0.1296
 6964TIP3    H142527   2.190   1.972   7.708  1.5518 -0.9685 -0.7029
 6964TIP3    H242528   2.071   2.033   7.638  0.5287 -1.0289  0.9262
 6965TIP3   OH242529   2.774   0.017   0.966 -0.2728 -0.3235  0.0914
 6965TIP3    H142530   2.722  -0.018   0.894  1.2187 -1.2398 -0.5961
 6965TIP3    H242531   2.730  -0.014   1.045 -1.6112  0.2114 -0.4283
 6966TIP3   OH242532   6.209   3.705   1.497  0.6032 -0.0805  0.4858
 6966TIP3    H142533   6.185   3.791   1.461  0.7174  0.0348  0.6834
 6966TIP3    H242534   6.231   3.653   1.420  0.0902 -0.0725  0.3284
 6967TIP3   OH242535   4.855   1.892   2.354  0.2473  0.0250 -0.1537
 6967TIP3    H142536   4.761   1.877   2.365  0.5154 -2.0845 -0.3226
 6967TIP3    H242537   4.870   1.978   2.394 -1.4047 -0.4955  1.7698
 6968TIP3   OH242538   1.377   2.111   7.031  0.1700  0.2378  0.0234
 6968TIP3    H142539   1.432   2.184   7.001  0.1601  0.8339  1.3769
 6968TIP3    H242540   1.287   2.141   7.014  0.1422  0.8066  1.1030
 6969TIP3   OH242541   2.508   2.636   7.423 -0.0962 -0.2245  0.0042
 6969TIP3    H142542   2.501   2.541   7.423 -2.5902 -0.1006  0.7661
 6969TIP3    H242543   2.569   2.655   7.494  0.9676 -1.2318 -0.5970
 6970TIP3   OH242544   1.516   2.846   6.824  0.1136 -0.2243  0.6558
 6970TIP3    H142545   1.524   2.889   6.739  0.5337 -3.0945 -0.8921
 6970TIP3    H242546   1.464   2.906   6.877 -1.8006  0.8544 -2.2152
 6971TIP3   OH242547   5.931   4.600   7.870  0.7989  0.0795 -0.4365
 6971TIP3    H142548   5.963   4.512   7.847  0.2328 -0.2881  0.1422
 6971TIP3    H242549   5.840   4.585   7.899  0.2352  1.0356 -1.6294
 6972TIP3   OH242550   4.712   1.678   7.388  0.1660  0.4371 -0.0970
 6972TIP3    H142551   4.617   1.666   7.379  0.1579  0.8895 -0.6630
 6972TIP3    H242552   4.741   1.604   7.442 -0.6060  0.6370  0.6222
 6973TIP3   OH242553   5.844   5.344   6.976  0.8951  0.5503 -0.5322
 6973TIP3    H142554   5.860   5.291   6.899  1.1899 -2.2196  1.3012
 6973TIP3    H242555   5.862   5.286   7.050  0.0285  2.8605  1.6543
 6974TIP3   OH242556   0.881   3.376   2.578  0.0644  0.8489  0.3111
 6974TIP3    H142557   0.876   3.357   2.484  2.8633  1.9088 -0.1509
 6974TIP3    H242558   0.792   3.362   2.610 -0.2496 -3.4411 -1.6762
 6975TIP3   OH242559   4.047   5.558   0.480  0.9321  0.3879 -0.4762
 6975TIP3    H142560   4.028   5.546   0.387 -1.8122  1.0021 -0.0810
 6975TIP3    H242561   3.995   5.490   0.524  1.4553  0.6935  0.6419
 6976TIP3   OH242562   1.018   6.959   6.782  0.0338  0.4688  0.2480
 6976TIP3    H142563   1.109   6.982   6.801 -0.1022  0.7836  0.5268
 6976TIP3    H242564   0.976   6.954   6.868 -0.2790  0.6019  0.1016
 6977TIP3   OH242565   3.151   4.611   2.239  0.2639 -0.0456 -0.6083
 6977TIP3    H142566   3.213   4.662   2.289  0.2546 -1.6252  1.1228
 6977TIP3    H242567   3.084   4.674   2.211  0.8930  1.0835  0.3636
 6978TIP3   OH242568   4.992   2.958   7.155 -0.0901  0.2504 -0.1021
 6978TIP3    H142569   4.901   2.930   7.151 -0.1516  0.4411 -0.0005
 6978TIP3    H242570   5.035   2.910   7.084 -0.8054  2.2310 -1.9452
 6979TIP3   OH242571   6.919   4.891   1.973 -0.6831 -0.2120 -0.0445
 6979TIP3    H142572   6.843   4.832   1.979 -1.1617  0.5000  1.2763
 6979TIP3    H242573   6.900   4.961   2.036  1.1959 -0.1431  0.5060
 6980TIP3   OH242574   5.120   6.175   1.535  0.4352  0.0508  0.1948
 6980TIP3    H142575   5.036   6.219   1.550 -0.7785 -1.9869 -0.3528
 6980TIP3    H242576   5.153   6.214   1.454  0.7854  1.8909  1.1445
 6981TIP3   OH242577   3.712   3.577   2.305  0.2994 -0.0354 -0.0152
 6981TIP3    H142578   3.631   3.626   2.321  1.1315  1.4367 -0.1486
 6981TIP3    H242579   3.730   3.531   2.387  0.7974  1.8607  0.9831
 6982TIP3   OH242580   3.106   4.545   2.884 -0.3899 -0.3644  0.2132
 6982TIP3    H142581   3.034   4.522   2.825  0.3886 -2.2127 -0.0774
 6982TIP3    H242582   3.113   4.471   2.944  0.9990 -0.0161  0.5251
 6983TIP3   OH242583   2.632   2.667   1.813 -0.2744  0.4440 -0.3925
 6983TIP3    H142584   2.546   2.659   1.771 -1.1731 -0.4991  1.4962
 6983TIP3    H242585   2.679   2.587   1.787  0.3786  1.3165 -2.0516
 6984TIP3   OH242586   3.340   3.167   0.582  0.2912 -0.2795 -0.3349
 6984TIP3    H142587   3.281   3.141   0.653 -1.1570  1.6343 -0.7591
 6984TIP3    H242588   3.419   3.198   0.627  0.5222 -1.6946  0.2902
 6985TIP3   OH242589   4.176   4.232   2.322 -0.2937 -0.2852  0.1967
 6985TIP3    H142590   4.207   4.150   2.282 -2.2484 -0.1390 -1.7803
 6985TIP3    H242591   4.249   4.293   2.313 -0.0074 -0.8359 -1.4638
 6986TIP3   OH242592   5.075   5.629   1.637  0.1022 -0.1763  0.2407
 6986TIP3    H142593   5.071   5.542   1.676  1.5780 -0.9740 -1.2687
 6986TIP3    H242594   5.169   5.648   1.632 -0.0748  0.3363 -1.8808
 6987TIP3   OH242595   6.551   0.388   7.445  0.0171  0.5569 -0.0451
 6987TIP3    H142596   6.588   0.313   7.491 -1.1463  0.9920  1.7076
 6987TIP3    H242597   6.605   0.397   7.366  1.1120 -1.1833  0.4515
 6988TIP3   OH242598   0.963   6.899   1.577 -0.1598  0.0818 -0.4343
 6988TIP3    H142599   0.934   6.929   1.490 -1.1480 -0.4076 -0.2849
 6988TIP3    H242600   0.894   6.840   1.606  1.5493 -2.0750 -0.5586
 6989TIP3   OH242601   3.519   4.461   6.673 -0.3199  0.9745  0.3651
 6989TIP3    H142602   3.510   4.544   6.626  0.1890  0.1623 -1.2367
 6989TIP3    H242603   3.432   4.421   6.665 -0.2697  0.8933  0.2269
 6990TIP3   OH242604   1.717   2.926   1.538  0.1029 -0.2637  0.4346
 6990TIP3    H142605   1.780   2.921   1.467  0.0798 -1.8463  0.4817
 6990TIP3    H242606   1.771   2.930   1.618  0.1631 -0.9046  0.4357
 6991TIP3   OH242607   6.472   0.210   6.968 -0.2303 -0.0105 -0.1216
 6991TIP3    H142608   6.525   0.290   6.961  0.6107 -0.6514 -1.4448
 6991TIP3    H242609   6.382   0.241   6.961  0.1245  0.7062 -2.8574
 6992TIP3   OH242610   0.953   1.096   1.105  0.3312  0.2038 -0.0765
 6992TIP3    H142611   1.003   1.154   1.046 -1.1997  1.6452 -0.0066
 6992TIP3    H242612   0.910   1.155   1.167 -0.0450 -1.1332  0.9825
 6993TIP3   OH242613   1.581   2.544   8.127  0.3642 -0.6373 -0.6505
 6993TIP3    H142614   1.664   2.572   8.088 -0.5531  1.4920 -1.2395
 6993TIP3    H242615   1.516   2.559   8.059 -0.7547 -0.3902  0.4304
 6994TIP3   OH242616   3.266   0.840   7.290 -0.2417  0.1274 -0.5561
 6994TIP3    H142617   3.304   0.760   7.325  0.7117  0.6534 -0.3582
 6994TIP3    H242618   3.177   0.815   7.263 -0.1198 -0.8716 -0.0636
 6995TIP3   OH242619   0.313   3.851   6.861  0.7102  0.3104 -0.1340
 6995TIP3    H142620   0.381   3.879   6.799  0.3060 -0.7598 -1.0968
 6995TIP3    H242621   0.338   3.762   6.885 -0.8782 -0.4914 -1.3034
 6996TIP3   OH242622   2.292   6.422   6.706  0.3365 -0.0341 -0.6374
 6996TIP3    H142623   2.337   6.506   6.708  0.4128 -0.0982  1.1516
 6996TIP3    H242624   2.200   6.443   6.721  0.4338 -0.2969  0.4150
 6997TIP3   OH242625   3.470   1.660   0.929 -0.0510  0.4973 -0.1214
 6997TIP3    H142626   3.543   1.714   0.960 -0.4291  1.5277 -0.9485
 6997TIP3    H242627   3.453   1.691   0.840 -1.2583  0.0373 -0.0767
 6998TIP3   OH242628   4.421   6.278   2.091 -0.2899 -0.3530 -0.0471
 6998TIP3    H142629   4.334   6.270   2.054 -0.4831 -0.5752  0.4494
 6998TIP3    H242630   4.428   6.369   2.118 -1.1395 -0.7888  1.7754
 6999TIP3   OH242631   3.204   1.225   7.541  0.3628  0.2317  0.8302
 6999TIP3    H142632   3.255   1.295   7.581 -0.9192  1.9162 -0.3298
 6999TIP3    H242633   3.269   1.169   7.499  1.3829  1.0426  1.2865
 7000TIP3   OH242634   3.917   6.414   7.804  0.0681  0.0423  1.1340
 7000TIP3    H142635   3.857   6.373   7.740  1.9853  0.6730 -1.2271
 7000TIP3    H242636   3.860   6.444   7.874 -2.0634 -1.6786  0.2639
 7001TIP3   OH242637   3.161   6.468   0.622  0.5336 -0.3731  0.6558
 7001TIP3    H142638   3.162   6.524   0.699  0.5326 -1.5557  1.5349
 7001TIP3    H242639   3.137   6.527   0.550 -0.6505  0.5144  1.7344
 7002TIP3   OH242640   6.330   4.486   0.525 -0.0998  0.4388  0.4195
 7002TIP3    H142641   6.332   4.401   0.570 -1.4270 -1.2106 -2.4043
 7002TIP3    H242642   6.420   4.499   0.495  0.0732 -0.0343  0.7068
 7003TIP3   OH242643   3.552   5.754   7.478 -0.1829 -0.0441 -0.1343
 7003TIP3    H142644   3.582   5.826   7.422 -1.6553 -0.7100 -1.8486
 7003TIP3    H242645   3.462   5.778   7.500 -0.6741 -1.3190 -0.6871
 7004TIP3   OH242646   1.330   2.581   7.085  0.3577 -0.2720  0.3989
 7004TIP3    H142647   1.254   2.563   7.030  1.3270 -0.2835 -1.0172
 7004TIP3    H242648   1.297   2.635   7.156 -0.9737 -0.3201 -0.1576
 7005TIP3   OH242649   1.486   3.825   7.531  0.6330  0.1963  0.6498
 7005TIP3    H142650   1.404   3.785   7.558 -0.2874  0.4160 -1.5688
 7005TIP3    H242651   1.481   3.915   7.565 -0.5866  0.5443 -0.3637
 7006TIP3   OH242652   3.321   3.800   7.687  0.3115 -0.1398 -0.1960
 7006TIP3    H142653   3.385   3.834   7.750 -1.1512  0.7170  0.9014
 7006TIP3    H242654   3.238   3.802   7.734 -0.6601 -0.5154 -1.8118
 7007TIP3   OH242655   2.276   0.268   6.327 -0.8170 -0.4850  0.4752
 7007TIP3    H142656   2.344   0.232   6.270  0.2435  0.5155  1.0812
 7007TIP3    H242657   2.194   0.245   6.283 -0.0494  1.4671 -2.2373
 7008TIP3   OH242658   2.229   0.189   7.459 -0.1307 -0.1092  0.3147
 7008TIP3    H142659   2.183   0.272   7.475 -0.6712 -0.3640  0.0818
 7008TIP3    H242660   2.183   0.125   7.513 -0.0247 -0.3597  0.1092
 7009TIP3   OH242661   4.638   2.765   6.852  0.4514  0.5767  0.1970
 7009TIP3    H142662   4.579   2.807   6.915 -0.3590  2.4224 -1.6568
 7009TIP3    H242663   4.686   2.838   6.812  1.5653 -0.6038 -0.7137
 7010TIP3   OH242664   3.445   4.063   7.327  0.1238  0.1456  0.1203
 7010TIP3    H142665   3.449   4.139   7.269  1.2498 -0.7646 -1.0676
 7010TIP3    H242666   3.361   4.022   7.306  0.4015 -0.0291 -0.6984
 7011TIP3   OH242667   4.683   1.924   0.394  0.0802  0.2023 -1.1349
 7011TIP3    H142668   4.652   1.987   0.459  0.1566 -1.6779  0.8872
 7011TIP3    H242669   4.628   1.847   0.408  2.0188 -1.2878 -1.2352
 7012TIP3   OH242670   3.109   2.481   0.801  0.3355 -0.1444 -0.5135
 7012TIP3    H142671   3.097   2.573   0.777 -1.3863 -0.3983 -0.7392
 7012TIP3    H242672   3.093   2.434   0.719  1.5777 -0.6362 -0.4843
 7013TIP3   OH242673   2.590   6.869   0.754  0.3451 -0.1408 -0.7933
 7013TIP3    H142674   2.614   6.895   0.843 -2.5133 -1.3749  0.4522
 7013TIP3    H242675   2.654   6.801   0.731  0.4481 -0.6317  0.8046
 7014TIP3   OH242676   0.387   1.983   7.643 -0.4477 -0.0382  0.4008
 7014TIP3    H142677   0.356   1.993   7.733 -0.2265  1.1766  0.3641
 7014TIP3    H242678   0.350   1.900   7.614 -3.6274  1.2129  0.4033
 7015TIP3   OH242679   6.957   2.893   7.470  0.5190 -0.5738  0.4874
 7015TIP3    H142680   6.905   2.908   7.392  0.4023  1.6077  0.9322
 7015TIP3    H242681   7.027   2.833   7.442 -0.6453 -1.3965 -0.7542
 7016TIP3   OH242682   3.920   3.699   1.194  0.3456 -0.3621 -0.4988
 7016TIP3    H142683   3.908   3.765   1.263 -1.4014 -0.7386 -0.4013
 7016TIP3    H242684   3.917   3.749   1.113  0.0161 -0.1901 -0.3848
 7017TIP3   OH242685   3.018   5.759   0.308  0.0147  0.1046  0.5545
 7017TIP3    H142686   2.954   5.730   0.243  0.9327  0.1316 -0.3857
 7017TIP3    H242687   3.070   5.681   0.326  0.5614  0.4031  0.2973
 7018TIP3   OH242688   4.884   3.526   0.752 -0.4578  0.1422 -0.3431
 7018TIP3    H142689   4.885   3.529   0.656  1.4702 -1.5120 -0.4639
 7018TIP3    H242690   4.816   3.463   0.773 -0.7705  0.3788 -0.6314
 7019TIP3   OH242691   0.106   4.442   1.324  0.2263 -0.0977  0.7332
 7019TIP3    H142692   0.199   4.421   1.326  0.5915  1.2853 -0.4150
 7019TIP3    H242693   0.080   4.444   1.416  0.9694 -1.9056  1.0207
 7020TIP3   OH242694   1.387   2.218   0.949  0.2396 -0.1002 -0.7362
 7020TIP3    H142695   1.443   2.266   1.009 -0.8118 -0.4937  0.5985
 7020TIP3    H242696   1.417   2.245   0.862  1.5932  0.7085 -0.0566
 7021TIP3   OH242697   4.474   5.462   7.550  0.3371  0.6563  0.4095
 7021TIP3    H142698   4.428   5.402   7.610  1.2007 -0.1078  0.3205
 7021TIP3    H242699   4.414   5.536   7.542 -0.5097  0.0679  0.9702
 7022TIP3   OH242700   2.695   3.118   0.249  0.0213  0.1313 -0.2929
 7022TIP3    H142701   2.687   3.076   0.335 -1.3629 -0.6005 -0.7610
 7022TIP3    H242702   2.768   3.073   0.207  1.7416  1.5080  1.0254
 7023TIP3   OH242703   4.894   3.218   7.410  0.7407  0.4050  0.0073
 7023TIP3    H142704   4.806   3.240   7.440  0.8843 -0.8476  1.4853
 7023TIP3    H242705   4.933   3.169   7.483  2.3638  0.2019 -0.9393
 7024TIP3   OH242706   4.671   3.674   0.459  0.0858 -0.4130  0.1754
 7024TIP3    H142707   4.598   3.646   0.515  1.0151 -2.1250  0.6068
 7024TIP3    H242708   4.705   3.753   0.502  0.2619 -1.2281  1.6274
 7025TIP3   OH242709   6.241   2.028   2.128 -0.2308  0.2026  0.1983
 7025TIP3    H142710   6.192   2.098   2.173 -0.1849  0.4957 -0.2012
 7025TIP3    H242711   6.286   1.981   2.198 -0.9548  0.0325  0.5605
 7026TIP3   OH242712   2.831   6.525   2.699  0.6691  0.0362 -0.4486
 7026TIP3    H142713   2.840   6.617   2.723  0.1618  0.2195 -0.9230
 7026TIP3    H242714   2.890   6.513   2.625 -0.6738  0.4918 -1.6486
 7027TIP3   OH242715   7.016   3.797   2.634  0.0902 -0.7501 -0.4892
 7027TIP3    H142716   7.083   3.730   2.650  1.2417  0.5577  0.3261
 7027TIP3    H242717   7.020   3.854   2.711  0.9674  1.7543 -2.2609
 7028TIP3   OH242718   6.868   2.444   7.263 -0.0743  0.4775  0.0763
 7028TIP3    H142719   6.801   2.508   7.239  0.3619  1.1215  0.5696
 7028TIP3    H242720   6.898   2.471   7.349 -0.5919 -0.9744  0.7436
 7029TIP3   OH242721   2.961   4.113   1.606  0.4987  0.6162 -0.8536
 7029TIP3    H142722   3.039   4.106   1.661  0.1540  1.4770 -0.2325
 7029TIP3    H242723   2.984   4.067   1.525  0.5337 -1.9233  0.5040
 7030TIP3   OH242724   1.893   1.846   0.207 -0.0607  0.2038  0.0732
 7030TIP3    H142725   1.863   1.875   0.293  0.7061  1.0430  0.0747
 7030TIP3    H242726   1.814   1.843   0.153 -0.8764 -2.1235  1.2501
 7031TIP3   OH242727   6.862   0.639   7.717 -0.4239 -0.5352  0.4173
 7031TIP3    H142728   6.936   0.634   7.655  0.6818 -3.0286  1.7690
 7031TIP3    H242729   6.902   0.620   7.802 -2.1110  1.5438  1.7445
 7032TIP3   OH242730   5.488   2.764   2.745  0.4432 -0.0891 -0.6053
 7032TIP3    H142731   5.566   2.726   2.787 -1.0842 -1.0411  1.5443
 7032TIP3    H242732   5.466   2.701   2.676 -0.4285 -1.7747  1.1081
 7033TIP3   OH242733   0.796   5.947   6.355  0.0918  0.0593 -0.7952
 7033TIP3    H142734   0.776   6.040   6.365 -2.1035 -0.3882 -0.4726
 7033TIP3    H242735   0.853   5.942   6.279 -0.3756  1.5963 -1.2793
 7034TIP3   OH242736   5.057   5.513   6.121 -0.1201  0.1717  0.2352
 7034TIP3    H142737   5.131   5.553   6.076 -1.0115 -0.8512 -2.3258
 7034TIP3    H242738   4.995   5.584   6.133  0.1037  0.4562 -0.2663
 7035TIP3   OH242739   4.600   6.241   2.294 -0.2905 -0.2056  0.3749
 7035TIP3    H142740   4.544   6.252   2.218  3.2308 -2.3623 -2.8901
 7035TIP3    H242741   4.650   6.322   2.300  1.4004 -1.0003 -1.6227
 7036TIP3   OH242742   0.313   2.650   2.771 -0.7789 -0.0993  0.2007
 7036TIP3    H142743   0.221   2.652   2.796 -0.9104 -0.2605 -0.2674
 7036TIP3    H242744   0.337   2.557   2.773 -0.4371  0.0018  1.0057
 7037TIP3   OH242745   6.363   2.931   1.869  0.7682 -1.0373  0.4026
 7037TIP3    H142746   6.391   2.883   1.947  0.8436 -1.7772 -0.0662
 7037TIP3    H242747   6.300   2.873   1.827  2.1093 -1.4851 -1.0670
 7038TIP3   OH242748   2.555   4.027   0.038  0.1050  0.2284  0.2396
 7038TIP3    H142749   2.580   4.119   0.041  0.9784  0.0247 -0.5348
 7038TIP3    H242750   2.551   4.000   0.130 -1.7887  1.4433  0.5639
 7039TIP3   OH242751   5.131   4.091   0.033 -0.3286 -0.1320 -0.0707
 7039TIP3    H142752   5.168   4.003   0.020 -0.5311 -0.4008  1.0687
 7039TIP3    H242753   5.127   4.101   0.128 -0.2191  1.1598 -0.1943
 7040TIP3   OH242754   5.861   5.284   6.697  0.1109  0.5486  0.0320
 7040TIP3    H142755   5.794   5.238   6.647  0.4066 -0.5787  0.6467
 7040TIP3    H242756   5.829   5.374   6.701 -1.2473  0.0923  0.1011
 7041TIP3   OH242757   0.849   6.657   2.453 -0.5371  0.2559  0.0243
 7041TIP3    H142758   0.874   6.749   2.453  1.1272 -0.1669  0.1699
 7041TIP3    H242759   0.895   6.619   2.528 -1.0333 -0.7285 -0.1515
 7042TIP3   OH242760   3.866   5.193   1.293 -0.2360 -0.8427  0.3237
 7042TIP3    H142761   3.897   5.240   1.370 -1.3408 -2.5094  1.8864
 7042TIP3    H242762   3.924   5.117   1.286  0.7411 -0.0102 -1.4076
 7043TIP3   OH242763   6.852   4.310   2.526 -0.0745  0.8693  0.6553
 7043TIP3    H142764   6.923   4.337   2.468 -0.8861  0.5278 -0.5360
 7043TIP3    H242765   6.780   4.288   2.467 -0.7116 -0.1502  1.7610
 7044TIP3   OH242766   3.672   3.365   6.500 -0.4250 -0.9981  0.3654
 7044TIP3    H142767   3.647   3.292   6.444  0.0737 -1.2999  0.5368
 7044TIP3    H242768   3.589   3.405   6.526 -0.6646 -0.0697 -1.6175
 7045TIP3   OH242769   4.190   4.587   0.879 -0.6539 -0.1957 -0.2996
 7045TIP3    H142770   4.145   4.665   0.912 -1.6562 -1.8337  2.6131
 7045TIP3    H242771   4.276   4.589   0.921 -0.4686 -0.3657 -0.6640
 7046TIP3   OH242772   1.943   2.269   6.631  0.1402  0.2217 -0.2577
 7046TIP3    H142773   1.861   2.297   6.590  0.5151  2.5526  0.4411
 7046TIP3    H242774   1.931   2.176   6.647 -2.3490  0.4716 -0.2585
 7047TIP3   OH242775   5.861   0.040   1.214  0.5393  0.2847  0.4515
 7047TIP3    H142776   5.924   0.002   1.276 -0.4265 -0.6753  0.8655
 7047TIP3    H242777   5.850  -0.027   1.147  1.2065  1.1249 -0.5398
 7048TIP3   OH242778   6.585   4.609   1.065 -0.4894 -0.7400 -0.6974
 7048TIP3    H142779   6.537   4.654   1.135  2.1025  1.0350  0.0496
 7048TIP3    H242780   6.540   4.525   1.057 -1.9940 -0.3048  1.8466
 7049TIP3   OH242781   2.166   3.615   7.236 -0.4533  0.1934 -0.3225
 7049TIP3    H142782   2.147   3.708   7.242 -0.5088  0.1812 -0.3098
 7049TIP3    H242783   2.175   3.598   7.142 -1.4833  0.0045 -0.3960
 7050TIP3   OH242784   1.141   1.698   1.122  0.0470  0.5360 -0.0441
 7050TIP3    H142785   1.088   1.722   1.198 -2.0697 -0.2616 -1.2016
 7050TIP3    H242786   1.160   1.605   1.134 -4.0245 -0.8426 -2.4327
 7051TIP3   OH242787   0.996   2.735   7.106 -0.5756 -0.1208 -0.3668
 7051TIP3    H142788   1.036   2.680   7.038  0.3406 -1.6960  1.3543
 7051TIP3    H242789   0.928   2.784   7.060  1.2606  0.3591 -2.8082
 7052TIP3   OH242790   6.950   0.522   1.379  0.0368  0.1213  0.0866
 7052TIP3    H142791   6.902   0.464   1.321 -3.0838  0.6606  1.8827
 7052TIP3    H242792   6.883   0.578   1.419  2.3095  1.7328  2.0213
 7053TIP3   OH242793   2.819   2.591   0.744 -0.5094  0.1481 -0.2829
 7053TIP3    H142794   2.824   2.568   0.651  0.1109 -0.5867 -0.0791
 7053TIP3    H242795   2.874   2.526   0.788 -0.9630  0.3582  0.6231
 7054TIP3   OH242796   5.567   1.260   8.073 -0.0536  0.2191  0.5366
 7054TIP3    H142797   5.482   1.300   8.094 -0.5521 -0.1343 -0.6960
 7054TIP3    H242798   5.608   1.244   8.158 -0.5963  1.7118  1.1163
 7055TIP3   OH242799   2.135   6.353   7.128  0.0419 -0.2022  0.1023
 7055TIP3    H142800   2.104   6.266   7.103 -2.1555  0.3380  0.6689
 7055TIP3    H242801   2.173   6.340   7.215  1.4513 -0.8841 -0.5859
 7056TIP3   OH242802   3.489   4.090   0.772  0.1358  0.8559  0.3415
 7056TIP3    H142803   3.518   4.178   0.748  0.9053  0.1672 -1.3951
 7056TIP3    H242804   3.466   4.048   0.689 -0.9996 -0.3278  1.2127
 7057TIP3   OH242805   4.380   6.390   7.501  0.7637 -0.3258 -0.6010
 7057TIP3    H142806   4.349   6.469   7.456  0.4701 -0.1361 -0.0763
 7057TIP3    H242807   4.339   6.394   7.587  1.0312 -0.8721 -0.4440
 7058TIP3   OH242808   4.089   4.389   0.510  0.4897 -0.1202 -0.1311
 7058TIP3    H142809   4.014   4.432   0.470  1.1975  0.8079 -0.4818
 7058TIP3    H242810   4.054   4.352   0.592 -0.2669  0.6115 -0.1102
 7059TIP3   OH242811   6.659   3.791   7.024  0.4867 -0.8829  0.3406
 7059TIP3    H142812   6.674   3.698   7.007  0.9710 -0.6233 -0.7936
 7059TIP3    H242813   6.730   3.835   6.977  0.3304  0.0581  0.9617
 7060TIP3   OH242814   2.234   5.596   6.370  0.0123 -0.4477 -0.2055
 7060TIP3    H142815   2.179   5.643   6.433  0.0462  1.3925 -1.4865
 7060TIP3    H242816   2.288   5.537   6.424 -1.3605 -0.3941  1.2829
 7061TIP3   OH242817   5.263   2.808   1.659  0.1222  0.0788 -0.0930
 7061TIP3    H142818   5.230   2.834   1.573 -1.7733 -0.4372  0.4179
 7061TIP3    H242819   5.322   2.878   1.685  0.8339  0.1698 -1.8694
 7062TIP3   OH242820   2.114   4.326   6.902 -0.4078  0.0282  0.2255
 7062TIP3    H142821   2.158   4.411   6.895 -1.6318  0.6338 -0.4661
 7062TIP3    H242822   2.060   4.321   6.824 -0.3107 -1.4352  0.2261
 7063TIP3   OH242823   2.727   1.382   2.516 -0.0931  0.6832 -0.7427
 7063TIP3    H142824   2.732   1.430   2.599 -0.9956 -0.1194 -0.2062
 7063TIP3    H242825   2.815   1.346   2.503 -0.0766  0.3967  0.1200
 7064TIP3   OH242826   2.258   0.628   7.929  0.0380 -0.0426  0.8570
 7064TIP3    H142827   2.188   0.591   7.983 -0.1709  0.3312  0.8448
 7064TIP3    H242828   2.339   0.598   7.970 -0.1139  0.4055  1.4921
 7065TIP3   OH242829   4.785   4.191   7.346 -0.0179 -0.1959  0.3595
 7065TIP3    H142830   4.749   4.102   7.342 -3.0012  0.8058  1.7403
 7065TIP3    H242831   4.796   4.208   7.439 -0.3424  1.1659  0.1667
 7066TIP3   OH242832   0.450   5.978   7.927 -0.1445  0.2813  0.1305
 7066TIP3    H142833   0.416   6.066   7.907 -2.2972 -0.6943 -0.8127
 7066TIP3    H242834   0.417   5.923   7.856  1.5234 -1.2494  0.4697
 7067TIP3   OH242835   4.572   4.690   7.538  0.0034 -0.0483  0.4638
 7067TIP3    H142836   4.651   4.644   7.510  0.4484  1.7362 -1.4204
 7067TIP3    H242837   4.604   4.770   7.580 -0.7634 -1.1257  3.4131
 7068TIP3   OH242838   6.742   7.051   2.752 -0.1880  0.1783  0.3322
 7068TIP3    H142839   6.726   7.122   2.690  0.2710 -0.6947 -0.8221
 7068TIP3    H242840   6.790   6.985   2.702  2.7554  0.6085  2.3409
 7069TIP3   OH242841   5.776   0.354   0.241 -0.0514  0.4031 -0.8205
 7069TIP3    H142842   5.820   0.357   0.326 -1.2177 -0.7110 -0.1346
 7069TIP3    H242843   5.835   0.304   0.185 -0.8689 -2.1438  0.4342
 7070TIP3   OH242844   0.791   2.609   7.240 -0.3157  0.0495  0.0160
 7070TIP3    H142845   0.848   2.675   7.202  1.4483 -1.4118 -0.0203
 7070TIP3    H242846   0.823   2.598   7.330  0.1081 -1.4211 -0.2771
 7071TIP3   OH242847   5.632   4.138   1.580 -0.9160 -0.2241 -0.1279
 7071TIP3    H142848   5.569   4.085   1.629 -0.7147  1.9812  2.7382
 7071TIP3    H242849   5.706   4.149   1.640  0.5810  0.4342 -1.9826
 7072TIP3   OH242850   6.829   5.552   7.644  0.1625  0.1013  0.2375
 7072TIP3    H142851   6.909   5.507   7.670  0.5753  0.0394 -1.1034
 7072TIP3    H242852   6.855   5.608   7.572 -1.1524 -0.5258 -0.7562
 7073TIP3   OH242853   1.230   3.660   6.695 -0.1075  0.5788  0.1717
 7073TIP3    H142854   1.176   3.623   6.764  0.9587 -1.6979 -0.1187
 7073TIP3    H242855   1.168   3.690   6.628 -1.0577  0.5717  1.0381
 7074TIP3   OH242856   0.957   3.359   2.222  0.4869  0.0775 -0.3043
 7074TIP3    H142857   0.932   3.267   2.210 -0.0686  0.2545 -0.5532
 7074TIP3    H242858   0.875   3.403   2.243  1.1194  0.1306  2.2795
 7075TIP3   OH242859   0.795   1.511   0.563  0.3101 -0.1983 -0.4131
 7075TIP3    H142860   0.848   1.448   0.613 -0.9904  0.1324  1.4848
 7075TIP3    H242861   0.759   1.459   0.490  0.4081 -1.3072  0.2952
 7076TIP3   OH242862   2.018   2.608   3.284  0.3254 -0.2342 -0.7328
 7076TIP3    H142863   2.012   2.531   3.227  0.1667 -0.2828 -0.6536
 7076TIP3    H242864   1.959   2.672   3.244 -0.3887 -0.5429 -0.2050
 7077TIP3   OH242865   4.133   5.364   2.838  0.1868  0.5720  0.3497
 7077TIP3    H142866   4.130   5.426   2.911 -0.9663  1.2241 -0.2119
 7077TIP3    H242867   4.059   5.305   2.854  0.2116  0.4337 -0.0418
 7078TIP3   OH242868   3.852   1.531   1.027  0.1382 -0.1766  0.0426
 7078TIP3    H142869   3.872   1.546   0.935  3.2196  1.0900  0.8063
 7078TIP3    H242870   3.768   1.485   1.026 -0.5101  0.8080 -3.3161
 7079TIP3   OH242871   3.700   2.620   1.826  0.3439 -0.6416  0.2518
 7079TIP3    H142872   3.614   2.660   1.833  0.3010 -0.8047  0.7377
 7079TIP3    H242873   3.751   2.682   1.774 -0.4039 -1.1416 -1.1267
 7080TIP3   OH242874   6.710   1.561   1.261  0.1007 -0.2125  0.1318
 7080TIP3    H142875   6.778   1.628   1.246 -0.1948  0.1091  0.2101
 7080TIP3    H242876   6.631   1.611   1.282 -0.5636 -0.5179 -1.4893
 7081TIP3   OH242877   5.301   0.803   1.278 -0.5781  0.4827  0.2910
 7081TIP3    H142878   5.264   0.836   1.196  0.7469  1.2331 -0.0278
 7081TIP3    H242879   5.227   0.760   1.322 -1.7211  1.5512 -0.5133
 7082TIP3   OH242880   1.246   5.517   2.564  0.1290  0.4754  0.0377
 7082TIP3    H142881   1.263   5.560   2.647 -2.5351 -0.1319  0.9804
 7082TIP3    H242882   1.215   5.587   2.506  1.1352  0.7387 -0.2050
 7083TIP3   OH242883   5.971   4.206   2.912  0.4122  0.4759  0.1388
 7083TIP3    H142884   6.027   4.257   2.854  1.9657 -0.7240  0.5214
 7083TIP3    H242885   6.031   4.168   2.976 -1.2960  2.5201  3.2309
 7084TIP3   OH242886   1.329   5.243   2.601 -0.9256 -0.0077 -0.2297
 7084TIP3    H142887   1.242   5.217   2.570 -1.4785  0.0982  1.1466
 7084TIP3    H242888   1.318   5.334   2.630 -0.1214  0.3099 -0.8697
 7085TIP3   OH242889   0.274   0.085   2.619  0.0612 -0.0440  0.3534
 7085TIP3    H142890   0.345   0.138   2.656  1.0298 -0.8112 -0.3568
 7085TIP3    H242891   0.308  -0.005   2.619 -0.3333 -0.2277 -1.3442
 7086TIP3   OH242892   0.750   5.903   7.049  0.1490 -0.4258  0.4584
 7086TIP3    H142893   0.805   5.921   7.126 -1.4238  1.2725  1.2531
 7086TIP3    H242894   0.674   5.858   7.085 -0.1696 -0.4465 -0.2427
 7087TIP3   OH242895   5.271   5.329   1.525 -0.0400  0.2470  0.4422
 7087TIP3    H142896   5.245   5.417   1.551  1.6692  0.9444 -0.1350
 7087TIP3    H242897   5.361   5.319   1.556  0.9498 -0.0797 -2.2438
 7088TIP3   OH242898   3.983   2.914   2.156 -0.1416 -0.0550  0.8679
 7088TIP3    H142899   4.051   2.951   2.212  0.5462 -0.2293  0.1719
 7088TIP3    H242900   3.901   2.944   2.194  0.3013 -0.3051  2.0544
 7089TIP3   OH242901   2.523   3.371   1.613  0.3946 -0.1596 -0.2402
 7089TIP3    H142902   2.502   3.458   1.648  0.7949 -0.3821  0.5761
 7089TIP3    H242903   2.545   3.319   1.690 -1.1372 -1.3775 -0.5683
 7090TIP3   OH242904   0.433   2.895   1.165 -0.7009 -0.3048  0.6157
 7090TIP3    H142905   0.452   2.960   1.232  0.2592 -0.3239  0.3910
 7090TIP3    H242906   0.486   2.819   1.191  1.4734  0.4371 -1.2968
 7091TIP3   OH242907   5.128   5.351   6.307 -0.0515  0.0734  0.2563
 7091TIP3    H142908   5.219   5.377   6.322  0.8451 -1.3355 -2.2178
 7091TIP3    H242909   5.095   5.414   6.244 -0.7115  0.3653  0.8781
 7092TIP3   OH242910   5.173   2.642   7.543 -0.0599 -0.0361  0.0079
 7092TIP3    H142911   5.259   2.683   7.548  0.2725 -0.5024 -1.4207
 7092TIP3    H242912   5.189   2.550   7.561  0.1252 -0.5262 -2.4339
 7093TIP3   OH242913   1.242   0.155   5.398 -0.5561  0.1880  0.1267
 7093TIP3    H142914   1.263   0.237   5.443  3.1115 -0.2687 -0.4743
 7093TIP3    H242915   1.240   0.090   5.469 -0.1161  0.3048  0.2534
 7094TIP3   OH242916   4.578   5.390   1.770  0.1989 -0.8021  0.0738
 7094TIP3    H142917   4.656   5.365   1.819  1.5653  2.1564 -0.3435
 7094TIP3    H242918   4.605   5.468   1.721 -3.3304  1.0430  0.7611
 7095TIP3   OH242919   0.155   5.645   0.034  0.3242 -0.3190  0.0037
 7095TIP3    H142920   0.105   5.707  -0.019 -0.3674  0.4431  1.4956
 7095TIP3    H242921   0.234   5.693   0.058  0.0196 -0.1854  0.7505
 7096TIP3   OH242922   4.638   2.672   0.095  0.2801 -0.0673 -1.1183
 7096TIP3    H142923   4.699   2.629   0.155  1.7219  3.4380  0.2407
 7096TIP3    H242924   4.605   2.747   0.145 -1.2704  0.9952 -3.5403
 7097TIP3   OH242925   4.872   6.476   7.620 -0.3136  0.0724 -0.1454
 7097TIP3    H142926   4.792   6.515   7.584  0.1167 -0.1875 -1.4135
 7097TIP3    H242927   4.941   6.499   7.557  0.6939  0.5567  1.0736
 7098TIP3   OH242928   1.513   1.648   7.147 -0.1795  0.1144 -0.1658
 7098TIP3    H142929   1.523   1.568   7.198 -0.5566  0.2128  0.0677
 7098TIP3    H242930   1.504   1.717   7.213 -1.8875  0.0958 -0.3333
 7099TIP3   OH242931   4.776   1.248   1.931  0.1827  0.2239 -0.5822
 7099TIP3    H142932   4.798   1.172   1.877  0.4238 -1.0737  1.2402
 7099TIP3    H242933   4.740   1.210   2.011 -1.6756  2.1068 -0.4486
 7100TIP3   OH242934   7.028   4.104   6.452 -0.3130 -0.0329  0.4886
 7100TIP3    H142935   7.022   4.078   6.360  1.9489 -0.0351  0.2802
 7100TIP3    H242936   6.978   4.186   6.457 -2.1772 -1.0672 -0.2435
 7101TIP3   OH242937   0.829   2.910   1.933 -0.6478 -0.2744  0.8682
 7101TIP3    H142938   0.916   2.869   1.942 -0.0828  0.6525 -0.1796
 7101TIP3    H242939   0.807   2.899   1.840 -1.4906 -0.1616  1.0477
 7102TIP3   OH242940   4.628   5.999   8.007  0.3529 -0.4050  0.1733
 7102TIP3    H142941   4.610   6.024   8.098  2.0181  1.0275  0.1508
 7102TIP3    H242942   4.647   6.081   7.963 -0.9768 -1.0153 -1.6529
 7103TIP3   OH242943   4.441   4.699   2.199  0.0633 -0.2478 -0.2548
 7103TIP3    H142944   4.460   4.793   2.195  0.3871 -0.0450  3.3438
 7103TIP3    H242945   4.370   4.691   2.262  0.3248 -2.4786 -0.1485
 7104TIP3   OH242946   4.043   3.423   0.456  0.1776  0.3972 -0.6718
 7104TIP3    H142947   4.035   3.328   0.464 -2.7545  0.6106  0.1985
 7104TIP3    H242948   4.092   3.450   0.534  1.5842 -0.3891 -1.2427
 7105TIP3   OH242949   6.203   5.287   2.797  0.1991  0.6683  0.2913
 7105TIP3    H142950   6.250   5.326   2.723 -0.6187  0.6634 -0.2443
 7105TIP3    H242951   6.168   5.362   2.845 -2.0295  0.6744 -1.1662
 7106TIP3   OH242952   1.549   5.540   7.931 -0.5631 -0.1212 -0.5571
 7106TIP3    H142953   1.516   5.508   8.015 -0.4723  1.9432  0.3306
 7106TIP3    H242954   1.557   5.635   7.943  1.0698  0.0306 -2.3540
 7107TIP3   OH242955   2.128   1.375   0.903 -0.1864  0.0627 -0.4835
 7107TIP3    H142956   2.207   1.403   0.949 -0.8482  2.0330 -0.4653
 7107TIP3    H242957   2.067   1.350   0.972 -0.5641  1.3127 -0.3547
 7108TIP3   OH242958   5.729   4.487   7.670 -0.3887 -0.0729  0.1012
 7108TIP3    H142959   5.698   4.558   7.726 -1.6492 -1.4717  1.2581
 7108TIP3    H242960   5.678   4.496   7.590  1.7377  2.2140 -1.1277
 7109TIP3   OH242961   0.048   2.723   2.822  0.2048 -0.4911  0.0196
 7109TIP3    H142962  -0.009   2.798   2.841 -0.3508 -1.3081  1.7741
 7109TIP3    H242963  -0.000   2.673   2.757 -0.1026 -0.0859 -0.0717
 7110TIP3   OH242964   5.921   6.733   2.467  0.0132  0.8131  0.5447
 7110TIP3    H142965   5.942   6.641   2.454 -0.7656  0.7404 -0.2548
 7110TIP3    H242966   5.832   6.734   2.502 -1.3840  1.3173 -2.6343
 7111TIP3   OH242967   4.000   2.687   0.945  0.4110  0.0501  0.4070
 7111TIP3    H142968   4.010   2.635   1.024  0.1116 -1.2950 -0.4098
 7111TIP3    H242969   4.044   2.637   0.877 -0.4748  0.5244 -0.5451
 7112TIP3   OH242970   4.985   6.052   6.646  0.3407 -0.3052 -0.4562
 7112TIP3    H142971   5.022   5.968   6.673  0.0891 -0.6270 -1.0915
 7112TIP3    H242972   5.058   6.114   6.656 -0.1904 -0.0303  2.6012
 7113TIP3   OH242973   5.436   5.414   1.022 -0.0455 -0.0290  0.4239
 7113TIP3    H142974   5.456   5.400   0.930  0.1780 -0.2133  0.4994
 7113TIP3    H242975   5.348   5.376   1.034  0.7003 -1.7618  0.7082
 7114TIP3   OH242976   0.692   4.776   0.345 -0.1784  0.2711  0.9104
 7114TIP3    H142977   0.614   4.756   0.396 -1.0102  3.4695  1.1273
 7114TIP3    H242978   0.696   4.872   0.344  2.2874  0.2670 -1.3262
 7115TIP3   OH242979   2.615   6.002   0.223  0.8955  0.7602  0.1240
 7115TIP3    H142980   2.625   6.005   0.318  1.1178  1.0316  0.0939
 7115TIP3    H242981   2.523   6.023   0.208  0.9559  1.1339  0.2593
 7116TIP3   OH242982   2.973   6.893   1.112  0.0337  0.4733  0.3992
 7116TIP3    H142983   2.881   6.915   1.131  0.6262  2.2754  1.4244
 7116TIP3    H242984   3.013   6.881   1.198  1.0577  0.9832  0.0057
 7117TIP3   OH242985   5.416   5.107   0.329 -0.1216 -0.2249 -0.4019
 7117TIP3    H142986   5.462   5.190   0.314  1.7846 -0.9195  1.2095
 7117TIP3    H242987   5.360   5.123   0.404  0.0307 -0.3085 -0.2695
 7118TIP3   OH242988   2.853   0.091   1.630  0.3948 -0.5188 -0.0092
 7118TIP3    H142989   2.873   0.180   1.602 -2.6613  0.8710  1.6599
 7118TIP3    H242990   2.932   0.063   1.678  1.2661  1.4549 -0.1801
 7119TIP3   OH242991   4.690   3.346   0.842 -0.1059 -0.1493  0.1870
 7119TIP3    H142992   4.642   3.263   0.834  1.7188 -1.3701  1.1593
 7119TIP3    H242993   4.657   3.384   0.924 -0.6996 -0.0618 -0.0831
 7120TIP3   OH242994   2.636   1.181   1.051 -0.2150  0.0466  0.2231
 7120TIP3    H142995   2.660   1.091   1.073 -0.0337 -0.0218 -0.2522
 7120TIP3    H242996   2.710   1.215   1.002 -1.1167 -0.2236 -1.4027
 7121TIP3   OH242997   0.024   4.127   1.691 -0.0599  0.3127  0.0464
 7121TIP3    H142998   0.016   4.204   1.749 -2.1460 -1.5207  2.4134
 7121TIP3    H242999  -0.063   4.117   1.653  0.7515  0.2459 -1.9245
 7122TIP3   OH243000   0.652   1.992   6.952  0.3364  0.0912 -0.1295
 7122TIP3    H143001   0.679   2.011   7.042 -1.1301 -0.3646  0.4412
 7122TIP3    H243002   0.690   1.906   6.933  0.5415  0.1311  0.0902
 7123TIP3   OH243003   5.569   3.875   1.456  0.1474 -0.4972 -0.3239
 7123TIP3    H143004   5.647   3.875   1.512 -0.5661  0.1351  0.7081
 7123TIP3    H243005   5.504   3.828   1.507 -1.1988  1.9876  0.3960
 7124TIP3   OH243006   0.527   4.145   1.406 -0.2462 -0.5999  0.1478
 7124TIP3    H143007   0.520   4.050   1.394 -2.2315 -0.5132  0.2580
 7124TIP3    H243008   0.451   4.168   1.459 -0.3724  1.1854 -0.7189
 7125TIP3   OH243009   2.000   6.893   1.897  0.2785 -0.1820  0.1844
 7125TIP3    H143010   2.052   6.817   1.927 -1.4564 -1.9308 -1.0050
 7125TIP3    H243011   1.942   6.857   1.831 -1.0742  2.1158  0.0450
 7126TIP3   OH243012   5.708   3.000   1.040  0.3385 -0.1117 -0.0356
 7126TIP3    H143013   5.683   2.927   1.095  0.9990 -0.0746  0.3295
 7126TIP3    H243014   5.636   3.010   0.977  1.0188 -2.1758 -1.2189
 7127TIP3   OH243015   6.725   4.428   7.018  0.3470 -0.0448 -0.0485
 7127TIP3    H143016   6.672   4.392   7.089  0.1380  1.1144  0.4017
 7127TIP3    H243017   6.669   4.493   6.976  1.0632  0.5064 -0.1812
 7128TIP3   OH243018   0.751   4.388   0.615 -0.2432 -0.2756 -0.0005
 7128TIP3    H143019   0.662   4.398   0.579  0.1444 -2.7786 -1.9134
 7128TIP3    H243020   0.797   4.466   0.584 -1.4033  0.3862 -0.1479
 7129TIP3   OH243021   6.735   1.713   6.963  0.2105  0.1428  0.4063
 7129TIP3    H143022   6.795   1.758   6.903  1.8617  0.4019  2.1511
 7129TIP3    H243023   6.729   1.624   6.929  1.6858  0.0869  0.2205
 7130TIP3   OH243024   2.570   6.336   6.817  0.1259 -0.5623  0.3314
 7130TIP3    H143025   2.487   6.346   6.771 -0.5160  0.1357  1.5936
 7130TIP3    H243026   2.595   6.244   6.802 -2.3778 -1.6953  2.3112
 7131TIP3   OH243027   6.497   2.885   2.697  0.1541 -0.5642 -0.0795
 7131TIP3    H143028   6.572   2.937   2.667  0.4769 -0.1778  1.3538
 7131TIP3    H243029   6.435   2.950   2.730  0.5420 -1.0534  1.6943
 7132TIP3   OH243030   3.025   1.066   1.193  0.5176 -0.4231  0.0376
 7132TIP3    H143031   3.113   1.103   1.198  0.3710  0.0243 -0.5952
 7132TIP3    H243032   2.967   1.139   1.214  0.2777 -0.5757 -0.0886
 7133TIP3   OH243033   3.297   0.139   1.580  0.2689  0.3937 -0.4659
 7133TIP3    H143034   3.223   0.191   1.611 -0.2714 -1.2981  1.2638
 7133TIP3    H243035   3.368   0.161   1.641  0.2339 -0.3710 -0.1448
 7134TIP3   OH243036   6.495   6.538   1.446  0.1926  0.5783 -0.5668
 7134TIP3    H143037   6.418   6.576   1.404 -0.3377 -0.7086 -0.7858
 7134TIP3    H243038   6.569   6.576   1.398 -0.3583  0.3790 -1.5978
 7135TIP3   OH243039   2.330   2.787   1.357 -0.0205 -0.3821  0.5578
 7135TIP3    H143040   2.311   2.877   1.383 -1.0326 -1.1200  2.5362
 7135TIP3    H243041   2.409   2.794   1.303 -2.0011  2.0816 -2.4016
 7136TIP3   OH243042   0.548   2.807   1.544 -0.6357 -0.5554  0.3480
 7136TIP3    H143043   0.491   2.883   1.553  0.0080  0.0016 -0.1920
 7136TIP3    H243044   0.529   2.753   1.621 -1.6147 -0.2010  0.3680
 7137TIP3   OH243045   2.116   0.490   7.423  0.9715 -0.2963 -0.4039
 7137TIP3    H143046   2.157   0.566   7.381  0.3618  0.5375  0.4832
 7137TIP3    H243047   2.134   0.502   7.516 -2.2384  0.7556  0.2086
 7138TIP3   OH243048   3.494   2.337   6.654 -0.2178  0.0627  0.4552
 7138TIP3    H143049   3.414   2.322   6.703 -0.7493 -1.6614 -0.8429
 7138TIP3    H243050   3.510   2.254   6.608  0.6378  1.3260 -1.6776
 7139TIP3   OH243051   6.404   0.885   7.694  0.4425  0.0433 -0.0018
 7139TIP3    H143052   6.336   0.879   7.627  0.8184 -0.8339 -0.3318
 7139TIP3    H243053   6.402   0.799   7.737  1.4977 -0.0959 -0.1948
 7140TIP3   OH243054   1.487   1.759   1.810  0.4893 -0.8036 -0.3423
 7140TIP3    H143055   1.416   1.762   1.745  0.6466  1.5487 -0.4749
 7140TIP3    H243056   1.443   1.768   1.894  0.5233 -1.0247 -0.2983
 7141TIP3   OH243057   3.848   2.013   0.911  0.1847 -0.3582 -0.5011
 7141TIP3    H143058   3.849   2.067   0.832 -2.3072  2.2475  1.0193
 7141TIP3    H243059   3.905   2.060   0.972  1.1393 -1.6910 -0.3189
 7142TIP3   OH243060   1.459   4.376   3.102 -0.0843 -0.0333  0.2381
 7142TIP3    H143061   1.417   4.380   3.188  0.0861  0.8388  0.2960
 7142TIP3    H243062   1.537   4.431   3.111 -0.5932  0.9015 -0.7496
 7143TIP3   OH243063   1.958   2.848   6.638 -0.1235 -0.2081  0.2080
 7143TIP3    H143064   1.916   2.850   6.724 -0.1333  2.1622  0.2179
 7143TIP3    H243065   1.916   2.919   6.589  1.4605 -0.0219 -0.9601
 7144TIP3   OH243066   6.279   7.006   0.512  0.1413  0.4947  0.1487
 7144TIP3    H143067   6.207   6.982   0.454 -0.3434 -1.9680  1.6129
 7144TIP3    H243068   6.347   7.039   0.454 -0.8660 -0.4846 -1.6677
 7145TIP3   OH243069   3.317   0.796   7.917  0.0469 -0.3201 -0.1064
 7145TIP3    H143070   3.387   0.859   7.937  1.3071 -2.1027  1.3903
 7145TIP3    H243071   3.253   0.810   7.986 -0.2770  0.1452 -0.4941
 7146TIP3   OH243072   1.170   3.680   0.618 -0.4140  0.0012 -0.2754
 7146TIP3    H143073   1.102   3.637   0.670 -0.1890 -2.2626 -1.6964
 7146TIP3    H243074   1.125   3.753   0.575 -1.5117 -0.4148  0.1430
 7147TIP3   OH243075   2.604   6.776   6.649  0.2043 -0.2957 -0.0453
 7147TIP3    H143076   2.660   6.845   6.683 -1.3325  0.3978  1.1965
 7147TIP3    H243077   2.656   6.696   6.659  0.5974  0.1799  2.0631
 7148TIP3   OH243078   2.001   3.689   0.295 -0.2624 -0.6713  0.1499
 7148TIP3    H143079   2.089   3.668   0.262 -1.0554  0.3167 -2.9309
 7148TIP3    H243080   1.943   3.628   0.248 -1.5032  0.8701 -0.3967
 7149LIG     O143081   1.340   6.577   4.099  0.3920  0.0462  0.1452
 7149LIG     O243082   1.428   6.717   4.268  0.1610  0.7560  0.1042
 7149LIG     O343083   1.333   6.884   4.136 -0.0279  0.0303 -0.2664
 7149LIG     O443084   1.581   6.406   4.231 -0.2098  0.0953 -0.1090
 7149LIG     O543085   1.683   6.505   3.990 -0.5915 -0.0553  0.1039
 7149LIG     O643086   1.292   6.797   4.504  0.4481 -0.3890 -0.4172
 7149LIG     O743087   1.525   6.913   4.436 -0.4968  0.1885  0.2421
 7149LIG     O843088   1.521   7.166   4.296 -0.0493 -0.3739 -0.5141
 7149LIG     O943089   1.390   6.519   4.465  0.2968  0.0006 -0.1842
 7149LIG    O1043090   1.371   6.762   3.881 -0.4185  0.2705 -0.2613
 7149LIG    O1143091   1.505   7.023   3.912  0.0862 -0.1229  0.0302
 7149LIG     C143092   1.407   6.576   4.228  0.0644  0.1097 -0.6063
 7149LIG     C243093   1.555   6.541   4.205 -0.0766 -0.5358 -0.2793
 7149LIG     C343094   1.575   6.572   4.056  0.1222  0.4784 -0.9912
 7149LIG     C443095   1.439   6.542   3.997 -0.7299  0.4849  0.0479
 7149LIG     C543096   1.314   6.803   4.257 -0.2341  0.0643  0.8718
 7149LIG     C643097   1.293   6.877   4.388  0.6411 -0.2063  0.3730
 7149LIG     C743098   1.407   6.978   4.407  0.0692  0.1689 -0.4571
 7149LIG     C843099   1.413   7.068   4.283  0.1268 -0.3090  0.1450
 7149LIG     C943100   1.437   6.980   4.157  0.0772 -0.4817 -0.5495
 7149LIG    C1043101   1.325   6.503   4.339 -0.2208 -0.1825  0.2577
 7149LIG    C1143102   1.403   6.620   3.868  0.5139  0.2055  0.4053
 7149LIG    C1243103   1.440   7.071   4.032  0.0530 -0.0729 -0.3384
 7149LIG     H143104   1.620   6.593   4.277 -1.9066 -0.6225  1.5110
 7149LIG     H243105   1.592   6.680   4.050 -0.0624  0.5112 -0.9461
 7149LIG     H343106   1.427   6.434   3.975 -0.4119  0.9818 -3.0232
 7149LIG     H443107   1.228   6.735   4.241 -0.0120 -0.3118  1.2582
 7149LIG     H543108   1.200   6.937   4.381  0.0166 -0.7937  2.7234
 7149LIG     H643109   1.380   7.045   4.491  0.8529 -0.9801  0.7631
 7149LIG     H743110   1.322   7.129   4.267  1.7108  1.5415 -2.5434
 7149LIG     H843111   1.531   6.922   4.160  1.4196  1.5339 -1.3135
 7149LIG     H943112   1.220   6.536   4.352 -0.6804 -1.0373 -1.0314
 7149LIG    H1043113   1.319   6.399   4.300  1.2053 -0.2586  0.1800
 7149LIG    H1143114   1.488   6.611   3.798  0.6477  1.6460  0.3518
 7149LIG    H1243115   1.320   6.568   3.816  0.0345  0.1542  1.1998
 7149LIG    H1343116   1.333   7.092   4.011  0.0805 -0.0365 -0.4432
 7149LIG    H1443117   1.487   7.169   4.055 -0.7516 -0.0839  1.5561
 7149LIG    H1543118   1.547   6.390   4.319  0.4210 -0.1736  0.0972
 7149LIG    H1643119   1.690   6.415   4.025  0.3108 -0.0407 -0.0178
 7149LIG    H1743120   1.297   6.858   4.578  0.0659  0.6799 -1.2504
 7149LIG    H1843121   1.503   6.838   4.492  2.1859 -0.4777  0.5595
 7149LIG    H1943122   1.601   7.123   4.327  0.2942  0.6576  0.0855
 7149LIG    H2043123   1.363   6.607   4.492  0.7076  0.6746 -1.8854
 7149LIG    H2143124   1.335   6.782   3.968  1.2379  1.6157  0.1778
 7149LIG    H2243125   1.451   6.945   3.899 -0.9700  0.6068 -0.0967
   7.08528   7.08528   8.22617
