Title
43125
    1CHL1    C3    1   3.804   2.414   6.519 -0.0458  0.8242 -1.3008
    1CHL1    H3    2   3.915   2.418   6.513 -0.0375  1.6188 -0.6526
    1CHL1    O3    3   3.770   2.352   6.646  0.3850 -0.4806  0.0001
    1CHL1   H3'    4   3.675   2.365   6.651  0.6793  1.4455  3.1697
    1CHL1    C4    5   3.715   2.545   6.498 -0.2445 -0.5029 -0.0672
    1CHL1   H4A    6   3.609   2.528   6.526  0.0860 -0.2320  1.4334
    1CHL1   H4B    7   3.770   2.609   6.571 -0.6299  3.6127 -3.0569
    1CHL1    C5    8   3.734   2.605   6.361  0.6760  0.0158 -0.0114
    1CHL1    C6    9   3.771   2.733   6.342  0.1577  0.1814 -0.4059
    1CHL1    H6   10   3.785   2.794   6.432 -3.0882 -1.4758  1.3614
    1CHL1    C7   11   3.791   2.789   6.205  0.0486  0.0414 -0.3515
    1CHL1   H7A   12   3.749   2.890   6.189  1.3094  0.1246 -4.2375
    1CHL1   H7B   13   3.901   2.791   6.188  0.1665  0.5571  0.4123
    1CHL1    C8   14   3.712   2.716   6.096  0.2655  0.3863  0.2035
    1CHL1    H8   15   3.604   2.736   6.111  0.3499  0.5856  0.5701
    1CHL1   C14   16   3.754   2.770   5.956  0.0442 -0.3699 -0.9651
    1CHL1   H14   17   3.861   2.754   5.931 -0.3515 -2.5086 -1.5729
    1CHL1   C15   18   3.736   2.921   5.937 -1.2567 -0.5452 -0.0029
    1CHL1  H15A   19   3.640   2.959   5.979 -0.3341  0.9704  0.8198
    1CHL1  H15B   20   3.817   2.980   5.983 -1.4592  0.8620 -1.3688
    1CHL1   C16   21   3.737   2.932   5.786 -0.9623  0.5855 -0.0015
    1CHL1  H16A   22   3.646   2.991   5.762 -1.0788  0.8377  1.0090
    1CHL1  H16B   23   3.822   2.995   5.752 -0.4415 -0.4519 -0.6878
    1CHL1   C17   24   3.738   2.789   5.722 -0.4622 -0.1052  0.0299
    1CHL1   H17   25   3.846   2.767   5.704  0.7854  3.5087  2.0730
    1CHL1   C13   26   3.685   2.699   5.835  0.1865 -0.4637 -0.3867
    1CHL1   C18   27   3.527   2.721   5.843  0.3441 -0.2595 -0.1938
    1CHL1  H18A   28   3.511   2.830   5.831  0.8813  0.0872  1.7794
    1CHL1  H18B   29   3.472   2.668   5.763 -1.3949 -0.3241  0.9957
    1CHL1  H18C   30   3.486   2.687   5.941  0.6359  0.3108  0.1286
    1CHL1   C12   31   3.732   2.549   5.841  0.4719  0.5205 -0.0791
    1CHL1  H12A   32   3.684   2.494   5.758 -1.3109 -0.5522  1.5844
    1CHL1  H12B   33   3.843   2.551   5.830  0.3492  1.3368 -1.3483
    1CHL1   C11   34   3.686   2.493   5.981  0.1347 -0.2785  0.4704
    1CHL1  H11A   35   3.575   2.493   5.987  0.0079 -3.1295 -0.4797
    1CHL1  H11B   36   3.712   2.386   5.990 -1.2046 -0.5502  1.3629
    1CHL1    C9   37   3.737   2.566   6.110 -0.7893  1.6042 -0.0813
    1CHL1    H9   38   3.847   2.550   6.099 -0.6552  0.3098  2.4857
    1CHL1   C10   39   3.706   2.505   6.249  0.4985 -0.0028  0.1562
    1CHL1   C19   40   3.553   2.479   6.245 -0.5075 -0.1306 -0.9455
    1CHL1  H19A   41   3.509   2.453   6.343 -1.0729 -1.3980 -1.5180
    1CHL1  H19B   42   3.492   2.567   6.211 -3.1312 -0.6141  2.0547
    1CHL1  H19C   43   3.529   2.392   6.180 -0.2703  0.8410 -2.4077
    1CHL1    C1   44   3.781   2.369   6.272 -0.3594  0.1633 -0.1750
    1CHL1   H1A   45   3.770   2.294   6.191 -1.1188 -0.0302  0.1033
    1CHL1   H1B   46   3.891   2.388   6.269 -0.1187 -0.8829  1.0940
    1CHL1    C2   47   3.753   2.314   6.414  0.1150  0.5419 -0.1138
    1CHL1   H2A   48   3.809   2.220   6.437 -1.6337 -0.3587  0.6380
    1CHL1   H2B   49   3.646   2.286   6.424  0.6344 -1.1002  1.2668
    1CHL1   C20   50   3.663   2.780   5.581 -0.2560  0.1433 -0.4519
    1CHL1   H20   51   3.555   2.803   5.598 -0.4636 -1.2714  0.2106
    1CHL1   C21   52   3.685   2.638   5.520  0.3426 -0.1971  0.6883
    1CHL1  H21A   53   3.795   2.622   5.514  0.7237  1.6738  1.8467
    1CHL1  H21B   54   3.640   2.631   5.418  0.7374  1.6649  0.3395
    1CHL1  H21C   55   3.637   2.563   5.585  1.4772  0.9407  2.9577
    1CHL1   C22   56   3.704   2.897   5.477  0.9086  0.0867 -0.0069
    1CHL1  H22A   57   3.642   2.908   5.386 -1.6521  0.5944  1.6999
    1CHL1  H22B   58   3.694   2.997   5.524 -2.4809  0.5848 -1.5277
    1CHL1   C23   59   3.853   2.884   5.428  0.3389  0.3189  0.2231
    1CHL1  H23A   60   3.917   2.872   5.518 -2.1004 -1.6537  1.8731
    1CHL1  H23B   61   3.856   2.795   5.360 -3.1363 -0.0100  0.3125
    1CHL1   C24   62   3.909   3.018   5.362 -0.2446 -0.4847  0.0417
    1CHL1  H24A   63   3.902   3.095   5.441  3.7002  0.8305 -0.6897
    1CHL1  H24B   64   4.019   3.007   5.355 -0.0759 -0.5474  2.1655
    1CHL1   C25   65   3.843   3.052   5.224  0.3575 -0.3441  0.9634
    1CHL1   H25   66   3.733   3.062   5.242  0.6837  1.5317  2.2885
    1CHL1   C26   67   3.887   3.194   5.176  0.3958  0.0445 -0.1266
    1CHL1  H26A   68   3.872   3.269   5.257  0.7042 -0.9426  0.8695
    1CHL1  H26B   69   3.994   3.192   5.144  0.5937 -1.5304  0.5315
    1CHL1  H26C   70   3.820   3.222   5.092  0.5986  1.0146  0.0192
    1CHL1   C27   71   3.875   2.944   5.122 -0.5296 -0.0936 -0.2539
    1CHL1  H27A   72   3.835   2.844   5.148 -1.7105  0.4554  0.0868
    1CHL1  H27B   73   3.836   2.976   5.023 -4.5957 -0.0721  1.1656
    1CHL1  H27C   74   3.985   2.930   5.119 -0.3715  0.9367  0.5260
    2CHL1    C3   75   3.459   2.019   6.320 -0.5622  0.0270 -0.0249
    2CHL1    H3   76   3.464   2.130   6.332 -2.3467  0.3067 -1.3027
    2CHL1    O3   77   3.389   1.954   6.427 -0.4918  0.0298 -0.4204
    2CHL1   H3'   78   3.440   1.988   6.502 -1.8249 -0.4365  0.7462
    2CHL1    C4   79   3.384   1.983   6.197 -0.1662  0.6154  0.0081
    2CHL1   H4A   80   3.365   1.875   6.182  2.1234 -0.0362  1.3454
    2CHL1   H4B   81   3.282   2.024   6.209 -0.0468  1.1199 -0.6471
    2CHL1    C5   82   3.449   2.030   6.074  0.0562  0.0497  0.7468
    2CHL1    C6   83   3.372   2.102   5.992  0.8337 -0.3489  0.0071
    2CHL1    H6   84   3.267   2.121   6.017 -0.1474 -1.3755 -2.8178
    2CHL1    C7   85   3.414   2.153   5.860  0.1574  0.1721 -0.0634
    2CHL1   H7A   86   3.340   2.127   5.781 -0.9709  0.9442  0.6973
    2CHL1   H7B   87   3.421   2.264   5.856  0.1323  0.1936  0.4577
    2CHL1    C8   88   3.552   2.103   5.817 -0.0360  0.2063  0.4022
    2CHL1    H8   89   3.529   2.002   5.776  0.6334 -0.2492  1.1241
    2CHL1   C14   90   3.621   2.182   5.703 -0.3193 -0.2191 -0.6583
    2CHL1   H14   91   3.648   2.279   5.751 -0.4977  0.1154 -1.2265
    2CHL1   C15   92   3.541   2.237   5.583 -0.0227  0.4385 -0.0177
    2CHL1  H15A   93   3.466   2.161   5.552  1.3625 -0.5208 -1.1020
    2CHL1  H15B   94   3.491   2.336   5.594  1.3476  1.4262 -2.0796
    2CHL1   C16   95   3.646   2.245   5.473  0.5099 -0.2375  0.0079
    2CHL1  H16A   96   3.639   2.162   5.400  1.0512  1.5010 -2.1394
    2CHL1  H16B   97   3.631   2.339   5.416 -0.8500  0.1223  0.9152
    2CHL1   C17   98   3.779   2.236   5.543 -0.4453  0.2520 -0.3679
    2CHL1   H17   99   3.789   2.340   5.580 -1.9294  0.1604  0.3573
    2CHL1   C13  100   3.756   2.133   5.661 -0.0086  0.8366  0.6322
    2CHL1   C18  101   3.749   1.982   5.604 -0.3497 -0.3065  0.0275
    2CHL1  H18A  102   3.671   1.980   5.525 -0.7836 -0.5321  0.4544
    2CHL1  H18B  103   3.845   1.941   5.568 -0.8686 -0.9495 -0.6675
    2CHL1  H18C  104   3.705   1.916   5.682  0.4180  0.3601  1.0537
    2CHL1   C12  105   3.851   2.149   5.781 -0.1459  0.1435 -0.1862
    2CHL1  H12A  106   3.953   2.109   5.762 -1.5092 -4.6274  1.2864
    2CHL1  H12B  107   3.859   2.258   5.801 -1.1361  0.2519 -0.3291
    2CHL1   C11  108   3.797   2.077   5.906  0.3352 -0.1871  0.6098
    2CHL1  H11A  109   3.825   1.970   5.894 -1.1474 -0.6583  1.1214
    2CHL1  H11B  110   3.850   2.114   5.997 -0.8398  0.3089  1.1071
    2CHL1    C9  111   3.646   2.093   5.939  0.1790 -0.8737 -0.6276
    2CHL1    H9  112   3.636   2.194   5.985 -0.3032 -2.0969  2.1101
    2CHL1   C10  113   3.596   1.996   6.051  0.3828  0.2204  0.8876
    2CHL1   C19  114   3.596   1.844   5.998 -0.3071  0.5928 -0.1728
    2CHL1  H19A  115   3.699   1.819   5.966 -0.6531 -0.1402 -0.7301
    2CHL1  H19B  116   3.568   1.789   6.091 -0.8854 -1.6884 -1.6302
    2CHL1  H19C  117   3.521   1.839   5.917 -0.5073  2.4339 -0.1345
    2CHL1    C1  118   3.682   2.005   6.182 -0.5532  0.9646  0.3927
    2CHL1   H1A  119   3.770   1.937   6.177 -0.2896  1.3790 -0.9502
    2CHL1   H1B  120   3.712   2.111   6.183  1.0193  0.5381  0.1532
    2CHL1    C2  121   3.604   1.958   6.307 -0.2686 -0.0263 -0.5751
    2CHL1   H2A  122   3.662   1.986   6.397  0.4612  1.3697 -1.4382
    2CHL1   H2B  123   3.587   1.849   6.300  0.0382 -0.0270 -1.4558
    2CHL1   C20  124   3.901   2.203   5.452  0.1065  0.0964  0.3692
    2CHL1   H20  125   3.928   2.095   5.455 -0.8652 -0.1484  0.5726
    2CHL1   C21  126   4.025   2.281   5.500 -0.9592 -0.2947  0.1152
    2CHL1  H21A  127   4.121   2.249   5.454 -1.0604 -1.9460  0.9492
    2CHL1  H21B  128   4.033   2.256   5.608  0.9089 -1.3130 -0.2140
    2CHL1  H21C  129   4.007   2.390   5.500 -0.2077 -0.1331  2.0105
    2CHL1   C22  130   3.888   2.209   5.296 -0.5637  0.1070 -0.0248
    2CHL1  H22A  131   3.803   2.141   5.275  0.5289 -2.4599  3.1663
    2CHL1  H22B  132   3.853   2.308   5.259  0.3799  1.1703  1.8112
    2CHL1   C23  133   4.016   2.163   5.216  0.8788 -0.0154  0.2442
    2CHL1  H23A  134   4.104   2.217   5.258 -0.7058  0.4534  3.2871
    2CHL1  H23B  135   4.023   2.058   5.250 -0.1577 -0.2412 -0.1869
    2CHL1   C24  136   3.994   2.184   5.068 -0.5980  0.2191 -0.5658
    2CHL1  H24A  137   3.906   2.123   5.038  1.3765 -2.9956 -0.3252
    2CHL1  H24B  138   3.990   2.294   5.055  0.6871  0.7987  2.7979
    2CHL1   C25  139   4.113   2.136   4.990  0.1195  0.7125 -0.3921
    2CHL1   H25  140   4.203   2.171   5.044  0.8498 -3.5668  1.5869
    2CHL1   C26  141   4.126   1.981   4.990 -0.8509  0.6952 -0.2524
    2CHL1  H26A  142   4.029   1.931   4.967  0.1941 -1.3383 -0.4712
    2CHL1  H26B  143   4.198   1.932   4.921 -1.8701 -1.4643  0.1138
    2CHL1  H26C  144   4.149   1.940   5.091  1.1739 -2.3325 -1.8051
    2CHL1   C27  145   4.114   2.181   4.847 -0.0851 -0.0784 -0.6497
    2CHL1  H27A  146   4.203   2.135   4.800  1.0131  0.7807  0.5077
    2CHL1  H27B  147   4.023   2.136   4.801  0.2361 -1.4008 -0.0587
    2CHL1  H27C  148   4.124   2.290   4.832 -0.0723  0.0541  0.2529
    3CHL1    C3  149   2.309   5.790   6.367  0.7456  0.1532 -1.1312
    3CHL1    H3  150   2.251   5.697   6.355 -0.9518  0.8083  1.1638
    3CHL1    O3  151   2.329   5.805   6.507 -0.4862  0.1226  0.3674
    3CHL1   H3'  152   2.247   5.840   6.542  0.4961  2.3566  0.6309
    3CHL1    C4  153   2.437   5.793   6.294  0.2766 -0.3073 -0.0450
    3CHL1   H4A  154   2.487   5.888   6.320  0.6260 -1.2220  3.1039
    3CHL1   H4B  155   2.510   5.722   6.339  0.8359  1.5707  2.1724
    3CHL1    C5  156   2.418   5.783   6.148  0.1857 -0.6358  0.0265
    3CHL1    C6  157   2.473   5.690   6.077  0.4137  0.2525  0.1449
    3CHL1    H6  158   2.555   5.630   6.120 -0.0732  0.2006  1.0273
    3CHL1    C7  159   2.451   5.670   5.924 -0.8788  0.1823  0.2943
    3CHL1   H7A  160   2.544   5.642   5.869 -1.8215  0.1710 -1.3549
    3CHL1   H7B  161   2.389   5.583   5.896  1.0513 -1.3295  0.4344
    3CHL1    C8  162   2.389   5.802   5.868 -0.1042  0.1787 -0.1246
    3CHL1    H8  163   2.454   5.892   5.863 -1.2184  0.9493 -1.3181
    3CHL1   C14  164   2.341   5.768   5.733 -0.3877  0.7766  1.0357
    3CHL1   H14  165   2.255   5.698   5.741 -1.3899  1.7494 -0.6187
    3CHL1   C15  166   2.438   5.692   5.646 -0.6830  0.4780  0.6053
    3CHL1  H15A  167   2.542   5.733   5.649 -0.3509  0.2772 -2.9522
    3CHL1  H15B  168   2.449   5.584   5.669 -0.9427  0.7597  2.1122
    3CHL1   C16  169   2.380   5.702   5.502  0.1659 -0.4991 -0.0330
    3CHL1  H16A  170   2.461   5.732   5.432 -1.7174 -0.1719 -2.2021
    3CHL1  H16B  171   2.339   5.607   5.462 -1.0054  0.0991 -0.2909
    3CHL1   C17  172   2.267   5.815   5.507  0.1102 -0.4759  0.6317
    3CHL1   H17  173   2.167   5.768   5.517 -0.3209  0.2109 -0.3498
    3CHL1   C13  174   2.291   5.887   5.637 -0.0153  0.2755 -0.0947
    3CHL1   C18  175   2.393   6.001   5.618 -0.7407 -0.2190  0.2392
    3CHL1  H18A  176   2.342   6.078   5.556 -2.1613 -1.9607 -0.8431
    3CHL1  H18B  177   2.415   6.049   5.716  1.7229 -2.3406  0.8354
    3CHL1  H18C  178   2.492   5.960   5.586  0.6531  1.1858  2.4638
    3CHL1   C12  179   2.162   5.931   5.725  1.0301 -0.6543  0.2366
    3CHL1  H12A  180   2.129   6.032   5.690 -0.0742 -1.9478 -2.8218
    3CHL1  H12B  181   2.088   5.851   5.703  0.6351  0.1702 -1.6491
    3CHL1   C11  182   2.189   5.941   5.875  0.1188  0.3017  0.1890
    3CHL1  H11A  183   2.244   6.037   5.873  1.0074 -0.1706  1.0332
    3CHL1  H11B  184   2.099   5.961   5.936  1.1180  1.8709  1.2151
    3CHL1    C9  185   2.270   5.841   5.955 -0.5817 -0.5182  0.4351
    3CHL1    H9  186   2.201   5.754   5.960 -1.9657  0.5926  1.7145
    3CHL1   C10  187   2.310   5.889   6.097  0.3668  0.0004  0.5214
    3CHL1   C19  188   2.386   6.028   6.097 -0.2700 -0.7841 -0.4137
    3CHL1  H19A  189   2.483   6.035   6.043  0.3483  0.7941  0.8083
    3CHL1  H19B  190   2.315   6.106   6.060 -0.4903  0.5518  2.5132
    3CHL1  H19C  191   2.414   6.066   6.198  0.0308 -1.0085 -0.4121
    3CHL1    C1  192   2.187   5.901   6.183  0.2586 -0.1187 -0.1984
    3CHL1   H1A  193   2.127   5.990   6.156 -1.6506 -1.0563  0.7638
    3CHL1   H1B  194   2.119   5.814   6.168 -2.1728  1.1957  2.2099
    3CHL1    C2  195   2.225   5.905   6.328 -0.1390 -0.2751  0.3012
    3CHL1   H2A  196   2.129   5.916   6.383 -0.0021  1.1324  0.2846
    3CHL1   H2B  197   2.287   5.996   6.341  2.2441 -1.6968 -0.5981
    3CHL1   C20  198   2.263   5.906   5.378  0.1703 -0.1663 -0.0614
    3CHL1   H20  199   2.346   5.979   5.373 -0.0341 -0.0465 -2.7398
    3CHL1   C21  200   2.126   5.985   5.388 -0.1733 -0.6467  0.1167
    3CHL1  H21A  201   2.029   5.931   5.377 -1.1836  1.3952 -1.7939
    3CHL1  H21B  202   2.129   6.067   5.312  2.0689 -0.9610 -0.1863
    3CHL1  H21C  203   2.125   6.031   5.490 -1.6784 -3.5512  1.5408
    3CHL1   C22  204   2.278   5.824   5.249  0.9923 -0.5377  0.4355
    3CHL1  H22A  205   2.372   5.765   5.252  1.8037  0.3801 -3.0980
    3CHL1  H22B  206   2.195   5.750   5.245 -0.9618  1.5572 -0.4977
    3CHL1   C23  207   2.276   5.906   5.114  0.1340 -0.2382 -0.4258
    3CHL1  H23A  208   2.172   5.943   5.102 -0.1369 -1.2730 -1.4440
    3CHL1  H23B  209   2.356   5.982   5.108 -0.2106  0.2568  0.9070
    3CHL1   C24  210   2.290   5.814   4.987  0.0268 -0.5924 -0.1927
    3CHL1  H24A  211   2.205   5.742   4.990  0.7099 -1.4319 -0.6066
    3CHL1  H24B  212   2.275   5.874   4.895  2.1105 -0.8874 -0.7815
    3CHL1   C25  213   2.426   5.733   4.981  0.5236 -0.4392 -0.3646
    3CHL1   H25  214   2.430   5.670   5.073 -0.5082 -1.3089 -0.8882
    3CHL1   C26  215   2.415   5.627   4.867  0.2915 -0.0475 -0.2895
    3CHL1  H26A  216   2.407   5.686   4.773 -1.1270 -0.7481 -0.6397
    3CHL1  H26B  217   2.508   5.566   4.869 -0.1045 -0.6632 -0.3002
    3CHL1  H26C  218   2.322   5.565   4.875 -1.5422  2.2443 -2.3092
    3CHL1   C27  219   2.549   5.822   4.972  0.4193 -0.4029  0.1029
    3CHL1  H27A  220   2.558   5.889   5.060  0.6900  0.0656 -0.2747
    3CHL1  H27B  221   2.643   5.767   4.950  0.8872  0.7766 -0.9661
    3CHL1  H27C  222   2.525   5.890   4.887  0.3016 -1.1598 -0.4804
    4CHL1    C3  223   1.778   6.735   6.486  0.0459 -0.5934  0.1016
    4CHL1    H3  224   1.673   6.725   6.521  0.0102 -0.1570  0.1262
    4CHL1    O3  225   1.857   6.717   6.596 -0.2639 -0.5553  0.2541
    4CHL1   H3'  226   1.940   6.764   6.587 -0.8628  0.4695 -0.1331
    4CHL1    C4  227   1.812   6.629   6.389 -0.0254  0.3404  0.5248
    4CHL1   H4A  228   1.921   6.630   6.367  0.3569 -4.1192  1.4083
    4CHL1   H4B  229   1.790   6.527   6.426 -1.5408 -0.2240 -1.6838
    4CHL1    C5  230   1.743   6.649   6.255 -0.5260 -0.6442  0.5028
    4CHL1    C6  231   1.668   6.558   6.188 -0.3985 -0.0314 -0.6494
    4CHL1    H6  232   1.659   6.457   6.231 -0.2890 -0.3934 -1.4689
    4CHL1    C7  233   1.617   6.571   6.042  0.1892 -0.1034 -0.1012
    4CHL1   H7A  234   1.646   6.477   5.990  3.3712 -0.6594  2.3512
    4CHL1   H7B  235   1.508   6.590   6.046  0.2713  0.1501  1.3944
    4CHL1    C8  236   1.681   6.693   5.971  0.1597 -0.4498  0.0282
    4CHL1    H8  237   1.788   6.676   5.947  1.0478  0.5895  2.8480
    4CHL1   C14  238   1.610   6.711   5.838  0.1012 -0.2715 -0.4262
    4CHL1   H14  239   1.501   6.715   5.854 -0.2173 -0.4342 -2.3211
    4CHL1   C15  240   1.630   6.605   5.731 -0.0314  0.1759 -0.2802
    4CHL1  H15A  241   1.737   6.582   5.748 -0.2837 -0.6518  0.2699
    4CHL1  H15B  242   1.564   6.518   5.754  0.2150 -0.3764 -1.5643
    4CHL1   C16  243   1.596   6.667   5.594  0.3440  0.0692  0.7518
    4CHL1  H16A  244   1.685   6.648   5.531  0.6685 -0.4603  1.3515
    4CHL1  H16B  245   1.504   6.634   5.542  1.4795  0.3088 -1.5224
    4CHL1   C17  246   1.568   6.823   5.637  0.1579  0.6804  0.1979
    4CHL1   H17  247   1.459   6.820   5.656  0.2054  0.2228  0.4165
    4CHL1   C13  248   1.639   6.844   5.771 -0.1556  0.0917  0.1951
    4CHL1   C18  249   1.791   6.850   5.735  0.2126 -0.2450  0.0702
    4CHL1  H18A  250   1.862   6.835   5.819  1.6674  0.3989 -1.0103
    4CHL1  H18B  251   1.823   6.785   5.651 -0.5177  2.6186 -2.6030
    4CHL1  H18C  252   1.803   6.956   5.705 -0.9951 -0.4663 -1.3224
    4CHL1   C12  253   1.584   6.948   5.868  0.1801  0.2074 -1.0657
    4CHL1  H12A  254   1.606   7.040   5.809  0.0529 -0.4910 -2.2377
    4CHL1  H12B  255   1.475   6.932   5.879  0.5307 -1.1109  1.0786
    4CHL1   C11  256   1.665   6.942   6.001  0.5437 -0.2840  0.0189
    4CHL1  H11A  257   1.761   6.995   5.986 -0.4620  1.8470  0.6572
    4CHL1  H11B  258   1.622   7.014   6.074  0.8692  1.3881 -1.3674
    4CHL1    C9  259   1.672   6.805   6.072  0.4248 -0.1074  0.3889
    4CHL1    H9  260   1.571   6.801   6.118  0.7086  0.5261  1.0731
    4CHL1   C10  261   1.762   6.785   6.194 -0.4544  0.1390  0.5135
    4CHL1   C19  262   1.910   6.797   6.147  0.4829 -0.3129 -0.1589
    4CHL1  H19A  263   1.943   6.896   6.110  0.9202 -0.2689  0.3341
    4CHL1  H19B  264   1.982   6.774   6.229  0.0644  0.9702  0.5997
    4CHL1  H19C  265   1.939   6.731   6.062  0.8117 -0.5307  0.1189
    4CHL1    C1  266   1.740   6.906   6.293  0.1349  0.4930 -0.1901
    4CHL1   H1A  267   1.777   6.999   6.244  0.3412  1.3744  1.5683
    4CHL1   H1B  268   1.630   6.908   6.310  0.1996 -2.6674  1.2819
    4CHL1    C2  269   1.807   6.869   6.428 -0.1365  0.3650  0.2363
    4CHL1   H2A  270   1.789   6.948   6.504  2.1891  0.8842  0.3252
    4CHL1   H2B  271   1.917   6.869   6.412 -0.0964 -0.4367  0.4308
    4CHL1   C20  272   1.602   6.916   5.513 -0.7563 -0.0928  0.3096
    4CHL1   H20  273   1.709   6.915   5.483 -0.4695 -1.1965  1.3063
    4CHL1   C21  274   1.576   7.062   5.556 -0.5466 -0.3132  0.4217
    4CHL1  H21A  275   1.477   7.080   5.603 -0.0608  1.5062  0.8349
    4CHL1  H21B  276   1.596   7.141   5.480 -2.3604  0.6061  0.8314
    4CHL1  H21C  277   1.656   7.086   5.630  2.0165 -0.6765 -2.0336
    4CHL1   C22  278   1.502   6.892   5.392 -0.6380  0.2164  0.2915
    4CHL1  H22A  279   1.526   6.788   5.361 -0.5171  0.8770 -2.0081
    4CHL1  H22B  280   1.396   6.897   5.425  0.3117  1.3193  3.5383
    4CHL1   C23  281   1.516   6.984   5.268 -0.7475  0.0838 -0.8301
    4CHL1  H23A  282   1.488   7.088   5.298  1.4948  0.3609  0.5869
    4CHL1  H23B  283   1.624   6.978   5.243 -0.4033  0.3027  0.5165
    4CHL1   C24  284   1.426   6.933   5.148  0.5774 -0.1107 -0.1351
    4CHL1  H24A  285   1.473   6.838   5.116  1.0591 -1.2294  3.4204
    4CHL1  H24B  286   1.326   6.906   5.187  1.8190 -4.5715  0.4882
    4CHL1   C25  287   1.408   7.046   5.043  0.6517  0.8635  0.3424
    4CHL1   H25  288   1.357   7.131   5.093 -0.4289  1.5326 -1.8039
    4CHL1   C26  289   1.542   7.094   4.978  0.3065 -0.4714  0.1414
    4CHL1  H26A  290   1.579   7.024   4.901 -0.4723 -0.7184 -0.0191
    4CHL1  H26B  291   1.508   7.181   4.917  0.2556  0.3051  1.2416
    4CHL1  H26C  292   1.617   7.121   5.056  1.3717  1.0259 -1.3195
    4CHL1   C27  293   1.299   7.002   4.948 -0.4608  0.4008  0.6362
    4CHL1  H27A  294   1.295   7.067   4.858 -0.4381  0.1443  0.4481
    4CHL1  H27B  295   1.326   6.904   4.902  0.1326  1.3672 -1.1656
    4CHL1  H27C  296   1.201   6.990   4.999  0.3617  0.8354  2.4008
    5CHL1    C3  297   3.316   3.747   6.334  0.3162  0.2652 -0.2257
    5CHL1    H3  298   3.366   3.840   6.370  2.0965 -0.0374 -1.7968
    5CHL1    O3  299   3.278   3.672   6.449 -0.0260  0.1612 -0.5033
    5CHL1   H3'  300   3.361   3.665   6.497 -0.3090 -2.5823 -0.2818
    5CHL1    C4  301   3.190   3.778   6.248 -0.1174 -0.1601  0.0945
    5CHL1   H4A  302   3.118   3.701   6.215  0.4137 -0.8740  0.5792
    5CHL1   H4B  303   3.138   3.852   6.312 -1.2322 -1.9460  1.3458
    5CHL1    C5  304   3.229   3.837   6.122 -0.6366  0.0436  0.5874
    5CHL1    C6  305   3.184   3.951   6.076 -0.1586  0.6852 -0.0778
    5CHL1    H6  306   3.118   4.006   6.145  0.4768 -1.5117  2.4795
    5CHL1    C7  307   3.214   4.002   5.939 -0.6550  0.0008  0.2709
    5CHL1   H7A  308   3.116   4.036   5.898 -0.6747 -0.2837  0.0799
    5CHL1   H7B  309   3.285   4.085   5.958 -0.3398 -0.3407  0.5888
    5CHL1    C8  310   3.275   3.902   5.832  0.4924 -0.4267 -0.0786
    5CHL1    H8  311   3.201   3.828   5.795 -0.9778 -0.1646  2.1566
    5CHL1   C14  312   3.324   3.976   5.708 -0.3176  0.4853 -0.1945
    5CHL1   H14  313   3.404   4.045   5.743 -0.6537  1.1327 -0.6940
    5CHL1   C15  314   3.226   4.066   5.644  0.3290 -0.6848 -0.6148
    5CHL1  H15A  315   3.124   4.024   5.632  0.0411  0.0962 -0.9810
    5CHL1  H15B  316   3.213   4.164   5.694 -1.2839 -1.1362 -0.1179
    5CHL1   C16  317   3.281   4.078   5.500  0.7009 -0.5264 -0.2519
    5CHL1  H16A  318   3.194   4.042   5.440 -0.4314  2.7721 -0.7831
    5CHL1  H16B  319   3.302   4.183   5.471 -0.3444 -0.1386  0.3563
    5CHL1   C17  320   3.411   3.989   5.493  0.2572 -0.5767  0.2683
    5CHL1   H17  321   3.486   4.061   5.532 -0.8177  0.1001  1.1589
    5CHL1   C13  322   3.388   3.884   5.608  0.0183 -0.0999 -0.2366
    5CHL1   C18  323   3.306   3.764   5.550 -0.5699 -0.6414  0.2444
    5CHL1  H18A  324   3.364   3.705   5.476 -0.5666 -2.9295  1.9685
    5CHL1  H18B  325   3.253   3.705   5.628 -1.8204 -0.0617 -0.1304
    5CHL1  H18C  326   3.227   3.817   5.492 -0.1367  0.7858  0.9055
    5CHL1   C12  327   3.513   3.820   5.672  0.4170  0.1176 -0.8142
    5CHL1  H12A  328   3.556   3.752   5.595  0.7516  0.5840 -1.0432
    5CHL1  H12B  329   3.573   3.906   5.708  0.2077 -0.8717  2.1352
    5CHL1   C11  330   3.469   3.737   5.800 -0.5245  0.1647  0.0374
    5CHL1  H11A  331   3.400   3.657   5.766  0.1264  0.3133 -1.7193
    5CHL1  H11B  332   3.554   3.694   5.858 -0.4354  0.3263  0.0297
    5CHL1    C9  333   3.392   3.829   5.905  0.2804  0.0991  0.9184
    5CHL1    H9  334   3.465   3.908   5.933 -0.1805  0.0974  2.1768
    5CHL1   C10  335   3.331   3.757   6.039  0.2121 -0.4361  0.1289
    5CHL1   C19  336   3.244   3.629   5.992 -0.3702  0.3170 -0.4888
    5CHL1  H19A  337   3.300   3.563   5.923  2.0306  3.0832 -1.4106
    5CHL1  H19B  338   3.228   3.563   6.080  0.7252  0.6650 -0.0026
    5CHL1  H19C  339   3.147   3.659   5.948 -0.9526 -0.8793 -0.0573
    5CHL1    C1  340   3.455   3.725   6.121 -0.1876  0.4322 -0.2625
    5CHL1   H1A  341   3.525   3.656   6.069  1.1571 -0.1646  2.1999
    5CHL1   H1B  342   3.516   3.817   6.135  1.4034 -0.1952 -2.4027
    5CHL1    C2  343   3.421   3.668   6.256  0.7508 -0.6712 -0.0656
    5CHL1   H2A  344   3.510   3.660   6.321  0.5551 -0.1831  0.2661
    5CHL1   H2B  345   3.378   3.566   6.239  3.0279 -1.7147  0.0895
    5CHL1   C20  346   3.449   3.943   5.347  0.3989 -0.3964 -0.4144
    5CHL1   H20  347   3.381   3.865   5.308 -0.4850  0.8461 -1.4393
    5CHL1   C21  348   3.590   3.887   5.351 -0.6152 -0.0492 -0.6012
    5CHL1  H21A  349   3.587   3.796   5.416  1.8511 -0.5856 -1.1568
    5CHL1  H21B  350   3.667   3.955   5.393 -0.6513  0.0905 -0.7644
    5CHL1  H21C  351   3.620   3.860   5.248 -1.2195  0.2974 -0.8695
    5CHL1   C22  352   3.438   4.071   5.256  0.3377 -0.3715  0.5818
    5CHL1  H22A  353   3.335   4.102   5.232  0.9204 -0.1844 -1.9667
    5CHL1  H22B  354   3.492   4.152   5.309  0.4587  0.0563 -0.1698
    5CHL1   C23  355   3.516   4.060   5.122 -0.3142  0.4697  0.0018
    5CHL1  H23A  356   3.623   4.041   5.146  0.3263  0.7043 -2.4679
    5CHL1  H23B  357   3.479   3.977   5.058 -1.5695 -0.5188  1.8993
    5CHL1   C24  358   3.508   4.191   5.043 -0.1215 -0.3454  0.2221
    5CHL1  H24A  359   3.406   4.213   5.004  0.0491 -1.3715 -0.8402
    5CHL1  H24B  360   3.539   4.280   5.101 -2.2359 -0.7955  2.1916
    5CHL1   C25  361   3.599   4.186   4.922 -0.1261 -0.0487  0.5860
    5CHL1   H25  362   3.701   4.152   4.950  0.3472  1.1126  0.3370
    5CHL1   C26  363   3.552   4.095   4.813  0.3359  0.0089  0.4027
    5CHL1  H26A  364   3.529   3.989   4.838 -1.4939  0.6071  1.4052
    5CHL1  H26B  365   3.451   4.129   4.783  0.4475  0.2361  0.2718
    5CHL1  H26C  366   3.628   4.093   4.731  1.8736  0.9949  1.7474
    5CHL1   C27  367   3.613   4.326   4.862 -0.5822  0.0406  0.3431
    5CHL1  H27A  368   3.517   4.358   4.816 -2.1298 -4.3114  0.1478
    5CHL1  H27B  369   3.655   4.393   4.941 -0.8704 -0.6850  1.1272
    5CHL1  H27C  370   3.685   4.325   4.777  0.7193 -0.9351  1.4058
    6CHL1    C3  371   3.309   0.330   6.844 -0.2582  0.4169 -0.0327
    6CHL1    H3  372   3.365   0.235   6.856 -0.0351  0.6389  0.7828
    6CHL1    O3  373   3.267   0.358   6.979 -0.2311  0.0072  0.3754
    6CHL1   H3'  374   3.206   0.433   6.978  0.1866  0.3969 -2.1366
    6CHL1    C4  375   3.406   0.445   6.815  0.2103  0.2495  0.7163
    6CHL1   H4A  376   3.357   0.543   6.833 -0.9617 -0.4356  1.3025
    6CHL1   H4B  377   3.490   0.436   6.888 -1.3130 -0.4346  2.4498
    6CHL1    C5  378   3.443   0.445   6.668  0.1467 -0.1548  0.6746
    6CHL1    C6  379   3.568   0.468   6.642 -0.0064  0.0609  0.0122
    6CHL1    H6  380   3.642   0.465   6.724  0.7194  0.0862 -0.6364
    6CHL1    C7  381   3.627   0.478   6.505  0.7629  0.2787  0.2090
    6CHL1   H7A  382   3.701   0.560   6.510  1.7827 -0.6874  1.7814
    6CHL1   H7B  383   3.694   0.390   6.491 -0.8822 -1.0383  0.3239
    6CHL1    C8  384   3.522   0.494   6.388 -0.0244 -0.2431 -0.3693
    6CHL1    H8  385   3.482   0.597   6.375  0.1844 -0.3117 -1.7183
    6CHL1   C14  386   3.578   0.453   6.256 -0.1337 -0.2381  0.2917
    6CHL1   H14  387   3.587   0.342   6.264 -2.5901 -0.4676  0.7440
    6CHL1   C15  388   3.716   0.503   6.210  0.0916  0.5997  0.4101
    6CHL1  H15A  389   3.722   0.609   6.242 -0.3317  0.8323 -0.2593
    6CHL1  H15B  390   3.797   0.437   6.247  0.7186  2.0669  1.8030
    6CHL1   C16  391   3.694   0.481   6.055 -0.0116  0.2850 -0.4432
    6CHL1  H16A  392   3.690   0.583   6.011 -2.5560 -0.5459 -2.3367
    6CHL1  H16B  393   3.774   0.424   6.004 -1.5628 -0.2339 -2.4029
    6CHL1   C17  394   3.559   0.417   6.024  0.0709 -0.0381  0.8305
    6CHL1   H17  395   3.572   0.307   6.029 -1.1268 -0.1776  1.0325
    6CHL1   C13  396   3.478   0.462   6.140  0.1737  0.5072 -0.9047
    6CHL1   C18  397   3.425   0.606   6.120  0.6002  0.6355 -0.1285
    6CHL1  H18A  398   3.380   0.644   6.214 -1.3328 -0.0821 -0.6959
    6CHL1  H18B  399   3.508   0.670   6.084  0.5509  0.2883 -0.8928
    6CHL1  H18C  400   3.344   0.602   6.043  2.4274 -0.2210 -2.1055
    6CHL1   C12  401   3.352   0.376   6.177 -0.1481 -0.1570  0.9959
    6CHL1  H12A  402   3.272   0.378   6.099 -0.3333  0.2002  1.1935
    6CHL1  H12B  403   3.382   0.270   6.190  0.6806 -0.0729 -0.0697
    6CHL1   C11  404   3.286   0.414   6.309 -0.5998  0.1796 -0.3228
    6CHL1  H11A  405   3.261   0.522   6.313 -0.9727  0.0721  1.7490
    6CHL1  H11B  406   3.191   0.365   6.338 -1.1408  0.8349 -0.9628
    6CHL1    C9  407   3.395   0.405   6.420 -0.1736  0.3750  0.1982
    6CHL1    H9  408   3.436   0.301   6.413 -0.3161  0.4178 -1.5873
    6CHL1   C10  409   3.334   0.427   6.562 -0.0884 -0.2099 -0.0907
    6CHL1   C19  410   3.250   0.562   6.571 -0.2190  0.2932  0.3389
    6CHL1  H19A  411   3.171   0.564   6.493  0.0433 -0.1584  0.0519
    6CHL1  H19B  412   3.197   0.576   6.668 -0.7318 -0.3069  0.1534
    6CHL1  H19C  413   3.319   0.645   6.544 -0.5739 -0.2087 -2.4329
    6CHL1    C1  414   3.242   0.302   6.601  0.2274 -0.2775 -0.1890
    6CHL1   H1A  415   3.150   0.318   6.542  1.9595  1.6608 -2.5774
    6CHL1   H1B  416   3.296   0.207   6.579  2.1794  0.7301 -0.0043
    6CHL1    C2  417   3.197   0.302   6.746  0.2230  0.3733 -0.4500
    6CHL1   H2A  418   3.153   0.202   6.765 -1.1424  0.6582 -1.8822
    6CHL1   H2B  419   3.117   0.378   6.758 -0.9765 -0.3834 -2.8610
    6CHL1   C20  420   3.511   0.449   5.882  0.5326  0.1072 -0.3482
    6CHL1   H20  421   3.494   0.558   5.870 -1.8853 -0.3184 -1.1920
    6CHL1   C21  422   3.373   0.382   5.851 -0.8977  0.2282 -0.0374
    6CHL1  H21A  423   3.295   0.431   5.914 -2.2207 -0.8201 -0.8271
    6CHL1  H21B  424   3.357   0.274   5.865 -0.9710 -0.0466 -2.0014
    6CHL1  H21C  425   3.343   0.419   5.751 -0.5390  1.2349  0.2092
    6CHL1   C22  426   3.617   0.408   5.772  0.3213  0.6078  0.1990
    6CHL1  H22A  427   3.722   0.414   5.808  0.0635 -0.5118  1.1873
    6CHL1  H22B  428   3.593   0.301   5.756  0.8710  0.6910 -1.4185
    6CHL1   C23  429   3.607   0.496   5.646  0.5358  0.3107  0.1470
    6CHL1  H23A  430   3.514   0.486   5.585  0.2872 -2.0365  0.8162
    6CHL1  H23B  431   3.621   0.603   5.672  1.5162  0.3120 -0.3235
    6CHL1   C24  432   3.716   0.453   5.546 -0.3485 -0.7715 -0.3266
    6CHL1  H24A  433   3.809   0.502   5.581 -0.0599 -0.8022 -1.0313
    6CHL1  H24B  434   3.724   0.343   5.551  0.7105 -0.6403  1.2687
    6CHL1   C25  435   3.681   0.494   5.405  0.2430 -0.0219 -0.6516
    6CHL1   H25  436   3.577   0.460   5.382  0.3452 -0.5670 -0.3111
    6CHL1   C26  437   3.686   0.647   5.376 -0.5874 -0.4555  0.1744
    6CHL1  H26A  438   3.786   0.683   5.409 -1.6982  1.8988  1.2155
    6CHL1  H26B  439   3.664   0.667   5.269 -0.2145  0.5004  0.2665
    6CHL1  H26C  440   3.616   0.697   5.445  2.5242  1.4961  2.1715
    6CHL1   C27  441   3.766   0.423   5.294 -0.0776 -0.3458 -1.0072
    6CHL1  H27A  442   3.874   0.428   5.320  0.3025 -3.0095 -1.8059
    6CHL1  H27B  443   3.738   0.317   5.309 -0.2641 -0.0664  0.9817
    6CHL1  H27C  444   3.742   0.464   5.194 -2.0030 -0.4068 -0.6146
    7CHL1    C3  445   2.679   5.462   6.555 -0.3561  0.6824 -0.4137
    7CHL1    H3  446   2.587   5.417   6.512  0.9894 -2.2250 -0.5079
    7CHL1    O3  447   2.654   5.484   6.689 -0.5818  0.0458 -0.4195
    7CHL1   H3'  448   2.598   5.562   6.690 -1.3594 -0.5038  0.0076
    7CHL1    C4  449   2.787   5.352   6.536 -0.3107  0.1766  0.5280
    7CHL1   H4A  450   2.876   5.382   6.596  0.1026  0.0750 -0.0211
    7CHL1   H4B  451   2.752   5.262   6.591 -1.3564 -0.2385 -0.7735
    7CHL1    C5  452   2.821   5.314   6.389  0.6956 -0.5507  0.1538
    7CHL1    C6  453   2.808   5.187   6.344  0.0614 -0.4140  0.4195
    7CHL1    H6  454   2.789   5.105   6.415 -0.7602 -0.6570 -0.0773
    7CHL1    C7  455   2.845   5.143   6.207 -0.1151  0.2627  0.3507
    7CHL1   H7A  456   2.922   5.062   6.206 -0.0226  0.2638 -2.8274
    7CHL1   H7B  457   2.756   5.109   6.150 -0.7018  0.5460  1.0800
    7CHL1    C8  458   2.913   5.256   6.118 -0.5316  0.0781 -0.0154
    7CHL1    H8  459   3.016   5.260   6.157  1.0926 -0.9583 -3.7458
    7CHL1   C14  460   2.903   5.225   5.968 -0.5702 -0.4783  0.0711
    7CHL1   H14  461   2.795   5.220   5.943 -0.1216 -0.6376 -2.0377
    7CHL1   C15  462   2.971   5.092   5.933  0.1414  0.5942  0.0850
    7CHL1  H15A  463   3.076   5.090   5.970  0.9891  0.3908 -2.2010
    7CHL1  H15B  464   2.916   4.996   5.945 -0.6760  1.1780  1.2736
    7CHL1   C16  465   2.993   5.109   5.779  0.5667 -0.0868  0.3028
    7CHL1  H16A  466   3.091   5.069   5.746  0.9538  0.0191  1.2909
    7CHL1  H16B  467   2.915   5.059   5.717  0.5482  2.3479 -1.8168
    7CHL1   C17  468   2.973   5.257   5.743 -0.1326 -0.2033 -0.1782
    7CHL1   H17  469   2.867   5.259   5.709 -0.0555 -2.1955 -0.6187
    7CHL1   C13  470   2.978   5.327   5.879 -0.4192 -0.1994 -0.0448
    7CHL1   C18  471   3.129   5.333   5.914 -0.2694  0.3625 -0.5195
    7CHL1  H18A  472   3.151   5.338   6.023  0.3150  1.2608 -0.6681
    7CHL1  H18B  473   3.180   5.239   5.883 -1.8965 -1.1146  1.0232
    7CHL1  H18C  474   3.174   5.422   5.865  0.3553  0.7844  0.7586
    7CHL1   C12  475   2.905   5.460   5.902 -1.5359  1.2007  0.1050
    7CHL1  H12A  476   2.955   5.540   5.844 -0.7994  2.0904  1.8999
    7CHL1  H12B  477   2.802   5.444   5.863 -1.7037  1.8462  0.2700
    7CHL1   C11  478   2.914   5.502   6.054  0.4844  0.0326  0.2573
    7CHL1  H11A  479   3.018   5.535   6.073  2.3755 -2.6700 -3.8909
    7CHL1  H11B  480   2.849   5.591   6.068  1.2683  0.3943  1.8322
    7CHL1    C9  481   2.856   5.391   6.149 -0.0233  0.3185 -0.0796
    7CHL1    H9  482   2.749   5.379   6.120 -0.2614 -2.3537  1.5011
    7CHL1   C10  483   2.853   5.433   6.301 -0.4904 -0.0892 -0.4482
    7CHL1   C19  484   2.995   5.470   6.340 -0.1084  0.1763 -0.3715
    7CHL1  H19A  485   3.011   5.469   6.450 -1.6166  2.7290 -0.0513
    7CHL1  H19B  486   3.079   5.401   6.315  0.7225  0.5798  1.1863
    7CHL1  H19C  487   3.015   5.574   6.306 -1.3668  0.2654 -0.8759
    7CHL1    C1  488   2.750   5.542   6.324  0.9824  0.3624  0.6223
    7CHL1   H1A  489   2.766   5.633   6.262 -0.0854  0.6131  0.6900
    7CHL1   H1B  490   2.654   5.510   6.278  2.0878 -2.5265  0.0863
    7CHL1    C2  491   2.724   5.586   6.476 -0.3041  0.1113  0.1628
    7CHL1   H2A  492   2.651   5.670   6.468 -0.7281  0.2277  3.6563
    7CHL1   H2B  493   2.819   5.619   6.523 -1.3807 -1.5209  3.9488
    7CHL1   C20  494   3.048   5.307   5.615  0.3262  0.4599 -0.7470
    7CHL1   H20  495   3.158   5.305   5.630  0.2901  1.2378 -0.2991
    7CHL1   C21  496   3.001   5.451   5.578  0.3680  0.4054  0.2784
    7CHL1  H21A  497   3.027   5.489   5.477  0.1563  0.1167  0.1157
    7CHL1  H21B  498   3.035   5.523   5.656 -0.3294 -0.5721  1.5311
    7CHL1  H21C  499   2.891   5.452   5.592  0.1166  2.0479 -1.3383
    7CHL1   C22  500   3.025   5.209   5.491  0.5082 -0.3954  0.3626
    7CHL1  H22A  501   3.021   5.104   5.527 -2.3514  0.0890  1.6454
    7CHL1  H22B  502   2.926   5.230   5.445  0.4259 -1.5956 -0.0470
    7CHL1   C23  503   3.127   5.233   5.380  0.3239 -0.0648  0.4327
    7CHL1  H23A  504   3.121   5.335   5.336  1.4843 -0.0381  0.3000
    7CHL1  H23B  505   3.227   5.213   5.424  0.4180 -0.1209  0.1949
    7CHL1   C24  506   3.117   5.124   5.268  0.1578  0.5123  0.0916
    7CHL1  H24A  507   3.162   5.032   5.311  3.4884  1.0397 -1.9286
    7CHL1  H24B  508   3.011   5.096   5.248 -0.0510  2.3319 -1.6698
    7CHL1   C25  509   3.204   5.154   5.137 -0.2595  0.3029 -0.2599
    7CHL1   H25  510   3.303   5.185   5.176  0.3193 -0.4907 -1.0615
    7CHL1   C26  511   3.221   5.030   5.047 -0.0904  0.6177 -0.1941
    7CHL1  H26A  512   3.250   4.948   5.115  0.5211  1.5796  0.7440
    7CHL1  H26B  513   3.124   5.004   4.998 -1.0032  0.8067  1.4340
    7CHL1  H26C  514   3.299   5.054   4.971  0.5532 -0.7304  0.0152
    7CHL1   C27  515   3.138   5.263   5.053  0.0425  0.4898  0.4469
    7CHL1  H27A  516   3.102   5.344   5.120  1.6437  1.9594 -0.4081
    7CHL1  H27B  517   3.209   5.296   4.974 -1.4578  0.1519 -1.1294
    7CHL1  H27C  518   3.054   5.219   4.994 -0.0772 -0.3222  1.2181
    8CHL1    C3  519   1.423   4.812   6.823  0.0347 -0.0012  0.5049
    8CHL1    H3  520   1.345   4.888   6.802  0.8243  0.1855 -2.0078
    8CHL1    O3  521   1.450   4.794   6.965 -0.0532  0.1717  0.2364
    8CHL1   H3'  522   1.513   4.723   6.970  2.4234  2.3293  2.8219
    8CHL1    C4  523   1.385   4.671   6.760  0.0662 -0.6264 -0.2076
    8CHL1   H4A  524   1.461   4.595   6.788 -2.1280 -2.7664  0.2309
    8CHL1   H4B  525   1.293   4.634   6.809  0.9229  0.6370  2.5196
    8CHL1    C5  526   1.371   4.673   6.608  0.0007  0.5769 -0.2235
    8CHL1    C6  527   1.262   4.623   6.553  0.2344  0.0506  0.0915
    8CHL1    H6  528   1.192   4.565   6.615 -0.1913 -1.1154 -1.4322
    8CHL1    C7  529   1.230   4.645   6.403  0.2231  0.3696 -0.3790
    8CHL1   H7A  530   1.175   4.561   6.355 -2.3367  0.8157  1.5267
    8CHL1   H7B  531   1.167   4.736   6.392  1.9544  1.5348 -1.0843
    8CHL1    C8  532   1.360   4.667   6.324 -0.3362  0.3750  0.3622
    8CHL1    H8  533   1.416   4.571   6.323 -0.0496  0.5044 -1.7490
    8CHL1   C14  534   1.332   4.708   6.178 -0.5514  0.2504  0.5257
    8CHL1   H14  535   1.278   4.805   6.179  1.9812  1.7415  0.5125
    8CHL1   C15  536   1.249   4.608   6.095 -0.2307  0.2716  0.3623
    8CHL1  H15A  537   1.287   4.508   6.123  3.0329  1.4021  0.4249
    8CHL1  H15B  538   1.142   4.616   6.125  0.4318  0.4173  2.8623
    8CHL1   C16  539   1.268   4.645   5.946 -0.2473 -0.8993  0.0203
    8CHL1  H16A  540   1.294   4.551   5.892 -0.8647 -1.3483  0.4995
    8CHL1  H16B  541   1.182   4.696   5.898  1.6683  0.6292 -2.0042
    8CHL1   C17  542   1.378   4.751   5.947 -0.0129  0.0029 -0.3709
    8CHL1   H17  543   1.325   4.849   5.951 -1.1948 -0.5442 -1.9373
    8CHL1   C13  544   1.449   4.742   6.086 -0.0019  0.6609 -0.8324
    8CHL1   C18  545   1.554   4.624   6.090 -0.3074 -0.3863  0.1781
    8CHL1  H18A  546   1.504   4.540   6.037  0.4056 -1.2918  0.9023
    8CHL1  H18B  547   1.650   4.646   6.039 -0.1640 -0.3830  0.4435
    8CHL1  H18C  548   1.596   4.592   6.188  1.6052  0.8534 -0.1835
    8CHL1   C12  549   1.505   4.879   6.147  0.9008  0.4625 -0.0405
    8CHL1  H12A  550   1.592   4.925   6.096  2.2199 -3.2965 -1.5440
    8CHL1  H12B  551   1.421   4.950   6.137 -1.0480 -1.9114 -1.6058
    8CHL1   C11  552   1.539   4.852   6.299  0.8462  0.1240 -0.2812
    8CHL1  H11A  553   1.633   4.794   6.296  1.6696  1.2782  1.4736
    8CHL1  H11B  554   1.571   4.945   6.352  1.1460  1.0301 -1.9730
    8CHL1    C9  555   1.433   4.786   6.389 -0.6193 -0.4220  0.0169
    8CHL1    H9  556   1.356   4.865   6.401 -0.6243 -0.3130 -0.7109
    8CHL1   C10  557   1.480   4.743   6.528  0.4263 -0.8293 -0.2188
    8CHL1   C19  558   1.604   4.655   6.532 -0.0239  0.3143  0.3559
    8CHL1  H19A  559   1.577   4.556   6.489 -0.4621  0.8333 -0.5898
    8CHL1  H19B  560   1.687   4.697   6.472  0.3172 -2.1704 -1.0634
    8CHL1  H19C  561   1.639   4.642   6.637  2.5443 -1.5485 -0.6225
    8CHL1    C1  562   1.515   4.880   6.600 -0.1794  0.2545 -0.2251
    8CHL1   H1A  563   1.606   4.930   6.560 -0.3850 -0.3182 -1.4580
    8CHL1   H1B  564   1.437   4.957   6.583  0.6662  1.3856  0.8609
    8CHL1    C2  565   1.543   4.871   6.753  0.1435  0.5809  0.2383
    8CHL1   H2A  566   1.569   4.974   6.787  1.0543  0.9724 -1.5221
    8CHL1   H2B  567   1.630   4.810   6.782 -0.6803 -0.6311  0.2368
    8CHL1   C20  568   1.460   4.750   5.815 -0.5202 -0.1499  0.3080
    8CHL1   H20  569   1.520   4.657   5.808 -1.4005 -1.0178  3.0362
    8CHL1   C21  570   1.556   4.865   5.812 -0.1296 -0.4709 -0.0833
    8CHL1  H21A  571   1.628   4.861   5.897  0.2771 -0.3699 -0.4204
    8CHL1  H21B  572   1.504   4.963   5.824 -0.9668 -0.9216  0.0297
    8CHL1  H21C  573   1.612   4.863   5.716 -0.5419  0.5649 -0.3601
    8CHL1   C22  574   1.377   4.759   5.686  0.4508  0.3076 -0.0361
    8CHL1  H22A  575   1.303   4.675   5.691  0.0381  0.4857 -2.2337
    8CHL1  H22B  576   1.315   4.851   5.697  1.3044  0.6714  2.4757
    8CHL1   C23  577   1.447   4.756   5.548  0.1674  0.3748  0.2418
    8CHL1  H23A  578   1.496   4.855   5.531  0.1380  0.1577 -1.2457
    8CHL1  H23B  579   1.524   4.676   5.553 -2.6173 -2.5775 -0.7570
    8CHL1   C24  580   1.346   4.717   5.435 -0.2247 -0.1307  0.1260
    8CHL1  H24A  581   1.287   4.633   5.477  0.4148 -0.0475  1.2320
    8CHL1  H24B  582   1.279   4.802   5.412  1.3850  0.5906 -2.3488
    8CHL1   C25  583   1.411   4.674   5.306 -0.7335 -0.0459  0.1314
    8CHL1   H25  584   1.476   4.586   5.325  0.6161  0.1099 -3.0927
    8CHL1   C26  585   1.296   4.632   5.210  0.2589 -0.1337  0.2594
    8CHL1  H26A  586   1.331   4.629   5.105 -1.5924 -1.3497 -0.3760
    8CHL1  H26B  587   1.265   4.531   5.245  2.5465 -1.2640 -0.7923
    8CHL1  H26C  588   1.209   4.700   5.198  0.2614 -0.5546 -2.8970
    8CHL1   C27  589   1.505   4.773   5.238  0.2138 -0.6333  0.4379
    8CHL1  H27A  590   1.539   4.740   5.138 -2.1128  0.7048 -0.8838
    8CHL1  H27B  591   1.454   4.872   5.231 -0.2451 -0.6218  2.8053
    8CHL1  H27C  592   1.591   4.796   5.305  1.6002 -1.6990 -0.9196
    9CHL1    C3  593   2.376   0.003   6.470  0.6613  0.0838 -0.4140
    9CHL1    H3  594   2.300   0.063   6.415  2.3998 -1.0677 -4.4191
    9CHL1    O3  595   2.362  -0.001   6.617 -0.4163 -0.7037 -0.3984
    9CHL1   H3'  596   2.445  -0.025   6.659  0.5877  1.7480 -0.8516
    9CHL1    C4  597   2.356  -0.134   6.416  0.8651  0.2083  0.1724
    9CHL1   H4A  598   2.416  -0.222   6.449  0.8026  0.5048  1.1115
    9CHL1   H4B  599   2.258  -0.177   6.446 -0.9181  1.3488 -3.4603
    9CHL1    C5  600   2.365  -0.144   6.269  0.4308  0.6173  0.6976
    9CHL1    C6  601   2.268  -0.205   6.194  0.3654 -0.6786 -0.0909
    9CHL1    H6  602   2.184  -0.261   6.236  0.6307 -1.7764 -0.9631
    9CHL1    C7  603   2.257  -0.206   6.044  0.3951 -0.5382 -0.0236
    9CHL1   H7A  604   2.229  -0.308   6.010 -0.0559 -0.3376 -0.2644
    9CHL1   H7B  605   2.181  -0.129   6.018  0.3437  0.1600  1.9787
    9CHL1    C8  606   2.394  -0.158   5.985  1.1675  0.0307 -0.4865
    9CHL1    H8  607   2.465  -0.241   6.000  1.5251  0.6419  1.4482
    9CHL1   C14  608   2.382  -0.129   5.837 -0.3391  0.1938  0.5853
    9CHL1   H14  609   2.325  -0.034   5.827  1.2888  1.3738  1.7475
    9CHL1   C15  610   2.330  -0.236   5.743  0.1973 -0.4382  0.5261
    9CHL1  H15A  611   2.351  -0.341   5.774  0.5687 -0.1432  1.2886
    9CHL1  H15B  612   2.220  -0.221   5.733  0.2498 -1.4022 -2.7148
    9CHL1   C16  613   2.380  -0.208   5.601 -0.3979 -0.2869  0.1222
    9CHL1  H16A  614   2.424  -0.297   5.551 -0.9220 -0.1590 -0.5878
    9CHL1  H16B  615   2.294  -0.177   5.538  0.3823  0.4408 -0.6160
    9CHL1   C17  616   2.480  -0.095   5.614  0.2360  0.4613  0.5276
    9CHL1   H17  617   2.426  -0.001   5.590 -0.0129  0.3319  0.5792
    9CHL1   C13  618   2.519  -0.096   5.768 -0.0106 -0.1854 -0.6658
    9CHL1   C18  619   2.624  -0.205   5.786  0.0514  0.7561  0.3958
    9CHL1  H18A  620   2.594  -0.290   5.720 -1.8811  0.0488  2.0878
    9CHL1  H18B  621   2.727  -0.182   5.752  0.8306 -0.4077  1.8178
    9CHL1  H18C  622   2.632  -0.257   5.884 -0.1934 -1.3460 -0.6310
    9CHL1   C12  623   2.561   0.039   5.826 -0.3201  0.0917 -0.6018
    9CHL1  H12A  624   2.660   0.079   5.795 -0.1196 -0.1624 -0.2975
    9CHL1  H12B  625   2.485   0.119   5.818  1.5900  2.2834  1.5312
    9CHL1   C11  626   2.568   0.033   5.982 -0.2953 -0.5250  0.0673
    9CHL1  H11A  627   2.664  -0.021   6.001  0.3072  0.3272 -0.5014
    9CHL1  H11B  628   2.591   0.129   6.033 -1.5185 -0.9795  1.5535
    9CHL1    C9  629   2.456  -0.045   6.055 -0.1725 -0.5659 -0.5383
    9CHL1    H9  630   2.372   0.028   6.060  0.8625  0.6975 -1.0816
    9CHL1   C10  631   2.482  -0.068   6.202  0.1357  0.2082 -0.1962
    9CHL1   C19  632   2.595  -0.174   6.227  0.8952 -0.1115 -0.0669
    9CHL1  H19A  633   2.627  -0.167   6.333  2.2096  1.5779 -0.5214
    9CHL1  H19B  634   2.569  -0.273   6.183  1.0257  0.1609 -0.7829
    9CHL1  H19C  635   2.688  -0.148   6.171 -0.2562  0.9444 -1.5685
    9CHL1    C1  636   2.507   0.069   6.276 -0.1254 -0.5467  1.5427
    9CHL1   H1A  637   2.613   0.096   6.255  0.3912 -1.7593  2.4797
    9CHL1   H1B  638   2.437   0.147   6.240  1.1618 -0.3114 -0.6438
    9CHL1    C2  639   2.508   0.074   6.428  0.7210  0.4745 -0.3960
    9CHL1   H2A  640   2.508   0.171   6.481 -0.1989 -0.8357  2.1506
    9CHL1   H2B  641   2.587   0.019   6.483  0.6374 -0.5396 -1.2426
    9CHL1   C20  642   2.593  -0.094   5.506  0.3198  0.3044  0.1800
    9CHL1   H20  643   2.664  -0.179   5.504  0.7045  0.6174 -2.4902
    9CHL1   C21  644   2.687   0.028   5.527 -0.7999  0.1353 -0.2047
    9CHL1  H21A  645   2.755   0.011   5.614  0.1640 -0.3719 -1.0313
    9CHL1  H21B  646   2.641   0.129   5.527 -1.2503 -0.0422 -1.8096
    9CHL1  H21C  647   2.753   0.043   5.438 -1.3382 -1.7894 -0.9722
    9CHL1   C22  648   2.540  -0.078   5.359 -0.0919 -0.1217  0.4238
    9CHL1  H22A  649   2.462   0.000   5.348 -0.7204 -0.8977 -0.9270
    9CHL1  H22B  650   2.626  -0.056   5.293 -0.9552 -0.1983 -0.7746
    9CHL1   C23  651   2.481  -0.207   5.290  0.2384 -0.3305  0.2425
    9CHL1  H23A  652   2.522  -0.307   5.313  2.7241  0.7466  0.8618
    9CHL1  H23B  653   2.373  -0.217   5.316  0.4941  0.5311  1.7657
    9CHL1   C24  654   2.494  -0.197   5.136  0.4303  0.3838  0.0419
    9CHL1  H24A  655   2.603  -0.196   5.111  1.1023 -1.4655  2.4925
    9CHL1  H24B  656   2.446  -0.289   5.097 -1.8180  0.4053  2.5185
    9CHL1   C25  657   2.422  -0.087   5.064  0.2951  0.5272  1.2017
    9CHL1   H25  658   2.478   0.008   5.079  2.2395 -0.4202  0.2994
    9CHL1   C26  659   2.430  -0.109   4.911  0.6392 -0.4423  0.5307
    9CHL1  H26A  660   2.532  -0.120   4.867  0.7970  1.4405  0.3435
    9CHL1  H26B  661   2.364  -0.197   4.894 -1.2927  0.6096  2.1288
    9CHL1  H26C  662   2.379  -0.022   4.865  1.2835  1.5674  3.3615
    9CHL1   C27  663   2.280  -0.068   5.113  0.1777 -1.1017 -1.0298
    9CHL1  H27A  664   2.283  -0.003   5.202  3.6903  2.0518 -3.1765
    9CHL1  H27B  665   2.213  -0.018   5.040  0.8516  0.0020 -0.9106
    9CHL1  H27C  666   2.232  -0.165   5.140 -2.8822  0.7125  0.6062
   10CHL1    C3  667   2.691   2.084   6.730  0.3744  0.5975  0.0538
   10CHL1    H3  668   2.777   2.153   6.714 -0.9746  1.9715 -1.6301
   10CHL1    O3  669   2.642   2.123   6.854 -0.2600  0.4418 -0.5874
   10CHL1   H3'  670   2.718   2.137   6.911 -1.5061  1.3631  0.9123
   10CHL1    C4  671   2.581   2.105   6.622 -0.0030  0.1800 -0.0257
   10CHL1   H4A  672   2.485   2.056   6.650  0.4504 -0.1532  0.9935
   10CHL1   H4B  673   2.548   2.211   6.629 -1.4091 -0.2976  1.0370
   10CHL1    C5  674   2.644   2.065   6.484  0.2287 -0.2493 -0.1055
   10CHL1    C6  675   2.633   2.153   6.379  0.0167 -0.2305 -0.7839
   10CHL1    H6  676   2.566   2.238   6.400 -0.3867 -1.0975  1.8904
   10CHL1    C7  677   2.694   2.130   6.246 -0.2227  0.7412  0.6467
   10CHL1   H7A  678   2.609   2.136   6.175  0.9820  3.5112 -0.7446
   10CHL1   H7B  679   2.764   2.214   6.222 -1.4456  1.1291 -1.9316
   10CHL1    C8  680   2.765   1.991   6.228  0.0990  0.1717 -0.1502
   10CHL1    H8  681   2.683   1.922   6.197  0.5943 -0.5044  0.0241
   10CHL1   C14  682   2.871   1.992   6.120 -0.3223  0.4273 -0.3450
   10CHL1   H14  683   2.962   2.043   6.158 -0.3741  0.9950 -0.9700
   10CHL1   C15  684   2.828   2.072   5.995  0.1589 -0.7283  0.0805
   10CHL1  H15A  685   2.723   2.061   5.961  0.8775  0.8221 -2.9171
   10CHL1  H15B  686   2.839   2.180   6.019  0.5660 -0.5400 -0.9118
   10CHL1   C16  687   2.927   2.020   5.888 -0.3666  0.8507  0.1316
   10CHL1  H16A  688   2.866   1.959   5.819 -0.0055  2.0962 -1.3339
   10CHL1  H16B  689   2.993   2.090   5.834 -0.1922  0.8436  0.3319
   10CHL1   C17  690   3.005   1.908   5.965  0.9928 -0.9920 -0.3184
   10CHL1   H17  691   3.087   1.968   6.009  0.6779 -0.3058 -0.6546
   10CHL1   C13  692   2.924   1.857   6.075  0.0427 -0.5151 -0.3547
   10CHL1   C18  693   2.813   1.760   6.028  0.2134  0.0490 -0.0522
   10CHL1  H18A  694   2.850   1.661   5.992  0.0290  0.5222 -1.6197
   10CHL1  H18B  695   2.753   1.740   6.119  0.3609 -1.6870 -0.2908
   10CHL1  H18C  696   2.751   1.795   5.943 -0.1755  1.3702  0.7553
   10CHL1   C12  697   2.992   1.810   6.201  0.6757 -0.0725  0.1461
   10CHL1  H12A  698   3.029   1.705   6.196 -0.9240 -0.6683  0.1189
   10CHL1  H12B  699   3.082   1.870   6.227 -0.0098  1.2340 -0.3937
   10CHL1   C11  700   2.903   1.796   6.323  0.9079 -0.4087  0.3070
   10CHL1  H11A  701   2.825   1.718   6.320  1.0270 -0.5857  1.2635
   10CHL1  H11B  702   2.969   1.777   6.411  2.8541  0.3504 -0.9306
   10CHL1    C9  703   2.819   1.934   6.350  0.3280  0.7133  0.1528
   10CHL1    H9  704   2.903   2.003   6.373  1.2377  0.0852 -1.1958
   10CHL1   C10  705   2.723   1.934   6.470  0.5675 -0.3772 -0.7594
   10CHL1   C19  706   2.614   1.827   6.444  0.1622 -0.5285 -0.5269
   10CHL1  H19A  707   2.555   1.812   6.537  0.2062  0.2063 -0.3703
   10CHL1  H19B  708   2.551   1.862   6.359  0.2056  0.0708 -0.3151
   10CHL1  H19C  709   2.656   1.731   6.407  1.6870  0.2237 -0.8070
   10CHL1    C1  710   2.802   1.901   6.606 -0.2042  0.1314 -0.1347
   10CHL1   H1A  711   2.811   1.790   6.602 -0.2806  0.1391 -0.5877
   10CHL1   H1B  712   2.909   1.927   6.593 -0.0973 -0.4532 -0.4671
   10CHL1    C2  713   2.744   1.940   6.739  0.1580 -0.1490  0.2993
   10CHL1   H2A  714   2.823   1.930   6.816 -1.5116  0.4816  2.1665
   10CHL1   H2B  715   2.665   1.871   6.776  0.1649  0.2006  0.9724
   10CHL1   C20  716   3.075   1.809   5.865  0.2882  0.5084 -0.0965
   10CHL1   H20  717   2.993   1.744   5.827  0.3009  0.3098  0.2119
   10CHL1   C21  718   3.170   1.717   5.933 -0.4133  0.0114  0.2716
   10CHL1  H21A  719   3.265   1.767   5.964 -1.4401  0.7527  2.4478
   10CHL1  H21B  720   3.211   1.641   5.863  1.0763  1.1015 -0.0916
   10CHL1  H21C  721   3.124   1.671   6.024 -0.6049 -0.1235  0.1084
   10CHL1   C22  722   3.135   1.864   5.732 -0.1877 -0.5570 -0.1832
   10CHL1  H22A  723   3.062   1.925   5.675 -1.1517 -0.0873  1.4611
   10CHL1  H22B  724   3.213   1.935   5.766  0.7143 -1.2246 -0.7928
   10CHL1   C23  725   3.208   1.775   5.632 -0.5445 -0.2709  0.2269
   10CHL1  H23A  726   3.300   1.727   5.672 -0.8490 -0.6174  0.5210
   10CHL1  H23B  727   3.138   1.694   5.600 -2.2568  0.9516  0.7749
   10CHL1   C24  728   3.252   1.856   5.510  0.1185  0.1026  0.3212
   10CHL1  H24A  729   3.160   1.895   5.462  0.5164  2.0214  1.0307
   10CHL1  H24B  730   3.308   1.939   5.558  0.1058 -0.4488  1.3239
   10CHL1   C25  731   3.341   1.786   5.408 -0.5054  0.1538  0.8310
   10CHL1   H25  732   3.278   1.706   5.363  0.0750  0.3887 -0.4316
   10CHL1   C26  733   3.385   1.881   5.297 -0.3710 -0.7778 -0.0449
   10CHL1  H26A  734   3.412   1.822   5.206  0.3112 -1.3618  0.5179
   10CHL1  H26B  735   3.301   1.946   5.264  0.9464  0.4866 -1.0514
   10CHL1  H26C  736   3.471   1.942   5.332  0.3581  0.4851 -3.5841
   10CHL1   C27  737   3.469   1.716   5.468  0.2753  0.4423 -0.1538
   10CHL1  H27A  738   3.429   1.631   5.528  0.2209 -0.5479 -1.5333
   10CHL1  H27B  739   3.530   1.685   5.381  1.6074  2.3560  0.0362
   10CHL1  H27C  740   3.526   1.786   5.532  3.2800 -3.1437  1.4760
   11CHL1    C3  741   1.859   5.540   6.321  0.2610  0.7724 -0.1541
   11CHL1    H3  742   1.869   5.430   6.328  3.1889  0.9569 -0.1416
   11CHL1    O3  743   1.880   5.587   6.452 -0.3847 -0.0622  0.1193
   11CHL1   H3'  744   1.873   5.683   6.447  4.6769  0.5070 -1.0913
   11CHL1    C4  745   1.975   5.588   6.228  0.1644 -0.8035  0.0479
   11CHL1   H4A  746   1.967   5.699   6.237  2.3518 -0.4610 -1.3922
   11CHL1   H4B  747   2.071   5.566   6.278  0.2675  0.5475  0.5043
   11CHL1    C5  748   1.960   5.544   6.084  0.7713  0.7803 -0.3444
   11CHL1    C6  749   2.054   5.480   6.012  0.1941 -0.8831  0.0958
   11CHL1    H6  750   2.154   5.472   6.059  0.8997  1.5029 -0.8439
   11CHL1    C7  751   2.032   5.458   5.867 -0.4893 -0.2464  0.4548
   11CHL1   H7A  752   2.127   5.470   5.810 -1.4326 -0.1548 -1.1487
   11CHL1   H7B  753   2.011   5.350   5.851 -0.7740 -0.0368 -0.7096
   11CHL1    C8  754   1.928   5.546   5.797 -0.3416 -0.2130 -0.4478
   11CHL1    H8  755   1.959   5.651   5.779 -1.2292  0.4753  1.7119
   11CHL1   C14  756   1.901   5.485   5.661  0.7529 -0.4566 -0.2326
   11CHL1   H14  757   1.853   5.390   5.692 -0.4293  0.2715  0.2340
   11CHL1   C15  758   2.014   5.461   5.566  0.0875 -0.7485 -0.5278
   11CHL1  H15A  759   2.074   5.555   5.561 -0.8893 -0.0186  0.8896
   11CHL1  H15B  760   2.083   5.378   5.592 -0.5783 -0.9639  0.6024
   11CHL1   C16  761   1.939   5.429   5.428 -0.2716  0.6213 -0.1141
   11CHL1  H16A  762   1.978   5.500   5.352  1.0638 -0.5285 -0.5604
   11CHL1  H16B  763   1.956   5.322   5.404 -0.7426  0.3487  0.7291
   11CHL1   C17  764   1.796   5.467   5.454 -0.2061  0.7930  0.1532
   11CHL1   H17  765   1.747   5.373   5.488  1.2232 -0.2959 -0.6810
   11CHL1   C13  766   1.786   5.553   5.586  0.2175  0.2333 -0.0931
   11CHL1   C18  767   1.820   5.701   5.560  0.5494 -0.5446  0.1849
   11CHL1  H18A  768   1.839   5.768   5.647 -1.3238 -1.1678  1.1135
   11CHL1  H18B  769   1.919   5.706   5.508  1.1411  0.2782  1.3363
   11CHL1  H18C  770   1.735   5.741   5.501  1.5907  0.5128 -0.6539
   11CHL1   C12  771   1.658   5.527   5.665 -0.5033 -0.2230  0.6239
   11CHL1  H12A  772   1.572   5.562   5.606  0.1321 -0.1392 -0.2736
   11CHL1  H12B  773   1.637   5.419   5.685  0.7251 -0.8111 -1.0642
   11CHL1   C11  774   1.676   5.597   5.803 -0.1275 -0.1033  0.2616
   11CHL1  H11A  775   1.688   5.707   5.802 -0.5592 -0.0069  2.0360
   11CHL1  H11B  776   1.584   5.576   5.861  0.2752  1.5793  1.6029
   11CHL1    C9  777   1.801   5.547   5.882  0.5161 -0.5943 -0.7251
   11CHL1    H9  778   1.776   5.441   5.903 -2.1056  0.2048  0.7695
   11CHL1   C10  779   1.821   5.590   6.031  0.1590 -0.2191  0.4491
   11CHL1   C19  780   1.825   5.755   6.023 -0.1072 -0.6124  0.4832
   11CHL1  H19A  781   1.733   5.808   5.991 -0.1441 -0.1455  1.3385
   11CHL1  H19B  782   1.841   5.789   6.128 -0.2111 -0.7231  0.5338
   11CHL1  H19C  783   1.904   5.801   5.959  0.1446 -0.2951  1.0067
   11CHL1    C1  784   1.705   5.540   6.124 -0.3084 -0.3087  0.1912
   11CHL1   H1A  785   1.614   5.586   6.079  0.7603 -0.3226 -2.1153
   11CHL1   H1B  786   1.701   5.430   6.110 -1.5951 -0.7009  2.9913
   11CHL1    C2  787   1.723   5.586   6.268 -0.3647 -0.0468  0.9425
   11CHL1   H2A  788   1.642   5.552   6.337  0.5923  0.0708  2.1616
   11CHL1   H2B  789   1.715   5.696   6.276 -0.7255 -0.1739  2.8105
   11CHL1   C20  790   1.716   5.520   5.333 -0.1435  0.1812  0.1350
   11CHL1   H20  791   1.615   5.552   5.366  0.2452  1.3837  0.2403
   11CHL1   C21  792   1.681   5.399   5.242  0.3268  0.5273  0.1357
   11CHL1  H21A  793   1.589   5.421   5.183  0.9605  1.0426 -0.6766
   11CHL1  H21B  794   1.659   5.305   5.298  1.2417 -0.0630 -0.4691
   11CHL1  H21C  795   1.756   5.378   5.163 -0.1599 -0.5770 -0.0582
   11CHL1   C22  796   1.792   5.619   5.240 -0.4842  0.0708 -0.0845
   11CHL1  H22A  797   1.848   5.698   5.294 -2.1254  0.8456  0.5833
   11CHL1  H22B  798   1.864   5.561   5.179  1.4107  1.5224  0.7076
   11CHL1   C23  799   1.690   5.702   5.147  0.0237 -0.2770 -0.5864
   11CHL1  H23A  800   1.643   5.638   5.069  0.2628 -1.4120  0.1846
   11CHL1  H23B  801   1.606   5.743   5.208  1.9105  1.2976  1.0993
   11CHL1   C24  802   1.770   5.818   5.074  0.3411  0.2324  0.5662
   11CHL1  H24A  803   1.802   5.896   5.146  0.8956  0.8104 -0.2796
   11CHL1  H24B  804   1.861   5.775   5.027 -1.0118 -1.1896 -0.8649
   11CHL1   C25  805   1.687   5.898   4.969 -0.1176 -0.0395 -1.1330
   11CHL1   H25  806   1.585   5.912   5.010  0.8095  3.0593  0.4699
   11CHL1   C26  807   1.755   6.027   4.943 -0.0482 -0.5896  0.1952
   11CHL1  H26A  808   1.709   6.083   4.859 -1.4683  0.0745  1.4000
   11CHL1  H26B  809   1.757   6.096   5.029 -0.3299  2.9838 -2.4376
   11CHL1  H26C  810   1.862   6.017   4.914  0.3050 -0.2783  1.3544
   11CHL1   C27  811   1.678   5.831   4.836 -0.1452 -0.5782  0.1617
   11CHL1  H27A  812   1.618   5.737   4.841 -1.1404 -0.0377 -1.1359
   11CHL1  H27B  813   1.625   5.884   4.754 -1.2577 -0.1471  1.1461
   11CHL1  H27C  814   1.779   5.809   4.794 -0.6226  0.6362 -1.7703
   12CHL1    C3  815   2.685   4.268   6.311 -0.5453 -0.2579  1.0425
   12CHL1    H3  816   2.619   4.210   6.243  0.0825  0.5603 -0.3223
   12CHL1    O3  817   2.689   4.210   6.437 -0.4154  0.3189 -0.2177
   12CHL1   H3'  818   2.611   4.232   6.490 -1.2582  0.2095 -1.3679
   12CHL1    C4  819   2.831   4.253   6.250  0.0249 -0.3703 -0.3154
   12CHL1   H4A  820   2.898   4.301   6.325 -0.8562  0.3064  0.0635
   12CHL1   H4B  821   2.855   4.145   6.254  0.1873 -0.3835 -1.3932
   12CHL1    C5  822   2.841   4.305   6.108  0.2622  0.3999 -0.1318
   12CHL1    C6  823   2.891   4.234   6.007 -0.1171  0.2860  0.7584
   12CHL1    H6  824   2.926   4.130   6.020 -1.3541 -0.9860 -4.0795
   12CHL1    C7  825   2.908   4.297   5.866 -0.3944 -0.9815  0.3890
   12CHL1   H7A  826   3.013   4.278   5.835  0.4593  0.7920  1.9568
   12CHL1   H7B  827   2.844   4.246   5.792 -0.7857 -0.6848  0.5201
   12CHL1    C8  828   2.890   4.449   5.856 -0.1880 -0.9052 -1.0143
   12CHL1    H8  829   2.991   4.482   5.888 -1.3334 -1.2173  3.6452
   12CHL1   C14  830   2.859   4.481   5.712 -0.8846  0.0634 -0.6634
   12CHL1   H14  831   2.758   4.438   5.691 -0.2443 -1.6844 -0.3010
   12CHL1   C15  832   2.956   4.444   5.600 -0.7896 -0.0224  0.2637
   12CHL1  H15A  833   3.065   4.457   5.616 -0.0192 -0.9681 -3.3469
   12CHL1  H15B  834   2.946   4.336   5.576 -0.3149  0.5928 -3.3892
   12CHL1   C16  835   2.899   4.520   5.478  0.2396 -0.7240  0.3480
   12CHL1  H16A  836   2.974   4.555   5.405 -0.8751 -1.3533 -1.1397
   12CHL1  H16B  837   2.838   4.464   5.404 -0.6521  2.5306 -1.6157
   12CHL1   C17  838   2.815   4.645   5.534 -0.9491  0.1906  0.3419
   12CHL1   H17  839   2.710   4.613   5.517 -0.5373 -0.6867 -0.6780
   12CHL1   C13  840   2.840   4.636   5.686 -0.0443  0.0511 -0.1041
   12CHL1   C18  841   2.977   4.711   5.714  0.3529  0.1686  0.4410
   12CHL1  H18A  842   3.058   4.676   5.647 -0.4985  0.8607 -0.9908
   12CHL1  H18B  843   2.959   4.821   5.709  0.2798  0.5153  4.6435
   12CHL1  H18C  844   3.008   4.696   5.820  0.5506 -1.2071  0.2128
   12CHL1   C12  845   2.717   4.683   5.784  0.0461  0.0218  0.2260
   12CHL1  H12A  846   2.711   4.794   5.775 -0.3981 -0.1750 -3.2662
   12CHL1  H12B  847   2.622   4.638   5.750  0.2192  1.1846 -1.9544
   12CHL1   C11  848   2.743   4.649   5.933 -0.1285  0.7850 -0.2197
   12CHL1  H11A  849   2.825   4.714   5.972 -3.4159  3.9266  2.1982
   12CHL1  H11B  850   2.650   4.677   5.988 -0.4578  1.0244 -0.8938
   12CHL1    C9  851   2.774   4.497   5.951  0.2412 -0.5988 -0.4389
   12CHL1    H9  852   2.685   4.439   5.919 -0.5428  0.4433 -0.1580
   12CHL1   C10  853   2.796   4.450   6.096  0.0789 -0.3388  0.8706
   12CHL1   C19  854   2.918   4.533   6.156  0.3810  0.2980  0.0135
   12CHL1  H19A  855   2.901   4.635   6.117  0.4359  0.3536  0.1328
   12CHL1  H19B  856   2.926   4.528   6.267 -1.7312 -0.6228  0.1665
   12CHL1  H19C  857   3.015   4.506   6.109  0.2233 -2.2034  0.9559
   12CHL1    C1  858   2.662   4.479   6.171 -0.2197  0.4237  0.0105
   12CHL1   H1A  859   2.643   4.588   6.177 -0.3484  0.4084 -0.1041
   12CHL1   H1B  860   2.583   4.425   6.114  0.8852  0.3079 -1.4685
   12CHL1    C2  861   2.652   4.416   6.314 -0.3976  0.1557 -0.9515
   12CHL1   H2A  862   2.552   4.436   6.358 -0.1693  1.3478 -0.9337
   12CHL1   H2B  863   2.726   4.473   6.374  1.6965  0.0207 -3.2594
   12CHL1   C20  864   2.845   4.758   5.447 -0.2435  0.3195 -0.4685
   12CHL1   H20  865   2.952   4.785   5.453 -0.3714  2.7858 -4.9614
   12CHL1   C21  866   2.759   4.876   5.496 -1.0057 -0.5343  0.1582
   12CHL1  H21A  867   2.806   4.967   5.453  2.1243 -2.0421  0.1508
   12CHL1  H21B  868   2.766   4.894   5.606 -2.4703 -2.4591  0.6136
   12CHL1  H21C  869   2.652   4.863   5.470 -1.5280  0.8033  1.4631
   12CHL1   C22  870   2.807   4.735   5.304 -0.6465  0.3595 -0.6000
   12CHL1  H22A  871   2.885   4.667   5.262 -2.4625 -1.5231 -1.0593
   12CHL1  H22B  872   2.703   4.698   5.301 -0.7075  0.1252  2.0754
   12CHL1   C23  873   2.823   4.857   5.208 -0.1338 -0.3281  0.1265
   12CHL1  H23A  874   2.750   4.937   5.232  0.5385  0.8230 -1.4908
   12CHL1  H23B  875   2.924   4.902   5.214 -0.7135  1.1396 -0.7370
   12CHL1   C24  876   2.809   4.833   5.059 -0.5713  0.0758  1.2514
   12CHL1  H24A  877   2.896   4.767   5.036 -2.7003 -1.7391 -2.7053
   12CHL1  H24B  878   2.722   4.774   5.022 -1.1357  1.8363 -0.4402
   12CHL1   C25  879   2.807   4.959   4.968 -0.3409 -0.4364  0.2091
   12CHL1   H25  880   2.883   5.023   5.018  0.3817 -1.9890  1.1642
   12CHL1   C26  881   2.863   4.941   4.822  0.2711  0.3891 -0.2530
   12CHL1  H26A  882   2.806   4.853   4.786  1.6635 -0.6314 -0.0710
   12CHL1  H26B  883   2.849   5.032   4.760  0.0156 -0.9474 -2.2420
   12CHL1  H26C  884   2.968   4.907   4.832 -0.5876 -2.3962  0.2179
   12CHL1   C27  885   2.666   5.038   4.969 -0.2903  0.4840  0.0519
   12CHL1  H27A  886   2.657   5.122   4.897 -2.1245  0.2146 -0.0787
   12CHL1  H27B  887   2.586   4.967   4.939 -0.8185  0.9463  0.3492
   12CHL1  H27C  888   2.638   5.072   5.071 -0.2236 -0.1401  0.2869
   13CHL1    C3  889   6.724   2.792   6.687  0.4161 -0.6032  0.3109
   13CHL1    H3  890   6.801   2.715   6.662  2.4617  0.8795  1.7381
   13CHL1    O3  891   6.710   2.819   6.827  0.4324 -0.3790 -0.2402
   13CHL1   H3'  892   6.652   2.895   6.829  0.0661 -0.6363 -0.7430
   13CHL1    C4  893   6.764   2.932   6.625 -0.5368 -0.1234 -0.0221
   13CHL1   H4A  894   6.681   3.002   6.650  0.4570  1.4846 -1.0025
   13CHL1   H4B  895   6.857   2.971   6.672 -0.1671 -0.2989 -0.6001
   13CHL1    C5  896   6.779   2.904   6.478  0.0965 -0.8977 -0.1219
   13CHL1    C6  897   6.899   2.920   6.421  0.1598 -0.0748 -0.7401
   13CHL1    H6  898   6.985   2.950   6.482  0.3127  0.8677 -1.4018
   13CHL1    C7  899   6.927   2.918   6.272  0.3443 -0.2434 -0.2857
   13CHL1   H7A  900   6.993   3.002   6.240  0.6857 -0.1780  0.5835
   13CHL1   H7B  901   6.990   2.830   6.248  0.8237  0.2900 -1.0578
   13CHL1    C8  902   6.798   2.901   6.184 -0.8365  0.6927  0.4396
   13CHL1    H8  903   6.772   3.006   6.159  0.5777  1.2911  1.3397
   13CHL1   C14  904   6.815   2.837   6.047 -0.6031  0.6951  0.7791
   13CHL1   H14  905   6.830   2.730   6.072 -0.7204  0.9656  2.0700
   13CHL1   C15  906   6.939   2.881   5.966  0.2151  0.0668  0.5615
   13CHL1  H15A  907   6.975   2.982   5.994  0.2110 -0.3592  2.2134
   13CHL1  H15B  908   7.022   2.814   5.997  1.8353  2.0056  0.5620
   13CHL1   C16  909   6.902   2.852   5.820 -0.9632 -0.2168  0.5899
   13CHL1  H16A  910   6.909   2.949   5.766 -0.3900  0.4349  1.7769
   13CHL1  H16B  911   6.965   2.780   5.764  0.6403  1.8967 -0.4985
   13CHL1   C17  912   6.756   2.791   5.821 -0.7177  0.3840 -0.3625
   13CHL1   H17  913   6.757   2.683   5.850 -2.3074  0.8621  1.7125
   13CHL1   C13  914   6.692   2.843   5.952 -0.2933 -0.0119 -0.2078
   13CHL1   C18  915   6.653   2.994   5.924  0.5282  0.1535 -0.3072
   13CHL1  H18A  916   6.725   3.041   5.854  1.0205 -2.1787 -1.4732
   13CHL1  H18B  917   6.556   3.006   5.872  1.5154  2.4698 -1.7231
   13CHL1  H18C  918   6.652   3.052   6.019 -1.0196 -0.1169 -0.1198
   13CHL1   C12  919   6.579   2.764   6.023 -0.0852 -0.5302 -0.0942
   13CHL1  H12A  920   6.480   2.768   5.973 -0.3029 -2.0518  0.1501
   13CHL1  H12B  921   6.603   2.655   6.031  2.2421 -0.0090  0.8730
   13CHL1   C11  922   6.551   2.815   6.164  0.3253  0.1061  0.2703
   13CHL1  H11A  923   6.495   2.910   6.152 -0.2041 -0.5078 -3.3357
   13CHL1  H11B  924   6.478   2.739   6.202 -0.5351  0.6121 -0.3555
   13CHL1    C9  925   6.679   2.822   6.252  0.0174  0.1363  0.1836
   13CHL1    H9  926   6.724   2.721   6.266  2.3309  1.4463  3.0364
   13CHL1   C10  927   6.649   2.877   6.393  0.0483  0.1528  0.5656
   13CHL1   C19  928   6.557   3.003   6.388  0.6486 -0.3724 -0.4922
   13CHL1  H19A  929   6.541   3.045   6.490  1.0361  2.1969 -1.4215
   13CHL1  H19B  930   6.610   3.082   6.329  0.3457 -1.5930 -2.4672
   13CHL1  H19C  931   6.459   2.985   6.339 -0.4155  0.5946  1.1836
   13CHL1    C1  932   6.575   2.762   6.474  0.1701 -0.3825 -0.3461
   13CHL1   H1A  933   6.467   2.758   6.450  0.2056  1.4858 -0.9714
   13CHL1   H1B  934   6.630   2.666   6.460  1.8573 -0.0169  2.7820
   13CHL1    C2  935   6.582   2.764   6.629 -0.2433  0.7452  0.1164
   13CHL1   H2A  936   6.551   2.664   6.667  0.1292  1.3728  2.1601
   13CHL1   H2B  937   6.501   2.835   6.652 -1.8164 -1.1564  0.7299
   13CHL1   C20  938   6.684   2.793   5.689 -0.5910 -0.2176  0.9271
   13CHL1   H20  939   6.698   2.898   5.655  3.2754 -0.8190  0.1365
   13CHL1   C21  940   6.532   2.757   5.698 -0.5823  0.9922  0.6554
   13CHL1  H21A  941   6.511   2.658   5.744 -0.5965 -0.1839 -1.6868
   13CHL1  H21B  942   6.483   2.756   5.598 -2.9580 -0.9862  1.7214
   13CHL1  H21C  943   6.478   2.834   5.757 -1.1431  0.5006  0.8009
   13CHL1   C22  944   6.754   2.686   5.592  0.3366 -0.5197 -0.5526
   13CHL1  H22A  945   6.858   2.712   5.564  0.5997  0.0330  0.8193
   13CHL1  H22B  946   6.756   2.588   5.644 -1.7781 -0.3878 -0.1196
   13CHL1   C23  947   6.679   2.668   5.451 -0.7065 -0.6961  0.1473
   13CHL1  H23A  948   6.583   2.615   5.472 -2.0389  1.8477  0.8267
   13CHL1  H23B  949   6.674   2.772   5.413  4.0208 -0.1988  0.2665
   13CHL1   C24  950   6.770   2.596   5.354  0.7596 -0.6300  0.0133
   13CHL1  H24A  951   6.865   2.650   5.335  0.0407  0.4505 -0.5513
   13CHL1  H24B  952   6.793   2.493   5.392 -2.4816 -1.9557 -1.2778
   13CHL1   C25  953   6.708   2.587   5.210  0.2053  0.5926 -0.1759
   13CHL1   H25  954   6.696   2.695   5.186 -1.0654  0.4743 -0.1247
   13CHL1   C26  955   6.819   2.521   5.119  0.0970  0.1289  0.8387
   13CHL1  H26A  956   6.805   2.411   5.122  0.6732 -0.1004 -1.8799
   13CHL1  H26B  957   6.789   2.562   5.020  0.0875  1.1998  1.2744
   13CHL1  H26C  958   6.920   2.565   5.132  1.2755 -1.3698 -2.2800
   13CHL1   C27  959   6.570   2.511   5.220 -0.8764 -0.3116  1.2080
   13CHL1  H27A  960   6.589   2.407   5.254  1.3887 -0.5472 -0.5235
   13CHL1  H27B  961   6.501   2.563   5.290  0.5066  1.3053  1.4131
   13CHL1  H27C  962   6.521   2.504   5.120  1.0725  1.7776  0.0212
   14CHL1    C3  963   4.315   2.467   6.692  0.2786 -0.5230  0.1913
   14CHL1    H3  964   4.315   2.357   6.674  0.7075 -0.6122  0.6824
   14CHL1    O3  965   4.335   2.486   6.831 -0.0831  0.7722  0.2076
   14CHL1   H3'  966   4.255   2.512   6.878  0.3177  1.2420  0.6430
   14CHL1    C4  967   4.426   2.535   6.611 -1.1190 -0.2607 -0.1526
   14CHL1   H4A  968   4.438   2.636   6.655 -0.0477 -0.5668  0.2788
   14CHL1   H4B  969   4.520   2.490   6.647  0.0280  1.2362 -1.1447
   14CHL1    C5  970   4.422   2.524   6.466  0.1010 -0.2713  0.0748
   14CHL1    C6  971   4.524   2.472   6.397 -0.2796 -0.0700  0.1434
   14CHL1    H6  972   4.608   2.420   6.445 -0.8358 -0.8451  0.3112
   14CHL1    C7  973   4.525   2.471   6.246  0.2650 -1.0746  1.7573
   14CHL1   H7A  974   4.622   2.507   6.207 -1.5110  1.2014 -0.9272
   14CHL1   H7B  975   4.516   2.366   6.209  4.1871 -0.7859 -0.5249
   14CHL1    C8  976   4.415   2.564   6.179  0.4662  0.1919 -0.2295
   14CHL1    H8  977   4.448   2.668   6.201  1.7374 -0.5614  1.7149
   14CHL1   C14  978   4.403   2.525   6.029  0.2061 -0.2569 -0.6395
   14CHL1   H14  979   4.379   2.417   6.014  3.2929 -0.8389 -2.3949
   14CHL1   C15  980   4.528   2.539   5.942 -0.2895  0.0369 -0.1725
   14CHL1  H15A  981   4.587   2.629   5.969  0.6762 -0.3502 -0.9111
   14CHL1  H15B  982   4.595   2.453   5.966 -1.5959 -0.3873  2.2824
   14CHL1   C16  983   4.478   2.545   5.798  0.0090  0.5359 -0.2443
   14CHL1  H16A  984   4.526   2.634   5.752  1.5136 -0.3355 -0.3840
   14CHL1  H16B  985   4.499   2.451   5.744  1.0342  0.6561 -0.0665
   14CHL1   C17  986   4.324   2.567   5.810 -0.2146  0.4378 -0.2422
   14CHL1   H17  987   4.264   2.475   5.791 -1.0364  0.9627 -0.2599
   14CHL1   C13  988   4.307   2.611   5.955  0.6402  0.2697  0.1278
   14CHL1   C18  989   4.342   2.758   5.965  0.1665 -0.8660  0.3748
   14CHL1  H18A  990   4.259   2.826   5.933 -0.9803 -1.6158  1.6763
   14CHL1  H18B  991   4.378   2.795   6.063 -2.1711  3.7506 -0.1967
   14CHL1  H18C  992   4.426   2.787   5.898  0.6929 -3.2717 -0.0803
   14CHL1   C12  993   4.161   2.582   6.021  0.2762 -0.0281 -0.1997
   14CHL1  H12A  994   4.086   2.652   5.978 -0.2935  0.3965  1.4103
   14CHL1  H12B  995   4.130   2.478   5.997 -0.3524 -0.0224  0.5468
   14CHL1   C11  996   4.168   2.594   6.177 -0.1182 -0.1640  0.4048
   14CHL1  H11A  997   4.146   2.698   6.210  0.4399  0.0932 -0.0253
   14CHL1  H11B  998   4.080   2.542   6.219 -0.2853 -0.3858 -0.2168
   14CHL1    C9  999   4.288   2.531   6.259  0.2952  0.5326  0.3651
   14CHL1    H9 1000   4.270   2.421   6.261 -2.5505  0.9253  0.1892
   14CHL1   C10 1001   4.290   2.574   6.410 -0.3402 -0.1605  0.1807
   14CHL1   C19 1002   4.292   2.731   6.439 -0.3378 -0.0261 -0.2550
   14CHL1  H19A 1003   4.387   2.773   6.400  0.1522 -1.0420 -0.2048
   14CHL1  H19B 1004   4.202   2.783   6.399 -0.4382  0.8577  1.0592
   14CHL1  H19C 1005   4.288   2.753   6.547 -0.9419  0.0750 -0.2925
   14CHL1    C1 1006   4.174   2.511   6.489  0.2199  0.6231  1.0748
   14CHL1   H1A 1007   4.081   2.558   6.449  1.5252  0.6201 -2.2842
   14CHL1   H1B 1008   4.168   2.403   6.465  2.2300  0.7466 -0.1368
   14CHL1    C2 1009   4.183   2.527   6.641  0.1669 -0.1781  0.7632
   14CHL1   H2A 1010   4.101   2.475   6.693 -0.4850 -0.4757 -0.5231
   14CHL1   H2B 1011   4.168   2.633   6.671  2.5815  0.1644  0.9826
   14CHL1   C20 1012   4.260   2.655   5.693  0.6758  0.1972  0.7291
   14CHL1   H20 1013   4.307   2.755   5.683 -0.3588  0.4857 -1.8784
   14CHL1   C21 1014   4.112   2.682   5.727  0.6136 -0.0629 -0.1399
   14CHL1  H21A 1015   4.105   2.765   5.801  1.3813  0.3033 -0.4724
   14CHL1  H21B 1016   4.059   2.594   5.770  0.8104  0.3406  0.9612
   14CHL1  H21C 1017   4.054   2.703   5.635 -0.3764  0.7434  0.6376
   14CHL1   C22 1018   4.295   2.574   5.566 -0.0656  0.4399  0.2832
   14CHL1  H22A 1019   4.402   2.589   5.539  0.2130 -0.2069  1.0022
   14CHL1  H22B 1020   4.268   2.466   5.562  0.2587  0.3113 -4.3812
   14CHL1   C23 1021   4.228   2.627   5.433 -0.1310  0.2392 -0.0378
   14CHL1  H23A 1022   4.118   2.626   5.452 -0.2753  1.8236 -0.6493
   14CHL1  H23B 1023   4.257   2.731   5.410  1.5785 -0.6366 -2.1497
   14CHL1   C24 1024   4.261   2.532   5.316 -0.0983 -0.4575  0.7824
   14CHL1  H24A 1025   4.372   2.530   5.311  0.1707  2.8553  2.3218
   14CHL1  H24B 1026   4.238   2.428   5.347  1.2764 -1.2722 -0.8071
   14CHL1   C25 1027   4.195   2.565   5.178  0.0461  0.3888  0.2494
   14CHL1   H25 1028   4.238   2.661   5.144  2.6720 -0.9559 -0.5100
   14CHL1   C26 1029   4.246   2.475   5.066  0.1406 -0.6501  0.4687
   14CHL1  H26A 1030   4.176   2.481   4.980  0.8339 -3.6848 -0.4277
   14CHL1  H26B 1031   4.351   2.494   5.036  0.5664 -2.2199  0.8561
   14CHL1  H26C 1032   4.243   2.372   5.107  0.5993 -0.1667  1.7816
   14CHL1   C27 1033   4.048   2.557   5.194 -0.3747  0.0882  0.2591
   14CHL1  H27A 1034   4.016   2.452   5.210  1.4072 -0.8162 -1.5178
   14CHL1  H27B 1035   4.003   2.611   5.279 -0.1199  1.7843 -0.6394
   14CHL1  H27C 1036   3.997   2.605   5.107  1.0046  1.6747  0.2765
   15CHL1    C3 1037   6.839   5.696   6.608  0.0237  0.1259  0.6412
   15CHL1    H3 1038   6.760   5.758   6.561 -0.7064 -1.2056  0.0470
   15CHL1    O3 1039   6.823   5.698   6.749 -0.5299  0.2101  0.1200
   15CHL1   H3' 1040   6.898   5.649   6.782  1.0329  3.6856  2.3645
   15CHL1    C4 1041   6.827   5.551   6.568 -0.2343  0.0615 -0.1308
   15CHL1   H4A 1042   6.894   5.486   6.629 -1.6429 -0.7326  0.6203
   15CHL1   H4B 1043   6.726   5.516   6.599  0.4026 -0.9553  0.9087
   15CHL1    C5 1044   6.850   5.554   6.418 -0.6457  0.3544  0.3868
   15CHL1    C6 1045   6.751   5.511   6.336 -0.1104  0.3696 -0.1636
   15CHL1    H6 1046   6.662   5.469   6.385  0.0940  3.2950  3.1295
   15CHL1    C7 1047   6.759   5.492   6.186  0.5406 -0.0823 -0.0140
   15CHL1   H7A 1048   6.729   5.386   6.173 -0.1423  0.0480  0.4481
   15CHL1   H7B 1049   6.679   5.547   6.131 -0.1546 -1.3601 -0.3363
   15CHL1    C8 1050   6.896   5.530   6.125 -0.1997  0.0897  1.0287
   15CHL1    H8 1051   6.947   5.432   6.136 -0.2290 -0.5139 -2.7718
   15CHL1   C14 1052   6.881   5.585   5.979 -0.2052 -0.1349  0.1384
   15CHL1   H14 1053   6.833   5.686   5.979 -1.9509 -0.8915 -2.2002
   15CHL1   C15 1054   6.795   5.510   5.879  0.5474  0.3093  0.4516
   15CHL1  H15A 1055   6.821   5.403   5.893  0.5050  0.4499  1.7690
   15CHL1  H15B 1056   6.686   5.530   5.883  0.8478  1.9857  1.2292
   15CHL1   C16 1057   6.855   5.557   5.746  0.0475  0.4593 -0.7704
   15CHL1  H16A 1058   6.893   5.470   5.688  3.9881  2.0117 -0.8202
   15CHL1  H16B 1059   6.786   5.610   5.677  1.8880  2.3080 -1.2892
   15CHL1   C17 1060   6.964   5.662   5.780  0.5450 -0.1660 -0.4141
   15CHL1   H17 1061   6.915   5.760   5.797  1.3579 -0.0011  1.1626
   15CHL1   C13 1062   7.017   5.610   5.917 -1.0322 -0.8371 -0.3772
   15CHL1   C18 1063   7.091   5.471   5.890 -0.2413  0.1424 -0.2662
   15CHL1  H18A 1064   7.019   5.394   5.853  0.9208 -0.8606 -0.4916
   15CHL1  H18B 1065   7.187   5.479   5.834 -0.5455  0.9482 -0.6962
   15CHL1  H18C 1066   7.124   5.434   5.989  1.1979 -1.6565 -1.3506
   15CHL1   C12 1067   7.099   5.706   5.999  0.0197 -0.1016  0.0667
   15CHL1  H12A 1068   7.203   5.703   5.960 -0.1714  0.1776 -0.4587
   15CHL1  H12B 1069   7.061   5.810   6.007 -1.3335 -0.6933  2.0802
   15CHL1   C11 1070   7.117   5.668   6.150 -0.5517 -0.0471 -0.3706
   15CHL1  H11A 1071   7.186   5.581   6.156 -1.0076 -0.3500  0.5915
   15CHL1  H11B 1072   7.158   5.750   6.213  1.7014 -1.6643  0.3940
   15CHL1    C9 1073   6.981   5.630   6.209  0.5068  0.3058  0.3846
   15CHL1    H9 1074   6.924   5.724   6.192  0.7683  0.1398 -1.6751
   15CHL1   C10 1075   6.980   5.611   6.359 -0.9452 -0.9903 -0.0229
   15CHL1   C19 1076   7.082   5.501   6.389  0.2478 -0.1913  0.0713
   15CHL1  H19A 1077   7.065   5.414   6.323 -1.1122 -0.7338  1.0703
   15CHL1  H19B 1078   7.182   5.543   6.367  0.2428  0.8408  1.7541
   15CHL1  H19C 1079   7.079   5.471   6.496  0.5811  1.7688  0.6669
   15CHL1    C1 1080   7.023   5.743   6.433 -0.0278  0.1299  0.3848
   15CHL1   H1A 1081   7.132   5.752   6.415 -0.4312  0.6835 -2.1898
   15CHL1   H1B 1082   6.969   5.828   6.386 -0.3359 -0.9193 -1.2434
   15CHL1    C2 1083   6.983   5.744   6.577 -0.0222 -0.1301 -0.2146
   15CHL1   H2A 1084   6.998   5.851   6.605  2.7092 -0.6856  0.7383
   15CHL1   H2B 1085   7.056   5.681   6.632 -0.3238 -1.4194 -1.2360
   15CHL1   C20 1086   7.067   5.674   5.666 -0.0516  0.5211 -0.0251
   15CHL1   H20 1087   7.141   5.590   5.668 -0.4494  0.1780  0.4000
   15CHL1   C21 1088   7.152   5.800   5.698  0.5664 -0.3763 -0.3401
   15CHL1  H21A 1089   7.193   5.846   5.606 -1.1473 -0.6107 -1.2666
   15CHL1  H21B 1090   7.235   5.763   5.762  0.9683  1.1858  0.0719
   15CHL1  H21C 1091   7.081   5.872   5.744  1.3284 -0.2078  0.5878
   15CHL1   C22 1092   7.011   5.682   5.524  0.0656 -0.3536 -0.9152
   15CHL1  H22A 1093   7.093   5.693   5.450  0.2877  0.0015 -0.6222
   15CHL1  H22B 1094   6.966   5.584   5.500 -1.3161  0.0035  0.0745
   15CHL1   C23 1095   6.911   5.799   5.500 -0.1260  0.0262  0.1511
   15CHL1  H23A 1096   6.826   5.786   5.571  1.3336 -1.9788  1.6663
   15CHL1  H23B 1097   6.957   5.895   5.533  0.0922  0.4545 -1.3468
   15CHL1   C24 1098   6.851   5.793   5.365 -0.2208 -0.1717 -0.1413
   15CHL1  H24A 1099   6.924   5.753   5.291  1.3576 -1.2219  1.8684
   15CHL1  H24B 1100   6.771   5.717   5.359  0.6719 -1.0794 -1.0906
   15CHL1   C25 1101   6.793   5.924   5.321 -0.0795 -0.5968  0.4527
   15CHL1   H25 1102   6.740   5.983   5.399 -2.8632  1.4722 -2.6867
   15CHL1   C26 1103   6.901   6.019   5.278  0.8065 -0.0033 -0.2441
   15CHL1  H26A 1104   6.848   6.111   5.247 -2.5331 -0.1727  4.1440
   15CHL1  H26B 1105   6.970   6.050   5.359  1.0766  4.2608 -1.8689
   15CHL1  H26C 1106   6.967   5.991   5.193  1.9785 -0.2058  0.7034
   15CHL1   C27 1107   6.694   5.893   5.209 -0.0992 -0.2588  0.1631
   15CHL1  H27A 1108   6.740   5.833   5.128  0.6279  0.6887 -0.1495
   15CHL1  H27B 1109   6.607   5.833   5.244 -1.4567  0.9926 -0.9312
   15CHL1  H27C 1110   6.652   5.986   5.166 -0.1049  1.0171  2.7523
   16CHL1    C3 1111   6.067   5.019   6.651  0.3305  0.1386  0.3847
   16CHL1    H3 1112   6.019   4.920   6.657 -0.1346  0.2744 -0.7953
   16CHL1    O3 1113   6.072   5.064   6.788  0.5892 -0.0470 -0.1069
   16CHL1   H3' 1114   6.104   5.155   6.787 -0.2153  0.2756 -2.6836
   16CHL1    C4 1115   6.206   5.018   6.589  0.2779  0.1706 -0.4991
   16CHL1   H4A 1116   6.251   5.120   6.585  1.2572 -0.0796  2.2422
   16CHL1   H4B 1117   6.267   4.955   6.657  0.7835  0.8937 -0.2688
   16CHL1    C5 1118   6.185   4.963   6.447 -0.2199  0.7416  0.4081
   16CHL1    C6 1119   6.246   4.851   6.413 -1.0775 -0.1304  0.2034
   16CHL1    H6 1120   6.324   4.811   6.479 -1.2252  2.0000  1.7904
   16CHL1    C7 1121   6.229   4.781   6.282 -0.4029  0.3959 -0.2829
   16CHL1   H7A 1122   6.329   4.756   6.241  0.8979  3.3322  0.8476
   16CHL1   H7B 1123   6.181   4.681   6.287 -0.5766  0.5110  0.6633
   16CHL1    C8 1124   6.163   4.875   6.174 -0.1557  0.3198 -0.1486
   16CHL1    H8 1125   6.241   4.950   6.147 -0.6321  0.9890  0.2902
   16CHL1   C14 1126   6.124   4.790   6.054 -0.1487  0.6925  0.1023
   16CHL1   H14 1127   6.043   4.720   6.083  1.6137 -0.3196  3.1194
   16CHL1   C15 1128   6.230   4.691   5.980  0.3918 -0.2422 -0.2987
   16CHL1  H15A 1129   6.325   4.750   5.978  0.6610 -0.5647  1.2519
   16CHL1  H15B 1130   6.243   4.590   6.024  0.8069  0.5705  1.5914
   16CHL1   C16 1131   6.168   4.671   5.843  0.3100 -0.1106  0.4424
   16CHL1  H16A 1132   6.238   4.708   5.765 -0.8267  1.3353  0.0794
   16CHL1  H16B 1133   6.156   4.562   5.824  0.3668  0.0337 -0.4387
   16CHL1   C17 1134   6.034   4.753   5.829  0.1070  0.0910  0.0064
   16CHL1   H17 1135   5.957   4.684   5.870  0.8534 -0.9584 -0.3284
   16CHL1   C13 1136   6.055   4.867   5.932 -0.5514 -0.2889  0.2795
   16CHL1   C18 1137   6.160   4.978   5.877  0.1119 -0.1849  0.7034
   16CHL1  H18A 1138   6.192   5.046   5.959 -2.7927 -0.3541  2.0774
   16CHL1  H18B 1139   6.252   4.932   5.834  0.6180  0.4680  1.0581
   16CHL1  H18C 1140   6.119   5.049   5.803 -0.6548  0.2483  1.5245
   16CHL1   C12 1141   5.932   4.934   5.988  0.0434  0.1364 -0.0198
   16CHL1  H12A 1142   5.894   5.003   5.909  0.1885 -0.0317 -0.2356
   16CHL1  H12B 1143   5.865   4.851   6.019  2.1889 -1.5196  0.4210
   16CHL1   C11 1144   5.959   5.019   6.115  0.7518  0.1961 -0.2158
   16CHL1  H11A 1145   6.011   5.112   6.084  0.2246  1.7309  3.0841
   16CHL1  H11B 1146   5.861   5.051   6.155  0.7264 -0.1497  0.0074
   16CHL1    C9 1147   6.043   4.947   6.235 -0.0597 -0.3712  0.4600
   16CHL1    H9 1148   5.983   4.861   6.272 -0.5964  0.2136  0.9394
   16CHL1   C10 1149   6.081   5.031   6.355 -0.2875  0.9443 -0.1939
   16CHL1   C19 1150   6.131   5.172   6.310 -0.4689  0.1709 -0.2304
   16CHL1  H19A 1151   6.065   5.225   6.238  0.2116  0.1669 -0.8708
   16CHL1  H19B 1152   6.147   5.245   6.392 -0.4055 -0.8010  0.6423
   16CHL1  H19C 1153   6.230   5.159   6.261 -0.3065  1.1250 -0.1809
   16CHL1    C1 1154   5.950   5.046   6.438  0.1051 -0.2057 -0.2937
   16CHL1   H1A 1155   5.870   5.101   6.385 -0.8181 -2.1511 -1.0258
   16CHL1   H1B 1156   5.912   4.943   6.459  1.0162 -0.0477  2.6427
   16CHL1    C2 1157   5.973   5.114   6.576 -0.0701  0.1695 -0.0933
   16CHL1   H2A 1158   5.877   5.120   6.631 -1.0960 -0.3663 -1.7549
   16CHL1   H2B 1159   6.008   5.220   6.570 -0.2572  0.3777  1.7882
   16CHL1   C20 1160   6.011   4.796   5.675 -0.2355 -0.2212 -0.3162
   16CHL1   H20 1161   6.094   4.867   5.652 -0.2065 -0.3861 -0.7293
   16CHL1   C21 1162   5.887   4.879   5.655  0.1551  0.6848  0.2383
   16CHL1  H21A 1163   5.896   4.984   5.690 -1.1739  1.2745 -1.0816
   16CHL1  H21B 1164   5.800   4.827   5.699  0.3884  0.0307 -0.0562
   16CHL1  H21C 1165   5.850   4.875   5.550 -1.1282 -1.7414  0.7156
   16CHL1   C22 1166   6.015   4.680   5.575  0.0973 -0.1553  0.4099
   16CHL1  H22A 1167   6.106   4.620   5.599  0.5007 -0.0524 -0.8239
   16CHL1  H22B 1168   5.926   4.615   5.589  0.8617 -1.2821  0.1412
   16CHL1   C23 1169   6.052   4.720   5.430  0.2398  0.0790  0.4645
   16CHL1  H23A 1170   5.964   4.774   5.389  0.6848 -1.5953 -3.0473
   16CHL1  H23B 1171   6.128   4.802   5.428 -0.5870  0.8382 -1.0966
   16CHL1   C24 1172   6.095   4.592   5.353 -0.0578 -0.1809  0.5266
   16CHL1  H24A 1173   6.201   4.567   5.374  0.5957  0.7669 -1.4229
   16CHL1  H24B 1174   6.039   4.509   5.402 -0.0819 -0.4300  0.0841
   16CHL1   C25 1175   6.062   4.594   5.206 -0.6464 -0.7489  0.4095
   16CHL1   H25 1176   5.961   4.637   5.191 -0.6911 -1.5646 -1.9883
   16CHL1   C26 1177   6.152   4.695   5.138 -0.1222 -0.4925  0.1385
   16CHL1  H26A 1178   6.151   4.794   5.188  3.2199  0.1795 -0.8544
   16CHL1  H26B 1179   6.257   4.661   5.127  0.8211  2.1886  0.1178
   16CHL1  H26C 1180   6.122   4.723   5.034  0.7911 -0.4271 -0.1143
   16CHL1   C27 1181   6.064   4.451   5.153  0.0947 -0.1783  0.6662
   16CHL1  H27A 1182   6.055   4.450   5.043  2.3729  1.7327  0.3710
   16CHL1  H27B 1183   6.158   4.397   5.176  0.4014 -0.7546 -1.7373
   16CHL1  H27C 1184   5.986   4.389   5.202  0.1452 -0.1080  0.8385
   17CHL1    C3 1185   0.607   0.651   6.497  0.7392 -0.7104 -0.7233
   17CHL1    H3 1186   0.678   0.570   6.471 -0.5065 -2.2695  0.5707
   17CHL1    O3 1187   0.583   0.632   6.640 -0.3808 -0.1294  0.7455
   17CHL1   H3' 1188   0.505   0.576   6.639 -0.4437 -0.0891  2.0446
   17CHL1    C4 1189   0.666   0.797   6.472  0.2437  0.7923  0.2420
   17CHL1   H4A 1190   0.609   0.878   6.520 -0.2748 -0.0241  1.0302
   17CHL1   H4B 1191   0.759   0.791   6.532  0.2670 -1.2160  0.0967
   17CHL1    C5 1192   0.677   0.828   6.323  0.6294  0.1604 -0.3809
   17CHL1    C6 1193   0.787   0.880   6.266  0.2873  0.2342 -0.5205
   17CHL1    H6 1194   0.874   0.890   6.333 -0.5201  0.1434  0.5655
   17CHL1    C7 1195   0.801   0.932   6.130  0.3269 -0.1657  0.0625
   17CHL1   H7A 1196   0.851   1.031   6.126 -3.3733  2.0059  1.6314
   17CHL1   H7B 1197   0.859   0.857   6.074  1.1019 -0.8746  1.7458
   17CHL1    C8 1198   0.661   0.950   6.055  0.1107  0.8147 -0.4878
   17CHL1    H8 1199   0.608   1.037   6.099 -0.8370 -1.1694  2.6802
   17CHL1   C14 1200   0.682   0.948   5.903 -1.3057 -0.2174 -0.8799
   17CHL1   H14 1201   0.730   0.851   5.876  1.6918  1.3297 -1.5650
   17CHL1   C15 1202   0.790   1.039   5.847  0.0899 -0.2264 -0.3838
   17CHL1  H15A 1203   0.789   1.131   5.909  0.4607 -0.5509  0.1146
   17CHL1  H15B 1204   0.896   1.010   5.860  0.6308  1.7712 -0.1545
   17CHL1   C16 1205   0.747   1.054   5.694  0.0962 -0.3551  0.0145
   17CHL1  H16A 1206   0.744   1.164   5.678  3.1780  0.2067  2.2109
   17CHL1  H16B 1207   0.827   1.019   5.625  2.3812  1.8047  1.3741
   17CHL1   C17 1208   0.611   0.983   5.674 -0.3298  0.1743  0.7139
   17CHL1   H17 1209   0.623   0.877   5.643  1.2144  0.4609  0.2400
   17CHL1   C13 1210   0.559   0.968   5.818  0.5443  0.1703 -0.4175
   17CHL1   C18 1211   0.483   1.102   5.853  0.5322  0.3048 -0.2238
   17CHL1  H18A 1212   0.543   1.188   5.816  1.9862 -0.8307 -0.5744
   17CHL1  H18B 1213   0.381   1.099   5.809 -0.6619  0.7872  2.3110
   17CHL1  H18C 1214   0.465   1.108   5.963  1.6697  2.6285 -0.0881
   17CHL1   C12 1215   0.462   0.850   5.847  0.1127 -0.2469 -0.1150
   17CHL1  H12A 1216   0.359   0.867   5.809 -0.4649  0.9591  1.8375
   17CHL1  H12B 1217   0.505   0.760   5.798  2.3603  1.1391 -0.8463
   17CHL1   C11 1218   0.437   0.837   5.997 -0.3139 -0.2693 -0.2474
   17CHL1  H11A 1219   0.371   0.924   6.019 -0.9161 -1.0232  1.0785
   17CHL1  H11B 1220   0.367   0.753   6.019 -1.2522  0.4202 -0.5429
   17CHL1    C9 1221   0.563   0.832   6.085 -0.5440 -0.2930  0.5498
   17CHL1    H9 1222   0.627   0.748   6.052 -1.3006 -0.5162 -0.4019
   17CHL1   C10 1223   0.541   0.810   6.246 -1.1269  0.0252 -0.1479
   17CHL1   C19 1224   0.451   0.920   6.303  0.0603 -0.5749 -0.2586
   17CHL1  H19A 1225   0.358   0.912   6.242  0.3524  0.3206 -0.8432
   17CHL1  H19B 1226   0.418   0.891   6.405  1.3863 -0.6772  0.1597
   17CHL1  H19C 1227   0.498   1.020   6.297  2.1215 -1.4867 -0.2670
   17CHL1    C1 1228   0.477   0.675   6.265 -0.2626 -0.5066  0.8495
   17CHL1   H1A 1229   0.371   0.667   6.231  0.4862 -2.6254 -1.2434
   17CHL1   H1B 1230   0.529   0.598   6.205  0.1029  0.2313  0.1998
   17CHL1    C2 1231   0.471   0.632   6.421 -0.6920 -0.7476  0.3152
   17CHL1   H2A 1232   0.443   0.524   6.423 -1.4564 -0.5534  1.8252
   17CHL1   H2B 1233   0.403   0.705   6.470  0.7746  2.5441 -2.1471
   17CHL1   C20 1234   0.522   1.045   5.566 -0.9115  0.1321  0.0843
   17CHL1   H20 1235   0.489   1.146   5.600  2.3231  0.7614  1.7355
   17CHL1   C21 1236   0.393   0.957   5.552  0.3360 -0.9917 -0.3602
   17CHL1  H21A 1237   0.430   0.855   5.527 -0.2770 -1.1138 -0.7759
   17CHL1  H21B 1238   0.323   0.986   5.470 -1.8867 -0.5209  1.6226
   17CHL1  H21C 1239   0.330   0.954   5.643  0.9978 -0.2830  0.1410
   17CHL1   C22 1240   0.600   1.061   5.432  0.4572  0.4295  0.2810
   17CHL1  H22A 1241   0.705   1.098   5.438  0.6005  0.6005 -2.0860
   17CHL1  H22B 1242   0.597   0.968   5.370 -1.8544 -0.0066  0.9532
   17CHL1   C23 1243   0.517   1.160   5.345  0.1228  0.1694 -0.2430
   17CHL1  H23A 1244   0.421   1.114   5.313 -0.9320  0.4042  2.3106
   17CHL1  H23B 1245   0.488   1.252   5.400 -0.4527  0.4941 -1.0643
   17CHL1   C24 1246   0.599   1.197   5.223 -0.1559  0.5780 -0.2349
   17CHL1  H24A 1247   0.680   1.268   5.248 -0.5753  0.7594  0.6440
   17CHL1  H24B 1248   0.641   1.101   5.185 -3.6490 -0.5808 -1.5770
   17CHL1   C25 1249   0.513   1.243   5.107 -0.2031  0.2261  0.9126
   17CHL1   H25 1250   0.438   1.162   5.099  1.2722 -1.1824  0.7631
   17CHL1   C26 1251   0.438   1.367   5.139 -0.1435 -0.1866 -0.7143
   17CHL1  H26A 1252   0.392   1.403   5.045 -1.2807 -2.3433 -1.0488
   17CHL1  H26B 1253   0.358   1.359   5.216  0.6585  1.3626  0.3350
   17CHL1  H26C 1254   0.507   1.440   5.186  0.6681 -3.0149  3.0404
   17CHL1   C27 1255   0.598   1.245   4.979  0.6171 -0.4681  0.1699
   17CHL1  H27A 1256   0.682   1.317   4.992 -0.7780  0.9293  2.0956
   17CHL1  H27B 1257   0.623   1.142   4.948  1.0186  0.0011 -1.1443
   17CHL1  H27C 1258   0.543   1.295   4.896 -0.2738 -1.1235  0.3607
   18CHL1    C3 1259   0.174   4.582   6.876 -0.4735 -0.1291  0.0618
   18CHL1    H3 1260   0.068   4.612   6.860 -0.1949  0.4942 -0.7073
   18CHL1    O3 1261   0.194   4.597   7.014  0.0870  0.0345 -0.1607
   18CHL1   H3' 1262   0.290   4.602   7.021  0.1789  0.6409 -1.5324
   18CHL1    C4 1263   0.186   4.430   6.827 -0.1542 -0.4576 -0.7926
   18CHL1   H4A 1264   0.290   4.399   6.854  0.0069  0.3874 -0.3772
   18CHL1   H4B 1265   0.112   4.379   6.892 -0.5470  1.3479  0.2744
   18CHL1    C5 1266   0.156   4.415   6.684 -0.0699  0.0813  0.6124
   18CHL1    C6 1267   0.065   4.328   6.642  0.3251  1.4528 -0.2180
   18CHL1    H6 1268   0.024   4.251   6.709  1.7169  0.5680 -0.3390
   18CHL1    C7 1269   0.028   4.312   6.495  0.4004 -0.0311  0.3749
   18CHL1   H7A 1270   0.030   4.204   6.468  1.1324 -0.4424  1.9509
   18CHL1   H7B 1271  -0.079   4.340   6.486  0.6537  0.2342 -3.2432
   18CHL1    C8 1272   0.117   4.387   6.393  0.5734  0.1806 -0.3047
   18CHL1    H8 1273   0.199   4.313   6.383 -0.9340 -1.7841  1.2157
   18CHL1   C14 1274   0.039   4.409   6.261  0.5998 -0.4796  0.4844
   18CHL1   H14 1275  -0.047   4.476   6.281 -0.3466 -1.6431  0.4164
   18CHL1   C15 1276  -0.019   4.290   6.188  0.0853  0.0562  0.0998
   18CHL1  H15A 1277   0.051   4.204   6.187  0.4138  0.1080  3.5715
   18CHL1  H15B 1278  -0.106   4.253   6.246  1.2677 -2.8021  0.1758
   18CHL1   C16 1279  -0.065   4.342   6.050 -1.4162 -0.3326 -0.0581
   18CHL1  H16A 1280  -0.015   4.276   5.976  1.1069 -0.6608  1.8452
   18CHL1  H16B 1281  -0.172   4.372   6.056 -1.2693  0.5354 -1.3125
   18CHL1   C17 1282   0.017   4.480   6.033  0.2430  0.0705  0.4444
   18CHL1   H17 1283  -0.059   4.560   6.048 -0.2771 -0.2003 -0.6534
   18CHL1   C13 1284   0.117   4.488   6.153 -1.3068 -0.1629 -0.6748
   18CHL1   C18 1285   0.238   4.397   6.106  0.6816 -0.8796  0.2126
   18CHL1  H18A 1286   0.302   4.450   6.033 -2.5074 -0.2037 -2.3189
   18CHL1  H18B 1287   0.307   4.371   6.189  0.1076  1.2655  1.4269
   18CHL1  H18C 1288   0.204   4.301   6.061 -0.9875 -1.2068  2.0448
   18CHL1   C12 1289   0.169   4.629   6.209 -0.1469 -0.0568 -0.6228
   18CHL1  H12A 1290   0.224   4.685   6.130  2.0564 -2.0019 -0.5554
   18CHL1  H12B 1291   0.079   4.692   6.227  0.4108  0.2612  1.2782
   18CHL1   C11 1292   0.240   4.614   6.347  0.2319 -0.1458  1.0408
   18CHL1  H11A 1293   0.345   4.585   6.324  0.5535  1.3538  0.5046
   18CHL1  H11B 1294   0.244   4.719   6.381  3.0683  0.2965 -0.3468
   18CHL1    C9 1295   0.162   4.525   6.449  0.9024  0.4140  0.2311
   18CHL1    H9 1296   0.064   4.572   6.472 -0.1484 -0.7544 -1.6265
   18CHL1   C10 1297   0.229   4.519   6.593 -0.0857  0.1062  1.1098
   18CHL1   C19 1298   0.379   4.476   6.577 -0.1839 -0.3089  0.4230
   18CHL1  H19A 1299   0.428   4.479   6.677 -0.5360  0.0854  0.5897
   18CHL1  H19B 1300   0.390   4.371   6.544 -0.3623 -0.4100  0.6838
   18CHL1  H19C 1301   0.440   4.542   6.511  1.8937 -2.3029  0.2316
   18CHL1    C1 1302   0.220   4.671   6.649 -0.3459  0.2613  0.4998
   18CHL1   H1A 1303   0.298   4.732   6.599  0.1637  0.2849  1.3146
   18CHL1   H1B 1304   0.120   4.715   6.632 -0.1773  0.3383 -0.3354
   18CHL1    C2 1305   0.260   4.678   6.798  0.1698 -0.2036  0.1519
   18CHL1   H2A 1306   0.256   4.783   6.836  0.3242  0.0166 -0.4321
   18CHL1   H2B 1307   0.366   4.646   6.809  0.2044 -0.4937 -0.9179
   18CHL1   C20 1308   0.064   4.510   5.884 -0.3885  0.0149 -0.6750
   18CHL1   H20 1309   0.136   4.427   5.867  1.6531  1.9224 -1.9593
   18CHL1   C21 1310   0.151   4.641   5.872 -0.0326 -0.5208 -0.2907
   18CHL1  H21A 1311   0.175   4.663   5.766  0.9483 -1.9528 -0.3884
   18CHL1  H21B 1312   0.245   4.624   5.930 -0.2219  0.9521  0.5019
   18CHL1  H21C 1313   0.095   4.720   5.927 -0.0677 -1.2917  0.8079
   18CHL1   C22 1314  -0.050   4.508   5.787  0.2136 -0.3093 -0.8463
   18CHL1  H22A 1315  -0.134   4.455   5.835  1.8486 -0.4196  2.1638
   18CHL1  H22B 1316  -0.067   4.616   5.767 -0.4885 -0.1565  0.4744
   18CHL1   C23 1317  -0.012   4.443   5.658  0.0989 -0.1705  0.4830
   18CHL1  H23A 1318   0.086   4.485   5.626  0.7285 -0.9471  1.3830
   18CHL1  H23B 1319  -0.001   4.336   5.683 -1.1218 -0.1537  1.1630
   18CHL1   C24 1320  -0.117   4.468   5.545 -0.5740  0.8269 -0.0756
   18CHL1  H24A 1321  -0.221   4.459   5.584 -0.9508 -0.6068 -1.2900
   18CHL1  H24B 1322  -0.098   4.573   5.516 -0.6335  1.0783  0.7930
   18CHL1   C25 1323  -0.103   4.367   5.428  0.0949 -0.1124  0.3812
   18CHL1   H25 1324   0.005   4.349   5.407  0.4015  1.4000  0.5869
   18CHL1   C26 1325  -0.175   4.239   5.467 -0.1024 -1.0803 -0.3864
   18CHL1  H26A 1326  -0.126   4.209   5.562 -0.2469  0.6465  0.2636
   18CHL1  H26B 1327  -0.283   4.260   5.480  0.2810  0.4985  0.4402
   18CHL1  H26C 1328  -0.167   4.163   5.386 -0.0944 -0.3021 -1.1358
   18CHL1   C27 1329  -0.166   4.416   5.287  0.8239 -0.4271  0.0340
   18CHL1  H27A 1330  -0.277   4.412   5.295  0.8378  1.2674  2.1330
   18CHL1  H27B 1331  -0.137   4.521   5.266  1.3602 -0.3867  0.9049
   18CHL1  H27C 1332  -0.121   4.348   5.212  4.2315  0.9143  0.6753
   19CHL1    C3 1333   5.182   5.129   6.819 -0.3418  0.2268  0.2299
   19CHL1    H3 1334   5.181   5.235   6.784 -1.0008 -0.2363 -1.2420
   19CHL1    O3 1335   5.153   5.125   6.957 -0.2745 -0.0381  0.6751
   19CHL1   H3' 1336   5.078   5.185   6.967 -1.1449 -1.0707  0.4505
   19CHL1    C4 1337   5.067   5.057   6.739 -0.0099 -0.1199 -0.1213
   19CHL1   H4A 1338   5.053   4.950   6.769  1.5113 -0.1820  0.4669
   19CHL1   H4B 1339   4.976   5.107   6.778  1.0820  0.4887  1.7971
   19CHL1    C5 1340   5.092   5.070   6.585 -0.3690 -0.3301 -0.3694
   19CHL1    C6 1341   5.005   5.127   6.496 -0.3318 -0.1458  0.3069
   19CHL1    H6 1342   4.907   5.159   6.536 -0.4125 -0.7410  0.6001
   19CHL1    C7 1343   5.037   5.119   6.348  0.3451  0.5316 -0.3342
   19CHL1   H7A 1344   4.947   5.083   6.293  0.1674 -2.3135  1.5987
   19CHL1   H7B 1345   5.065   5.218   6.306 -2.0616  2.0596  1.4104
   19CHL1    C8 1346   5.152   5.021   6.310 -0.6821 -0.3457  0.8251
   19CHL1    H8 1347   5.114   4.916   6.307  0.9262 -1.0199  2.5056
   19CHL1   C14 1348   5.196   5.051   6.162  0.0745 -0.0462 -0.2864
   19CHL1   H14 1349   5.233   5.156   6.154  0.5517 -0.2408 -0.7072
   19CHL1   C15 1350   5.084   5.049   6.052 -0.0475 -0.3424 -0.0633
   19CHL1  H15A 1351   5.029   4.956   6.078 -1.0035  0.5563  1.2447
   19CHL1  H15B 1352   5.012   5.133   6.041 -1.7107 -1.7717 -0.7242
   19CHL1   C16 1353   5.166   5.025   5.921  0.2041  0.0690 -0.2800
   19CHL1  H16A 1354   5.128   4.936   5.867  1.5394 -0.5024 -0.3049
   19CHL1  H16B 1355   5.150   5.112   5.853  0.4001 -0.9018 -1.5965
   19CHL1   C17 1356   5.314   5.012   5.958 -0.1423 -0.5431  0.1369
   19CHL1   H17 1357   5.340   5.120   5.954 -2.2062 -0.0278 -3.2860
   19CHL1   C13 1358   5.315   4.962   6.107 -0.4424 -0.5567  0.8753
   19CHL1   C18 1359   5.289   4.805   6.107  0.0518 -0.3427  0.5045
   19CHL1  H18A 1360   5.377   4.750   6.068 -0.4034 -1.8676  1.5497
   19CHL1  H18B 1361   5.278   4.758   6.207 -0.8843 -0.6954  0.2534
   19CHL1  H18C 1362   5.205   4.785   6.037  1.1709 -0.4123 -0.8639
   19CHL1   C12 1363   5.431   5.006   6.203 -0.6663  0.4386 -0.2120
   19CHL1  H12A 1364   5.526   4.958   6.172 -0.8345  0.3032 -0.5213
   19CHL1  H12B 1365   5.440   5.114   6.182 -0.1084  0.0035 -2.4014
   19CHL1   C11 1366   5.397   4.983   6.348  0.4902  0.0103  0.0804
   19CHL1  H11A 1367   5.386   4.873   6.362  2.0945 -0.1809 -0.0423
   19CHL1  H11B 1368   5.484   5.011   6.412  1.7908  0.1705 -1.6886
   19CHL1    C9 1369   5.268   5.053   6.406  0.4024  0.5045 -0.2398
   19CHL1    H9 1370   5.277   5.163   6.401  1.0810  0.4107 -1.7237
   19CHL1   C10 1371   5.229   5.010   6.546 -0.5454  0.0346  0.7146
   19CHL1   C19 1372   5.203   4.859   6.563 -0.5833  0.1389 -0.0414
   19CHL1  H19A 1373   5.192   4.829   6.669  0.1412  0.7306  0.2109
   19CHL1  H19B 1374   5.120   4.811   6.506  0.2961 -2.6340  0.8575
   19CHL1  H19C 1375   5.289   4.797   6.528 -0.7624 -3.3946  4.7167
   19CHL1    C1 1376   5.342   5.070   6.639  0.8217 -0.1637  0.5434
   19CHL1   H1A 1377   5.436   5.010   6.636  1.1032  0.2804  0.4588
   19CHL1   H1B 1378   5.364   5.176   6.616 -0.4398 -0.3491 -1.8826
   19CHL1    C2 1379   5.310   5.058   6.791  0.1944  0.0890  0.7580
   19CHL1   H2A 1380   5.393   5.099   6.852  0.0709 -0.3078  1.2059
   19CHL1   H2B 1381   5.307   4.950   6.819 -2.7080 -0.2909 -0.7141
   19CHL1   C20 1382   5.400   4.930   5.865 -0.3345  0.3797 -0.3702
   19CHL1   H20 1383   5.363   4.825   5.870  0.6831  0.0500  3.5160
   19CHL1   C21 1384   5.541   4.913   5.912 -0.0982  0.7463 -0.5862
   19CHL1  H21A 1385   5.600   4.869   5.829 -0.2885 -0.2713 -0.1866
   19CHL1  H21B 1386   5.544   4.846   6.000 -0.3652  3.0395  1.2546
   19CHL1  H21C 1387   5.591   5.006   5.949  0.4824  0.5054 -0.7421
   19CHL1   C22 1388   5.375   4.979   5.716  0.5339  0.3886  0.0449
   19CHL1  H22A 1389   5.268   4.951   5.701  0.1888 -0.1287  2.9615
   19CHL1  H22B 1390   5.379   5.090   5.705  1.7806  0.5059  1.4553
   19CHL1   C23 1391   5.469   4.910   5.616  1.1916 -0.4122  0.1345
   19CHL1  H23A 1392   5.575   4.945   5.625  0.7744  0.8854  0.2987
   19CHL1  H23B 1393   5.475   4.802   5.642  1.2873 -0.1832  1.1420
   19CHL1   C24 1394   5.423   4.927   5.468 -0.1116  0.1679 -0.9039
   19CHL1  H24A 1395   5.330   4.867   5.456  0.3288 -0.3331 -1.9617
   19CHL1  H24B 1396   5.399   5.033   5.443 -1.1113  0.0524 -0.4747
   19CHL1   C25 1397   5.516   4.857   5.364  0.3423  0.6962  0.0604
   19CHL1   H25 1398   5.622   4.877   5.390 -0.3715  2.0963  2.2498
   19CHL1   C26 1399   5.509   4.703   5.384 -0.2877 -0.1811  0.3454
   19CHL1  H26A 1400   5.557   4.650   5.299  0.0602 -0.6693  0.8436
   19CHL1  H26B 1401   5.546   4.672   5.484  1.5741 -2.9141 -1.0549
   19CHL1  H26C 1402   5.407   4.658   5.383 -0.3219 -0.0972 -0.1421
   19CHL1   C27 1403   5.477   4.902   5.219  0.7872  0.6185  0.2035
   19CHL1  H27A 1404   5.366   4.899   5.209  0.6173 -0.5028  1.9777
   19CHL1  H27B 1405   5.503   5.008   5.202  0.1654  0.6613 -0.5782
   19CHL1  H27C 1406   5.526   4.845   5.138 -0.1377  1.1753 -0.7734
   20CHL1    C3 1407   1.264   1.017   6.426 -0.6844  0.0050 -0.1876
   20CHL1    H3 1408   1.235   0.911   6.405 -3.1810  0.1665  1.8852
   20CHL1    O3 1409   1.227   1.050   6.563  0.0344  0.3746  0.6963
   20CHL1   H3' 1410   1.146   1.004   6.588  0.2493  0.9391  2.5795
   20CHL1    C4 1411   1.421   1.039   6.403  0.0713 -0.6807 -0.6932
   20CHL1   H4A 1412   1.446   1.138   6.445 -0.1715 -1.3563  1.1302
   20CHL1   H4B 1413   1.469   0.966   6.473  1.2592 -0.3181 -1.0989
   20CHL1    C5 1414   1.473   1.030   6.259  0.2040 -0.0891 -0.3044
   20CHL1    C6 1415   1.583   0.960   6.217  0.8055 -0.2142  0.0028
   20CHL1    H6 1416   1.648   0.914   6.294  0.8546 -0.9843 -0.4939
   20CHL1    C7 1417   1.641   0.958   6.078  0.4732  0.9200  0.0332
   20CHL1   H7A 1418   1.752   0.962   6.074  0.7089 -0.3016  2.8963
   20CHL1   H7B 1419   1.619   0.856   6.040  1.6870  1.2466 -1.6497
   20CHL1    C8 1420   1.566   1.057   5.991 -0.2626  0.6981  0.4024
   20CHL1    H8 1421   1.611   1.156   6.014  2.8648 -0.5310  0.1576
   20CHL1   C14 1422   1.591   1.017   5.840  0.2403 -1.0490  0.3910
   20CHL1   H14 1423   1.540   0.918   5.832 -2.3918  0.2052  0.7461
   20CHL1   C15 1424   1.737   1.004   5.799 -0.5554 -0.0715  0.2079
   20CHL1  H15A 1425   1.791   1.084   5.855 -1.0880  0.4312  0.0134
   20CHL1  H15B 1426   1.768   0.900   5.820 -1.1171 -0.2881 -0.0233
   20CHL1   C16 1427   1.740   1.020   5.644 -0.1507  0.8535 -0.1868
   20CHL1  H16A 1428   1.814   1.092   5.604  1.1654  0.0688  0.7790
   20CHL1  H16B 1429   1.763   0.922   5.596  0.2616  0.8908 -0.0636
   20CHL1   C17 1430   1.591   1.050   5.605  0.5475  0.0350  0.0151
   20CHL1   H17 1431   1.537   0.953   5.605 -0.7806  0.7030 -2.2255
   20CHL1   C13 1432   1.530   1.112   5.736 -0.0087 -0.7212 -0.2903
   20CHL1   C18 1433   1.580   1.260   5.748  0.8070 -0.0474 -0.5189
   20CHL1  H18A 1434   1.519   1.319   5.676  1.3613 -0.9065 -1.7403
   20CHL1  H18B 1435   1.571   1.293   5.853  0.8959  1.1532 -0.8756
   20CHL1  H18C 1436   1.685   1.268   5.712  1.2935 -3.1838 -0.0911
   20CHL1   C12 1437   1.377   1.094   5.760 -0.2194 -0.9717  0.3150
   20CHL1  H12A 1438   1.312   1.151   5.691 -0.8844 -1.1513  0.7823
   20CHL1  H12B 1439   1.356   0.986   5.746  1.4192 -0.9554 -3.4212
   20CHL1   C11 1440   1.336   1.135   5.909  0.5606  0.5274  1.1720
   20CHL1  H11A 1441   1.344   1.245   5.921 -0.2137  0.7048  0.2701
   20CHL1  H11B 1442   1.228   1.110   5.920  0.2987 -0.4969 -2.4409
   20CHL1    C9 1443   1.417   1.063   6.017 -0.2691  0.5599 -0.0599
   20CHL1    H9 1444   1.384   0.957   6.011  1.4159 -0.2154  2.6947
   20CHL1   C10 1445   1.383   1.108   6.164  0.0874 -0.1821  0.3656
   20CHL1   C19 1446   1.394   1.265   6.177 -0.0982 -0.1934  0.3489
   20CHL1  H19A 1447   1.378   1.289   6.285 -0.3136 -0.3819  0.3614
   20CHL1  H19B 1448   1.497   1.292   6.147 -0.9432  1.3941 -1.2942
   20CHL1  H19C 1449   1.318   1.313   6.112  2.3562 -0.8226 -3.2911
   20CHL1    C1 1450   1.234   1.071   6.190  0.0648  0.1075 -0.0606
   20CHL1   H1A 1451   1.166   1.131   6.127 -0.4792  1.9945  2.1644
   20CHL1   H1B 1452   1.226   0.966   6.156  2.1829  0.3683 -1.5707
   20CHL1    C2 1453   1.186   1.097   6.328  0.2011  0.0117 -0.0465
   20CHL1   H2A 1454   1.083   1.057   6.338  0.0893 -0.7184 -3.0557
   20CHL1   H2B 1455   1.196   1.204   6.356 -0.7250  0.1068 -0.0555
   20CHL1   C20 1456   1.578   1.112   5.464 -0.9675  0.8559  0.0123
   20CHL1   H20 1457   1.549   1.218   5.480  0.6899  1.2888  0.3411
   20CHL1   C21 1458   1.462   1.041   5.391  0.6435  0.8111  0.8111
   20CHL1  H21A 1459   1.512   0.959   5.336 -1.4731 -1.2920  1.8791
   20CHL1  H21B 1460   1.420   1.116   5.320  0.0316  0.3545  0.6795
   20CHL1  H21C 1461   1.387   1.000   5.461  1.6978  0.0976  1.5517
   20CHL1   C22 1462   1.700   1.113   5.377  0.6837  0.0184 -0.4718
   20CHL1  H22A 1463   1.790   1.170   5.412  1.0458  0.2444 -1.7236
   20CHL1  H22B 1464   1.723   1.005   5.363  0.4003 -0.2224  0.8159
   20CHL1   C23 1465   1.676   1.175   5.241 -0.4666  0.2149  0.5904
   20CHL1  H23A 1466   1.765   1.173   5.174  0.0245 -0.9956  1.2539
   20CHL1  H23B 1467   1.615   1.100   5.187  0.2996 -0.1050  0.1526
   20CHL1   C24 1468   1.626   1.321   5.240  1.0378 -0.0304  0.4501
   20CHL1  H24A 1469   1.518   1.308   5.265  1.0573 -1.1610  0.0248
   20CHL1  H24B 1470   1.680   1.391   5.307  0.8087  2.5660 -1.8929
   20CHL1   C25 1471   1.622   1.394   5.101  0.3547  0.2666 -0.7492
   20CHL1   H25 1472   1.725   1.391   5.058  0.5240 -1.7816 -0.2689
   20CHL1   C26 1473   1.528   1.319   5.003  0.0527 -0.5104  0.1297
   20CHL1  H26A 1474   1.551   1.367   4.906  1.6519 -0.7232  0.3805
   20CHL1  H26B 1475   1.554   1.213   4.980  0.4388 -0.4844  0.4385
   20CHL1  H26C 1476   1.420   1.322   5.028  0.5299 -1.2386  2.5537
   20CHL1   C27 1477   1.564   1.533   5.120 -0.5341 -0.5025 -0.2878
   20CHL1  H27A 1478   1.616   1.604   5.188 -0.8118 -1.1289  0.5915
   20CHL1  H27B 1479   1.556   1.578   5.018 -0.1363  0.0246 -0.0936
   20CHL1  H27C 1480   1.458   1.527   5.154 -1.1238  0.4398 -1.8066
   21CHL1    C3 1481   1.372   0.699   6.615 -0.2757 -0.1045  0.4500
   21CHL1    H3 1482   1.388   0.804   6.581  0.3484 -0.2463  0.2855
   21CHL1    O3 1483   1.340   0.699   6.758  0.0116  0.3620 -0.1477
   21CHL1   H3' 1484   1.359   0.609   6.787 -0.5711  0.2561 -0.0903
   21CHL1    C4 1485   1.254   0.632   6.523 -0.3612  0.2594 -0.1952
   21CHL1   H4A 1486   1.236   0.528   6.559  1.4377 -0.9966 -2.6291
   21CHL1   H4B 1487   1.158   0.681   6.550 -0.0166  0.5711  0.4777
   21CHL1    C5 1488   1.286   0.621   6.377  0.6257  0.1270  0.0978
   21CHL1    C6 1489   1.199   0.668   6.286 -0.2020 -0.0103 -0.1821
   21CHL1    H6 1490   1.105   0.705   6.329  0.1648 -1.8676  2.4447
   21CHL1    C7 1491   1.225   0.663   6.138 -1.1549 -0.1539  0.3191
   21CHL1   H7A 1492   1.137   0.629   6.080 -2.7899  1.1924  1.8981
   21CHL1   H7B 1493   1.246   0.765   6.099  1.9902 -1.3449 -1.4769
   21CHL1    C8 1494   1.348   0.573   6.101  0.1032 -0.5267 -0.3943
   21CHL1    H8 1495   1.317   0.467   6.084 -0.8845 -0.1554 -1.0444
   21CHL1   C14 1496   1.408   0.620   5.965 -0.0617 -0.6841  0.1482
   21CHL1   H14 1497   1.446   0.724   5.977  1.9630 -1.2288 -1.1411
   21CHL1   C15 1498   1.314   0.640   5.842 -0.8014  1.0512 -0.2955
   21CHL1  H15A 1499   1.249   0.550   5.851 -1.1752  1.2310 -1.1008
   21CHL1  H15B 1500   1.250   0.730   5.849 -2.0908  0.0840  1.2652
   21CHL1   C16 1501   1.409   0.635   5.720  0.4562 -0.0319 -0.4611
   21CHL1  H16A 1502   1.376   0.544   5.666 -2.9262 -0.6733  2.3783
   21CHL1  H16B 1503   1.403   0.733   5.667 -0.5226  0.8530  1.2097
   21CHL1   C17 1504   1.547   0.607   5.780  0.4327 -0.4458  0.3918
   21CHL1   H17 1505   1.578   0.708   5.814  1.0051  0.0398 -1.4573
   21CHL1   C13 1506   1.526   0.536   5.919  0.0713 -0.8036 -0.3920
   21CHL1   C18 1507   1.474   0.389   5.891 -0.3905 -0.6372 -1.0486
   21CHL1  H18A 1508   1.375   0.388   5.842 -0.0820  0.0795 -1.7038
   21CHL1  H18B 1509   1.543   0.330   5.827 -1.8964 -0.6943 -2.6858
   21CHL1  H18C 1510   1.456   0.342   5.990  2.6001  2.9412  1.4576
   21CHL1   C12 1511   1.641   0.541   6.021 -0.4603  0.2008 -0.3289
   21CHL1  H12A 1512   1.727   0.474   6.001  0.6134  0.3950  2.9690
   21CHL1  H12B 1513   1.684   0.643   6.032  1.2245 -0.6450  1.5595
   21CHL1   C11 1514   1.586   0.504   6.156 -0.2353 -0.4137 -0.0095
   21CHL1  H11A 1515   1.544   0.401   6.157 -0.9418 -0.1645 -1.5412
   21CHL1  H11B 1516   1.665   0.507   6.234  0.4829  1.3419 -0.7471
   21CHL1    C9 1517   1.459   0.583   6.201 -0.4736  0.0830 -0.3117
   21CHL1    H9 1518   1.488   0.689   6.183 -0.8279  0.0832 -0.9220
   21CHL1   C10 1519   1.423   0.560   6.341 -0.0600  0.8057  0.4618
   21CHL1   C19 1520   1.392   0.407   6.377 -0.1038  0.5846 -0.2611
   21CHL1  H19A 1521   1.347   0.356   6.289  2.4371 -0.2646 -1.1661
   21CHL1  H19B 1522   1.489   0.354   6.389 -0.4151  0.1250  0.2325
   21CHL1  H19C 1523   1.344   0.389   6.475 -2.0330 -0.0080 -1.2637
   21CHL1    C1 1524   1.533   0.607   6.441 -0.0378 -0.3582  0.5122
   21CHL1   H1A 1525   1.628   0.550   6.431  0.4512  0.1841  1.9056
   21CHL1   H1B 1526   1.560   0.710   6.409  1.1905 -0.5124  1.0189
   21CHL1    C2 1527   1.493   0.613   6.589  0.8230 -1.2066  0.0329
   21CHL1   H2A 1528   1.580   0.660   6.640  0.5370  0.1809 -0.6999
   21CHL1   H2B 1529   1.479   0.511   6.630 -0.1703 -0.3600  1.9233
   21CHL1   C20 1530   1.659   0.557   5.684 -0.2503 -0.3179 -0.0165
   21CHL1   H20 1531   1.636   0.449   5.672 -0.4689 -0.3248  0.4350
   21CHL1   C21 1532   1.797   0.563   5.756  0.0737 -0.3444 -0.0737
   21CHL1  H21A 1533   1.880   0.553   5.684  1.4366  0.0850  1.3839
   21CHL1  H21B 1534   1.809   0.472   5.818 -0.4450 -2.1865 -2.5328
   21CHL1  H21C 1535   1.811   0.651   5.823 -1.7855  0.0974 -0.2097
   21CHL1   C22 1536   1.661   0.619   5.542  0.0055  0.0939  0.2543
   21CHL1  H22A 1537   1.556   0.640   5.515  0.5581  1.9962 -0.5858
   21CHL1  H22B 1538   1.720   0.713   5.545  1.6310 -0.8754 -0.0629
   21CHL1   C23 1539   1.720   0.533   5.431  0.1950  0.1445  0.6921
   21CHL1  H23A 1540   1.822   0.494   5.454 -0.6382 -2.0194  0.9622
   21CHL1  H23B 1541   1.654   0.444   5.425 -0.8398  0.8798  0.9876
   21CHL1   C24 1542   1.714   0.610   5.293  0.1297 -0.5697  0.1561
   21CHL1  H24A 1543   1.619   0.668   5.288 -0.3420 -1.2449  0.9974
   21CHL1  H24B 1544   1.797   0.684   5.288  0.5386 -1.0870 -1.0351
   21CHL1   C25 1545   1.730   0.525   5.171  0.5000  1.1962  0.3157
   21CHL1   H25 1546   1.720   0.591   5.082 -0.6990 -0.0768 -0.5390
   21CHL1   C26 1547   1.870   0.459   5.162  0.2689 -0.1344 -0.3970
   21CHL1  H26A 1548   1.940   0.533   5.208  0.7943 -1.3406  0.7891
   21CHL1  H26B 1549   1.865   0.364   5.220  0.1767  0.5058  0.6837
   21CHL1  H26C 1550   1.902   0.426   5.061 -1.4916 -2.8366 -0.1665
   21CHL1   C27 1551   1.624   0.419   5.156 -0.1008  0.1537 -0.2283
   21CHL1  H27A 1552   1.635   0.353   5.068  0.4550  0.4087 -0.3505
   21CHL1  H27B 1553   1.627   0.355   5.246 -0.8645  0.3311 -0.0653
   21CHL1  H27C 1554   1.524   0.469   5.164 -1.0565 -1.5913 -0.7581
   22CHL1    C3 1555   4.623   2.093   6.459  0.3267  0.0236 -0.6829
   22CHL1    H3 1556   4.607   2.202   6.474  4.0231  0.6059  0.1031
   22CHL1    O3 1557   4.627   2.051   6.596 -0.3397 -0.1927  0.0347
   22CHL1   H3' 1558   4.640   1.956   6.593  1.0082  0.0054 -2.1392
   22CHL1    C4 1559   4.515   2.004   6.383  0.1140 -0.1147 -0.2071
   22CHL1   H4A 1560   4.549   1.898   6.384  1.7105  0.2364 -3.7982
   22CHL1   H4B 1561   4.414   2.019   6.427 -0.3678  1.6889 -1.8102
   22CHL1    C5 1562   4.503   2.032   6.236 -0.0034 -0.2482  0.8798
   22CHL1    C6 1563   4.386   2.068   6.176  0.0934  0.5523 -0.4576
   22CHL1    H6 1564   4.293   2.076   6.234 -0.1522  0.8369 -0.8898
   22CHL1    C7 1565   4.361   2.090   6.026  0.2261 -0.5941 -0.7751
   22CHL1   H7A 1566   4.279   2.021   5.999 -1.4963 -0.7226  3.9311
   22CHL1   H7B 1567   4.324   2.194   6.012  1.1446 -0.0402  0.7425
   22CHL1    C8 1568   4.493   2.057   5.951 -0.2034 -0.0308 -0.3222
   22CHL1    H8 1569   4.501   1.948   5.929 -1.1847 -0.6007  1.8913
   22CHL1   C14 1570   4.502   2.134   5.820  0.5428 -0.2347 -0.2984
   22CHL1   H14 1571   4.512   2.245   5.828  1.6601 -0.3996  0.8054
   22CHL1   C15 1572   4.380   2.109   5.726 -0.4061  0.3755  0.5389
   22CHL1  H15A 1573   4.360   2.000   5.738 -0.0977  0.2879  0.2879
   22CHL1  H15B 1574   4.288   2.166   5.751 -0.6785  0.5193 -0.7293
   22CHL1   C16 1575   4.423   2.168   5.594  0.2889 -0.3604 -0.1181
   22CHL1  H16A 1576   4.391   2.112   5.503  0.5348  0.1625 -0.5303
   22CHL1  H16B 1577   4.376   2.268   5.585  2.4379  0.7358  0.3060
   22CHL1   C17 1578   4.574   2.191   5.602  1.0172  0.3095  0.1199
   22CHL1   H17 1579   4.589   2.299   5.627  2.7503  0.3661 -0.9766
   22CHL1   C13 1580   4.620   2.107   5.723 -0.5361  0.4916 -0.2368
   22CHL1   C18 1581   4.637   1.958   5.700  0.7319  0.0796 -0.5111
   22CHL1  H18A 1582   4.665   1.901   5.791  1.5555 -0.3709 -1.0325
   22CHL1  H18B 1583   4.540   1.924   5.658 -0.1047  1.8696 -0.0904
   22CHL1  H18C 1584   4.721   1.943   5.629  0.6984  1.4425 -0.8580
   22CHL1   C12 1585   4.742   2.168   5.800 -0.3276  0.0474  0.2650
   22CHL1  H12A 1586   4.837   2.144   5.747 -0.3815  2.2147 -0.9175
   22CHL1  H12B 1587   4.733   2.278   5.806  1.8161  0.4376 -1.9237
   22CHL1   C11 1588   4.754   2.103   5.937 -0.6760  0.1333  0.2510
   22CHL1  H11A 1589   4.796   2.004   5.908 -0.4031  0.8243 -1.9085
   22CHL1  H11B 1590   4.835   2.150   5.997 -0.6101  1.0873 -0.5617
   22CHL1    C9 1591   4.622   2.102   6.023 -0.0318 -0.3078 -0.4463
   22CHL1    H9 1592   4.609   2.210   6.045 -1.9319 -0.8816  1.6860
   22CHL1   C10 1593   4.640   2.042   6.168 -0.1378  0.6593 -0.2982
   22CHL1   C19 1594   4.684   1.891   6.142 -0.7580  0.4141  0.3966
   22CHL1  H19A 1595   4.793   1.887   6.125 -0.6797  1.5842  0.4953
   22CHL1  H19B 1596   4.669   1.835   6.237 -0.9905  2.0063  1.3565
   22CHL1  H19C 1597   4.622   1.843   6.064 -1.6303  1.3237  0.4961
   22CHL1    C1 1598   4.750   2.117   6.247 -0.1116 -0.2201 -1.0936
   22CHL1   H1A 1599   4.851   2.103   6.203  0.0426  0.8622 -1.1018
   22CHL1   H1B 1600   4.739   2.227   6.243  2.1255  0.2345  1.7857
   22CHL1    C2 1601   4.764   2.077   6.394 -0.2888  0.2106  0.2531
   22CHL1   H2A 1602   4.837   2.143   6.445 -0.8926  2.6244 -1.7867
   22CHL1   H2B 1603   4.800   1.973   6.407  0.2865  0.6065  2.2814
   22CHL1   C20 1604   4.642   2.175   5.469  0.3387  0.4636  0.3436
   22CHL1   H20 1605   4.635   2.066   5.444 -0.1216 -0.2415  3.2461
   22CHL1   C21 1606   4.793   2.182   5.476 -0.0767  0.1680 -0.5556
   22CHL1  H21A 1607   4.828   2.114   5.557  2.2787  0.7593 -1.0128
   22CHL1  H21B 1608   4.844   2.279   5.495  1.8956 -0.5689 -1.7935
   22CHL1  H21C 1609   4.840   2.137   5.387  0.8446 -1.0229  0.5047
   22CHL1   C22 1610   4.588   2.258   5.348  0.7586 -0.1901 -0.6082
   22CHL1  H22A 1611   4.479   2.242   5.338  0.8258 -0.7851 -0.4170
   22CHL1  H22B 1612   4.598   2.367   5.370  1.8948 -0.3093 -0.4718
   22CHL1   C23 1613   4.640   2.224   5.214  0.2174 -0.1920  0.5159
   22CHL1  H23A 1614   4.746   2.191   5.201 -0.3432 -1.9515  0.1012
   22CHL1  H23B 1615   4.586   2.135   5.175 -0.8278  0.7504 -0.2461
   22CHL1   C24 1616   4.612   2.348   5.124 -0.6762 -0.2185  0.4101
   22CHL1  H24A 1617   4.591   2.301   5.026 -0.6493  1.8484 -0.6302
   22CHL1  H24B 1618   4.520   2.403   5.154 -0.1991  2.7705 -3.0135
   22CHL1   C25 1619   4.718   2.461   5.117 -0.2534 -0.2285  0.2187
   22CHL1   H25 1620   4.742   2.488   5.222 -0.5663 -0.6489  0.4050
   22CHL1   C26 1621   4.853   2.413   5.065 -0.5550  0.0295 -0.4884
   22CHL1  H26A 1622   4.892   2.338   5.137  0.9788  1.3845  0.1472
   22CHL1  H26B 1623   4.852   2.375   4.961 -3.7826 -0.2048 -0.4610
   22CHL1  H26C 1624   4.927   2.494   5.081 -0.0701 -0.5359  0.2077
   22CHL1   C27 1625   4.662   2.586   5.046 -0.0805  0.5366 -0.2217
   22CHL1  H27A 1626   4.648   2.562   4.939 -2.7285 -1.7982  0.5188
   22CHL1  H27B 1627   4.557   2.611   5.072 -1.0980 -0.7674 -2.7785
   22CHL1  H27C 1628   4.728   2.674   5.061 -0.8432  0.5803  4.5780
   23CHL1    C3 1629   5.160   5.628   6.723 -0.3627  0.8433  0.1362
   23CHL1    H3 1630   5.055   5.601   6.697 -1.3299  1.4961  2.9787
   23CHL1    O3 1631   5.168   5.610   6.864  0.7580  0.1276 -0.1622
   23CHL1   H3' 1632   5.096   5.554   6.893  1.8762  0.2551  3.3350
   23CHL1    C4 1633   5.271   5.547   6.660  0.2957  0.2015 -0.6794
   23CHL1   H4A 1634   5.368   5.579   6.703 -0.7997  1.2760  1.1244
   23CHL1   H4B 1635   5.248   5.445   6.697  0.8119  0.1519 -0.4916
   23CHL1    C5 1636   5.274   5.562   6.506 -0.0894  0.6205 -0.7036
   23CHL1    C6 1637   5.258   5.454   6.432  0.1455 -0.1629  0.3997
   23CHL1    H6 1638   5.239   5.364   6.492 -0.7396  0.3253  0.8705
   23CHL1    C7 1639   5.265   5.456   6.279  0.5234 -0.3527  0.5237
   23CHL1   H7A 1640   5.339   5.382   6.242 -0.5809 -1.1859 -0.0743
   23CHL1   H7B 1641   5.171   5.419   6.232  1.5540  0.1030 -2.0259
   23CHL1    C8 1642   5.301   5.596   6.222  0.5514  0.5539 -0.3725
   23CHL1    H8 1643   5.412   5.593   6.214  0.4784 -0.3775 -1.3411
   23CHL1   C14 1644   5.250   5.613   6.074 -0.0643  0.1295 -0.2294
   23CHL1   H14 1645   5.140   5.605   6.074 -0.3210  2.4349 -2.2448
   23CHL1   C15 1646   5.287   5.507   5.974 -0.0384 -0.1981 -0.2978
   23CHL1  H15A 1647   5.392   5.472   5.979 -0.6292 -2.2983 -1.6830
   23CHL1  H15B 1648   5.223   5.417   5.981  1.6078 -1.4004 -0.1726
   23CHL1   C16 1649   5.268   5.569   5.836  0.0375  0.1393  0.6655
   23CHL1  H16A 1650   5.367   5.570   5.785 -0.6717  2.3515 -0.8105
   23CHL1  H16B 1651   5.192   5.524   5.770 -0.2892  1.6212 -0.0086
   23CHL1   C17 1652   5.239   5.714   5.862  0.3170 -0.7967  0.0119
   23CHL1   H17 1653   5.130   5.735   5.872  0.3366 -0.0223 -1.2193
   23CHL1   C13 1654   5.297   5.742   6.003  0.2651  0.1503 -0.3756
   23CHL1   C18 1655   5.449   5.762   5.988 -0.5179  0.6817 -0.4289
   23CHL1  H18A 1656   5.488   5.688   5.915 -3.4254 -1.2292 -0.2131
   23CHL1  H18B 1657   5.467   5.867   5.957  0.5679  1.9849  3.8678
   23CHL1  H18C 1658   5.503   5.756   6.085  1.2348  0.8906 -1.3591
   23CHL1   C12 1659   5.235   5.853   6.088  0.3145  0.7362 -0.2324
   23CHL1  H12A 1660   5.266   5.947   6.037  2.4201 -1.1305 -2.6443
   23CHL1  H12B 1661   5.124   5.844   6.092  0.2016  1.8896 -0.5133
   23CHL1   C11 1662   5.279   5.851   6.236 -0.1080 -0.4547 -0.1715
   23CHL1  H11A 1663   5.386   5.879   6.238 -0.3822  0.5772  2.3334
   23CHL1  H11B 1664   5.224   5.930   6.291  0.1085 -1.0845  0.9814
   23CHL1    C9 1665   5.248   5.716   6.304  0.6702 -0.3403 -0.0477
   23CHL1    H9 1666   5.138   5.702   6.301  0.5954  0.2812 -2.9016
   23CHL1   C10 1667   5.280   5.714   6.460 -0.6098  0.3290 -0.4021
   23CHL1   C19 1668   5.419   5.769   6.488  0.7142  0.0883 -0.4772
   23CHL1  H19A 1669   5.492   5.709   6.429  0.8145 -0.0502 -0.2177
   23CHL1  H19B 1670   5.423   5.874   6.454  1.6552  0.1146 -0.3313
   23CHL1  H19C 1671   5.448   5.761   6.596  3.0509 -1.3556 -1.1217
   23CHL1    C1 1672   5.175   5.800   6.534 -0.3081 -0.3909  0.3768
   23CHL1   H1A 1673   5.193   5.907   6.509  2.4933 -0.8074  0.2504
   23CHL1   H1B 1674   5.078   5.765   6.492 -0.1481 -1.0197  0.5286
   23CHL1    C2 1675   5.189   5.779   6.692  0.9062  0.4189  0.3830
   23CHL1   H2A 1676   5.101   5.838   6.726 -0.1793 -0.3741 -0.9313
   23CHL1   H2B 1677   5.285   5.801   6.743  1.5692 -1.7204  0.1857
   23CHL1   C20 1678   5.275   5.810   5.741  0.8607 -0.3411 -0.6824
   23CHL1   H20 1679   5.382   5.798   5.715  0.6177  0.5724 -2.2586
   23CHL1   C21 1680   5.261   5.950   5.785 -0.3311 -0.1827  0.5095
   23CHL1  H21A 1681   5.152   5.970   5.793 -0.2425  0.7817 -0.4026
   23CHL1  H21B 1682   5.297   6.025   5.711 -1.0529  0.7469  1.0788
   23CHL1  H21C 1683   5.312   5.977   5.879 -1.3666 -0.3141  1.1266
   23CHL1   C22 1684   5.200   5.776   5.617  0.6916  0.4262 -0.7395
   23CHL1  H22A 1685   5.207   5.667   5.596 -1.1022 -0.5386  2.8126
   23CHL1  H22B 1686   5.091   5.782   5.638  0.9715  1.6305  0.5088
   23CHL1   C23 1687   5.235   5.843   5.494  0.2385  0.7525 -0.5656
   23CHL1  H23A 1688   5.211   5.951   5.506 -0.6384  0.3466  1.9536
   23CHL1  H23B 1689   5.342   5.842   5.464  0.4013  2.2149 -0.1017
   23CHL1   C24 1690   5.160   5.784   5.378  0.9299 -0.0577 -0.6380
   23CHL1  H24A 1691   5.200   5.684   5.352  0.6658 -0.9247  2.0215
   23CHL1  H24B 1692   5.052   5.771   5.402  0.6366  1.6074 -0.9357
   23CHL1   C25 1693   5.160   5.882   5.258 -0.3332  0.4695 -0.8954
   23CHL1   H25 1694   5.151   5.987   5.295  2.6808  0.8765 -0.9985
   23CHL1   C26 1695   5.294   5.886   5.179 -0.0716 -0.2081  0.3468
   23CHL1  H26A 1696   5.294   5.954   5.092 -2.3091 -1.7902 -0.9969
   23CHL1  H26B 1697   5.367   5.930   5.249 -1.5367  1.3168  0.9937
   23CHL1  H26C 1698   5.327   5.781   5.162 -0.6184  0.1140 -3.7191
   23CHL1   C27 1699   5.040   5.866   5.164 -0.5365  0.4777 -0.1102
   23CHL1  H27A 1700   4.949   5.849   5.225 -0.6276 -4.3641 -1.2214
   23CHL1  H27B 1701   5.028   5.960   5.105 -1.7644  0.1372 -0.4215
   23CHL1  H27C 1702   5.053   5.780   5.096  1.2601  2.2464 -2.1760
   24CHL1    C3 1703   6.902   6.921   6.215  0.2239  0.3920 -0.7039
   24CHL1    H3 1704   6.841   6.828   6.220  1.3883 -0.3178  1.2492
   24CHL1    O3 1705   6.895   6.975   6.344  0.0752 -0.0233 -0.2247
   24CHL1   H3' 1706   6.859   7.063   6.330  1.0205  0.1756 -1.6341
   24CHL1    C4 1707   7.048   6.880   6.187 -0.0253 -0.2286 -0.2232
   24CHL1   H4A 1708   7.121   6.961   6.208  1.5110 -1.4608 -0.6752
   24CHL1   H4B 1709   7.073   6.798   6.258 -0.3540 -2.1741 -2.2349
   24CHL1    C5 1710   7.077   6.832   6.050  0.1770 -0.1065 -0.4000
   24CHL1    C6 1711   7.137   6.714   6.018  0.7528  0.1189  0.5156
   24CHL1    H6 1712   7.155   6.636   6.094  1.3540 -0.2228  0.0308
   24CHL1    C7 1713   7.181   6.677   5.880  0.1833  0.3141 -0.5600
   24CHL1   H7A 1714   7.280   6.627   5.889  0.2083  0.2951 -0.9185
   24CHL1   H7B 1715   7.111   6.600   5.844  0.8610  0.2410 -1.7781
   24CHL1    C8 1716   7.175   6.793   5.784 -0.1045 -0.2260  0.3938
   24CHL1    H8 1717   7.263   6.855   5.813  1.4047 -2.7859  1.5496
   24CHL1   C14 1718   7.194   6.746   5.640 -0.0831  0.3179 -0.0501
   24CHL1   H14 1719   7.117   6.667   5.627  0.2520 -0.2781  1.4082
   24CHL1   C15 1720   7.325   6.677   5.619 -0.2529  0.4730 -0.3163
   24CHL1  H15A 1721   7.406   6.736   5.668 -0.1519  0.2203 -0.1727
   24CHL1  H15B 1722   7.315   6.577   5.668  1.9106  0.1400 -0.4464
   24CHL1   C16 1723   7.328   6.668   5.464 -0.7073  0.3616  0.2463
   24CHL1  H16A 1724   7.422   6.712   5.425 -0.1349  0.9553  2.1731
   24CHL1  H16B 1725   7.310   6.565   5.427  0.2433  0.7120 -1.2730
   24CHL1   C17 1726   7.220   6.763   5.411 -0.3459 -0.2165  0.2987
   24CHL1   H17 1727   7.129   6.710   5.373 -2.5270  3.6020 -0.3861
   24CHL1   C13 1728   7.185   6.843   5.531  0.6376 -0.1315 -0.1838
   24CHL1   C18 1729   7.287   6.957   5.542  0.0574 -0.7384 -0.6968
   24CHL1  H18A 1730   7.389   6.913   5.542  0.8267  0.8897  1.1286
   24CHL1  H18B 1731   7.275   7.032   5.460  1.2934  0.5780  0.2716
   24CHL1  H18C 1732   7.279   7.026   5.629  0.1254  0.1662 -1.3885
   24CHL1   C12 1733   7.044   6.900   5.538  0.1358 -0.2898 -0.3512
   24CHL1  H12A 1734   7.022   6.975   5.459  0.6090 -1.3928 -1.5677
   24CHL1  H12B 1735   6.974   6.813   5.533 -1.9703  1.2957  0.1392
   24CHL1   C11 1736   7.012   6.972   5.676  0.4901 -0.6851  0.4445
   24CHL1  H11A 1737   7.057   7.073   5.668 -2.9642  1.0375  0.9928
   24CHL1  H11B 1738   6.901   6.978   5.665  0.7771  1.7577 -2.1240
   24CHL1    C9 1739   7.037   6.874   5.797 -0.7097  0.5654 -0.0349
   24CHL1    H9 1740   6.963   6.791   5.784 -0.3307  0.3000 -0.5186
   24CHL1   C10 1741   7.025   6.929   5.939 -1.2743 -0.1130 -0.1770
   24CHL1   C19 1742   7.099   7.060   5.942 -0.1549 -0.2983 -0.5781
   24CHL1  H19A 1743   7.023   7.134   5.908 -0.7121  1.0590  3.0850
   24CHL1  H19B 1744   7.122   7.091   6.046  2.7823  0.5437 -1.3870
   24CHL1  H19C 1745   7.195   7.065   5.887 -0.1187  1.9182 -0.4185
   24CHL1    C1 1746   6.876   6.955   5.969  0.8272  0.1456  0.3259
   24CHL1   H1A 1747   6.812   7.018   5.905  1.2428  0.0895 -0.1559
   24CHL1   H1B 1748   6.826   6.856   5.955 -0.0494  0.9299 -3.2729
   24CHL1    C2 1749   6.847   7.017   6.109 -0.2502  0.5026 -0.1248
   24CHL1   H2A 1750   6.737   7.020   6.121 -0.1770 -0.1523  0.8362
   24CHL1   H2B 1751   6.887   7.119   6.127 -1.7739  0.8584  1.4021
   24CHL1   C20 1752   7.272   6.829   5.284 -0.2534 -0.5019 -0.0812
   24CHL1   H20 1753   7.364   6.886   5.310 -0.9194  0.8986 -0.7313
   24CHL1   C21 1754   7.172   6.928   5.223 -0.1001 -0.1071 -0.5473
   24CHL1  H21A 1755   7.070   6.884   5.210  0.2837 -1.0504 -0.4446
   24CHL1  H21B 1756   7.221   6.965   5.131 -0.4479  1.9942  0.0515
   24CHL1  H21C 1757   7.152   7.016   5.288 -0.7391 -0.0766 -0.7739
   24CHL1   C22 1758   7.328   6.725   5.171  0.5799  0.0860 -0.6236
   24CHL1  H22A 1759   7.412   6.774   5.118  1.4856 -0.1431  0.5732
   24CHL1  H22B 1760   7.375   6.638   5.222  0.2816 -0.1010 -0.6596
   24CHL1   C23 1761   7.224   6.676   5.066 -0.4613  0.3559 -0.0928
   24CHL1  H23A 1762   7.124   6.664   5.113  1.6351  0.1054  4.9629
   24CHL1  H23B 1763   7.225   6.753   4.986  1.6003  1.3016  0.7594
   24CHL1   C24 1764   7.256   6.545   4.994 -0.0988  0.3367 -0.5942
   24CHL1  H24A 1765   7.360   6.557   4.957  0.0419 -0.4920 -0.4922
   24CHL1  H24B 1766   7.257   6.458   5.064  1.4189  0.0885 -0.8854
   24CHL1   C25 1767   7.151   6.519   4.881 -0.3758  1.1492 -0.2867
   24CHL1   H25 1768   7.143   6.605   4.811 -1.3519  1.8678  0.6710
   24CHL1   C26 1769   7.200   6.398   4.791  0.0346  0.0796  0.2326
   24CHL1  H26A 1770   7.278   6.431   4.720  0.4896 -2.5812 -0.6326
   24CHL1  H26B 1771   7.239   6.309   4.846 -0.2670 -0.9305 -1.1618
   24CHL1  H26C 1772   7.108   6.365   4.739 -0.3741  0.3365  0.7834
   24CHL1   C27 1773   7.010   6.488   4.938  0.1031  0.1766  0.0007
   24CHL1  H27A 1774   6.966   6.589   4.954  1.3814  1.2811 -2.7235
   24CHL1  H27B 1775   6.938   6.438   4.871  0.1141  0.0325  0.0963
   24CHL1  H27C 1776   7.008   6.434   5.035  0.4771  1.8210  0.9757
   25CHL1    C3 1777   2.948   5.887   6.384  0.5646 -0.0437 -0.2790
   25CHL1    H3 1778   2.968   5.777   6.380  1.5064  0.1497 -1.1666
   25CHL1    O3 1779   2.954   5.930   6.522  0.0668  0.4495 -0.3490
   25CHL1   H3' 1780   2.975   6.023   6.509 -0.0379  0.3380 -1.4091
   25CHL1    C4 1781   3.064   5.945   6.302  0.6042 -0.0933  0.1232
   25CHL1   H4A 1782   3.067   6.055   6.318 -1.1956  0.1655 -1.0058
   25CHL1   H4B 1783   3.159   5.911   6.348  1.8995  1.5757 -1.1903
   25CHL1    C5 1784   3.058   5.903   6.156 -0.1420 -0.1181 -0.1996
   25CHL1    C6 1785   3.162   5.848   6.092  0.6284  0.3227 -0.3222
   25CHL1    H6 1786   3.257   5.820   6.142  0.0064  0.4345  0.9572
   25CHL1    C7 1787   3.168   5.817   5.948  0.6888 -0.6236 -0.0044
   25CHL1   H7A 1788   3.268   5.851   5.914  0.3601  0.1490 -0.2034
   25CHL1   H7B 1789   3.169   5.707   5.928  3.9394 -0.7394  0.1499
   25CHL1    C8 1790   3.060   5.896   5.868 -0.2770 -0.0894  0.3624
   25CHL1    H8 1791   3.098   6.000   5.863 -1.0352  0.1163 -2.0910
   25CHL1   C14 1792   3.035   5.840   5.726 -0.5569 -0.4569  0.1283
   25CHL1   H14 1793   2.991   5.739   5.740 -1.0555 -0.2709 -0.0651
   25CHL1   C15 1794   3.163   5.829   5.645  0.2333  0.5715  0.1978
   25CHL1  H15A 1795   3.231   5.917   5.639  0.4631  0.3263 -1.1177
   25CHL1  H15B 1796   3.221   5.741   5.681 -1.7899 -1.4944 -1.2619
   25CHL1   C16 1797   3.100   5.801   5.506  0.7422 -0.2514 -0.6206
   25CHL1  H16A 1798   3.147   5.861   5.425  1.4965  0.1859  0.1221
   25CHL1  H16B 1799   3.104   5.694   5.476  0.5443  0.4913 -3.6012
   25CHL1   C17 1800   2.952   5.838   5.510 -0.2105 -0.2668 -0.3758
   25CHL1   H17 1801   2.900   5.741   5.525  1.0022 -0.7351  1.0800
   25CHL1   C13 1802   2.934   5.920   5.645  0.4071  0.2869 -0.0938
   25CHL1   C18 1803   2.990   6.061   5.631  0.1201  0.4284 -0.0432
   25CHL1  H18A 1804   2.944   6.118   5.548  1.0906 -0.8608 -1.5349
   25CHL1  H18B 1805   2.971   6.131   5.715 -0.6901  0.0038  0.1372
   25CHL1  H18C 1806   3.099   6.055   5.613 -0.1036 -2.0594 -1.0169
   25CHL1   C12 1807   2.796   5.905   5.723  0.1512 -0.1245  0.1384
   25CHL1  H12A 1808   2.712   5.952   5.669 -1.0219 -2.2099  0.0402
   25CHL1  H12B 1809   2.779   5.795   5.732  0.2280 -0.3290 -1.7909
   25CHL1   C11 1810   2.807   5.965   5.864  0.2167  0.2109  0.0511
   25CHL1  H11A 1811   2.817   6.075   5.852 -0.2190  0.4391  1.5614
   25CHL1  H11B 1812   2.715   5.951   5.925 -0.7207 -2.3778 -1.8206
   25CHL1    C9 1813   2.926   5.905   5.944  0.6676  0.4296  0.4691
   25CHL1    H9 1814   2.903   5.797   5.959  4.4003 -0.4974  0.3761
   25CHL1   C10 1815   2.930   5.964   6.087 -0.3354  0.1092 -0.3530
   25CHL1   C19 1816   2.939   6.115   6.085  0.4192 -0.2583  0.2964
   25CHL1  H19A 1817   2.846   6.163   6.050 -1.1903 -2.3163  1.5273
   25CHL1  H19B 1818   2.945   6.146   6.192 -0.6861 -0.7880  0.5196
   25CHL1  H19C 1819   3.028   6.157   6.033  1.0600 -0.9879  0.7616
   25CHL1    C1 1820   2.808   5.913   6.175 -0.6623 -0.6830 -0.5507
   25CHL1   H1A 1821   2.718   5.970   6.144  0.0962  0.7208 -0.2527
   25CHL1   H1B 1822   2.800   5.804   6.157  1.0103 -0.5904 -2.2434
   25CHL1    C2 1823   2.816   5.938   6.329  0.1523 -0.4676 -0.2474
   25CHL1   H2A 1824   2.741   5.873   6.378  0.5350 -0.6075  0.1652
   25CHL1   H2B 1825   2.804   6.047   6.350  1.4539  0.0087 -1.8127
   25CHL1   C20 1826   2.901   5.905   5.386  1.3287 -0.5740 -0.1067
   25CHL1   H20 1827   2.959   5.999   5.377 -0.7287  1.1152  2.4999
   25CHL1   C21 1828   2.755   5.946   5.401 -0.0294  0.1970  0.6136
   25CHL1  H21A 1829   2.713   5.949   5.298 -0.0833  0.5645  0.6441
   25CHL1  H21B 1830   2.742   6.042   5.456 -0.1079 -0.4801  1.8138
   25CHL1  H21C 1831   2.710   5.868   5.466 -0.5222 -1.1842 -1.3040
   25CHL1   C22 1832   2.926   5.830   5.252 -0.1668 -0.2312  0.3134
   25CHL1  H22A 1833   2.894   5.894   5.167  1.2369  0.6795  0.4584
   25CHL1  H22B 1834   3.032   5.798   5.249 -0.6954 -2.0917  0.4146
   25CHL1   C23 1835   2.850   5.701   5.243 -0.3990 -0.1734  0.5810
   25CHL1  H23A 1836   2.874   5.643   5.335  0.8917 -0.1690  0.2678
   25CHL1  H23B 1837   2.741   5.723   5.238 -0.3312  0.1081  0.3393
   25CHL1   C24 1838   2.882   5.620   5.119  0.2265 -0.0942  0.1047
   25CHL1  H24A 1839   2.862   5.673   5.023 -1.9101 -1.8513 -0.5076
   25CHL1  H24B 1840   2.987   5.585   5.131  0.3750  0.0204 -0.7936
   25CHL1   C25 1841   2.781   5.495   5.113 -0.3770 -0.7015  0.2155
   25CHL1   H25 1842   2.681   5.543   5.113  0.6591  1.6500  0.4988
   25CHL1   C26 1843   2.789   5.430   4.970  0.0044 -0.4327 -0.1368
   25CHL1  H26A 1844   2.775   5.505   4.889  0.0326 -0.0818  0.1825
   25CHL1  H26B 1845   2.888   5.381   4.962  0.4421  0.4233 -0.0823
   25CHL1  H26C 1846   2.700   5.364   4.963 -0.3536  0.1078 -0.8704
   25CHL1   C27 1847   2.798   5.400   5.230 -0.1578  0.0684  0.1971
   25CHL1  H27A 1848   2.906   5.375   5.227 -0.0918  0.4150 -0.2126
   25CHL1  H27B 1849   2.767   5.440   5.329 -1.0163  0.7788 -0.3427
   25CHL1  H27C 1850   2.740   5.306   5.212 -1.2987  1.2410 -2.7425
   26CHL1    C3 1851   0.896   3.780   6.608 -0.5928  0.7201 -1.1926
   26CHL1    H3 1852   0.792   3.816   6.619 -1.2447 -1.5472  0.8159
   26CHL1    O3 1853   0.942   3.754   6.741  0.5202 -0.0664  0.0955
   26CHL1   H3' 1854   1.036   3.762   6.726  0.0873  2.9467 -1.9408
   26CHL1    C4 1855   0.894   3.647   6.524 -0.1100 -0.0440 -0.5750
   26CHL1   H4A 1856   0.997   3.606   6.526  1.0993  2.7183 -1.0682
   26CHL1   H4B 1857   0.821   3.578   6.571 -0.6289 -0.0206 -1.3261
   26CHL1    C5 1858   0.855   3.675   6.384  0.4567  0.1063 -0.8795
   26CHL1    C6 1859   0.745   3.616   6.329  0.4887  0.4897  0.1263
   26CHL1    H6 1860   0.687   3.540   6.383 -2.5815  0.2120 -3.2303
   26CHL1    C7 1861   0.693   3.648   6.190 -0.1836 -0.1127  0.9272
   26CHL1   H7A 1862   0.664   3.558   6.132 -2.3234  1.7213 -1.0997
   26CHL1   H7B 1863   0.606   3.717   6.194 -0.8976 -0.9417  0.2433
   26CHL1    C8 1864   0.804   3.708   6.097  0.1009 -0.0592 -0.2437
   26CHL1    H8 1865   0.880   3.630   6.078  0.7509  0.5887 -0.3248
   26CHL1   C14 1866   0.748   3.761   5.965  0.1065 -0.5308  0.0411
   26CHL1   H14 1867   0.677   3.841   5.992  0.0168 -0.7738  0.5361
   26CHL1   C15 1868   0.669   3.663   5.874 -0.8608  0.5702  0.1327
   26CHL1  H15A 1869   0.729   3.570   5.861  0.6184  1.2680  1.5483
   26CHL1  H15B 1870   0.575   3.635   5.925  0.5465 -1.1706  1.9630
   26CHL1   C16 1871   0.659   3.727   5.743 -0.0097 -0.3467  0.0121
   26CHL1  H16A 1872   0.702   3.661   5.665 -0.0087 -1.3612  0.8536
   26CHL1  H16B 1873   0.555   3.757   5.721  0.7194  1.5819 -1.0804
   26CHL1   C17 1874   0.758   3.849   5.747 -0.5949  0.1878 -0.1928
   26CHL1   H17 1875   0.692   3.933   5.781 -0.8578  0.1756 -0.6723
   26CHL1   C13 1876   0.851   3.831   5.873  0.2412  0.3201 -0.0778
   26CHL1   C18 1877   0.963   3.733   5.822 -0.5928  0.2054 -0.4779
   26CHL1  H18A 1878   1.035   3.791   5.760 -0.2574  0.4821  0.1573
   26CHL1  H18B 1879   1.029   3.705   5.907  1.1492  2.2443 -1.0661
   26CHL1  H18C 1880   0.925   3.646   5.765 -0.1172 -0.2245 -0.1450
   26CHL1   C12 1881   0.896   3.958   5.946  0.8297 -0.4446  0.3618
   26CHL1  H12A 1882   0.983   4.012   5.901 -0.0728  0.4683 -0.3534
   26CHL1  H12B 1883   0.813   4.029   5.967 -0.8378 -1.8468 -1.2009
   26CHL1   C11 1884   0.955   3.917   6.083 -1.0089  0.3409 -0.2795
   26CHL1  H11A 1885   1.058   3.882   6.061 -1.0379  1.4625 -2.4385
   26CHL1  H11B 1886   0.953   4.013   6.139  0.6192 -1.2833  2.7838
   26CHL1    C9 1887   0.871   3.822   6.174 -0.1350 -0.5512 -1.0066
   26CHL1    H9 1888   0.790   3.889   6.210  0.4421  0.4649 -1.5704
   26CHL1   C10 1889   0.938   3.784   6.311  0.0461  0.8299 -0.2448
   26CHL1   C19 1890   1.080   3.718   6.270  0.5233 -0.1726 -0.0401
   26CHL1  H19A 1891   1.148   3.795   6.228 -0.1454  0.0108 -0.8050
   26CHL1  H19B 1892   1.133   3.678   6.359  2.9918 -0.4538 -1.5403
   26CHL1  H19C 1893   1.066   3.638   6.194 -0.1619 -0.2180  0.1245
   26CHL1    C1 1894   0.957   3.909   6.399  0.5507  0.0787  0.1421
   26CHL1   H1A 1895   1.051   3.958   6.368  0.1369 -0.2214 -1.7359
   26CHL1   H1B 1896   0.865   3.971   6.392 -0.1639 -0.9849 -0.3275
   26CHL1    C2 1897   0.983   3.881   6.548 -0.2941 -0.0409  0.3830
   26CHL1   H2A 1898   0.975   3.977   6.604  2.0772  0.1471  0.5160
   26CHL1   H2B 1899   1.090   3.852   6.545 -0.0058  0.9152  0.9016
   26CHL1   C20 1900   0.825   3.881   5.608 -0.9389 -0.0516 -0.2531
   26CHL1   H20 1901   0.887   3.799   5.566  0.6828 -0.0585  2.0069
   26CHL1   C21 1902   0.910   4.005   5.613 -0.5508 -0.2811  0.3247
   26CHL1  H21A 1903   0.995   3.997   5.684  3.2589  0.8104 -3.6690
   26CHL1  H21B 1904   0.860   4.102   5.637  0.9576  1.0683 -1.5747
   26CHL1  H21C 1905   0.960   4.019   5.515  2.3614 -1.6784  1.5279
   26CHL1   C22 1906   0.702   3.904   5.504  0.1770  0.6591 -0.2071
   26CHL1  H22A 1907   0.655   3.806   5.485 -1.8849  1.6600 -0.4718
   26CHL1  H22B 1908   0.639   3.987   5.543 -1.2662 -0.8306  0.7676
   26CHL1   C23 1909   0.750   3.947   5.364  0.0363  0.0594 -0.4639
   26CHL1  H23A 1910   0.741   4.058   5.365 -1.9684 -0.0579 -0.8405
   26CHL1  H23B 1911   0.847   3.903   5.335  0.1217 -0.9615  1.2555
   26CHL1   C24 1912   0.645   3.892   5.265  0.0957 -0.1335 -0.6988
   26CHL1  H24A 1913   0.649   3.781   5.259  0.7249 -0.1021 -0.9924
   26CHL1  H24B 1914   0.544   3.930   5.292  0.6591  0.2387  1.0252
   26CHL1   C25 1915   0.679   3.923   5.116  0.0397 -0.4553 -0.1913
   26CHL1   H25 1916   0.674   4.034   5.108  2.1526 -0.1827  1.3893
   26CHL1   C26 1917   0.814   3.870   5.083 -0.2754 -0.3656  0.8276
   26CHL1  H26A 1918   0.858   3.865   4.981  3.5096 -0.5619  2.3095
   26CHL1  H26B 1919   0.886   3.940   5.130 -0.0660 -0.1829  0.2520
   26CHL1  H26C 1920   0.830   3.772   5.134 -0.0739 -0.5961  0.3368
   26CHL1   C27 1921   0.563   3.859   5.032 -0.3008 -0.2583 -0.8724
   26CHL1  H27A 1922   0.578   3.894   4.928 -1.3743 -1.9529 -1.6362
   26CHL1  H27B 1923   0.587   3.751   5.035  1.7001  0.1520  1.8868
   26CHL1  H27C 1924   0.466   3.891   5.076  0.3578 -1.9798  2.1636
   27CHL1    C3 1925   5.108   4.593   6.873 -0.4491  0.0157  0.9678
   27CHL1    H3 1926   5.174   4.669   6.827 -0.0501 -0.6106  0.4904
   27CHL1    O3 1927   5.132   4.605   7.014 -0.1062 -0.1333  0.9526
   27CHL1   H3' 1928   5.097   4.693   7.032  1.2850  1.2739 -2.3523
   27CHL1    C4 1929   4.956   4.589   6.849 -0.1848  0.2582  0.2368
   27CHL1   H4A 1930   4.908   4.498   6.890  0.1043 -2.2978 -4.3613
   27CHL1   H4B 1931   4.913   4.680   6.895  0.1066  0.0620  0.9116
   27CHL1    C5 1932   4.936   4.586   6.699  0.1496 -0.4060 -0.5817
   27CHL1    C6 1933   4.880   4.691   6.641 -0.0331 -0.0867  0.6421
   27CHL1    H6 1934   4.858   4.782   6.699  0.0612 -0.0877  0.6812
   27CHL1    C7 1935   4.864   4.698   6.496 -0.1363  0.0542  0.4439
   27CHL1   H7A 1936   4.760   4.734   6.483 -0.7762 -1.4586  1.0740
   27CHL1   H7B 1937   4.933   4.773   6.452 -1.2072  1.0395  0.4049
   27CHL1    C8 1938   4.877   4.561   6.412 -0.0675 -0.4351  0.0982
   27CHL1    H8 1939   4.784   4.503   6.423 -0.7381  0.6385  0.2525
   27CHL1   C14 1940   4.912   4.595   6.269  0.1735 -0.1686 -0.8010
   27CHL1   H14 1941   5.013   4.642   6.270 -0.7290  1.8595 -1.0811
   27CHL1   C15 1942   4.825   4.705   6.202  1.0012 -1.3084 -0.4222
   27CHL1  H15A 1943   4.718   4.691   6.231  0.5188 -0.2788 -1.6042
   27CHL1  H15B 1944   4.852   4.810   6.228 -1.3700 -0.1556 -2.2025
   27CHL1   C16 1945   4.853   4.681   6.058  0.4336 -0.0352 -0.5543
   27CHL1  H16A 1946   4.759   4.653   6.007  0.7426  0.1736 -1.2453
   27CHL1  H16B 1947   4.892   4.771   6.007 -0.4688  1.0861  0.6677
   27CHL1   C17 1948   4.957   4.562   6.042 -0.3622  0.2602  0.4541
   27CHL1   H17 1949   5.055   4.613   6.057 -0.2232 -0.3866  1.9371
   27CHL1   C13 1950   4.931   4.482   6.171  0.2516  0.3906 -0.8741
   27CHL1   C18 1951   4.800   4.397   6.152 -0.2452  0.5602 -0.3901
   27CHL1  H18A 1952   4.706   4.450   6.123 -0.8928  1.2129  2.5891
   27CHL1  H18B 1953   4.804   4.313   6.079 -5.0139 -0.8698  0.5978
   27CHL1  H18C 1954   4.777   4.344   6.247  1.4045  0.0890 -0.2288
   27CHL1   C12 1955   5.043   4.394   6.220  0.1457  0.3574 -0.5525
   27CHL1  H12A 1956   5.045   4.303   6.157 -0.0018  0.1491 -0.2540
   27CHL1  H12B 1957   5.131   4.459   6.200  0.1279  0.8847  0.9314
   27CHL1   C11 1958   5.026   4.352   6.369 -0.6936  0.1032  0.4505
   27CHL1  H11A 1959   4.942   4.280   6.381 -1.5685  1.0611  0.1930
   27CHL1  H11B 1960   5.114   4.291   6.400 -0.2319 -1.2409 -2.9976
   27CHL1    C9 1961   4.989   4.475   6.462  0.1166  0.3869 -0.0589
   27CHL1    H9 1962   5.086   4.529   6.456  1.8156 -2.4394  0.2037
   27CHL1   C10 1963   4.996   4.464   6.623  0.4250  0.4851 -0.6278
   27CHL1   C19 1964   4.899   4.357   6.661  0.1116  0.0759 -1.0493
   27CHL1  H19A 1965   4.800   4.381   6.617  0.5645  0.6661 -1.7489
   27CHL1  H19B 1966   4.929   4.262   6.611  2.7989  0.6333 -0.6204
   27CHL1  H19C 1967   4.895   4.344   6.772  2.2434 -0.8872 -1.0430
   27CHL1    C1 1968   5.146   4.435   6.668  0.5128 -0.7618 -0.0122
   27CHL1   H1A 1969   5.178   4.336   6.630  1.1095 -0.6573  0.2093
   27CHL1   H1B 1970   5.218   4.506   6.622  0.8814  1.2701  3.3782
   27CHL1    C2 1971   5.165   4.456   6.818  0.0031  0.3943  0.7321
   27CHL1   H2A 1972   5.273   4.454   6.846 -0.1751  0.1211  1.4135
   27CHL1   H2B 1973   5.110   4.372   6.866 -2.0046  1.3325  0.1844
   27CHL1   C20 1974   4.952   4.502   5.903  0.1344  0.2077  0.4184
   27CHL1   H20 1975   4.848   4.480   5.868  0.0161 -2.3749  2.0848
   27CHL1   C21 1976   5.024   4.368   5.907  0.1031 -0.2826 -0.3724
   27CHL1  H21A 1977   5.044   4.327   5.806 -0.6621  0.5438 -0.8711
   27CHL1  H21B 1978   4.966   4.300   5.973  0.4512  1.0686  1.4254
   27CHL1  H21C 1979   5.127   4.381   5.948  0.0899  1.2317 -0.7686
   27CHL1   C22 1980   5.016   4.599   5.798  0.3247  0.2121  0.4052
   27CHL1  H22A 1981   4.948   4.688   5.793 -0.1517 -0.2112 -1.5043
   27CHL1  H22B 1982   5.115   4.633   5.834  0.1314 -0.1240  1.2965
   27CHL1   C23 1983   5.034   4.526   5.654  0.0480  0.5074 -0.2780
   27CHL1  H23A 1984   5.118   4.456   5.637 -0.0001  0.1629  0.8420
   27CHL1  H23B 1985   4.939   4.473   5.631  1.0001 -1.3161 -0.1983
   27CHL1   C24 1986   5.046   4.634   5.546  0.5117  0.0039 -0.3411
   27CHL1  H24A 1987   4.945   4.681   5.542 -1.6541 -4.0829  0.5190
   27CHL1  H24B 1988   5.125   4.706   5.579  0.6530 -1.3818  2.7208
   27CHL1   C25 1989   5.094   4.588   5.411 -0.3722  0.4357  0.2799
   27CHL1   H25 1990   5.195   4.550   5.439 -0.9817  0.4510  2.7300
   27CHL1   C26 1991   5.009   4.472   5.367  0.3340 -0.2652 -0.1049
   27CHL1  H26A 1992   5.035   4.471   5.259 -1.2127  0.2895 -0.5185
   27CHL1  H26B 1993   5.029   4.383   5.431 -0.7405 -0.1434  0.4266
   27CHL1  H26C 1994   4.901   4.500   5.373  0.1347 -0.7236 -1.2054
   27CHL1   C27 1995   5.097   4.702   5.312 -0.8117 -0.8019 -0.1200
   27CHL1  H27A 1996   4.995   4.731   5.280  0.5109  2.3105 -1.9944
   27CHL1  H27B 1997   5.146   4.787   5.364 -1.9565 -0.6726  0.7872
   27CHL1  H27C 1998   5.166   4.677   5.228  0.2230  3.6379 -0.8188
   28CHL1    C3 1999   5.576   4.753   6.786 -0.0339 -0.5714 -0.8131
   28CHL1    H3 2000   5.469   4.770   6.762 -0.2610  1.9559  1.5672
   28CHL1    O3 2001   5.606   4.789   6.922 -0.1744  0.1041  0.3231
   28CHL1   H3' 2002   5.561   4.725   6.977 -1.3598  0.5706 -0.0755
   28CHL1    C4 2003   5.619   4.607   6.764  0.1490 -0.1820 -0.3336
   28CHL1   H4A 2004   5.723   4.589   6.799  0.1509 -1.2432 -0.8557
   28CHL1   H4B 2005   5.562   4.549   6.839  0.5553 -0.1727 -0.0131
   28CHL1    C5 2006   5.597   4.558   6.622  1.0281  0.2415  0.8721
   28CHL1    C6 2007   5.515   4.452   6.590  0.6114 -0.1373  0.4760
   28CHL1    H6 2008   5.463   4.404   6.674 -1.4841  2.4709  0.8318
   28CHL1    C7 2009   5.482   4.403   6.452  0.3741  0.4611 -0.4019
   28CHL1   H7A 2010   5.474   4.292   6.454 -0.9618  0.5556  0.8309
   28CHL1   H7B 2011   5.380   4.437   6.426  0.0873  1.5580  1.9146
   28CHL1    C8 2012   5.589   4.457   6.350  0.4401 -0.1615  0.3817
   28CHL1    H8 2013   5.673   4.392   6.379  0.0001  0.0189  2.1749
   28CHL1   C14 2014   5.535   4.432   6.209 -0.0708 -0.2979  0.4644
   28CHL1   H14 2015   5.453   4.505   6.192  1.1825  1.0460 -0.0266
   28CHL1   C15 2016   5.488   4.296   6.170 -0.3781  0.4158  0.5068
   28CHL1  H15A 2017   5.567   4.221   6.193 -0.0779  0.5992  0.0910
   28CHL1  H15B 2018   5.398   4.271   6.230  0.1176 -0.2575  0.9778
   28CHL1   C16 2019   5.470   4.310   6.020  0.6624  0.1967 -0.0498
   28CHL1  H16A 2020   5.493   4.219   5.961 -0.4259 -2.9467  3.8603
   28CHL1  H16B 2021   5.366   4.333   5.990  0.1673 -1.5017  0.2574
   28CHL1   C17 2022   5.558   4.428   5.980 -0.1786 -0.1472 -0.6841
   28CHL1   H17 2023   5.487   4.512   5.967  0.5030  0.2671 -1.8847
   28CHL1   C13 2024   5.637   4.466   6.103 -0.1874  0.2277  0.6856
   28CHL1   C18 2025   5.757   4.376   6.111 -0.2054  0.3042  0.9636
   28CHL1  H18A 2026   5.829   4.401   6.030 -0.0488 -3.3746 -0.2239
   28CHL1  H18B 2027   5.803   4.375   6.212 -0.3898 -0.8746  1.0512
   28CHL1  H18C 2028   5.723   4.272   6.092 -0.8969  0.7931 -0.6923
   28CHL1   C12 2029   5.689   4.612   6.109  0.2127  0.1648  0.0018
   28CHL1  H12A 2030   5.770   4.642   6.038  0.6393 -0.1574  0.3431
   28CHL1  H12B 2031   5.599   4.677   6.098 -0.4980 -0.3564  2.2591
   28CHL1   C11 2032   5.733   4.650   6.256  1.0463  0.5210  0.0071
   28CHL1  H11A 2033   5.825   4.589   6.261 -0.0769 -1.3055 -0.6179
   28CHL1  H11B 2034   5.757   4.758   6.247  1.1143  0.3684 -2.0197
   28CHL1    C9 2035   5.631   4.606   6.372  0.1984  0.1779  0.0838
   28CHL1    H9 2036   5.544   4.671   6.352  1.8959  2.3633 -0.4761
   28CHL1   C10 2037   5.671   4.640   6.521  0.2797 -0.2463  0.4616
   28CHL1   C19 2038   5.820   4.611   6.545  0.0663 -0.2329  0.5972
   28CHL1  H19A 2039   5.877   4.693   6.497 -2.2464  0.6302 -0.8635
   28CHL1  H19B 2040   5.857   4.604   6.649  1.9693  0.8743  0.0357
   28CHL1  H19C 2041   5.851   4.515   6.499  1.8762 -0.0079  1.2557
   28CHL1    C1 2042   5.635   4.790   6.552  0.3053 -0.0380 -0.1403
   28CHL1   H1A 2043   5.680   4.859   6.477 -0.9731  0.4052 -0.5355
   28CHL1   H1B 2044   5.527   4.804   6.532  0.5809 -0.8873 -2.5737
   28CHL1    C2 2045   5.657   4.843   6.689  0.3968 -0.2613  0.3897
   28CHL1   H2A 2046   5.639   4.951   6.703  2.2965 -0.0221  1.3410
   28CHL1   H2B 2047   5.765   4.829   6.713  0.5288  1.0309  0.5823
   28CHL1   C20 2048   5.633   4.415   5.844  0.6532 -0.9583 -0.2871
   28CHL1   H20 2049   5.711   4.494   5.848 -0.8799  0.5855  0.5775
   28CHL1   C21 2050   5.537   4.476   5.739  0.0652  0.5850  0.6310
   28CHL1  H21A 2051   5.483   4.564   5.781  0.2188  0.6446  0.7063
   28CHL1  H21B 2052   5.459   4.411   5.694  0.4579  0.3495  0.2900
   28CHL1  H21C 2053   5.606   4.512   5.660  0.0950 -2.9093 -1.1209
   28CHL1   C22 2054   5.680   4.282   5.786  0.5175  0.0749 -0.1330
   28CHL1  H22A 2055   5.722   4.222   5.869  0.0940  1.0891  0.8373
   28CHL1  H22B 2056   5.593   4.222   5.751  0.4609 -0.1345  0.3597
   28CHL1   C23 2057   5.786   4.288   5.677  0.4642 -0.4128  0.9037
   28CHL1  H23A 2058   5.730   4.318   5.586  1.7622  1.4941  0.6927
   28CHL1  H23B 2059   5.863   4.366   5.693  1.3328 -0.9856 -0.3720
   28CHL1   C24 2060   5.848   4.154   5.646 -0.2369  0.7838  0.1143
   28CHL1  H24A 2061   5.922   4.122   5.722  1.2291  0.6811 -1.3271
   28CHL1  H24B 2062   5.771   4.073   5.653 -0.0959  0.7358  1.5360
   28CHL1   C25 2063   5.927   4.154   5.511  0.2174 -0.1333  0.4084
   28CHL1   H25 2064   6.002   4.236   5.521 -1.0854  1.0684  0.5351
   28CHL1   C26 2065   6.019   4.030   5.494  0.4239  0.1397 -0.0171
   28CHL1  H26A 2066   5.952   3.942   5.489  1.1013 -0.3302 -1.5501
   28CHL1  H26B 2067   6.070   4.041   5.396  0.1003 -0.7371 -0.2888
   28CHL1  H26C 2068   6.092   4.033   5.578  1.9781  0.9163 -1.3341
   28CHL1   C27 2069   5.838   4.161   5.387  0.1782 -0.4598 -0.0999
   28CHL1  H27A 2070   5.755   4.233   5.405 -0.0561 -0.0857 -2.3905
   28CHL1  H27B 2071   5.907   4.195   5.307  0.5977 -0.7214  0.1435
   28CHL1  H27C 2072   5.786   4.068   5.355 -1.0680 -0.1171  0.8602
   29CHL1    C3 2073   1.065   1.422   3.530  0.8659 -0.1335 -0.0893
   29CHL1    H3 2074   1.115   1.521   3.522 -0.9345  0.7478 -1.0426
   29CHL1    O3 2075   1.039   1.379   3.396  0.2848 -0.0642  0.0643
   29CHL1   H3' 2076   1.016   1.286   3.394  2.0580 -0.5412 -2.1068
   29CHL1    C4 2077   1.176   1.330   3.584  0.4277  0.1337 -0.3722
   29CHL1   H4A 2078   1.152   1.224   3.562  1.2100 -0.3961  1.1040
   29CHL1   H4B 2079   1.269   1.351   3.527  1.9929 -1.9319  1.2621
   29CHL1    C5 2080   1.193   1.350   3.738  0.2326 -0.4574  0.7265
   29CHL1    C6 2081   1.315   1.371   3.796 -0.1346  0.7933 -0.6213
   29CHL1    H6 2082   1.409   1.369   3.739  0.2234 -0.7930 -0.0457
   29CHL1    C7 2083   1.341   1.353   3.941 -0.6017 -0.0827 -0.2422
   29CHL1   H7A 2084   1.432   1.295   3.965  0.2617  1.3207 -0.0207
   29CHL1   H7B 2085   1.368   1.455   3.975  2.6364 -1.1774  0.7625
   29CHL1    C8 2086   1.218   1.291   4.019 -0.4732  0.2445 -0.2706
   29CHL1    H8 2087   1.214   1.182   3.998 -1.8076  0.3424 -0.6439
   29CHL1   C14 2088   1.249   1.304   4.170  0.0833 -0.3371 -0.0984
   29CHL1   H14 2089   1.250   1.413   4.187  0.5925 -0.1311 -1.3448
   29CHL1   C15 2090   1.370   1.248   4.228 -0.3388 -0.2618  0.5111
   29CHL1  H15A 2091   1.384   1.144   4.190 -2.3576 -0.4184  0.0731
   29CHL1  H15B 2092   1.469   1.293   4.209 -0.8215  1.4737  1.9147
   29CHL1   C16 2093   1.350   1.239   4.375  0.0135 -0.0228 -1.1693
   29CHL1  H16A 2094   1.364   1.132   4.402  0.4736  0.0423 -1.1443
   29CHL1  H16B 2095   1.427   1.291   4.436  0.8412 -1.3098 -1.0763
   29CHL1   C17 2096   1.200   1.278   4.399  0.3949 -0.4387 -0.0163
   29CHL1   H17 2097   1.201   1.389   4.409 -0.8554 -0.2790 -1.2946
   29CHL1   C13 2098   1.129   1.259   4.261 -0.4527 -0.6863 -0.4175
   29CHL1   C18 2099   1.095   1.110   4.244  0.4550 -0.0439  0.2714
   29CHL1  H18A 2100   1.093   1.085   4.136  0.4203  0.8980  0.0419
   29CHL1  H18B 2101   1.176   1.053   4.294  0.7267  2.9576  3.6946
   29CHL1  H18C 2102   0.996   1.088   4.290 -1.0711  3.3588 -1.0723
   29CHL1   C12 2103   1.009   1.343   4.220  0.5256  0.3277  0.4138
   29CHL1  H12A 2104   0.929   1.300   4.284  1.0413 -1.5219 -0.1216
   29CHL1  H12B 2105   1.014   1.451   4.245  0.4585  0.3705  0.2436
   29CHL1   C11 2106   0.968   1.310   4.073  0.5302  0.0612 -0.4286
   29CHL1  H11A 2107   0.952   1.201   4.055  0.6515  0.3416 -2.4883
   29CHL1  H11B 2108   0.872   1.359   4.047 -0.5256 -0.4576  2.1303
   29CHL1    C9 2109   1.087   1.358   3.979 -0.1648  0.0895 -0.1431
   29CHL1    H9 2110   1.102   1.466   3.999 -0.0763 -0.0907  0.8260
   29CHL1   C10 2111   1.062   1.338   3.824 -0.8093 -1.2583 -0.3036
   29CHL1   C19 2112   0.997   1.197   3.795 -0.1129  0.2872 -0.4849
   29CHL1  H19A 2113   0.888   1.209   3.814 -0.4590 -0.1743 -2.0158
   29CHL1  H19B 2114   1.001   1.164   3.689 -1.8507  0.6962 -0.6990
   29CHL1  H19C 2115   1.033   1.123   3.870 -1.6578 -0.6539 -0.6345
   29CHL1    C1 2116   0.968   1.443   3.766 -0.2213 -0.0509  0.0613
   29CHL1   H1A 2117   0.875   1.442   3.827  0.7330 -1.4770  1.5629
   29CHL1   H1B 2118   1.003   1.547   3.781 -0.2323 -0.2070  1.2837
   29CHL1    C2 2119   0.935   1.427   3.616 -0.1694  0.3125  0.2698
   29CHL1   H2A 2120   0.869   1.514   3.594 -0.8712  0.0552  1.3114
   29CHL1   H2B 2121   0.881   1.334   3.589  1.5892 -1.8682  3.5516
   29CHL1   C20 2122   1.132   1.212   4.525 -0.9161 -0.8260 -0.0309
   29CHL1   H20 2123   1.100   1.109   4.498 -0.1885 -1.2052  0.5369
   29CHL1   C21 2124   1.009   1.301   4.557 -0.8362  0.6881 -0.9104
   29CHL1  H21A 2125   1.048   1.404   4.552  3.3279 -0.6690 -0.4258
   29CHL1  H21B 2126   0.977   1.289   4.663 -0.3430  0.5941 -0.7681
   29CHL1  H21C 2127   0.920   1.280   4.494 -1.5359  1.3695 -0.1729
   29CHL1   C22 2128   1.235   1.196   4.645 -0.7090 -0.4856 -0.3650
   29CHL1  H22A 2129   1.304   1.109   4.633  1.5747  0.9551  1.3163
   29CHL1  H22B 2130   1.310   1.276   4.662 -2.0408  0.8145 -0.4880
   29CHL1   C23 2131   1.181   1.156   4.783  0.3760 -1.0009 -0.2387
   29CHL1  H23A 2132   1.271   1.161   4.847 -0.4593  0.4701  0.9152
   29CHL1  H23B 2133   1.126   1.241   4.830  3.2757  0.3744  0.9217
   29CHL1   C24 2134   1.099   1.025   4.792  0.3053  0.7592 -0.2962
   29CHL1  H24A 2135   1.009   1.010   4.728 -1.1366 -2.1284  2.2050
   29CHL1  H24B 2136   1.168   0.943   4.764 -0.1284 -0.4935  2.1212
   29CHL1   C25 2137   1.037   1.004   4.927 -0.2027 -0.0293 -0.1061
   29CHL1   H25 2138   1.117   0.996   5.004  1.6786  1.6142 -1.7684
   29CHL1   C26 2139   0.928   1.110   4.960  0.5024 -0.3099 -0.5808
   29CHL1  H26A 2140   0.855   1.074   5.036 -0.1405  1.8100 -0.1425
   29CHL1  H26B 2141   0.968   1.209   4.990 -1.4975  0.2393  0.4769
   29CHL1  H26C 2142   0.876   1.116   4.862 -2.1614 -1.9885  0.6251
   29CHL1   C27 2143   0.981   0.857   4.925 -0.7046  0.4089 -0.7021
   29CHL1  H27A 2144   0.891   0.857   4.859  0.3672 -2.8983 -2.4507
   29CHL1  H27B 2145   1.037   0.770   4.884 -3.7399 -0.6873 -2.9599
   29CHL1  H27C 2146   0.943   0.832   5.026  1.3756  1.2697  0.3403
   30CHL1    C3 2147   4.514   3.802   3.560 -0.3615  0.9250 -0.2284
   30CHL1    H3 2148   4.416   3.753   3.545  0.6108 -0.7473 -1.5031
   30CHL1    O3 2149   4.580   3.803   3.430 -0.1224  0.2502 -0.5886
   30CHL1   H3' 2150   4.621   3.717   3.432  4.0389  2.0261 -0.1054
   30CHL1    C4 2151   4.489   3.946   3.616  0.5097  0.7594  0.0342
   30CHL1   H4A 2152   4.588   3.996   3.615  1.8384 -1.6084  1.8446
   30CHL1   H4B 2153   4.437   4.009   3.542  1.7200  0.5325 -1.0463
   30CHL1    C5 2154   4.433   3.950   3.753 -0.3036 -0.3216 -0.2182
   30CHL1    C6 2155   4.321   4.017   3.773  0.1502 -0.2407 -0.1965
   30CHL1    H6 2156   4.270   4.064   3.689 -3.4324  1.1256  2.4776
   30CHL1    C7 2157   4.260   4.027   3.908  0.0642 -0.0351 -0.3496
   30CHL1   H7A 2158   4.218   4.126   3.936  0.9932 -0.3398  2.4175
   30CHL1   H7B 2159   4.177   3.954   3.910 -0.6516  0.7700  1.8705
   30CHL1    C8 2160   4.360   3.999   4.025  0.1315 -0.1993 -0.5233
   30CHL1    H8 2161   4.441   4.075   4.025  0.4629 -0.4608  2.0835
   30CHL1   C14 2162   4.290   3.983   4.166  0.0615 -0.3566  0.0214
   30CHL1   H14 2163   4.224   3.894   4.161 -1.0784  0.4829 -0.3020
   30CHL1   C15 2164   4.197   4.101   4.208 -0.7377  0.9605  0.0767
   30CHL1  H15A 2165   4.242   4.202   4.201 -0.9429  1.2722  2.5082
   30CHL1  H15B 2166   4.105   4.103   4.146 -1.4971 -0.0745  1.1154
   30CHL1   C16 2167   4.172   4.062   4.356 -0.1678  0.0739  0.2584
   30CHL1  H16A 2168   4.199   4.151   4.418  1.3783  0.5663 -1.0457
   30CHL1  H16B 2169   4.063   4.042   4.365 -1.1052  2.8177 -2.8718
   30CHL1   C17 2170   4.273   3.953   4.397 -0.1216  0.2776  0.3714
   30CHL1   H17 2171   4.223   3.855   4.381 -0.2503  0.3746  0.1643
   30CHL1   C13 2172   4.379   3.955   4.284 -0.2997 -0.1903  0.4408
   30CHL1   C18 2173   4.480   4.065   4.312 -0.3648  0.0326  0.6229
   30CHL1  H18A 2174   4.554   4.067   4.230 -0.5235 -0.4399  0.4629
   30CHL1  H18B 2175   4.421   4.156   4.338  0.7310  1.5170 -1.7746
   30CHL1  H18C 2176   4.539   4.040   4.402  1.3746 -0.1614 -0.5359
   30CHL1   C12 2177   4.457   3.820   4.246 -0.2560 -0.3514 -0.2215
   30CHL1  H12A 2178   4.536   3.804   4.322  1.0881 -3.3207 -2.0364
   30CHL1  H12B 2179   4.395   3.729   4.259  1.2347 -1.5932 -1.3285
   30CHL1   C11 2180   4.535   3.824   4.119  0.3455  0.3590 -0.3710
   30CHL1  H11A 2181   4.612   3.902   4.137 -2.2993  2.9748  0.4058
   30CHL1  H11B 2182   4.583   3.732   4.080 -1.2091 -0.7702  0.3133
   30CHL1    C9 2183   4.441   3.869   3.999 -0.3649  0.0247 -0.6258
   30CHL1    H9 2184   4.374   3.781   3.987 -1.1191  0.4989  0.0502
   30CHL1   C10 2185   4.512   3.873   3.859  0.0748 -0.3513 -1.0190
   30CHL1   C19 2186   4.663   3.918   3.877  0.0845  0.1074 -0.7348
   30CHL1  H19A 2187   4.676   4.016   3.928 -0.2993 -0.0114 -0.4037
   30CHL1  H19B 2188   4.720   3.835   3.926 -1.8243 -0.2810  0.9656
   30CHL1  H19C 2189   4.713   3.952   3.784  2.5658  0.0525  0.4690
   30CHL1    C1 2190   4.521   3.732   3.799 -0.2376  0.0244  0.1460
   30CHL1   H1A 2191   4.568   3.664   3.873  0.4600  1.7341  1.3339
   30CHL1   H1B 2192   4.417   3.695   3.787  0.2275 -1.2635 -0.0717
   30CHL1    C2 2193   4.587   3.719   3.667 -0.2054 -0.6838  0.1543
   30CHL1   H2A 2194   4.583   3.611   3.642 -2.0134 -0.5102 -0.4504
   30CHL1   H2B 2195   4.694   3.748   3.679 -0.6683  0.8694  0.6852
   30CHL1   C20 2196   4.307   3.944   4.545 -0.1587 -0.3095  0.1266
   30CHL1   H20 2197   4.356   4.038   4.578  1.1779 -0.5651 -1.0601
   30CHL1   C21 2198   4.391   3.823   4.573 -0.1427 -0.1600  0.0658
   30CHL1  H21A 2199   4.417   3.817   4.681  0.5370 -0.0305 -0.0907
   30CHL1  H21B 2200   4.487   3.833   4.518 -0.5069 -0.8762 -0.7298
   30CHL1  H21C 2201   4.341   3.731   4.534 -0.1084 -0.2850  0.3114
   30CHL1   C22 2202   4.181   3.931   4.630  0.4256 -0.2026 -0.4023
   30CHL1  H22A 2203   4.114   4.018   4.616  0.1084  0.2279  2.8783
   30CHL1  H22B 2204   4.124   3.841   4.598 -0.7155  1.6816 -4.1274
   30CHL1   C23 2205   4.200   3.938   4.787 -0.6789  0.4807 -0.3865
   30CHL1  H23A 2206   4.268   3.861   4.830 -1.3619  0.7098  1.1731
   30CHL1  H23B 2207   4.247   4.036   4.813  3.0487 -1.3016  0.3317
   30CHL1   C24 2208   4.065   3.933   4.864 -0.0096  0.4020 -0.2418
   30CHL1  H24A 2209   3.990   4.010   4.837 -0.6602 -0.6186 -1.4822
   30CHL1  H24B 2210   4.019   3.833   4.846 -0.6900  0.7519 -0.4813
   30CHL1   C25 2211   4.082   3.942   5.015 -0.1897  1.1726 -0.2072
   30CHL1   H25 2212   4.155   3.861   5.035  0.4428  1.5442 -0.9698
   30CHL1   C26 2213   4.153   4.079   5.050 -0.8489 -0.4850 -0.2602
   30CHL1  H26A 2214   4.180   4.075   5.158  0.0591 -1.9454 -0.5139
   30CHL1  H26B 2215   4.247   4.088   4.991 -0.0409  2.4069  1.3135
   30CHL1  H26C 2216   4.084   4.163   5.026 -0.0622 -0.1010 -1.2560
   30CHL1   C27 2217   3.955   3.923   5.093 -0.0860  0.1126  0.1194
   30CHL1  H27A 2218   3.897   3.841   5.047  0.2808  0.6445 -1.3627
   30CHL1  H27B 2219   3.987   3.889   5.193 -0.5900 -2.6543 -0.5764
   30CHL1  H27C 2220   3.882   4.007   5.095  0.2330  0.3826  1.5531
   31CHL1    C3 2221   5.624   5.064   3.467  0.1511 -0.3462 -0.2017
   31CHL1    H3 2222   5.589   4.964   3.499  0.2059 -0.1263  0.5664
   31CHL1    O3 2223   5.649   5.062   3.327  0.3808  0.5680  0.0740
   31CHL1   H3' 2224   5.682   5.149   3.302  0.6298  0.7715  1.0456
   31CHL1    C4 2225   5.502   5.153   3.499  0.2056 -0.6608 -0.3607
   31CHL1   H4A 2226   5.525   5.257   3.465  0.3182 -0.2736  0.8397
   31CHL1   H4B 2227   5.421   5.099   3.445  1.4322 -1.3580 -1.5414
   31CHL1    C5 2228   5.489   5.171   3.651 -0.3674  0.3434  0.1182
   31CHL1    C6 2229   5.375   5.147   3.712 -0.2408  0.4926  0.7026
   31CHL1    H6 2230   5.285   5.123   3.653  0.8323  0.2631 -0.8753
   31CHL1    C7 2231   5.354   5.154   3.864  0.2463  0.4493 -0.5869
   31CHL1   H7A 2232   5.258   5.209   3.876 -0.1749 -0.5809  1.1129
   31CHL1   H7B 2233   5.347   5.054   3.911 -1.2458  0.7972 -0.0042
   31CHL1    C8 2234   5.469   5.232   3.940  0.4959 -0.7016  0.3640
   31CHL1    H8 2235   5.465   5.337   3.905 -0.1953 -0.5141  0.9881
   31CHL1   C14 2236   5.463   5.212   4.092  0.8566 -0.2225 -0.8468
   31CHL1   H14 2237   5.465   5.104   4.115  0.1185 -0.5584 -2.2742
   31CHL1   C15 2238   5.333   5.263   4.160  0.1092 -0.6648  0.8681
   31CHL1  H15A 2239   5.322   5.371   4.136  1.0126 -0.8117 -0.3320
   31CHL1  H15B 2240   5.242   5.212   4.121 -1.2345  2.0833  0.0841
   31CHL1   C16 2241   5.358   5.249   4.315 -0.5867  0.6316 -0.1538
   31CHL1  H16A 2242   5.312   5.335   4.369 -2.9984 -0.1577 -0.8231
   31CHL1  H16B 2243   5.310   5.162   4.363 -2.0614  1.5828  0.1515
   31CHL1   C17 2244   5.521   5.236   4.327 -0.0734 -0.4124  0.7183
   31CHL1   H17 2245   5.544   5.129   4.343  1.1453 -0.2259  0.2717
   31CHL1   C13 2246   5.579   5.272   4.177  0.9855 -0.4284 -0.5163
   31CHL1   C18 2247   5.580   5.425   4.162  0.0179 -0.5361 -0.3701
   31CHL1  H18A 2248   5.574   5.452   4.055  0.4067  1.7587  0.1349
   31CHL1  H18B 2249   5.489   5.467   4.208 -0.1608  1.1498 -2.1465
   31CHL1  H18C 2250   5.670   5.478   4.200 -0.8382  2.7121 -2.4954
   31CHL1   C12 2251   5.713   5.210   4.123  0.1065 -1.0498 -0.0959
   31CHL1  H12A 2252   5.795   5.257   4.181  1.2060 -1.9957 -0.8354
   31CHL1  H12B 2253   5.714   5.105   4.160  0.9088 -2.3591 -3.4414
   31CHL1   C11 2254   5.727   5.224   3.973  0.4920 -0.0492 -0.2073
   31CHL1  H11A 2255   5.756   5.331   3.974 -0.1020  0.1149  1.1325
   31CHL1  H11B 2256   5.817   5.167   3.940  0.4242 -0.8903  1.0277
   31CHL1    C9 2257   5.604   5.183   3.883 -0.0151  0.1862  0.4519
   31CHL1    H9 2258   5.612   5.073   3.896  2.3566 -0.0426 -2.0551
   31CHL1   C10 2259   5.626   5.202   3.731 -0.2612  0.3959  0.1430
   31CHL1   C19 2260   5.671   5.347   3.706 -0.3645 -0.8414  0.0388
   31CHL1  H19A 2261   5.670   5.377   3.599 -0.0135 -0.9250  0.0082
   31CHL1  H19B 2262   5.613   5.423   3.762 -1.8473 -1.1532 -1.0056
   31CHL1  H19C 2263   5.772   5.362   3.750  0.5083 -0.6811 -1.9236
   31CHL1    C1 2264   5.736   5.109   3.683  0.5751 -0.4034  0.6319
   31CHL1   H1A 2265   5.835   5.128   3.729  1.4982 -0.0948 -1.3811
   31CHL1   H1B 2266   5.713   5.003   3.707 -0.6440 -0.1586  0.6263
   31CHL1    C2 2267   5.751   5.113   3.529  0.0115 -0.3188 -0.2512
   31CHL1   H2A 2268   5.831   5.043   3.500 -2.1344 -2.3594 -1.5684
   31CHL1   H2B 2269   5.772   5.214   3.487 -0.0348 -0.5270 -0.7838
   31CHL1   C20 2270   5.570   5.312   4.443 -0.2429  0.0816  0.1798
   31CHL1   H20 2271   5.528   5.414   4.432  0.8258  0.3866 -1.5512
   31CHL1   C21 2272   5.721   5.332   4.462  0.1667 -1.3118 -0.3775
   31CHL1  H21A 2273   5.731   5.416   4.534 -3.0432 -0.1736 -1.0723
   31CHL1  H21B 2274   5.777   5.357   4.369  1.0217  0.2255  0.5036
   31CHL1  H21C 2275   5.780   5.245   4.498  1.3513 -0.4811 -0.2573
   31CHL1   C22 2276   5.499   5.245   4.565 -0.9445  0.5191 -1.3430
   31CHL1  H22A 2277   5.389   5.234   4.561 -1.0842  1.6296 -1.1274
   31CHL1  H22B 2278   5.542   5.144   4.580 -1.5747  0.4503  0.2594
   31CHL1   C23 2279   5.537   5.330   4.696  0.1042  0.4206  0.1859
   31CHL1  H23A 2280   5.640   5.295   4.718  0.0295 -0.6322 -0.9879
   31CHL1  H23B 2281   5.548   5.435   4.662  2.2828  0.5719  1.1841
   31CHL1   C24 2282   5.432   5.294   4.806  0.6009 -0.5383 -0.2593
   31CHL1  H24A 2283   5.331   5.325   4.770 -0.8331 -1.9372  2.2309
   31CHL1  H24B 2284   5.435   5.184   4.815  2.9641 -0.4584  0.6709
   31CHL1   C25 2285   5.452   5.368   4.946  0.0530  0.2169  1.0354
   31CHL1   H25 2286   5.362   5.342   5.006 -0.3952 -0.9460 -0.0805
   31CHL1   C26 2287   5.578   5.308   5.014 -0.3130  0.8301 -0.0918
   31CHL1  H26A 2288   5.664   5.347   4.956 -1.1577 -0.5088 -2.3610
   31CHL1  H26B 2289   5.585   5.340   5.120 -1.0204 -0.1479  0.2674
   31CHL1  H26C 2290   5.580   5.198   5.001  1.6332  0.6072  1.6499
   31CHL1   C27 2291   5.458   5.521   4.946  0.4990  0.6450  0.5115
   31CHL1  H27A 2292   5.433   5.560   5.047 -3.3409  0.9754 -0.3912
   31CHL1  H27B 2293   5.556   5.538   4.897  1.6798 -1.9137  1.8111
   31CHL1  H27C 2294   5.375   5.540   4.874  0.6295 -0.8035 -0.0380
   32CHL1    C3 2295   2.623   3.547   3.227 -0.1792 -0.0626 -0.1624
   32CHL1    H3 2296   2.620   3.438   3.246 -2.3954 -0.0841 -0.3004
   32CHL1    O3 2297   2.553   3.575   3.108  0.1033 -0.4431 -0.4820
   32CHL1   H3' 2298   2.569   3.669   3.096 -0.5884 -0.3298 -0.5767
   32CHL1    C4 2299   2.560   3.624   3.348  0.2517 -1.0349 -0.0195
   32CHL1   H4A 2300   2.544   3.728   3.313  1.6270  0.0714  2.3923
   32CHL1   H4B 2301   2.454   3.598   3.370  1.3240 -4.5106  1.8690
   32CHL1    C5 2302   2.640   3.609   3.475  0.6895 -0.2405  0.5373
   32CHL1    C6 2303   2.596   3.552   3.591 -0.1623 -0.9610 -0.2339
   32CHL1    H6 2304   2.491   3.520   3.599 -0.6702  0.9819  2.2362
   32CHL1    C7 2305   2.671   3.567   3.716 -0.1902 -0.6219  0.4425
   32CHL1   H7A 2306   2.607   3.614   3.793  0.3529  0.6246  0.1528
   32CHL1   H7B 2307   2.695   3.467   3.759  1.1488  0.2962  1.9232
   32CHL1    C8 2308   2.798   3.658   3.712 -0.5346  0.1482  0.6805
   32CHL1    H8 2309   2.763   3.764   3.712  0.6073  0.5498  1.6023
   32CHL1   C14 2310   2.890   3.629   3.833 -0.0251  0.2834  1.1650
   32CHL1   H14 2311   2.930   3.526   3.820  0.7216  0.2788  3.0897
   32CHL1   C15 2312   2.820   3.613   3.976 -0.5164 -0.5203 -0.4115
   32CHL1  H15A 2313   2.744   3.694   3.981 -0.3736 -0.2582 -1.9673
   32CHL1  H15B 2314   2.757   3.522   3.984  0.9568 -1.6799 -1.6098
   32CHL1   C16 2315   2.948   3.620   4.065  0.2784  0.0444 -0.5200
   32CHL1  H16A 2316   2.931   3.695   4.145 -0.9831  0.8678 -1.5141
   32CHL1  H16B 2317   2.982   3.524   4.110  0.9718 -0.0864 -1.2952
   32CHL1   C17 2318   3.069   3.666   3.979 -0.0192 -0.2127 -0.4041
   32CHL1   H17 2319   3.127   3.576   3.952  0.3665  0.2088 -0.9914
   32CHL1   C13 2320   3.002   3.731   3.855 -0.5212  0.2681  0.0259
   32CHL1   C18 2321   2.945   3.870   3.879 -0.2777 -0.2069  0.3913
   32CHL1  H18A 2322   3.029   3.942   3.892  1.1767 -2.1471  2.4774
   32CHL1  H18B 2323   2.877   3.901   3.797  1.2226  0.7797 -0.5166
   32CHL1  H18C 2324   2.882   3.871   3.970 -2.2593 -1.0116 -0.9032
   32CHL1   C12 2325   3.083   3.718   3.717 -0.5371 -0.7417  0.6138
   32CHL1  H12A 2326   3.165   3.792   3.709  0.0518 -1.4339  0.1779
   32CHL1  H12B 2327   3.135   3.621   3.704  1.3841  0.3396 -0.1786
   32CHL1   C11 2328   3.002   3.738   3.589 -0.4884 -0.0846  0.2555
   32CHL1  H11A 2329   2.975   3.844   3.569  0.5919  0.3240  0.9113
   32CHL1  H11B 2330   3.071   3.710   3.507  1.8341  3.6237  0.6933
   32CHL1    C9 2331   2.876   3.649   3.579 -0.4425 -0.2460  0.2323
   32CHL1    H9 2332   2.894   3.539   3.580 -2.9750 -0.7773 -1.7312
   32CHL1   C10 2333   2.781   3.667   3.453  0.1286  0.2743  0.0828
   32CHL1   C19 2334   2.763   3.821   3.434 -0.5752 -0.7688  0.1835
   32CHL1  H19A 2335   2.850   3.854   3.373  1.1317  1.0483  3.3090
   32CHL1  H19B 2336   2.672   3.846   3.376 -0.3570 -1.8919 -0.6657
   32CHL1  H19C 2337   2.771   3.867   3.535 -1.0127 -0.4195  0.0606
   32CHL1    C1 2338   2.848   3.598   3.331  0.1824  0.7666 -0.3141
   32CHL1   H1A 2339   2.949   3.638   3.311  1.2793 -1.5621  0.2421
   32CHL1   H1B 2340   2.876   3.495   3.364  2.2087  1.8840  1.7061
   32CHL1    C2 2341   2.762   3.605   3.200 -0.5757 -0.3973 -0.1711
   32CHL1   H2A 2342   2.807   3.545   3.117 -0.8552 -0.7984 -0.0331
   32CHL1   H2B 2343   2.768   3.712   3.172  0.8310 -0.6057 -0.7456
   32CHL1   C20 2344   3.184   3.748   4.046  0.2001 -0.1072  0.2278
   32CHL1   H20 2345   3.158   3.856   4.043 -3.1456 -0.7133  2.0541
   32CHL1   C21 2346   3.319   3.729   3.971 -0.1213  0.2211  0.2555
   32CHL1  H21A 2347   3.317   3.781   3.873  1.0780  1.2537  0.7487
   32CHL1  H21B 2348   3.345   3.621   3.971  0.1517  0.2857  0.2745
   32CHL1  H21C 2349   3.397   3.789   4.023 -1.0628  1.7886 -0.0954
   32CHL1   C22 2350   3.208   3.729   4.201 -0.2332  0.7076  0.2234
   32CHL1  H22A 2351   3.112   3.752   4.251  0.5398  0.3088  1.9498
   32CHL1  H22B 2352   3.242   3.626   4.228 -0.9716  0.0401 -1.2698
   32CHL1   C23 2353   3.305   3.829   4.255 -0.0761  0.2743  0.0840
   32CHL1  H23A 2354   3.410   3.808   4.229 -0.5980 -3.3163  0.3579
   32CHL1  H23B 2355   3.276   3.925   4.206 -0.8270  1.7843  3.1920
   32CHL1   C24 2356   3.302   3.839   4.415 -0.6608 -0.0332  0.3616
   32CHL1  H24A 2357   3.354   3.934   4.439 -1.7707  1.3403 -2.2017
   32CHL1  H24B 2358   3.197   3.855   4.446 -0.3944  1.6429  0.4985
   32CHL1   C25 2359   3.366   3.727   4.500  0.2124  0.1264  0.2604
   32CHL1   H25 2360   3.326   3.630   4.464 -0.3379  0.9392 -1.4599
   32CHL1   C26 2361   3.519   3.717   4.475  0.0121 -1.3487  0.0710
   32CHL1  H26A 2362   3.577   3.638   4.527  0.9507 -0.6743  0.0618
   32CHL1  H26B 2363   3.540   3.716   4.366 -0.1437  2.7200 -0.1454
   32CHL1  H26C 2364   3.568   3.806   4.520 -1.8018 -1.5372  2.6660
   32CHL1   C27 2365   3.341   3.749   4.649  0.1785 -0.2483 -0.2317
   32CHL1  H27A 2366   3.240   3.717   4.680  0.9274  1.0274  4.2532
   32CHL1  H27B 2367   3.413   3.698   4.716  0.4702  0.8219  0.3005
   32CHL1  H27C 2368   3.355   3.858   4.671  0.7925 -0.2140 -0.7573
   33CHL1    C3 2369   6.977   6.915   3.292 -0.3547  0.3279  0.1800
   33CHL1    H3 2370   7.040   7.003   3.269 -1.0539  0.7017 -0.2958
   33CHL1    O3 2371   6.975   6.844   3.166 -0.5326 -0.2889  0.4408
   33CHL1   H3' 2372   6.884   6.814   3.162  0.0423 -2.0729 -0.3751
   33CHL1    C4 2373   7.060   6.833   3.396  0.2874 -0.0525  0.1828
   33CHL1   H4A 2374   7.020   6.731   3.414  0.0295 -0.0288 -0.2289
   33CHL1   H4B 2375   7.157   6.817   3.343 -0.1656 -0.2872 -0.6025
   33CHL1    C5 2376   7.067   6.900   3.529 -0.1738  0.6481  0.4491
   33CHL1    C6 2377   7.186   6.923   3.591  0.2655 -0.6243  0.4573
   33CHL1    H6 2378   7.284   6.895   3.550  1.6589  2.1938  1.5952
   33CHL1    C7 2379   7.201   6.978   3.725  0.6969 -0.0080  0.2686
   33CHL1   H7A 2380   7.275   6.931   3.793  2.7990  2.4479 -0.1638
   33CHL1   H7B 2381   7.236   7.083   3.715 -0.6326  0.4233 -0.0853
   33CHL1    C8 2382   7.066   6.990   3.807 -0.3162  0.7819 -0.0396
   33CHL1    H8 2383   7.057   6.890   3.854 -0.2842  0.4306 -0.7683
   33CHL1   C14 2384   7.078   7.095   3.915  0.6398 -0.0610  0.4550
   33CHL1   H14 2385   7.105   7.189   3.863  0.7395 -0.9889 -1.2498
   33CHL1   C15 2386   7.198   7.087   4.006  0.5860 -0.6453  0.0090
   33CHL1  H15A 2387   7.216   6.982   4.037  1.6189  0.0356  1.8982
   33CHL1  H15B 2388   7.292   7.130   3.966 -0.3982  0.9630 -0.6476
   33CHL1   C16 2389   7.152   7.182   4.121  0.4231  0.5969  0.4012
   33CHL1  H16A 2390   7.165   7.130   4.218  1.4470  1.7901  0.9292
   33CHL1  H16B 2391   7.204   7.280   4.128  0.3060  0.5927  1.4408
   33CHL1   C17 2392   7.003   7.215   4.103 -0.0334  0.1963  0.2270
   33CHL1   H17 2393   6.993   7.314   4.052  1.2627 -0.6606 -1.8228
   33CHL1   C13 2394   6.957   7.110   4.002  0.2348 -0.4068  0.4667
   33CHL1   C18 2395   6.928   6.970   4.078  0.1734 -0.0083  0.5029
   33CHL1  H18A 2396   7.001   6.941   4.157 -0.0746 -1.1326  0.3240
   33CHL1  H18B 2397   6.835   6.979   4.138 -0.3503  0.2301 -0.3363
   33CHL1  H18C 2398   6.914   6.888   4.005 -0.3005 -1.4265  2.1066
   33CHL1   C12 2399   6.842   7.157   3.903  0.3034 -0.1232  0.0510
   33CHL1  H12A 2400   6.745   7.167   3.956  0.0780 -4.2780  0.7411
   33CHL1  H12B 2401   6.887   7.251   3.863  1.2542  0.7334  2.8972
   33CHL1   C11 2402   6.817   7.053   3.792 -0.5944 -0.0404 -0.3030
   33CHL1  H11A 2403   6.782   6.959   3.840  0.5778  0.2700  1.2340
   33CHL1  H11B 2404   6.741   7.090   3.719 -1.5974  2.8456  2.0233
   33CHL1    C9 2405   6.948   7.024   3.711  0.5818 -0.2416  0.7594
   33CHL1    H9 2406   6.976   7.124   3.672 -0.1295 -0.1387  0.5002
   33CHL1   C10 2407   6.931   6.940   3.580 -0.2172 -0.6325  0.0226
   33CHL1   C19 2408   6.854   6.814   3.619  0.2109 -0.1353  0.3810
   33CHL1  H19A 2409   6.827   6.750   3.533 -0.4878  0.5666  0.0698
   33CHL1  H19B 2410   6.915   6.760   3.695  0.9912  0.7493  0.4063
   33CHL1  H19C 2411   6.751   6.839   3.652 -0.2009 -0.7015 -0.4426
   33CHL1    C1 2412   6.854   7.022   3.469  0.4080 -0.5471 -0.5731
   33CHL1   H1A 2413   6.751   7.039   3.508  0.9588 -1.0171  1.1476
   33CHL1   H1B 2414   6.908   7.118   3.453 -0.7187  0.2558  0.2944
   33CHL1    C2 2415   6.843   6.960   3.334 -0.2206 -0.3271  0.7507
   33CHL1   H2A 2416   6.802   7.032   3.260  1.3204  1.5624  1.6471
   33CHL1   H2B 2417   6.768   6.878   3.344  0.6533 -1.1802  0.4076
   33CHL1   C20 2418   6.930   7.229   4.244 -0.9858 -0.0664 -0.2486
   33CHL1   H20 2419   6.942   7.125   4.282  2.8881  0.3256  0.0226
   33CHL1   C21 2420   6.791   7.273   4.212  0.5712 -0.2027 -0.4977
   33CHL1  H21A 2421   6.756   7.323   4.305  1.8424 -0.7337  0.2910
   33CHL1  H21B 2422   6.723   7.188   4.191  0.0089  0.6638 -2.3578
   33CHL1  H21C 2423   6.783   7.350   4.132  0.0958 -0.1443 -0.3945
   33CHL1   C22 2424   7.007   7.322   4.345 -0.3867 -0.3148  0.7567
   33CHL1  H22A 2425   7.115   7.295   4.340  0.0784  1.2462  1.6200
   33CHL1  H22B 2426   6.999   7.427   4.311  0.3929 -0.4789  0.0115
   33CHL1   C23 2427   6.959   7.315   4.492 -0.2805 -0.3244  0.6522
   33CHL1  H23A 2428   6.866   7.375   4.495 -1.4576 -2.0435 -0.2193
   33CHL1  H23B 2429   6.951   7.207   4.514  2.8054 -0.6805  0.4988
   33CHL1   C24 2430   7.052   7.366   4.604 -0.6066 -0.5721 -0.2767
   33CHL1  H24A 2431   7.156   7.334   4.580 -1.2917 -4.4531  1.1856
   33CHL1  H24B 2432   7.040   7.476   4.610  2.7500 -0.0286 -1.2761
   33CHL1   C25 2433   7.019   7.318   4.748 -0.2607  0.1131  0.3472
   33CHL1   H25 2434   7.035   7.208   4.755 -1.4482  0.0056  1.8051
   33CHL1   C26 2435   7.113   7.378   4.860 -0.2942 -0.5127  0.3460
   33CHL1  H26A 2436   7.067   7.473   4.895  1.2158 -0.0414  1.1509
   33CHL1  H26B 2437   7.110   7.312   4.949 -3.2436 -0.0948  0.6313
   33CHL1  H26C 2438   7.218   7.401   4.832 -0.7839  1.0071 -0.3928
   33CHL1   C27 2439   6.868   7.332   4.782  0.5392  0.1158 -0.9303
   33CHL1  H27A 2440   6.808   7.274   4.708  1.6507 -1.7789 -0.4109
   33CHL1  H27B 2441   6.849   7.300   4.886  0.1192 -1.4194 -1.4524
   33CHL1  H27C 2442   6.839   7.439   4.777  1.2973  0.2825 -2.3338
   34CHL1    C3 2443   4.161   5.343   3.213  0.5926  0.2593 -0.1877
   34CHL1    H3 2444   4.268   5.312   3.202  0.9827  1.8702 -1.2751
   34CHL1    O3 2445   4.104   5.335   3.083  0.1049 -0.7119  0.2865
   34CHL1   H3' 2446   4.065   5.247   3.080 -2.7988  0.4918 -0.2350
   34CHL1    C4 2447   4.070   5.251   3.296  0.1898 -0.3955  0.3335
   34CHL1   H4A 2448   3.964   5.284   3.295  0.2334 -0.2597  0.2441
   34CHL1   H4B 2449   4.069   5.144   3.264 -0.1439 -0.1581 -0.4840
   34CHL1    C5 2450   4.116   5.259   3.437 -0.1868 -0.8159  0.1771
   34CHL1    C6 2451   4.169   5.154   3.494 -0.4842 -0.2057 -0.1503
   34CHL1    H6 2452   4.160   5.058   3.440 -0.7531  0.1016 -0.6614
   34CHL1    C7 2453   4.220   5.145   3.636 -0.4309  0.2346  0.6687
   34CHL1   H7A 2454   4.165   5.065   3.690 -1.1200 -0.6788 -1.3058
   34CHL1   H7B 2455   4.328   5.122   3.636 -0.3143  0.7688  0.5897
   34CHL1    C8 2456   4.200   5.275   3.709 -0.2338 -0.9301  0.7496
   34CHL1    H8 2457   4.093   5.283   3.740 -0.6250 -0.0480 -0.7662
   34CHL1   C14 2458   4.282   5.271   3.836 -0.1707 -0.2826  0.6956
   34CHL1   H14 2459   4.388   5.276   3.806 -0.8498  0.8024 -1.8015
   34CHL1   C15 2460   4.268   5.140   3.918 -0.4776  0.3456 -0.0172
   34CHL1  H15A 2461   4.162   5.116   3.937 -0.4092 -0.2828 -0.4035
   34CHL1  H15B 2462   4.327   5.055   3.876  2.3886  1.5481  1.2725
   34CHL1   C16 2463   4.333   5.190   4.051 -0.0142  0.0970 -0.1691
   34CHL1  H16A 2464   4.259   5.150   4.124  0.1552  0.2061  0.0662
   34CHL1  H16B 2465   4.421   5.124   4.066 -0.8474 -0.9764  0.1692
   34CHL1   C17 2466   4.347   5.340   4.051  0.5427 -0.3850  0.5343
   34CHL1   H17 2467   4.447   5.373   4.014 -0.2904  0.5170 -1.0312
   34CHL1   C13 2468   4.261   5.394   3.928  0.3820  0.3831 -0.0909
   34CHL1   C18 2469   4.118   5.404   3.972 -0.1470  0.3833  0.2952
   34CHL1  H18A 2470   4.082   5.304   4.003  2.1492 -0.8306 -0.7110
   34CHL1  H18B 2471   4.096   5.470   4.059 -0.9151  0.7393 -0.1502
   34CHL1  H18C 2472   4.049   5.451   3.898  0.1988 -0.0436 -0.3017
   34CHL1   C12 2473   4.310   5.516   3.852  0.2374 -0.2934 -1.0398
   34CHL1  H12A 2474   4.312   5.610   3.911 -0.3769 -0.7225 -0.3065
   34CHL1  H12B 2475   4.414   5.492   3.821  1.2388 -0.5445  2.1508
   34CHL1   C11 2476   4.246   5.526   3.712  0.2202  0.6855 -0.3000
   34CHL1  H11A 2477   4.143   5.557   3.739  0.4685  0.6558  0.7091
   34CHL1  H11B 2478   4.295   5.600   3.644 -1.1159  1.2096 -0.7111
   34CHL1    C9 2479   4.241   5.393   3.626 -0.2251  0.0942 -0.1150
   34CHL1    H9 2480   4.345   5.375   3.592 -0.6364 -1.9040 -0.4467
   34CHL1   C10 2481   4.137   5.398   3.502 -0.3723  0.1206 -0.5686
   34CHL1   C19 2482   3.988   5.437   3.541 -0.3906  0.2005 -0.1887
   34CHL1  H19A 2483   3.949   5.380   3.628 -1.4809  1.6757  0.3268
   34CHL1  H19B 2484   3.995   5.539   3.584 -1.9764  0.5501 -0.7119
   34CHL1  H19C 2485   3.911   5.444   3.462  0.4073  0.0055 -1.0097
   34CHL1    C1 2486   4.200   5.494   3.407  0.6833  0.6296  0.0360
   34CHL1   H1A 2487   4.190   5.599   3.442 -0.0847  1.8448 -3.4163
   34CHL1   H1B 2488   4.309   5.476   3.401  0.6356  0.1396  0.5652
   34CHL1    C2 2489   4.151   5.489   3.258  0.6162  0.4105  0.4814
   34CHL1   H2A 2490   4.222   5.546   3.194 -0.8354  0.2334 -1.3943
   34CHL1   H2B 2491   4.051   5.532   3.238  1.0465  1.2563  0.1047
   34CHL1   C20 2492   4.335   5.402   4.195 -1.0026 -0.0696 -0.2321
   34CHL1   H20 2493   4.239   5.376   4.244  0.3814 -2.1251  1.5787
   34CHL1   C21 2494   4.365   5.559   4.185  1.1034  0.0038 -0.6940
   34CHL1  H21A 2495   4.299   5.604   4.108 -0.5257 -0.5831  0.3101
   34CHL1  H21B 2496   4.469   5.584   4.155  0.4351  1.2079 -2.1415
   34CHL1  H21C 2497   4.340   5.611   4.280  0.7691  1.1403 -1.3902
   34CHL1   C22 2498   4.437   5.351   4.302  0.2182  0.9439 -0.2162
   34CHL1  H22A 2499   4.436   5.243   4.325 -0.0743  0.6647 -1.4616
   34CHL1  H22B 2500   4.538   5.373   4.260  0.0814 -2.3498 -2.6665
   34CHL1   C23 2501   4.424   5.417   4.444 -0.2808  0.1863 -0.4086
   34CHL1  H23A 2502   4.504   5.364   4.500 -1.3893 -1.2642 -0.1243
   34CHL1  H23B 2503   4.457   5.523   4.453 -0.5434  0.1853  0.7300
   34CHL1   C24 2504   4.285   5.399   4.506  0.6205  0.2421  0.6041
   34CHL1  H24A 2505   4.216   5.459   4.444  0.4234  0.7464  1.3021
   34CHL1  H24B 2506   4.267   5.290   4.520  1.0153  0.3490  2.0988
   34CHL1   C25 2507   4.269   5.452   4.651  0.2978  0.3877  0.5305
   34CHL1   H25 2508   4.324   5.548   4.652  1.2589 -0.1300 -0.3643
   34CHL1   C26 2509   4.122   5.479   4.684 -0.8674 -0.7450 -0.5232
   34CHL1  H26A 2510   4.068   5.382   4.699  1.4397 -1.7892  1.8198
   34CHL1  H26B 2511   4.113   5.533   4.780  0.3891  0.1599 -0.9029
   34CHL1  H26C 2512   4.076   5.536   4.600  1.2261  0.2559 -1.0421
   34CHL1   C27 2513   4.337   5.360   4.749  0.7286  0.2949 -0.8503
   34CHL1  H27A 2514   4.440   5.343   4.711 -0.0508 -1.7608 -2.2086
   34CHL1  H27B 2515   4.348   5.394   4.854 -1.2779 -1.4904  0.0061
   34CHL1  H27C 2516   4.287   5.261   4.752  0.8974  0.2297  0.8122
   35CHL1    C3 2517   6.751   2.461   3.820 -0.2146  0.0183 -0.5475
   35CHL1    H3 2518   6.661   2.414   3.866  1.3525 -2.4603  0.2087
   35CHL1    O3 2519   6.759   2.425   3.681 -0.1614 -0.1575 -0.7213
   35CHL1   H3' 2520   6.832   2.484   3.658  1.5233 -1.3021  1.3180
   35CHL1    C4 2521   6.751   2.611   3.846 -0.7840 -0.0887  0.4103
   35CHL1   H4A 2522   6.846   2.646   3.801  0.5845 -0.0661  3.0802
   35CHL1   H4B 2523   6.662   2.658   3.798 -0.6377  1.4424  1.5380
   35CHL1    C5 2524   6.751   2.655   3.996  0.4736  0.0485  0.1436
   35CHL1    C6 2525   6.661   2.731   4.057  0.2445 -0.5359 -0.9757
   35CHL1    H6 2526   6.593   2.791   3.995  0.8901  2.3125  0.8440
   35CHL1    C7 2527   6.663   2.771   4.206 -0.5713 -0.0717 -0.3363
   35CHL1   H7A 2528   6.635   2.878   4.204 -1.1161 -0.1790  0.7384
   35CHL1   H7B 2529   6.594   2.715   4.273 -1.2110  2.1250  0.9688
   35CHL1    C8 2530   6.797   2.751   4.269 -0.4451 -0.4442 -0.1051
   35CHL1    H8 2531   6.861   2.827   4.220 -1.4549  0.0311 -0.7156
   35CHL1   C14 2532   6.781   2.760   4.416 -0.6016  0.7093 -0.3227
   35CHL1   H14 2533   6.713   2.679   4.453  2.8100 -1.0218  2.8997
   35CHL1   C15 2534   6.709   2.883   4.474 -0.1376  0.2120  0.4739
   35CHL1  H15A 2535   6.759   2.965   4.418 -2.0263 -0.0164 -1.7419
   35CHL1  H15B 2536   6.600   2.878   4.453 -0.0073 -0.2508 -0.1216
   35CHL1   C16 2537   6.737   2.875   4.621 -0.0964 -0.0872 -0.5275
   35CHL1  H16A 2538   6.769   2.972   4.663  1.6400 -0.7239 -0.2895
   35CHL1  H16B 2539   6.653   2.829   4.677  1.0536 -1.4255  0.1503
   35CHL1   C17 2540   6.851   2.774   4.643  0.0669  0.5496  0.8568
   35CHL1   H17 2541   6.799   2.680   4.672  0.8565 -0.2457 -0.2044
   35CHL1   C13 2542   6.908   2.742   4.495  0.2960 -0.1641 -0.5917
   35CHL1   C18 2543   7.010   2.849   4.456 -0.4679 -0.9360  0.0151
   35CHL1  H18A 2544   7.098   2.832   4.521 -0.3926  0.0329  0.1941
   35CHL1  H18B 2545   7.042   2.849   4.350  1.1200 -1.6155  0.4656
   35CHL1  H18C 2546   6.981   2.951   4.491 -0.1000 -1.2580  1.3319
   35CHL1   C12 2547   6.955   2.602   4.468  0.1717  0.1434 -0.0454
   35CHL1  H12A 2548   7.046   2.583   4.528 -0.1577  0.6509  0.6400
   35CHL1  H12B 2549   6.882   2.536   4.520 -0.4828  0.3747 -0.6487
   35CHL1   C11 2550   6.966   2.561   4.319  0.2372  0.4080  0.5219
   35CHL1  H11A 2551   7.063   2.599   4.282  1.0757 -1.6134  0.4722
   35CHL1  H11B 2552   6.973   2.450   4.306 -1.9174  0.0530  1.9029
   35CHL1    C9 2553   6.848   2.608   4.234 -0.3568  0.0730 -0.2649
   35CHL1    H9 2554   6.764   2.543   4.267 -1.7430  1.4634 -0.9326
   35CHL1   C10 2555   6.865   2.588   4.076  0.4196 -0.1626  0.1217
   35CHL1   C19 2556   7.005   2.649   4.037  0.4756 -0.2086  0.1439
   35CHL1  H19A 2557   7.005   2.680   3.930 -1.5095 -0.4807  0.0208
   35CHL1  H19B 2558   7.016   2.745   4.092 -1.3634 -0.7570  1.5768
   35CHL1  H19C 2559   7.089   2.581   4.064 -1.1413 -1.7366  1.6035
   35CHL1    C1 2560   6.870   2.439   4.050  0.2322 -0.1011 -0.4669
   35CHL1   H1A 2561   6.956   2.383   4.093 -0.8814 -1.8616 -0.4292
   35CHL1   H1B 2562   6.776   2.397   4.091 -0.1945  0.8574 -0.4405
   35CHL1    C2 2563   6.874   2.400   3.899 -0.4620 -0.4432  0.3255
   35CHL1   H2A 2564   6.875   2.289   3.895 -0.6727 -0.4386  0.1404
   35CHL1   H2B 2565   6.966   2.440   3.851  0.4177 -0.1370  2.1540
   35CHL1   C20 2566   6.955   2.803   4.760 -0.1608 -0.2008  0.3409
   35CHL1   H20 2567   7.016   2.892   4.731  0.8099 -0.8940  0.1753
   35CHL1   C21 2568   7.051   2.686   4.788 -0.4746  0.2418 -0.2726
   35CHL1  H21A 2569   7.109   2.662   4.697  1.2607  1.5206  0.4332
   35CHL1  H21B 2570   6.991   2.594   4.808 -0.8653  0.0921 -1.9904
   35CHL1  H21C 2571   7.114   2.729   4.869 -0.5307  1.8840 -1.0694
   35CHL1   C22 2572   6.883   2.839   4.895  0.4550 -0.5956  0.1463
   35CHL1  H22A 2573   6.803   2.908   4.858  1.4331  0.3926 -0.2024
   35CHL1  H22B 2574   6.829   2.748   4.927  1.0960 -0.9306  0.2881
   35CHL1   C23 2575   6.965   2.906   5.002  0.0028 -0.2202  0.1712
   35CHL1  H23A 2576   7.053   2.839   5.014  1.0986  0.5412 -2.7196
   35CHL1  H23B 2577   7.000   3.006   4.968  1.2619  0.0118  2.0158
   35CHL1   C24 2578   6.892   2.923   5.136 -0.0076  0.0435 -0.1037
   35CHL1  H24A 2579   6.818   3.004   5.122 -0.3888 -0.1630  0.6729
   35CHL1  H24B 2580   6.856   2.821   5.163 -0.8388  0.4060  0.1851
   35CHL1   C25 2581   6.984   2.966   5.251  0.2350  0.3580 -0.2685
   35CHL1   H25 2582   7.057   2.884   5.270  2.9838  2.5499 -0.5861
   35CHL1   C26 2583   7.058   3.093   5.222 -0.7610  0.2881  0.6645
   35CHL1  H26A 2584   7.145   3.078   5.154 -2.2096 -0.4328 -1.1102
   35CHL1  H26B 2585   7.000   3.177   5.179 -0.3439  0.4413  0.3885
   35CHL1  H26C 2586   7.107   3.125   5.317  1.2591 -0.9774  0.1341
   35CHL1   C27 2587   6.905   2.986   5.386  0.6892  0.1842  0.2707
   35CHL1  H27A 2588   6.972   2.973   5.473 -1.9751 -0.8123  2.3203
   35CHL1  H27B 2589   6.858   3.087   5.383  0.7974  0.2365  0.3506
   35CHL1  H27C 2590   6.832   2.904   5.401  0.8729  0.4084  2.8810
   36CHL1    C3 2591   5.844   1.689   4.667  0.1649 -0.5886  0.2659
   36CHL1    H3 2592   5.738   1.722   4.671  0.1906 -0.0480 -1.9869
   36CHL1    O3 2593   5.894   1.755   4.546  0.0709  0.1112  0.5112
   36CHL1   H3' 2594   5.860   1.707   4.470 -1.4962 -0.2019  1.3687
   36CHL1    C4 2595   5.915   1.762   4.785  0.5346  0.4813 -0.6740
   36CHL1   H4A 2596   6.026   1.767   4.785  0.5896 -0.4926  0.1709
   36CHL1   H4B 2597   5.890   1.870   4.776  1.3156  0.6126 -1.4789
   36CHL1    C5 2598   5.877   1.699   4.912  0.0652  0.1190 -0.6185
   36CHL1    C6 2599   5.814   1.765   5.004 -0.5699  0.0768  0.2706
   36CHL1    H6 2600   5.785   1.869   4.986  0.1752  0.5363  1.5892
   36CHL1    C7 2601   5.794   1.711   5.141  0.7071 -0.1742 -0.6279
   36CHL1   H7A 2602   5.787   1.786   5.222 -2.3420 -1.6849  0.6458
   36CHL1   H7B 2603   5.693   1.665   5.141  0.3196  0.6549  0.6543
   36CHL1    C8 2604   5.890   1.596   5.179 -0.3040  0.8163  0.7770
   36CHL1    H8 2605   5.992   1.638   5.190 -0.3765  2.2738 -2.8672
   36CHL1   C14 2606   5.838   1.529   5.301 -0.2702  0.4855  0.0011
   36CHL1   H14 2607   5.740   1.484   5.274  0.5628 -2.2225  1.0842
   36CHL1   C15 2608   5.810   1.617   5.426  0.7688  0.2785  0.1505
   36CHL1  H15A 2609   5.889   1.696   5.422  1.5800 -0.4184  1.4811
   36CHL1  H15B 2610   5.710   1.663   5.434 -0.3168 -2.0142  0.4584
   36CHL1   C16 2611   5.832   1.526   5.548  0.1227  0.7625 -0.5586
   36CHL1  H16A 2612   5.926   1.559   5.599  2.4225 -0.1964 -3.8548
   36CHL1  H16B 2613   5.740   1.517   5.610 -0.8875 -1.3537 -2.2137
   36CHL1   C17 2614   5.870   1.380   5.498 -0.8907  0.1752  1.0470
   36CHL1   H17 2615   5.771   1.332   5.483 -1.5822  2.1309 -1.4156
   36CHL1   C13 2616   5.932   1.416   5.354 -0.1495 -0.9836  0.5844
   36CHL1   C18 2617   6.070   1.467   5.372  0.1381  0.8817 -0.9010
   36CHL1  H18A 2618   6.063   1.560   5.433 -0.8458  1.0630 -1.2629
   36CHL1  H18B 2619   6.126   1.386   5.422 -0.5732  1.5023  0.9945
   36CHL1  H18C 2620   6.118   1.484   5.273  0.9292  2.9067 -0.2116
   36CHL1   C12 2621   5.930   1.302   5.253 -0.0819 -0.0793  0.6156
   36CHL1  H12A 2622   6.004   1.223   5.275  0.1304  0.6779  2.8925
   36CHL1  H12B 2623   5.825   1.266   5.257 -0.8719  1.9076 -0.6193
   36CHL1   C11 2624   5.950   1.351   5.105 -0.1650 -0.2387  0.1487
   36CHL1  H11A 2625   6.060   1.360   5.096 -0.2137  1.8542  1.1353
   36CHL1  H11B 2626   5.913   1.292   5.018  1.4363  1.8248 -2.0592
   36CHL1    C9 2627   5.882   1.489   5.065  0.4920 -0.8492  0.4320
   36CHL1    H9 2628   5.772   1.473   5.054 -0.6504  5.4730 -1.2204
   36CHL1   C10 2629   5.918   1.549   4.921  0.5045 -0.3486  0.1441
   36CHL1   C19 2630   6.079   1.534   4.911 -0.5720  0.1674  0.5237
   36CHL1  H19A 2631   6.106   1.427   4.912  0.5572  0.4468  1.1863
   36CHL1  H19B 2632   6.106   1.578   4.812 -2.4507  2.1053  0.7783
   36CHL1  H19C 2633   6.127   1.582   4.998  1.0460 -2.3733  1.1172
   36CHL1    C1 2634   5.838   1.484   4.815 -0.1912  0.5173 -0.0692
   36CHL1   H1A 2635   5.864   1.376   4.807  0.1331  0.2827  2.8904
   36CHL1   H1B 2636   5.727   1.492   4.827 -0.0491  1.3376  0.8275
   36CHL1    C2 2637   5.864   1.537   4.669 -0.3167 -0.4106 -0.4085
   36CHL1   H2A 2638   5.797   1.495   4.591 -0.0366 -1.4565 -0.1040
   36CHL1   H2B 2639   5.965   1.526   4.626 -0.0330  1.9542 -0.4732
   36CHL1   C20 2640   5.956   1.307   5.603 -0.3824 -0.5501 -0.2657
   36CHL1   H20 2641   6.056   1.355   5.615 -1.0202  0.7961 -0.1405
   36CHL1   C21 2642   5.965   1.158   5.560 -0.1764  0.5126 -0.4014
   36CHL1  H21A 2643   6.023   1.099   5.635  0.3395 -1.1770 -2.0688
   36CHL1  H21B 2644   6.008   1.146   5.459  1.1545 -0.5582  0.2577
   36CHL1  H21C 2645   5.861   1.121   5.551  0.1588 -0.0957 -1.9968
   36CHL1   C22 2646   5.889   1.310   5.751 -0.1180  0.1829  0.9245
   36CHL1  H22A 2647   5.890   1.412   5.795  0.8885  1.3666 -1.6589
   36CHL1  H22B 2648   5.783   1.280   5.732 -1.0610  4.5394 -2.0794
   36CHL1   C23 2649   5.945   1.213   5.855 -0.3945 -0.0606  0.4208
   36CHL1  H23A 2650   5.918   1.110   5.821 -0.8653  0.7964 -2.0716
   36CHL1  H23B 2651   6.056   1.221   5.856 -0.3798 -0.2210  0.2467
   36CHL1   C24 2652   5.919   1.240   6.004  0.0732 -0.6255  0.2302
   36CHL1  H24A 2653   5.973   1.171   6.072 -1.3516 -1.2194  0.7898
   36CHL1  H24B 2654   5.958   1.340   6.031  0.8461 -1.0000  0.5347
   36CHL1   C25 2655   5.769   1.225   6.042  0.2955 -0.1829 -0.5056
   36CHL1   H25 2656   5.715   1.298   5.977  0.4713 -0.0890 -0.5479
   36CHL1   C26 2657   5.716   1.083   6.017  0.7761 -0.5501 -0.4407
   36CHL1  H26A 2658   5.724   1.055   5.910  0.4167 -3.1685  0.1475
   36CHL1  H26B 2659   5.767   1.009   6.082 -1.0276 -1.1070  0.4261
   36CHL1  H26C 2660   5.611   1.089   6.053  0.5349  0.5764 -1.2767
   36CHL1   C27 2661   5.751   1.266   6.191  0.6806 -0.3433  0.2811
   36CHL1  H27A 2662   5.820   1.209   6.257  0.0883  0.0524  1.2721
   36CHL1  H27B 2663   5.767   1.375   6.210 -1.6604  0.0560  0.1964
   36CHL1  H27C 2664   5.645   1.242   6.213  0.2809  1.1485  0.1175
   37CHL1    C3 2665   6.484   1.442   3.776 -0.0206  0.8867 -0.3492
   37CHL1    H3 2666   6.482   1.332   3.759  2.0487  0.8132 -0.3382
   37CHL1    O3 2667   6.510   1.489   3.648 -0.0106 -0.2342  0.3304
   37CHL1   H3' 2668   6.586   1.543   3.670 -1.1888  0.8017  2.1577
   37CHL1    C4 2669   6.353   1.494   3.830 -0.5245 -0.2704  0.7197
   37CHL1   H4A 2670   6.367   1.604   3.828  2.1770 -0.5727 -0.1997
   37CHL1   H4B 2671   6.276   1.455   3.760  1.4090  0.4612 -1.9383
   37CHL1    C5 2672   6.314   1.453   3.971 -0.0033 -0.9390 -0.2591
   37CHL1    C6 2673   6.196   1.404   4.002  0.1583  0.6830  0.2267
   37CHL1    H6 2674   6.120   1.404   3.923 -0.7257  2.8624  0.9835
   37CHL1    C7 2675   6.146   1.346   4.131  0.1221  0.4618  0.3294
   37CHL1   H7A 2676   6.040   1.377   4.146 -0.6243 -1.5726 -0.4428
   37CHL1   H7B 2677   6.143   1.238   4.108  1.2497  0.3444  0.6553
   37CHL1    C8 2678   6.249   1.370   4.249  0.2603  0.0447  0.4934
   37CHL1    H8 2679   6.231   1.475   4.280 -1.0288 -0.1072  0.3181
   37CHL1   C14 2680   6.237   1.263   4.355  0.6469 -0.2088  1.7728
   37CHL1   H14 2681   6.263   1.164   4.311  1.9957 -0.3774  2.8777
   37CHL1   C15 2682   6.096   1.244   4.416  0.0860  0.1538  0.2255
   37CHL1  H15A 2683   6.054   1.341   4.448  1.9007  1.0712 -0.0636
   37CHL1  H15B 2684   6.025   1.184   4.355  4.3487 -3.3394 -1.9087
   37CHL1   C16 2685   6.128   1.176   4.553  0.6691 -0.1766 -0.7044
   37CHL1  H16A 2686   6.072   1.220   4.638  0.8742 -1.5186  0.1594
   37CHL1  H16B 2687   6.096   1.070   4.559  1.0012 -0.2384  0.1106
   37CHL1   C17 2688   6.285   1.181   4.561 -0.0502  0.0671  0.0585
   37CHL1   H17 2689   6.315   1.087   4.509  1.4766  1.6833 -2.1551
   37CHL1   C13 2690   6.332   1.288   4.474 -0.5207  0.6201  0.1682
   37CHL1   C18 2691   6.316   1.430   4.543  0.1992 -0.3582  0.6423
   37CHL1  H18A 2692   6.403   1.445   4.611 -0.6967 -0.2613  1.8095
   37CHL1  H18B 2693   6.293   1.506   4.465 -1.1183 -2.2232 -0.8747
   37CHL1  H18C 2694   6.227   1.435   4.609  0.1222  0.1202  0.5080
   37CHL1   C12 2695   6.475   1.278   4.415 -0.1372  0.5577 -0.0414
   37CHL1  H12A 2696   6.544   1.303   4.499 -1.4276 -0.5940  1.4211
   37CHL1  H12B 2697   6.484   1.172   4.386 -1.2650  0.5332 -0.3720
   37CHL1   C11 2698   6.498   1.377   4.299 -0.2102  0.5797 -0.0920
   37CHL1  H11A 2699   6.487   1.480   4.338 -1.2761  0.0612  1.0635
   37CHL1  H11B 2700   6.601   1.370   4.258 -0.4825 -2.6108 -0.5458
   37CHL1    C9 2701   6.393   1.356   4.189 -0.0801 -0.5407 -0.3433
   37CHL1    H9 2702   6.399   1.250   4.159 -2.6435 -0.9977  0.4629
   37CHL1   C10 2703   6.429   1.454   4.072  0.6390 -0.4969  0.0358
   37CHL1   C19 2704   6.433   1.601   4.123  0.2967  0.4762  0.4913
   37CHL1  H19A 2705   6.524   1.613   4.185  0.4873 -2.3305  0.8835
   37CHL1  H19B 2706   6.451   1.676   4.043  1.0346  0.6129  0.7809
   37CHL1  H19C 2707   6.353   1.629   4.195 -0.3215 -1.0319  0.4322
   37CHL1    C1 2708   6.568   1.411   4.011 -0.3784 -0.3386  0.3673
   37CHL1   H1A 2709   6.656   1.435   4.074 -0.6260  0.4228  0.4350
   37CHL1   H1B 2710   6.566   1.302   3.988  1.3325 -0.2868 -0.1375
   37CHL1    C2 2711   6.595   1.475   3.871 -0.1130 -0.5209 -0.0689
   37CHL1   H2A 2712   6.691   1.437   3.829  0.7930  1.7225 -0.1802
   37CHL1   H2B 2713   6.610   1.585   3.880  1.1033 -0.6840  0.1061
   37CHL1   C20 2714   6.336   1.172   4.707 -0.7462  0.4390  0.9711
   37CHL1   H20 2715   6.337   1.274   4.752 -1.2927  1.0659 -0.3994
   37CHL1   C21 2716   6.481   1.120   4.696  0.1901  0.3790 -0.3622
   37CHL1  H21A 2717   6.548   1.165   4.620 -1.5393  2.9622 -0.4490
   37CHL1  H21B 2718   6.476   1.009   4.695  1.0838  0.3367 -0.5258
   37CHL1  H21C 2719   6.539   1.141   4.789  1.6126  3.0718 -1.7447
   37CHL1   C22 2720   6.256   1.081   4.804  0.0522 -0.0585 -0.2237
   37CHL1  H22A 2721   6.158   1.131   4.814  1.2531  1.9283  3.8904
   37CHL1  H22B 2722   6.234   0.988   4.749 -2.1776  1.6359 -2.4032
   37CHL1   C23 2723   6.324   1.053   4.941 -0.2449  0.5599  0.8122
   37CHL1  H23A 2724   6.252   0.989   4.996 -1.0289 -1.0274 -1.8363
   37CHL1  H23B 2725   6.410   0.983   4.933 -1.8017 -1.2167 -1.6377
   37CHL1   C24 2726   6.356   1.188   5.013 -0.4623  0.6544  0.0858
   37CHL1  H24A 2727   6.443   1.228   4.955 -0.3880 -0.8259 -0.8686
   37CHL1  H24B 2728   6.268   1.255   5.005 -1.1207  0.3458  3.4284
   37CHL1   C25 2729   6.404   1.183   5.162 -0.1304 -0.2265 -0.0004
   37CHL1   H25 2730   6.503   1.136   5.183 -0.1490 -0.0590  0.4811
   37CHL1   C26 2731   6.425   1.330   5.202 -0.3657 -0.2370  0.0182
   37CHL1  H26A 2732   6.494   1.354   5.285 -0.4015  0.6446 -0.1943
   37CHL1  H26B 2733   6.462   1.391   5.118 -0.3010  2.1522  1.6904
   37CHL1  H26C 2734   6.326   1.365   5.238 -0.7229 -1.4716  0.3010
   37CHL1   C27 2735   6.297   1.125   5.263  0.1379  0.3350  0.1487
   37CHL1  H27A 2736   6.195   1.147   5.226  0.5600  0.7259 -0.8306
   37CHL1  H27B 2737   6.316   1.016   5.265 -1.8482 -0.0496 -0.1938
   37CHL1  H27C 2738   6.313   1.171   5.363  0.1688  0.2241  0.1951
   38CHL1    C3 2739   0.922   0.830   3.611 -0.7087  0.5942  0.6414
   38CHL1    H3 2740   1.025   0.871   3.621 -0.5325  0.6933 -1.1551
   38CHL1    O3 2741   0.886   0.861   3.476 -0.5206  0.2613 -0.6531
   38CHL1   H3' 2742   0.792   0.846   3.460 -0.4658 -0.6397 -0.1593
   38CHL1    C4 2743   0.927   0.681   3.638 -0.0016  0.6190  0.1294
   38CHL1   H4A 2744   0.828   0.649   3.599 -0.1416  0.6807  0.4273
   38CHL1   H4B 2745   1.003   0.644   3.566  0.4786 -0.0478  0.9496
   38CHL1    C5 2746   0.952   0.645   3.786 -1.1574 -0.2347  0.6615
   38CHL1    C6 2747   1.049   0.557   3.815 -0.3572 -0.2564  0.0819
   38CHL1    H6 2748   1.120   0.518   3.740  1.3954  0.9781  1.0242
   38CHL1    C7 2749   1.080   0.513   3.960 -0.3523 -0.7611 -0.1166
   38CHL1   H7A 2750   1.073   0.403   3.965 -0.3038 -0.7664 -0.1597
   38CHL1   H7B 2751   1.183   0.540   3.992 -0.5504 -1.1565  0.8890
   38CHL1    C8 2752   0.973   0.570   4.062 -0.1020 -0.6772  0.2308
   38CHL1    H8 2753   0.882   0.509   4.042 -1.1534  0.5462  1.1253
   38CHL1   C14 2754   1.020   0.555   4.211 -0.7946  0.5983  0.3381
   38CHL1   H14 2755   1.113   0.615   4.217  0.9921 -1.8939 -0.5103
   38CHL1   C15 2756   1.061   0.410   4.246 -0.0218 -0.3854 -0.4884
   38CHL1  H15A 2757   0.980   0.344   4.209 -0.3085 -1.1543  1.3889
   38CHL1  H15B 2758   1.162   0.377   4.212  0.1388  0.6942 -1.0635
   38CHL1   C16 2759   1.058   0.418   4.403 -0.1304  0.9626 -0.6296
   38CHL1  H16A 2760   1.010   0.332   4.454 -1.0100  0.7152 -1.8228
   38CHL1  H16B 2761   1.159   0.415   4.448 -0.4956  1.0678  0.2223
   38CHL1   C17 2762   0.987   0.552   4.449 -0.1955 -0.1131  0.4360
   38CHL1   H17 2763   1.068   0.626   4.464 -1.4943  1.1955  1.2442
   38CHL1   C13 2764   0.924   0.604   4.319 -0.6416 -0.9213 -0.8371
   38CHL1   C18 2765   0.783   0.541   4.312  0.2734  0.4280 -0.5884
   38CHL1  H18A 2766   0.746   0.548   4.208 -0.7569 -1.3689 -0.3910
   38CHL1  H18B 2767   0.778   0.430   4.326  0.0243  0.3318 -1.4158
   38CHL1  H18C 2768   0.721   0.597   4.384  0.0837 -1.1038  0.4847
   38CHL1   C12 2769   0.918   0.752   4.294 -0.1737 -0.4867  0.6024
   38CHL1  H12A 2770   0.850   0.809   4.362 -1.1308  0.9067 -1.4013
   38CHL1  H12B 2771   1.015   0.800   4.318 -0.6737  1.4445 -0.9208
   38CHL1   C11 2772   0.870   0.790   4.152 -0.3055  0.2424 -0.1121
   38CHL1  H11A 2773   0.764   0.758   4.148 -0.3382  0.2900  0.3317
   38CHL1  H11B 2774   0.879   0.897   4.123  3.0199  0.1571  0.1722
   38CHL1    C9 2775   0.936   0.713   4.028 -0.5568  0.3789  0.5766
   38CHL1    H9 2776   1.034   0.764   4.027  0.2323 -1.0609  1.3225
   38CHL1   C10 2777   0.867   0.724   3.888  0.5942  0.1981  0.1400
   38CHL1   C19 2778   0.721   0.655   3.897  0.6555  0.1267  0.1606
   38CHL1  H19A 2779   0.729   0.550   3.931  0.1537 -0.1807 -0.6483
   38CHL1  H19B 2780   0.665   0.717   3.971  0.3420  0.4369 -0.3281
   38CHL1  H19C 2781   0.668   0.663   3.800 -0.4013  0.9068  0.7705
   38CHL1    C1 2782   0.857   0.872   3.854 -0.1116 -0.1939 -0.1663
   38CHL1   H1A 2783   0.789   0.927   3.922  2.0388  2.9391 -0.3290
   38CHL1   H1B 2784   0.956   0.918   3.876  0.0181 -0.3425 -0.4376
   38CHL1    C2 2785   0.818   0.898   3.704 -0.6166  0.0789  0.1476
   38CHL1   H2A 2786   0.811   1.006   3.679  0.2570  0.2279  0.5063
   38CHL1   H2B 2787   0.721   0.846   3.690 -1.8864  2.6107 -1.1672
   38CHL1   C20 2788   0.920   0.557   4.584 -0.4636  0.4057 -0.9588
   38CHL1   H20 2789   0.824   0.502   4.591  0.3064 -0.7628  1.1700
   38CHL1   C21 2790   0.875   0.705   4.619  0.3631  0.1766 -1.3388
   38CHL1  H21A 2791   0.966   0.768   4.610  1.9504 -1.6581  0.6791
   38CHL1  H21B 2792   0.822   0.718   4.716 -0.5651  0.5756 -1.8821
   38CHL1  H21C 2793   0.805   0.739   4.540  0.2097 -0.2784 -1.4012
   38CHL1   C22 2794   1.010   0.495   4.693 -0.3073  0.3026  0.5556
   38CHL1  H22A 2795   1.040   0.390   4.674 -0.5927  0.4413 -0.7141
   38CHL1  H22B 2796   1.108   0.547   4.689  0.8983 -1.9496 -1.3327
   38CHL1   C23 2797   0.956   0.499   4.836  0.0911 -0.0761 -0.4219
   38CHL1  H23A 2798   0.934   0.604   4.864 -0.6308 -0.2671 -0.2545
   38CHL1  H23B 2799   0.871   0.429   4.848  1.6537 -1.8641  0.7100
   38CHL1   C24 2800   1.066   0.470   4.929  0.6353  0.3003  0.4179
   38CHL1  H24A 2801   1.082   0.365   4.898 -3.0174  0.0333 -1.0531
   38CHL1  H24B 2802   1.157   0.523   4.894  0.3522  1.3333  1.1958
   38CHL1   C25 2803   1.024   0.471   5.076 -0.1064 -0.1638 -0.3840
   38CHL1   H25 2804   0.977   0.570   5.097 -0.0703  0.1088 -1.5678
   38CHL1   C26 2805   0.929   0.355   5.107  0.5979  0.1545  0.2975
   38CHL1  H26A 2806   0.971   0.252   5.106 -0.5890 -0.3325 -0.2217
   38CHL1  H26B 2807   0.882   0.372   5.206  0.0948  0.4229  0.0152
   38CHL1  H26C 2808   0.849   0.349   5.031 -1.3747  1.6128  2.1381
   38CHL1   C27 2809   1.148   0.460   5.160 -0.8124  0.3060  0.2083
   38CHL1  H27A 2810   1.215   0.382   5.119 -0.4654  1.1689 -0.9129
   38CHL1  H27B 2811   1.209   0.553   5.162 -0.7039  0.2266  1.4788
   38CHL1  H27C 2812   1.112   0.429   5.261  0.1580  0.8416  0.7363
   39CHL1    C3 2813   6.887   0.491   3.523 -0.7418  0.0330 -0.7721
   39CHL1    H3 2814   6.832   0.421   3.589 -0.2492 -0.4649 -0.8822
   39CHL1    O3 2815   6.840   0.469   3.397 -0.2303  0.5721  0.4075
   39CHL1   H3' 2816   6.834   0.558   3.360  4.9052  1.2499  0.4753
   39CHL1    C4 2817   6.873   0.632   3.576 -0.1742  0.3995 -0.8940
   39CHL1   H4A 2818   6.932   0.708   3.520  0.6071 -0.9539 -1.9766
   39CHL1   H4B 2819   6.764   0.655   3.572 -0.6836 -1.9129 -2.2940
   39CHL1    C5 2820   6.934   0.628   3.718 -0.3442  0.3040  0.0262
   39CHL1    C6 2821   6.853   0.653   3.822  0.2479  0.0538 -0.8251
   39CHL1    H6 2822   6.750   0.680   3.794  0.5431  1.5703 -0.5451
   39CHL1    C7 2823   6.905   0.675   3.959  0.1527  0.1711 -0.0709
   39CHL1   H7A 2824   6.864   0.767   4.006  0.8896  0.0664  0.8028
   39CHL1   H7B 2825   6.885   0.595   4.034  0.4445  0.4184  0.2715
   39CHL1    C8 2826   7.059   0.684   3.968 -0.1152 -0.0868  0.3907
   39CHL1    H8 2827   7.091   0.783   3.928  0.2612  0.3560  1.7392
   39CHL1   C14 2828   7.108   0.683   4.107  0.4170 -0.3466  0.5581
   39CHL1   H14 2829   7.086   0.582   4.147  2.7193 -1.6857 -1.2748
   39CHL1   C15 2830   7.042   0.778   4.218 -0.3060  0.4514  0.4169
   39CHL1  H15A 2831   7.030   0.878   4.172  0.2133  0.5170  0.4234
   39CHL1  H15B 2832   6.948   0.732   4.256 -1.0638  2.4437  1.1016
   39CHL1   C16 2833   7.149   0.778   4.326 -0.4028  0.5083 -0.2256
   39CHL1  H16A 2834   7.172   0.885   4.344 -0.3943  0.6402 -0.9837
   39CHL1  H16B 2835   7.109   0.739   4.422 -2.2882  0.6040 -0.9254
   39CHL1   C17 2836   7.267   0.699   4.274  0.6476 -0.5048  0.3147
   39CHL1   H17 2837   7.245   0.596   4.310 -1.8804 -0.5439 -1.1416
   39CHL1   C13 2838   7.258   0.696   4.121 -0.5431  0.4695 -0.7982
   39CHL1   C18 2839   7.315   0.824   4.059  0.0068  0.0931 -0.1028
   39CHL1  H18A 2840   7.291   0.840   3.952 -2.2804  0.3146  0.3852
   39CHL1  H18B 2841   7.277   0.911   4.117 -0.1269 -0.2054  0.2621
   39CHL1  H18C 2842   7.426   0.823   4.069 -0.1094 -2.4069  2.1291
   39CHL1   C12 2843   7.318   0.570   4.058 -0.2854 -0.0829 -0.2586
   39CHL1  H12A 2844   7.428   0.587   4.054 -0.1946 -0.3616  0.7722
   39CHL1  H12B 2845   7.298   0.475   4.112  1.8976  0.5086  1.7492
   39CHL1   C11 2846   7.277   0.569   3.904  0.6813  0.0851  0.4985
   39CHL1  H11A 2847   7.329   0.651   3.851 -1.4428  1.3745  0.3063
   39CHL1  H11B 2848   7.306   0.466   3.872 -0.5745 -0.0072 -0.4352
   39CHL1    C9 2849   7.125   0.573   3.881  0.2472  0.4174  0.2417
   39CHL1    H9 2850   7.079   0.479   3.919  2.9999 -0.8286  0.7445
   39CHL1   C10 2851   7.087   0.588   3.735 -0.4535  0.3115  0.1013
   39CHL1   C19 2852   7.183   0.686   3.660 -0.3421 -0.4404 -0.6319
   39CHL1  H19A 2853   7.186   0.780   3.719  1.4537 -0.2894 -0.9349
   39CHL1  H19B 2854   7.288   0.652   3.654  0.4136  0.8029  2.9584
   39CHL1  H19C 2855   7.144   0.708   3.559 -0.9116 -2.3207 -0.8624
   39CHL1    C1 2856   7.090   0.445   3.667 -0.5364 -0.4658  0.8091
   39CHL1   H1A 2857   7.196   0.410   3.670 -0.2630  0.3920  1.9436
   39CHL1   H1B 2858   7.021   0.376   3.719 -0.2534 -1.0651  0.3974
   39CHL1    C2 2859   7.033   0.441   3.523  0.0044 -0.1944 -0.2028
   39CHL1   H2A 2860   7.026   0.335   3.492  0.3420 -0.3652  0.2953
   39CHL1   H2B 2861   7.095   0.505   3.456  0.4293 -0.5602 -0.1554
   39CHL1   C20 2862   7.400   0.737   4.325 -0.6050 -0.0781  0.2621
   39CHL1   H20 2863   7.469   0.689   4.252 -0.1116 -0.0727  0.7267
   39CHL1   C21 2864   7.423   0.653   4.454  0.2957  0.4489 -0.2474
   39CHL1  H21A 2865   7.516   0.683   4.507  0.4176  0.0137 -0.2114
   39CHL1  H21B 2866   7.440   0.545   4.436 -0.3173 -0.3453  3.2389
   39CHL1  H21C 2867   7.335   0.648   4.522  0.1389 -1.8476 -0.5669
   39CHL1   C22 2868   7.428   0.884   4.364  0.1546  0.2995  0.1374
   39CHL1  H22A 2869   7.390   0.958   4.290  3.1127  0.5101 -1.3458
   39CHL1  H22B 2870   7.368   0.895   4.457 -0.6477  2.3862 -0.5510
   39CHL1   C23 2871   7.573   0.927   4.382 -0.2683  0.1940 -0.3928
   39CHL1  H23A 2872   7.632   0.852   4.439  1.6169  1.0681 -1.1102
   39CHL1  H23B 2873   7.606   0.922   4.276 -2.6854  2.3844 -1.3457
   39CHL1   C24 2874   7.599   1.073   4.418  0.1323  0.4817 -0.2058
   39CHL1  H24A 2875   7.704   1.092   4.389 -0.6086  1.7367 -2.3298
   39CHL1  H24B 2876   7.533   1.136   4.354  0.6612  0.6840 -0.5556
   39CHL1   C25 2877   7.568   1.113   4.567  0.3229 -0.2544  0.8951
   39CHL1   H25 2878   7.458   1.104   4.560  0.4874 -1.0962 -1.9677
   39CHL1   C26 2879   7.623   1.006   4.669  0.0124 -0.4713  0.1159
   39CHL1  H26A 2880   7.568   1.049   4.755  2.1034  0.4618  1.0509
   39CHL1  H26B 2881   7.586   0.904   4.645 -1.2986 -0.0492  0.2868
   39CHL1  H26C 2882   7.732   1.017   4.689 -0.2043 -0.5968  1.4624
   39CHL1   C27 2883   7.608   1.260   4.602  0.7217 -0.5120 -0.3014
   39CHL1  H27A 2884   7.713   1.282   4.576  0.9373 -0.2767  0.7287
   39CHL1  H27B 2885   7.540   1.326   4.545 -0.9181 -0.4059  1.6387
   39CHL1  H27C 2886   7.582   1.275   4.709  0.6496 -0.4788 -0.3236
   40CHL1    C3 2887   6.964   5.824   3.357  0.2109 -0.3816  0.0580
   40CHL1    H3 2888   6.994   5.928   3.382 -2.1637  0.8752 -1.8558
   40CHL1    O3 2889   6.962   5.816   3.216  0.1290 -0.5740  0.0792
   40CHL1   H3' 2890   6.931   5.727   3.199  0.2411 -1.0039  1.9177
   40CHL1    C4 2891   7.067   5.723   3.413  0.0801  0.6897 -0.4145
   40CHL1   H4A 2892   7.031   5.626   3.371 -3.1191  1.9415 -0.8898
   40CHL1   H4B 2893   7.169   5.749   3.376  1.2899 -1.4640  1.2027
   40CHL1    C5 2894   7.065   5.737   3.565  0.3392  0.5965  0.1973
   40CHL1    C6 2895   7.183   5.756   3.624  0.1483 -0.0485 -0.5374
   40CHL1    H6 2896   7.269   5.773   3.559  0.7779  1.0073  0.5373
   40CHL1    C7 2897   7.195   5.767   3.774 -0.1940 -0.2687  0.3270
   40CHL1   H7A 2898   7.280   5.704   3.809  0.5992 -0.8133 -2.3188
   40CHL1   H7B 2899   7.221   5.873   3.797 -2.4515  0.4779 -0.3431
   40CHL1    C8 2900   7.071   5.719   3.853  0.9467  0.9264  0.5076
   40CHL1    H8 2901   7.063   5.609   3.843  0.2314  1.1059 -1.2387
   40CHL1   C14 2902   7.066   5.763   3.997 -0.0778 -0.2358 -1.1001
   40CHL1   H14 2903   7.041   5.871   3.989 -1.6571 -0.6290 -1.7549
   40CHL1   C15 2904   7.192   5.744   4.081  0.1279 -0.0348 -0.7782
   40CHL1  H15A 2905   7.247   5.648   4.067 -0.4457 -0.3210 -1.0962
   40CHL1  H15B 2906   7.261   5.828   4.059  0.1898  0.8195  2.2724
   40CHL1   C16 2907   7.152   5.732   4.225  0.4272  0.5664  0.0967
   40CHL1  H16A 2908   7.174   5.629   4.259 -0.4613 -0.1299 -1.2967
   40CHL1  H16B 2909   7.208   5.807   4.284  1.0778  1.0351 -1.0867
   40CHL1   C17 2910   6.996   5.752   4.229  0.9330 -0.1287 -0.1143
   40CHL1   H17 2911   6.988   5.863   4.234 -2.5910 -0.2497 -0.4349
   40CHL1   C13 2912   6.946   5.714   4.083  0.2155 -0.0973  0.1431
   40CHL1   C18 2913   6.951   5.560   4.082  0.3569 -0.2753 -0.1745
   40CHL1  H18A 2914   6.933   5.501   3.990  1.8413 -1.7810  0.4370
   40CHL1  H18B 2915   7.053   5.539   4.122  0.0995  1.4799  1.5355
   40CHL1  H18C 2916   6.879   5.520   4.156  0.0882  1.3575  0.4791
   40CHL1   C12 2917   6.819   5.772   4.022  0.5320 -0.3586 -0.0591
   40CHL1  H12A 2918   6.731   5.725   4.072 -0.7628  1.4138 -0.5428
   40CHL1  H12B 2919   6.808   5.882   4.031  1.1891 -0.2881 -0.0611
   40CHL1   C11 2920   6.815   5.730   3.877  0.0112 -0.6833  0.6530
   40CHL1  H11A 2921   6.794   5.621   3.869 -1.2964 -0.3343 -2.1903
   40CHL1  H11B 2922   6.727   5.772   3.823  1.7258 -0.4331 -2.1598
   40CHL1    C9 2923   6.942   5.763   3.787 -0.2969 -0.4809 -0.1118
   40CHL1    H9 2924   6.940   5.874   3.789  0.5722 -0.4049 -1.6407
   40CHL1   C10 2925   6.927   5.727   3.640  0.6372  0.3604  0.6273
   40CHL1   C19 2926   6.890   5.573   3.626  0.3584  0.2575 -0.4119
   40CHL1  H19A 2927   6.782   5.565   3.653  0.9789 -0.5332  2.0801
   40CHL1  H19B 2928   6.882   5.536   3.521 -2.6116 -2.2495  0.5530
   40CHL1  H19C 2929   6.959   5.512   3.688 -0.5859  1.2400  1.7065
   40CHL1    C1 2930   6.816   5.817   3.569 -0.4212  0.4161  0.1989
   40CHL1   H1A 2931   6.716   5.785   3.605  0.1359 -1.1726  0.3885
   40CHL1   H1B 2932   6.841   5.923   3.592  0.6636 -0.2265  2.3000
   40CHL1    C2 2933   6.827   5.801   3.418  0.0137 -0.1374 -0.9788
   40CHL1   H2A 2934   6.763   5.881   3.376  0.7017  0.8075 -0.2621
   40CHL1   H2B 2935   6.777   5.707   3.385 -0.3922 -0.0929 -0.5075
   40CHL1   C20 2936   6.919   5.711   4.350  0.1228  0.1138 -0.7658
   40CHL1   H20 2937   6.910   5.600   4.358  3.3743 -0.2209 -0.3128
   40CHL1   C21 2938   6.785   5.786   4.358  0.3515 -1.2100 -0.4618
   40CHL1  H21A 2939   6.712   5.780   4.275 -2.3588 -0.2779  1.6840
   40CHL1  H21B 2940   6.803   5.894   4.379 -0.9441 -1.3085  1.4710
   40CHL1  H21C 2941   6.719   5.750   4.440  0.1488  1.2293  0.5521
   40CHL1   C22 2942   7.000   5.744   4.483 -0.0076  0.7128  0.4262
   40CHL1  H22A 2943   7.104   5.705   4.478 -0.8121 -1.4592 -0.6160
   40CHL1  H22B 2944   6.989   5.854   4.494 -0.8942  0.7643 -0.7452
   40CHL1   C23 2945   6.943   5.679   4.610 -0.2893  0.2169 -0.1329
   40CHL1  H23A 2946   6.840   5.720   4.620  0.3782  2.1445 -0.6657
   40CHL1  H23B 2947   6.935   5.569   4.598  1.4295  0.1567 -1.2119
   40CHL1   C24 2948   7.031   5.701   4.738  0.4908 -1.1134  0.1607
   40CHL1  H24A 2949   7.116   5.629   4.727 -0.4403 -2.3014  0.5213
   40CHL1  H24B 2950   7.076   5.802   4.733  1.2213 -1.2858  2.2347
   40CHL1   C25 2951   6.963   5.669   4.867 -0.0018  0.0793 -0.1177
   40CHL1   H25 2952   6.930   5.563   4.859 -1.8109  0.4422  1.6725
   40CHL1   C26 2953   7.053   5.698   4.988 -0.1405  0.1265  0.4522
   40CHL1  H26A 2954   7.149   5.642   4.985  0.1904  0.6685  0.7958
   40CHL1  H26B 2955   7.055   5.808   4.992  0.4784  0.2571 -1.8853
   40CHL1  H26C 2956   7.002   5.667   5.082 -0.1938  1.1191  0.7604
   40CHL1   C27 2957   6.833   5.743   4.893  0.3849  0.0170  0.2451
   40CHL1  H27A 2958   6.859   5.843   4.933  2.8138 -0.7914  0.8749
   40CHL1  H27B 2959   6.764   5.760   4.807  0.2369  0.1894  0.3979
   40CHL1  H27C 2960   6.775   5.691   4.972 -0.5804  0.0069 -0.4527
   41CHL1    C3 2961   3.785   4.444   3.309 -0.5389 -0.3814 -0.6339
   41CHL1    H3 2962   3.691   4.501   3.321  1.4459  3.0307  0.1951
   41CHL1    O3 2963   3.794   4.384   3.181  0.4510  0.4973 -0.1852
   41CHL1   H3' 2964   3.868   4.322   3.182 -1.1420 -1.5532  1.3548
   41CHL1    C4 2965   3.906   4.543   3.321  0.5831  0.4712  0.2552
   41CHL1   H4A 2966   3.993   4.482   3.292 -0.9439 -1.3001 -0.8143
   41CHL1   H4B 2967   3.872   4.621   3.249 -3.0100  0.4040  1.6723
   41CHL1    C5 2968   3.919   4.589   3.466  0.0115  0.1195  0.0385
   41CHL1    C6 2969   3.940   4.719   3.493 -1.1548  0.0446 -0.5336
   41CHL1    H6 2970   3.958   4.798   3.418  1.5894 -0.4390 -0.4813
   41CHL1    C7 2971   3.970   4.756   3.637 -0.4551 -0.0875 -0.5334
   41CHL1   H7A 2972   4.062   4.818   3.641  1.9682 -3.4355  1.3592
   41CHL1   H7B 2973   3.882   4.812   3.677 -0.4995 -1.1973  1.0599
   41CHL1    C8 2974   4.025   4.643   3.731 -0.2498  0.0800  0.1555
   41CHL1    H8 2975   4.127   4.624   3.691  0.6002  0.9434  1.7897
   41CHL1   C14 2976   4.027   4.691   3.870  0.9908 -0.1795 -1.1638
   41CHL1   H14 2977   3.922   4.722   3.890  0.7507 -1.3834 -0.4526
   41CHL1   C15 2978   4.105   4.824   3.902  0.3177  0.0840 -0.0947
   41CHL1  H15A 2979   4.210   4.816   3.865  0.7176 -1.1633  1.1995
   41CHL1  H15B 2980   4.048   4.914   3.871  0.2145 -0.2543 -0.9204
   41CHL1   C16 2981   4.113   4.822   4.056 -0.1680 -0.2565  0.5634
   41CHL1  H16A 2982   4.218   4.834   4.090 -0.8992  0.7261  2.6522
   41CHL1  H16B 2983   4.050   4.904   4.097 -1.2192 -0.8380  0.1250
   41CHL1   C17 2984   4.059   4.681   4.108 -0.4266  0.5516 -0.5162
   41CHL1   H17 2985   3.950   4.691   4.129 -0.3543 -2.6809  2.2918
   41CHL1   C13 2986   4.064   4.590   3.981 -1.0385  0.3121  0.3915
   41CHL1   C18 2987   4.209   4.532   3.958 -0.0107  0.5934  0.2864
   41CHL1  H18A 2988   4.272   4.619   3.931  0.7334  0.6635  2.1142
   41CHL1  H18B 2989   4.249   4.488   4.053  0.0059 -0.6934 -0.2935
   41CHL1  H18C 2990   4.214   4.452   3.881  0.5236  0.9735 -0.0778
   41CHL1   C12 2991   3.960   4.475   3.964 -0.8587  0.3638 -0.1161
   41CHL1  H12A 2992   3.980   4.396   4.040  0.3152  1.8029  1.1342
   41CHL1  H12B 2993   3.855   4.503   3.987 -0.5306  0.2300  1.6540
   41CHL1   C11 2994   3.958   4.418   3.822 -0.7107 -0.3503 -0.1482
   41CHL1  H11A 2995   4.055   4.370   3.795  0.7917  2.0316  0.6580
   41CHL1  H11B 2996   3.887   4.333   3.833  0.7852 -1.4250  1.9455
   41CHL1    C9 2997   3.932   4.525   3.714 -0.2949 -0.4530 -0.0622
   41CHL1    H9 2998   3.827   4.555   3.734 -0.5646 -1.8237  0.7474
   41CHL1   C10 2999   3.924   4.475   3.574  0.2663 -0.5487  0.6938
   41CHL1   C19 3000   4.047   4.391   3.535  0.2619  0.4933 -0.8748
   41CHL1  H19A 3001   4.044   4.293   3.589  1.7597  0.9306  0.0614
   41CHL1  H19B 3002   4.046   4.350   3.432 -0.3508 -0.7649 -0.3914
   41CHL1  H19C 3003   4.146   4.431   3.567  0.8730 -1.5290 -0.0286
   41CHL1    C1 3004   3.789   4.397   3.557  0.2674 -0.2844  0.2214
   41CHL1   H1A 3005   3.782   4.314   3.630 -1.2968 -0.9940 -0.6991
   41CHL1   H1B 3006   3.697   4.455   3.577  0.4609 -0.0764  0.5131
   41CHL1    C2 3007   3.780   4.337   3.414  0.4386 -0.3499  0.2625
   41CHL1   H2A 3008   3.688   4.276   3.403  0.8850 -0.5891 -3.1336
   41CHL1   H2B 3009   3.863   4.263   3.408  2.8529  2.1813  0.0327
   41CHL1   C20 3010   4.122   4.633   4.243 -0.3314 -0.7898  0.9754
   41CHL1   H20 3011   4.231   4.610   4.237 -0.7033 -2.8313  1.4880
   41CHL1   C21 3012   4.061   4.511   4.292  0.3551  0.0676 -0.1953
   41CHL1  H21A 3013   3.952   4.525   4.310  0.5722 -0.0841  1.3763
   41CHL1  H21B 3014   4.114   4.477   4.384  1.1510  0.1892 -0.6055
   41CHL1  H21C 3015   4.067   4.431   4.215 -1.3385  1.2778 -1.6694
   41CHL1   C22 3016   4.138   4.745   4.348  0.1373 -0.8922 -0.5248
   41CHL1  H22A 3017   4.184   4.706   4.442  0.5981  1.6527  0.3754
   41CHL1  H22B 3018   4.212   4.811   4.298 -0.1043 -0.3990 -0.2457
   41CHL1   C23 3019   4.017   4.825   4.402  0.0229 -0.3740 -0.3340
   41CHL1  H23A 3020   3.952   4.849   4.315 -0.9601 -0.0647  0.4587
   41CHL1  H23B 3021   3.964   4.756   4.472  1.7897  0.0218  1.4861
   41CHL1   C24 3022   4.066   4.955   4.468  0.1414  0.0488 -0.6174
   41CHL1  H24A 3023   4.118   4.925   4.562 -0.8656  0.0956 -0.0281
   41CHL1  H24B 3024   4.140   5.007   4.404  1.4198  0.2080  0.9117
   41CHL1   C25 3025   3.957   5.045   4.527 -0.4023 -0.1027  0.1974
   41CHL1   H25 3026   3.868   4.986   4.559  0.5358 -0.6861  1.8231
   41CHL1   C26 3027   4.010   5.133   4.645  0.3064  0.4140  0.0566
   41CHL1  H26A 3028   3.933   5.212   4.664 -1.1698 -1.1299  0.7808
   41CHL1  H26B 3029   4.019   5.075   4.739 -0.2631 -0.9074 -0.6667
   41CHL1  H26C 3030   4.114   5.170   4.634  0.4936 -0.5827 -2.2302
   41CHL1   C27 3031   3.929   5.131   4.399  0.3170 -0.1244 -0.1459
   41CHL1  H27A 3032   3.831   5.181   4.415  0.9879  1.0215  0.5176
   41CHL1  H27B 3033   4.011   5.202   4.375  1.3050 -1.4431 -0.8008
   41CHL1  H27C 3034   3.907   5.055   4.321 -1.7558 -1.5657  1.7154
   42CHL1    C3 3035   6.864   6.327   3.166  0.0278  0.0983  0.1702
   42CHL1    H3 3036   6.766   6.275   3.175 -0.7010  1.5464  1.2415
   42CHL1    O3 3037   6.891   6.361   3.032  0.1306  0.1218  0.2244
   42CHL1   H3' 3038   6.979   6.398   3.041 -0.1691  0.4710  2.3089
   42CHL1    C4 3039   6.852   6.463   3.251  0.1238  0.1921 -0.0519
   42CHL1   H4A 3040   6.945   6.523   3.242  0.9712 -0.3916  3.4871
   42CHL1   H4B 3041   6.765   6.509   3.199 -1.1195 -0.2676  1.5409
   42CHL1    C5 3042   6.827   6.425   3.398 -0.1376 -0.2687 -0.5029
   42CHL1    C6 3043   6.719   6.473   3.467  0.1249  0.3246  0.0771
   42CHL1    H6 3044   6.656   6.544   3.411 -1.8679 -0.5728  1.0833
   42CHL1    C7 3045   6.693   6.442   3.611  0.3573 -0.3969  0.3513
   42CHL1   H7A 3046   6.662   6.542   3.647  0.4786  0.0263 -0.6934
   42CHL1   H7B 3047   6.600   6.382   3.627 -1.1673  2.1022  1.5072
   42CHL1    C8 3048   6.813   6.389   3.678  0.0692  0.4695  0.2936
   42CHL1    H8 3049   6.886   6.472   3.689  0.7625 -0.0011 -0.6084
   42CHL1   C14 3050   6.780   6.343   3.821 -0.1233  0.1099 -0.3901
   42CHL1   H14 3051   6.728   6.246   3.804 -0.4045  0.1706  0.1360
   42CHL1   C15 3052   6.685   6.420   3.905  0.1983  0.1345 -0.3710
   42CHL1  H15A 3053   6.711   6.526   3.888  1.6062 -0.1576 -0.1877
   42CHL1  H15B 3054   6.578   6.408   3.875 -0.8308  0.7646  2.7346
   42CHL1   C16 3055   6.716   6.379   4.050 -0.6437 -0.2942  0.3861
   42CHL1  H16A 3056   6.766   6.460   4.107 -0.8035  0.5238 -0.6042
   42CHL1  H16B 3057   6.619   6.351   4.098 -0.9635  2.1923  1.3804
   42CHL1   C17 3058   6.820   6.263   4.040 -0.2842  0.6969 -0.0728
   42CHL1   H17 3059   6.762   6.169   4.027 -0.1338  0.0687  3.0126
   42CHL1   C13 3060   6.892   6.294   3.909 -0.0569 -0.4347 -0.3687
   42CHL1   C18 3061   6.985   6.416   3.937  0.9480 -0.0585 -0.4229
   42CHL1  H18A 3062   7.073   6.363   3.980 -1.1338 -1.4251  2.5028
   42CHL1  H18B 3063   7.013   6.476   3.848 -0.3942 -0.2017 -0.9563
   42CHL1  H18C 3064   6.944   6.494   4.005 -0.6093 -1.1831 -0.0317
   42CHL1   C12 3065   6.960   6.176   3.834  0.5221  0.0696 -0.0386
   42CHL1  H12A 3066   7.052   6.152   3.891  0.7831  1.1172 -0.0054
   42CHL1  H12B 3067   6.900   6.083   3.838 -0.7840  0.7809 -1.7896
   42CHL1   C11 3068   6.996   6.207   3.690 -0.1806  0.2475  0.2909
   42CHL1  H11A 3069   7.081   6.279   3.699 -0.7377  1.1068 -1.0491
   42CHL1  H11B 3070   7.035   6.111   3.650  1.5041 -0.0465  2.4365
   42CHL1    C9 3071   6.885   6.277   3.596  0.0098 -0.5103 -0.1220
   42CHL1    H9 3072   6.807   6.198   3.591 -0.7731  0.2286  0.3617
   42CHL1   C10 3073   6.926   6.324   3.457  0.1370 -0.6551  0.1759
   42CHL1   C19 3074   7.062   6.397   3.482 -0.0449 -0.1041  0.1716
   42CHL1  H19A 3075   7.051   6.474   3.561 -1.2628  0.0052 -0.0784
   42CHL1  H19B 3076   7.144   6.326   3.507  0.2077  0.0151 -0.2975
   42CHL1  H19C 3077   7.104   6.444   3.391  0.8801 -1.6291 -0.2316
   42CHL1    C1 3078   6.950   6.194   3.362 -0.6346 -1.3270  0.1950
   42CHL1   H1A 3079   7.041   6.139   3.397 -0.0471 -0.1729  0.5263
   42CHL1   H1B 3080   6.865   6.123   3.369 -2.4846  0.6585 -0.8545
   42CHL1    C2 3081   6.971   6.242   3.209 -0.4710  0.2934 -0.2062
   42CHL1   H2A 3082   6.987   6.153   3.145  1.5695  2.1706 -2.4684
   42CHL1   H2B 3083   7.065   6.300   3.213  0.0156 -0.5189  2.0146
   42CHL1   C20 3084   6.893   6.255   4.177 -0.2872  0.4130  0.1710
   42CHL1   H20 3085   6.952   6.347   4.198  0.6859 -0.0554 -0.4391
   42CHL1   C21 3086   6.972   6.121   4.176  0.7306 -0.0897  0.6429
   42CHL1  H21A 3087   7.044   6.126   4.091 -0.3247  3.8198 -0.2157
   42CHL1  H21B 3088   6.907   6.032   4.163  1.2310 -0.5170  0.9993
   42CHL1  H21C 3089   7.040   6.116   4.264 -0.7440  1.5862  1.9272
   42CHL1   C22 3090   6.789   6.240   4.295  0.3918  0.0004  0.5537
   42CHL1  H22A 3091   6.738   6.335   4.320 -2.1921 -1.3067  0.5129
   42CHL1  H22B 3092   6.707   6.171   4.266  0.1902 -0.7055  2.6559
   42CHL1   C23 3093   6.845   6.188   4.425 -0.0054  0.7011 -0.0428
   42CHL1  H23A 3094   6.898   6.091   4.421  1.3419  1.4571 -1.7046
   42CHL1  H23B 3095   6.927   6.253   4.462 -0.9927  0.5097  2.7335
   42CHL1   C24 3096   6.738   6.182   4.532  0.0522  0.5547  0.5607
   42CHL1  H24A 3097   6.714   6.286   4.562  2.3670  0.7665  1.8983
   42CHL1  H24B 3098   6.641   6.145   4.492  1.1257 -0.6375 -1.0672
   42CHL1   C25 3099   6.766   6.082   4.644  0.1371 -0.6150 -0.6551
   42CHL1   H25 3100   6.799   5.986   4.600  1.4564 -0.6104  0.2692
   42CHL1   C26 3101   6.880   6.124   4.741 -0.2490  0.6020  0.5833
   42CHL1  H26A 3102   6.900   6.043   4.814 -0.4068 -0.1240 -0.1571
   42CHL1  H26B 3103   6.968   6.160   4.683 -1.6790 -1.3372 -3.1254
   42CHL1  H26C 3104   6.847   6.211   4.801  3.0059  2.7139 -0.3775
   42CHL1   C27 3105   6.645   6.051   4.737  0.2144  0.1938  0.9028
   42CHL1  H27A 3106   6.672   6.051   4.844  2.0636  2.8364  0.5210
   42CHL1  H27B 3107   6.565   6.127   4.725  1.1461  0.8000 -2.9145
   42CHL1  H27C 3108   6.600   5.954   4.706 -0.0609  0.4122  0.5962
   43CHL1    C3 3109   0.559   5.734   6.477  0.2272 -0.9041 -0.4093
   43CHL1    H3 3110   0.629   5.649   6.487 -0.6982 -1.7304 -0.8018
   43CHL1    O3 3111   0.500   5.762   6.610  0.5072 -0.4416  0.8194
   43CHL1   H3' 3112   0.444   5.839   6.601  1.1638 -0.1533 -1.4429
   43CHL1    C4 3113   0.638   5.853   6.431  0.2525 -0.0524 -0.0258
   43CHL1   H4A 3114   0.583   5.948   6.449  2.2276  0.8668  1.7146
   43CHL1   H4B 3115   0.719   5.885   6.501  0.6264  0.3015 -0.6065
   43CHL1    C5 3116   0.678   5.848   6.288 -0.3240 -0.3674  0.3275
   43CHL1    C6 3117   0.811   5.851   6.264 -0.1690  0.1965  0.2087
   43CHL1    H6 3118   0.886   5.878   6.340  0.9608  0.8450 -1.0756
   43CHL1    C7 3119   0.864   5.847   6.123 -0.0407  0.4590 -0.8987
   43CHL1   H7A 3120   0.939   5.930   6.117 -1.6138  1.8906 -1.5787
   43CHL1   H7B 3121   0.911   5.748   6.106 -0.5174  0.1367 -0.3683
   43CHL1    C8 3122   0.757   5.875   6.020 -0.1842  0.1004 -0.0865
   43CHL1    H8 3123   0.729   5.983   6.022  0.6195  0.3108  0.5946
   43CHL1   C14 3124   0.814   5.846   5.882  0.0135 -0.8617 -0.0790
   43CHL1   H14 3125   0.854   5.742   5.874  0.4213 -0.7361  0.2930
   43CHL1   C15 3126   0.932   5.932   5.847 -0.8426  0.0407 -0.3351
   43CHL1  H15A 3127   0.930   6.033   5.892 -0.8120  0.2697 -0.8460
   43CHL1  H15B 3128   1.029   5.883   5.871  0.1012  1.2615 -1.5124
   43CHL1   C16 3129   0.928   5.925   5.695  0.0454  0.4020  0.1724
   43CHL1  H16A 3130   0.925   6.029   5.657  2.1359  0.2596 -0.5436
   43CHL1  H16B 3131   1.026   5.891   5.654  0.4444 -0.2130  1.5546
   43CHL1   C17 3132   0.805   5.844   5.643 -0.2531 -0.3329  0.2248
   43CHL1   H17 3133   0.819   5.734   5.633  0.0298 -0.2168 -0.7751
   43CHL1   C13 3134   0.711   5.864   5.761  0.8049 -0.2070 -0.3219
   43CHL1   C18 3135   0.648   6.011   5.776 -0.3034 -0.2993  0.7487
   43CHL1  H18A 3136   0.570   6.024   5.697 -1.2933 -0.4332  1.6825
   43CHL1  H18B 3137   0.589   6.029   5.869 -1.0237  1.2158  0.0365
   43CHL1  H18C 3138   0.731   6.083   5.758  0.3143 -1.4050 -1.1430
   43CHL1   C12 3139   0.605   5.755   5.783  0.0695  0.1242 -0.6826
   43CHL1  H12A 3140   0.522   5.739   5.711  0.1472  1.2489 -1.0358
   43CHL1  H12B 3141   0.667   5.663   5.782  2.7170  1.7697 -3.1041
   43CHL1   C11 3142   0.540   5.764   5.927 -0.8218 -0.4472  0.6001
   43CHL1  H11A 3143   0.467   5.847   5.920 -2.1539 -1.6741 -0.6764
   43CHL1  H11B 3144   0.487   5.670   5.954  0.4929 -0.9191  1.7092
   43CHL1    C9 3145   0.640   5.777   6.044  0.3755  0.3969 -1.2592
   43CHL1    H9 3146   0.681   5.673   6.044  1.8803  0.9605 -0.2888
   43CHL1   C10 3147   0.571   5.808   6.179 -0.1612  0.2745  0.6069
   43CHL1   C19 3148   0.476   5.923   6.162  1.2440 -0.0710 -0.0727
   43CHL1  H19A 3149   0.499   6.002   6.086 -3.0287 -0.5251 -2.1537
   43CHL1  H19B 3150   0.378   5.880   6.133  0.2830  0.8011  1.7462
   43CHL1  H19C 3151   0.451   5.965   6.262  1.9281  0.7926 -0.2469
   43CHL1    C1 3152   0.503   5.682   6.236 -0.0126  0.3480 -0.3291
   43CHL1   H1A 3153   0.424   5.664   6.160  1.7985  1.5434 -2.6158
   43CHL1   H1B 3154   0.582   5.605   6.249 -0.3335  0.4074  2.8281
   43CHL1    C2 3155   0.448   5.696   6.378  0.2664 -1.2268 -0.3473
   43CHL1   H2A 3156   0.415   5.599   6.422 -2.3876 -0.7087 -1.0365
   43CHL1   H2B 3157   0.357   5.756   6.398  0.4269 -1.7389  2.3189
   43CHL1   C20 3158   0.757   5.897   5.502 -0.1139 -0.2107 -0.6529
   43CHL1   H20 3159   0.740   6.006   5.510  0.6781 -0.1112 -0.2438
   43CHL1   C21 3160   0.626   5.834   5.471 -0.2841  1.0410 -0.5909
   43CHL1  H21A 3161   0.642   5.726   5.490 -0.6161  1.5842  3.8924
   43CHL1  H21B 3162   0.588   5.854   5.369  3.2735  0.3119 -2.2061
   43CHL1  H21C 3163   0.541   5.853   5.541 -0.3328  1.0197 -0.6436
   43CHL1   C22 3164   0.861   5.869   5.392  0.6051 -0.1779 -0.6790
   43CHL1  H22A 3165   0.955   5.881   5.451  0.4375  0.7826 -0.5877
   43CHL1  H22B 3166   0.862   5.762   5.366  0.7916 -0.5923  0.9030
   43CHL1   C23 3167   0.846   5.945   5.257  0.0507  0.0566  0.3960
   43CHL1  H23A 3168   0.815   6.045   5.293 -0.7925 -0.6302  1.6803
   43CHL1  H23B 3169   0.950   5.942   5.217  0.8241 -0.3894  2.3455
   43CHL1   C24 3170   0.746   5.892   5.157 -0.3526  0.4078  0.0942
   43CHL1  H24A 3171   0.706   5.792   5.186 -1.0194 -0.0146 -2.0601
   43CHL1  H24B 3172   0.663   5.965   5.160 -2.1048 -1.4972  1.1094
   43CHL1   C25 3173   0.792   5.905   5.011  0.3856 -0.0759 -0.4766
   43CHL1   H25 3174   0.845   6.000   4.989 -0.1634  0.0929 -1.0936
   43CHL1   C26 3175   0.882   5.794   4.962  0.4765 -0.1474  0.8152
   43CHL1  H26A 3176   0.836   5.693   4.970  1.3660 -0.8369 -1.7537
   43CHL1  H26B 3177   0.914   5.808   4.856  0.0668  0.1070  0.7243
   43CHL1  H26C 3178   0.975   5.791   5.024 -0.5703 -0.0815  2.4486
   43CHL1   C27 3179   0.665   5.897   4.928  0.4364 -0.1374  0.3386
   43CHL1  H27A 3180   0.665   5.900   4.817 -1.4101 -0.3824  0.3006
   43CHL1  H27B 3181   0.598   5.812   4.954  0.7458 -0.8411 -1.0376
   43CHL1  H27C 3182   0.605   5.988   4.947 -0.6448 -0.8038  0.1882
   44CHL1    C3 3183   0.669   2.294   3.755  0.1883  0.9694 -0.0149
   44CHL1    H3 3184   0.776   2.280   3.780  1.3436  2.4723 -3.4792
   44CHL1    O3 3185   0.670   2.259   3.618 -0.1074 -0.0525 -0.0070
   44CHL1   H3' 3186   0.731   2.323   3.580  0.2416  0.1641  0.8831
   44CHL1    C4 3187   0.585   2.195   3.829 -0.7275  0.5475 -0.1452
   44CHL1   H4A 3188   0.487   2.197   3.776 -2.0109 -0.7663  2.0537
   44CHL1   H4B 3189   0.620   2.090   3.818 -1.3373  0.4926 -1.8644
   44CHL1    C5 3190   0.570   2.232   3.973  0.1213  0.1564  0.0589
   44CHL1    C6 3191   0.599   2.142   4.075 -0.8178  0.4506  0.8247
   44CHL1    H6 3192   0.634   2.043   4.042 -2.0327  0.4372 -0.5072
   44CHL1    C7 3193   0.587   2.174   4.220 -0.2566 -0.3661  0.6157
   44CHL1   H7A 3194   0.562   2.085   4.282  0.5928  0.8177  2.7616
   44CHL1   H7B 3195   0.692   2.191   4.251  0.2037  0.2379 -1.1873
   44CHL1    C8 3196   0.497   2.299   4.248 -0.0005 -0.1790  1.3390
   44CHL1    H8 3197   0.391   2.275   4.224  0.6800 -0.4650 -1.9514
   44CHL1   C14 3198   0.533   2.347   4.387 -0.3563 -0.0379 -1.4129
   44CHL1   H14 3199   0.638   2.384   4.392 -0.7103  0.8227  1.7851
   44CHL1   C15 3200   0.524   2.250   4.499 -0.3145  0.7343  0.1145
   44CHL1  H15A 3201   0.437   2.183   4.482  0.4559 -0.3537  0.3184
   44CHL1  H15B 3202   0.621   2.195   4.500  1.1087  3.0441  2.5056
   44CHL1   C16 3203   0.513   2.324   4.637  0.9936  0.2007 -0.1848
   44CHL1  H16A 3204   0.423   2.291   4.694  0.1636  1.7914 -0.5006
   44CHL1  H16B 3205   0.599   2.295   4.700  0.9600  0.0498 -0.2088
   44CHL1   C17 3206   0.495   2.472   4.588  0.8625 -1.4505 -0.0834
   44CHL1   H17 3207   0.597   2.514   4.577  0.4841 -0.5812 -0.3920
   44CHL1   C13 3208   0.450   2.461   4.440  0.0043  0.4787 -0.7605
   44CHL1   C18 3209   0.294   2.417   4.440  0.1891 -0.3228 -0.1309
   44CHL1  H18A 3210   0.263   2.384   4.338  3.8067  1.1178 -1.8683
   44CHL1  H18B 3211   0.266   2.337   4.512  0.7534  0.5820  1.1261
   44CHL1  H18C 3212   0.235   2.507   4.466  0.4127 -0.3179  0.3670
   44CHL1   C12 3213   0.485   2.581   4.349  0.6599 -0.1818  0.5671
   44CHL1  H12A 3214   0.430   2.676   4.363 -0.0308  0.0542 -2.8157
   44CHL1  H12B 3215   0.593   2.605   4.352  0.7562 -0.5790  0.3180
   44CHL1   C11 3216   0.465   2.548   4.196  0.1513 -0.6380 -0.1818
   44CHL1  H11A 3217   0.358   2.533   4.173  0.3258 -1.8423 -0.2633
   44CHL1  H11B 3218   0.509   2.636   4.144  2.5895 -0.8486  1.3591
   44CHL1    C9 3219   0.537   2.416   4.153  0.3831 -0.1604  0.1790
   44CHL1    H9 3220   0.645   2.433   4.174  0.3533  1.1091 -0.5773
   44CHL1   C10 3221   0.530   2.382   4.005  0.5987 -0.1028  0.7305
   44CHL1   C19 3222   0.387   2.404   3.952 -0.1356  0.1026 -0.9063
   44CHL1  H19A 3223   0.379   2.344   3.859  1.6639  2.3162 -2.5923
   44CHL1  H19B 3224   0.311   2.364   4.022  0.5314 -1.7919 -1.2113
   44CHL1  H19C 3225   0.369   2.510   3.926  0.5971  0.6621  0.7229
   44CHL1    C1 3226   0.621   2.479   3.921  0.2793 -0.1582 -0.4424
   44CHL1   H1A 3227   0.581   2.581   3.930  0.8781 -0.0834  2.6049
   44CHL1   H1B 3228   0.726   2.481   3.958  0.3425  0.5151 -0.6499
   44CHL1    C2 3229   0.621   2.438   3.773  0.0707  0.5376  0.2908
   44CHL1   H2A 3230   0.689   2.497   3.709  0.4636 -2.0978 -1.9237
   44CHL1   H2B 3231   0.524   2.454   3.721  1.0234 -0.5884 -1.9449
   44CHL1   C20 3232   0.411   2.558   4.687 -0.4990 -0.0077 -0.3404
   44CHL1   H20 3233   0.313   2.515   4.715  0.0299 -0.5479  0.7124
   44CHL1   C21 3234   0.389   2.700   4.628  0.3764  0.7503 -0.2621
   44CHL1  H21A 3235   0.344   2.769   4.703  1.2676 -0.5141  1.5008
   44CHL1  H21B 3236   0.311   2.686   4.550 -1.9525  0.9989  1.8995
   44CHL1  H21C 3237   0.477   2.761   4.596 -0.5273  2.6692  0.7665
   44CHL1   C22 3238   0.489   2.576   4.818  0.9234 -0.5152 -0.7044
   44CHL1  H22A 3239   0.534   2.481   4.854  0.2160 -1.0031 -1.0921
   44CHL1  H22B 3240   0.575   2.647   4.815  0.5905 -0.0952 -0.3999
   44CHL1   C23 3241   0.403   2.613   4.941  0.0134 -0.4744  0.0343
   44CHL1  H23A 3242   0.349   2.705   4.910  0.4769  0.2050  1.2035
   44CHL1  H23B 3243   0.326   2.534   4.955 -1.3785  0.5585 -1.4377
   44CHL1   C24 3244   0.492   2.634   5.060  1.0495 -0.4795  0.4018
   44CHL1  H24A 3245   0.582   2.570   5.046 -0.0707 -1.6269 -2.2659
   44CHL1  H24B 3246   0.510   2.743   5.071 -2.1111  0.4285 -1.9861
   44CHL1   C25 3247   0.411   2.588   5.186 -0.1206 -0.2934  0.0203
   44CHL1   H25 3248   0.399   2.478   5.182 -0.1947 -0.2477 -1.6711
   44CHL1   C26 3249   0.480   2.637   5.305 -0.6769 -0.6211 -0.0727
   44CHL1  H26A 3250   0.503   2.746   5.302 -1.3291 -0.4344  0.9743
   44CHL1  H26B 3251   0.420   2.630   5.398  0.3301  0.0147  0.6472
   44CHL1  H26C 3252   0.578   2.585   5.311 -0.3971 -0.1640 -0.5937
   44CHL1   C27 3253   0.272   2.643   5.200  0.1367 -0.5771  0.7917
   44CHL1  H27A 3254   0.240   2.629   5.306 -0.5087  1.1824  0.8647
   44CHL1  H27B 3255   0.273   2.753   5.183  0.9613 -0.7465 -0.3647
   44CHL1  H27C 3256   0.203   2.601   5.124  1.3225 -0.7230 -0.2330
   45CHL1    C3 3257   1.479   2.674   3.392  0.3535  0.0460 -0.7137
   45CHL1    H3 3258   1.386   2.734   3.406 -1.6237 -2.5069 -2.0408
   45CHL1    O3 3259   1.513   2.654   3.254  0.5507  0.7816  0.2109
   45CHL1   H3' 3260   1.605   2.678   3.243  1.0382 -0.7184  0.6823
   45CHL1    C4 3261   1.595   2.739   3.456 -0.1268  0.3492  1.1381
   45CHL1   H4A 3262   1.681   2.670   3.438  1.6389  2.6441  0.1540
   45CHL1   H4B 3263   1.612   2.830   3.394 -2.9855  1.1183  1.3748
   45CHL1    C5 3264   1.594   2.771   3.600 -0.1843  0.3269 -0.5017
   45CHL1    C6 3265   1.619   2.896   3.649 -0.0908  0.7550  0.8792
   45CHL1    H6 3266   1.657   2.975   3.583 -0.5228  0.3213  0.0931
   45CHL1    C7 3267   1.589   2.924   3.794  0.2117 -0.4237  1.0834
   45CHL1   H7A 3268   1.676   2.983   3.830 -1.0219  2.3449 -0.1401
   45CHL1   H7B 3269   1.494   2.981   3.804 -0.4193 -0.7648 -1.8761
   45CHL1    C8 3270   1.570   2.806   3.890 -0.0087 -0.2200 -0.1226
   45CHL1    H8 3271   1.677   2.787   3.912  0.4761  2.0243 -0.2961
   45CHL1   C14 3272   1.501   2.854   4.013 -0.0348  0.1322  0.9280
   45CHL1   H14 3273   1.403   2.891   3.975  0.5130 -1.5626 -2.5465
   45CHL1   C15 3274   1.569   2.964   4.094 -0.3565 -0.0562  0.4132
   45CHL1  H15A 3275   1.676   2.933   4.102 -0.2430  0.4868  1.1208
   45CHL1  H15B 3276   1.572   3.063   4.044 -0.1524 -1.0486 -1.6455
   45CHL1   C16 3277   1.498   2.958   4.229  0.5844 -0.3736 -0.1659
   45CHL1  H16A 3278   1.572   2.951   4.311 -1.0663 -1.9189  1.2763
   45CHL1  H16B 3279   1.427   3.042   4.242  1.8830  0.6956  0.2721
   45CHL1   C17 3280   1.411   2.824   4.224 -0.2026  0.0179 -0.3550
   45CHL1   H17 3281   1.307   2.844   4.190 -1.3692 -1.7570  1.8312
   45CHL1   C13 3282   1.471   2.741   4.108  0.2807 -0.5964  0.0806
   45CHL1   C18 3283   1.608   2.682   4.152  0.7098 -0.1345  0.5180
   45CHL1  H18A 3284   1.580   2.595   4.216  0.3426  0.5203  1.2645
   45CHL1  H18B 3285   1.670   2.645   4.068 -0.2177  1.0152 -0.7317
   45CHL1  H18C 3286   1.672   2.749   4.214  0.7936  0.7325 -0.4873
   45CHL1   C12 3287   1.379   2.636   4.044  0.4079 -0.6047  0.2730
   45CHL1  H12A 3288   1.358   2.552   4.114 -1.9118 -0.7468 -0.4986
   45CHL1  H12B 3289   1.287   2.696   4.027  0.7573 -0.2268 -0.3535
   45CHL1   C11 3290   1.431   2.584   3.907 -0.0440  0.6489  0.0551
   45CHL1  H11A 3291   1.500   2.502   3.937 -0.8993 -0.4547 -0.9012
   45CHL1  H11B 3292   1.346   2.535   3.856  0.1729  0.8818 -0.5307
   45CHL1    C9 3293   1.480   2.705   3.822 -0.2972  0.3274  0.2171
   45CHL1    H9 3294   1.384   2.759   3.805  0.7796  1.7619 -1.8329
   45CHL1   C10 3295   1.541   2.661   3.688 -0.0934 -0.0838  0.3059
   45CHL1   C19 3296   1.660   2.569   3.716  0.7140  0.3243  0.0405
   45CHL1  H19A 3297   1.639   2.461   3.730 -1.7479  0.1264 -3.6212
   45CHL1  H19B 3298   1.720   2.561   3.623  1.0011  1.9557  0.0454
   45CHL1  H19C 3299   1.729   2.606   3.795 -0.0683  1.3641  0.2648
   45CHL1    C1 3300   1.433   2.578   3.610  0.4246 -0.4374  0.1675
   45CHL1   H1A 3301   1.411   2.479   3.655 -0.2558  0.0340  0.8983
   45CHL1   H1B 3302   1.341   2.641   3.610  0.6544  0.0332  2.6993
   45CHL1    C2 3303   1.462   2.542   3.457 -0.1263 -0.0447 -0.0842
   45CHL1   H2A 3304   1.375   2.500   3.403  0.4278  2.0941 -2.8702
   45CHL1   H2B 3305   1.537   2.462   3.469  1.0998  0.9725 -0.7445
   45CHL1   C20 3306   1.396   2.755   4.359 -0.1725 -0.3638 -0.6934
   45CHL1   H20 3307   1.494   2.714   4.390  0.0581  1.2408  0.8652
   45CHL1   C21 3308   1.287   2.647   4.357 -0.5348  0.0588 -0.8193
   45CHL1  H21A 3309   1.188   2.666   4.312 -0.6694 -0.6212 -0.8331
   45CHL1  H21B 3310   1.263   2.620   4.463  1.0127  0.7581 -0.2654
   45CHL1  H21C 3311   1.333   2.559   4.307  2.5363  1.6497 -1.0010
   45CHL1   C22 3312   1.346   2.861   4.467  0.2486  0.7427  0.3917
   45CHL1  H22A 3313   1.389   2.963   4.452  0.4084  0.5297 -0.6241
   45CHL1  H22B 3314   1.236   2.873   4.455  0.0654 -0.7578  0.4354
   45CHL1   C23 3315   1.393   2.811   4.608 -0.0627 -0.2131  0.0985
   45CHL1  H23A 3316   1.353   2.708   4.621  0.9072 -0.7008 -0.6519
   45CHL1  H23B 3317   1.504   2.813   4.605 -0.0219 -0.0722  1.3742
   45CHL1   C24 3318   1.354   2.904   4.725  0.2802 -0.9285  0.3307
   45CHL1  H24A 3319   1.412   2.997   4.711 -1.6842  0.0481 -2.0306
   45CHL1  H24B 3320   1.246   2.929   4.731  0.8268  1.7212  0.1302
   45CHL1   C25 3321   1.394   2.849   4.864 -0.5410 -0.1630  0.2998
   45CHL1   H25 3322   1.328   2.767   4.897 -1.3861  1.1145  1.9209
   45CHL1   C26 3323   1.541   2.796   4.868 -0.0172 -0.0600 -0.6635
   45CHL1  H26A 3324   1.549   2.709   4.799 -1.3786 -0.3828 -0.4315
   45CHL1  H26B 3325   1.608   2.877   4.831  2.4089 -2.1182 -1.0886
   45CHL1  H26C 3326   1.563   2.775   4.975 -0.8885  0.1148 -0.4453
   45CHL1   C27 3327   1.369   2.956   4.963 -0.1204  0.5328 -0.0227
   45CHL1  H27A 3328   1.397   2.916   5.063 -0.1811  1.0037  0.1859
   45CHL1  H27B 3329   1.413   3.053   4.930 -0.8703  1.3032  1.1622
   45CHL1  H27C 3330   1.260   2.976   4.956 -0.4348 -0.3295  1.6608
   46CHL1    C3 3331   3.779   5.874   3.311  0.3265 -0.3965  0.6369
   46CHL1    H3 3332   3.850   5.958   3.292  0.5075 -0.4932  0.8781
   46CHL1    O3 3333   3.729   5.822   3.185 -0.8857 -0.0748 -0.4527
   46CHL1   H3' 3334   3.670   5.890   3.152 -1.2412 -1.0601 -1.9203
   46CHL1    C4 3335   3.852   5.766   3.382 -0.7250 -0.1762  0.0485
   46CHL1   H4A 3336   3.790   5.676   3.399  1.0471 -1.7646 -1.4308
   46CHL1   H4B 3337   3.940   5.732   3.323 -0.8513  3.7122 -2.7746
   46CHL1    C5 3338   3.895   5.822   3.521  0.3625  0.4151  0.1453
   46CHL1    C6 3339   4.022   5.829   3.551  0.2072 -0.0882  0.5335
   46CHL1    H6 3340   4.101   5.796   3.482 -0.6114  0.7482 -0.8441
   46CHL1    C7 3341   4.071   5.879   3.683  0.3012 -0.5889 -0.4254
   46CHL1   H7A 3342   4.153   5.815   3.722  1.1280  0.6832 -0.0267
   46CHL1   H7B 3343   4.111   5.982   3.673 -0.6235 -0.3232 -1.7205
   46CHL1    C8 3344   3.957   5.893   3.781 -0.5235 -0.3427  0.4049
   46CHL1    H8 3345   3.925   5.791   3.812  1.0353 -1.0339 -0.1934
   46CHL1   C14 3346   3.994   5.973   3.900 -0.2261 -0.3663  0.4063
   46CHL1   H14 3347   4.012   6.078   3.868 -1.0488 -0.3661 -0.0767
   46CHL1   C15 3348   4.133   5.933   3.965  0.0954  0.3884  0.7534
   46CHL1  H15A 3349   4.154   5.829   3.933  0.4364  0.6616  0.0514
   46CHL1  H15B 3350   4.211   6.000   3.922 -0.2124  0.3966  0.1877
   46CHL1   C16 3351   4.110   5.955   4.114 -0.7153  0.4562 -0.0083
   46CHL1  H16A 3352   4.113   5.852   4.156  1.9922 -0.2342 -1.6904
   46CHL1  H16B 3353   4.195   6.017   4.150 -0.6427  1.7767 -2.2716
   46CHL1   C17 3354   3.968   6.020   4.142  0.6168  0.4085  0.4987
   46CHL1   H17 3355   3.990   6.129   4.141  1.7133  0.2013 -0.8555
   46CHL1   C13 3356   3.889   5.976   4.013  0.0029 -0.1619 -0.6527
   46CHL1   C18 3357   3.825   5.836   4.037  0.1268 -0.0415 -0.3371
   46CHL1  H18A 3358   3.785   5.782   3.949 -1.1937 -1.1078  0.8811
   46CHL1  H18B 3359   3.895   5.761   4.081  0.3885 -0.4552 -1.4204
   46CHL1  H18C 3360   3.741   5.858   4.106 -0.6042  0.4850 -1.3632
   46CHL1   C12 3361   3.786   6.077   3.951  0.1506  0.0289 -0.3260
   46CHL1  H12A 3362   3.698   6.100   4.015  0.6148 -1.2983  0.8464
   46CHL1  H12B 3363   3.837   6.175   3.938  2.7452 -1.0577  0.9712
   46CHL1   C11 3364   3.734   6.012   3.818 -0.7152  0.1055 -0.8087
   46CHL1  H11A 3365   3.656   5.938   3.844  1.4780 -1.9970  0.2143
   46CHL1  H11B 3366   3.677   6.096   3.771 -0.8883  0.1626 -0.5002
   46CHL1    C9 3367   3.839   5.966   3.719 -0.5466 -0.0702  0.6221
   46CHL1    H9 3368   3.878   6.060   3.673 -2.4754  0.3465 -0.2623
   46CHL1   C10 3369   3.778   5.886   3.597 -0.4192  0.3512 -0.0953
   46CHL1   C19 3370   3.688   5.777   3.648  0.3997 -0.6319  0.2921
   46CHL1  H19A 3371   3.599   5.826   3.692 -0.3734  0.8821 -2.6698
   46CHL1  H19B 3372   3.644   5.720   3.563  0.2967 -0.6251  0.3407
   46CHL1  H19C 3373   3.741   5.711   3.720 -0.1116 -1.5504 -0.1503
   46CHL1    C1 3374   3.700   5.989   3.515  0.1436 -0.4790 -0.0064
   46CHL1   H1A 3375   3.611   6.019   3.574  0.2610 -0.0080 -0.0624
   46CHL1   H1B 3376   3.760   6.082   3.505 -1.0618  0.5500  1.6382
   46CHL1    C2 3377   3.657   5.929   3.382 -0.1374  0.4296  0.6422
   46CHL1   H2A 3378   3.614   6.016   3.330  1.1906 -0.5900 -2.3815
   46CHL1   H2B 3379   3.588   5.844   3.402  1.6098 -1.3042 -0.3042
   46CHL1   C20 3380   3.903   5.981   4.284  0.6729  0.4124  0.1202
   46CHL1   H20 3381   3.875   5.873   4.276 -1.5407  0.7796  1.8260
   46CHL1   C21 3382   3.765   6.052   4.304 -0.7117 -0.5026  0.1613
   46CHL1  H21A 3383   3.694   6.045   4.219 -0.8734  2.2302 -0.0323
   46CHL1  H21B 3384   3.783   6.157   4.334  0.0037 -0.4129 -0.5608
   46CHL1  H21C 3385   3.717   6.001   4.390 -2.1904  0.5325 -0.0143
   46CHL1   C22 3386   4.006   5.995   4.403  0.6905 -0.4401  0.0170
   46CHL1  H22A 3387   4.090   5.922   4.395  0.6390 -0.4358 -0.5782
   46CHL1  H22B 3388   4.053   6.096   4.408  0.3104 -0.3194  1.8671
   46CHL1   C23 3389   3.946   5.962   4.544 -0.4611  0.0616 -0.1281
   46CHL1  H23A 3390   3.864   6.033   4.568  0.0714  1.4543 -2.1352
   46CHL1  H23B 3391   3.903   5.860   4.533  2.4823 -1.2138 -0.8815
   46CHL1   C24 3392   4.060   5.965   4.645 -0.0417 -0.1602  0.2022
   46CHL1  H24A 3393   4.128   5.880   4.619 -2.4595 -1.3832 -2.6862
   46CHL1  H24B 3394   4.120   6.058   4.640 -0.1922 -0.0419  0.5992
   46CHL1   C25 3395   4.021   5.944   4.798 -0.7735 -0.8866  0.0871
   46CHL1   H25 3396   3.960   5.851   4.804 -2.3115  0.0563 -0.4631
   46CHL1   C26 3397   4.145   5.911   4.885 -0.7440 -0.2291 -0.0317
   46CHL1  H26A 3398   4.231   5.982   4.884 -0.4159 -0.6254 -0.8023
   46CHL1  H26B 3399   4.111   5.898   4.990  0.8183  3.0172  1.0012
   46CHL1  H26C 3400   4.183   5.811   4.855 -1.4948 -1.8035  3.7299
   46CHL1   C27 3401   3.932   6.051   4.848 -0.4123 -0.4318 -0.4202
   46CHL1  H27A 3402   3.991   6.144   4.867 -1.1908  0.4710 -2.1537
   46CHL1  H27B 3403   3.851   6.086   4.780 -3.2438 -1.8971  1.9700
   46CHL1  H27C 3404   3.886   6.028   4.946  1.9982 -0.2099  0.8296
   47CHL1    C3 3405   4.691   6.310   3.281 -0.0416  0.1115  0.0912
   47CHL1    H3 3406   4.800   6.331   3.275  0.0823 -0.7817 -2.9234
   47CHL1    O3 3407   4.637   6.263   3.158 -0.6255  0.3458  0.0224
   47CHL1   H3' 3408   4.547   6.238   3.183 -0.8767 -1.3439 -2.2396
   47CHL1    C4 3409   4.674   6.200   3.390 -0.0427  0.9438 -0.4137
   47CHL1   H4A 3410   4.575   6.150   3.396 -0.3816  1.4810 -1.2759
   47CHL1   H4B 3411   4.748   6.121   3.363 -0.4706  0.1589  0.6467
   47CHL1    C5 3412   4.707   6.246   3.529 -0.2533  0.4749  0.2678
   47CHL1    C6 3413   4.791   6.174   3.604 -0.1999 -0.3778 -1.1075
   47CHL1    H6 3414   4.832   6.085   3.554  0.8098 -0.2537 -0.5164
   47CHL1    C7 3415   4.850   6.221   3.732  0.5271 -0.7458  0.2731
   47CHL1   H7A 3416   4.861   6.143   3.810 -1.1357 -2.4903 -1.1467
   47CHL1   H7B 3417   4.949   6.270   3.716 -0.7908  2.1820  0.4800
   47CHL1    C8 3418   4.755   6.319   3.805 -0.9282  0.5939  0.1512
   47CHL1    H8 3419   4.668   6.264   3.846 -1.4164 -0.5286 -2.2788
   47CHL1   C14 3420   4.820   6.389   3.925 -0.1721  0.3814  0.0647
   47CHL1   H14 3421   4.905   6.444   3.879  0.1793  1.9741  2.4379
   47CHL1   C15 3422   4.862   6.299   4.037  0.3646  0.5744 -0.6679
   47CHL1  H15A 3423   4.794   6.219   4.073  0.1706  0.9268 -0.2366
   47CHL1  H15B 3424   4.957   6.247   4.012  1.0667 -0.6063  3.7015
   47CHL1   C16 3425   4.904   6.397   4.142  0.3602  0.1853  0.2208
   47CHL1  H16A 3426   4.866   6.358   4.239  0.7873 -0.2808  0.2083
   47CHL1  H16B 3427   5.014   6.416   4.142  0.7060 -1.5847  0.6680
   47CHL1   C17 3428   4.829   6.526   4.114 -0.4128 -0.1685 -0.3988
   47CHL1   H17 3429   4.903   6.603   4.083  0.5003  0.1768  2.3901
   47CHL1   C13 3430   4.733   6.493   3.997 -0.1199  0.5185 -0.2893
   47CHL1   C18 3431   4.609   6.423   4.062  0.6868 -0.1329 -0.1370
   47CHL1  H18A 3432   4.535   6.500   4.093 -0.8889 -1.1792 -1.1916
   47CHL1  H18B 3433   4.565   6.362   3.981 -0.2459 -0.3892  0.5489
   47CHL1  H18C 3434   4.634   6.357   4.148  0.4480 -0.1368 -0.0714
   47CHL1   C12 3435   4.696   6.603   3.904  0.1290  0.6590 -0.4724
   47CHL1  H12A 3436   4.627   6.679   3.946 -0.4229  0.6296 -1.2894
   47CHL1  H12B 3437   4.794   6.652   3.881  1.2550 -0.8743  0.8140
   47CHL1   C11 3438   4.636   6.556   3.774 -0.1064  0.6886  0.0393
   47CHL1  H11A 3439   4.539   6.503   3.791 -1.6582  2.8567 -1.5002
   47CHL1  H11B 3440   4.609   6.643   3.710 -1.0502  1.5529  1.5449
   47CHL1    C9 3441   4.715   6.432   3.701  0.4505  0.2189 -0.3985
   47CHL1    H9 3442   4.811   6.472   3.662  0.4648  0.7233  0.1388
   47CHL1   C10 3443   4.647   6.381   3.573  0.1589 -0.3395  0.3423
   47CHL1   C19 3444   4.499   6.351   3.595 -0.6293 -0.1144  0.1668
   47CHL1  H19A 3445   4.433   6.440   3.601 -0.4086  0.1378 -0.9473
   47CHL1  H19B 3446   4.457   6.299   3.507 -2.3068  0.0630  0.8291
   47CHL1  H19C 3447   4.478   6.286   3.683  0.9472 -1.3787 -0.3390
   47CHL1    C1 3448   4.674   6.488   3.459 -0.5096  0.5980  0.3561
   47CHL1   H1A 3449   4.615   6.580   3.480 -0.7159  0.4305  0.5175
   47CHL1   H1B 3450   4.782   6.513   3.450  0.5243 -3.1033  1.0557
   47CHL1    C2 3451   4.630   6.444   3.318  0.0030 -0.6635 -0.2289
   47CHL1   H2A 3452   4.648   6.516   3.235 -0.6691 -2.2420 -1.8046
   47CHL1   H2B 3453   4.519   6.437   3.317  0.0566 -2.0322 -2.0001
   47CHL1   C20 3454   4.768   6.599   4.235 -0.0303  0.1865  0.3255
   47CHL1   H20 3455   4.698   6.529   4.285 -0.8205 -0.9108 -2.2046
   47CHL1   C21 3456   4.686   6.725   4.189 -0.5252  0.1670  0.3753
   47CHL1  H21A 3457   4.758   6.777   4.122 -2.1012 -0.0907 -1.5922
   47CHL1  H21B 3458   4.662   6.792   4.275 -1.6173  0.9370 -0.5037
   47CHL1  H21C 3459   4.595   6.694   4.133  0.2349  2.3293 -2.2945
   47CHL1   C22 3460   4.862   6.634   4.351 -0.2731  0.1483  0.3969
   47CHL1  H22A 3461   4.917   6.539   4.368 -0.8775 -0.8522 -2.6173
   47CHL1  H22B 3462   4.937   6.701   4.306  3.9166 -3.9097  0.5861
   47CHL1   C23 3463   4.806   6.680   4.486 -0.5015 -0.0184  0.0743
   47CHL1  H23A 3464   4.718   6.741   4.458 -1.1843 -1.9303 -2.3464
   47CHL1  H23B 3465   4.776   6.586   4.537  2.3695  0.1124  2.3110
   47CHL1   C24 3466   4.928   6.745   4.567 -0.0273  0.1471  0.7010
   47CHL1  H24A 3467   4.993   6.658   4.588  0.7962  0.7895  0.8864
   47CHL1  H24B 3468   4.986   6.813   4.500 -2.4595 -0.7097 -2.5234
   47CHL1   C25 3469   4.886   6.814   4.697  1.2544 -0.4962  0.3332
   47CHL1   H25 3470   4.819   6.894   4.658  1.6347 -0.6718 -0.7115
   47CHL1   C26 3471   4.795   6.713   4.781  0.2958  0.2320  0.1631
   47CHL1  H26A 3472   4.863   6.627   4.799  0.2319  0.1650  0.0830
   47CHL1  H26B 3473   4.766   6.760   4.877 -0.1954  2.1497 -0.8736
   47CHL1  H26C 3474   4.704   6.685   4.725  0.2882 -0.5149  0.5376
   47CHL1   C27 3475   4.997   6.877   4.776 -0.1526 -0.2202  0.5939
   47CHL1  H27A 3476   5.080   6.804   4.766 -1.4050 -1.4282 -1.7984
   47CHL1  H27B 3477   5.047   6.966   4.731  0.8338 -1.0956 -0.1014
   47CHL1  H27C 3478   4.985   6.905   4.883 -0.1897  2.0574  0.0488
   48CHL1    C3 3479   2.941   1.174   3.366  0.7303  0.4213  0.0849
   48CHL1    H3 3480   2.968   1.090   3.433 -1.8193 -0.5639  0.0085
   48CHL1    O3 3481   2.956   1.132   3.232 -0.6925  0.0852 -0.0020
   48CHL1   H3' 3482   2.867   1.117   3.199 -0.6181 -2.7542  0.8028
   48CHL1    C4 3483   2.799   1.218   3.389 -0.2550 -0.0626 -0.7500
   48CHL1   H4A 3484   2.773   1.294   3.312  1.0143  0.2495 -0.8913
   48CHL1   H4B 3485   2.731   1.133   3.369  0.3647 -0.6215 -0.5226
   48CHL1    C5 3486   2.764   1.270   3.530  0.1932 -0.0219  0.1912
   48CHL1    C6 3487   2.662   1.212   3.605 -0.3547  0.0394  0.1916
   48CHL1    H6 3488   2.610   1.130   3.554  0.1169  0.1556 -0.4898
   48CHL1    C7 3489   2.628   1.257   3.744  0.1004 -0.2501  0.1640
   48CHL1   H7A 3490   2.522   1.288   3.755  0.4102  1.8612 -2.0214
   48CHL1   H7B 3491   2.648   1.172   3.813 -2.3628 -2.6562 -1.8372
   48CHL1    C8 3492   2.705   1.380   3.798 -0.4381  0.1954 -0.2428
   48CHL1    H8 3493   2.645   1.471   3.776  0.9107  1.8573  2.4006
   48CHL1   C14 3494   2.728   1.383   3.949  0.9098  0.0087  0.0026
   48CHL1   H14 3495   2.799   1.302   3.976  2.9724  1.6788 -0.1810
   48CHL1   C15 3496   2.605   1.369   4.041 -0.9481 -0.1798 -0.1605
   48CHL1  H15A 3497   2.519   1.432   4.009 -0.8221 -1.6114 -3.6976
   48CHL1  H15B 3498   2.583   1.261   4.055 -0.6523 -0.1008  1.0505
   48CHL1   C16 3499   2.656   1.418   4.182  0.8026  0.0803  0.4554
   48CHL1  H16A 3500   2.580   1.487   4.225  1.0464 -0.6012  2.0523
   48CHL1  H16B 3501   2.672   1.338   4.258 -1.0446 -0.2366  0.5620
   48CHL1   C17 3502   2.784   1.499   4.157 -0.3015  0.2333  0.7462
   48CHL1   H17 3503   2.871   1.430   4.160 -0.0963  0.3060 -1.6921
   48CHL1   C13 3504   2.786   1.517   3.999  0.1087  0.5531  0.5688
   48CHL1   C18 3505   2.696   1.638   3.960  0.0963  0.8915 -0.0361
   48CHL1  H18A 3506   2.682   1.638   3.849  1.2150  2.3769 -0.2021
   48CHL1  H18B 3507   2.598   1.633   4.011  1.0098  4.2663  2.3549
   48CHL1  H18C 3508   2.740   1.737   3.983 -1.6162  1.8127 -0.5291
   48CHL1   C12 3509   2.921   1.536   3.941 -0.1859 -0.3679  0.2054
   48CHL1  H12A 3510   2.958   1.635   3.974  0.8722 -1.5878  3.0512
   48CHL1  H12B 3511   2.982   1.457   3.990  0.6531  0.5591  0.6925
   48CHL1   C11 3512   2.917   1.521   3.785  0.5659  0.0136 -0.8944
   48CHL1  H11A 3513   2.887   1.615   3.735  1.9053  0.0504 -1.6772
   48CHL1  H11B 3514   3.024   1.515   3.753  1.0742 -0.5218  0.8027
   48CHL1    C9 3515   2.848   1.392   3.732 -0.0009 -0.3453  0.2469
   48CHL1    H9 3516   2.912   1.312   3.773 -1.9863 -1.7365  0.8145
   48CHL1   C10 3517   2.866   1.371   3.580  0.9286 -1.0591 -0.0424
   48CHL1   C19 3518   2.840   1.509   3.508 -0.3834  0.1388 -0.3460
   48CHL1  H19A 3519   2.829   1.498   3.398  0.1374 -1.5159 -0.2664
   48CHL1  H19B 3520   2.745   1.560   3.535 -0.7325 -0.8177  0.2934
   48CHL1  H19C 3521   2.918   1.586   3.525 -2.2557  1.9344  0.4554
   48CHL1    C1 3522   3.012   1.322   3.544  0.3775 -0.3429 -0.2355
   48CHL1   H1A 3523   3.077   1.410   3.566  0.1667 -0.1982 -0.1948
   48CHL1   H1B 3524   3.042   1.230   3.598 -2.3495 -1.9773 -1.3144
   48CHL1    C2 3525   3.031   1.294   3.385 -0.0791 -0.6077 -0.6776
   48CHL1   H2A 3526   3.135   1.259   3.369 -0.4477 -1.4101 -1.3919
   48CHL1   H2B 3527   3.007   1.380   3.319 -0.4295 -2.4227 -3.0252
   48CHL1   C20 3528   2.814   1.610   4.265 -0.5243 -0.7655 -0.5254
   48CHL1   H20 3529   2.914   1.657   4.251 -0.4852 -0.0163  1.8830
   48CHL1   C21 3530   2.843   1.543   4.395  0.7042  0.9971 -0.6017
   48CHL1  H21A 3531   2.748   1.504   4.436  0.1441 -0.4516 -3.0350
   48CHL1  H21B 3532   2.866   1.618   4.473 -2.7967  2.7786 -1.0566
   48CHL1  H21C 3533   2.899   1.447   4.392 -2.1105 -0.7835  0.1493
   48CHL1   C22 3534   2.704   1.705   4.291  0.1132 -0.9741  0.1941
   48CHL1  H22A 3535   2.651   1.714   4.194  0.7094 -1.1099 -0.1496
   48CHL1  H22B 3536   2.628   1.663   4.361 -1.0011 -0.1271 -0.4849
   48CHL1   C23 3537   2.752   1.844   4.350  0.2231 -0.4072  0.1797
   48CHL1  H23A 3538   2.660   1.885   4.399  1.0762  0.3280  1.2100
   48CHL1  H23B 3539   2.821   1.826   4.435 -0.9595 -0.0778  1.2474
   48CHL1   C24 3540   2.817   1.928   4.245 -0.4574  0.4647 -0.0040
   48CHL1  H24A 3541   2.903   1.871   4.203  0.7594  1.4017  1.1081
   48CHL1  H24B 3542   2.749   1.921   4.158 -1.1838 -2.3304  0.6970
   48CHL1   C25 3543   2.857   2.071   4.273 -0.1137  0.1091  0.9600
   48CHL1   H25 3544   2.900   2.085   4.375  0.2689  3.3272  0.4622
   48CHL1   C26 3545   2.960   2.103   4.165 -0.6854 -0.1019  0.2950
   48CHL1  H26A 3546   2.920   2.090   4.062 -0.5668  0.4623  0.1754
   48CHL1  H26B 3547   2.981   2.211   4.156 -2.4879  0.0822 -3.8752
   48CHL1  H26C 3548   3.059   2.052   4.176  1.7717  3.9724 -0.7021
   48CHL1   C27 3549   2.733   2.162   4.261 -0.5190 -0.6900 -0.9878
   48CHL1  H27A 3550   2.747   2.266   4.298 -3.1674 -1.0864  1.4497
   48CHL1  H27B 3551   2.699   2.159   4.156  1.4996  1.8611 -1.8374
   48CHL1  H27C 3552   2.657   2.123   4.331  1.2662 -0.2349  1.3485
   49CHL1    C3 3553   0.783   3.627   3.274 -0.0415 -0.0036 -0.3763
   49CHL1    H3 3554   0.717   3.544   3.304 -0.1010  0.4538  0.8281
   49CHL1    O3 3555   0.795   3.634   3.132  0.3549  0.6021 -0.9401
   49CHL1   H3' 3556   0.887   3.613   3.116  0.6556  0.4932  0.7233
   49CHL1    C4 3557   0.718   3.752   3.338 -0.5567  0.4724 -1.2332
   49CHL1   H4A 3558   0.784   3.837   3.311  2.5876 -2.0016 -2.0687
   49CHL1   H4B 3559   0.615   3.764   3.300 -1.6528 -1.1412  1.0093
   49CHL1    C5 3560   0.727   3.737   3.491  0.3363  0.5255 -0.5235
   49CHL1    C6 3561   0.608   3.755   3.560  0.8325  0.2732 -0.4086
   49CHL1    H6 3562   0.517   3.766   3.499 -0.9586 -0.5004  1.9888
   49CHL1    C7 3563   0.595   3.739   3.713 -0.2649  0.1378  0.4021
   49CHL1   H7A 3564   0.521   3.816   3.746  0.8316  1.0114  0.9013
   49CHL1   H7B 3565   0.548   3.644   3.744 -0.9000  0.7975  1.5396
   49CHL1    C8 3566   0.731   3.763   3.779  0.2100  0.3697 -0.9195
   49CHL1    H8 3567   0.762   3.869   3.777 -1.2944  1.0863  3.3813
   49CHL1   C14 3568   0.717   3.725   3.928  0.4608 -0.6612 -0.1992
   49CHL1   H14 3569   0.681   3.620   3.928  0.8052 -0.7877 -0.8355
   49CHL1   C15 3570   0.614   3.801   4.015  0.0967 -0.9581  0.6310
   49CHL1  H15A 3571   0.628   3.908   3.989 -2.8571 -0.7171 -0.3416
   49CHL1  H15B 3572   0.512   3.760   4.004 -0.9569  0.9389  2.6203
   49CHL1   C16 3573   0.657   3.775   4.164 -0.2358 -0.0259  0.2927
   49CHL1  H16A 3574   0.664   3.869   4.222  0.0935 -1.5016  2.7737
   49CHL1  H16B 3575   0.584   3.718   4.226 -1.9067 -0.3499 -1.8411
   49CHL1   C17 3576   0.795   3.705   4.154  0.0386  0.4721  0.4998
   49CHL1   H17 3577   0.773   3.596   4.156  0.2065  0.4135 -0.3128
   49CHL1   C13 3578   0.840   3.734   4.010 -0.6010 -0.4279  0.0861
   49CHL1   C18 3579   0.907   3.879   3.992  0.4943 -0.5102 -1.1241
   49CHL1  H18A 3580   0.918   3.904   3.885 -1.4710  1.7749 -0.8718
   49CHL1  H18B 3581   0.848   3.952   4.051 -0.8553 -1.9120 -0.6861
   49CHL1  H18C 3582   1.008   3.887   4.038 -0.1365 -0.0051  0.2524
   49CHL1   C12 3583   0.947   3.633   3.950  0.2295 -0.3682  0.0421
   49CHL1  H12A 3584   1.040   3.630   4.010 -0.0950 -1.3647  0.5247
   49CHL1  H12B 3585   0.904   3.530   3.950 -2.5990  0.7277 -0.2833
   49CHL1   C11 3586   0.972   3.649   3.797 -0.1255 -0.1500 -0.6469
   49CHL1  H11A 3587   1.028   3.744   3.798  2.0785 -1.2458  3.3590
   49CHL1  H11B 3588   1.029   3.564   3.754 -0.6909 -1.4380  1.0142
   49CHL1    C9 3589   0.833   3.669   3.710 -1.0427  0.0897  0.2905
   49CHL1    H9 3590   0.788   3.567   3.702 -1.7147  0.3675  0.4288
   49CHL1   C10 3591   0.861   3.716   3.564 -0.1755  0.3628 -0.0452
   49CHL1   C19 3592   0.943   3.854   3.563  0.8038  0.6820 -0.5083
   49CHL1  H19A 3593   1.046   3.839   3.601  0.8930  2.0079 -0.1743
   49CHL1  H19B 3594   0.933   3.887   3.457  0.9078  0.8334 -0.4711
   49CHL1  H19C 3595   0.892   3.925   3.632 -0.9789 -2.4270  1.6164
   49CHL1    C1 3596   0.929   3.604   3.483  0.1568 -0.5367 -0.2997
   49CHL1   H1A 3597   1.031   3.593   3.526 -1.3019 -1.4432  3.2603
   49CHL1   H1B 3598   0.894   3.504   3.517  2.8963 -1.6481 -0.4956
   49CHL1    C2 3599   0.923   3.603   3.331 -0.3275  0.4097  0.8036
   49CHL1   H2A 3600   0.950   3.499   3.303  2.8112  1.1814  0.5466
   49CHL1   H2B 3601   1.003   3.665   3.285  0.2214 -0.6087  0.3534
   49CHL1   C20 3602   0.883   3.749   4.275 -0.2517  0.6790  0.8188
   49CHL1   H20 3603   0.900   3.856   4.252 -0.9785  0.6423  0.0511
   49CHL1   C21 3604   1.022   3.680   4.275  0.4226 -0.1073  0.1852
   49CHL1  H21A 3605   1.079   3.708   4.367  1.4961 -0.9838 -0.1967
   49CHL1  H21B 3606   1.084   3.704   4.186 -3.0403 -0.3314 -2.4717
   49CHL1  H21C 3607   1.010   3.572   4.295 -0.1507 -0.0761  0.0205
   49CHL1   C22 3608   0.809   3.741   4.414  0.1142  0.1437 -0.2826
   49CHL1  H22A 3609   0.885   3.769   4.490 -0.1246 -2.9502  1.2457
   49CHL1  H22B 3610   0.732   3.821   4.420 -0.7007 -0.6807  0.6418
   49CHL1   C23 3611   0.751   3.603   4.444  0.0035  0.0704 -0.0516
   49CHL1  H23A 3612   0.675   3.571   4.369  1.4415 -0.5240 -1.3165
   49CHL1  H23B 3613   0.833   3.529   4.434 -0.3515 -0.3150 -0.1748
   49CHL1   C24 3614   0.698   3.614   4.588  0.0493 -0.5181  0.0324
   49CHL1  H24A 3615   0.771   3.649   4.664  0.9455  1.7433 -1.7491
   49CHL1  H24B 3616   0.618   3.690   4.595  2.7458  2.5454 -0.2440
   49CHL1   C25 3617   0.645   3.481   4.645 -0.2730  0.1008  0.1752
   49CHL1   H25 3618   0.564   3.440   4.581 -0.2791  1.7887 -0.9642
   49CHL1   C26 3619   0.758   3.382   4.663 -0.1745  0.4476  0.5747
   49CHL1  H26A 3620   0.733   3.284   4.708  0.0148  0.0028 -0.2745
   49CHL1  H26B 3621   0.782   3.354   4.558 -3.2133 -1.0256  0.1880
   49CHL1  H26C 3622   0.841   3.431   4.718 -2.1783  1.3102  2.9955
   49CHL1   C27 3623   0.581   3.499   4.781  0.2147 -0.5649 -0.0870
   49CHL1  H27A 3624   0.544   3.398   4.810 -1.1718  0.0783  0.4874
   49CHL1  H27B 3625   0.647   3.548   4.856 -1.0372  0.3963  0.4244
   49CHL1  H27C 3626   0.502   3.575   4.766  1.6029  0.6567 -1.5713
   50CHL1    C3 3627   5.269   4.231   3.433 -0.0091 -0.7104  0.0313
   50CHL1    H3 3628   5.380   4.223   3.431 -0.0281 -1.3297  0.9105
   50CHL1    O3 3629   5.226   4.230   3.297 -0.0194  0.2803 -0.4460
   50CHL1   H3' 3630   5.133   4.256   3.300  0.2231  1.1353  0.2890
   50CHL1    C4 3631   5.222   4.094   3.505 -1.0430  0.4280 -0.0101
   50CHL1   H4A 3632   5.111   4.091   3.507 -1.1334  2.4227  1.3084
   50CHL1   H4B 3633   5.268   4.014   3.444  0.0806  0.4673  0.7520
   50CHL1    C5 3634   5.253   4.098   3.653 -0.7129  0.2024  0.1085
   50CHL1    C6 3635   5.319   3.995   3.704 -0.5062  0.0994 -0.3555
   50CHL1    H6 3636   5.344   3.909   3.641  1.1109 -0.2917  0.7582
   50CHL1    C7 3637   5.357   3.988   3.852 -0.1796  0.1368 -0.1506
   50CHL1   H7A 3638   5.329   3.889   3.892  0.4034  0.2134  0.4570
   50CHL1   H7B 3639   5.465   4.015   3.860 -0.4535  1.7463 -1.2699
   50CHL1    C8 3640   5.281   4.093   3.934  0.3960  0.2562 -0.0151
   50CHL1    H8 3641   5.176   4.060   3.945  0.6341 -1.6397 -2.6416
   50CHL1   C14 3642   5.335   4.100   4.077  0.3596  0.2305 -0.3897
   50CHL1   H14 3643   5.439   4.129   4.052  1.2469 -1.0393  1.6265
   50CHL1   C15 3644   5.347   3.968   4.156  0.4107 -0.1785  0.1466
   50CHL1  H15A 3645   5.248   3.919   4.143 -0.2211  1.0270  0.2996
   50CHL1  H15B 3646   5.429   3.903   4.119 -0.4389 -1.6884  0.8328
   50CHL1   C16 3647   5.382   4.013   4.297  0.7649  0.7788  0.2357
   50CHL1  H16A 3648   5.311   3.961   4.365 -0.2310 -3.0598 -3.3134
   50CHL1  H16B 3649   5.487   3.986   4.322  0.7571 -0.5554 -1.0664
   50CHL1   C17 3650   5.360   4.168   4.298 -0.8410  0.2125  0.4484
   50CHL1   H17 3651   5.458   4.216   4.278  0.1056 -1.3069  1.2893
   50CHL1   C13 3652   5.271   4.202   4.171 -0.1131  0.1140 -0.4758
   50CHL1   C18 3653   5.124   4.164   4.203 -0.2099 -0.5202  0.2289
   50CHL1  H18A 3654   5.068   4.148   4.109  1.2706 -0.8741 -0.6235
   50CHL1  H18B 3655   5.109   4.070   4.260 -3.5237 -1.5374 -2.0221
   50CHL1  H18C 3656   5.088   4.249   4.266  0.9266  0.7868 -0.7974
   50CHL1   C12 3657   5.286   4.341   4.113  0.6016 -0.2508 -0.4555
   50CHL1  H12A 3658   5.224   4.414   4.170  0.5178 -1.4382  1.0064
   50CHL1  H12B 3659   5.390   4.378   4.117 -0.3426  2.5536  1.3899
   50CHL1   C11 3660   5.228   4.342   3.965  0.2679 -0.5287  0.6324
   50CHL1  H11A 3661   5.118   4.329   3.973  0.3057 -2.8233 -1.3717
   50CHL1  H11B 3662   5.249   4.439   3.914  0.0522 -0.8881 -0.1549
   50CHL1    C9 3663   5.279   4.232   3.872 -0.2734  0.5210 -0.2001
   50CHL1    H9 3664   5.389   4.238   3.864 -0.0921  1.2141  2.2334
   50CHL1   C10 3665   5.212   4.234   3.731 -1.1505  0.2386 -0.3328
   50CHL1   C19 3666   5.066   4.221   3.745 -0.1420 -0.0084  0.1045
   50CHL1  H19A 3667   5.019   4.207   3.646  0.1140  0.4421 -0.0845
   50CHL1  H19B 3668   5.033   4.143   3.816 -0.5981  0.9623  0.9903
   50CHL1  H19C 3669   5.024   4.321   3.772  2.0008  1.4687 -1.6262
   50CHL1    C1 3670   5.259   4.359   3.644 -0.2659  0.2590 -0.5745
   50CHL1   H1A 3671   5.217   4.447   3.696 -1.5242  0.0576 -1.1997
   50CHL1   H1B 3672   5.370   4.351   3.648 -0.4237 -1.7994  1.2710
   50CHL1    C2 3673   5.214   4.361   3.493 -0.2680 -1.1156 -0.2165
   50CHL1   H2A 3674   5.263   4.449   3.447 -1.1514 -1.1410 -1.2738
   50CHL1   H2B 3675   5.103   4.367   3.484 -0.0855  3.3047 -1.5906
   50CHL1   C20 3676   5.329   4.222   4.436 -0.2091 -0.5120  0.9091
   50CHL1   H20 3677   5.219   4.217   4.449 -0.3767  1.3080  0.4673
   50CHL1   C21 3678   5.359   4.374   4.441 -0.9374  0.0084  0.6147
   50CHL1  H21A 3679   5.464   4.389   4.407 -0.8427 -2.0459 -0.1861
   50CHL1  H21B 3680   5.337   4.422   4.538 -1.4566 -0.2999  0.6524
   50CHL1  H21C 3681   5.297   4.435   4.372  1.4461  1.6056 -0.2486
   50CHL1   C22 3682   5.392   4.144   4.559 -0.0302  0.0083  0.2017
   50CHL1  H22A 3683   5.342   4.046   4.571  0.7547 -0.1611  2.6782
   50CHL1  H22B 3684   5.498   4.125   4.534  0.2662 -0.9098  2.0140
   50CHL1   C23 3685   5.385   4.220   4.698  0.3670 -0.6933  0.0915
   50CHL1  H23A 3686   5.417   4.158   4.785  0.1275 -1.1160 -0.1198
   50CHL1  H23B 3687   5.456   4.304   4.685 -0.2368 -0.4890 -2.2477
   50CHL1   C24 3688   5.241   4.270   4.735  0.1585 -0.2391  0.1021
   50CHL1  H24A 3689   5.199   4.347   4.667  0.7794  1.0685  1.1531
   50CHL1  H24B 3690   5.185   4.176   4.717 -0.3601  0.0307  0.2705
   50CHL1   C25 3691   5.218   4.322   4.884  0.1088 -0.5806 -0.0031
   50CHL1   H25 3692   5.113   4.356   4.898  0.4920  1.9297 -2.3981
   50CHL1   C26 3693   5.252   4.223   4.995  0.4239 -0.1936  0.0962
   50CHL1  H26A 3694   5.201   4.125   5.001  1.7358 -0.8221  3.2606
   50CHL1  H26B 3695   5.362   4.206   4.993  0.2093 -1.6701  0.2888
   50CHL1  H26C 3696   5.213   4.274   5.086 -0.0597 -0.5169  0.0708
   50CHL1   C27 3697   5.300   4.449   4.909 -0.3266 -0.4083  0.8992
   50CHL1  H27A 3698   5.404   4.423   4.939 -0.2958  0.3736  1.5072
   50CHL1  H27B 3699   5.304   4.516   4.820 -0.5413  1.2888  2.1080
   50CHL1  H27C 3700   5.267   4.512   4.994  1.2499  1.1337  0.4354
   51CHL1    C3 3701   1.992   6.121   3.086  0.1559  0.1975 -0.8925
   51CHL1    H3 3702   1.937   6.037   3.134  0.6897  0.2644 -0.1506
   51CHL1    O3 3703   2.012   6.092   2.951 -0.0272  0.2475  0.1804
   51CHL1   H3' 3704   1.923   6.078   2.919 -0.5674  0.5744  1.4729
   51CHL1    C4 3705   1.894   6.243   3.105 -0.2446 -0.4606  0.1015
   51CHL1   H4A 3706   1.941   6.326   3.049 -0.0099 -1.8021 -1.8107
   51CHL1   H4B 3707   1.805   6.217   3.043  0.7301  2.6635 -2.9436
   51CHL1    C5 3708   1.879   6.261   3.248  0.8251  0.4863  0.6484
   51CHL1    C6 3709   1.755   6.250   3.298  0.1468  0.4039  0.6518
   51CHL1    H6 3710   1.674   6.223   3.228  1.9586 -1.0751 -1.0364
   51CHL1    C7 3711   1.713   6.271   3.440  0.0174 -0.6602  0.0327
   51CHL1   H7A 3712   1.620   6.332   3.449  2.0906  2.7363  0.3537
   51CHL1   H7B 3713   1.716   6.171   3.489  1.5347  0.6019  2.7293
   51CHL1    C8 3714   1.826   6.342   3.517 -0.1677 -0.4441 -0.6893
   51CHL1    H8 3715   1.819   6.451   3.500 -3.5045 -0.5113 -0.4488
   51CHL1   C14 3716   1.804   6.329   3.669 -0.3128 -0.3269 -0.9327
   51CHL1   H14 3717   1.809   6.222   3.701 -0.4813  0.3403  1.5162
   51CHL1   C15 3718   1.670   6.382   3.713 -0.3874  0.5840 -0.3071
   51CHL1  H15A 3719   1.651   6.478   3.662  0.4142 -0.0299 -1.8203
   51CHL1  H15B 3720   1.591   6.308   3.685 -0.3160 -0.7120  2.4904
   51CHL1   C16 3721   1.686   6.377   3.868 -0.4591  0.1482 -0.0352
   51CHL1  H16A 3722   1.637   6.471   3.901  0.8762  0.9497 -0.2648
   51CHL1  H16B 3723   1.628   6.289   3.903  2.6834 -0.8453  3.2840
   51CHL1   C17 3724   1.838   6.363   3.900 -0.4521  0.0702 -0.5802
   51CHL1   H17 3725   1.859   6.256   3.919  1.2079  0.2944 -1.0325
   51CHL1   C13 3726   1.905   6.399   3.761  0.2899 -0.5137 -0.6002
   51CHL1   C18 3727   1.912   6.553   3.745  0.6400  0.0475  0.3525
   51CHL1  H18A 3728   1.820   6.599   3.788  1.3175  2.6418 -0.8208
   51CHL1  H18B 3729   2.001   6.598   3.793 -0.4888  0.1740  2.4537
   51CHL1  H18C 3730   1.904   6.581   3.638  0.0490  0.2061  0.4310
   51CHL1   C12 3731   2.038   6.336   3.727 -0.1992 -0.3590 -0.5252
   51CHL1  H12A 3732   2.115   6.378   3.796 -0.9532 -1.1713  0.8469
   51CHL1  H12B 3733   2.025   6.228   3.751  0.6312 -0.3969 -0.2126
   51CHL1   C11 3734   2.077   6.354   3.574 -0.2403  0.0691 -0.0124
   51CHL1  H11A 3735   2.096   6.462   3.559 -1.1841  0.1262 -0.9506
   51CHL1  H11B 3736   2.174   6.303   3.555  0.3478  0.8512  0.8382
   51CHL1    C9 3737   1.964   6.289   3.488 -0.6621  0.3142 -0.3419
   51CHL1    H9 3738   1.956   6.179   3.505  0.5561  0.4937  1.8434
   51CHL1   C10 3739   1.997   6.286   3.338 -0.2013  0.3168  0.3714
   51CHL1   C19 3740   2.061   6.422   3.295  0.6069 -0.1507  0.6462
   51CHL1  H19A 3741   2.156   6.433   3.352  0.3794 -0.3008  1.0633
   51CHL1  H19B 3742   2.072   6.426   3.185 -0.2572  1.0393  0.5822
   51CHL1  H19C 3743   1.993   6.504   3.326  1.6247  1.2702 -0.7026
   51CHL1    C1 3744   2.099   6.173   3.307 -0.3354  0.3696 -0.1919
   51CHL1   H1A 3745   2.189   6.189   3.370  0.5073 -0.4975 -1.1309
   51CHL1   H1B 3746   2.047   6.081   3.339 -0.7067  0.8978  0.7522
   51CHL1    C2 3747   2.125   6.149   3.155 -0.4721 -0.2731  0.1591
   51CHL1   H2A 3748   2.204   6.074   3.132 -0.8062 -0.4529 -0.4147
   51CHL1   H2B 3749   2.156   6.248   3.116  0.1998  0.0354  1.4004
   51CHL1   C20 3750   1.882   6.427   4.026 -0.5625  0.6416 -0.1719
   51CHL1   H20 3751   1.893   6.537   4.015 -0.9088  0.6337 -0.6430
   51CHL1   C21 3752   2.027   6.372   4.061 -0.3687  0.1230  0.8814
   51CHL1  H21A 3753   2.069   6.408   4.157  3.3272 -2.9900  0.6642
   51CHL1  H21B 3754   2.101   6.405   3.985  0.4532  0.9460  2.0012
   51CHL1  H21C 3755   2.033   6.261   4.067 -0.5201  0.0425 -0.1876
   51CHL1   C22 3756   1.790   6.404   4.152  0.1332 -0.1036  0.6534
   51CHL1  H22A 3757   1.697   6.455   4.119  1.1434  1.6891  0.4204
   51CHL1  H22B 3758   1.772   6.295   4.164  0.1436  0.0428  2.1852
   51CHL1   C23 3759   1.833   6.469   4.287  0.4318  0.3153 -0.3879
   51CHL1  H23A 3760   1.902   6.398   4.336  1.3356  2.2025  1.2127
   51CHL1  H23B 3761   1.882   6.561   4.249 -0.9621 -0.1668 -3.7160
   51CHL1   C24 3762   1.713   6.495   4.375 -0.6221  0.4168 -0.2022
   51CHL1  H24A 3763   1.644   6.573   4.337  0.2562  1.2397 -0.1610
   51CHL1  H24B 3764   1.650   6.404   4.378 -1.2804  0.7819 -1.9870
   51CHL1   C25 3765   1.749   6.539   4.518  0.6398  0.6808  0.0618
   51CHL1   H25 3766   1.832   6.611   4.510  0.9938  0.1347 -1.6888
   51CHL1   C26 3767   1.634   6.607   4.577  0.1741  0.0258 -0.4770
   51CHL1  H26A 3768   1.613   6.702   4.523  1.4375  0.7729  0.3124
   51CHL1  H26B 3769   1.539   6.549   4.585 -0.7713  1.6489  0.6150
   51CHL1  H26C 3770   1.661   6.638   4.680 -2.4559 -1.2713  0.6911
   51CHL1   C27 3771   1.808   6.428   4.605  0.3041 -0.2498 -0.0963
   51CHL1  H27A 3772   1.836   6.470   4.704 -1.1519  0.6099 -0.0215
   51CHL1  H27B 3773   1.724   6.357   4.619 -0.2551  0.1308 -1.4173
   51CHL1  H27C 3774   1.898   6.373   4.569 -1.2779 -2.0873 -1.4567
   52CHL1    C3 3775   5.149   1.756   3.862  0.2035  0.5813  0.5334
   52CHL1    H3 3776   5.221   1.814   3.923 -0.2319  2.0481 -0.2916
   52CHL1    O3 3777   5.144   1.819   3.741  0.2677 -0.2390  0.0417
   52CHL1   H3' 3778   5.107   1.747   3.688  0.5460 -0.8166  0.6222
   52CHL1    C4 3779   5.201   1.602   3.862 -0.4624 -0.3053  0.2403
   52CHL1   H4A 3780   5.152   1.535   3.788 -1.2648 -1.4201  1.7451
   52CHL1   H4B 3781   5.309   1.612   3.839 -0.0960  1.6969  2.4633
   52CHL1    C5 3782   5.188   1.531   3.997  0.1426  0.2914 -0.4070
   52CHL1    C6 3783   5.301   1.482   4.055  0.1635 -0.3687  0.7613
   52CHL1    H6 3784   5.400   1.500   4.012 -0.4056  2.0127  0.3025
   52CHL1    C7 3785   5.296   1.406   4.183 -0.2075  0.3615 -0.0928
   52CHL1   H7A 3786   5.372   1.325   4.188 -0.8149 -0.1511  1.0312
   52CHL1   H7B 3787   5.333   1.466   4.268  1.8793  0.3879 -0.9555
   52CHL1    C8 3788   5.158   1.347   4.223 -1.1283 -0.3479 -0.1334
   52CHL1    H8 3789   5.135   1.267   4.149 -0.8587  1.3211 -2.0949
   52CHL1   C14 3790   5.161   1.291   4.362 -0.3428 -0.3422 -0.2493
   52CHL1   H14 3791   5.200   1.374   4.425 -1.1474  0.4028 -0.7271
   52CHL1   C15 3792   5.260   1.177   4.392  0.6459  0.6480 -0.1137
   52CHL1  H15A 3793   5.236   1.098   4.317  2.0106 -0.1862  0.2761
   52CHL1  H15B 3794   5.369   1.188   4.374  0.7750 -0.8220 -0.3910
   52CHL1   C16 3795   5.204   1.124   4.531  0.6344  0.1876  0.6553
   52CHL1  H16A 3796   5.186   1.014   4.522 -1.3524  0.6478 -2.4848
   52CHL1  H16B 3797   5.277   1.153   4.609  1.8382  1.8216 -1.0190
   52CHL1   C17 3798   5.064   1.196   4.556  0.5946  0.7073  0.1183
   52CHL1   H17 3799   5.088   1.277   4.628  0.7495  1.4547 -0.7679
   52CHL1   C13 3800   5.025   1.257   4.419  0.7148 -0.0734 -0.1978
   52CHL1   C18 3801   4.967   1.143   4.326 -1.2447  0.2400 -0.0210
   52CHL1  H18A 3802   4.863   1.119   4.358 -1.2526  0.3147  0.0096
   52CHL1  H18B 3803   4.966   1.181   4.221  0.1472  1.3552  0.3376
   52CHL1  H18C 3804   5.019   1.046   4.332 -1.7965  0.0003  1.1162
   52CHL1   C12 3805   4.940   1.382   4.418 -0.1392 -0.4442 -0.5318
   52CHL1  H12A 3806   4.840   1.358   4.461  0.6431 -1.3543  0.8289
   52CHL1  H12B 3807   4.986   1.460   4.482 -0.9964  0.1462 -0.6167
   52CHL1   C11 3808   4.921   1.436   4.276  0.3982  0.1663  0.1088
   52CHL1  H11A 3809   4.863   1.365   4.212 -2.9337  1.0103  1.9680
   52CHL1  H11B 3810   4.865   1.532   4.272 -3.4504 -1.9119 -1.5298
   52CHL1    C9 3811   5.055   1.470   4.203 -0.1126 -0.7309  0.0828
   52CHL1    H9 3812   5.105   1.543   4.270 -1.1009 -1.6649  1.9141
   52CHL1   C10 3813   5.048   1.529   4.059 -0.5048 -0.4539  0.0524
   52CHL1   C19 3814   4.940   1.454   3.976 -0.3971 -0.0187 -0.3840
   52CHL1  H19A 3815   4.939   1.484   3.869  1.4698  0.4507 -0.3122
   52CHL1  H19B 3816   4.971   1.348   3.983 -2.0098 -0.4232  1.3817
   52CHL1  H19C 3817   4.837   1.463   4.018 -0.3384 -1.9360  0.2630
   52CHL1    C1 3818   5.003   1.681   4.069  0.7044  0.0805 -0.5889
   52CHL1   H1A 3819   4.900   1.670   4.110  0.4421  0.5713 -1.0997
   52CHL1   H1B 3820   5.068   1.733   4.143  1.6050 -0.6956 -0.8267
   52CHL1    C2 3821   5.004   1.754   3.932 -0.5744 -0.4248  0.1215
   52CHL1   H2A 3822   4.969   1.857   3.953  2.8576  1.1984 -1.1874
   52CHL1   H2B 3823   4.940   1.695   3.862  0.0246  0.6165 -1.3612
   52CHL1   C20 3824   4.955   1.105   4.624 -0.4320  0.5944 -0.7382
   52CHL1   H20 3825   4.919   1.018   4.564 -0.6928 -0.9306  1.4996
   52CHL1   C21 3826   4.828   1.192   4.671 -0.3139  0.2498 -0.0857
   52CHL1  H21A 3827   4.765   1.127   4.735 -0.0060  2.0981  2.2268
   52CHL1  H21B 3828   4.775   1.213   4.576  1.0452 -1.6420 -1.3608
   52CHL1  H21C 3829   4.865   1.276   4.732  2.4173 -0.4227 -0.6636
   52CHL1   C22 3830   5.009   1.048   4.757 -0.2827 -0.4329  0.3900
   52CHL1  H22A 3831   5.092   1.102   4.807 -2.0757  2.0052  0.9169
   52CHL1  H22B 3832   4.932   1.043   4.837 -0.0910 -2.7371  0.5032
   52CHL1   C23 3833   5.057   0.901   4.738  0.4768  0.0993 -0.1138
   52CHL1  H23A 3834   4.984   0.844   4.677  0.3374  0.7621 -0.5684
   52CHL1  H23B 3835   5.158   0.906   4.692  0.3090  1.9755 -0.3679
   52CHL1   C24 3836   5.073   0.827   4.872 -0.0030 -0.5946 -0.3752
   52CHL1  H24A 3837   4.974   0.825   4.921 -0.6636  0.9892 -1.5644
   52CHL1  H24B 3838   5.095   0.721   4.849  0.8578 -0.5226  0.0726
   52CHL1   C25 3839   5.183   0.866   4.965  0.3601  0.4298 -0.6531
   52CHL1   H25 3840   5.186   0.976   4.984 -0.2317  0.3530 -0.0763
   52CHL1   C26 3841   5.180   0.785   5.097  0.4139 -0.0851  0.2393
   52CHL1  H26A 3842   5.183   0.677   5.072  0.2341  0.1664 -0.9684
   52CHL1  H26B 3843   5.258   0.807   5.173 -1.0894  3.2321  0.9914
   52CHL1  H26C 3844   5.080   0.804   5.141  0.3442 -1.4364  0.6989
   52CHL1   C27 3845   5.319   0.848   4.895 -0.1956  0.2073  0.1098
   52CHL1  H27A 3846   5.408   0.827   4.957  1.9865 -1.5375 -3.2578
   52CHL1  H27B 3847   5.315   0.771   4.814 -0.0928 -1.0669  1.2827
   52CHL1  H27C 3848   5.339   0.944   4.843  0.7454 -0.7748 -1.4504
   53CHL1    C3 3849   2.093   1.817   3.330 -0.3325 -1.2630 -0.2734
   53CHL1    H3 3850   2.192   1.768   3.343 -0.0430 -0.9299 -1.1671
   53CHL1    O3 3851   2.096   1.867   3.202  0.1461 -0.4371  0.1457
   53CHL1   H3' 3852   2.184   1.906   3.200 -1.2735  3.1342 -0.1252
   53CHL1    C4 3853   1.981   1.714   3.344 -1.2375  0.5263  0.2028
   53CHL1   H4A 3854   1.890   1.758   3.299 -0.1157  2.2794 -0.4360
   53CHL1   H4B 3855   2.006   1.626   3.280 -2.1856 -0.8564  1.6577
   53CHL1    C5 3856   1.941   1.674   3.484 -0.1821  0.0366 -0.1789
   53CHL1    C6 3857   1.936   1.549   3.524  0.4239 -0.0608  0.4061
   53CHL1    H6 3858   1.963   1.483   3.440 -0.3870  1.9361 -1.5391
   53CHL1    C7 3859   1.872   1.506   3.655  0.7612  0.9403  0.0281
   53CHL1   H7A 3860   1.782   1.448   3.627  0.1845  0.9309  1.7558
   53CHL1   H7B 3861   1.946   1.443   3.709 -0.2735 -1.2979 -1.0335
   53CHL1    C8 3862   1.829   1.618   3.752  0.0067 -0.4106 -0.0801
   53CHL1    H8 3863   1.724   1.643   3.725  0.1014  0.9234  0.7410
   53CHL1   C14 3864   1.847   1.568   3.900  0.3662 -0.8335  0.7912
   53CHL1   H14 3865   1.956   1.563   3.921  0.5421 -0.9809 -0.1355
   53CHL1   C15 3866   1.781   1.436   3.940 -0.2720  0.1379  0.1926
   53CHL1  H15A 3867   1.682   1.417   3.894 -0.8590 -0.6866  1.7265
   53CHL1  H15B 3868   1.848   1.349   3.922 -0.4756  0.3237 -1.5961
   53CHL1   C16 3869   1.754   1.454   4.095 -0.5060  0.9205  0.3269
   53CHL1  H16A 3870   1.646   1.432   4.112 -0.4893 -0.7143 -1.4773
   53CHL1  H16B 3871   1.819   1.384   4.152 -2.8171 -0.7807  1.0102
   53CHL1   C17 3872   1.791   1.604   4.128  0.0483 -0.4091 -0.0682
   53CHL1   H17 3873   1.899   1.602   4.157 -0.3664 -0.9815  1.5031
   53CHL1   C13 3874   1.782   1.680   3.992  0.0579 -0.2823 -0.5101
   53CHL1   C18 3875   1.639   1.721   3.959  0.0700  0.7295  0.1188
   53CHL1  H18A 3876   1.576   1.631   3.942  1.8006 -0.2041 -1.8403
   53CHL1  H18B 3877   1.590   1.788   4.032 -0.9074 -0.2750  0.4205
   53CHL1  H18C 3878   1.630   1.776   3.863  0.7200 -1.4061 -1.2427
   53CHL1   C12 3879   1.893   1.794   3.986  0.1130 -1.1513  0.1574
   53CHL1  H12A 3880   1.870   1.875   4.058 -1.5973  1.3146 -2.9235
   53CHL1  H12B 3881   1.991   1.749   4.011  0.4620 -0.7941 -0.5420
   53CHL1   C11 3882   1.893   1.852   3.836  1.0461 -0.2947 -0.7326
   53CHL1  H11A 3883   1.796   1.903   3.821  0.8760 -0.4162 -0.0763
   53CHL1  H11B 3884   1.966   1.936   3.824  0.8891 -0.1915 -0.9715
   53CHL1    C9 3885   1.916   1.745   3.723 -0.0594 -0.1375  0.4574
   53CHL1    H9 3886   2.016   1.704   3.750 -0.8105 -1.8429  0.8097
   53CHL1   C10 3887   1.911   1.795   3.578  0.2715  0.3911 -0.1417
   53CHL1   C19 3888   1.771   1.871   3.553 -0.5976  0.0507 -0.2695
   53CHL1  H19A 3889   1.757   1.959   3.619 -1.3205  0.7590 -1.3380
   53CHL1  H19B 3890   1.770   1.891   3.444  2.0548 -2.3844 -0.8623
   53CHL1  H19C 3891   1.682   1.810   3.579 -2.1727  0.6940 -3.6173
   53CHL1    C1 3892   2.024   1.900   3.562  0.6440  0.2078 -0.3196
   53CHL1   H1A 3893   1.992   1.986   3.625 -2.0815 -0.2576 -0.9344
   53CHL1   H1B 3894   2.120   1.852   3.593  1.2176 -0.4148 -2.8550
   53CHL1    C2 3895   2.064   1.940   3.421  0.2290  0.4846 -0.1473
   53CHL1   H2A 3896   2.160   1.996   3.423  1.8634 -2.1753  0.7417
   53CHL1   H2B 3897   1.976   1.991   3.377  0.7313  1.0617 -0.5060
   53CHL1   C20 3898   1.731   1.656   4.259  0.2313 -0.0096  0.4217
   53CHL1   H20 3899   1.623   1.677   4.241  0.3015 -0.0800 -0.0825
   53CHL1   C21 3900   1.806   1.788   4.307  0.1069  0.7274  0.0712
   53CHL1  H21A 3901   1.786   1.823   4.410  0.9476  0.0365  0.4805
   53CHL1  H21B 3902   1.774   1.877   4.248  0.7130  0.8743 -0.0405
   53CHL1  H21C 3903   1.915   1.782   4.292  0.0764  0.6461 -0.1233
   53CHL1   C22 3904   1.724   1.552   4.378  0.2776 -0.4599 -0.8814
   53CHL1  H22A 3905   1.656   1.590   4.456  0.8210  2.1781 -1.5860
   53CHL1  H22B 3906   1.678   1.457   4.344 -1.4171 -0.0473  0.1632
   53CHL1   C23 3907   1.859   1.512   4.447 -0.0487 -0.3306  0.2406
   53CHL1  H23A 3908   1.921   1.466   4.367  0.0068  2.3292 -1.3743
   53CHL1  H23B 3909   1.907   1.602   4.491 -0.6332  0.8798 -1.4895
   53CHL1   C24 3910   1.843   1.412   4.565  0.3865 -0.3023 -0.8817
   53CHL1  H24A 3911   1.781   1.472   4.635  0.2011 -1.3399 -0.1406
   53CHL1  H24B 3912   1.799   1.316   4.531  0.7626 -0.1568 -1.8051
   53CHL1   C25 3913   1.966   1.363   4.642  0.7254  0.5804 -0.4728
   53CHL1   H25 3914   2.010   1.286   4.576 -0.6968 -0.8310  0.1430
   53CHL1   C26 3915   2.078   1.467   4.676 -0.0561  0.4997 -0.3505
   53CHL1  H26A 3916   2.034   1.558   4.722  1.4231  1.7101 -1.2272
   53CHL1  H26B 3917   2.157   1.426   4.742  0.0405 -0.4941 -1.0586
   53CHL1  H26C 3918   2.135   1.507   4.589  1.2138  0.7832  0.5953
   53CHL1   C27 3919   1.926   1.293   4.774 -0.5995 -0.2797 -0.0061
   53CHL1  H27A 3920   1.867   1.202   4.751 -2.2767  0.1525  2.3076
   53CHL1  H27B 3921   2.022   1.270   4.825  0.1967 -0.5045 -1.5329
   53CHL1  H27C 3922   1.872   1.360   4.845  1.7809  0.6437  1.0463
   54CHL1    C3 3923   0.184   3.375   3.663 -0.1166  0.2217  0.0412
   54CHL1    H3 3924   0.291   3.348   3.660 -0.4452 -1.1221 -0.2398
   54CHL1    O3 3925   0.122   3.303   3.553  0.0528 -0.5944  0.0800
   54CHL1   H3' 3926   0.046   3.260   3.594  0.7146 -3.2516 -1.2339
   54CHL1    C4 3927   0.124   3.316   3.788 -0.2379  0.4160 -0.0853
   54CHL1   H4A 3928   0.014   3.311   3.776 -0.0706 -1.3342 -1.1530
   54CHL1   H4B 3929   0.160   3.212   3.805  1.3986  0.9976  0.2440
   54CHL1    C5 3930   0.163   3.391   3.922  0.1464  0.1926  0.5978
   54CHL1    C6 3931   0.212   3.330   4.028 -0.0200 -0.1720 -0.5619
   54CHL1    H6 3932   0.220   3.221   4.026 -0.7357 -0.2178 -1.6133
   54CHL1    C7 3933   0.249   3.397   4.155 -0.1336 -0.6909 -0.3133
   54CHL1   H7A 3934   0.216   3.341   4.245 -1.2045  1.2580  0.5764
   54CHL1   H7B 3935   0.360   3.400   4.167 -0.1972 -0.8648  0.3974
   54CHL1    C8 3936   0.192   3.547   4.171 -0.0136 -0.5322  0.0925
   54CHL1    H8 3937   0.083   3.551   4.193 -0.5193  0.7733 -2.3010
   54CHL1   C14 3938   0.263   3.635   4.274 -0.0831 -0.6027 -0.1385
   54CHL1   H14 3939   0.372   3.639   4.253  0.4243 -1.1459  2.0900
   54CHL1   C15 3940   0.256   3.579   4.421  0.5965 -0.1897 -0.6159
   54CHL1  H15A 3941   0.156   3.536   4.441  2.3537 -3.4882  1.9883
   54CHL1  H15B 3942   0.335   3.501   4.424  0.0638 -0.6911  0.9609
   54CHL1   C16 3943   0.273   3.699   4.510  0.2658  0.5701  0.1002
   54CHL1  H16A 3944   0.178   3.717   4.565 -0.3389 -0.1489 -0.6835
   54CHL1  H16B 3945   0.362   3.692   4.575 -0.4107 -0.7809  0.9248
   54CHL1   C17 3946   0.281   3.819   4.411  0.0619  0.3976  0.4847
   54CHL1   H17 3947   0.391   3.826   4.397  0.0432  1.4315  0.7835
   54CHL1   C13 3948   0.211   3.772   4.283  0.1994 -0.0046  0.1527
   54CHL1   C18 3949   0.055   3.774   4.309 -0.7104  0.0770  0.0693
   54CHL1  H18A 3950   0.004   3.732   4.219  2.0366 -0.2535 -1.4434
   54CHL1  H18B 3951   0.024   3.705   4.390  0.1207 -0.9597 -0.4743
   54CHL1  H18C 3952   0.018   3.875   4.338 -0.7978  0.2830 -0.7238
   54CHL1   C12 3953   0.245   3.853   4.154 -0.0724  0.0410 -0.7604
   54CHL1  H12A 3954   0.201   3.954   4.168  1.2693  0.7160 -1.2282
   54CHL1  H12B 3955   0.356   3.857   4.144 -0.2441  0.4958 -3.0082
   54CHL1   C11 3956   0.181   3.773   4.035 -0.1993 -0.8352  0.5200
   54CHL1  H11A 3957   0.072   3.797   4.034  0.0120  0.1729  0.4960
   54CHL1  H11B 3958   0.230   3.822   3.948  1.7665 -0.4507  1.7745
   54CHL1    C9 3959   0.214   3.621   4.033  0.5619 -0.6484 -0.4828
   54CHL1    H9 3960   0.325   3.618   4.021  0.3205 -1.2392 -3.3321
   54CHL1   C10 3961   0.149   3.543   3.918 -0.3930  1.0662 -0.1327
   54CHL1   C19 3962   0.001   3.563   3.922  0.3474 -0.1448  0.3853
   54CHL1  H19A 3963  -0.026   3.665   3.888  1.1708 -0.1462 -0.3053
   54CHL1  H19B 3964  -0.055   3.497   3.852  1.7385 -3.5341  2.1919
   54CHL1  H19C 3965  -0.043   3.550   4.023 -1.2205  0.1387 -0.2321
   54CHL1    C1 3966   0.203   3.593   3.779 -0.3725 -0.2673  0.0699
   54CHL1   H1A 3967   0.187   3.701   3.763  0.3349 -0.3140 -1.1074
   54CHL1   H1B 3968   0.312   3.571   3.772 -0.2701  0.7364 -3.2657
   54CHL1    C2 3969   0.153   3.522   3.662 -0.2684 -0.2064  1.1361
   54CHL1   H2A 3970   0.191   3.558   3.565 -2.5660 -2.1147 -0.5891
   54CHL1   H2B 3971   0.044   3.542   3.656  0.3206  4.0978  1.4280
   54CHL1   C20 3972   0.245   3.943   4.485 -0.5863 -0.3799  0.4204
   54CHL1   H20 3973   0.144   3.929   4.528 -0.8438  0.1213 -0.0043
   54CHL1   C21 3974   0.209   4.073   4.404 -0.0486  0.4923  0.2622
   54CHL1  H21A 3975   0.128   4.046   4.332 -0.4839 -1.3741  1.3823
   54CHL1  H21B 3976   0.300   4.104   4.350 -0.3977  2.5276  0.7360
   54CHL1  H21C 3977   0.180   4.152   4.477  3.8094  0.8357  1.6713
   54CHL1   C22 3978   0.340   3.982   4.595 -0.2653  0.3173  0.5120
   54CHL1  H22A 3979   0.316   4.083   4.635 -0.6810  0.1585  0.6682
   54CHL1  H22B 3980   0.334   3.912   4.681 -3.4508  0.0038  0.1599
   54CHL1   C23 3981   0.491   4.002   4.544 -0.0181 -0.5519 -0.7137
   54CHL1  H23A 3982   0.528   3.904   4.509 -0.4200 -0.7908 -0.4714
   54CHL1  H23B 3983   0.484   4.076   4.461 -2.9903 -2.0979 -1.9701
   54CHL1   C24 3984   0.592   4.073   4.641  0.1935  0.0295 -0.1974
   54CHL1  H24A 3985   0.543   4.163   4.682 -1.2945 -0.1561 -1.4910
   54CHL1  H24B 3986   0.611   4.003   4.725 -0.5805 -0.9390 -0.8121
   54CHL1   C25 3987   0.729   4.111   4.577 -0.0430  0.2053 -0.7613
   54CHL1   H25 3988   0.775   4.026   4.522  2.1424  1.2063 -0.5995
   54CHL1   C26 3989   0.708   4.226   4.478  0.3062 -0.4183  0.6641
   54CHL1  H26A 3990   0.805   4.237   4.424 -0.5694  0.2229 -0.8505
   54CHL1  H26B 3991   0.627   4.195   4.407  0.1660  1.3903 -0.0221
   54CHL1  H26C 3992   0.686   4.320   4.531 -0.6762  0.9676 -1.9800
   54CHL1   C27 3993   0.841   4.154   4.688 -0.1545  0.0863 -0.4349
   54CHL1  H27A 3994   0.893   4.066   4.733 -2.3035 -2.0509 -1.9239
   54CHL1  H27B 3995   0.923   4.218   4.649  2.0115 -1.9564  0.4823
   54CHL1  H27C 3996   0.793   4.187   4.783  0.0646 -2.5251  0.6687
   55CHL1    C3 3997   4.505   5.729   3.291  0.2316 -0.3031  0.2740
   55CHL1    H3 3998   4.395   5.720   3.304 -0.1239  1.0371 -1.4422
   55CHL1    O3 3999   4.521   5.724   3.144  0.0713 -0.1920 -0.6920
   55CHL1   H3' 4000   4.470   5.798   3.110 -0.1226 -1.1043 -2.5355
   55CHL1    C4 4001   4.554   5.860   3.357 -0.2666 -0.2496 -0.2012
   55CHL1   H4A 4002   4.658   5.876   3.324  0.3348  0.8555  2.0489
   55CHL1   H4B 4003   4.491   5.945   3.323 -1.1130 -0.4928  0.7092
   55CHL1    C5 4004   4.559   5.863   3.510  0.3564 -0.5311 -0.1124
   55CHL1    C6 4005   4.483   5.958   3.580 -0.1403  0.0928  0.5025
   55CHL1    H6 4006   4.423   6.030   3.522  1.3815  1.3309  0.4176
   55CHL1    C7 4007   4.485   5.969   3.732 -0.3419  0.0811 -0.4894
   55CHL1   H7A 4008   4.487   6.074   3.767  0.2936  0.6699 -2.1815
   55CHL1   H7B 4009   4.388   5.926   3.765 -1.2610  1.0412 -1.8214
   55CHL1    C8 4010   4.603   5.888   3.793  0.0177 -1.1485  0.4743
   55CHL1    H8 4011   4.700   5.938   3.770 -0.6221 -0.6480 -1.3427
   55CHL1   C14 4012   4.580   5.883   3.945 -0.2743 -0.0927  0.2641
   55CHL1   H14 4013   4.490   5.822   3.963  0.9869 -2.5606 -1.2315
   55CHL1   C15 4014   4.563   6.021   4.019  0.2791  0.8610  0.4275
   55CHL1  H15A 4015   4.641   6.096   3.994  2.6752 -2.2241 -2.2831
   55CHL1  H15B 4016   4.459   6.058   4.001 -0.0785 -0.6213 -0.7474
   55CHL1   C16 4017   4.573   5.977   4.165 -0.2226 -0.1184  0.2117
   55CHL1  H16A 4018   4.636   6.055   4.213  0.2627  1.1844 -2.3419
   55CHL1  H16B 4019   4.471   5.962   4.208  0.4203 -3.2079  0.8636
   55CHL1   C17 4020   4.641   5.837   4.168  0.0793  0.7725 -0.1816
   55CHL1   H17 4021   4.559   5.762   4.176  0.2854  0.4615 -0.8768
   55CHL1   C13 4022   4.686   5.811   4.023  0.0108  0.5361  0.0197
   55CHL1   C18 4023   4.826   5.877   4.014  0.1597 -0.6245  0.2249
   55CHL1  H18A 4024   4.908   5.828   4.072  0.5349 -0.6894 -0.3524
   55CHL1  H18B 4025   4.863   5.887   3.910 -3.5143 -2.0247 -1.3546
   55CHL1  H18C 4026   4.817   5.982   4.049 -0.7025 -0.8099  0.5792
   55CHL1   C12 4027   4.685   5.663   3.970  0.2864  0.1083  0.7378
   55CHL1  H12A 4028   4.764   5.605   4.023 -0.2051  0.3172  1.7159
   55CHL1  H12B 4029   4.589   5.613   3.992  0.7542 -0.2872  1.9292
   55CHL1   C11 4030   4.710   5.657   3.819 -0.1512  0.2356  0.7115
   55CHL1  H11A 4031   4.817   5.677   3.799 -0.8223  1.5405 -2.0852
   55CHL1  H11B 4032   4.691   5.554   3.784  0.1392  0.4005  0.0638
   55CHL1    C9 4033   4.618   5.749   3.736  0.5396  0.5824  0.1821
   55CHL1    H9 4034   4.521   5.698   3.755  1.0291 -0.8311 -0.9325
   55CHL1   C10 4035   4.630   5.747   3.577 -0.3060 -0.1510  0.5015
   55CHL1   C19 4036   4.777   5.753   3.551  0.2730  0.0804  0.8191
   55CHL1  H19A 4037   4.800   5.744   3.442  1.6200  1.7990  0.9235
   55CHL1  H19B 4038   4.820   5.848   3.589  2.1417 -0.3874 -0.0207
   55CHL1  H19C 4039   4.832   5.665   3.592  2.4419 -0.8185 -3.3917
   55CHL1    C1 4040   4.568   5.616   3.507 -1.3345 -0.3615  0.9182
   55CHL1   H1A 4041   4.640   5.541   3.544  2.8629  3.4293  1.2511
   55CHL1   H1B 4042   4.466   5.598   3.549 -2.0744 -0.3370 -0.7847
   55CHL1    C2 4043   4.571   5.607   3.354 -0.0775 -0.1599 -0.0019
   55CHL1   H2A 4044   4.521   5.515   3.317  0.0258 -0.9309  1.7108
   55CHL1   H2B 4045   4.679   5.612   3.328 -0.0094 -0.4739  0.2157
   55CHL1   C20 4046   4.749   5.817   4.278 -0.1917  0.3665 -0.5496
   55CHL1   H20 4047   4.845   5.869   4.259 -0.3599  1.1383  0.5866
   55CHL1   C21 4048   4.784   5.670   4.287  0.4152 -0.4701 -0.4356
   55CHL1  H21A 4049   4.855   5.640   4.368  0.0451 -0.5915 -0.1510
   55CHL1  H21B 4050   4.854   5.639   4.206  1.9211 -2.8892  1.6110
   55CHL1  H21C 4051   4.693   5.605   4.282  0.4737 -0.7210  1.0826
   55CHL1   C22 4052   4.708   5.850   4.418 -0.1505 -0.3418  0.2904
   55CHL1  H22A 4053   4.799   5.844   4.481  0.9571  0.9748 -1.1199
   55CHL1  H22B 4054   4.694   5.960   4.418  2.0788 -0.0132 -0.0086
   55CHL1   C23 4055   4.585   5.769   4.468  0.1051 -0.2027  0.1614
   55CHL1  H23A 4056   4.510   5.781   4.387 -0.3442 -0.3849  0.5445
   55CHL1  H23B 4057   4.600   5.663   4.497 -0.5033 -0.3916 -0.1917
   55CHL1   C24 4058   4.527   5.824   4.597  0.2271 -0.7165 -0.7886
   55CHL1  H24A 4059   4.506   5.932   4.586  1.1310 -0.4544 -0.1256
   55CHL1  H24B 4060   4.440   5.759   4.622  0.1858 -0.6791 -0.8362
   55CHL1   C25 4061   4.611   5.808   4.724 -0.4867  0.5502 -0.3048
   55CHL1   H25 4062   4.712   5.854   4.716 -0.7658  1.1927 -0.2001
   55CHL1   C26 4063   4.546   5.876   4.842 -0.5394  0.2042 -0.1870
   55CHL1  H26A 4064   4.518   5.981   4.815  0.2635  0.3086 -0.6301
   55CHL1  H26B 4065   4.456   5.814   4.860 -1.0729  0.9662 -0.1838
   55CHL1  H26C 4066   4.607   5.876   4.935 -1.2085 -0.1202  0.2577
   55CHL1   C27 4067   4.636   5.662   4.763 -0.6838  0.0171 -0.2717
   55CHL1  H27A 4068   4.538   5.614   4.743  0.2051 -1.2735 -1.7234
   55CHL1  H27B 4069   4.716   5.625   4.695 -1.0981  0.5161 -1.0470
   55CHL1  H27C 4070   4.668   5.643   4.868 -1.5254 -2.6743 -0.4242
   56CHL1    C3 4071   0.460   4.128   3.276 -0.4776 -0.2959 -0.3166
   56CHL1    H3 4072   0.515   4.225   3.272  0.0684 -0.1135  4.8126
   56CHL1    O3 4073   0.466   4.060   3.152 -0.3550  0.7281 -0.1938
   56CHL1   H3' 4074   0.530   4.108   3.100 -1.8962  2.6743 -0.4313
   56CHL1    C4 4075   0.519   4.037   3.381  0.5394  0.1165 -0.1112
   56CHL1   H4A 4076   0.468   3.939   3.367 -2.9563  1.7615  0.1715
   56CHL1   H4B 4077   0.627   4.020   3.360  0.2715  0.3669 -1.8249
   56CHL1    C5 4078   0.500   4.085   3.524  0.2879 -0.0677  0.4359
   56CHL1    C6 4079   0.607   4.106   3.597 -0.1685 -0.0580  0.0290
   56CHL1    H6 4080   0.707   4.096   3.552 -1.1625 -0.9465 -2.0863
   56CHL1    C7 4081   0.602   4.156   3.739  0.3062  0.0702 -0.3163
   56CHL1   H7A 4082   0.671   4.089   3.795  0.3188  0.3448 -0.0006
   56CHL1   H7B 4083   0.648   4.257   3.740 -0.6850  0.5446  0.9129
   56CHL1    C8 4084   0.464   4.170   3.803 -0.2077 -0.0554  0.3957
   56CHL1    H8 4085   0.444   4.068   3.841  1.4066 -0.9633 -1.0377
   56CHL1   C14 4086   0.461   4.276   3.915 -0.5932  0.3403 -0.3299
   56CHL1   H14 4087   0.464   4.376   3.867 -0.6767  1.1541  1.3086
   56CHL1   C15 4088   0.573   4.289   4.020  0.0064  0.9563  0.0283
   56CHL1  H15A 4089   0.576   4.190   4.070 -2.0437  0.4018 -0.8288
   56CHL1  H15B 4090   0.670   4.320   3.976 -0.0553  0.3479 -0.5448
   56CHL1   C16 4091   0.513   4.376   4.124 -0.0523 -0.5156 -0.0055
   56CHL1  H16A 4092   0.543   4.337   4.224 -1.1500 -1.6404 -0.0888
   56CHL1  H16B 4093   0.541   4.483   4.112  2.2775 -1.1899 -1.1274
   56CHL1   C17 4094   0.365   4.399   4.093  0.3627 -0.7118 -0.0072
   56CHL1   H17 4095   0.351   4.485   4.025  1.1570 -0.4801  0.1116
   56CHL1   C13 4096   0.330   4.285   3.990  0.1257  0.4514  0.3689
   56CHL1   C18 4097   0.293   4.151   4.061 -0.8654 -0.1825 -0.2081
   56CHL1  H18A 4098   0.296   4.064   3.993  4.2566 -0.2953 -0.2077
   56CHL1  H18B 4099   0.355   4.141   4.152 -2.0285  0.7762  0.7232
   56CHL1  H18C 4100   0.187   4.161   4.095 -1.6844  0.6003 -2.7532
   56CHL1   C12 4101   0.207   4.307   3.888 -0.4402  0.3704  0.7480
   56CHL1  H12A 4102   0.105   4.299   3.931 -0.5738 -0.6946  0.2550
   56CHL1  H12B 4103   0.217   4.404   3.834  0.2478  0.0390  0.2513
   56CHL1   C11 4104   0.216   4.212   3.772  0.1927  0.2399  0.7132
   56CHL1  H11A 4105   0.201   4.114   3.823 -0.2771  1.0060  2.0818
   56CHL1  H11B 4106   0.136   4.230   3.697  2.1404  4.1075 -0.6940
   56CHL1    C9 4107   0.353   4.205   3.697 -0.4203  0.2758 -0.4814
   56CHL1    H9 4108   0.389   4.307   3.669  2.7436 -0.3416  0.9156
   56CHL1   C10 4109   0.356   4.112   3.571 -0.2249 -0.5140 -0.5790
   56CHL1   C19 4110   0.277   3.981   3.595 -0.0062 -0.7872 -0.5725
   56CHL1  H19A 4111   0.170   4.005   3.616  0.2466 -0.0395 -0.0657
   56CHL1  H19B 4112   0.279   3.914   3.506  0.7152 -0.6943 -0.6313
   56CHL1  H19C 4113   0.320   3.930   3.683 -1.5336 -1.2278 -0.0408
   56CHL1    C1 4114   0.290   4.191   3.461  0.2828 -0.0091 -0.9752
   56CHL1   H1A 4115   0.179   4.197   3.469  0.4399  1.8713  0.7948
   56CHL1   H1B 4116   0.312   4.300   3.470 -1.1387  0.5522 -3.3510
   56CHL1    C2 4117   0.317   4.155   3.309  0.7799 -0.4364  0.3620
   56CHL1   H2A 4118   0.288   4.243   3.247 -2.1265 -0.2067  1.9068
   56CHL1   H2B 4119   0.255   4.067   3.281 -1.8572  1.5956 -0.5773
   56CHL1   C20 4120   0.282   4.412   4.229  0.4652  0.1720 -0.5903
   56CHL1   H20 4121   0.288   4.318   4.288  0.1394  0.2586 -0.4176
   56CHL1   C21 4122   0.136   4.450   4.196  0.2846  0.2816  0.2860
   56CHL1  H21A 4123   0.072   4.464   4.286 -0.3345 -0.2071 -0.0737
   56CHL1  H21B 4124   0.091   4.375   4.127 -1.1990  0.4121  1.0632
   56CHL1  H21C 4125   0.128   4.545   4.140  0.8737 -0.5010 -1.1770
   56CHL1   C22 4126   0.336   4.526   4.315 -0.3592 -0.7974 -0.0962
   56CHL1  H22A 4127   0.447   4.522   4.308 -0.4613 -1.2264 -1.9204
   56CHL1  H22B 4128   0.300   4.623   4.275  3.2751  0.2642 -1.2016
   56CHL1   C23 4129   0.300   4.522   4.463 -0.0488  0.5909 -0.3901
   56CHL1  H23A 4130   0.337   4.614   4.513  2.3993  0.0764 -1.1296
   56CHL1  H23B 4131   0.190   4.523   4.475 -0.1561  0.4908 -1.3024
   56CHL1   C24 4132   0.364   4.405   4.536 -0.4243 -0.0993  0.5787
   56CHL1  H24A 4133   0.352   4.310   4.480  0.9100  1.4630 -2.6267
   56CHL1  H24B 4134   0.467   4.444   4.548 -0.6016  0.4762  0.2636
   56CHL1   C25 4135   0.313   4.382   4.675  0.4145  0.5454  0.1744
   56CHL1   H25 4136   0.367   4.292   4.711  2.2001  2.6068  3.1770
   56CHL1   C26 4137   0.365   4.490   4.767  0.4188  0.5915  0.7691
   56CHL1  H26A 4138   0.475   4.496   4.750  0.7819  0.5025  2.7752
   56CHL1  H26B 4139   0.328   4.592   4.742 -1.4021 -0.2388 -0.0751
   56CHL1  H26C 4140   0.349   4.456   4.872 -0.1116  0.0335  0.5100
   56CHL1   C27 4141   0.160   4.354   4.691 -0.3952 -0.0491  0.5097
   56CHL1  H27A 4142   0.124   4.320   4.790 -4.7022 -0.1579 -0.9128
   56CHL1  H27B 4143   0.110   4.451   4.672  2.1263  1.2770  0.1120
   56CHL1  H27C 4144   0.132   4.287   4.607 -0.8552  1.1694 -0.3415
   57SAPC     N 4145   3.655   6.276   7.446 -0.0646 -0.0453 -0.2047
   57SAPC   C12 4146   3.694   6.211   7.313  0.3959  0.1029 -0.2111
   57SAPC  H12A 4147   3.758   6.276   7.256  0.7969  0.0140  0.1369
   57SAPC  H12B 4148   3.605   6.203   7.253  0.7674 -0.9858 -0.6528
   57SAPC   C13 4149   3.570   6.392   7.427 -0.5915  0.1978  0.2124
   57SAPC  H13A 4150   3.534   6.426   7.524  1.5941 -0.4637  1.3268
   57SAPC  H13B 4151   3.632   6.471   7.388 -1.4940  0.0505 -1.6465
   57SAPC  H13C 4152   3.479   6.374   7.371 -1.8684 -0.5450  2.3635
   57SAPC   C14 4153   3.593   6.181   7.543  0.8786 -0.7421  0.5506
   57SAPC  H14A 4154   3.568   6.232   7.635 -2.2937  1.1493 -1.2011
   57SAPC  H14B 4155   3.514   6.123   7.496  2.7912 -2.0405 -1.2341
   57SAPC  H14C 4156   3.667   6.109   7.575  2.4763  0.2530 -0.7954
   57SAPC   C15 4157   3.779   6.324   7.516 -0.7505  0.0971 -0.2757
   57SAPC  H15A 4158   3.823   6.397   7.450 -0.2295 -0.6476 -0.7582
   57SAPC  H15B 4159   3.750   6.377   7.606 -1.2967  0.6673 -0.7749
   57SAPC  H15C 4160   3.851   6.247   7.538 -0.4727  1.1288  2.9212
   57SAPC   C11 4161   3.759   6.071   7.315  0.6111  0.0848 -0.8182
   57SAPC  H11A 4162   3.847   6.065   7.382 -0.1618  2.8057  0.5759
   57SAPC  H11B 4163   3.794   6.049   7.212  2.4862  2.0622 -0.6770
   57SAPC     P 4164   3.529   5.957   7.290  0.2810 -0.1205 -0.3981
   57SAPC   O13 4165   3.428   5.982   7.393  0.4504 -1.1430 -0.1694
   57SAPC   O14 4166   3.526   6.024   7.162 -0.1486  0.3707 -0.0065
   57SAPC   O12 4167   3.664   5.975   7.359 -0.0424  0.2233 -0.1552
   57SAPC   O11 4168   3.522   5.803   7.270 -0.3710  0.6018  0.1680
   57SAPC    C1 4169   3.637   5.721   7.262 -0.1517  0.6298 -0.3058
   57SAPC    HA 4170   3.729   5.775   7.291 -0.2881  1.7497 -1.8524
   57SAPC    HB 4171   3.625   5.626   7.318 -2.3450  0.3891 -1.0558
   57SAPC    C2 4172   3.656   5.665   7.113 -0.2841 -0.3962 -0.6135
   57SAPC    HS 4173   3.735   5.587   7.124 -0.2340 -0.3110 -0.3725
   57SAPC   O21 4174   3.691   5.780   7.035  0.3577 -0.5115  0.4176
   57SAPC   C21 4175   3.802   5.768   6.964  0.0644 -0.1946  0.2969
   57SAPC   O22 4176   3.874   5.670   6.960  0.2694 -0.0569  0.2757
   57SAPC   C22 4177   3.829   5.891   6.876 -0.1271  0.0778  0.4310
   57SAPC   H2R 4178   3.799   5.861   6.774 -2.1561 -0.8005  1.2463
   57SAPC   H2S 4179   3.753   5.964   6.912 -0.2568  0.6285 -0.9030
   57SAPC    C3 4180   3.542   5.582   7.045  0.1537 -0.9147 -0.1307
   57SAPC    HX 4181   3.455   5.646   7.017 -1.1172 -4.3587 -5.5287
   57SAPC    HY 4182   3.508   5.493   7.103  0.6039 -2.1531 -1.7212
   57SAPC   O31 4183   3.601   5.525   6.930 -0.0217  0.0010 -0.4110
   57SAPC   C31 4184   3.583   5.589   6.813 -0.1585 -0.8580  0.0769
   57SAPC   O32 4185   3.539   5.701   6.799  0.5888  0.3938  0.0967
   57SAPC   C32 4186   3.637   5.506   6.704  0.2677 -0.1936 -0.3788
   57SAPC   H2X 4187   3.616   5.399   6.722  2.2008 -0.4377  0.6569
   57SAPC   H2Y 4188   3.746   5.509   6.723  0.4374  0.0964 -1.3295
   57SAPC   C23 4189   3.970   5.948   6.899 -0.5831  0.0232 -0.8969
   57SAPC   H3R 4190   4.059   5.885   6.874  1.7094  2.1604  1.2635
   57SAPC   H3S 4191   3.995   5.966   7.006  2.9401 -2.9635 -0.9826
   57SAPC   C24 4192   3.997   6.078   6.826  0.8260  0.1754  0.4201
   57SAPC   H4R 4193   4.083   6.132   6.873  0.5259  0.6600  0.4243
   57SAPC   H4S 4194   3.914   6.150   6.842 -0.0240 -1.1067  1.9059
   57SAPC   C25 4195   4.036   6.054   6.676  0.8165  0.2053 -0.7299
   57SAPC   H5R 4196   4.142   6.028   6.666  0.6915  0.1066 -2.0131
   57SAPC   C26 4197   3.950   6.058   6.575 -0.1055  0.0664 -0.3381
   57SAPC   H6R 4198   3.986   6.049   6.471 -4.0065 -1.2295 -1.7880
   57SAPC   C27 4199   3.801   6.084   6.580  0.0403  0.4046 -0.0520
   57SAPC   H7R 4200   3.775   6.171   6.516 -0.6599 -1.2635 -2.1547
   57SAPC   H7S 4201   3.773   6.100   6.686  0.9924 -0.1018  0.2853
   57SAPC   C28 4202   3.720   5.961   6.541 -0.4155  0.0366 -0.4160
   57SAPC   H8R 4203   3.704   5.895   6.628  0.7168  2.3011  1.6215
   57SAPC   C29 4204   3.685   5.931   6.409 -0.7823 -0.2028 -0.5002
   57SAPC   H9R 4205   3.644   5.834   6.380  2.3820 -1.3638 -1.4580
   57SAPC  C210 4206   3.716   6.029   6.296 -0.2203 -0.3063 -0.4528
   57SAPC  H10R 4207   3.741   5.961   6.212 -2.7129 -2.4799  0.4298
   57SAPC  H10S 4208   3.804   6.094   6.313 -0.6758  0.2980 -0.3364
   57SAPC  C211 4209   3.592   6.115   6.280 -0.0752  0.4802  0.3638
   57SAPC  H11R 4210   3.540   6.146   6.372 -2.1679 -0.4344 -0.4398
   57SAPC  C212 4211   3.528   6.143   6.166  0.2682 -0.8882  0.6545
   57SAPC  H12R 4212   3.446   6.215   6.181 -0.2821 -0.6780 -2.6574
   57SAPC  C213 4213   3.563   6.100   6.027  0.2499 -0.0196 -0.8280
   57SAPC  H13R 4214   3.631   6.013   6.040  0.2243 -0.0435 -0.8546
   57SAPC  H13S 4215   3.620   6.183   5.978 -0.5824  0.0087 -1.7783
   57SAPC  C214 4216   3.437   6.069   5.954 -0.7131 -0.3445  0.6174
   57SAPC  H14R 4217   3.350   6.039   6.015 -0.3603  0.9104  1.7905
   57SAPC  C215 4218   3.430   6.070   5.822  0.0308 -0.2472 -0.0848
   57SAPC  H15R 4219   3.336   6.032   5.781 -1.0431  2.6802 -0.5533
   57SAPC  C216 4220   3.538   6.094   5.718  0.4387  0.1547  0.0546
   57SAPC  H16R 4221   3.634   6.065   5.767 -2.2223 -2.6514  4.3266
   57SAPC  H16S 4222   3.562   6.199   5.691  1.8641 -0.2095 -0.1690
   57SAPC  C217 4223   3.524   6.021   5.578 -0.6469  0.2730 -0.3171
   57SAPC  H17R 4224   3.510   5.916   5.608 -0.0830  0.7154  1.6317
   57SAPC  H17S 4225   3.622   6.020   5.526  0.1649  0.1220  1.1610
   57SAPC  C218 4226   3.414   6.071   5.487 -0.5329 -0.3545  0.1619
   57SAPC  H18R 4227   3.426   6.178   5.463 -0.8851 -0.3602 -0.0387
   57SAPC  H18S 4228   3.319   6.067   5.545  0.8312 -0.5928  2.5193
   57SAPC  C219 4229   3.416   5.990   5.361 -0.7621  0.5984  0.3314
   57SAPC  H19R 4230   3.380   5.886   5.378 -1.5726  0.9511  0.8136
   57SAPC  H19S 4231   3.521   5.982   5.324 -0.9580  2.0299 -0.6325
   57SAPC  C220 4232   3.337   6.051   5.248  0.3471 -0.6333  0.0449
   57SAPC  H20R 4233   3.374   6.155   5.231  0.2566 -0.7542 -0.9204
   57SAPC  H20S 4234   3.227   6.047   5.256  0.2262  0.5642 -0.7685
   57SAPC  H20T 4235   3.349   5.995   5.153  0.0682 -0.1339 -0.2885
   57SAPC   C33 4236   3.595   5.547   6.560 -0.9176  0.5687  0.3419
   57SAPC   H3X 4237   3.649   5.489   6.482 -0.1991  0.4876  0.8948
   57SAPC   H3Y 4238   3.619   5.655   6.546 -0.0387  0.2625 -0.6430
   57SAPC   C34 4239   3.447   5.516   6.535  0.2070 -0.3338 -0.3637
   57SAPC   H4X 4240   3.388   5.549   6.624  2.3284 -2.2770  1.9214
   57SAPC   H4Y 4241   3.436   5.406   6.523  0.1338 -0.2315 -1.2572
   57SAPC   C35 4242   3.402   5.580   6.405 -0.5202  0.2216  0.0638
   57SAPC   H5X 4243   3.454   5.678   6.398 -1.2347  0.7821  2.0642
   57SAPC   H5Y 4244   3.291   5.581   6.398 -0.4581 -1.4055 -3.6683
   57SAPC   C36 4245   3.454   5.497   6.293  0.4974 -0.0746  0.1777
   57SAPC   H6X 4246   3.401   5.399   6.290  0.5586 -0.0882 -1.7629
   57SAPC   H6Y 4247   3.565   5.489   6.290  1.0672  4.7818 -0.2800
   57SAPC   C37 4248   3.403   5.556   6.157 -0.0972  0.1240 -0.1944
   57SAPC   H7X 4249   3.443   5.659   6.146  2.2316 -0.8631 -1.6641
   57SAPC   H7Y 4250   3.293   5.566   6.157 -0.1151  0.0429  0.6642
   57SAPC   C38 4251   3.439   5.474   6.042  0.7064  0.1286 -0.3708
   57SAPC   H8X 4252   3.377   5.507   5.956  1.2099  0.5045 -0.5961
   57SAPC   H8Y 4253   3.394   5.373   6.053 -0.1302  0.3189 -1.8350
   57SAPC   C39 4254   3.585   5.468   6.007 -0.3769 -0.6000  0.9180
   57SAPC   H9X 4255   3.634   5.404   6.083  1.6198 -0.5299 -0.2197
   57SAPC   H9Y 4256   3.629   5.570   6.008 -0.5387 -0.4752 -1.1014
   57SAPC  C310 4257   3.611   5.406   5.864  0.0368 -0.8700  0.0587
   57SAPC  H10X 4258   3.569   5.304   5.853 -3.7393  0.6154 -1.2793
   57SAPC  H10Y 4259   3.721   5.399   5.853  0.8962  5.3673  1.0156
   57SAPC  C311 4260   3.556   5.491   5.748  0.2805 -0.1413 -0.8829
   57SAPC  H11X 4261   3.612   5.586   5.737  1.7755 -1.0230 -1.0861
   57SAPC  H11Y 4262   3.451   5.515   5.776  0.8594 -0.4872  1.9145
   57SAPC  C312 4263   3.557   5.427   5.609  0.0007  0.1304 -0.3105
   57SAPC  H12X 4264   3.516   5.325   5.597 -2.2267  0.8114  1.0107
   57SAPC  H12Y 4265   3.663   5.430   5.574 -0.5143  4.3349 -2.0852
   57SAPC  C313 4266   3.495   5.517   5.506 -0.4428  0.2098  0.3201
   57SAPC  H13X 4267   3.552   5.611   5.522  2.3747 -1.4341  0.8100
   57SAPC  H13Y 4268   3.388   5.539   5.524 -1.7405 -1.9855 -3.5027
   57SAPC  C314 4269   3.513   5.468   5.358  0.2729 -0.4404  0.0716
   57SAPC  H14X 4270   3.494   5.359   5.348 -0.0426 -0.5548  1.6016
   57SAPC  H14Y 4271   3.620   5.482   5.329  0.0026 -2.2994 -2.0012
   57SAPC  C315 4272   3.427   5.545   5.252  0.4684  0.3514 -0.9169
   57SAPC  H15X 4273   3.464   5.650   5.254 -0.3559  0.6548 -1.2160
   57SAPC  H15Y 4274   3.325   5.544   5.295  1.7314 -0.4883  2.4032
   57SAPC  C316 4275   3.440   5.500   5.113  0.0130  0.4884  0.1317
   57SAPC  H16X 4276   3.406   5.395   5.104 -0.9332  0.7296  0.7577
   57SAPC  H16Y 4277   3.548   5.506   5.087  0.0351 -1.3775 -0.3170
   57SAPC  C317 4278   3.354   5.591   5.027  0.1425  0.5495 -0.6033
   57SAPC  H17X 4279   3.390   5.691   5.059  0.2366  0.9752 -1.9737
   57SAPC  H17Y 4280   3.249   5.584   5.060  0.0366  0.7001 -0.9048
   57SAPC  C318 4281   3.360   5.554   4.874 -0.5768 -0.1671 -0.7649
   57SAPC  H18X 4282   3.460   5.566   4.827  0.0181  1.9156  0.8567
   57SAPC  H18Y 4283   3.300   5.628   4.816 -1.4304  0.6087  1.0198
   57SAPC  H18Z 4284   3.298   5.464   4.855 -2.0378  0.7383 -0.3919
   58SAPC     N 4285   1.980   3.946   7.228 -0.6545 -0.2180 -0.3610
   58SAPC   C12 4286   1.864   4.036   7.261 -0.8289  0.2686  0.2066
   58SAPC  H12A 4287   1.902   4.119   7.318  1.3250  0.2007 -0.9967
   58SAPC  H12B 4288   1.798   3.983   7.327  0.8029  0.3541  2.0176
   58SAPC   C13 4289   2.063   3.913   7.345  0.0314 -0.0858 -0.4861
   58SAPC  H13A 4290   2.100   4.007   7.383  0.9025 -0.2290 -0.9535
   58SAPC  H13B 4291   1.999   3.849   7.403  0.6490 -0.6940 -0.4679
   58SAPC  H13C 4292   2.151   3.861   7.311  1.8294  0.8681  2.3762
   58SAPC   C14 4293   1.939   3.821   7.161  0.8541 -0.1188 -0.0245
   58SAPC  H14A 4294   1.862   3.770   7.218 -0.3172  1.9867  0.3937
   58SAPC  H14B 4295   1.889   3.851   7.071  0.4031  1.3623  0.6858
   58SAPC  H14C 4296   2.025   3.761   7.139  3.3519  1.3492  4.4472
   58SAPC   C15 4297   2.071   4.011   7.127 -0.1239 -0.1867  0.5643
   58SAPC  H15A 4298   2.035   4.038   7.029  1.0232  0.6659  0.3609
   58SAPC  H15B 4299   2.126   4.088   7.179  0.2140  0.8221 -1.2167
   58SAPC  H15C 4300   2.151   3.942   7.106 -1.4453 -1.7338  0.3212
   58SAPC   C11 4301   1.783   4.101   7.152 -0.5411  0.0097 -0.1789
   58SAPC  H11A 4302   1.848   4.151   7.076 -0.4774  1.0779  0.5488
   58SAPC  H11B 4303   1.727   4.186   7.198  0.5218  0.4309  0.3719
   58SAPC     P 4304   1.547   4.009   7.090  0.0661 -0.1833  0.0258
   58SAPC   O13 4305   1.486   3.890   7.155 -0.0193  0.4174 -0.1999
   58SAPC   O14 4306   1.504   4.144   7.133 -0.1622 -0.3798 -0.2719
   58SAPC   O12 4307   1.699   3.999   7.096  0.1760  1.0839 -0.0536
   58SAPC   O11 4308   1.527   3.994   6.938  0.1972  0.0648 -0.4294
   58SAPC    C1 4309   1.396   4.005   6.882  0.6102  0.6761  0.0891
   58SAPC    HA 4310   1.333   3.914   6.893  1.9150 -0.6668 -2.5687
   58SAPC    HB 4311   1.338   4.092   6.919  0.7305  0.1015  1.6948
   58SAPC    C2 4312   1.400   4.022   6.728  0.1265 -0.2643  0.5604
   58SAPC    HS 4313   1.296   4.045   6.695  0.2086 -2.2919 -1.3994
   58SAPC   O21 4314   1.446   3.902   6.659  0.0887  0.0154 -0.0203
   58SAPC   C21 4315   1.359   3.811   6.654 -0.1280  0.0371  0.7047
   58SAPC   O22 4316   1.256   3.801   6.721 -0.7669 -0.8538  0.5184
   58SAPC   C22 4317   1.406   3.703   6.556  0.2176 -0.4501 -0.7074
   58SAPC   H2R 4318   1.497   3.661   6.605 -0.4613 -0.3993  0.6262
   58SAPC   H2S 4319   1.328   3.625   6.545  0.9997 -1.8138  2.3685
   58SAPC    C3 4320   1.484   4.148   6.699 -0.2656 -0.1343  0.0057
   58SAPC    HX 4321   1.587   4.114   6.725 -0.9093 -1.4850  0.8767
   58SAPC    HY 4322   1.460   4.229   6.770 -3.8600 -0.7684 -0.2900
   58SAPC   O31 4323   1.479   4.198   6.564 -0.2553 -0.3935 -0.1581
   58SAPC   C31 4324   1.369   4.251   6.530  0.6773  0.5214  0.4231
   58SAPC   O32 4325   1.275   4.290   6.601  0.0328  0.2101  0.1594
   58SAPC   C32 4326   1.364   4.265   6.378 -0.1973 -0.2933  0.0815
   58SAPC   H2X 4327   1.460   4.306   6.339 -1.1808  1.9397 -0.1592
   58SAPC   H2Y 4328   1.298   4.353   6.363  1.0753  0.6300 -0.3261
   58SAPC   C23 4329   1.433   3.759   6.413 -0.1755 -0.1498 -0.5761
   58SAPC   H3R 4330   1.352   3.828   6.379 -0.1390 -0.2791 -0.9260
   58SAPC   H3S 4331   1.412   3.679   6.340  1.1807  0.1723 -1.3448
   58SAPC   C24 4332   1.569   3.830   6.384 -0.0085 -0.2682 -1.0465
   58SAPC   H4R 4333   1.585   3.913   6.456 -0.4768 -2.2010  1.4024
   58SAPC   H4S 4334   1.559   3.882   6.286 -0.6870  0.4468 -0.6210
   58SAPC   C25 4335   1.684   3.733   6.386  0.4484  0.0566  0.5706
   58SAPC   H5R 4336   1.702   3.696   6.488 -2.9741  1.2621  1.7702
   58SAPC   C26 4337   1.774   3.681   6.289  0.0715 -0.1673 -0.8699
   58SAPC   H6R 4338   1.854   3.618   6.332 -0.3549  0.6819  1.3170
   58SAPC   C27 4339   1.764   3.730   6.156  0.3983  0.3126 -0.0403
   58SAPC   H7R 4340   1.655   3.732   6.132  0.4969 -0.0814 -0.5203
   58SAPC   H7S 4341   1.811   3.660   6.085 -1.0960 -1.9280  1.0691
   58SAPC   C28 4342   1.834   3.864   6.134 -0.1237  0.6887  0.1501
   58SAPC   H8R 4343   1.881   3.914   6.220  0.3596  2.0695 -0.8726
   58SAPC   C29 4344   1.861   3.917   6.013  0.9280  0.5604 -0.2918
   58SAPC   H9R 4345   1.926   4.005   6.019  2.5433 -0.6773  1.8158
   58SAPC  C210 4346   1.820   3.863   5.876 -0.4930 -0.3272  0.5971
   58SAPC  H10R 4347   1.786   3.956   5.824 -1.5328 -1.0998 -0.1675
   58SAPC  H10S 4348   1.734   3.793   5.887  0.7548 -2.1956 -0.7961
   58SAPC  C211 4349   1.935   3.790   5.809  0.6093 -0.1980  0.5414
   58SAPC  H11R 4350   1.980   3.713   5.873 -1.3549  0.1820  2.4828
   58SAPC  C212 4351   1.990   3.817   5.687  0.6912 -0.4299 -0.4733
   58SAPC  H12R 4352   2.066   3.751   5.642  2.0837  1.2746 -0.7235
   58SAPC  C213 4353   1.931   3.924   5.597  0.2190  0.8551 -0.2326
   58SAPC  H13R 4354   1.823   3.939   5.618  0.5665  1.7745  1.0225
   58SAPC  H13S 4355   1.944   3.888   5.492 -2.2290 -1.0924  0.0380
   58SAPC  C214 4356   1.992   4.055   5.617 -0.0242  0.5488 -0.1534
   58SAPC  H14R 4357   1.988   4.098   5.718  2.2202 -1.2962  0.8093
   58SAPC  C215 4358   2.029   4.139   5.517 -0.2391  0.2281 -0.1632
   58SAPC  H15R 4359   2.073   4.234   5.552  2.3606 -0.0517 -2.3175
   58SAPC  C216 4360   2.047   4.110   5.363 -0.1634  0.1122  0.1265
   58SAPC  H16R 4361   1.979   4.173   5.301  0.4821 -1.3615 -2.1946
   58SAPC  H16S 4362   2.018   4.006   5.339 -2.6536  0.9298 -0.6600
   58SAPC  C217 4363   2.185   4.149   5.316 -0.5372  0.5640 -0.1869
   58SAPC  H17R 4364   2.259   4.079   5.360 -1.4039  0.9275  1.9837
   58SAPC  H17S 4365   2.205   4.255   5.342 -1.5562  0.6562  0.2462
   58SAPC  C218 4366   2.199   4.130   5.163  0.5694  0.3615  0.4430
   58SAPC  H18R 4367   2.298   4.172   5.136  0.6550  0.3683  0.7693
   58SAPC  H18S 4368   2.120   4.178   5.101 -1.0955 -1.4184  1.0695
   58SAPC  C219 4369   2.192   3.978   5.126 -0.4692  0.6513  0.5094
   58SAPC  H19R 4370   2.091   3.942   5.152  1.0514 -2.3680  2.8454
   58SAPC  H19S 4371   2.271   3.929   5.187  0.9296 -0.9857 -2.4354
   58SAPC  C220 4372   2.197   3.949   4.981  0.3376 -0.0845  0.5121
   58SAPC  H20R 4373   2.206   3.840   4.960 -1.0618  0.2186 -2.1873
   58SAPC  H20S 4374   2.285   3.991   4.929 -1.5943  2.6346 -0.8175
   58SAPC  H20T 4375   2.115   4.006   4.932  0.7650  0.8844  0.9154
   58SAPC   C33 4376   1.317   4.137   6.307  0.1568  0.2633 -0.0924
   58SAPC   H3X 4377   1.210   4.115   6.328 -0.2369  1.7687 -0.4001
   58SAPC   H3Y 4378   1.377   4.048   6.334  0.4398  0.2802 -0.6566
   58SAPC   C34 4379   1.329   4.147   6.146  0.5478 -0.3780  0.3892
   58SAPC   H4X 4380   1.347   4.252   6.115 -0.9296  0.2068  1.4328
   58SAPC   H4Y 4381   1.239   4.117   6.088  0.8650 -0.5451 -0.0236
   58SAPC   C35 4382   1.445   4.055   6.093 -0.4846  0.2827 -0.1606
   58SAPC   H5X 4383   1.425   3.947   6.109 -2.3959  0.4896 -0.8825
   58SAPC   H5Y 4384   1.539   4.070   6.149 -0.6562 -2.3287  0.9315
   58SAPC   C36 4385   1.456   4.070   5.945 -0.8766  0.2964 -0.4463
   58SAPC   H6X 4386   1.360   4.076   5.891 -0.0650  0.3034 -1.9244
   58SAPC   H6Y 4387   1.505   3.990   5.885 -1.4564  1.4858 -2.6142
   58SAPC   C37 4388   1.540   4.195   5.923 -0.2769  0.0145 -0.2034
   58SAPC   H7X 4389   1.638   4.175   5.970  0.2715 -0.7151 -1.5961
   58SAPC   H7Y 4390   1.502   4.287   5.971 -0.6944 -0.3467  0.1649
   58SAPC   C38 4391   1.576   4.226   5.774  0.2752  0.5838 -0.1419
   58SAPC   H8X 4392   1.636   4.140   5.736  0.5561  1.4475 -1.7603
   58SAPC   H8Y 4393   1.642   4.315   5.766  0.1393  0.7779  0.8039
   58SAPC   C39 4394   1.449   4.251   5.701  0.1704 -0.0706  0.4006
   58SAPC   H9X 4395   1.372   4.328   5.725 -0.1854  0.5051 -2.2341
   58SAPC   H9Y 4396   1.392   4.156   5.694 -1.4021  0.9566 -1.5322
   58SAPC  C310 4397   1.483   4.272   5.546  0.8891 -0.4218  0.5066
   58SAPC  H10X 4398   1.540   4.366   5.532  0.2884  0.0790  1.3011
   58SAPC  H10Y 4399   1.382   4.284   5.502  0.7802  0.2913  0.9392
   58SAPC  C311 4400   1.558   4.152   5.484  0.4449 -0.2521  0.2072
   58SAPC  H11X 4401   1.532   4.052   5.525 -0.6071  0.2464  0.7827
   58SAPC  H11Y 4402   1.662   4.176   5.515 -0.2105  1.6551  1.0150
   58SAPC  C312 4403   1.563   4.139   5.334  1.0635 -0.2899  0.9934
   58SAPC  H12X 4404   1.607   4.233   5.293 -0.8152  0.2528  0.0408
   58SAPC  H12Y 4405   1.463   4.151   5.286  1.3299  1.0339  0.7271
   58SAPC  C313 4406   1.651   4.028   5.283 -1.2068  0.4592 -0.5705
   58SAPC  H13X 4407   1.631   3.936   5.344 -0.5848  1.3651  1.0680
   58SAPC  H13Y 4408   1.752   4.064   5.311 -0.3629 -1.7202 -0.5581
   58SAPC  C314 4409   1.638   4.013   5.132 -0.1991 -0.5542  0.0873
   58SAPC  H14X 4410   1.668   4.109   5.085  2.1928 -0.9306  0.7140
   58SAPC  H14Y 4411   1.532   3.983   5.119 -0.4343  0.7339 -1.1818
   58SAPC  C315 4412   1.721   3.902   5.081  0.4336  0.0938  0.0853
   58SAPC  H15X 4413   1.678   3.813   5.133 -0.6706  0.4249 -0.2298
   58SAPC  H15Y 4414   1.823   3.930   5.116  1.0069 -1.8135  0.0290
   58SAPC  C316 4415   1.722   3.880   4.927  0.0039 -0.1344 -0.5266
   58SAPC  H16X 4416   1.770   3.957   4.863 -0.6670  1.0446  0.3756
   58SAPC  H16Y 4417   1.625   3.856   4.878 -0.3136  1.4446 -0.7039
   58SAPC  C317 4418   1.813   3.759   4.891  0.1335 -0.0787 -0.5929
   58SAPC  H17X 4419   1.905   3.785   4.947 -1.9460  0.5496  2.7994
   58SAPC  H17Y 4420   1.834   3.757   4.782 -1.2784 -0.0870 -0.8733
   58SAPC  C318 4421   1.766   3.624   4.940  0.4644  1.2557  0.0613
   58SAPC  H18X 4422   1.665   3.594   4.905  1.0346 -0.6152 -0.0996
   58SAPC  H18Y 4423   1.771   3.622   5.051 -1.2079 -1.6754  0.1979
   58SAPC  H18Z 4424   1.844   3.555   4.901  1.7788  2.6607  0.1151
   59SAPC     N 4425   5.341   5.938   7.634 -0.2421 -0.1633 -0.3335
   59SAPC   C12 4426   5.364   5.953   7.482  1.1683  0.7125 -0.7677
   59SAPC  H12A 4427   5.274   5.982   7.430  0.8117 -1.0212 -1.1775
   59SAPC  H12B 4428   5.374   5.850   7.453 -0.6045  0.3324 -0.1589
   59SAPC   C13 4429   5.461   5.884   7.706 -0.2500 -0.0722  0.1053
   59SAPC  H13A 4430   5.477   5.784   7.670 -0.5697  0.7211 -2.4857
   59SAPC  H13B 4431   5.539   5.955   7.683 -0.6114  0.2382 -0.1763
   59SAPC  H13C 4432   5.449   5.884   7.813 -0.9624 -2.7078  0.0903
   59SAPC   C14 4433   5.305   6.074   7.691 -1.0065 -0.8810 -0.3395
   59SAPC  H14A 4434   5.387   6.145   7.685 -1.4241 -0.3341  0.2751
   59SAPC  H14B 4435   5.223   6.113   7.632 -0.1232  0.4476 -0.7422
   59SAPC  H14C 4436   5.262   6.067   7.790 -0.7828  0.0646 -0.1629
   59SAPC   C15 4437   5.216   5.862   7.675  0.1115  0.8376  0.0533
   59SAPC  H15A 4438   5.220   5.762   7.633 -0.8070  0.9470 -0.3163
   59SAPC  H15B 4439   5.205   5.836   7.779 -1.8285  0.4815 -0.2057
   59SAPC  H15C 4440   5.122   5.906   7.647 -0.9311  0.0721  2.1525
   59SAPC   C11 4441   5.478   6.040   7.432 -0.9402  0.2358 -0.0215
   59SAPC  H11A 4442   5.473   6.138   7.483  1.3564 -0.2800  1.3710
   59SAPC  H11B 4443   5.476   6.049   7.322  3.4214 -1.8608 -0.4879
   59SAPC     P 4444   5.677   5.884   7.383  0.2383 -0.1386 -0.1375
   59SAPC   O13 4445   5.814   5.871   7.425  0.0609  0.2772  0.8985
   59SAPC   O14 4446   5.600   5.764   7.392 -0.2428  0.3896 -0.6495
   59SAPC   O12 4447   5.599   5.984   7.478  0.2239  0.1237 -0.5394
   59SAPC   O11 4448   5.667   5.950   7.241 -0.4397 -0.3565 -0.3196
   59SAPC    C1 4449   5.753   6.073   7.217 -0.3385 -0.3609  0.1776
   59SAPC    HA 4450   5.699   6.167   7.241  1.5921  0.5959  1.0535
   59SAPC    HB 4451   5.851   6.070   7.269  0.5668 -0.8351 -1.4843
   59SAPC    C2 4452   5.802   6.087   7.064 -0.4352  0.2663 -0.5398
   59SAPC    HS 4453   5.866   6.176   7.044  0.8078 -1.0450 -2.7826
   59SAPC   O21 4454   5.687   6.071   6.979  0.4733 -0.0441  0.4177
   59SAPC   C21 4455   5.627   6.192   6.952  0.3421  0.2491  0.1915
   59SAPC   O22 4456   5.671   6.297   6.988  0.1583 -0.0498  0.2943
   59SAPC   C22 4457   5.494   6.172   6.882  0.2614 -0.6179 -1.7321
   59SAPC   H2R 4458   5.443   6.079   6.916 -0.1085  0.8494  2.2740
   59SAPC   H2S 4459   5.430   6.261   6.905  0.4894 -1.4011  2.7787
   59SAPC    C3 4460   5.899   5.966   7.036  0.0144  0.0616  0.1737
   59SAPC    HX 4461   5.855   5.878   7.088  0.6076  1.1137  2.5820
   59SAPC    HY 4462   5.990   5.998   7.091 -0.5905 -0.0031  1.2435
   59SAPC   O31 4463   5.932   5.957   6.896 -0.3489  0.6848  0.2973
   59SAPC   C31 4464   5.883   5.855   6.834 -0.3467 -0.0490 -0.7373
   59SAPC   O32 4465   5.808   5.773   6.876  0.0407 -0.1720 -0.9273
   59SAPC   C32 4466   5.932   5.859   6.691 -0.1995 -0.2142  0.3137
   59SAPC   H2X 4467   6.041   5.839   6.683  0.6694  3.3607  1.3471
   59SAPC   H2Y 4468   5.938   5.967   6.668  0.6599  0.1076  1.9048
   59SAPC   C23 4469   5.516   6.161   6.726  0.1264 -0.0476  0.1239
   59SAPC   H3R 4470   5.592   6.085   6.699 -0.0662  0.3167 -1.5317
   59SAPC   H3S 4471   5.543   6.257   6.676 -1.3334  0.8138  0.9192
   59SAPC   C24 4472   5.396   6.105   6.656 -0.5606  0.3591  0.3256
   59SAPC   H4R 4473   5.367   6.006   6.697  0.8916 -0.7750 -1.2382
   59SAPC   H4S 4474   5.429   6.080   6.553  1.1190 -0.3303  1.0132
   59SAPC   C25 4475   5.271   6.195   6.662  0.0565 -0.3270 -0.1895
   59SAPC   H5R 4476   5.240   6.208   6.767  0.5809 -0.8550  0.0321
   59SAPC   C26 4477   5.200   6.256   6.562  0.4878  0.1035  0.1560
   59SAPC   H6R 4478   5.101   6.302   6.583 -0.0972 -0.9469 -0.2503
   59SAPC   C27 4479   5.237   6.266   6.419 -0.4156  0.1904  0.2963
   59SAPC   H7R 4480   5.150   6.233   6.359  0.4916  0.1861 -1.0621
   59SAPC   H7S 4481   5.320   6.196   6.400 -2.3281 -1.8162 -1.2397
   59SAPC   C28 4482   5.274   6.412   6.383  0.1965  1.2584 -0.2860
   59SAPC   H8R 4483   5.323   6.475   6.459  1.8060 -2.3294  1.9441
   59SAPC   C29 4484   5.242   6.464   6.260 -0.0666  0.6619 -0.2072
   59SAPC   H9R 4485   5.277   6.565   6.235  1.6200 -0.0562 -0.8671
   59SAPC  C210 4486   5.175   6.396   6.146  0.1141  0.1675  0.2509
   59SAPC  H10R 4487   5.156   6.290   6.174 -0.5382 -0.0044 -0.7573
   59SAPC  H10S 4488   5.239   6.394   6.055  0.2883 -2.1912  0.3575
   59SAPC  C211 4489   5.037   6.459   6.138 -0.8262 -0.2429 -0.1239
   59SAPC  H11R 4490   4.978   6.462   6.231 -1.2415 -0.3913 -0.3772
   59SAPC  C212 4491   4.988   6.494   6.015  0.0204  0.0249 -0.6179
   59SAPC  H12R 4492   4.882   6.524   6.009  0.2355  1.3266  1.3251
   59SAPC  C213 4493   5.056   6.493   5.880 -0.5540 -0.5013 -1.0663
   59SAPC  H13R 4494   5.153   6.440   5.869  0.6634  0.7390  2.3796
   59SAPC  H13S 4495   5.085   6.597   5.854  0.7931 -0.9635 -1.4983
   59SAPC  C214 4496   4.958   6.448   5.782  0.0228  0.3153 -0.7893
   59SAPC  H14R 4497   4.904   6.358   5.815  0.8303 -0.1001 -0.5728
   59SAPC  C215 4498   4.935   6.487   5.656 -0.0415 -0.3923  0.4235
   59SAPC  H15R 4499   4.856   6.445   5.591  0.1945 -1.7880  1.0153
   59SAPC  C216 4500   5.014   6.602   5.601 -0.5648  0.2096 -0.2326
   59SAPC  H16R 4501   5.122   6.577   5.611 -0.6665 -1.0269 -1.7402
   59SAPC  H16S 4502   4.994   6.704   5.639 -0.3211 -0.6283  2.2934
   59SAPC  C217 4503   5.008   6.609   5.445 -0.0027  0.3165  0.6222
   59SAPC  H17R 4504   5.035   6.513   5.396 -0.8829  0.4138 -0.0849
   59SAPC  H17S 4505   5.094   6.669   5.410  1.5435 -1.8094  0.5679
   59SAPC  C218 4506   4.875   6.663   5.384  0.1559 -0.2403 -0.0424
   59SAPC  H18R 4507   4.855   6.761   5.431 -0.1254 -0.9437  1.3393
   59SAPC  H18S 4508   4.793   6.593   5.409  0.8103 -0.6259  1.0913
   59SAPC  C219 4509   4.875   6.682   5.232 -0.6999  0.3983 -0.0853
   59SAPC  H19R 4510   4.781   6.715   5.182 -1.4564  0.6406  1.4400
   59SAPC  H19S 4511   4.903   6.584   5.188  0.1812 -0.2022  1.6978
   59SAPC  C220 4512   4.976   6.798   5.185  0.0052  0.6611 -0.8984
   59SAPC  H20R 4513   4.961   6.814   5.076 -0.0642  0.4005 -0.9292
   59SAPC  H20S 4514   5.081   6.767   5.204 -0.7227 -0.5909  1.5457
   59SAPC  H20T 4515   4.951   6.890   5.241 -0.1799 -0.2834  0.6249
   59SAPC   C33 4516   5.845   5.780   6.579 -0.7699 -0.6964 -0.2408
   59SAPC   H3X 4517   5.740   5.816   6.574 -0.4464  0.2104 -0.7289
   59SAPC   H3Y 4518   5.845   5.672   6.605  3.4346 -0.1858  3.0518
   59SAPC   C34 4519   5.918   5.809   6.445 -0.1762 -0.2403  1.1104
   59SAPC   H4X 4520   6.018   5.761   6.450 -0.1276 -0.1966  0.6180
   59SAPC   H4Y 4521   5.936   5.919   6.440 -0.7132 -0.2001 -1.0201
   59SAPC   C35 4522   5.847   5.753   6.318  0.0771  0.1259 -0.0601
   59SAPC   H5X 4523   5.749   5.803   6.308  0.9546  1.6737 -1.3508
   59SAPC   H5Y 4524   5.840   5.643   6.333 -0.5951  0.0684 -0.7255
   59SAPC   C36 4525   5.928   5.783   6.189  0.7408  0.3011 -0.4580
   59SAPC   H6X 4526   6.026   5.736   6.209  0.7509  0.8196  0.7951
   59SAPC   H6Y 4527   5.945   5.893   6.192  2.5647  0.1130 -1.8995
   59SAPC   C37 4528   5.870   5.729   6.057  0.2572 -0.3202 -0.2922
   59SAPC   H7X 4529   5.762   5.757   6.057 -0.0042 -1.0203 -3.0311
   59SAPC   H7Y 4530   5.876   5.618   6.058 -1.4237 -0.4368  1.2013
   59SAPC   C38 4531   5.922   5.797   5.930 -0.5053  0.4017 -0.3481
   59SAPC   H8X 4532   6.032   5.783   5.943 -0.4532  0.7549 -0.4008
   59SAPC   H8Y 4533   5.888   5.902   5.939 -1.2905  0.2123 -1.0212
   59SAPC   C39 4534   5.871   5.725   5.805  0.3425 -0.3145 -0.5462
   59SAPC   H9X 4535   5.853   5.616   5.820 -0.5306 -0.4529 -2.3045
   59SAPC   H9Y 4536   5.953   5.737   5.731  0.5065  1.0538 -0.1759
   59SAPC  C310 4537   5.742   5.792   5.760  0.0194  0.3486 -0.6091
   59SAPC  H10X 4538   5.779   5.893   5.732  2.1972  0.0435  0.9227
   59SAPC  H10Y 4539   5.675   5.802   5.847 -0.7989  0.4031 -1.2334
   59SAPC  C311 4540   5.673   5.717   5.647  0.1488  0.1368  0.4100
   59SAPC  H11X 4541   5.578   5.770   5.627 -0.1765  0.1448  1.9321
   59SAPC  H11Y 4542   5.625   5.626   5.688  1.5061 -2.0788 -2.4756
   59SAPC  C312 4543   5.756   5.695   5.523 -0.5967  0.3378 -0.7036
   59SAPC  H12X 4544   5.725   5.614   5.453  0.5051  0.7545 -1.7131
   59SAPC  H12Y 4545   5.860   5.667   5.549 -1.3468 -1.5658  0.4794
   59SAPC  C313 4546   5.783   5.826   5.442  0.3951  0.2231  0.0862
   59SAPC  H13X 4547   5.883   5.830   5.393  1.7294  3.7022  2.6534
   59SAPC  H13Y 4548   5.797   5.907   5.517 -0.9330  0.9142 -0.3923
   59SAPC  C314 4549   5.671   5.862   5.344 -0.2199 -0.3216 -0.2416
   59SAPC  H14X 4550   5.576   5.870   5.400  0.8535  0.7992  1.5113
   59SAPC  H14Y 4551   5.662   5.781   5.268  1.4253 -1.1169  0.3645
   59SAPC  C315 4552   5.691   5.999   5.271 -0.5168  0.1521  0.6842
   59SAPC  H15X 4553   5.727   6.076   5.343  1.7570 -0.6573  0.5004
   59SAPC  H15Y 4554   5.595   6.022   5.221 -1.1735  0.1258  1.9038
   59SAPC  C316 4555   5.798   5.981   5.162 -0.0664  0.3282  0.0980
   59SAPC  H16X 4556   5.769   5.887   5.110  0.7992 -0.4537  1.0010
   59SAPC  H16Y 4557   5.896   5.963   5.211 -0.2468  0.1698  0.4003
   59SAPC  C317 4558   5.801   6.093   5.057 -0.3201  0.7119 -0.5386
   59SAPC  H17X 4559   5.822   6.186   5.114  2.1210 -0.6015  0.8803
   59SAPC  H17Y 4560   5.700   6.100   5.013 -1.5260 -0.3261  1.8590
   59SAPC  C318 4561   5.903   6.065   4.947 -0.2880 -0.5294  0.6306
   59SAPC  H18X 4562   6.006   6.040   4.981  0.3038  2.2162  1.0876
   59SAPC  H18Y 4563   5.910   6.158   4.888 -1.6226 -0.7111  0.1466
   59SAPC  H18Z 4564   5.868   5.977   4.887  0.9816 -1.6991  1.5448
   60SAPC     N 4565   6.034   6.657   7.159 -0.5301  0.1951 -0.3455
   60SAPC   C12 4566   5.922   6.590   7.085 -0.0377  0.4733  0.0749
   60SAPC  H12A 4567   5.836   6.595   7.149  0.5840  1.3874  0.8705
   60SAPC  H12B 4568   5.941   6.484   7.074  0.2709  0.4704  0.5938
   60SAPC   C13 4569   6.153   6.631   7.074 -0.0460  0.0270 -0.8238
   60SAPC  H13A 4570   6.244   6.655   7.126 -0.7044 -1.5439  1.1695
   60SAPC  H13B 4571   6.146   6.525   7.056  0.8239  0.1266 -1.8374
   60SAPC  H13C 4572   6.140   6.680   6.978 -1.1176 -1.3892 -1.4378
   60SAPC   C14 4573   6.021   6.799   7.188  0.0488  0.2656  0.5628
   60SAPC  H14A 4574   6.121   6.831   7.211  1.2486 -1.7647 -1.4119
   60SAPC  H14B 4575   5.997   6.854   7.098  3.0267  2.2661  0.8611
   60SAPC  H14C 4576   5.958   6.823   7.272  0.2226  2.3946  0.1472
   60SAPC   C15 4577   6.070   6.592   7.292 -0.0116 -0.0972 -1.0182
   60SAPC  H15A 4578   6.007   6.618   7.375  2.4617  0.7288  0.7281
   60SAPC  H15B 4579   6.097   6.488   7.290  0.2545 -0.1500  1.9066
   60SAPC  H15C 4580   6.158   6.638   7.336  0.5734 -1.3726 -0.8070
   60SAPC   C11 4581   5.882   6.638   6.938 -0.0096  0.0525 -0.2857
   60SAPC  H11A 4582   5.806   6.565   6.904  0.0206 -0.6251  1.0279
   60SAPC  H11B 4583   5.966   6.629   6.866  0.6228  0.0798  0.4326
   60SAPC     P 4584   5.673   6.802   6.978 -0.0326  0.0353  0.0174
   60SAPC   O13 4585   5.666   6.823   7.125 -0.9132  0.5845  0.4334
   60SAPC   O14 4586   5.635   6.920   6.900 -0.0352 -0.8429 -0.9084
   60SAPC   O12 4587   5.828   6.771   6.939  0.5073  0.1928 -0.6336
   60SAPC   O11 4588   5.601   6.678   6.931 -0.0797 -0.1305  0.3101
   60SAPC    C1 4589   5.603   6.636   6.793  0.9026  0.2942  0.4882
   60SAPC    HA 4590   5.701   6.657   6.747  0.8974  0.9272  0.7654
   60SAPC    HB 4591   5.574   6.528   6.788  2.4362 -0.1671  1.0873
   60SAPC    C2 4592   5.509   6.713   6.705 -0.2277 -0.0555  0.2171
   60SAPC    HS 4593   5.538   6.820   6.699 -0.4384  0.0915  1.4695
   60SAPC   O21 4594   5.377   6.703   6.741 -0.1005  0.7766 -0.1375
   60SAPC   C21 4595   5.294   6.801   6.711  0.3604  0.1284  0.4881
   60SAPC   O22 4596   5.330   6.910   6.672  0.4040  0.2750 -0.2581
   60SAPC   C22 4597   5.144   6.762   6.728  0.1219 -0.3743  0.2760
   60SAPC   H2R 4598   5.145   6.665   6.782 -0.5130  0.5306  1.9785
   60SAPC   H2S 4599   5.083   6.836   6.784  0.8744  0.1345  0.4380
   60SAPC    C3 4600   5.522   6.658   6.567 -0.3362  0.2471 -0.4746
   60SAPC    HX 4601   5.456   6.568   6.567 -0.7152  0.4740  1.6438
   60SAPC    HY 4602   5.627   6.633   6.541 -1.1299 -2.4025 -1.4564
   60SAPC   O31 4603   5.454   6.735   6.470  0.0871  0.4081  0.0842
   60SAPC   C31 4604   5.528   6.820   6.395  0.5180 -0.0438 -0.1098
   60SAPC   O32 4605   5.650   6.812   6.386 -0.3472  0.2151 -0.3752
   60SAPC   C32 4606   5.441   6.924   6.325 -0.3547 -1.0169  0.0046
   60SAPC   H2X 4607   5.459   7.017   6.384  0.2500 -2.2412  1.8068
   60SAPC   H2Y 4608   5.335   6.894   6.340 -0.9525 -1.0646 -3.4919
   60SAPC   C23 4609   5.080   6.734   6.590  0.1071  0.5565  0.1267
   60SAPC   H3R 4610   5.134   6.651   6.540  0.5853  0.6721  0.4439
   60SAPC   H3S 4611   5.098   6.820   6.523  0.9332  0.2143 -0.1063
   60SAPC   C24 4612   4.933   6.704   6.596  0.3626  0.5796 -0.2998
   60SAPC   H4R 4613   4.898   6.704   6.490 -2.7769  1.1866  0.6194
   60SAPC   H4S 4614   4.869   6.781   6.644 -0.4207  1.1784 -2.2127
   60SAPC   C25 4615   4.910   6.572   6.660  0.1586 -0.5307 -0.0506
   60SAPC   H5R 4616   4.952   6.556   6.760 -1.9890 -1.7110  0.7463
   60SAPC   C26 4617   4.838   6.472   6.607  0.4081  0.5594  0.4308
   60SAPC   H6R 4618   4.841   6.372   6.652  1.2258 -0.1816 -1.1881
   60SAPC   C27 4619   4.767   6.471   6.475  0.0108  0.3966 -0.4493
   60SAPC   H7R 4620   4.840   6.457   6.393  2.3025 -1.1288  1.7226
   60SAPC   H7S 4621   4.705   6.562   6.460  0.2168  0.4986 -0.6874
   60SAPC   C28 4622   4.665   6.355   6.475 -0.2025 -0.1052 -0.0567
   60SAPC   H8R 4623   4.646   6.296   6.566  1.3856 -0.5365  0.0172
   60SAPC   C29 4624   4.599   6.310   6.369  0.6530  0.2778  0.2874
   60SAPC   H9R 4625   4.534   6.222   6.384 -0.3538  0.9619  0.0586
   60SAPC  C210 4626   4.611   6.360   6.229  0.3627 -0.1026  0.3714
   60SAPC  H10R 4627   4.544   6.289   6.175 -0.7401  0.9968  0.2463
   60SAPC  H10S 4628   4.716   6.343   6.198  0.1278 -1.9628  0.4709
   60SAPC  C211 4629   4.576   6.509   6.213 -0.6003 -0.4414 -0.2200
   60SAPC  H11R 4630   4.590   6.572   6.302 -1.7619 -0.6812  0.1388
   60SAPC  C212 4631   4.513   6.570   6.111 -0.9961  0.6644 -0.8325
   60SAPC  H12R 4632   4.502   6.679   6.115 -1.5289  0.5688  1.4233
   60SAPC  C213 4633   4.474   6.503   5.979  0.1662  0.0595 -0.2978
   60SAPC  H13R 4634   4.380   6.542   5.937 -0.2178 -1.2968 -0.7563
   60SAPC  H13S 4635   4.446   6.398   6.003  0.8355  0.6579  3.9155
   60SAPC  C214 4636   4.577   6.512   5.873  0.0619  0.5486  0.6007
   60SAPC  H14R 4637   4.651   6.431   5.882 -0.4440  0.0643  0.4343
   60SAPC  C215 4638   4.601   6.621   5.797 -0.3602  0.0746  1.0797
   60SAPC  H15R 4639   4.690   6.608   5.733 -1.0243  1.6684 -0.2400
   60SAPC  C216 4640   4.526   6.756   5.792  0.0871  0.2115  0.0763
   60SAPC  H16R 4641   4.601   6.828   5.831 -0.5123  1.1233 -0.4239
   60SAPC  H16S 4642   4.442   6.753   5.865 -1.8165 -0.5432 -2.0392
   60SAPC  C217 4643   4.468   6.789   5.653 -0.3018  0.2047 -0.1866
   60SAPC  H17R 4644   4.398   6.874   5.668 -0.5291 -0.4295  3.2415
   60SAPC  H17S 4645   4.403   6.708   5.614 -0.3373  0.3795 -0.4957
   60SAPC  C218 4646   4.574   6.829   5.551  0.7448 -0.2695 -1.0868
   60SAPC  H18R 4647   4.637   6.738   5.539  0.6680 -0.5850  0.5887
   60SAPC  H18S 4648   4.651   6.897   5.592  0.4402  0.4399 -1.6831
   60SAPC  C219 4649   4.520   6.883   5.415 -0.1110  0.0847  0.3050
   60SAPC  H19R 4650   4.475   6.796   5.362 -0.4356  0.3276  0.1740
   60SAPC  H19S 4651   4.608   6.911   5.354  1.6117 -0.6973  2.3223
   60SAPC  C220 4652   4.430   7.002   5.419  0.4209 -0.3969  0.2981
   60SAPC  H20R 4653   4.386   7.026   5.320 -0.0826  0.0317  0.6199
   60SAPC  H20S 4654   4.480   7.098   5.445 -0.5055  0.0764  0.3856
   60SAPC  H20T 4655   4.345   6.978   5.486 -1.2503  1.3543 -1.0733
   60SAPC   C33 4656   5.469   6.925   6.168  0.5641 -1.3014  0.5096
   60SAPC   H3X 4657   5.577   6.921   6.146  0.9373  3.1398  0.7176
   60SAPC   H3Y 4658   5.433   7.019   6.122  1.6937  0.6032  3.2597
   60SAPC   C34 4659   5.408   6.801   6.106  0.4995  0.6924 -0.3297
   60SAPC   H4X 4660   5.297   6.809   6.118  0.7186  1.4230  1.6847
   60SAPC   H4Y 4661   5.442   6.699   6.135 -2.9447 -0.3911  0.4212
   60SAPC   C35 4662   5.446   6.794   5.958 -0.6049  0.2580  0.5287
   60SAPC   H5X 4663   5.549   6.754   5.956 -1.0172 -0.8565  0.7700
   60SAPC   H5Y 4664   5.445   6.889   5.901  0.1832 -0.4256 -0.6660
   60SAPC   C36 4665   5.364   6.698   5.871 -0.5494 -0.7618 -0.0282
   60SAPC   H6X 4666   5.263   6.744   5.876 -0.4377 -0.4689 -0.4492
   60SAPC   H6Y 4667   5.365   6.592   5.903 -0.8570 -0.3247  1.4876
   60SAPC   C37 4668   5.414   6.690   5.719 -0.4946  0.0307  0.4999
   60SAPC   H7X 4669   5.340   6.616   5.682  1.5207 -0.8666 -2.0560
   60SAPC   H7Y 4670   5.517   6.652   5.704 -0.0364  0.6771  1.8850
   60SAPC   C38 4671   5.394   6.824   5.651 -0.9712 -0.1415 -0.4825
   60SAPC   H8X 4672   5.485   6.888   5.649 -2.0586  1.4517 -1.0477
   60SAPC   H8Y 4673   5.318   6.877   5.713 -0.6824 -0.1890 -0.0781
   60SAPC   C39 4674   5.357   6.819   5.506 -0.2435  0.5308 -0.1855
   60SAPC   H9X 4675   5.387   6.916   5.461  0.9524  0.4679  0.4149
   60SAPC   H9Y 4676   5.248   6.803   5.494  0.0304 -0.4801 -1.5085
   60SAPC  C310 4677   5.425   6.698   5.423  0.3406 -0.5509 -0.6317
   60SAPC  H10X 4678   5.393   6.602   5.470 -0.4633 -0.4576 -0.9670
   60SAPC  H10Y 4679   5.533   6.697   5.449 -0.4498 -3.5992  3.6477
   60SAPC  C311 4680   5.401   6.709   5.272 -0.2274  0.8308 -0.3883
   60SAPC  H11X 4681   5.426   6.814   5.243 -1.7400  1.9842  2.1270
   60SAPC  H11Y 4682   5.294   6.692   5.250  0.1404 -2.1051 -0.1847
   60SAPC  C312 4683   5.502   6.602   5.191 -0.0950  0.0318  0.3675
   60SAPC  H12X 4684   5.448   6.578   5.097  0.7661  0.0989 -0.1628
   60SAPC  H12Y 4685   5.488   6.512   5.253  1.1094  0.4938  1.3555
   60SAPC  C313 4686   5.643   6.652   5.162  0.0461 -0.3187 -0.2421
   60SAPC  H13X 4687   5.696   6.666   5.258 -1.5302 -1.4374  0.8528
   60SAPC  H13Y 4688   5.631   6.751   5.114  4.7907  0.2370 -0.7154
   60SAPC  C314 4689   5.713   6.568   5.062 -1.1470 -0.5436 -0.3212
   60SAPC  H14X 4690   5.633   6.535   4.993 -1.5681 -0.0806 -0.0674
   60SAPC  H14Y 4691   5.748   6.477   5.115 -1.7842 -0.8259 -0.3758
   60SAPC  C315 4692   5.822   6.644   4.987 -0.1650 -0.3513 -0.1717
   60SAPC  H15X 4693   5.891   6.696   5.058  2.8716 -2.3520 -1.4130
   60SAPC  H15Y 4694   5.780   6.724   4.923 -0.6563  0.5968  1.2840
   60SAPC  C316 4695   5.901   6.553   4.890 -0.3416  0.4670  0.4503
   60SAPC  H16X 4696   5.820   6.513   4.825 -0.7927  0.3490  1.0756
   60SAPC  H16Y 4697   5.955   6.475   4.948  1.9141  2.7404  1.6118
   60SAPC  C317 4698   6.004   6.621   4.803  0.2009 -0.4718 -0.2434
   60SAPC  H17X 4699   6.060   6.545   4.745 -2.9827 -2.1082 -1.4099
   60SAPC  H17Y 4700   6.066   6.673   4.880  0.6166 -2.2141  0.6358
   60SAPC  C318 4701   5.935   6.726   4.705  0.0163  0.1977  0.9536
   60SAPC  H18X 4702   5.892   6.820   4.747 -1.5974  0.4617 -1.1167
   60SAPC  H18Y 4703   5.845   6.676   4.662 -0.0036 -0.4745  1.7520
   60SAPC  H18Z 4704   6.000   6.763   4.623 -0.8120  0.7393  0.5272
   61SAPC     N 4705   4.492   6.208   7.748 -0.5052 -0.0596  0.2159
   61SAPC   C12 4706   4.438   6.329   7.675 -0.2906  1.0553  0.3884
   61SAPC  H12A 4707   4.494   6.417   7.702  2.2829 -0.5177  0.4844
   61SAPC  H12B 4708   4.333   6.338   7.699 -1.0666 -0.5425 -1.9847
   61SAPC   C13 4709   4.482   6.238   7.894 -0.1203  0.4768 -0.1242
   61SAPC  H13A 4710   4.521   6.156   7.953 -0.0924  0.0610 -0.7137
   61SAPC  H13B 4711   4.527   6.330   7.931  1.3114 -0.0407 -0.5002
   61SAPC  H13C 4712   4.379   6.246   7.925  0.5981  0.4557  2.6075
   61SAPC   C14 4713   4.423   6.087   7.720  0.2421  0.6144  0.4679
   61SAPC  H14A 4714   4.319   6.115   7.733  0.6464  1.4795  2.0387
   61SAPC  H14B 4715   4.442   6.049   7.621 -0.4958  1.2238  0.0877
   61SAPC  H14C 4716   4.447   6.009   7.791 -0.5823  0.1150  0.2172
   61SAPC   C15 4717   4.639   6.193   7.715  0.0101  0.5026 -0.3741
   61SAPC  H15A 4718   4.659   6.176   7.610  1.0863  0.7218 -0.2155
   61SAPC  H15B 4719   4.694   6.279   7.751 -0.6319  0.3490  1.0455
   61SAPC  H15C 4720   4.681   6.108   7.768 -0.0494  0.1690 -0.8533
   61SAPC   C11 4721   4.441   6.329   7.515  0.1728 -0.0424 -0.6673
   61SAPC  H11A 4722   4.365   6.403   7.485 -0.4368 -0.6043 -0.5255
   61SAPC  H11B 4723   4.403   6.231   7.478 -1.1549  0.5641 -0.9653
   61SAPC     P 4724   4.644   6.487   7.459 -0.0424 -0.0702 -0.0787
   61SAPC   O13 4725   4.608   6.551   7.591  0.5566 -0.2846  0.3060
   61SAPC   O14 4726   4.785   6.474   7.426  0.4717 -0.1651  0.2178
   61SAPC   O12 4727   4.571   6.352   7.466 -0.0173 -0.6380  0.4379
   61SAPC   O11 4728   4.566   6.564   7.348 -0.1751 -0.1797 -0.2408
   61SAPC    C1 4729   4.529   6.504   7.224 -0.1318 -0.2117  0.1790
   61SAPC    HA 4730   4.512   6.395   7.236 -1.1118 -0.1263 -0.3808
   61SAPC    HB 4731   4.430   6.549   7.201 -1.5752 -3.0837  0.2954
   61SAPC    C2 4732   4.633   6.522   7.106  0.5072  0.0366  0.0835
   61SAPC    HS 4733   4.734   6.503   7.149  1.4637 -0.8001 -2.3615
   61SAPC   O21 4734   4.627   6.660   7.056 -0.0174 -0.6637 -0.1601
   61SAPC   C21 4735   4.734   6.694   6.995 -0.0725 -0.2144  0.0311
   61SAPC   O22 4736   4.832   6.630   6.984 -0.5422 -0.0479 -0.5408
   61SAPC   C22 4737   4.717   6.829   6.936  0.3785 -0.0199  0.0693
   61SAPC   H2R 4738   4.743   6.826   6.828 -0.8197 -3.4014 -0.2462
   61SAPC   H2S 4739   4.615   6.874   6.941  1.2529  1.9487  2.9951
   61SAPC    C3 4740   4.616   6.417   6.993  0.3746 -0.0623 -0.2050
   61SAPC    HX 4741   4.626   6.317   7.041 -1.6278 -0.3467 -0.2640
   61SAPC    HY 4742   4.703   6.434   6.927  0.2113 -0.9571 -0.6689
   61SAPC   O31 4743   4.485   6.428   6.924  0.3146  0.1249  0.1116
   61SAPC   C31 4744   4.462   6.339   6.832 -0.4383  0.2426 -0.0903
   61SAPC   O32 4745   4.532   6.243   6.809  0.2761 -0.3951  0.1694
   61SAPC   C32 4746   4.336   6.385   6.761  0.4521  0.3098 -0.0593
   61SAPC   H2X 4747   4.299   6.476   6.812 -1.0916 -0.1709 -0.2612
   61SAPC   H2Y 4748   4.258   6.313   6.793  2.6892 -2.8966 -1.2936
   61SAPC   C23 4749   4.819   6.934   6.999 -0.4843  0.1861 -0.1669
   61SAPC   H3R 4750   4.926   6.922   6.975 -0.8795  0.5743 -2.3233
   61SAPC   H3S 4751   4.803   6.931   7.109  0.6095 -0.9100 -0.0130
   61SAPC   C24 4752   4.782   7.083   6.977  0.0331 -0.3141  0.2646
   61SAPC   H4R 4753   4.848   7.149   7.038  0.5015 -1.6243  1.2125
   61SAPC   H4S 4754   4.675   7.105   6.999  0.0396  2.7125 -2.0787
   61SAPC   C25 4755   4.797   7.129   6.837  0.7907 -0.2165  0.2163
   61SAPC   H5R 4756   4.899   7.138   6.796  0.0119 -2.2340 -2.4167
   61SAPC   C26 4757   4.705   7.157   6.749  0.3880  0.1074  0.1375
   61SAPC   H6R 4758   4.736   7.202   6.653 -0.7242  1.3472  0.3309
   61SAPC   C27 4759   4.553   7.160   6.776  0.0598  0.6821 -0.4323
   61SAPC   H7R 4760   4.535   7.057   6.813  2.5533  0.3186 -0.1005
   61SAPC   H7S 4761   4.494   7.163   6.682  0.3249 -2.7879 -0.8250
   61SAPC   C28 4762   4.498   7.263   6.871 -0.5113 -0.8713 -0.9466
   61SAPC   H8R 4763   4.476   7.224   6.971  2.2194  0.0792  0.1018
   61SAPC   C29 4764   4.459   7.388   6.846  0.2991  1.0421  0.1834
   61SAPC   H9R 4765   4.410   7.453   6.920 -2.2665  0.5668 -0.9847
   61SAPC  C210 4766   4.459   7.441   6.705 -0.1430 -0.3729  0.0887
   61SAPC  H10R 4767   4.377   7.514   6.689 -0.8839 -0.7581  1.9439
   61SAPC  H10S 4768   4.452   7.359   6.629  1.8607  0.5469 -1.1608
   61SAPC  C211 4769   4.587   7.506   6.666 -0.1848  0.1112 -0.0619
   61SAPC  H11R 4770   4.617   7.586   6.735  1.0346 -0.6080  0.2663
   61SAPC  C212 4771   4.655   7.485   6.555 -0.0772 -1.1767  0.6935
   61SAPC  H12R 4772   4.751   7.540   6.552 -0.0818 -1.2064 -1.3920
   61SAPC  C213 4773   4.625   7.393   6.437  0.2474  0.4967 -0.2573
   61SAPC  H13R 4774   4.578   7.295   6.461 -1.5087  1.4381  0.3305
   61SAPC  H13S 4775   4.722   7.371   6.388 -0.5895  2.2703 -2.9079
   61SAPC  C214 4776   4.527   7.452   6.335 -0.5452  0.3180 -0.6827
   61SAPC  H14R 4777   4.456   7.528   6.372  0.9468  0.8591  1.2732
   61SAPC  C215 4778   4.523   7.424   6.208  0.3556  0.7141  0.6947
   61SAPC  H15R 4779   4.450   7.473   6.141  1.4228  2.0811  0.4926
   61SAPC  C216 4780   4.599   7.315   6.132  0.3662  0.0078 -0.3384
   61SAPC  H16R 4781   4.530   7.241   6.087 -0.2208 -0.7572  1.7288
   61SAPC  H16S 4782   4.663   7.259   6.202 -2.0421 -2.5902 -0.0353
   61SAPC  C217 4783   4.676   7.381   6.019  0.3011 -0.5564  0.5541
   61SAPC  H17R 4784   4.740   7.304   5.970  1.2034  0.0702  0.7186
   61SAPC  H17S 4785   4.755   7.446   6.062 -0.9661  1.0804  0.5050
   61SAPC  C218 4786   4.600   7.453   5.903 -0.3539 -0.1267  0.0241
   61SAPC  H18R 4787   4.671   7.469   5.819 -1.0929  3.8596 -0.0785
   61SAPC  H18S 4788   4.587   7.556   5.943  0.9761 -0.1565  0.5992
   61SAPC  C219 4789   4.472   7.393   5.849  0.5449 -0.2545  0.2820
   61SAPC  H19R 4790   4.424   7.462   5.776 -0.5551  0.1681  1.3822
   61SAPC  H19S 4791   4.396   7.385   5.929  1.4498  2.1309  1.4943
   61SAPC  C220 4792   4.495   7.256   5.782  0.2482  0.7140 -0.6755
   61SAPC  H20R 4793   4.417   7.228   5.707  0.3751 -1.4288 -0.0848
   61SAPC  H20S 4794   4.491   7.168   5.850  2.6565  1.3315  0.3353
   61SAPC  H20T 4795   4.590   7.262   5.724 -0.5985 -0.9302 -2.3793
   61SAPC   C33 4796   4.348   6.407   6.608 -0.5993 -0.5746  0.0564
   61SAPC   H3X 4797   4.396   6.314   6.571  0.4889 -0.1724  0.4120
   61SAPC   H3Y 4798   4.408   6.500   6.597 -1.2143 -0.0699  0.8260
   61SAPC   C34 4799   4.213   6.427   6.539  0.9827 -0.2438  0.2139
   61SAPC   H4X 4800   4.154   6.507   6.588  0.9608 -0.1275 -0.0026
   61SAPC   H4Y 4801   4.146   6.339   6.551  0.2217 -0.4485 -3.9965
   61SAPC   C35 4802   4.215   6.437   6.385 -0.2643 -0.3105  0.0059
   61SAPC   H5X 4803   4.274   6.360   6.330 -0.1979  1.2604 -2.2630
   61SAPC   H5Y 4804   4.263   6.531   6.352 -0.9993 -0.6289 -2.1234
   61SAPC   C36 4805   4.074   6.448   6.321 -0.5304  0.2577 -0.0634
   61SAPC   H6X 4806   4.024   6.544   6.347  1.3133  1.6041 -1.2387
   61SAPC   H6Y 4807   4.017   6.362   6.363 -1.1054  1.6232  2.1042
   61SAPC   C37 4808   4.083   6.429   6.161 -0.7426  0.6098  0.4522
   61SAPC   H7X 4809   4.178   6.472   6.122 -0.8957  1.7769  1.3112
   61SAPC   H7Y 4810   4.012   6.505   6.121  0.6047  2.2544  1.0382
   61SAPC   C38 4811   4.052   6.287   6.118 -0.0816 -0.0483  0.5181
   61SAPC   H8X 4812   3.957   6.245   6.158 -1.6411  0.4591 -2.3574
   61SAPC   H8Y 4813   4.134   6.219   6.147 -0.3696 -0.4788  0.3302
   61SAPC   C39 4814   4.034   6.275   5.967  0.2876 -0.0969 -0.5159
   61SAPC   H9X 4815   3.926   6.295   5.954  0.3440  1.2441  0.8352
   61SAPC   H9Y 4816   4.055   6.169   5.940  1.7921 -0.2790  1.1716
   61SAPC  C310 4817   4.106   6.379   5.875  0.2611  0.2947 -0.4927
   61SAPC  H10X 4818   4.206   6.388   5.922 -0.2149 -2.0607  1.1905
   61SAPC  H10Y 4819   4.053   6.476   5.878  0.4606  0.4618 -1.9560
   61SAPC  C311 4820   4.119   6.343   5.723  0.2658 -0.8427 -0.3200
   61SAPC  H11X 4821   4.185   6.253   5.722  1.2345 -0.1436 -0.3347
   61SAPC  H11Y 4822   4.163   6.429   5.668 -1.8280 -0.3176 -1.2477
   61SAPC  C312 4823   3.986   6.313   5.661  0.5990  0.5084 -0.2870
   61SAPC  H12X 4824   3.909   6.393   5.673 -1.2508 -0.3548 -4.5450
   61SAPC  H12Y 4825   3.946   6.215   5.695 -0.2283  0.7918 -0.4103
   61SAPC  C313 4826   3.990   6.286   5.500  0.0474 -0.1203  0.0001
   61SAPC  H13X 4827   4.077   6.223   5.472  0.3968  0.5803 -0.5095
   61SAPC  H13Y 4828   4.016   6.382   5.452 -0.8690  0.3462  0.4162
   61SAPC  C314 4829   3.864   6.235   5.436  0.3991  0.3851 -0.8527
   61SAPC  H14X 4830   3.776   6.265   5.496  0.8160  2.9615 -1.4252
   61SAPC  H14Y 4831   3.870   6.124   5.430  1.0556  0.4851 -2.3255
   61SAPC  C315 4832   3.845   6.279   5.294 -0.2449 -0.3702  0.1374
   61SAPC  H15X 4833   3.930   6.248   5.230  0.7778  0.4754  1.0482
   61SAPC  H15Y 4834   3.840   6.390   5.294  0.2102 -0.3248 -1.3643
   61SAPC  C316 4835   3.705   6.237   5.233 -0.8196 -0.6431 -0.1197
   61SAPC  H16X 4836   3.632   6.222   5.315 -2.0227  1.2210 -0.8002
   61SAPC  H16Y 4837   3.715   6.135   5.190  0.7379 -1.1413  1.2871
   61SAPC  C317 4838   3.633   6.336   5.142  0.2379  0.0652  0.2215
   61SAPC  H17X 4839   3.618   6.438   5.183  0.2916  1.1071 -2.2071
   61SAPC  H17Y 4840   3.532   6.293   5.131  0.2613 -0.2569  1.1616
   61SAPC  C318 4841   3.683   6.348   5.005 -0.4722  0.1519 -0.0968
   61SAPC  H18X 4842   3.618   6.392   4.926  0.1067 -0.6540 -1.0625
   61SAPC  H18Y 4843   3.706   6.247   4.963 -2.6237 -1.1077  1.5528
   61SAPC  H18Z 4844   3.772   6.414   5.013 -0.4058  0.2279 -1.2332
   62SAPC     N 4845   1.126   3.376   7.359 -0.4598 -0.0183 -0.7366
   62SAPC   C12 4846   1.215   3.253   7.347  0.3023  0.7678 -0.0347
   62SAPC  H12A 4847   1.222   3.213   7.247  0.3786  0.1762  0.2017
   62SAPC  H12B 4848   1.179   3.167   7.401 -0.0294  0.2048 -1.1330
   62SAPC   C13 4849   1.173   3.493   7.288  0.1143 -0.2480 -0.7455
   62SAPC  H13A 4850   1.162   3.484   7.181  1.2483  2.6143 -1.2018
   62SAPC  H13B 4851   1.117   3.581   7.319  0.5746 -0.6351  1.3460
   62SAPC  H13C 4852   1.274   3.519   7.315 -0.2306  1.2514 -0.7811
   62SAPC   C14 4853   0.990   3.339   7.309 -0.6242 -0.2960 -0.0334
   62SAPC  H14A 4854   0.928   3.425   7.290 -1.3210 -0.3883  1.6441
   62SAPC  H14B 4855   1.000   3.289   7.214 -0.9455  0.0175 -0.2339
   62SAPC  H14C 4856   0.939   3.269   7.374  1.5955 -1.6273  0.3879
   62SAPC   C15 4857   1.106   3.415   7.505 -0.0678  0.0437  0.0251
   62SAPC  H15A 4858   1.013   3.470   7.502  0.2484  0.5488 -0.8326
   62SAPC  H15B 4859   1.079   3.326   7.560 -1.2972  0.4724  0.1493
   62SAPC  H15C 4860   1.190   3.468   7.548  0.8635 -0.3309 -1.2983
   62SAPC   C11 4861   1.367   3.274   7.374  0.2177  0.2636  0.3564
   62SAPC  H11A 4862   1.427   3.184   7.351  1.9104  1.9034 -2.2021
   62SAPC  H11B 4863   1.368   3.304   7.481 -2.3511  4.0666 -0.4702
   62SAPC     P 4864   1.528   3.475   7.347  0.1023  0.1218  0.3005
   62SAPC   O13 4865   1.467   3.603   7.383 -0.1296  0.0521  0.0937
   62SAPC   O14 4866   1.604   3.400   7.445  0.0903  0.0425 -0.4229
   62SAPC   O12 4867   1.417   3.381   7.299  0.2290  0.1801  1.0466
   62SAPC   O11 4868   1.620   3.496   7.217  0.3572 -0.7853  0.0041
   62SAPC    C1 4869   1.579   3.582   7.106  0.3936 -0.5353  0.3472
   62SAPC    HA 4870   1.511   3.659   7.149 -0.5577 -0.3897 -1.3556
   62SAPC    HB 4871   1.665   3.637   7.063  2.6079 -0.2562  4.5794
   62SAPC    C2 4872   1.502   3.516   6.992 -0.3129  0.3542  0.2530
   62SAPC    HS 4873   1.434   3.443   7.040  1.1402 -0.6034  0.9446
   62SAPC   O21 4874   1.589   3.455   6.896 -0.9470 -0.0764  0.4113
   62SAPC   C21 4875   1.579   3.323   6.875  0.4439 -0.0431  0.1386
   62SAPC   O22 4876   1.489   3.254   6.918 -0.2030 -0.0359 -0.3401
   62SAPC   C22 4877   1.706   3.276   6.810 -0.3250  0.2113  0.1369
   62SAPC   H2R 4878   1.785   3.267   6.888  0.9961 -0.3353 -1.2216
   62SAPC   H2S 4879   1.685   3.175   6.769 -0.6350 -0.3702  1.6398
   62SAPC    C3 4880   1.408   3.616   6.914 -0.8690 -0.2900  0.0711
   62SAPC    HX 4881   1.478   3.683   6.858 -2.5379 -0.5013 -2.4216
   62SAPC    HY 4882   1.350   3.681   6.982 -2.4266  0.4389 -1.8700
   62SAPC   O31 4883   1.321   3.559   6.815 -1.0054  0.2854 -0.0434
   62SAPC   C31 4884   1.217   3.508   6.878 -0.1697 -0.1077 -0.0903
   62SAPC   O32 4885   1.203   3.491   6.998  0.1334  0.2349 -0.6472
   62SAPC   C32 4886   1.109   3.463   6.784  0.0287 -0.1386  0.6696
   62SAPC   H2X 4887   1.116   3.522   6.690 -1.3731 -3.0258 -1.4017
   62SAPC   H2Y 4888   1.006   3.482   6.820  0.4021  1.2683  1.0295
   62SAPC   C23 4889   1.761   3.364   6.694 -0.1857  0.3150 -0.8334
   62SAPC   H3R 4890   1.785   3.466   6.732  0.7018 -0.9625  2.3948
   62SAPC   H3S 4891   1.674   3.378   6.627 -1.0833  0.9802  0.4204
   62SAPC   C24 4892   1.883   3.309   6.621 -0.2300 -0.4785  0.3041
   62SAPC   H4R 4893   1.959   3.283   6.698 -1.3129 -1.5727  1.0481
   62SAPC   H4S 4894   1.923   3.393   6.560  0.5602 -1.2088 -0.2019
   62SAPC   C25 4895   1.839   3.188   6.538  0.1232  0.3147 -0.2522
   62SAPC   H5R 4896   1.804   3.100   6.595  1.8620  0.2404  0.7795
   62SAPC   C26 4897   1.822   3.194   6.405  0.2468  0.1559  0.1670
   62SAPC   H6R 4898   1.787   3.103   6.354 -0.7876 -1.2116  3.0825
   62SAPC   C27 4899   1.860   3.317   6.312  0.2189  0.0454 -0.4067
   62SAPC   H7R 4900   1.846   3.411   6.369  1.8525 -0.0581  0.2363
   62SAPC   H7S 4901   1.783   3.332   6.234 -1.4900 -2.1309  0.7327
   62SAPC   C28 4902   2.010   3.314   6.274 -0.3881  0.1397 -0.1152
   62SAPC   H8R 4903   2.080   3.302   6.359 -2.0401 -1.2396  1.1093
   62SAPC   C29 4904   2.054   3.332   6.153 -0.1884  0.2950 -0.3409
   62SAPC   H9R 4905   2.159   3.308   6.131 -0.3875  0.5695 -1.6893
   62SAPC  C210 4906   1.977   3.349   6.026 -0.3442  0.8614  0.5734
   62SAPC  H10R 4907   1.880   3.404   6.024 -1.7184 -1.2602 -3.3424
   62SAPC  H10S 4908   1.943   3.244   6.007  1.7590  0.7365 -3.6868
   62SAPC  C211 4909   2.057   3.407   5.909  0.5235 -0.2389 -0.4021
   62SAPC  H11R 4910   2.105   3.502   5.938  0.2923 -0.2976  0.2008
   62SAPC  C212 4911   2.081   3.346   5.793 -0.6716 -0.7437  0.4009
   62SAPC  H12R 4912   2.135   3.407   5.719 -0.8008 -0.3894  0.5956
   62SAPC  C213 4913   2.032   3.211   5.751  0.1745  1.2588  0.2420
   62SAPC  H13R 4914   1.923   3.201   5.771 -0.1769  2.8554 -0.7305
   62SAPC  H13S 4915   2.073   3.128   5.812  0.9816  0.7698 -0.9348
   62SAPC  C214 4916   2.070   3.183   5.609 -0.2052  0.3951 -0.0226
   62SAPC  H14R 4917   2.156   3.235   5.564 -0.7604  2.5124  1.2396
   62SAPC  C215 4918   2.004   3.091   5.533 -0.1778 -0.2406 -0.0340
   62SAPC  H15R 4919   2.056   3.066   5.440  1.0784 -1.4306  0.9387
   62SAPC  C216 4920   1.889   3.004   5.581  0.0169  0.4080 -0.4375
   62SAPC  H16R 4921   1.822   3.076   5.633 -0.4803  1.1604 -2.0381
   62SAPC  H16S 4922   1.921   2.923   5.650 -0.0662 -1.0592 -2.0577
   62SAPC  C217 4923   1.811   2.937   5.463  0.3106 -0.0609 -0.0493
   62SAPC  H17R 4924   1.788   3.014   5.387  0.4407  0.1367  0.1103
   62SAPC  H17S 4925   1.711   2.908   5.502  0.1507  0.7942  0.2101
   62SAPC  C218 4926   1.873   2.826   5.382  0.6714 -0.1856 -0.5411
   62SAPC  H18R 4927   1.876   2.739   5.451 -2.2375 -0.6374 -0.8515
   62SAPC  H18S 4928   1.980   2.855   5.372  0.5872  0.0605 -0.7416
   62SAPC  C219 4929   1.819   2.806   5.248  0.2665 -0.5818 -0.7794
   62SAPC  H19R 4930   1.849   2.887   5.179  2.6019  0.7534  1.6537
   62SAPC  H19S 4931   1.708   2.808   5.249  0.2791  0.6220 -0.2002
   62SAPC  C220 4932   1.851   2.669   5.188 -0.4238 -0.1590  0.0253
   62SAPC  H20R 4933   1.808   2.585   5.247 -1.1865 -0.2382 -0.6227
   62SAPC  H20S 4934   1.960   2.653   5.174 -0.3907 -0.5645  0.7221
   62SAPC  H20T 4935   1.806   2.657   5.087 -0.3394  0.2523 -0.0596
   62SAPC   C33 4936   1.128   3.315   6.730 -0.2353 -0.1676 -0.3026
   62SAPC   H3X 4937   1.040   3.281   6.672  1.0838 -0.8657 -1.9898
   62SAPC   H3Y 4938   1.122   3.252   6.821  1.1786 -1.2966 -0.9429
   62SAPC   C34 4939   1.265   3.283   6.668 -0.2906 -0.4193  0.7376
   62SAPC   H4X 4940   1.290   3.175   6.675  0.9889 -0.1607  0.4690
   62SAPC   H4Y 4941   1.350   3.327   6.725  1.5907 -0.3492 -1.9108
   62SAPC   C35 4942   1.278   3.296   6.517 -0.3191 -0.0444 -0.0840
   62SAPC   H5X 4943   1.248   3.398   6.485 -3.0152 -1.1212 -1.3226
   62SAPC   H5Y 4944   1.203   3.227   6.472  0.3127 -0.0755 -1.1471
   62SAPC   C36 4945   1.428   3.270   6.474 -0.2204 -0.3238  0.0293
   62SAPC   H6X 4946   1.468   3.175   6.516 -2.4012  0.3082  4.0980
   62SAPC   H6Y 4947   1.494   3.349   6.515  1.3716 -0.8810 -1.3480
   62SAPC   C37 4948   1.434   3.280   6.317  0.3584 -0.3071  0.1836
   62SAPC   H7X 4949   1.355   3.218   6.269 -0.3884  0.1435  0.8029
   62SAPC   H7Y 4950   1.535   3.242   6.290  0.7599  0.2917  0.8087
   62SAPC   C38 4951   1.417   3.423   6.276 -0.0830 -0.1808  0.8636
   62SAPC   H8X 4952   1.493   3.493   6.317 -1.0949  0.9819  0.8161
   62SAPC   H8Y 4953   1.327   3.477   6.312  1.3250  1.7225  1.7260
   62SAPC   C39 4954   1.427   3.433   6.117  0.5752  0.4865  0.4037
   62SAPC   H9X 4955   1.355   3.360   6.073  1.4730  0.8402 -1.7863
   62SAPC   H9Y 4956   1.531   3.409   6.089  0.6642  2.7960 -1.5908
   62SAPC  C310 4957   1.397   3.572   6.057  0.8890  0.3203  0.6077
   62SAPC  H10X 4958   1.459   3.651   6.105 -0.8337  1.3569  1.2344
   62SAPC  H10Y 4959   1.292   3.603   6.079  1.1997  0.9105  1.2913
   62SAPC  C311 4960   1.411   3.578   5.907  0.5732  0.4925 -0.0749
   62SAPC  H11X 4961   1.335   3.507   5.868  0.3036  1.5462 -1.5389
   62SAPC  H11Y 4962   1.516   3.548   5.888  1.0092  2.0611 -0.2536
   62SAPC  C312 4963   1.378   3.714   5.853 -0.4658 -0.0603  0.0127
   62SAPC  H12X 4964   1.459   3.779   5.892 -0.5117 -0.4049  0.6969
   62SAPC  H12Y 4965   1.289   3.757   5.904 -1.0365 -1.9961  0.7297
   62SAPC  C313 4966   1.364   3.711   5.700 -0.7919 -0.4652 -0.1224
   62SAPC  H13X 4967   1.282   3.636   5.698 -1.1011 -0.1162 -0.7072
   62SAPC  H13Y 4968   1.461   3.681   5.654  0.0317 -3.1089  2.8805
   62SAPC  C314 4969   1.324   3.848   5.644 -0.3028 -0.4086 -0.1038
   62SAPC  H14X 4970   1.412   3.915   5.633  0.2953 -1.1565  0.0200
   62SAPC  H14Y 4971   1.256   3.893   5.719 -0.2479 -0.4902 -0.0053
   62SAPC  C315 4972   1.244   3.841   5.513  0.7221 -0.5583 -0.4118
   62SAPC  H15X 4973   1.209   3.945   5.493  0.2694 -0.6186  0.0578
   62SAPC  H15Y 4974   1.153   3.780   5.526 -0.0148  0.7034  0.6388
   62SAPC  C316 4975   1.328   3.798   5.392 -0.4086  0.2488 -0.8206
   62SAPC  H16X 4976   1.368   3.695   5.405  2.0435  1.1511 -0.6715
   62SAPC  H16Y 4977   1.415   3.865   5.376  0.0774 -0.7912 -2.8543
   62SAPC  C317 4978   1.248   3.814   5.255  0.0787 -0.2798  0.0547
   62SAPC  H17X 4979   1.319   3.783   5.176 -0.4958 -0.7503 -0.2880
   62SAPC  H17Y 4980   1.229   3.923   5.247  2.7575  0.4021  1.7841
   62SAPC  C318 4981   1.121   3.741   5.234  0.3405 -0.1965 -0.8189
   62SAPC  H18X 4982   1.058   3.754   5.324  2.8990  1.7577  0.8457
   62SAPC  H18Y 4983   1.144   3.633   5.223  1.8131  0.3298 -4.8224
   62SAPC  H18Z 4984   1.069   3.780   5.143 -0.0187  1.4646  0.0592
   63SAPC     N 4985   0.340   1.837   7.408  0.0243  0.6930 -0.2755
   63SAPC   C12 4986   0.385   1.877   7.268 -0.3850  0.2952 -0.9491
   63SAPC  H12A 4987   0.492   1.872   7.258 -0.3587 -2.2619 -0.0499
   63SAPC  H12B 4988   0.355   1.977   7.240 -0.2642  1.5582  2.8259
   63SAPC   C13 4989   0.373   1.698   7.454 -0.0755  0.6016 -0.3517
   63SAPC  H13A 4990   0.362   1.709   7.560  1.6697 -1.1627  0.0691
   63SAPC  H13B 4991   0.311   1.627   7.402  1.1668 -0.0541 -0.9826
   63SAPC  H13C 4992   0.476   1.667   7.454 -0.5561 -1.8531  4.4329
   63SAPC   C14 4993   0.401   1.917   7.520  0.3806  0.2284  0.2189
   63SAPC  H14A 4994   0.377   2.021   7.507 -2.1932  0.3176  4.0770
   63SAPC  H14B 4995   0.367   1.879   7.616  0.9245  1.2403  0.8294
   63SAPC  H14C 4996   0.506   1.897   7.538 -0.2704 -1.7646  2.2671
   63SAPC   C15 4997   0.194   1.858   7.424  0.0699 -0.2950  0.3128
   63SAPC  H15A 4998   0.179   1.964   7.438 -1.7927 -0.4271 -0.4533
   63SAPC  H15B 4999   0.149   1.829   7.331  0.3713  1.1569 -0.3105
   63SAPC  H15C 5000   0.156   1.812   7.514 -0.8734  2.5641  1.5116
   63SAPC   C11 5001   0.334   1.785   7.155  0.6619  0.2866 -0.0114
   63SAPC  H11A 5002   0.345   1.678   7.182 -0.8783 -0.7609 -3.0648
   63SAPC  H11B 5003   0.403   1.788   7.069  1.6369 -2.1464  0.6031
   63SAPC     P 5004   0.151   1.949   7.073  0.0483 -0.2090  0.2974
   63SAPC   O13 5005   0.019   1.987   7.119  0.4757 -0.0817  0.2456
   63SAPC   O14 5006   0.260   2.043   7.097  0.4673 -0.0596 -0.1537
   63SAPC   O12 5007   0.193   1.810   7.137 -0.4440  0.1306 -0.2500
   63SAPC   O11 5008   0.146   1.900   6.922 -0.4466 -0.6819 -0.0782
   63SAPC    C1 5009   0.136   1.765   6.880 -0.3024  0.2291 -0.2599
   63SAPC    HA 5010   0.233   1.712   6.894 -0.5284 -0.1527 -0.1256
   63SAPC    HB 5011   0.074   1.700   6.946 -0.3713 -0.7460 -1.2491
   63SAPC    C2 5012   0.079   1.757   6.743  0.3533 -0.0610 -0.7133
   63SAPC    HS 5013   0.030   1.658   6.735  2.7142 -1.4597  0.9415
   63SAPC   O21 5014   0.200   1.762   6.662 -0.4442  0.0101 -0.4515
   63SAPC   C21 5015   0.205   1.679   6.567 -0.6509 -0.3554  0.4843
   63SAPC   O22 5016   0.127   1.589   6.544  0.6455 -0.5877  0.0008
   63SAPC   C22 5017   0.330   1.696   6.483 -0.1587 -0.3936  0.0725
   63SAPC   H2R 5018   0.414   1.644   6.535  0.1802 -0.0864 -0.1662
   63SAPC   H2S 5019   0.317   1.636   6.391 -1.2244 -1.0151  0.6053
   63SAPC    C3 5020  -0.035   1.856   6.704 -0.3273 -0.4573  0.5759
   63SAPC    HX 5021   0.006   1.958   6.717 -2.5832  0.5888  0.0133
   63SAPC    HY 5022  -0.119   1.835   6.773 -0.0195 -2.0607  0.5117
   63SAPC   O31 5023  -0.106   1.822   6.585 -0.4164 -0.2214  0.6361
   63SAPC   C31 5024  -0.098   1.910   6.480  0.0752 -0.5583 -0.0725
   63SAPC   O32 5025  -0.037   2.015   6.477 -0.2226 -0.0545  0.4602
   63SAPC   C32 5026  -0.167   1.843   6.361 -0.8180  0.3334 -0.8114
   63SAPC   H2X 5027  -0.275   1.821   6.373 -0.7540 -1.2272 -2.7614
   63SAPC   H2Y 5028  -0.125   1.744   6.336 -3.1812 -0.9505  0.0433
   63SAPC   C23 5029   0.379   1.845   6.447  0.1334  1.0413 -0.4548
   63SAPC   H3R 5030   0.464   1.835   6.376 -0.7443 -1.7904 -1.2245
   63SAPC   H3S 5031   0.422   1.888   6.541  0.0082  2.8042 -1.1612
   63SAPC   C24 5032   0.277   1.937   6.376 -0.3610 -0.6448 -0.4366
   63SAPC   H4R 5033   0.193   1.957   6.445  0.1311  1.6297 -0.4139
   63SAPC   H4S 5034   0.237   1.889   6.285 -1.3274 -2.0414  0.6887
   63SAPC   C25 5035   0.339   2.073   6.340  0.1233 -0.0049 -0.2288
   63SAPC   H5R 5036   0.411   2.121   6.408  1.7849 -0.1883 -1.7818
   63SAPC   C26 5037   0.327   2.111   6.208 -0.1965 -0.2690 -0.2876
   63SAPC   H6R 5038   0.374   2.204   6.172 -1.6858  0.4188 -0.5295
   63SAPC   C27 5039   0.250   2.050   6.097 -0.5583  0.6213  0.1761
   63SAPC   H7R 5040   0.154   2.006   6.130 -0.6066  0.3981 -0.2505
   63SAPC   H7S 5041   0.304   1.958   6.064 -1.3195  1.3719 -3.6574
   63SAPC   C28 5042   0.226   2.139   5.974  0.3870  0.0340  0.0787
   63SAPC   H8R 5043   0.139   2.207   5.976 -0.0475 -0.5231  0.7938
   63SAPC   C29 5044   0.293   2.148   5.860  0.3092  0.5674  0.8338
   63SAPC   H9R 5045   0.256   2.219   5.784 -0.1836 -0.2583  0.2859
   63SAPC  C210 5046   0.417   2.067   5.829  0.8320 -0.1885  0.2081
   63SAPC  H10R 5047   0.413   2.040   5.721 -3.3718  0.8557 -0.0384
   63SAPC  H10S 5048   0.404   1.966   5.872  0.1326 -0.0174  0.4043
   63SAPC  C211 5049   0.561   2.111   5.878  0.1650 -0.0740  0.1915
   63SAPC  H11R 5050   0.579   2.139   5.983  2.3418  0.5715 -0.2981
   63SAPC  C212 5051   0.667   2.141   5.795  0.0289  0.6174  0.1890
   63SAPC  H12R 5052   0.759   2.181   5.841 -0.2201  0.9114  0.4396
   63SAPC  C213 5053   0.662   2.132   5.639  0.0886  0.1574 -0.1217
   63SAPC  H13R 5054   0.630   2.032   5.602 -2.5780  1.6350 -2.1661
   63SAPC  H13S 5055   0.766   2.126   5.599 -0.2421 -0.0560 -0.9885
   63SAPC  C214 5056   0.567   2.230   5.573 -0.1959  0.6991  0.1464
   63SAPC  H14R 5057   0.482   2.257   5.637 -0.3164  1.4321 -0.3077
   63SAPC  C215 5058   0.576   2.310   5.460  0.0779  0.5659  0.3260
   63SAPC  H15R 5059   0.495   2.379   5.430 -1.0879 -0.8949  0.0228
   63SAPC  C216 5060   0.689   2.303   5.351  0.0990  0.6081 -0.3451
   63SAPC  H16R 5061   0.779   2.247   5.385 -0.3731 -0.0796 -0.2066
   63SAPC  H16S 5062   0.735   2.403   5.341 -1.8457  1.4969 -0.7480
   63SAPC  C217 5063   0.635   2.247   5.225  0.4290 -0.5934  0.4844
   63SAPC  H17R 5064   0.547   2.307   5.193 -0.7583 -1.7265  1.5391
   63SAPC  H17S 5065   0.594   2.144   5.220 -1.8500  0.3007 -0.3799
   63SAPC  C218 5066   0.740   2.247   5.106 -0.6787 -0.3437 -0.3203
   63SAPC  H18R 5067   0.823   2.186   5.148  1.8958  3.1392  0.1134
   63SAPC  H18S 5068   0.782   2.350   5.097 -0.5088 -0.2513  1.1833
   63SAPC  C219 5069   0.686   2.206   4.967  0.7041 -0.0113 -0.4311
   63SAPC  H19R 5070   0.753   2.249   4.890  0.9594 -1.2287 -0.9105
   63SAPC  H19S 5071   0.587   2.256   4.954 -0.4511 -1.2758  2.5863
   63SAPC  C220 5072   0.680   2.055   4.938 -0.2774  0.1096  0.3572
   63SAPC  H20R 5073   0.649   2.035   4.833 -0.8894 -2.4207  0.9661
   63SAPC  H20S 5074   0.593   2.009   4.989 -1.9875  0.9315 -1.6806
   63SAPC  H20T 5075   0.770   2.001   4.973 -1.0174  0.4547  3.0490
   63SAPC   C33 5076  -0.139   1.934   6.244 -0.2701 -0.2731 -0.0911
   63SAPC   H3X 5077  -0.033   1.965   6.245 -0.3308 -0.0350 -0.6157
   63SAPC   H3Y 5078  -0.202   2.025   6.255  0.7365  0.4726 -0.4111
   63SAPC   C34 5079  -0.165   1.844   6.117 -0.2110 -0.0766 -0.1326
   63SAPC   H4X 5080  -0.085   1.767   6.108 -0.4895 -0.4557  0.6110
   63SAPC   H4Y 5081  -0.151   1.894   6.019  2.7649  0.4769  0.4619
   63SAPC   C35 5082  -0.305   1.772   6.110  0.3976  0.3440  0.3922
   63SAPC   H5X 5083  -0.374   1.857   6.091  0.7843  0.2935 -1.3839
   63SAPC   H5Y 5084  -0.334   1.715   6.201 -1.4549 -0.2335 -0.5256
   63SAPC   C36 5085  -0.317   1.671   5.991  0.1869 -0.0890  1.0322
   63SAPC   H6X 5086  -0.422   1.634   5.999 -0.2188  1.3318  3.6111
   63SAPC   H6Y 5087  -0.262   1.576   6.008 -0.3820 -0.3628  1.4067
   63SAPC   C37 5088  -0.302   1.731   5.851 -0.3325  0.4603  0.3193
   63SAPC   H7X 5089  -0.200   1.775   5.847 -0.3941  0.8468  2.1723
   63SAPC   H7Y 5090  -0.372   1.817   5.840  0.0861  0.9015  1.0368
   63SAPC   C38 5091  -0.340   1.627   5.744 -0.5240  0.3811 -0.8137
   63SAPC   H8X 5092  -0.439   1.589   5.776 -0.8253  0.8403 -1.1962
   63SAPC   H8Y 5093  -0.269   1.541   5.747  0.6745  1.3352 -0.7228
   63SAPC   C39 5094  -0.347   1.677   5.598 -0.3166 -0.3714  0.1693
   63SAPC   H9X 5095  -0.407   1.769   5.616  0.2562 -0.0293  0.3666
   63SAPC   H9Y 5096  -0.419   1.615   5.541 -1.7868  0.3192  1.1779
   63SAPC  C310 5097  -0.213   1.701   5.529  0.6582 -0.7066  0.3675
   63SAPC  H10X 5098  -0.144   1.616   5.547  2.6783  0.6063 -0.6736
   63SAPC  H10Y 5099  -0.156   1.788   5.570 -0.1045 -0.2705  0.5201
   63SAPC  C311 5100  -0.223   1.691   5.378 -0.5112  0.6340 -0.2695
   63SAPC  H11X 5101  -0.300   1.765   5.347 -3.2731 -1.1161  1.9004
   63SAPC  H11Y 5102  -0.272   1.596   5.349 -0.4113 -0.0312  1.5998
   63SAPC  C312 5103  -0.086   1.700   5.304  0.8893 -0.3351 -0.1708
   63SAPC  H12X 5104  -0.000   1.652   5.356  1.1784  1.8702  1.5190
   63SAPC  H12Y 5105  -0.044   1.803   5.300 -0.0533  0.1232  1.1599
   63SAPC  C313 5106  -0.097   1.643   5.157 -0.1281  0.0031 -0.8032
   63SAPC  H13X 5107  -0.173   1.698   5.098 -0.7312  0.6884  0.5660
   63SAPC  H13Y 5108  -0.131   1.537   5.160 -0.5075  0.0535 -2.4807
   63SAPC  C314 5109   0.034   1.635   5.075  0.3606  0.2433 -0.1052
   63SAPC  H14X 5110   0.004   1.586   4.980 -2.5675  2.2953 -0.3492
   63SAPC  H14Y 5111   0.086   1.555   5.132 -0.8468 -0.3274  0.2350
   63SAPC  C315 5112   0.101   1.768   5.067  0.3766  0.1361 -0.0678
   63SAPC  H15X 5113   0.160   1.786   5.159 -0.4784 -1.0765  0.7468
   63SAPC  H15Y 5114   0.033   1.854   5.048  0.3119  0.1216  0.0979
   63SAPC  C316 5115   0.216   1.769   4.965 -0.1654 -0.0923  0.8175
   63SAPC  H16X 5116   0.187   1.763   4.857 -0.9804  0.9437  0.9603
   63SAPC  H16Y 5117   0.279   1.679   4.981 -0.1617 -0.5519 -1.4237
   63SAPC  C317 5118   0.305   1.896   4.975  0.0585 -0.0147  0.0297
   63SAPC  H17X 5119   0.379   1.890   5.057 -1.1256  0.4347  1.1649
   63SAPC  H17Y 5120   0.242   1.987   4.985 -0.5952 -0.0913 -2.6241
   63SAPC  C318 5121   0.391   1.919   4.846 -0.6272  1.0536 -0.1558
   63SAPC  H18X 5122   0.327   1.891   4.760 -0.5030 -0.8181  0.3160
   63SAPC  H18Y 5123   0.479   1.852   4.837 -0.8260  0.5548  1.3352
   63SAPC  H18Z 5124   0.427   2.023   4.831  2.5871  0.3067  1.3401
   64SAPC     N 5125   6.347   3.966   7.887  0.1667  0.6404 -0.7910
   64SAPC   C12 5126   6.225   4.052   7.891 -0.4402 -0.4457 -0.3822
   64SAPC  H12A 5127   6.248   4.148   7.933 -2.8497 -0.0920  0.2997
   64SAPC  H12B 5128   6.153   4.010   7.960 -2.2402  1.2422 -1.1354
   64SAPC   C13 5129   6.457   4.034   7.811  0.3362 -0.8277  0.2603
   64SAPC  H13A 5130   6.427   4.053   7.709  0.2040 -1.5470  0.1595
   64SAPC  H13B 5131   6.473   4.132   7.855  2.1656 -0.9878  0.0269
   64SAPC  H13C 5132   6.546   3.974   7.818  0.4307 -0.5424  1.8832
   64SAPC   C14 5133   6.398   3.949   8.030 -0.1422 -0.2043  0.0378
   64SAPC  H14A 5134   6.319   3.915   8.094  1.4093 -0.4495  1.9012
   64SAPC  H14B 5135   6.473   3.872   8.035 -0.6124 -0.7397 -1.0044
   64SAPC  H14C 5136   6.440   4.037   8.077 -1.4693 -0.4610  1.7860
   64SAPC   C15 5137   6.323   3.833   7.835  0.2967  0.4072  0.6822
   64SAPC  H15A 5138   6.417   3.781   7.822  0.1527  0.8117 -2.9081
   64SAPC  H15B 5139   6.266   3.768   7.899  2.1600 -1.1126  0.8892
   64SAPC  H15C 5140   6.286   3.841   7.734 -0.5320 -0.1883  0.9269
   64SAPC   C11 5141   6.148   4.078   7.767  0.1217  0.2308 -0.3968
   64SAPC  H11A 5142   6.064   4.147   7.784 -0.4742 -0.4600 -0.4755
   64SAPC  H11B 5143   6.099   3.981   7.743  0.3093 -0.3473  1.4208
   64SAPC     P 5144   6.250   4.272   7.621 -0.0182  0.0387  0.0359
   64SAPC   O13 5145   6.124   4.352   7.634  0.2718 -0.2609 -0.2839
   64SAPC   O14 5146   6.373   4.321   7.686  0.4506  0.1398 -0.2308
   64SAPC   O12 5147   6.228   4.114   7.650 -0.6032  0.5083 -0.1263
   64SAPC   O11 5148   6.286   4.276   7.464 -0.1956 -0.1765  0.3149
   64SAPC    C1 5149   6.189   4.317   7.372 -0.1481  0.7280  0.1226
   64SAPC    HA 5150   6.106   4.244   7.377 -0.2354  0.8937  1.2348
   64SAPC    HB 5151   6.152   4.420   7.390  0.8719  1.6143 -2.4673
   64SAPC    C2 5152   6.248   4.340   7.229  0.2050 -0.0597 -0.1014
   64SAPC    HS 5153   6.169   4.378   7.161 -0.9887 -1.2466  0.5800
   64SAPC   O21 5154   6.322   4.226   7.181 -0.4503 -0.4756 -0.0727
   64SAPC   C21 5155   6.246   4.128   7.161  0.2915 -0.2100  0.2705
   64SAPC   O22 5156   6.125   4.128   7.144  0.3834 -0.3288  0.2522
   64SAPC   C22 5157   6.331   4.004   7.158 -0.6738  0.0154  0.0327
   64SAPC   H2R 5158   6.400   4.014   7.245 -0.4369  0.2318 -0.1789
   64SAPC   H2S 5159   6.278   3.908   7.174 -1.0891  0.6523  3.1056
   64SAPC    C3 5160   6.347   4.460   7.216 -0.2385 -1.0806 -0.1869
   64SAPC    HX 5161   6.413   4.473   7.305 -1.7429 -2.5946  1.2249
   64SAPC    HY 5162   6.288   4.554   7.220 -4.0988 -3.2951 -0.4803
   64SAPC   O31 5163   6.409   4.452   7.086 -0.1490  0.7436 -0.2663
   64SAPC   C31 5164   6.537   4.434   7.086 -0.4244  0.5066 -0.4777
   64SAPC   O32 5165   6.613   4.407   7.178 -0.2697  0.4451 -0.0706
   64SAPC   C32 5166   6.586   4.439   6.942  0.1690 -0.5872 -0.2130
   64SAPC   H2X 5167   6.697   4.444   6.950  0.2193  1.0976 -1.3335
   64SAPC   H2Y 5168   6.566   4.537   6.892  2.0425 -0.7509 -1.4236
   64SAPC   C23 5169   6.422   4.011   7.028 -0.3058  0.2925  0.2437
   64SAPC   H3R 5170   6.504   3.936   7.015 -0.2733  0.6200 -1.8497
   64SAPC   H3S 5171   6.482   4.104   7.021 -0.0988  0.1171 -0.4555
   64SAPC   C24 5172   6.343   4.004   6.891 -0.9382  0.1479 -0.0435
   64SAPC   H4R 5173   6.424   4.033   6.821  0.9484 -1.3503  1.3996
   64SAPC   H4S 5174   6.264   4.082   6.897  0.5166  1.6918 -0.1341
   64SAPC   C25 5175   6.276   3.878   6.854 -0.4464  0.0500  0.6059
   64SAPC   H5R 5176   6.212   3.824   6.926 -2.3276  1.9467  0.4548
   64SAPC   C26 5177   6.268   3.837   6.725  0.1561  0.0586 -0.5796
   64SAPC   H6R 5178   6.212   3.743   6.716  0.0106  0.0423  0.4069
   64SAPC   C27 5179   6.342   3.891   6.604 -0.5294 -0.0656 -0.4035
   64SAPC   H7R 5180   6.445   3.852   6.599 -0.9156 -1.7859  2.7382
   64SAPC   H7S 5181   6.342   4.002   6.601  1.1113  0.0864  1.8696
   64SAPC   C28 5182   6.276   3.860   6.468 -0.4960 -0.6203  0.1327
   64SAPC   H8R 5183   6.185   3.917   6.447 -0.9793 -2.1770 -2.3312
   64SAPC   C29 5184   6.333   3.789   6.367 -0.3009  0.7732  0.5075
   64SAPC   H9R 5185   6.276   3.773   6.274 -1.6182 -2.0233  1.6789
   64SAPC  C210 5186   6.459   3.711   6.369 -0.1544  0.4201 -0.2040
   64SAPC  H10R 5187   6.539   3.759   6.430 -0.6177 -1.0167  1.6395
   64SAPC  H10S 5188   6.491   3.711   6.263  0.7871 -0.7624  0.0614
   64SAPC  C211 5189   6.449   3.574   6.432 -0.4509 -0.4877 -0.3292
   64SAPC  H11R 5190   6.430   3.585   6.539 -0.4053 -1.2484 -0.2350
   64SAPC  C212 5191   6.478   3.449   6.383 -0.2638  0.1655  0.3203
   64SAPC  H12R 5192   6.441   3.369   6.448 -0.9737  0.4824  0.3101
   64SAPC  C213 5193   6.505   3.405   6.243  0.0337  0.1625  0.2602
   64SAPC  H13R 5194   6.604   3.354   6.250 -0.6790 -1.7749 -2.4003
   64SAPC  H13S 5195   6.532   3.488   6.174 -0.4969  0.6872  0.6759
   64SAPC  C214 5196   6.413   3.300   6.181 -0.9025  0.5870 -0.6329
   64SAPC  H14R 5197   6.393   3.207   6.237  0.3503  0.2692 -0.6920
   64SAPC  C215 5198   6.368   3.314   6.056 -0.3473 -0.1942 -0.3144
   64SAPC  H15R 5199   6.299   3.240   6.012 -1.5394  1.5012 -1.3984
   64SAPC  C216 5200   6.389   3.433   5.962  0.2081  0.1621  0.9154
   64SAPC  H16R 5201   6.492   3.435   5.920 -1.0478 -2.3658 -2.8793
   64SAPC  H16S 5202   6.382   3.534   6.007  1.4757  0.9359 -0.5253
   64SAPC  C217 5203   6.308   3.411   5.839 -0.0664 -0.1530 -0.0415
   64SAPC  H17R 5204   6.318   3.505   5.780  0.8251  0.5522  1.1844
   64SAPC  H17S 5205   6.200   3.412   5.864  0.2278  1.8788  1.4545
   64SAPC  C218 5206   6.338   3.285   5.755 -0.4795 -0.2901 -0.1178
   64SAPC  H18R 5207   6.276   3.298   5.664  1.9011 -1.0806 -1.9689
   64SAPC  H18S 5208   6.306   3.189   5.800 -0.2747  0.3829  1.5288
   64SAPC  C219 5209   6.480   3.280   5.702  0.3117 -0.2081 -0.1009
   64SAPC  H19R 5210   6.556   3.270   5.782  1.5431 -0.4849 -1.2497
   64SAPC  H19S 5211   6.503   3.376   5.650  0.6926  0.3622  1.0750
   64SAPC  C220 5212   6.520   3.161   5.611  0.8376 -0.0873 -0.2520
   64SAPC  H20R 5213   6.628   3.152   5.583  1.3098  1.3956  0.9912
   64SAPC  H20S 5214   6.452   3.157   5.524  0.8152  1.1194 -0.3017
   64SAPC  H20T 5215   6.499   3.069   5.670 -0.0396  0.9177  1.0315
   64SAPC   C33 5216   6.539   4.329   6.854 -1.3155  0.2747  1.0662
   64SAPC   H3X 5217   6.429   4.347   6.859 -1.3225  0.3882  0.5080
   64SAPC   H3Y 5218   6.560   4.227   6.893 -0.0719  0.3217  0.5398
   64SAPC   C34 5219   6.611   4.336   6.716  0.3022 -0.2505  0.9195
   64SAPC   H4X 5220   6.721   4.316   6.716  0.5177  0.7041 -0.7921
   64SAPC   H4Y 5221   6.602   4.436   6.669  3.1803  0.6001  1.9724
   64SAPC   C35 5222   6.552   4.227   6.616  0.2350  0.0046  0.3248
   64SAPC   H5X 5223   6.442   4.242   6.610 -0.3230 -3.1764  1.1576
   64SAPC   H5Y 5224   6.564   4.133   6.673 -0.1718 -0.4251 -0.2925
   64SAPC   C36 5225   6.598   4.233   6.465 -0.2467  0.2631  0.0088
   64SAPC   H6X 5226   6.708   4.230   6.480 -0.1437 -2.5599 -0.7053
   64SAPC   H6Y 5227   6.585   4.334   6.419  2.2936 -0.0342 -1.5299
   64SAPC   C37 5228   6.546   4.128   6.370  0.8955  0.2038 -1.1034
   64SAPC   H7X 5229   6.437   4.116   6.385  1.0725 -1.5165 -0.9960
   64SAPC   H7Y 5230   6.588   4.028   6.395 -2.8257 -1.5041 -0.9625
   64SAPC   C38 5231   6.570   4.163   6.224 -0.1770  0.3436  0.0001
   64SAPC   H8X 5232   6.677   4.190   6.205 -0.0907  0.7600  1.0613
   64SAPC   H8Y 5233   6.503   4.242   6.184 -1.6847 -1.3639 -1.0026
   64SAPC   C39 5234   6.540   4.036   6.139 -0.4981 -0.1275  0.2853
   64SAPC   H9X 5235   6.439   3.996   6.164 -0.9773 -0.4578 -1.9634
   64SAPC   H9Y 5236   6.627   3.970   6.156 -1.2145 -1.4356 -0.8781
   64SAPC  C310 5237   6.543   4.058   5.988  0.0238 -0.6232 -0.3721
   64SAPC  H10X 5238   6.626   4.125   5.958 -0.8836  0.5127 -0.4598
   64SAPC  H10Y 5239   6.443   4.099   5.961 -0.5241 -1.6112  0.1119
   64SAPC  C311 5240   6.554   3.919   5.912  0.1655 -0.4401  0.6325
   64SAPC  H11X 5241   6.449   3.884   5.907  0.2432 -0.5550 -0.4228
   64SAPC  H11Y 5242   6.603   3.848   5.981 -2.0897 -1.2215  1.5099
   64SAPC  C312 5243   6.627   3.933   5.780  0.6233 -0.1129 -0.1026
   64SAPC  H12X 5244   6.735   3.944   5.805  0.1841  0.3008  1.7619
   64SAPC  H12Y 5245   6.595   4.019   5.717  0.4694 -0.1841 -0.1219
   64SAPC  C313 5246   6.613   3.800   5.701 -0.6065 -0.4026  0.1802
   64SAPC  H13X 5247   6.631   3.717   5.772 -0.8871 -0.5556  0.0737
   64SAPC  H13Y 5248   6.687   3.788   5.618  0.1225 -2.4124  1.0643
   64SAPC  C314 5249   6.466   3.785   5.655 -0.1324  0.8230  0.5553
   64SAPC  H14X 5250   6.443   3.886   5.614  1.9947  1.7653  1.4825
   64SAPC  H14Y 5251   6.398   3.767   5.741  0.8579  1.9159  1.6072
   64SAPC  C315 5252   6.446   3.671   5.550  0.7667  0.2909 -0.0358
   64SAPC  H15X 5253   6.468   3.568   5.586 -0.4562 -1.0056 -2.6639
   64SAPC  H15Y 5254   6.516   3.700   5.469 -0.6100  2.3789 -0.5381
   64SAPC  C316 5255   6.312   3.659   5.481  0.3500  0.2216  0.4258
   64SAPC  H16X 5256   6.268   3.759   5.465 -3.9104 -1.1861  1.8519
   64SAPC  H16Y 5257   6.233   3.607   5.541 -0.5725 -1.3883 -2.0187
   64SAPC  C317 5258   6.329   3.574   5.349  0.1326 -0.3735 -0.0721
   64SAPC  H17X 5259   6.369   3.473   5.372  1.4341 -0.2818 -1.7415
   64SAPC  H17Y 5260   6.412   3.600   5.280 -0.9032 -1.8932 -1.9938
   64SAPC  C318 5261   6.196   3.565   5.283 -0.1382 -0.1428  0.1717
   64SAPC  H18X 5262   6.209   3.501   5.193 -0.3041 -1.6333  1.1690
   64SAPC  H18Y 5263   6.158   3.663   5.249  0.1577 -0.3142 -0.6957
   64SAPC  H18Z 5264   6.112   3.523   5.342  0.0846 -0.9865 -0.0959
   65SAPC     N 5265   6.810   4.916   2.730 -0.2033 -0.2908 -0.3087
   65SAPC   C12 5266   6.693   4.958   2.821  0.2152 -0.2579  1.0713
   65SAPC  H12A 5267   6.610   4.965   2.752  1.1182  0.7970  0.0477
   65SAPC  H12B 5268   6.714   5.061   2.848  0.9443  0.0009 -0.3877
   65SAPC   C13 5269   6.944   4.915   2.801  0.1319  0.3713  0.2860
   65SAPC  H13A 5270   6.919   4.865   2.894 -2.1194 -2.0962 -1.4922
   65SAPC  H13B 5271   7.025   4.867   2.750 -1.2636 -0.1880 -1.4865
   65SAPC  H13C 5272   6.974   5.016   2.828 -2.2039  1.0372  0.7112
   65SAPC   C14 5273   6.800   4.776   2.693  0.6830 -0.0076 -0.5801
   65SAPC  H14A 5274   6.712   4.755   2.635 -0.5309 -0.9468  1.4942
   65SAPC  H14B 5275   6.885   4.731   2.643  2.0876 -1.0737  2.5158
   65SAPC  H14C 5276   6.792   4.711   2.779  0.8888  1.3160  0.4673
   65SAPC   C15 5277   6.825   5.008   2.601 -0.3601  0.7436 -0.4824
   65SAPC  H15A 5278   6.826   5.113   2.628 -0.9036  0.0133  2.6922
   65SAPC  H15B 5279   6.911   4.984   2.540 -0.6823  1.5219 -1.2695
   65SAPC  H15C 5280   6.746   4.985   2.531 -1.1398  0.8293  0.3429
   65SAPC   C11 5281   6.644   4.870   2.945 -0.1899 -1.1015 -0.2750
   65SAPC  H11A 5282   6.550   4.907   2.991  0.3619 -2.0517  1.6884
   65SAPC  H11B 5283   6.726   4.877   3.020 -0.2156 -0.7811 -0.2745
   65SAPC     P 5284   6.594   4.620   3.011  0.0649 -0.1560 -0.2485
   65SAPC   O13 5285   6.500   4.671   3.116  0.4793 -0.4275 -0.4396
   65SAPC   O14 5286   6.541   4.507   2.935 -0.5528 -0.7764 -0.5475
   65SAPC   O12 5287   6.625   4.738   2.901 -0.1694 -0.0502 -0.5260
   65SAPC   O11 5288   6.738   4.587   3.073  0.3497 -0.2003 -0.5548
   65SAPC    C1 5289   6.854   4.597   2.989  0.2005  0.1812 -0.3399
   65SAPC    HA 5290   6.838   4.581   2.880  0.6923  0.0056 -0.3889
   65SAPC    HB 5291   6.902   4.696   3.001 -0.0579  0.1176  1.5532
   65SAPC    C2 5292   6.957   4.488   3.032  0.1945  0.0658 -0.5688
   65SAPC    HS 5293   6.906   4.391   3.011  1.6800 -0.7523 -0.5446
   65SAPC   O21 5294   6.983   4.507   3.177  0.0714  0.0533  0.1625
   65SAPC   C21 5295   6.978   4.394   3.246 -0.1827  0.9307 -1.3999
   65SAPC   O22 5296   6.966   4.281   3.204 -0.4709 -0.8416  0.0887
   65SAPC   C22 5297   7.001   4.420   3.395 -0.3113 -0.8438 -0.5551
   65SAPC   H2R 5298   7.105   4.388   3.417  0.2750  0.2684 -1.5748
   65SAPC   H2S 5299   6.995   4.530   3.408  0.7686 -0.5928 -1.9172
   65SAPC    C3 5300   7.086   4.512   2.946  0.3071 -0.0002  0.0242
   65SAPC    HX 5301   7.048   4.499   2.842  0.6517 -0.5056 -0.0374
   65SAPC    HY 5302   7.161   4.431   2.956 -1.0100 -1.4639 -1.4232
   65SAPC   O31 5303   7.140   4.646   2.958  0.8435  0.5026 -0.1577
   65SAPC   C31 5304   7.242   4.669   3.040  0.4251  0.2999 -0.0161
   65SAPC   O32 5305   7.309   4.576   3.090  0.0311  0.6990  0.0499
   65SAPC   C32 5306   7.252   4.817   3.068  0.0879  0.1188  0.1412
   65SAPC   H2X 5307   7.201   4.862   2.980  1.8895  1.4780 -0.2492
   65SAPC   H2Y 5308   7.358   4.847   3.077  0.0861 -0.3312  2.1081
   65SAPC   C23 5309   6.915   4.334   3.493  0.6519 -0.7738 -0.0499
   65SAPC   H3R 5310   6.964   4.235   3.507  3.3126  0.7881  2.8320
   65SAPC   H3S 5311   6.816   4.309   3.449  0.3626 -0.5095  0.4463
   65SAPC   C24 5312   6.912   4.397   3.634 -0.2820 -0.3898 -0.4841
   65SAPC   H4R 5313   7.013   4.414   3.676  0.1305  0.6059 -1.8307
   65SAPC   H4S 5314   6.868   4.319   3.701  1.0111 -1.2412 -0.5892
   65SAPC   C25 5315   6.838   4.527   3.660  0.6005  0.1165 -0.7991
   65SAPC   H5R 5316   6.834   4.584   3.566 -2.2774  1.4825  0.0397
   65SAPC   C26 5317   6.796   4.577   3.778  0.2186  1.0769 -0.4307
   65SAPC   H6R 5318   6.776   4.684   3.785  0.4897  1.1751 -1.0688
   65SAPC   C27 5319   6.807   4.505   3.917  0.2654 -0.2173 -0.3434
   65SAPC   H7R 5320   6.906   4.456   3.928 -0.2204 -1.3530 -0.8477
   65SAPC   H7S 5321   6.739   4.418   3.907 -1.7786  1.3803 -1.2449
   65SAPC   C28 5322   6.774   4.572   4.048 -0.1123 -0.6389  0.0724
   65SAPC   H8R 5323   6.843   4.548   4.130  0.0215 -0.5975 -0.0285
   65SAPC   C29 5324   6.656   4.621   4.074  0.1120  0.2761 -0.1395
   65SAPC   H9R 5325   6.655   4.677   4.169  0.4757  0.7103 -0.3898
   65SAPC  C210 5326   6.531   4.628   3.991 -0.8550  0.1789  0.1416
   65SAPC  H10R 5327   6.467   4.546   4.029  2.1196 -1.3445  2.2836
   65SAPC  H10S 5328   6.557   4.603   3.886  0.2558  3.7655 -0.5779
   65SAPC  C211 5329   6.463   4.764   3.986 -0.2607 -0.9287 -0.1080
   65SAPC  H11R 5330   6.471   4.821   3.892  1.5889 -1.7852 -0.5186
   65SAPC  C212 5331   6.404   4.821   4.094 -0.0110 -0.3018  0.0683
   65SAPC  H12R 5332   6.345   4.913   4.080 -0.1234 -0.4052 -0.1544
   65SAPC  C213 5333   6.384   4.749   4.228 -0.2276  0.1723  0.3134
   65SAPC  H13R 5334   6.441   4.654   4.224  0.8719  0.7113  2.1388
   65SAPC  H13S 5335   6.275   4.727   4.233 -0.5719  1.3646 -1.0768
   65SAPC  C214 5336   6.427   4.826   4.351 -0.1506  0.1970 -0.1999
   65SAPC  H14R 5337   6.394   4.931   4.356 -0.8986 -0.0694  0.5129
   65SAPC  C215 5338   6.499   4.775   4.451 -0.0767  0.3599 -0.0827
   65SAPC  H15R 5339   6.512   4.842   4.537 -2.3147 -0.3464  0.8821
   65SAPC  C216 5340   6.543   4.632   4.469  0.2205  0.5046  0.7378
   65SAPC  H16R 5341   6.634   4.621   4.532  0.1967 -0.4566  0.6229
   65SAPC  H16S 5342   6.585   4.598   4.373 -1.4520 -0.8665  0.4440
   65SAPC  C217 5343   6.436   4.521   4.499  0.0382  0.4926 -0.2979
   65SAPC  H17R 5344   6.489   4.427   4.524  1.6511  1.1196 -1.2235
   65SAPC  H17S 5345   6.367   4.504   4.414 -1.8686 -0.9496  1.4213
   65SAPC  C218 5346   6.346   4.550   4.626 -0.6059  0.7144 -0.1181
   65SAPC  H18R 5347   6.420   4.590   4.698  1.0676  0.1395 -1.4387
   65SAPC  H18S 5348   6.305   4.450   4.652  1.4809  0.1749  1.3265
   65SAPC  C219 5349   6.222   4.640   4.609  0.4231 -0.4426 -0.5386
   65SAPC  H19R 5350   6.168   4.617   4.515 -0.5986  0.5688 -0.2200
   65SAPC  H19S 5351   6.255   4.746   4.607 -2.4241  0.5813  0.8957
   65SAPC  C220 5352   6.137   4.632   4.734  0.4524 -0.1397  0.6067
   65SAPC  H20R 5353   6.073   4.544   4.756  0.7814 -0.7313 -0.7035
   65SAPC  H20S 5354   6.059   4.709   4.748  0.2226 -0.6038  2.0683
   65SAPC  H20T 5355   6.205   4.648   4.821  0.4176 -1.2568  0.8537
   65SAPC   C33 5356   7.175   4.855   3.196 -0.1964 -0.2050 -0.1759
   65SAPC   H3X 5357   7.070   4.821   3.192 -0.5341  0.8271 -0.5694
   65SAPC   H3Y 5358   7.168   4.966   3.194  0.7526 -0.1366 -0.1497
   65SAPC   C34 5359   7.250   4.803   3.320 -0.7086  0.3776  0.6433
   65SAPC   H4X 5360   7.348   4.852   3.335  0.0247  0.1422 -2.7194
   65SAPC   H4Y 5361   7.256   4.692   3.314 -0.3385  0.1899  3.1619
   65SAPC   C35 5362   7.166   4.836   3.443  0.2386  0.0361 -0.0676
   65SAPC   H5X 5363   7.080   4.768   3.426 -0.5799  1.2200 -0.9158
   65SAPC   H5Y 5364   7.122   4.938   3.453 -2.7336 -0.8831 -2.0452
   65SAPC   C36 5365   7.243   4.796   3.569 -1.2710  0.8428 -0.6008
   65SAPC   H6X 5366   7.322   4.871   3.591 -1.1318  0.9715 -1.4733
   65SAPC   H6Y 5367   7.306   4.706   3.552  1.1365  2.1382  1.0312
   65SAPC   C37 5368   7.141   4.756   3.673 -0.0335 -0.3070 -0.4963
   65SAPC   H7X 5369   7.143   4.646   3.693  0.5612  0.1141  2.1674
   65SAPC   H7Y 5370   7.040   4.790   3.641 -0.0151  0.0089 -0.2167
   65SAPC   C38 5371   7.171   4.821   3.811 -0.6282 -0.0676  0.1679
   65SAPC   H8X 5372   7.170   4.932   3.803  0.2123 -0.0251  0.5245
   65SAPC   H8Y 5373   7.271   4.784   3.842 -0.5846 -2.1522 -2.1710
   65SAPC   C39 5374   7.083   4.780   3.938  0.2810 -1.0437  0.3075
   65SAPC   H9X 5375   7.080   4.670   3.953 -1.1722 -1.3259 -1.5749
   65SAPC   H9Y 5376   6.979   4.816   3.922 -0.3654 -1.8844  2.3373
   65SAPC  C310 5377   7.127   4.856   4.064 -0.4867  0.3149  0.3536
   65SAPC  H10X 5378   7.139   4.963   4.039 -0.9921 -0.1027 -1.9257
   65SAPC  H10Y 5379   7.224   4.813   4.098 -0.0797 -0.2157 -1.3508
   65SAPC  C311 5380   7.031   4.835   4.180 -0.2875  0.1013  0.7317
   65SAPC  H11X 5381   7.022   4.727   4.205  0.1229 -0.9074 -2.8691
   65SAPC  H11Y 5382   6.928   4.871   4.160 -0.3571 -0.9809 -1.0339
   65SAPC  C312 5383   7.074   4.902   4.308  0.2994  0.2621  0.1762
   65SAPC  H12X 5384   7.085   5.011   4.295 -1.4671  0.3818 -0.5532
   65SAPC  H12Y 5385   7.177   4.871   4.336  1.0909  2.2293 -0.3965
   65SAPC  C313 5386   6.984   4.875   4.432 -0.2745  0.4185 -0.0869
   65SAPC  H13X 5387   6.874   4.885   4.416 -0.4102 -0.1315  0.4461
   65SAPC  H13Y 5388   7.020   4.951   4.505  0.1857  0.0167  0.1071
   65SAPC  C314 5389   7.000   4.737   4.504  0.2053 -0.1695  0.1119
   65SAPC  H14X 5390   7.106   4.724   4.534  0.0769 -0.4626  0.4534
   65SAPC  H14Y 5391   6.982   4.664   4.423  1.7086 -0.2275 -0.1985
   65SAPC  C315 5392   6.910   4.714   4.622  0.4229 -0.4451  0.2488
   65SAPC  H15X 5393   6.899   4.607   4.646 -0.9301 -0.1579  0.9957
   65SAPC  H15Y 5394   6.805   4.746   4.600 -0.0473 -1.7126  0.6059
   65SAPC  C316 5395   6.963   4.771   4.750 -0.3564 -0.2905 -0.2606
   65SAPC  H16X 5396   6.983   4.879   4.733 -0.5409 -0.0717  0.8584
   65SAPC  H16Y 5397   7.058   4.725   4.784  0.0331  0.9536  0.4141
   65SAPC  C317 5398   6.866   4.769   4.865  1.1035  0.0273  0.8951
   65SAPC  H17X 5399   6.771   4.819   4.834  0.1661 -0.3200  3.0397
   65SAPC  H17Y 5400   6.914   4.812   4.956 -0.0402 -0.2156  1.6326
   65SAPC  C318 5401   6.829   4.628   4.903 -0.4568 -0.1618 -0.1678
   65SAPC  H18X 5402   6.792   4.632   5.008 -0.9766  1.3463 -0.3941
   65SAPC  H18Y 5403   6.919   4.564   4.895  0.3329  1.0854 -1.4443
   65SAPC  H18Z 5404   6.757   4.589   4.827  0.0359  1.0112 -1.2624
   66SAPC     N 5405   5.825   6.219   2.590  0.4956 -0.4761  0.1178
   66SAPC   C12 5406   5.748   6.114   2.676  0.4099  0.2910  0.4423
   66SAPC  H12A 5407   5.674   6.061   2.618 -0.6516  1.2901  0.8453
   66SAPC  H12B 5408   5.695   6.178   2.745  1.2055  1.6115 -0.1302
   66SAPC   C13 5409   5.930   6.298   2.670 -0.0874 -0.2176  0.1167
   66SAPC  H13A 5410   5.873   6.352   2.744  0.7613  0.8849 -0.0025
   66SAPC  H13B 5411   5.992   6.229   2.726 -0.4394  0.0274  0.8264
   66SAPC  H13C 5412   5.985   6.367   2.608 -0.0253 -1.5233 -1.3288
   66SAPC   C14 5413   5.881   6.165   2.465  0.6757 -0.3580 -0.6730
   66SAPC  H14A 5414   5.921   6.243   2.402  2.1251 -2.1514 -2.0744
   66SAPC  H14B 5415   5.956   6.092   2.489  0.7709  0.3892  1.5842
   66SAPC  H14C 5416   5.798   6.125   2.408 -2.0914  5.2385 -1.2812
   66SAPC   C15 5417   5.722   6.332   2.551  0.0690  1.4444 -0.1647
   66SAPC  H15A 5418   5.782   6.406   2.500  1.0223  1.3991  0.8830
   66SAPC  H15B 5419   5.641   6.297   2.488  1.5731 -1.7311 -0.5017
   66SAPC  H15C 5420   5.686   6.390   2.635 -1.1934 -0.3324  0.5718
   66SAPC   C11 5421   5.830   6.009   2.748 -0.2789  0.3628  0.1291
   66SAPC  H11A 5422   5.775   5.955   2.828 -0.4257 -2.2434 -1.5995
   66SAPC  H11B 5423   5.904   6.070   2.805  0.9526 -0.4133 -0.5951
   66SAPC     P 5424   5.821   5.801   2.601  0.0654 -0.3191  0.4323
   66SAPC   O13 5425   5.681   5.832   2.566 -0.5682 -0.0049 -0.6693
   66SAPC   O14 5426   5.891   5.740   2.487 -0.2333 -0.1607  0.4188
   66SAPC   O12 5427   5.907   5.927   2.660  0.4401 -0.1273  0.0376
   66SAPC   O11 5428   5.823   5.689   2.703  0.5748 -0.1428 -0.2541
   66SAPC    C1 5429   5.936   5.662   2.791 -0.7074  0.0837 -0.3041
   66SAPC    HA 5430   5.993   5.572   2.761 -0.1390 -0.0010  0.9668
   66SAPC    HB 5431   6.000   5.752   2.796 -1.6763  0.7995 -0.4459
   66SAPC    C2 5432   5.874   5.642   2.930  0.4093  0.7446 -0.0716
   66SAPC    HS 5433   5.800   5.559   2.931  0.0085  1.0456 -1.6860
   66SAPC   O21 5434   5.823   5.765   2.975  0.1974  0.0524 -0.5902
   66SAPC   C21 5435   5.722   5.755   3.068 -0.1924  0.2245 -0.3833
   66SAPC   O22 5436   5.662   5.655   3.093  0.3433 -0.0565  0.4603
   66SAPC   C22 5437   5.679   5.896   3.108  0.3077 -0.0719 -0.9981
   66SAPC   H2R 5438   5.690   5.968   3.024 -1.0565 -0.7950 -1.8421
   66SAPC   H2S 5439   5.575   5.893   3.147  0.8486  0.3766  0.5798
   66SAPC    C3 5440   5.994   5.594   3.026 -0.5135 -0.4955  0.0092
   66SAPC    HX 5441   6.075   5.670   3.015 -0.7004 -0.4966 -1.6136
   66SAPC    HY 5442   6.035   5.507   2.971  0.9223  0.7651 -1.0093
   66SAPC   O31 5443   5.954   5.578   3.165 -0.7879  0.3791  0.7605
   66SAPC   C31 5444   6.004   5.475   3.236 -0.4149  0.1591  0.3880
   66SAPC   O32 5445   6.085   5.395   3.202 -0.3027  0.7337  0.2772
   66SAPC   C32 5446   5.943   5.470   3.376  0.7984 -0.1087  0.1883
   66SAPC   H2X 5447   5.957   5.366   3.412  4.8686  0.1935 -0.0178
   66SAPC   H2Y 5448   5.837   5.504   3.376  0.6997 -0.2519  2.6009
   66SAPC   C23 5449   5.764   5.951   3.230  0.0804 -0.0462  0.1605
   66SAPC   H3R 5450   5.868   5.964   3.193 -0.0004  3.8684  0.8412
   66SAPC   H3S 5451   5.768   5.872   3.308 -1.0210  0.2676  0.5588
   66SAPC   C24 5452   5.730   6.087   3.293 -0.2736  0.2187  0.5692
   66SAPC   H4R 5453   5.774   6.107   3.393 -0.0897  1.4621  0.2552
   66SAPC   H4S 5454   5.620   6.093   3.307 -0.0681  0.8785  2.0040
   66SAPC   C25 5455   5.770   6.199   3.199  0.0519  0.2689  0.2784
   66SAPC   H5R 5456   5.686   6.260   3.162  0.5675  0.1002 -1.2393
   66SAPC   C26 5457   5.893   6.245   3.182 -0.6511 -0.1727 -0.2676
   66SAPC   H6R 5458   5.905   6.327   3.109  1.2616  0.2730  0.4887
   66SAPC   C27 5459   6.022   6.198   3.247  0.8552  0.0481 -0.3924
   66SAPC   H7R 5460   6.012   6.112   3.317  1.3897  0.9002  0.7478
   66SAPC   H7S 5461   6.059   6.278   3.315 -1.9084 -1.2130  2.8870
   66SAPC   C28 5462   6.120   6.149   3.139 -0.5126  0.4935 -0.3142
   66SAPC   H8R 5463   6.082   6.093   3.053  0.2021 -0.0984 -0.2555
   66SAPC   C29 5464   6.255   6.162   3.160  0.0988 -0.2544 -0.5238
   66SAPC   H9R 5465   6.317   6.134   3.074  0.6576  4.1995 -1.8193
   66SAPC  C210 5466   6.318   6.206   3.294  0.4001 -0.5019 -0.4220
   66SAPC  H10R 5467   6.274   6.130   3.362 -0.3784 -0.0542 -0.4129
   66SAPC  H10S 5468   6.301   6.311   3.327  1.8087 -0.5913  0.6593
   66SAPC  C211 5469   6.467   6.181   3.291 -0.7769  0.7331  0.3504
   66SAPC  H11R 5470   6.518   6.190   3.194  0.6877 -0.8655  0.9149
   66SAPC  C212 5471   6.541   6.136   3.393 -0.5589  0.1106  0.0604
   66SAPC  H12R 5472   6.649   6.121   3.378 -0.8647 -1.6356 -0.5735
   66SAPC  C213 5473   6.507   6.097   3.537 -0.1817  0.1500 -0.7072
   66SAPC  H13R 5474   6.423   6.164   3.567  0.2705  0.8207 -0.8935
   66SAPC  H13S 5475   6.596   6.116   3.600 -0.5305  0.0208 -0.1644
   66SAPC  C214 5476   6.488   5.950   3.557  0.4821 -0.4577  0.2219
   66SAPC  H14R 5477   6.503   5.893   3.464  0.3200  0.0192 -0.1015
   66SAPC  C215 5478   6.440   5.891   3.667  0.4961  0.9636  0.7608
   66SAPC  H15R 5479   6.425   5.783   3.659  0.7179  0.8615  1.6223
   66SAPC  C216 5480   6.405   5.946   3.800 -0.4576 -0.1693 -0.3897
   66SAPC  H16R 5481   6.363   5.870   3.869 -0.3549 -0.9778 -1.1990
   66SAPC  H16S 5482   6.328   6.027   3.795  0.6211  0.9432  0.5415
   66SAPC  C217 5483   6.513   6.016   3.877  1.1779  0.2979  0.0506
   66SAPC  H17R 5484   6.549   6.108   3.827 -0.8136  1.0092 -0.1300
   66SAPC  H17S 5485   6.603   5.952   3.887  1.3850  0.4040 -0.9719
   66SAPC  C218 5486   6.461   6.069   4.017 -0.3058  0.5088  0.8590
   66SAPC  H18R 5487   6.350   6.066   4.017 -0.3466  0.3349 -1.0489
   66SAPC  H18S 5488   6.494   6.175   4.028  2.4362 -0.2623  0.7016
   66SAPC  C219 5489   6.511   5.987   4.134  0.3136 -0.6509 -0.3255
   66SAPC  H19R 5490   6.620   6.004   4.149  0.1879 -0.8685  1.0124
   66SAPC  H19S 5491   6.501   5.877   4.118 -1.6966 -0.5526  0.0597
   66SAPC  C220 5492   6.445   6.012   4.266 -0.2352 -0.3443 -0.3701
   66SAPC  H20R 5493   6.336   5.992   4.251 -0.1980 -0.9704  0.1515
   66SAPC  H20S 5494   6.460   6.120   4.288 -0.4632 -0.5938  1.1318
   66SAPC  H20T 5495   6.488   5.954   4.350 -0.9541 -2.4483 -1.3919
   66SAPC   C33 5496   6.029   5.551   3.475  0.1512 -0.2387  0.1525
   66SAPC   H3X 5497   6.018   5.659   3.451 -1.1875  0.1569  2.3243
   66SAPC   H3Y 5498   6.139   5.532   3.477  0.0763 -0.6690  1.8952
   66SAPC   C34 5499   5.987   5.532   3.625 -0.4465  0.3396  0.4816
   66SAPC   H4X 5500   5.972   5.425   3.649  0.8049  0.2155  0.7862
   66SAPC   H4Y 5501   5.888   5.582   3.635  0.2016  1.7497  0.1093
   66SAPC   C35 5502   6.069   5.622   3.720  0.4585  0.3515  0.0351
   66SAPC   H5X 5503   6.045   5.728   3.697  2.2672  0.6459 -0.6832
   66SAPC   H5Y 5504   6.178   5.601   3.717  0.9552  2.7249 -0.6762
   66SAPC   C36 5505   6.016   5.610   3.860 -0.3455 -0.2185 -0.6650
   66SAPC   H6X 5506   6.018   5.506   3.897  0.4107  0.2581  0.6829
   66SAPC   H6Y 5507   5.909   5.640   3.866 -0.6408 -1.3732  0.0946
   66SAPC   C37 5508   6.106   5.687   3.959 -0.3030 -0.1891  0.1127
   66SAPC   H7X 5509   6.124   5.787   3.915 -1.8453  1.0128  2.0464
   66SAPC   H7Y 5510   6.202   5.634   3.977  0.5099  1.3116  0.3021
   66SAPC   C38 5511   6.039   5.704   4.096  0.1512 -0.0487  0.3189
   66SAPC   H8X 5512   6.014   5.606   4.142 -3.2081  1.1939  1.4378
   66SAPC   H8Y 5513   5.938   5.748   4.083  0.9012  1.7596  0.3293
   66SAPC   C39 5514   6.121   5.801   4.176  1.0567  0.5101 -0.0607
   66SAPC   H9X 5515   6.112   5.907   4.144  0.8022  1.1873  2.0972
   66SAPC   H9Y 5516   6.224   5.759   4.175  0.5641 -0.7202 -0.2971
   66SAPC  C310 5517   6.085   5.816   4.324 -0.5146  0.3612  0.3092
   66SAPC  H10X 5518   5.995   5.881   4.331  0.2693  1.7812 -1.7563
   66SAPC  H10Y 5519   6.173   5.852   4.380 -0.7672  0.5996  0.5548
   66SAPC  C311 5520   6.056   5.687   4.392  0.4897  0.2717  0.0494
   66SAPC  H11X 5521   6.127   5.602   4.382  0.2170  0.2467 -1.8858
   66SAPC  H11Y 5522   5.963   5.643   4.350  0.8622  0.1044 -0.6031
   66SAPC  C312 5523   6.039   5.710   4.539  0.1780 -0.5916  0.1717
   66SAPC  H12X 5524   6.013   5.817   4.551  1.8267 -0.2006  0.4011
   66SAPC  H12Y 5525   6.136   5.696   4.590  2.2985  0.7443 -3.1284
   66SAPC  C313 5526   5.932   5.624   4.608  0.5290  0.4098 -0.4972
   66SAPC  H13X 5527   5.956   5.516   4.608 -2.9253 -0.4828  0.4983
   66SAPC  H13Y 5528   5.840   5.622   4.545 -0.6254 -1.8688  1.1152
   66SAPC  C314 5529   5.908   5.661   4.755  0.0219  0.1044 -0.0047
   66SAPC  H14X 5530   5.798   5.677   4.760 -0.0092  0.0914 -0.5783
   66SAPC  H14Y 5531   5.964   5.754   4.780  0.1951 -0.2669  1.0417
   66SAPC  C315 5532   5.963   5.558   4.854  0.3380  0.4820  0.6471
   66SAPC  H15X 5533   6.067   5.540   4.821 -0.3323 -0.2232 -1.2282
   66SAPC  H15Y 5534   5.906   5.467   4.824 -0.1651  1.6426 -2.3307
   66SAPC  C316 5535   5.955   5.600   4.998 -0.8181 -0.6989 -0.0458
   66SAPC  H16X 5536   5.848   5.611   5.024 -0.2234 -0.9765  2.9256
   66SAPC  H16Y 5537   5.994   5.704   5.002 -1.7154 -0.3865  1.0465
   66SAPC  C317 5538   6.041   5.521   5.093  0.3428  0.4071 -0.4713
   66SAPC  H17X 5539   6.147   5.536   5.062 -0.1154  2.7287 -1.0892
   66SAPC  H17Y 5540   6.020   5.412   5.088 -3.5757  0.8764  1.5953
   66SAPC  C318 5541   6.023   5.577   5.231 -0.0034 -0.3496 -0.3930
   66SAPC  H18X 5542   6.053   5.682   5.252 -2.7337  0.4604 -0.1082
   66SAPC  H18Y 5543   6.078   5.515   5.305  0.6425 -0.0656 -0.6242
   66SAPC  H18Z 5544   5.914   5.568   5.254 -0.0035 -2.8887 -1.0744
   67SAPC     N 5545   1.271   6.687   2.207 -0.3332  0.4189  0.2272
   67SAPC   C12 5546   1.313   6.660   2.348  0.3250 -0.0147  0.2365
   67SAPC  H12A 5547   1.340   6.756   2.391 -1.3839  0.7947 -0.3893
   67SAPC  H12B 5548   1.401   6.599   2.358  1.3934  1.1098 -1.6531
   67SAPC   C13 5549   1.378   6.763   2.141 -0.1781 -0.2642  0.1890
   67SAPC  H13A 5550   1.346   6.787   2.040 -0.4232  2.2024  0.7699
   67SAPC  H13B 5551   1.387   6.861   2.187  1.1938 -0.1589 -0.2626
   67SAPC  H13C 5552   1.473   6.712   2.136  0.2031  0.4104  0.4431
   67SAPC   C14 5553   1.239   6.563   2.133  0.6142 -0.8263  0.7158
   67SAPC  H14A 5554   1.208   6.589   2.033 -0.1894 -0.6748  1.0044
   67SAPC  H14B 5555   1.326   6.500   2.117 -0.0902 -1.6350 -0.0540
   67SAPC  H14C 5556   1.167   6.502   2.185 -1.4457  1.4596  0.6778
   67SAPC   C15 5557   1.150   6.780   2.209  0.6490  1.1945 -0.3284
   67SAPC  H15A 5558   1.157   6.860   2.281 -0.1106  0.2892  0.7757
   67SAPC  H15B 5559   1.117   6.815   2.112  0.1762 -2.0339 -1.4516
   67SAPC  H15C 5560   1.071   6.711   2.233  2.0163  0.0017  0.9526
   67SAPC   C11 5561   1.198   6.587   2.436 -0.5295  0.3816  0.1157
   67SAPC  H11A 5562   1.245   6.532   2.521  0.0953  0.9171  0.1261
   67SAPC  H11B 5563   1.144   6.511   2.376 -0.0945  1.6595 -1.9818
   67SAPC     P 5564   1.157   6.785   2.579 -0.0307  0.0206 -0.1364
   67SAPC   O13 5565   1.265   6.870   2.518  0.2558 -0.3627 -0.1622
   67SAPC   O14 5566   1.040   6.862   2.636  0.2569 -0.4346 -0.4036
   67SAPC   O12 5567   1.105   6.683   2.475  0.1140  0.2035  0.5479
   67SAPC   O11 5568   1.221   6.695   2.683 -0.1695  0.1132 -0.4122
   67SAPC    C1 5569   1.359   6.696   2.723 -0.3087  0.0408  0.0926
   67SAPC    HA 5570   1.422   6.640   2.651 -1.1307  1.3707 -1.7390
   67SAPC    HB 5571   1.395   6.801   2.716 -0.8632  0.2542  0.3866
   67SAPC    C2 5572   1.391   6.645   2.870 -0.3467 -0.0769 -0.0731
   67SAPC    HS 5573   1.475   6.706   2.908 -0.1864 -2.2784  3.6739
   67SAPC   O21 5574   1.419   6.501   2.865 -0.3199 -0.1371 -0.4809
   67SAPC   C21 5575   1.502   6.463   2.964 -0.0825  0.9182  0.2545
   67SAPC   O22 5576   1.581   6.529   3.030  0.3404  0.1404  0.1724
   67SAPC   C22 5577   1.512   6.307   2.961  0.7106 -0.1033  0.1367
   67SAPC   H2R 5578   1.568   6.286   2.867  1.1569  1.6363 -0.0174
   67SAPC   H2S 5579   1.572   6.277   3.049  1.1708  4.1025  1.4731
   67SAPC    C3 5580   1.279   6.669   2.971  0.1028 -0.1370 -0.1873
   67SAPC    HX 5581   1.185   6.618   2.940 -0.3078  0.1686  0.5179
   67SAPC    HY 5582   1.247   6.776   2.978  0.7785  0.0584 -0.0050
   67SAPC   O31 5583   1.313   6.615   3.103 -0.3290 -0.6640  0.7535
   67SAPC   C31 5584   1.392   6.694   3.179  0.2444  0.1192  0.2713
   67SAPC   O32 5585   1.426   6.810   3.156  0.9748 -0.0015 -0.6644
   67SAPC   C32 5586   1.420   6.625   3.309  0.4846  0.3510  0.0277
   67SAPC   H2X 5587   1.509   6.670   3.357 -0.3761 -0.0989  2.1611
   67SAPC   H2Y 5588   1.424   6.515   3.296 -1.0764  0.3271 -0.5276
   67SAPC   C23 5589   1.370   6.247   2.972  0.0272  0.1548  0.4980
   67SAPC   H3R 5590   1.374   6.139   2.947 -2.6959  0.4604 -1.7066
   67SAPC   H3S 5591   1.297   6.289   2.900 -1.4339  0.5780  2.1514
   67SAPC   C24 5592   1.317   6.260   3.112  0.5210 -0.5555 -0.4902
   67SAPC   H4R 5593   1.207   6.249   3.119  0.6605 -1.0887  1.4734
   67SAPC   H4S 5594   1.340   6.366   3.137 -0.0455 -0.7394  0.8949
   67SAPC   C25 5595   1.382   6.170   3.216  0.1270 -0.1448 -0.5810
   67SAPC   H5R 5596   1.488   6.140   3.215  0.3217  0.5153 -0.4760
   67SAPC   C26 5597   1.306   6.109   3.310  0.4753  0.2700 -0.1817
   67SAPC   H6R 5598   1.355   6.050   3.389  1.3792  1.7317  0.3931
   67SAPC   C27 5599   1.166   6.128   3.352 -0.2446 -0.1585 -0.1621
   67SAPC   H7R 5600   1.152   6.238   3.351  0.5556 -0.0335  0.8025
   67SAPC   H7S 5601   1.143   6.107   3.459 -1.0649  0.2986 -0.2363
   67SAPC   C28 5602   1.071   6.056   3.262  0.0003 -0.5169 -0.4499
   67SAPC   H8R 5603   1.100   6.054   3.156 -1.8293 -1.7797 -0.9908
   67SAPC   C29 5604   0.959   6.007   3.303  0.3117  0.3350 -1.3551
   67SAPC   H9R 5605   0.884   5.981   3.228 -2.2648  2.9096  0.1338
   67SAPC  C210 5606   0.898   6.002   3.445 -0.0426  0.0296 -0.2098
   67SAPC  H10R 5607   0.981   6.002   3.519 -0.2979  1.0631  0.1060
   67SAPC  H10S 5608   0.855   5.902   3.466 -0.4564 -0.2672 -2.2989
   67SAPC  C211 5609   0.797   6.109   3.481  0.2757 -0.4630  0.0164
   67SAPC  H11R 5610   0.711   6.117   3.412  0.5898  2.0513 -0.1591
   67SAPC  C212 5611   0.805   6.196   3.581 -0.0116 -0.5812  0.5754
   67SAPC  H12R 5612   0.720   6.262   3.604  0.9131  0.5379  0.8575
   67SAPC  C213 5613   0.907   6.184   3.686  0.0079 -0.0116 -0.2377
   67SAPC  H13R 5614   1.005   6.181   3.635  0.7662 -0.2045  1.1789
   67SAPC  H13S 5615   0.902   6.093   3.749  0.4537  0.7485  0.9348
   67SAPC  C214 5616   0.913   6.299   3.785 -0.2459  0.3716  0.1098
   67SAPC  H14R 5617   0.871   6.393   3.746  0.0705  0.5139  0.1057
   67SAPC  C215 5618   0.960   6.302   3.911  0.1785  0.5605  0.3047
   67SAPC  H15R 5619   0.936   6.388   3.975 -0.7093 -1.2686  2.5959
   67SAPC  C216 5620   1.006   6.184   3.988 -0.6289 -0.0277 -0.2684
   67SAPC  H16R 5621   1.107   6.152   3.955 -0.8797  0.2040 -1.3001
   67SAPC  H16S 5622   0.945   6.095   3.964 -0.9914 -0.1965  1.1923
   67SAPC  C217 5623   0.997   6.201   4.143 -0.1600  0.1509  0.1829
   67SAPC  H17R 5624   1.057   6.288   4.179 -0.7244  1.3811 -1.6929
   67SAPC  H17S 5625   1.040   6.106   4.182  0.4841  0.0013 -0.8644
   67SAPC  C218 5626   0.852   6.217   4.189  0.2960  0.8144 -0.2667
   67SAPC  H18R 5627   0.799   6.122   4.167  1.1891 -0.0623  1.2105
   67SAPC  H18S 5628   0.802   6.291   4.122 -1.0464  1.2070  1.0953
   67SAPC  C219 5629   0.824   6.266   4.340  0.0815  0.1647 -0.0624
   67SAPC  H19R 5630   0.715   6.265   4.358 -0.0774  3.0753 -0.4460
   67SAPC  H19S 5631   0.836   6.376   4.327  1.0098 -0.1611 -2.7300
   67SAPC  C220 5632   0.902   6.190   4.449  0.7883  0.4477  0.8029
   67SAPC  H20R 5633   0.889   6.231   4.551  1.5475 -0.8473  1.4427
   67SAPC  H20S 5634   1.012   6.186   4.434  0.8270  1.2138  0.8489
   67SAPC  H20T 5635   0.867   6.086   4.438 -1.0468  0.9695  1.3552
   67SAPC   C33 5636   1.305   6.645   3.412 -0.3078 -0.1852  0.0449
   67SAPC   H3X 5637   1.205   6.604   3.385 -0.5398 -1.4809  2.6175
   67SAPC   H3Y 5638   1.298   6.752   3.441  2.2646  0.3272 -0.9652
   67SAPC   C34 5639   1.349   6.582   3.547 -0.8363 -0.2367 -0.1443
   67SAPC   H4X 5640   1.459   6.574   3.548 -0.8878 -1.4377 -1.1663
   67SAPC   H4Y 5641   1.306   6.479   3.544  0.5832 -0.8925  0.8638
   67SAPC   C35 5642   1.303   6.667   3.668  0.5490  0.2612  0.1150
   67SAPC   H5X 5643   1.192   6.672   3.677  0.6758  2.3983  0.8941
   67SAPC   H5Y 5644   1.345   6.769   3.664  2.7548 -0.4961  1.7672
   67SAPC   C36 5645   1.350   6.616   3.804  0.4094 -0.6844  0.7546
   67SAPC   H6X 5646   1.321   6.687   3.885 -2.2026 -0.6206 -0.1417
   67SAPC   H6Y 5647   1.461   6.612   3.807  0.3918 -2.4860  0.1294
   67SAPC   C37 5648   1.293   6.475   3.848 -0.8244  0.8351 -0.1685
   67SAPC   H7X 5649   1.334   6.393   3.785  1.4916  0.4995  1.6419
   67SAPC   H7Y 5650   1.183   6.485   3.837 -0.8208  1.3042  0.2093
   67SAPC   C38 5651   1.326   6.430   3.991  0.4734 -0.8498 -0.2318
   67SAPC   H8X 5652   1.437   6.430   4.001  0.5027 -1.4909 -0.5456
   67SAPC   H8Y 5653   1.301   6.322   3.995 -0.6399 -0.5840  0.4249
   67SAPC   C39 5654   1.245   6.514   4.092  0.7959 -0.3415  0.7843
   67SAPC   H9X 5655   1.141   6.483   4.072  0.6453  0.6052  0.0000
   67SAPC   H9Y 5656   1.232   6.623   4.072 -0.5704 -0.5935  0.2354
   67SAPC  C310 5657   1.286   6.493   4.238  1.1133 -0.2495  0.1765
   67SAPC  H10X 5658   1.392   6.529   4.233  2.3362 -3.6000 -0.7635
   67SAPC  H10Y 5659   1.259   6.392   4.277 -3.8061  0.4211 -0.9084
   67SAPC  C311 5660   1.196   6.568   4.332  0.5096 -0.2838  0.1479
   67SAPC  H11X 5661   1.095   6.530   4.306  0.6175 -0.7400  0.3802
   67SAPC  H11Y 5662   1.196   6.677   4.310  0.5167 -0.3611 -0.2368
   67SAPC  C312 5663   1.223   6.547   4.481 -0.1070  0.4662 -0.5141
   67SAPC  H12X 5664   1.308   6.607   4.519 -0.3215  0.0184  0.7202
   67SAPC  H12Y 5665   1.250   6.441   4.499  1.2188  0.8049 -0.3993
   67SAPC  C313 5666   1.086   6.578   4.558 -0.0437 -0.4952  0.8340
   67SAPC  H13X 5667   1.012   6.507   4.515 -0.3332 -0.3370  1.0691
   67SAPC  H13Y 5668   1.028   6.672   4.545 -2.5092 -1.9020  1.1911
   67SAPC  C314 5669   1.107   6.545   4.701  0.6067  0.1105  0.0514
   67SAPC  H14X 5670   1.193   6.600   4.745 -0.7790  1.4375  1.2356
   67SAPC  H14Y 5671   1.123   6.436   4.710 -2.8659 -0.3103  3.7513
   67SAPC  C315 5672   0.986   6.573   4.797 -0.7733  0.0486  0.4954
   67SAPC  H15X 5673   1.001   6.532   4.899 -1.5896 -2.6613 -0.4073
   67SAPC  H15Y 5674   0.897   6.520   4.756  1.3701 -2.8628 -0.7013
   67SAPC  C316 5675   0.945   6.725   4.797 -0.9160 -0.2911 -0.0623
   67SAPC  H16X 5676   0.919   6.754   4.693  0.3893 -0.5100 -0.4688
   67SAPC  H16Y 5677   1.036   6.781   4.828 -0.3956 -0.5803 -1.0136
   67SAPC  C317 5678   0.825   6.772   4.885 -0.4481  0.4987 -0.1457
   67SAPC  H17X 5679   0.852   6.731   4.985  2.5100  1.2479 -0.5281
   67SAPC  H17Y 5680   0.750   6.706   4.838  0.3149 -0.3997 -0.1442
   67SAPC  C318 5681   0.804   6.917   4.895 -0.1478  0.2097  0.0782
   67SAPC  H18X 5682   0.897   6.974   4.918 -0.5779  1.1923 -0.5724
   67SAPC  H18Y 5683   0.737   6.938   4.981  0.2870 -0.2312  0.5337
   67SAPC  H18Z 5684   0.756   6.963   4.806  0.6659  0.4244 -0.2694
   68SAPC     N 5685   1.490   1.384   2.648  0.6975  0.1740  0.1459
   68SAPC   C12 5686   1.498   1.337   2.794 -0.4623  0.4072 -0.4253
   68SAPC  H12A 5687   1.571   1.260   2.812 -0.7879  0.3050  0.4703
   68SAPC  H12B 5688   1.405   1.289   2.820  0.0002 -1.2826 -1.6870
   68SAPC   C13 5689   1.453   1.256   2.574  0.6299 -0.1046  0.5036
   68SAPC  H13A 5690   1.435   1.280   2.471  2.5070  2.3651  0.6661
   68SAPC  H13B 5691   1.540   1.192   2.586  2.5147  1.5398 -2.8563
   68SAPC  H13C 5692   1.369   1.208   2.622  0.2831  0.1225  0.1219
   68SAPC   C14 5693   1.382   1.483   2.633 -0.0854  0.5006 -0.0117
   68SAPC  H14A 5694   1.345   1.494   2.532  1.6568  0.1952 -0.7130
   68SAPC  H14B 5695   1.297   1.451   2.691 -0.0290  1.7758  0.8292
   68SAPC  H14C 5696   1.424   1.574   2.673  0.2124 -0.3790  1.7587
   68SAPC   C15 5697   1.616   1.432   2.584  0.2462  0.2572 -0.0473
   68SAPC  H15A 5698   1.693   1.357   2.596 -0.7308 -0.8592 -0.6039
   68SAPC  H15B 5699   1.598   1.452   2.480  1.8998  2.6058  0.0340
   68SAPC  H15C 5700   1.655   1.527   2.618  0.1794  0.4494 -0.5087
   68SAPC   C11 5701   1.533   1.451   2.888 -0.2669  0.6062  0.3978
   68SAPC  H11A 5702   1.636   1.487   2.867  0.2270  0.4793  2.3984
   68SAPC  H11B 5703   1.549   1.402   2.987  0.4935 -1.8136 -0.8423
   68SAPC     P 5704   1.339   1.560   3.020 -0.1317 -0.4403  0.2471
   68SAPC   O13 5705   1.268   1.694   3.027  0.0457  0.2233 -0.5450
   68SAPC   O14 5706   1.271   1.428   3.018 -0.4080  0.2908  0.1139
   68SAPC   O12 5707   1.438   1.557   2.896  0.0548 -0.4606  0.1190
   68SAPC   O11 5708   1.429   1.553   3.150 -0.1070 -0.1079  0.2129
   68SAPC    C1 5709   1.366   1.535   3.275  0.0972 -1.2468 -0.4896
   68SAPC    HA 5710   1.259   1.565   3.282  0.3547 -0.6535  1.6340
   68SAPC    HB 5711   1.341   1.430   3.301  2.4864 -1.2734  2.1681
   68SAPC    C2 5712   1.444   1.601   3.399  0.8239 -0.1698 -0.6355
   68SAPC    HS 5713   1.368   1.592   3.480 -1.0103 -1.9345 -2.4085
   68SAPC   O21 5714   1.451   1.738   3.370  0.2723 -0.5091  0.4135
   68SAPC   C21 5715   1.345   1.811   3.364  0.0746 -0.2189 -0.1475
   68SAPC   O22 5716   1.230   1.783   3.388 -0.2648  0.1780  0.2609
   68SAPC   C22 5717   1.376   1.958   3.329 -0.8018 -0.8039  0.2458
   68SAPC   H2R 5718   1.481   1.956   3.294 -1.0304  0.2796 -0.5512
   68SAPC   H2S 5719   1.309   1.997   3.249  1.4927  0.5546 -1.1132
   68SAPC    C3 5720   1.579   1.539   3.431 -0.6926 -0.1839 -0.1059
   68SAPC    HX 5721   1.635   1.595   3.509 -1.9764  1.7777 -0.5254
   68SAPC    HY 5722   1.633   1.543   3.334  0.2646  0.0618  0.4235
   68SAPC   O31 5723   1.552   1.407   3.490  0.2319  0.1891 -0.3134
   68SAPC   C31 5724   1.621   1.305   3.432  0.5834  0.4427 -0.1766
   68SAPC   O32 5725   1.703   1.317   3.349 -0.2788 -0.4079  0.1987
   68SAPC   C32 5726   1.554   1.175   3.457  0.5853  0.3750  0.3914
   68SAPC   H2X 5727   1.478   1.164   3.377 -0.5049  0.8573  1.3433
   68SAPC   H2Y 5728   1.494   1.190   3.549 -1.4768 -2.0041 -0.4495
   68SAPC   C23 5729   1.364   2.048   3.452  0.4325  0.1788 -0.2378
   68SAPC   H3R 5730   1.288   2.023   3.530  1.0474  3.2745  1.5291
   68SAPC   H3S 5731   1.335   2.143   3.403 -1.4393 -1.1695 -1.8914
   68SAPC   C24 5732   1.493   2.077   3.538  0.0388 -0.3828 -0.9409
   68SAPC   H4R 5733   1.582   2.084   3.472 -0.3086  2.5495 -1.2045
   68SAPC   H4S 5734   1.504   1.988   3.603 -1.1334  0.1007 -0.0367
   68SAPC   C25 5735   1.470   2.203   3.626 -0.0594 -0.2262 -0.0181
   68SAPC   H5R 5736   1.442   2.289   3.564 -0.3944 -0.6337 -0.4375
   68SAPC   C26 5737   1.478   2.220   3.758  0.0814 -0.1730  0.6420
   68SAPC   H6R 5738   1.458   2.319   3.800  2.2083 -0.3248  2.1984
   68SAPC   C27 5739   1.519   2.119   3.862  0.1733 -0.2953  0.7259
   68SAPC   H7R 5740   1.627   2.139   3.882 -0.2290  2.2753  0.6850
   68SAPC   H7S 5741   1.501   2.012   3.838  1.3347 -1.0133  2.7357
   68SAPC   C28 5742   1.440   2.145   3.993  0.4866 -0.0841 -0.1688
   68SAPC   H8R 5743   1.331   2.133   3.986  0.4373 -2.2207  2.7341
   68SAPC   C29 5744   1.484   2.167   4.122 -0.5648  0.2606  0.9245
   68SAPC   H9R 5745   1.413   2.173   4.206  0.3781  0.4143  1.7454
   68SAPC  C210 5746   1.628   2.169   4.162 -0.1002  0.5261 -0.6483
   68SAPC  H10R 5747   1.693   2.122   4.085  0.3674  1.8952 -1.1278
   68SAPC  H10S 5748   1.653   2.121   4.259 -0.8655  0.3748 -0.5187
   68SAPC  C211 5749   1.674   2.311   4.169  0.1981  0.3388 -0.6695
   68SAPC  H11R 5750   1.632   2.376   4.091 -4.1631 -0.3428  0.8600
   68SAPC  C212 5751   1.755   2.361   4.258  0.4285  0.0964  0.1646
   68SAPC  H12R 5752   1.790   2.465   4.247  0.4991  0.2943  1.9699
   68SAPC  C213 5753   1.824   2.295   4.376  0.4263 -1.0438 -0.2472
   68SAPC  H13R 5754   1.931   2.318   4.393 -0.2897  1.8092  1.0881
   68SAPC  H13S 5755   1.822   2.184   4.363 -1.7728 -1.1012  0.1571
   68SAPC  C214 5756   1.750   2.329   4.508 -0.2078 -0.8080  0.2422
   68SAPC  H14R 5757   1.640   2.320   4.504 -0.3801  0.1584  1.7683
   68SAPC  C215 5758   1.800   2.398   4.610 -0.0948 -0.9548  0.0916
   68SAPC  H15R 5759   1.724   2.410   4.689 -1.8028  0.8257 -1.6710
   68SAPC  C216 5760   1.937   2.443   4.641  0.4069  0.3186 -0.5041
   68SAPC  H16R 5761   2.004   2.440   4.553 -2.5259 -1.8370 -2.8514
   68SAPC  H16S 5762   1.988   2.378   4.716  2.7344  1.5668 -0.8973
   68SAPC  C217 5763   1.927   2.582   4.691  0.1011 -0.3506  0.8182
   68SAPC  H17R 5764   2.029   2.626   4.693  0.9237 -2.2101  1.9339
   68SAPC  H17S 5765   1.869   2.595   4.785 -0.5581 -0.1049  0.3867
   68SAPC  C218 5766   1.850   2.679   4.597 -0.7082 -0.4796 -0.0849
   68SAPC  H18R 5767   1.740   2.667   4.593 -0.6376 -1.1311 -0.2338
   68SAPC  H18S 5768   1.889   2.658   4.495  1.0729  0.0388  0.4430
   68SAPC  C219 5769   1.877   2.824   4.627  0.1534 -0.6932  0.1956
   68SAPC  H19R 5770   1.974   2.841   4.678  0.1791  1.8309 -0.5478
   68SAPC  H19S 5771   1.802   2.848   4.705 -0.0143  0.6685 -0.3522
   68SAPC  C220 5772   1.860   2.921   4.507  0.0484 -0.3064 -0.1962
   68SAPC  H20R 5773   1.943   2.907   4.436  0.2237 -0.2320 -0.0063
   68SAPC  H20S 5774   1.859   3.029   4.533  2.0410  0.5490 -3.1573
   68SAPC  H20T 5775   1.765   2.905   4.451  0.4310  2.0869 -1.6562
   68SAPC   C33 5776   1.640   1.049   3.449 -0.1337  0.6443 -0.8792
   68SAPC   H3X 5777   1.704   1.054   3.359 -0.3477 -1.0799 -1.1691
   68SAPC   H3Y 5778   1.570   0.963   3.444  0.6598 -0.1475  0.8270
   68SAPC   C34 5779   1.726   1.036   3.574 -0.4875 -0.0702 -0.8845
   68SAPC   H4X 5780   1.774   1.136   3.588  1.6622 -1.1240 -0.2593
   68SAPC   H4Y 5781   1.812   0.970   3.549  0.6779  1.2677 -0.5846
   68SAPC   C35 5782   1.652   1.016   3.709 -0.3452 -0.6007 -0.1566
   68SAPC   H5X 5783   1.630   0.909   3.728 -1.2453 -0.2427  0.9814
   68SAPC   H5Y 5784   1.564   1.083   3.715 -0.1055 -0.2513 -0.5263
   68SAPC   C36 5785   1.750   1.058   3.826 -0.6916  1.0823  0.4860
   68SAPC   H6X 5786   1.785   1.162   3.814 -1.4361  1.5619  2.1924
   68SAPC   H6Y 5787   1.837   0.989   3.828 -2.5409 -1.4289  2.5902
   68SAPC   C37 5788   1.694   1.038   3.965  0.5071 -0.2943 -0.3766
   68SAPC   H7X 5789   1.583   1.039   3.953  0.2473 -0.7792  1.6654
   68SAPC   H7Y 5790   1.721   1.120   4.034  1.1663 -0.2942 -0.6252
   68SAPC   C38 5791   1.737   0.908   4.046  0.4663  1.1217  0.1397
   68SAPC   H8X 5792   1.837   0.880   4.005  0.3986 -0.3972  0.9451
   68SAPC   H8Y 5793   1.660   0.830   4.031 -0.5251  2.4419 -2.1762
   68SAPC   C39 5794   1.763   0.927   4.194 -0.1902 -0.0388 -0.2519
   68SAPC   H9X 5795   1.673   0.970   4.243 -0.1323 -1.6585  1.3948
   68SAPC   H9Y 5796   1.849   0.996   4.209 -0.5503  0.5249 -0.7687
   68SAPC  C310 5797   1.766   0.790   4.263  0.0530 -0.5787 -0.0538
   68SAPC  H10X 5798   1.814   0.711   4.201 -1.4405 -0.2426 -1.7169
   68SAPC  H10Y 5799   1.662   0.758   4.286  0.1016  0.3257  1.6321
   68SAPC  C311 5800   1.833   0.805   4.404 -0.5129  0.5286  0.4107
   68SAPC  H11X 5801   1.758   0.857   4.467 -0.1710  1.8791 -0.2389
   68SAPC  H11Y 5802   1.929   0.861   4.396  0.5366 -1.1873  0.4030
   68SAPC  C312 5803   1.868   0.677   4.471 -1.1093  0.1868  0.0317
   68SAPC  H12X 5804   1.933   0.713   4.555 -0.3545 -0.6004 -0.2060
   68SAPC  H12Y 5805   1.932   0.613   4.407 -3.7730 -0.7447 -1.8683
   68SAPC  C313 5806   1.752   0.613   4.551 -0.3134 -0.5391 -0.0898
   68SAPC  H13X 5807   1.689   0.549   4.486  0.1128 -1.2860  0.2235
   68SAPC  H13Y 5808   1.684   0.695   4.585 -1.7282 -1.5717 -0.3643
   68SAPC  C314 5809   1.799   0.539   4.676 -0.0504  0.2512 -0.2553
   68SAPC  H14X 5810   1.715   0.505   4.740 -0.2618 -4.0588 -2.4918
   68SAPC  H14Y 5811   1.869   0.603   4.734 -1.5619  1.0153  0.7627
   68SAPC  C315 5812   1.879   0.409   4.629 -0.0064 -0.2952 -0.3984
   68SAPC  H15X 5813   1.964   0.441   4.565  0.3475 -2.8055 -1.2925
   68SAPC  H15Y 5814   1.808   0.335   4.588  0.0199 -1.8596  2.1820
   68SAPC  C316 5815   1.922   0.341   4.754  0.1091  0.0763  0.5281
   68SAPC  H16X 5816   1.836   0.293   4.804  1.4058 -1.7204  1.1424
   68SAPC  H16Y 5817   1.976   0.411   4.822 -1.9941  0.3164  2.0348
   68SAPC  C317 5818   2.021   0.237   4.709  0.3916  0.4324  0.1278
   68SAPC  H17X 5819   2.091   0.276   4.632 -0.8586 -1.8728 -2.3671
   68SAPC  H17Y 5820   1.963   0.160   4.653 -0.8373  1.9010 -0.7024
   68SAPC  C318 5821   2.107   0.183   4.824  0.6621  0.6076  0.4977
   68SAPC  H18X 5822   2.149   0.263   4.889 -0.4396  1.1559  0.5588
   68SAPC  H18Y 5823   2.192   0.123   4.786 -0.6480 -1.0628  0.0451
   68SAPC  H18Z 5824   2.045   0.121   4.893  0.9903  1.2596  1.3983
   69SAPC     N 5825   3.196   6.775   2.387  0.4460  0.4142  0.2184
   69SAPC   C12 5826   3.078   6.862   2.445 -0.5952  0.0905  0.0106
   69SAPC  H12A 5827   2.996   6.857   2.375  0.6711  1.4929 -1.6636
   69SAPC  H12B 5828   3.119   6.962   2.450  1.3813 -0.7129  0.6766
   69SAPC   C13 5829   3.325   6.812   2.462 -0.0141  0.4147  1.0769
   69SAPC  H13A 5830   3.306   6.803   2.568 -2.5043  2.1706  0.8556
   69SAPC  H13B 5831   3.403   6.740   2.442 -2.0857 -2.1504  1.5641
   69SAPC  H13C 5832   3.354   6.911   2.430  0.3098 -0.1188 -0.3658
   69SAPC   C14 5833   3.172   6.627   2.398  0.1681 -0.5321  0.2786
   69SAPC  H14A 5834   3.097   6.598   2.326  0.7852 -0.4561 -0.4018
   69SAPC  H14B 5835   3.262   6.577   2.366  0.7703  2.8010 -4.1449
   69SAPC  H14C 5836   3.147   6.594   2.498 -2.4476  0.3318  0.0046
   69SAPC   C15 5837   3.213   6.800   2.240 -0.2617 -0.7286  0.6050
   69SAPC  H15A 5838   3.124   6.774   2.184 -0.9335  0.7106  0.9606
   69SAPC  H15B 5839   3.230   6.906   2.227 -2.7513 -0.4371 -0.9614
   69SAPC  H15C 5840   3.296   6.742   2.204  0.2444  1.3371 -1.8656
   69SAPC   C11 5841   3.032   6.824   2.595  0.2746  0.0748  0.4715
   69SAPC  H11A 5842   3.010   6.715   2.592  0.8539 -0.0288 -0.9402
   69SAPC  H11B 5843   2.938   6.875   2.622  0.0940  2.6315 -3.9115
   69SAPC     P 5844   3.156   6.990   2.752  0.3765 -0.0214  0.3160
   69SAPC   O13 5845   3.269   6.992   2.851 -0.3836 -0.4963  0.2452
   69SAPC   O14 5846   3.171   7.089   2.639 -0.2236 -0.6935 -0.1600
   69SAPC   O12 5847   3.127   6.847   2.698 -0.0210 -0.5429  0.2451
   69SAPC   O11 5848   3.015   7.031   2.822  0.2000  0.4881  0.4954
   69SAPC    C1 5849   3.001   7.003   2.957 -0.1567 -0.8732 -0.3568
   69SAPC    HA 5850   2.895   6.972   2.962 -0.0500 -1.7010 -2.3655
   69SAPC    HB 5851   3.048   6.910   2.995 -1.2578 -2.1364 -1.9264
   69SAPC    C2 5852   3.041   7.129   3.048 -0.4991 -0.1126  0.1802
   69SAPC    HS 5853   3.152   7.131   3.044 -0.4263 -0.6679  1.4142
   69SAPC   O21 5854   2.994   7.109   3.184  1.0489 -0.0745  0.4971
   69SAPC   C21 5855   3.040   7.012   3.254 -0.3185 -0.4989  0.7398
   69SAPC   O22 5856   3.135   6.938   3.226 -0.2016 -0.0036  0.5100
   69SAPC   C22 5857   2.949   6.996   3.371 -0.1970  0.1466 -0.5502
   69SAPC   H2R 5858   2.980   7.040   3.468  0.1349 -0.5089 -0.3538
   69SAPC   H2S 5859   2.858   7.058   3.356  2.4973  5.0566  1.1401
   69SAPC    C3 5860   3.005   7.268   2.990 -0.2987  0.6333 -0.3967
   69SAPC    HX 5861   2.907   7.250   2.941 -0.3294 -1.0057  0.2065
   69SAPC    HY 5862   3.080   7.290   2.911 -0.8424 -0.5728 -1.2806
   69SAPC   O31 5863   3.008   7.379   3.088  0.3500 -0.3560  0.8482
   69SAPC   C31 5864   2.897   7.458   3.088  0.9145 -0.0962 -0.4633
   69SAPC   O32 5865   2.790   7.431   3.034 -0.4814 -0.6122  0.5779
   69SAPC   C32 5866   2.927   7.578   3.173  0.2567  0.1715  0.4927
   69SAPC   H2X 5867   3.020   7.622   3.132 -1.6277  1.2692 -3.0297
   69SAPC   H2Y 5868   2.949   7.541   3.276  1.1845 -0.3596  0.1179
   69SAPC   C23 5869   2.894   6.845   3.397 -0.5497 -0.0512  0.4921
   69SAPC   H3R 5870   2.985   6.782   3.395  0.1513  0.9371 -1.1345
   69SAPC   H3S 5871   2.838   6.819   3.304  0.3732 -0.3142 -0.0105
   69SAPC   C24 5872   2.807   6.818   3.520 -0.4160  0.0812  0.4919
   69SAPC   H4R 5873   2.872   6.819   3.610 -0.6256  2.0417  0.6833
   69SAPC   H4S 5874   2.763   6.717   3.513  1.8559 -0.9902  0.6595
   69SAPC   C25 5875   2.704   6.929   3.519 -0.4891  0.3263  0.6390
   69SAPC   H5R 5876   2.649   6.919   3.424  0.3555 -0.8059  0.2500
   69SAPC   C26 5877   2.668   7.021   3.614  0.1230  0.2700  0.1191
   69SAPC   H6R 5878   2.583   7.088   3.599 -1.1173 -1.5803 -1.7259
   69SAPC   C27 5879   2.736   7.030   3.751  0.1409 -0.4744 -0.0953
   69SAPC   H7R 5880   2.694   7.119   3.802 -0.1631 -0.0307 -1.0776
   69SAPC   H7S 5881   2.846   7.044   3.743 -0.1310  1.0759 -2.1857
   69SAPC   C28 5882   2.706   6.906   3.831  0.4708  0.4565  0.1670
   69SAPC   H8R 5883   2.637   6.834   3.785  3.0176 -1.5266 -0.8597
   69SAPC   C29 5884   2.755   6.877   3.955  0.2591 -0.0839 -0.1557
   69SAPC   H9R 5885   2.707   6.790   4.003  0.7297  0.1663  0.7800
   69SAPC  C210 5886   2.860   6.952   4.029 -0.4398  0.1164  0.1379
   69SAPC  H10R 5887   2.856   7.063   4.023 -1.1145  0.0715 -0.2940
   69SAPC  H10S 5888   2.952   6.931   3.969  1.2255  2.8442  1.5167
   69SAPC  C211 5889   2.879   6.917   4.172  0.4385 -0.0406 -0.7570
   69SAPC  H11R 5890   2.799   6.852   4.213  2.0029 -0.0879  2.5360
   69SAPC  C212 5891   2.985   6.943   4.247  0.2365 -0.6408  0.2352
   69SAPC  H12R 5892   3.000   6.883   4.338 -2.4341  1.0634  1.9437
   69SAPC  C213 5893   3.110   7.017   4.202  0.3225  0.1508 -0.0135
   69SAPC  H13R 5894   3.122   7.097   4.279 -1.3579 -0.5224  0.9974
   69SAPC  H13S 5895   3.101   7.082   4.112  0.8127  1.7734  1.0620
   69SAPC  C214 5896   3.236   6.932   4.197  0.7746  0.3599  0.2688
   69SAPC  H14R 5897   3.234   6.834   4.247 -0.3500  0.2001 -0.0607
   69SAPC  C215 5898   3.346   6.954   4.126 -0.1481  0.3717 -0.2624
   69SAPC  H15R 5899   3.439   6.897   4.142 -0.2854  0.4852  1.0503
   69SAPC  C216 5900   3.361   7.071   4.023  0.7625 -0.5157 -0.5552
   69SAPC  H16R 5901   3.470   7.077   4.002  0.7881  0.7966 -0.1366
   69SAPC  H16S 5902   3.314   7.161   4.068  0.3051 -1.8655  1.8686
   69SAPC  C217 5903   3.298   7.039   3.885  0.0071  0.7040 -0.2441
   69SAPC  H17R 5904   3.313   7.126   3.818  0.8816 -0.0758 -1.0828
   69SAPC  H17S 5905   3.191   7.020   3.907  0.0309 -2.1779 -2.2048
   69SAPC  C218 5906   3.343   6.908   3.825 -0.2087  0.2072  0.5580
   69SAPC  H18R 5907   3.296   6.826   3.884  0.8921 -0.7791  0.1067
   69SAPC  H18S 5908   3.453   6.909   3.838 -0.0523 -2.0497 -0.1299
   69SAPC  C219 5909   3.331   6.896   3.672 -0.0777  0.4859  0.2908
   69SAPC  H19R 5910   3.337   6.791   3.636 -2.8108  0.6989 -1.0155
   69SAPC  H19S 5911   3.411   6.957   3.623 -1.0782  1.3176 -0.3488
   69SAPC  C220 5912   3.192   6.940   3.618 -0.6929  0.7187  0.3831
   69SAPC  H20R 5913   3.175   7.047   3.644 -1.8555  0.5224  0.4960
   69SAPC  H20S 5914   3.108   6.879   3.658 -0.9433  0.8751  0.0997
   69SAPC  H20T 5915   3.190   6.933   3.507  0.2260 -2.3177  0.4766
   69SAPC   C33 5916   2.821   7.684   3.176 -0.6114  0.4518  0.1449
   69SAPC   H3X 5917   2.720   7.637   3.168 -0.5310 -0.4509  3.0410
   69SAPC   H3Y 5918   2.844   7.753   3.093  1.8297  1.9496  1.9432
   69SAPC   C34 5919   2.829   7.771   3.301 -0.3173 -0.5641 -0.4330
   69SAPC   H4X 5920   2.770   7.862   3.278 -1.8980 -1.4863 -0.1710
   69SAPC   H4Y 5921   2.934   7.796   3.328 -1.5922  1.7198  3.0956
   69SAPC   C35 5922   2.769   7.718   3.424  0.2790  0.6155  0.3124
   69SAPC   H5X 5923   2.830   7.635   3.465  0.8165  1.2186  0.7473
   69SAPC   H5Y 5924   2.668   7.679   3.399  0.9275 -1.9502  1.3380
   69SAPC   C36 5925   2.749   7.822   3.532  0.2948  0.3719  0.5591
   69SAPC   H6X 5926   2.671   7.898   3.509 -0.0364  1.0669  3.5232
   69SAPC   H6Y 5927   2.844   7.872   3.559  1.2168  0.1808 -2.1161
   69SAPC   C37 5928   2.700   7.771   3.672  0.1442 -0.2065  0.6842
   69SAPC   H7X 5929   2.790   7.724   3.717  0.1880 -2.2326 -1.3133
   69SAPC   H7Y 5930   2.622   7.695   3.651  0.1839 -0.1475  0.3107
   69SAPC   C38 5931   2.648   7.874   3.767 -0.4537  0.3893  0.5508
   69SAPC   H8X 5932   2.567   7.926   3.709 -0.1848  0.4207  0.2009
   69SAPC   H8Y 5933   2.719   7.955   3.794 -1.7734  2.6839 -2.1951
   69SAPC   C39 5934   2.586   7.820   3.898  0.0406 -0.1780  0.5375
   69SAPC   H9X 5935   2.517   7.734   3.884  1.1299 -0.7535 -1.8018
   69SAPC   H9Y 5936   2.530   7.909   3.935 -2.4268 -1.9921  1.4522
   69SAPC  C310 5937   2.685   7.773   4.001 -0.2218  0.2782 -0.1064
   69SAPC  H10X 5938   2.782   7.827   4.004 -0.6084  0.9456  1.7810
   69SAPC  H10Y 5939   2.695   7.666   3.971 -2.6569 -0.1474  0.3786
   69SAPC  C311 5940   2.623   7.772   4.144  0.2149  0.3270  0.2945
   69SAPC  H11X 5941   2.662   7.687   4.203  0.1490 -0.3601 -0.6350
   69SAPC  H11Y 5942   2.512   7.768   4.130  0.3098 -0.6829 -0.2392
   69SAPC  C312 5943   2.656   7.900   4.223 -0.0124 -0.7172  0.7832
   69SAPC  H12X 5944   2.597   7.977   4.168 -0.5602 -0.2472  1.9997
   69SAPC  H12Y 5945   2.761   7.924   4.194 -1.0153  1.9592 -0.9931
   69SAPC  C313 5946   2.634   7.906   4.371  0.3872 -0.0700  0.1105
   69SAPC  H13X 5947   2.524   7.896   4.385  0.3771  1.2543  1.2229
   69SAPC  H13Y 5948   2.663   8.010   4.396 -1.3092 -0.0423  2.2503
   69SAPC  C314 5949   2.706   7.800   4.453 -0.5946 -0.4760  0.1341
   69SAPC  H14X 5950   2.810   7.808   4.415 -1.1928 -1.1082 -1.7231
   69SAPC  H14Y 5951   2.662   7.699   4.443 -2.5148  0.4454 -1.3887
   69SAPC  C315 5952   2.698   7.832   4.604  0.5968 -0.3055 -0.6705
   69SAPC  H15X 5953   2.594   7.821   4.643  0.6043  0.9323 -0.2240
   69SAPC  H15Y 5954   2.731   7.938   4.614  0.0338 -0.2438  0.9105
   69SAPC  C316 5955   2.773   7.738   4.693 -0.4662 -0.4075 -0.2006
   69SAPC  H16X 5956   2.851   7.689   4.632  0.8541  1.6094 -0.2269
   69SAPC  H16Y 5957   2.717   7.661   4.751 -1.7895 -0.6286 -1.7225
   69SAPC  C317 5958   2.848   7.827   4.803 -0.3431 -0.2802  0.5685
   69SAPC  H17X 5959   2.767   7.846   4.876  1.1545  0.4114  2.1152
   69SAPC  H17Y 5960   2.890   7.917   4.754  0.5433 -1.1153 -0.2603
   69SAPC  C318 5961   2.955   7.750   4.873 -0.5143  0.3056 -0.3158
   69SAPC  H18X 5962   3.036   7.736   4.799 -0.0884 -0.5905  0.2988
   69SAPC  H18Y 5963   2.913   7.649   4.894  1.5001  0.0201  3.1040
   69SAPC  H18Z 5964   2.979   7.804   4.967 -1.2456 -1.0303  0.6842
   70SAPC     N 5965   5.976   1.423   2.687  0.2776 -0.4106 -0.4972
   70SAPC   C12 5966   6.063   1.317   2.750  0.1752 -0.0690  0.3765
   70SAPC  H12A 5967   6.137   1.378   2.800 -2.6847  4.6728 -0.5699
   70SAPC  H12B 5968   6.118   1.270   2.670 -1.2230 -2.1497  0.5576
   70SAPC   C13 5969   6.045   1.514   2.592  1.1707  0.4130  0.3777
   70SAPC  H13A 5970   6.068   1.461   2.500 -1.3087  2.0946 -1.3346
   70SAPC  H13B 5971   5.980   1.593   2.557  1.0593  0.2332  0.1725
   70SAPC  H13C 5972   6.133   1.557   2.635  2.1266 -1.0820  0.0137
   70SAPC   C14 5973   5.851   1.359   2.628 -0.0877 -0.4984  0.5441
   70SAPC  H14A 5974   5.871   1.302   2.538 -1.3978  1.4784 -1.0957
   70SAPC  H14B 5975   5.826   1.276   2.692  1.1512 -1.2282  0.1301
   70SAPC  H14C 5976   5.773   1.432   2.612 -0.5911 -0.9336  0.9816
   70SAPC   C15 5977   5.929   1.520   2.791  0.4367 -0.2650 -0.0177
   70SAPC  H15A 5978   5.885   1.474   2.878 -1.2022 -0.5162 -0.9365
   70SAPC  H15B 5979   6.009   1.583   2.826 -0.0617  1.6954 -2.1545
   70SAPC  H15C 5980   5.857   1.580   2.739  0.6488 -1.3997 -1.7127
   70SAPC   C11 5981   6.008   1.204   2.850 -0.0575 -0.7674 -0.1116
   70SAPC  H11A 5982   5.967   1.261   2.936 -1.4629 -1.3489 -0.3677
   70SAPC  H11B 5983   6.092   1.148   2.897 -0.3296  0.2490  1.6374
   70SAPC     P 5984   5.941   0.987   2.719 -0.0623 -0.1338  0.5071
   70SAPC   O13 5985   5.816   0.908   2.703  0.1866 -0.5935 -0.2525
   70SAPC   O14 5986   6.015   1.022   2.595 -0.2587 -0.2885 -0.4464
   70SAPC   O12 5987   5.906   1.125   2.797 -0.2754  0.1259 -0.7495
   70SAPC   O11 5988   6.043   0.907   2.813 -0.4374 -0.3524  0.1301
   70SAPC    C1 5989   5.987   0.814   2.909  0.1440  1.0070  0.4679
   70SAPC    HA 5990   5.893   0.771   2.869  0.7592 -1.9611  1.9388
   70SAPC    HB 5991   6.047   0.721   2.922 -1.4608 -0.0651  0.4641
   70SAPC    C2 5992   5.970   0.890   3.041 -0.4737  0.5680  0.3755
   70SAPC    HS 5993   5.916   0.982   3.008  1.9858  1.8337 -0.3870
   70SAPC   O21 5994   6.100   0.933   3.096  0.7354  0.6699  0.0412
   70SAPC   C21 5995   6.090   1.045   3.166 -0.1410 -0.4096  0.7479
   70SAPC   O22 5996   5.988   1.109   3.192  1.1042  0.3676  0.1818
   70SAPC   C22 5997   6.230   1.088   3.199  0.5845 -0.5745  0.6439
   70SAPC   H2R 5998   6.311   1.032   3.148  0.6349  0.5546 -0.5751
   70SAPC   H2S 5999   6.233   1.189   3.153 -0.2249 -1.5176 -1.6263
   70SAPC    C3 6000   5.884   0.812   3.152  0.2789 -0.6654  0.0479
   70SAPC    HX 6001   5.777   0.812   3.124 -0.1545 -0.1311  1.6290
   70SAPC    HY 6002   5.886   0.877   3.242  2.8076 -0.5179 -0.0348
   70SAPC   O31 6003   5.947   0.692   3.186 -0.5347  0.6273 -0.5289
   70SAPC   C31 6004   5.889   0.581   3.139 -0.4105 -0.0479  1.0264
   70SAPC   O32 6005   5.786   0.576   3.071 -0.4092  0.5184 -0.8747
   70SAPC   C32 6006   5.972   0.463   3.191  0.3837 -0.3563 -1.0201
   70SAPC   H2X 6007   5.977   0.463   3.302  1.7670  1.5802 -1.0297
   70SAPC   H2Y 6008   6.076   0.482   3.158  0.8790 -2.5997 -0.9118
   70SAPC   C23 6009   6.263   1.104   3.352  0.2374  0.4259  0.0149
   70SAPC   H3R 6010   6.178   1.145   3.411  0.4019  0.9981 -0.1475
   70SAPC   H3S 6011   6.353   1.169   3.352  1.3454 -1.0584  0.7186
   70SAPC   C24 6012   6.310   0.972   3.430  0.2023 -0.4489 -0.1636
   70SAPC   H4R 6013   6.375   1.006   3.514  1.5224 -2.4153 -0.3360
   70SAPC   H4S 6014   6.379   0.909   3.370  0.8604  0.4387 -0.3536
   70SAPC   C25 6015   6.200   0.881   3.484 -0.1220  0.1552  0.8423
   70SAPC   H5R 6016   6.138   0.827   3.410 -0.5713  1.3039  0.3551
   70SAPC   C26 6017   6.167   0.849   3.607  0.3208 -0.8629 -0.2804
   70SAPC   H6R 6018   6.093   0.769   3.619  0.8089 -1.4572 -1.1443
   70SAPC   C27 6019   6.224   0.907   3.739  0.9285  0.3717  0.5747
   70SAPC   H7R 6020   6.324   0.949   3.714  1.6990 -1.1421  1.0139
   70SAPC   H7S 6021   6.253   0.823   3.805 -0.0622 -1.6460 -1.4099
   70SAPC   C28 6022   6.138   1.013   3.805  0.4451 -0.2509  0.2030
   70SAPC   H8R 6023   6.083   1.076   3.733  0.1611 -0.9405 -0.1845
   70SAPC   C29 6024   6.098   1.014   3.935 -0.0291  0.1877  0.7486
   70SAPC   H9R 6025   6.033   1.092   3.976 -0.0412  1.1158 -0.9315
   70SAPC  C210 6026   6.145   0.905   4.030  0.5619 -0.0719 -0.4096
   70SAPC  H10R 6027   6.252   0.885   4.011  0.5087 -0.8799  0.1023
   70SAPC  H10S 6028   6.086   0.813   4.008 -3.4921  2.2182 -0.1134
   70SAPC  C211 6029   6.136   0.949   4.172 -0.9734  0.2994 -0.4480
   70SAPC  H11R 6030   6.120   1.056   4.193 -2.4329  0.2611 -1.2449
   70SAPC  C212 6031   6.165   0.865   4.271 -0.1011  0.2173  0.1976
   70SAPC  H12R 6032   6.179   0.911   4.370 -0.8532  1.8564 -0.4158
   70SAPC  C213 6033   6.188   0.718   4.257 -0.2362  0.6202 -0.1642
   70SAPC  H13R 6034   6.263   0.687   4.333  0.1468  0.3438 -0.6424
   70SAPC  H13S 6035   6.235   0.681   4.163 -2.0882 -2.3629 -0.0635
   70SAPC  C214 6036   6.064   0.628   4.267  0.3360 -0.3299 -0.1805
   70SAPC  H14R 6037   5.990   0.653   4.190  0.4256 -0.0423 -0.1758
   70SAPC  C215 6038   6.020   0.535   4.348 -0.3221 -0.1835  0.1378
   70SAPC  H15R 6039   5.912   0.515   4.340 -0.0493 -1.6305 -0.3790
   70SAPC  C216 6040   6.071   0.481   4.478 -0.8229  1.1049 -0.2816
   70SAPC  H16R 6041   6.179   0.503   4.495  0.0781 -2.1401 -1.0946
   70SAPC  H16S 6042   6.055   0.371   4.476  0.8623  0.8370 -2.0800
   70SAPC  C217 6043   6.005   0.559   4.594 -0.2330 -0.5294  0.4986
   70SAPC  H17R 6044   5.897   0.531   4.597  0.0829 -2.2322 -1.4870
   70SAPC  H17S 6045   6.002   0.668   4.576 -0.4367 -0.7196 -0.6704
   70SAPC  C218 6046   6.070   0.524   4.733 -1.2036  0.0971 -1.0069
   70SAPC  H18R 6047   6.179   0.536   4.717 -1.1226  0.4482 -0.2068
   70SAPC  H18S 6048   6.046   0.415   4.740 -1.7493  0.1395 -1.9219
   70SAPC  C219 6049   6.019   0.615   4.848 -0.2264  0.2665 -0.4052
   70SAPC  H19R 6050   6.059   0.575   4.943  0.1105  1.9077  0.1759
   70SAPC  H19S 6051   5.908   0.621   4.852 -0.2971 -1.2210  1.3486
   70SAPC  C220 6052   6.077   0.754   4.840  0.2890  1.1769  0.1637
   70SAPC  H20R 6053   6.014   0.820   4.902 -0.9107  1.6906 -1.5303
   70SAPC  H20S 6054   6.063   0.789   4.736 -0.4594 -0.4502 -0.3155
   70SAPC  H20T 6055   6.181   0.760   4.879  0.0342  2.8367  0.6473
   70SAPC   C33 6056   5.934   0.321   3.141  0.0200 -0.0241 -0.1190
   70SAPC   H3X 6057   5.876   0.323   3.046 -1.3578  0.4363  0.7022
   70SAPC   H3Y 6058   5.864   0.267   3.209 -1.2239 -0.6862 -1.8558
   70SAPC   C34 6059   6.056   0.225   3.133  0.6409  0.0200 -0.0345
   70SAPC   H4X 6060   6.136   0.276   3.075  1.2651 -1.0967 -0.1795
   70SAPC   H4Y 6061   6.039   0.129   3.081  0.6874  0.3797 -0.7211
   70SAPC   C35 6062   6.111   0.190   3.272 -0.5057  0.1517  0.3117
   70SAPC   H5X 6063   6.115   0.280   3.336  0.3009  0.2739  0.1019
   70SAPC   H5Y 6064   6.219   0.166   3.265 -0.7670 -1.0565  0.0492
   70SAPC   C36 6065   6.024   0.089   3.347  0.0750  0.7115  0.4967
   70SAPC   H6X 6066   6.034  -0.001   3.284 -2.4603 -0.9603  2.2725
   70SAPC   H6Y 6067   5.918   0.121   3.356 -0.8312 -1.9096 -0.0369
   70SAPC   C37 6068   6.074   0.052   3.484  0.1881  0.6837 -0.2522
   70SAPC   H7X 6069   6.044  -0.053   3.504 -0.8049  0.6883 -1.6147
   70SAPC   H7Y 6070   6.185   0.048   3.480  0.3010 -3.5314  1.5761
   70SAPC   C38 6071   6.031   0.137   3.602 -0.1632 -0.0305 -0.2334
   70SAPC   H8X 6072   5.922   0.156   3.603 -0.0921  0.9032 -2.8336
   70SAPC   H8Y 6073   6.080   0.236   3.588  0.5902  0.2489  3.3549
   70SAPC   C39 6074   6.088   0.094   3.735  0.0361 -0.1126 -0.2573
   70SAPC   H9X 6075   6.104   0.176   3.808  1.8540 -0.1832 -0.5255
   70SAPC   H9Y 6076   6.190   0.052   3.719 -0.4557 -0.7546 -1.9378
   70SAPC  C310 6077   6.008  -0.014   3.810  0.0767  0.5239 -0.1534
   70SAPC  H10X 6078   5.979  -0.101   3.748 -0.1846  1.0620 -0.7963
   70SAPC  H10Y 6079   5.920   0.049   3.834  1.6739  3.9594 -2.4936
   70SAPC  C311 6080   6.078  -0.055   3.941  0.2458 -0.3364  0.2248
   70SAPC  H11X 6081   6.122   0.037   3.985 -2.2222  2.3912 -2.5164
   70SAPC  H11Y 6082   6.151  -0.138   3.931  1.9081  1.1672 -0.7840
   70SAPC  C312 6083   5.977  -0.095   4.053  0.4683  0.2624 -0.4218
   70SAPC  H12X 6084   5.899  -0.159   4.005  0.7416 -1.2119  0.9915
   70SAPC  H12Y 6085   5.930  -0.002   4.089  1.7400  1.1650 -1.0185
   70SAPC  C313 6086   6.040  -0.162   4.173 -0.5628  0.3722 -0.3256
   70SAPC  H13X 6087   6.110  -0.085   4.212  0.6676 -0.5832 -0.5806
   70SAPC  H13Y 6088   6.099  -0.255   4.158 -1.2683 -0.6208  2.4650
   70SAPC  C314 6089   5.929  -0.201   4.274 -0.5257  0.1383  0.2495
   70SAPC  H14X 6090   5.882  -0.112   4.321 -2.7967 -0.9315  0.1173
   70SAPC  H14Y 6091   5.990  -0.246   4.355 -1.0613 -0.1771  0.4833
   70SAPC  C315 6092   5.819  -0.302   4.231 -0.3829  0.3058 -0.0499
   70SAPC  H15X 6093   5.871  -0.369   4.159 -1.9622 -0.4060 -0.5689
   70SAPC  H15Y 6094   5.730  -0.262   4.178  0.1857  0.3630 -0.9854
   70SAPC  C316 6095   5.765  -0.396   4.334 -0.2223  0.0965 -0.2387
   70SAPC  H16X 6096   5.668  -0.360   4.375 -0.1363 -0.2048  0.2414
   70SAPC  H16Y 6097   5.838  -0.395   4.418 -0.0113  1.9890 -0.4208
   70SAPC  C317 6098   5.753  -0.543   4.293 -0.2230  0.1374 -0.1820
   70SAPC  H17X 6099   5.777  -0.606   4.381  1.4901  0.2869 -0.5065
   70SAPC  H17Y 6100   5.825  -0.566   4.211  0.0809  0.1706  0.0728
   70SAPC  C318 6101   5.615  -0.589   4.227 -0.2553 -0.1502 -0.2580
   70SAPC  H18X 6102   5.530  -0.555   4.290  0.6528 -1.4826  1.7877
   70SAPC  H18Y 6103   5.620  -0.700   4.223  0.8421 -0.0719 -1.6173
   70SAPC  H18Z 6104   5.616  -0.542   4.126 -0.6094 -0.1753 -0.2767
   71SAPC     N 6105   3.140   2.693   2.631  0.6824  0.1089 -0.1503
   71SAPC   C12 6106   3.243   2.719   2.739 -0.5123 -0.1694  0.6595
   71SAPC  H12A 6107   3.328   2.764   2.691  0.2958 -2.1113  0.1736
   71SAPC  H12B 6108   3.285   2.630   2.784  1.1306  0.3813  0.2526
   71SAPC   C13 6109   3.204   2.618   2.522  0.1908 -0.2055 -0.0643
   71SAPC  H13A 6110   3.238   2.520   2.552 -1.9926 -0.5738  1.4290
   71SAPC  H13B 6111   3.139   2.604   2.437  1.8926  0.4428 -1.5361
   71SAPC  H13C 6112   3.286   2.674   2.480 -0.7420 -0.2134 -2.0512
   71SAPC   C14 6113   3.007   2.628   2.674 -0.9603  0.5933  0.0711
   71SAPC  H14A 6114   2.957   2.700   2.738  0.6074  0.6844  1.2560
   71SAPC  H14B 6115   2.948   2.594   2.591  0.6096  0.9649 -1.2399
   71SAPC  H14C 6116   3.019   2.539   2.733  0.5971  0.9858  0.3963
   71SAPC   C15 6117   3.098   2.827   2.574 -0.1126  0.6978  0.1548
   71SAPC  H15A 6118   3.031   2.870   2.647  0.5348 -0.0047  1.1859
   71SAPC  H15B 6119   3.179   2.896   2.553 -0.4316  0.5628 -1.6726
   71SAPC  H15C 6120   3.032   2.810   2.490 -2.2503 -0.4269  1.9404
   71SAPC   C11 6121   3.206   2.806   2.856  0.4392  0.0367  0.5520
   71SAPC  H11A 6122   3.166   2.903   2.820 -0.3462 -0.3327  0.4043
   71SAPC  H11B 6123   3.292   2.831   2.921  1.7816  0.2810 -1.2497
   71SAPC     P 6124   3.106   2.654   3.054 -0.4616 -0.2122  0.1432
   71SAPC   O13 6125   2.994   2.557   3.040 -1.2358  0.1370 -0.0699
   71SAPC   O14 6126   3.239   2.596   3.084 -0.2828 -0.0645 -0.7118
   71SAPC   O12 6127   3.098   2.747   2.932 -0.3295 -0.4284  0.5309
   71SAPC   O11 6128   3.066   2.761   3.170  0.0554 -0.3443  0.8702
   71SAPC    C1 6129   3.113   2.897   3.176 -0.6292  0.3653 -0.4686
   71SAPC    HA 6130   3.106   2.951   3.080 -0.4148  0.6725 -0.3099
   71SAPC    HB 6131   3.035   2.947   3.238  0.5807  0.7194  0.8179
   71SAPC    C2 6132   3.253   2.909   3.247 -0.2262  1.0675  0.2115
   71SAPC    HS 6133   3.324   2.866   3.172  0.3306 -0.2605  1.4557
   71SAPC   O21 6134   3.238   2.836   3.364  0.0251  0.2937  0.1940
   71SAPC   C21 6135   3.347   2.783   3.412 -1.0769  0.2401 -0.5942
   71SAPC   O22 6136   3.463   2.807   3.373  0.7824 -0.4230  0.2076
   71SAPC   C22 6137   3.305   2.703   3.544  0.8090  0.4214  0.6361
   71SAPC   H2R 6138   3.390   2.659   3.600  0.3739 -1.0887  0.1466
   71SAPC   H2S 6139   3.250   2.776   3.607 -0.6856 -1.1846  1.2661
   71SAPC    C3 6140   3.297   3.054   3.282 -0.2750  0.1803  0.0958
   71SAPC    HX 6141   3.280   3.120   3.194 -1.3256  1.1548  1.0059
   71SAPC    HY 6142   3.406   3.043   3.298 -0.5938 -2.2509  1.0883
   71SAPC   O31 6143   3.238   3.111   3.397  0.2910  0.6093  0.0605
   71SAPC   C31 6144   3.297   3.211   3.466 -0.2244  0.3361  0.2860
   71SAPC   O32 6145   3.410   3.255   3.441 -0.1203  0.0291  0.1915
   71SAPC   C32 6146   3.205   3.286   3.562 -0.0007  0.2024  0.4788
   71SAPC   H2X 6147   3.118   3.329   3.507  2.0190 -0.8066 -4.0478
   71SAPC   H2Y 6148   3.260   3.369   3.610  0.3508 -0.8869  2.0370
   71SAPC   C23 6149   3.204   2.588   3.516 -0.4164 -0.2250 -0.4886
   71SAPC   H3R 6150   3.256   2.508   3.459  1.7340 -0.0183  1.0646
   71SAPC   H3S 6151   3.119   2.620   3.452 -1.7189 -0.7814  0.9033
   71SAPC   C24 6152   3.135   2.527   3.634 -0.2521  0.5601  0.2159
   71SAPC   H4R 6153   3.215   2.467   3.682  0.4931  0.5358 -1.0313
   71SAPC   H4S 6154   3.065   2.448   3.599 -0.0256  0.7872 -0.7702
   71SAPC   C25 6155   3.068   2.616   3.736  0.1695 -0.8175 -0.1489
   71SAPC   H5R 6156   3.093   2.604   3.843 -3.6730  0.1651  1.0445
   71SAPC   C26 6157   2.980   2.710   3.706  0.3964  0.2559  0.2280
   71SAPC   H6R 6158   2.940   2.774   3.786 -1.2146  1.6571 -1.5842
   71SAPC   C27 6159   2.928   2.748   3.568  0.2103  0.1926  0.3418
   71SAPC   H7R 6160   2.889   2.655   3.521 -0.5598  2.0713 -3.0404
   71SAPC   H7S 6161   3.011   2.783   3.504  0.1984  1.5709  1.0499
   71SAPC   C28 6162   2.824   2.851   3.551 -0.3347  0.8805  0.0950
   71SAPC   H8R 6163   2.854   2.935   3.487  0.2379 -1.2017 -2.5730
   71SAPC   C29 6164   2.700   2.836   3.591  0.6325  1.0591 -0.3014
   71SAPC   H9R 6165   2.631   2.920   3.572 -0.1863  0.4098 -0.2649
   71SAPC  C210 6166   2.624   2.712   3.641 -0.2643  0.3234  0.7067
   71SAPC  H10R 6167   2.591   2.733   3.745  4.2726  3.2128  1.8465
   71SAPC  H10S 6168   2.686   2.620   3.644  0.6657  0.9211  0.3226
   71SAPC  C211 6169   2.498   2.695   3.554  0.1773  0.6225  0.3938
   71SAPC  H11R 6170   2.425   2.777   3.555 -2.0770 -1.1604 -2.2235
   71SAPC  C212 6171   2.462   2.579   3.490  0.2382 -0.0330  0.1685
   71SAPC  H12R 6172   2.369   2.565   3.432 -0.2762 -1.0816  1.1810
   71SAPC  C213 6173   2.544   2.456   3.496 -0.1030 -0.7225  0.5645
   71SAPC  H13R 6174   2.557   2.437   3.605  0.7960 -0.7683  0.4525
   71SAPC  H13S 6175   2.650   2.479   3.473 -0.4875  0.5212 -0.0368
   71SAPC  C214 6176   2.499   2.332   3.420 -0.3358 -1.0885  0.1131
   71SAPC  H14R 6177   2.524   2.338   3.313 -1.3645  1.5358 -0.0351
   71SAPC  C215 6178   2.446   2.221   3.469  0.5750 -0.0531 -0.5261
   71SAPC  H15R 6179   2.420   2.132   3.410 -1.7742 -0.5304  1.0953
   71SAPC  C216 6180   2.421   2.192   3.614  0.3050 -0.0674  0.4752
   71SAPC  H16R 6181   2.312   2.180   3.627 -0.0755  0.8716 -1.4902
   71SAPC  H16S 6182   2.450   2.282   3.671  1.3320 -0.1946  0.1802
   71SAPC  C217 6183   2.489   2.059   3.667  0.2186  0.4741 -0.4264
   71SAPC  H17R 6184   2.600   2.061   3.665  0.3803 -2.4146 -3.5353
   71SAPC  H17S 6185   2.471   1.984   3.586  1.8767  0.7142 -1.0606
   71SAPC  C218 6186   2.452   2.023   3.814 -0.2486 -0.1262 -0.1093
   71SAPC  H18R 6187   2.520   1.949   3.862 -0.0316  0.5897  0.7070
   71SAPC  H18S 6188   2.349   1.984   3.826  0.6333 -2.4513  0.4600
   71SAPC  C219 6189   2.443   2.140   3.904 -0.0580  0.2411 -0.2529
   71SAPC  H19R 6190   2.378   2.222   3.867  0.5965  0.7144 -0.3620
   71SAPC  H19S 6191   2.542   2.189   3.917 -0.3188  0.5847  0.5546
   71SAPC  C220 6192   2.401   2.101   4.049  0.0704 -0.6040  0.2511
   71SAPC  H20R 6193   2.406   2.186   4.121  0.2233 -1.0409  0.7684
   71SAPC  H20S 6194   2.472   2.021   4.078 -0.0909 -1.6074 -1.9363
   71SAPC  H20T 6195   2.298   2.061   4.052  0.4162 -1.4879  2.3239
   71SAPC   C33 6196   3.147   3.195   3.674 -0.7766  0.2142 -0.1798
   71SAPC   H3X 6197   3.224   3.147   3.739 -1.3152 -2.3411 -1.3049
   71SAPC   H3Y 6198   3.100   3.106   3.627 -1.6069  0.0578  0.9121
   71SAPC   C34 6199   3.038   3.258   3.752  0.8738 -0.6916 -0.0877
   71SAPC   H4X 6200   2.955   3.275   3.679  1.1960 -1.2474 -0.5968
   71SAPC   H4Y 6201   3.061   3.361   3.788 -0.1159  0.1648 -1.7728
   71SAPC   C35 6202   2.981   3.167   3.860  0.1112  0.5030 -0.4337
   71SAPC   H5X 6203   2.961   3.075   3.801  2.5697  0.0815 -0.7322
   71SAPC   H5Y 6204   2.886   3.209   3.899 -0.3837  1.1795 -2.2443
   71SAPC   C36 6205   3.080   3.151   3.978  0.0929  0.0726  0.0535
   71SAPC   H6X 6206   3.138   3.245   3.986  0.1698  0.1631 -1.2897
   71SAPC   H6Y 6207   3.155   3.075   3.945  0.0531 -0.3773  0.9812
   71SAPC   C37 6208   3.016   3.090   4.102 -0.1699 -0.8257  0.1383
   71SAPC   H7X 6209   3.094   3.036   4.160 -0.7184 -1.4541  0.3039
   71SAPC   H7Y 6210   2.942   3.016   4.063 -0.4905 -0.4972  0.1097
   71SAPC   C38 6211   2.949   3.204   4.182  1.0102 -0.5525  0.1674
   71SAPC   H8X 6212   2.878   3.146   4.243  1.4712 -2.4043 -0.9831
   71SAPC   H8Y 6213   2.892   3.268   4.110  2.1702 -0.0809 -0.3503
   71SAPC   C39 6214   3.036   3.290   4.283  0.4009  0.5111  0.0019
   71SAPC   H9X 6215   3.095   3.366   4.229 -2.3368  0.6701 -3.1019
   71SAPC   H9Y 6216   3.109   3.221   4.330  0.9634  1.3206  0.3308
   71SAPC  C310 6217   2.952   3.354   4.394 -0.0134  0.4086  0.5394
   71SAPC  H10X 6218   2.891   3.286   4.458 -1.9643  1.6204  0.0523
   71SAPC  H10Y 6219   2.881   3.430   4.355  2.9729  2.6413 -0.8956
   71SAPC  C311 6220   3.047   3.444   4.466 -0.9674  0.1316 -0.1048
   71SAPC  H11X 6221   3.101   3.510   4.395  1.9319 -1.9445  0.0196
   71SAPC  H11Y 6222   3.109   3.382   4.533  0.5983  1.2170 -0.4950
   71SAPC  C312 6223   2.971   3.548   4.555 -0.7958 -0.3466  0.1009
   71SAPC  H12X 6224   3.038   3.565   4.643  2.0274 -0.8729 -1.8156
   71SAPC  H12Y 6225   2.874   3.508   4.593  0.1022 -1.8146  0.9676
   71SAPC  C313 6226   2.949   3.683   4.493  0.0679  0.5355  0.6062
   71SAPC  H13X 6227   2.915   3.653   4.392 -1.7979 -0.7324  1.5324
   71SAPC  H13Y 6228   3.041   3.743   4.479  0.6116  0.1473  2.2540
   71SAPC  C314 6229   2.845   3.772   4.576  0.5833  0.7916  0.5030
   71SAPC  H14X 6230   2.875   3.799   4.680  3.8882 -1.5022  0.2886
   71SAPC  H14Y 6231   2.752   3.717   4.599  1.3855 -0.1023  1.7577
   71SAPC  C315 6232   2.807   3.897   4.499  0.4570 -0.4010  0.0322
   71SAPC  H15X 6233   2.782   3.884   4.391 -0.6816 -1.3569  0.4000
   71SAPC  H15Y 6234   2.893   3.967   4.502 -0.9579  1.5927 -1.9933
   71SAPC  C316 6235   2.673   3.959   4.563 -0.8995  0.6567  0.9054
   71SAPC  H16X 6236   2.605   3.871   4.561 -0.8425  0.6153  0.7035
   71SAPC  H16Y 6237   2.617   4.027   4.495  0.1243  0.0321 -0.6214
   71SAPC  C317 6238   2.707   4.030   4.698 -0.2506  0.1972  0.0304
   71SAPC  H17X 6239   2.784   4.107   4.679  1.2881 -0.9297  1.4496
   71SAPC  H17Y 6240   2.766   3.962   4.762  0.0078  0.8600  0.4962
   71SAPC  C318 6241   2.586   4.086   4.763 -0.2938  0.8232 -0.0684
   71SAPC  H18X 6242   2.617   4.162   4.837  0.4125  0.2540  0.2294
   71SAPC  H18Y 6243   2.512   4.019   4.812 -0.9595 -0.4563 -2.6678
   71SAPC  H18Z 6244   2.528   4.154   4.697  3.2096  3.3981 -0.7123
   72SAPC     N 6245   6.315   0.291   2.407  0.9017 -0.4326  0.5273
   72SAPC   C12 6246   6.202   0.240   2.493  0.1458  0.4219 -0.0073
   72SAPC  H12A 6247   6.108   0.259   2.443  0.1330 -0.3436 -0.2756
   72SAPC  H12B 6248   6.203   0.296   2.586  3.5188 -2.0978  1.6865
   72SAPC   C13 6249   6.265   0.416   2.338  0.3718 -0.6238  0.4133
   72SAPC  H13A 6250   6.234   0.487   2.413 -0.3387 -2.3344  1.8217
   72SAPC  H13B 6251   6.344   0.461   2.281  0.1303 -2.1135 -1.2092
   72SAPC  H13C 6252   6.187   0.404   2.263  1.5939 -1.9942 -0.7069
   72SAPC   C14 6253   6.441   0.312   2.484  0.1201 -0.3352  0.0582
   72SAPC  H14A 6254   6.524   0.354   2.429 -0.9920  1.5032 -0.3120
   72SAPC  H14B 6255   6.425   0.389   2.558 -0.5140  0.0067 -0.4178
   72SAPC  H14C 6256   6.474   0.222   2.531  0.7363  0.6931  1.6766
   72SAPC   C15 6257   6.343   0.197   2.295  0.1580  0.3325 -0.3733
   72SAPC  H15A 6258   6.411   0.242   2.225 -0.0467  1.7439  0.3116
   72SAPC  H15B 6259   6.386   0.114   2.348 -0.3295  0.5968  0.4572
   72SAPC  H15C 6260   6.252   0.170   2.243  0.7636 -0.1780 -1.1763
   72SAPC   C11 6261   6.210   0.092   2.536 -0.2338  0.4137 -0.0149
   72SAPC  H11A 6262   6.236   0.028   2.449  0.0427 -1.1190  1.1541
   72SAPC  H11B 6263   6.118   0.047   2.577 -1.0182  1.5447 -0.4867
   72SAPC     P 6264   6.325   0.115   2.771  0.1183  0.1151 -0.8770
   72SAPC   O13 6265   6.445   0.056   2.833 -0.1533  0.4179  0.0059
   72SAPC   O14 6266   6.306   0.261   2.769 -0.4196 -0.0286  0.8921
   72SAPC   O12 6267   6.321   0.058   2.624  0.2470  0.2694  0.0592
   72SAPC   O11 6268   6.204   0.044   2.836  0.0640  0.3473 -0.8010
   72SAPC    C1 6269   6.190  -0.097   2.848 -0.4914  0.3135 -0.0377
   72SAPC    HA 6270   6.100  -0.134   2.794 -0.1355 -1.5877  0.6048
   72SAPC    HB 6271   6.279  -0.157   2.819 -0.1819  0.8238 -0.1474
   72SAPC    C2 6272   6.166  -0.136   2.994 -0.0276  0.0452 -0.4935
   72SAPC    HS 6273   6.170  -0.245   3.011 -0.8899  0.3759  2.3239
   72SAPC   O21 6274   6.037  -0.088   3.038 -0.3534  0.2472  0.4746
   72SAPC   C21 6275   5.937  -0.165   3.027 -0.6894 -0.2912 -0.3876
   72SAPC   O22 6276   5.938  -0.280   2.991 -0.2322  0.0686 -1.1059
   72SAPC   C22 6277   5.810  -0.083   3.057  0.0770  0.1590 -0.0595
   72SAPC   H2R 6278   5.830  -0.019   3.146  1.6952 -0.1388 -0.1865
   72SAPC   H2S 6279   5.795  -0.015   2.971  2.0597 -0.4437 -0.9381
   72SAPC    C3 6280   6.283  -0.072   3.072  0.4490 -0.1921  0.4276
   72SAPC    HX 6281   6.263   0.037   3.082  0.5298  0.0986 -2.0942
   72SAPC    HY 6282   6.372  -0.083   3.007  2.1302 -0.9432  2.7091
   72SAPC   O31 6283   6.308  -0.126   3.203 -0.8170  0.4205 -0.3298
   72SAPC   C31 6284   6.382  -0.242   3.208 -0.7339  0.3628  0.2487
   72SAPC   O32 6285   6.447  -0.281   3.115  0.0900 -0.0773  0.7061
   72SAPC   C32 6286   6.378  -0.317   3.341  0.7592 -0.1871 -0.1872
   72SAPC   H2X 6287   6.469  -0.377   3.317  0.1680 -1.0038 -0.4265
   72SAPC   H2Y 6288   6.283  -0.374   3.343 -0.8587  2.3664  1.6245
   72SAPC   C23 6289   5.681  -0.161   3.087 -0.5259 -0.5407 -0.3832
   72SAPC   H3R 6290   5.659  -0.221   2.996  1.3045 -2.8579  0.6055
   72SAPC   H3S 6291   5.598  -0.091   3.111  0.7478  0.5251  1.1313
   72SAPC   C24 6292   5.678  -0.263   3.207 -0.2152 -0.5071 -0.5404
   72SAPC   H4R 6293   5.741  -0.348   3.174  2.4937  1.0078  0.3959
   72SAPC   H4S 6294   5.574  -0.300   3.223  0.2317 -0.4656  3.1474
   72SAPC   C25 6295   5.717  -0.203   3.339 -0.3870 -0.1812  0.2400
   72SAPC   H5R 6296   5.661  -0.112   3.367 -1.8737 -0.5503 -1.3312
   72SAPC   C26 6297   5.828  -0.230   3.405  0.0611 -0.0200 -0.3969
   72SAPC   H6R 6298   5.854  -0.167   3.491 -0.2864  0.6042 -0.7438
   72SAPC   C27 6299   5.927  -0.338   3.382 -0.5614 -0.2264 -0.6406
   72SAPC   H7R 6300   6.025  -0.297   3.415 -0.6128  2.5748 -3.4883
   72SAPC   H7S 6301   5.940  -0.357   3.273  2.3610 -0.7220 -0.3087
   72SAPC   C28 6302   5.897  -0.472   3.447 -0.5572 -0.4202  0.2540
   72SAPC   H8R 6303   5.800  -0.511   3.416 -0.0480 -1.2117 -0.3944
   72SAPC   C29 6304   5.975  -0.545   3.530  0.7257 -0.3158 -0.3785
   72SAPC   H9R 6305   5.931  -0.637   3.570 -2.2630  0.2130 -2.1331
   72SAPC  C210 6306   6.097  -0.493   3.605  0.1970 -0.0224  0.4159
   72SAPC  H10R 6307   6.050  -0.442   3.691  1.0783 -0.0765  0.9364
   72SAPC  H10S 6308   6.155  -0.410   3.558  0.3004  0.9038  2.1208
   72SAPC  C211 6309   6.193  -0.601   3.642  0.6245 -0.0727 -0.2909
   72SAPC  H11R 6310   6.214  -0.662   3.553 -2.4441  1.4537 -2.2205
   72SAPC  C212 6311   6.245  -0.620   3.758  0.1749  0.7642 -0.0009
   72SAPC  H12R 6312   6.312  -0.706   3.773 -1.4485 -0.6202 -0.4241
   72SAPC  C213 6313   6.241  -0.527   3.876  0.4140  0.4155  0.3744
   72SAPC  H13R 6314   6.265  -0.426   3.836  2.3457 -0.3004 -0.3746
   72SAPC  H13S 6315   6.321  -0.553   3.948  3.0227  2.3817 -1.6196
   72SAPC  C214 6316   6.114  -0.509   3.958  0.4537 -0.4267  0.3134
   72SAPC  H14R 6317   6.089  -0.402   3.963 -1.0607 -0.5527 -2.2899
   72SAPC  C215 6318   6.031  -0.594   4.015  0.1600  0.3325  0.2161
   72SAPC  H15R 6319   5.937  -0.550   4.052 -1.0860  0.7663 -3.1297
   72SAPC  C216 6320   6.034  -0.745   3.994  0.0229  0.2113 -0.1938
   72SAPC  H16R 6321   5.984  -0.789   4.083  0.9672  0.3626  0.4251
   72SAPC  H16S 6322   6.138  -0.785   3.992  1.1330  2.8021  0.5242
   72SAPC  C217 6323   5.957  -0.776   3.872 -0.4377  0.4423  0.1460
   72SAPC  H17R 6324   6.006  -0.722   3.788  1.7561  2.0407  2.3132
   72SAPC  H17S 6325   5.855  -0.733   3.869 -0.1115  1.3140  1.1078
   72SAPC  C218 6326   5.953  -0.920   3.833  0.4451 -0.9173  0.5672
   72SAPC  H18R 6327   5.866  -0.959   3.890 -0.0928  0.1963  0.5238
   72SAPC  H18S 6328   6.038  -0.976   3.877 -0.1320 -1.6744  0.7481
   72SAPC  C219 6329   5.928  -0.952   3.680 -0.2979  0.3417 -0.2088
   72SAPC  H19R 6330   5.877  -0.874   3.619  1.0303 -0.3818 -2.3826
   72SAPC  H19S 6331   5.872  -1.048   3.679  1.8556 -1.0240  1.0825
   72SAPC  C220 6332   6.059  -0.978   3.601 -0.4582  0.0079 -0.3115
   72SAPC  H20R 6333   6.114  -0.882   3.619  0.9258 -0.7383 -0.3986
   72SAPC  H20S 6334   6.050  -0.994   3.491 -0.4756 -1.0182 -0.1619
   72SAPC  H20T 6335   6.123  -1.061   3.638 -3.2294 -1.7517  0.8076
   72SAPC   C33 6336   6.380  -0.230   3.468  0.2702  0.2026 -0.0408
   72SAPC   H3X 6337   6.380  -0.299   3.555 -1.2279  0.7804  0.4522
   72SAPC   H3Y 6338   6.279  -0.191   3.493  1.0006  0.5383  2.7755
   72SAPC   C34 6339   6.491  -0.134   3.494 -0.6808 -0.1829  0.2776
   72SAPC   H4X 6340   6.510  -0.074   3.403  0.0874 -1.5410 -0.4893
   72SAPC   H4Y 6341   6.579  -0.201   3.503 -0.9998 -0.7039 -0.3644
   72SAPC   C35 6342   6.460  -0.056   3.626 -0.3143 -0.7051  0.5121
   72SAPC   H5X 6343   6.377   0.018   3.620  1.7126  1.9461  2.4100
   72SAPC   H5Y 6344   6.547   0.008   3.653 -0.6229  0.0811 -0.2916
   72SAPC   C36 6345   6.453  -0.138   3.754 -0.3892 -1.0495  0.1235
   72SAPC   H6X 6346   6.556  -0.180   3.762 -0.1072 -0.0875  2.7245
   72SAPC   H6Y 6347   6.376  -0.218   3.755 -0.4874 -0.9566 -0.0480
   72SAPC   C37 6348   6.428  -0.046   3.879 -0.0316 -0.0767  0.7363
   72SAPC   H7X 6349   6.340   0.016   3.852 -0.6510 -0.1986  2.4070
   72SAPC   H7Y 6350   6.521   0.012   3.898  0.5872 -1.2562  1.3851
   72SAPC   C38 6351   6.405  -0.134   4.002  0.6627  0.8757 -0.0933
   72SAPC   H8X 6352   6.325  -0.210   3.991  1.1638  0.1888  0.9001
   72SAPC   H8Y 6353   6.381  -0.067   4.087 -0.2325 -0.4821  0.7597
   72SAPC   C39 6354   6.535  -0.207   4.037  0.5297 -0.0605  0.5588
   72SAPC   H9X 6355   6.619  -0.137   4.019  0.2042  1.0871  3.1405
   72SAPC   H9Y 6356   6.544  -0.295   3.969  2.5424 -0.2634  1.0398
   72SAPC  C310 6357   6.550  -0.249   4.182 -0.1594 -0.6869  0.0557
   72SAPC  H10X 6358   6.557  -0.158   4.245  2.1593 -0.8282  0.1101
   72SAPC  H10Y 6359   6.645  -0.308   4.190  0.0685 -0.3929 -0.4330
   72SAPC  C311 6360   6.425  -0.331   4.222 -0.7035  0.1900 -0.1399
   72SAPC  H11X 6361   6.404  -0.414   4.150 -2.1294 -0.1139  0.5896
   72SAPC  H11Y 6362   6.339  -0.261   4.219 -0.5013  0.4332 -0.2998
   72SAPC  C312 6363   6.431  -0.391   4.367 -0.2359  1.0383 -0.3784
   72SAPC  H12X 6364   6.457  -0.308   4.436  1.4648  0.0036  0.2644
   72SAPC  H12Y 6365   6.509  -0.469   4.377  0.1198  1.5403  0.8933
   72SAPC  C313 6366   6.286  -0.449   4.393  0.1925 -0.3815  0.0877
   72SAPC  H13X 6367   6.243  -0.468   4.292  0.1574 -1.6891  0.3370
   72SAPC  H13Y 6368   6.230  -0.364   4.436  2.0013  1.2263 -0.5653
   72SAPC  C314 6369   6.300  -0.573   4.476 -0.0132  1.0366 -0.6604
   72SAPC  H14X 6370   6.312  -0.544   4.583 -0.5233  0.3109 -0.3953
   72SAPC  H14Y 6371   6.388  -0.637   4.452 -0.5177  0.1449 -0.2069
   72SAPC  C315 6372   6.159  -0.645   4.490 -0.1509  0.4028  0.3336
   72SAPC  H15X 6373   6.114  -0.660   4.390 -0.2295  1.4639  0.2032
   72SAPC  H15Y 6374   6.089  -0.583   4.551 -0.2209 -0.2786  0.9676
   72SAPC  C316 6375   6.163  -0.781   4.545 -0.4781  1.0148  0.5171
   72SAPC  H16X 6376   6.218  -0.851   4.478  1.1009  1.3079  1.4624
   72SAPC  H16Y 6377   6.062  -0.826   4.550  1.0448 -3.1917 -1.4567
   72SAPC  C317 6378   6.221  -0.806   4.685 -0.8766 -0.6820  0.7802
   72SAPC  H17X 6379   6.152  -0.769   4.764  0.9331  0.0083  2.1250
   72SAPC  H17Y 6380   6.320  -0.756   4.695 -1.0098 -0.3002  0.2378
   72SAPC  C318 6381   6.233  -0.961   4.705 -0.5888 -0.0410 -0.1173
   72SAPC  H18X 6382   6.128  -0.995   4.692 -0.1601 -0.9577 -1.4046
   72SAPC  H18Y 6383   6.267  -0.989   4.807 -0.1882 -1.4826 -0.6192
   72SAPC  H18Z 6384   6.294  -1.013   4.627 -0.2012  0.5289 -0.2016
   73SLPC     N 6385   2.493   6.150   7.355  0.3692 -0.3567  0.4696
   73SLPC   C13 6386   2.600   6.161   7.462  0.8083  0.4924 -0.0656
   73SLPC  H13A 6387   2.558   6.146   7.560  0.1956  1.1184 -0.2273
   73SLPC  H13B 6388   2.673   6.084   7.442  0.0484  0.1948 -1.8925
   73SLPC  H13C 6389   2.655   6.253   7.446  2.1160 -0.2381  0.0725
   73SLPC   C14 6390   2.395   6.261   7.373  0.0758 -0.2555  0.1182
   73SLPC  H14A 6391   2.331   6.260   7.285  1.6197  3.7847 -1.2731
   73SLPC  H14B 6392   2.336   6.256   7.463 -1.0349  1.5206 -0.4440
   73SLPC  H14C 6393   2.449   6.354   7.381 -0.0876 -0.0904 -0.5539
   73SLPC   C15 6394   2.420   6.020   7.372 -0.2215 -0.3871  0.4714
   73SLPC  H15A 6395   2.355   6.006   7.287  0.4072  0.5078 -0.1826
   73SLPC  H15B 6396   2.495   5.943   7.372 -1.0222 -1.1832  0.1475
   73SLPC  H15C 6397   2.354   6.031   7.457 -1.2784  3.6637 -0.6614
   73SLPC   C12 6398   2.556   6.151   7.219  0.4900  0.1150  0.4255
   73SLPC  H12A 6399   2.597   6.052   7.202  0.4255  0.2766 -0.6967
   73SLPC  H12B 6400   2.642   6.216   7.225  0.3407  0.2733  0.9144
   73SLPC   C11 6401   2.471   6.177   7.088  0.1870  0.1880  0.1611
   73SLPC  H11A 6402   2.374   6.125   7.105  0.4935 -0.0872  1.1539
   73SLPC  H11B 6403   2.519   6.124   7.003 -0.8116 -0.4251 -0.0397
   73SLPC     P 6404   2.355   6.366   6.949 -0.3161  0.0857  0.0349
   73SLPC   O13 6405   2.234   6.435   7.011  0.3297 -0.2367 -0.3685
   73SLPC   O14 6406   2.425   6.466   6.860  0.9566  0.5113  0.7543
   73SLPC   O12 6407   2.450   6.312   7.067 -0.1614  0.3040 -0.2334
   73SLPC   O11 6408   2.308   6.236   6.874 -0.6342  0.4262  0.5263
   73SLPC    C1 6409   2.383   6.173   6.767  0.3714  0.1498 -0.8455
   73SLPC    HA 6410   2.492   6.193   6.772 -0.0741  2.6036  1.4249
   73SLPC    HB 6411   2.370   6.064   6.782  3.5761 -0.1556  0.3016
   73SLPC    C2 6412   2.325   6.190   6.629 -0.8509 -0.6251  0.3591
   73SLPC    HS 6413   2.352   6.107   6.560  0.0755  0.1066 -0.1876
   73SLPC   O21 6414   2.368   6.318   6.561 -0.1019 -0.2996 -1.0938
   73SLPC   C21 6415   2.487   6.302   6.502  0.0233  0.0996 -0.2166
   73SLPC   O22 6416   2.547   6.195   6.499  0.3335 -0.1436  0.0330
   73SLPC   C22 6417   2.534   6.433   6.445  0.1992 -0.4581  0.1892
   73SLPC   H2R 6418   2.459   6.489   6.385  1.5314  1.4190  0.2123
   73SLPC   H2S 6419   2.567   6.494   6.531 -0.2268 -2.0401  1.5405
   73SLPC    C3 6420   2.170   6.181   6.626  0.3559 -0.2022  0.2847
   73SLPC    HX 6421   2.117   6.258   6.686 -1.9746 -0.5690 -1.1806
   73SLPC    HY 6422   2.139   6.081   6.665 -1.4144  0.3233  0.3216
   73SLPC   O31 6423   2.119   6.183   6.491 -0.0544 -0.1486  0.2372
   73SLPC   C31 6424   2.058   6.298   6.460 -0.1537  0.2691  1.3538
   73SLPC   O32 6425   2.028   6.385   6.533 -0.6129 -0.3207  0.5570
   73SLPC   C32 6426   2.031   6.298   6.307 -0.4772  0.1871 -0.3598
   73SLPC   H2X 6427   1.924   6.329   6.300 -0.1407  1.3055 -0.7616
   73SLPC   H2Y 6428   2.045   6.202   6.253 -0.5220  0.5836 -1.0904
   73SLPC   C23 6429   2.650   6.417   6.342  0.2716  0.7171 -0.8056
   73SLPC   H3R 6430   2.737   6.375   6.397 -1.5062 -0.0027  1.5793
   73SLPC   H3S 6431   2.679   6.524   6.336 -1.3057  1.5666  3.5830
   73SLPC   C24 6432   2.622   6.353   6.205  0.6599  0.4915 -0.1115
   73SLPC   H4R 6433   2.618   6.242   6.199 -0.8444  0.4907  0.2924
   73SLPC   H4S 6434   2.719   6.371   6.155 -0.6842  1.0863 -2.6814
   73SLPC   C25 6435   2.510   6.425   6.118  0.1053 -0.0151  0.4735
   73SLPC   H5R 6436   2.507   6.532   6.148  0.8884  0.7890 -2.1005
   73SLPC   H5S 6437   2.414   6.374   6.141  0.0129 -1.3109 -2.3388
   73SLPC   C26 6438   2.535   6.429   5.967  0.0728  0.7840 -0.4130
   73SLPC   H6R 6439   2.638   6.467   5.948 -0.1476  1.4146 -0.3910
   73SLPC   H6S 6440   2.466   6.501   5.916  2.9113  1.7879 -3.1663
   73SLPC   C27 6441   2.532   6.287   5.899 -0.3531  0.0263  0.9438
   73SLPC   H7R 6442   2.428   6.250   5.890 -0.1046 -1.0970  2.2989
   73SLPC   H7S 6443   2.571   6.218   5.977 -0.3444 -1.6406 -0.4723
   73SLPC   C28 6444   2.611   6.276   5.768  0.0345  1.2613  0.5140
   73SLPC   H8R 6445   2.608   6.169   5.737  0.2467  1.8276 -1.6479
   73SLPC   H8S 6446   2.716   6.300   5.796 -0.2478  1.1044  1.7757
   73SLPC   C29 6447   2.550   6.367   5.667  0.2849 -0.0336  0.0224
   73SLPC   H9R 6448   2.440   6.369   5.655 -0.0620 -0.4953  2.5763
   73SLPC  C210 6449   2.615   6.445   5.577 -0.1516 -0.3353  0.9260
   73SLPC  H10R 6450   2.554   6.514   5.515 -2.4195  0.5701  3.9296
   73SLPC  C211 6451   2.766   6.452   5.585 -0.0409 -0.2390 -0.3703
   73SLPC  H11R 6452   2.815   6.355   5.564  0.3503 -0.1755  0.2240
   73SLPC  H11S 6453   2.798   6.476   5.689 -1.8567 -1.1743  0.4327
   73SLPC  C212 6454   2.809   6.557   5.491 -0.0619  0.0242 -0.2166
   73SLPC  H12R 6455   2.731   6.598   5.425  0.4926  2.2766  0.4734
   73SLPC  C213 6456   2.928   6.598   5.461 -0.2184  0.8155  0.6840
   73SLPC  H13R 6457   2.935   6.680   5.387  0.6720 -2.5346 -3.2989
   73SLPC  C214 6458   3.057   6.567   5.534 -0.0963 -0.2843  0.1671
   73SLPC  H14R 6459   3.113   6.662   5.549 -0.4830  0.1856 -1.1818
   73SLPC  H14S 6460   3.131   6.516   5.469  0.7293 -1.8451  2.2280
   73SLPC  C215 6461   3.061   6.482   5.665 -0.3313 -0.1397 -0.5397
   73SLPC  H15R 6462   3.044   6.374   5.647 -0.1598 -0.0122 -1.5088
   73SLPC  H15S 6463   2.989   6.519   5.741 -0.6225  0.9426 -1.3193
   73SLPC  C216 6464   3.203   6.474   5.720  0.6010  0.4764 -0.4755
   73SLPC  H16R 6465   3.226   6.579   5.746 -2.3417  1.4212 -1.3109
   73SLPC  H16S 6466   3.277   6.436   5.646  0.4160 -1.8558  0.4657
   73SLPC  C217 6467   3.203   6.381   5.842  0.4355  0.5528 -0.3158
   73SLPC  H17R 6468   3.203   6.274   5.814  1.1717  1.1095 -2.5999
   73SLPC  H17S 6469   3.114   6.400   5.907  0.2015  1.9730 -1.0213
   73SLPC  C218 6470   3.316   6.414   5.941  0.0143  0.3956 -0.1269
   73SLPC  H18R 6471   3.311   6.523   5.959  0.1527  0.2732  0.6942
   73SLPC  H18S 6472   3.418   6.399   5.899  0.2568  2.1145 -0.2298
   73SLPC  H18T 6473   3.298   6.354   6.033 -1.3349  1.6731  0.4754
   73SLPC   C33 6474   2.107   6.412   6.245  0.1587  0.5738 -0.1430
   73SLPC   H3X 6475   2.214   6.385   6.233 -0.2938 -2.5463  1.5498
   73SLPC   H3Y 6476   2.113   6.501   6.312  2.0694  1.5778 -1.5661
   73SLPC   C34 6477   2.054   6.460   6.116 -0.1450 -0.0403 -0.0550
   73SLPC   H4X 6478   2.062   6.571   6.112  0.1593  0.0563  2.0799
   73SLPC   H4Y 6479   1.947   6.433   6.105  0.0645 -1.5990  1.3048
   73SLPC   C35 6480   2.136   6.394   6.000 -0.6468  0.4776  0.2161
   73SLPC   H5X 6481   2.142   6.283   6.001  1.1923  0.5372  1.0602
   73SLPC   H5Y 6482   2.243   6.413   6.024 -1.1447  0.5168  2.6587
   73SLPC   C36 6483   2.089   6.445   5.860  0.4892 -0.0919  0.3301
   73SLPC   H6X 6484   2.068   6.554   5.857 -1.7311 -0.4758 -2.4153
   73SLPC   H6Y 6485   1.984   6.408   5.854  0.0851  0.9975  0.4235
   73SLPC   C37 6486   2.162   6.393   5.736  0.3416 -0.2848 -0.4462
   73SLPC   H7X 6487   2.168   6.282   5.737 -0.4037 -0.3319 -0.7233
   73SLPC   H7Y 6488   2.266   6.434   5.734 -0.0216  0.8395  1.3161
   73SLPC   C38 6489   2.113   6.454   5.607 -0.3994  0.0123  0.6693
   73SLPC   H8X 6490   2.114   6.565   5.618 -0.7367 -0.1321  2.3851
   73SLPC   H8Y 6491   2.009   6.416   5.602 -0.4007 -0.1777  1.8242
   73SLPC   C39 6492   2.192   6.414   5.482 -0.5386 -0.7125  0.0600
   73SLPC   H9X 6493   2.146   6.327   5.429  0.5751 -1.1668 -0.1769
   73SLPC   H9Y 6494   2.298   6.400   5.510 -0.9409 -1.4528  1.3430
   73SLPC  C310 6495   2.188   6.522   5.372  0.1766  0.2544  0.4220
   73SLPC  H10X 6496   2.288   6.565   5.349 -1.2672  3.4677 -0.4012
   73SLPC  H10Y 6497   2.128   6.611   5.401  0.8277  1.1215 -0.7716
   73SLPC  C311 6498   2.116   6.484   5.242 -0.1343 -0.2401  0.2246
   73SLPC  H11X 6499   2.100   6.580   5.189  0.8002 -0.8523 -1.2298
   73SLPC  H11Y 6500   2.011   6.448   5.252 -0.4502  0.8774  1.0535
   73SLPC  C312 6501   2.188   6.391   5.151  0.2690  0.6577 -0.0578
   73SLPC  H12X 6502   2.157   6.286   5.173  0.3193  0.0730 -2.5221
   73SLPC  H12Y 6503   2.293   6.379   5.186  0.3019 -1.2233 -0.6927
   73SLPC  C313 6504   2.183   6.425   5.003 -0.4148 -0.2944 -0.1999
   73SLPC  H13X 6505   2.254   6.508   4.981 -0.6470 -0.0246  0.0582
   73SLPC  H13Y 6506   2.076   6.453   4.992 -0.6674 -1.8085 -2.3936
   73SLPC  C314 6507   2.217   6.313   4.897 -0.1561  0.0231  0.4509
   73SLPC  H14X 6508   2.292   6.244   4.941  0.7300  0.6047 -0.1124
   73SLPC  H14Y 6509   2.254   6.371   4.809  2.4631  0.1089  1.5017
   73SLPC  C315 6510   2.097   6.250   4.837  0.3644  0.3726 -0.0534
   73SLPC  H15X 6511   2.030   6.326   4.791  0.0270 -0.5503 -1.1381
   73SLPC  H15Y 6512   2.035   6.202   4.917 -0.6810 -1.7094 -1.9814
   73SLPC  C316 6513   2.125   6.156   4.724 -0.3656  0.6868 -0.1434
   73SLPC  H16X 6514   2.218   6.096   4.738 -0.3813  0.4423 -1.0048
   73SLPC  H16Y 6515   2.136   6.220   4.634 -0.6274  3.1183  1.4718
   73SLPC  C317 6516   2.020   6.046   4.696  0.5235 -0.0695  0.4566
   73SLPC  H17X 6517   1.921   6.096   4.693  0.9049  0.7212  0.6942
   73SLPC  H17Y 6518   2.008   5.976   4.782 -1.3445  0.2335  0.4973
   73SLPC  C318 6519   2.057   5.961   4.577  0.0929  0.5658  0.7508
   73SLPC  H18X 6520   2.043   6.023   4.486  1.0374  0.7105  0.7008
   73SLPC  H18Y 6521   1.988   5.874   4.577  2.6487 -1.6058  0.3962
   73SLPC  H18Z 6522   2.159   5.919   4.585 -0.4264 -0.5546  1.9781
   74SLPC     N 6523   1.040   0.775   7.353 -1.1111 -0.5201 -0.7430
   74SLPC   C13 6524   1.107   0.801   7.486 -0.4870  0.5046  0.7086
   74SLPC  H13A 6525   1.197   0.744   7.503 -1.9019 -1.5955  1.6005
   74SLPC  H13B 6526   1.129   0.907   7.486  0.4061  0.3401  1.5388
   74SLPC  H13C 6527   1.042   0.784   7.571  1.8801 -0.2073  2.5212
   74SLPC   C14 6528   0.933   0.872   7.344 -0.4641 -0.2632 -0.6201
   74SLPC  H14A 6529   0.859   0.860   7.423 -0.7378 -0.8075 -0.9544
   74SLPC  H14B 6530   0.965   0.974   7.332  0.5294 -0.7079 -2.0221
   74SLPC  H14C 6531   0.872   0.861   7.256 -0.7029 -0.9614 -0.3759
   74SLPC   C15 6532   0.974   0.643   7.346 -0.6565  0.0644  0.1956
   74SLPC  H15A 6533   0.877   0.653   7.392 -0.8530  2.7506 -0.6052
   74SLPC  H15B 6534   0.955   0.608   7.245 -0.8906 -1.9275  0.8801
   74SLPC  H15C 6535   1.028   0.562   7.393 -2.9277 -0.6798  1.7053
   74SLPC   C12 6536   1.136   0.778   7.240 -0.5478 -0.2697  0.7288
   74SLPC  H12A 6537   1.079   0.755   7.151  1.8487  2.5289 -1.7739
   74SLPC  H12B 6538   1.210   0.704   7.264 -0.1090  0.2193  0.9136
   74SLPC   C11 6539   1.212   0.912   7.217  0.6510 -0.0267  0.5107
   74SLPC  H11A 6540   1.134   0.982   7.181  1.6808  0.9668  0.1386
   74SLPC  H11B 6541   1.280   0.889   7.131  0.1737  1.3030 -0.2462
   74SLPC     P 6542   1.417   0.907   7.364  0.0247 -0.2660  0.0196
   74SLPC   O13 6543   1.480   0.973   7.481 -0.0010 -0.3944 -0.4301
   74SLPC   O14 6544   1.402   0.757   7.382 -0.2566 -1.0820  0.6408
   74SLPC   O12 6545   1.273   0.965   7.329 -0.1485  0.1932  0.0129
   74SLPC   O11 6546   1.494   0.940   7.228 -0.4007  0.1723  0.8382
   74SLPC    C1 6547   1.632   0.905   7.216  0.1643  0.0751  0.1623
   74SLPC    HA 6548   1.702   0.985   7.248 -0.1343 -0.0284  1.1371
   74SLPC    HB 6549   1.648   0.814   7.279 -0.8208 -0.4071 -0.2522
   74SLPC    C2 6550   1.674   0.847   7.079  0.0612  0.1896  0.4615
   74SLPC    HS 6551   1.781   0.818   7.081 -0.4333 -1.7220  0.8727
   74SLPC   O21 6552   1.648   0.949   6.973  0.4890  0.0207  0.4829
   74SLPC   C21 6553   1.748   1.043   6.963  0.1633  0.3089  0.0819
   74SLPC   O22 6554   1.851   1.029   7.033  0.5856  0.0554  0.3415
   74SLPC   C22 6555   1.720   1.137   6.849  0.2653 -0.3280  0.2881
   74SLPC   H2R 6556   1.644   1.218   6.853  1.4579  0.8572 -0.0679
   74SLPC   H2S 6557   1.813   1.198   6.836  1.6402 -1.4216  3.7977
   74SLPC    C3 6558   1.604   0.712   7.046  0.5371  0.4155 -0.6786
   74SLPC    HX 6559   1.498   0.736   7.022  0.0733  0.5975  1.3479
   74SLPC    HY 6560   1.598   0.652   7.140 -0.4820  0.2460 -0.8389
   74SLPC   O31 6561   1.680   0.665   6.933 -0.2266  0.0325 -0.3013
   74SLPC   C31 6562   1.698   0.525   6.949  0.8811 -0.0048  0.5701
   74SLPC   O32 6563   1.652   0.463   7.035  0.4373  0.5907 -0.4141
   74SLPC   C32 6564   1.765   0.457   6.822  0.4086  0.1129 -0.3406
   74SLPC   H2X 6565   1.873   0.478   6.825  0.0914  1.7138  1.4786
   74SLPC   H2Y 6566   1.712   0.506   6.737  0.1115  2.9336  1.3491
   74SLPC   C23 6567   1.680   1.066   6.722 -0.0473 -0.2693  1.2428
   74SLPC   H3R 6568   1.583   1.107   6.687  0.0433 -1.2228 -0.2267
   74SLPC   H3S 6569   1.661   0.957   6.731  0.6225 -0.5087  0.0401
   74SLPC   C24 6570   1.772   1.089   6.604 -0.2747  0.2418 -0.2082
   74SLPC   H4R 6571   1.739   1.043   6.508  3.2260  1.7716 -2.3640
   74SLPC   H4S 6572   1.870   1.045   6.632  0.5808  2.3079  0.1573
   74SLPC   C25 6573   1.782   1.237   6.565 -0.1807 -0.1894  0.4247
   74SLPC   H5R 6574   1.805   1.301   6.653  2.3517  0.3840 -0.5699
   74SLPC   H5S 6575   1.683   1.270   6.527 -0.4729 -1.2262  0.2747
   74SLPC   C26 6576   1.884   1.274   6.453 -0.2181  0.3874  0.3950
   74SLPC   H6R 6577   1.988   1.250   6.485 -0.3432  0.1641  0.6335
   74SLPC   H6S 6578   1.884   1.383   6.431  1.5801  0.1919 -0.7817
   74SLPC   C27 6579   1.848   1.207   6.322 -0.2059  0.2054 -0.0299
   74SLPC   H7R 6580   1.747   1.244   6.296  0.5384  2.9635  0.6285
   74SLPC   H7S 6581   1.841   1.098   6.342  1.5474 -0.0144 -0.4836
   74SLPC   C28 6582   1.961   1.212   6.216 -0.5929 -0.0596 -0.3921
   74SLPC   H8R 6583   1.928   1.151   6.129 -2.0046  1.7623 -1.1969
   74SLPC   H8S 6584   2.063   1.175   6.241  0.1608  1.6486 -0.7992
   74SLPC   C29 6585   1.986   1.352   6.172  0.1537  0.2428  0.0850
   74SLPC   H9R 6586   2.015   1.430   6.244 -0.3817  0.5670 -0.0441
   74SLPC  C210 6587   1.980   1.405   6.048  0.3322  0.5506 -0.6985
   74SLPC  H10R 6588   1.989   1.513   6.029 -0.9837  0.5987 -1.1427
   74SLPC  C211 6589   1.939   1.337   5.922 -0.6290  0.3006  0.2066
   74SLPC  H11R 6590   1.845   1.281   5.935 -1.9471  1.8051 -2.0472
   74SLPC  H11S 6591   2.019   1.270   5.883  1.6891  1.8137  2.0651
   74SLPC  C212 6592   1.917   1.432   5.806 -0.0838  0.7305  0.8338
   74SLPC  H12R 6593   1.836   1.503   5.827 -0.9899 -0.3611  1.1295
   74SLPC  C213 6594   1.985   1.447   5.687  0.4220  0.8042  0.1176
   74SLPC  H13R 6595   1.930   1.520   5.626 -0.6902 -0.5005 -0.5124
   74SLPC  C214 6596   2.108   1.377   5.640  0.3515  0.0731 -0.1939
   74SLPC  H14R 6597   2.136   1.295   5.710 -0.5443 -2.2959 -2.4378
   74SLPC  H14S 6598   2.194   1.447   5.630 -0.6164  1.4290  0.7727
   74SLPC  C215 6599   2.087   1.307   5.502 -0.0619  0.2544 -0.1568
   74SLPC  H15R 6600   2.012   1.226   5.521 -1.3171  1.5559  0.7226
   74SLPC  H15S 6601   2.176   1.243   5.490 -0.6334 -0.9991  1.7784
   74SLPC  C216 6602   2.051   1.392   5.388 -0.0182 -0.0043 -0.6002
   74SLPC  H16R 6603   2.108   1.488   5.382  0.1262  0.0748  1.3833
   74SLPC  H16S 6604   1.944   1.422   5.395  0.7147  3.1359 -1.1200
   74SLPC  C217 6605   2.078   1.319   5.253  0.1916  0.2146  0.0014
   74SLPC  H17R 6606   2.032   1.218   5.259  0.6510  0.0125  0.1451
   74SLPC  H17S 6607   2.188   1.317   5.238  0.2988 -0.7536  0.8279
   74SLPC  C218 6608   2.015   1.395   5.135 -0.5076  0.2887 -0.4287
   74SLPC  H18R 6609   2.078   1.395   5.044 -1.1311 -0.5254 -0.8678
   74SLPC  H18S 6610   1.990   1.502   5.151  0.8305  0.6809 -0.8505
   74SLPC  H18T 6611   1.914   1.350   5.126 -0.1584 -1.1368  1.9380
   74SLPC   C33 6612   1.739   0.299   6.812 -0.3933 -0.0329  0.2671
   74SLPC   H3X 6613   1.632   0.269   6.821 -0.6837  0.7433 -0.4764
   74SLPC   H3Y 6614   1.784   0.260   6.906 -2.1208  1.3317  1.7308
   74SLPC   C34 6615   1.801   0.240   6.686  0.4261  0.2162  0.2397
   74SLPC   H4X 6616   1.750   0.289   6.600 -1.0402  1.8219  1.9204
   74SLPC   H4Y 6617   1.787   0.130   6.690 -0.2759  0.2083 -1.5840
   74SLPC   C35 6618   1.950   0.253   6.678 -0.7313  0.1582  0.1203
   74SLPC   H5X 6619   1.991   0.231   6.778 -2.6200  1.0252  1.1260
   74SLPC   H5Y 6620   1.975   0.357   6.647 -1.3851 -0.7894 -4.2646
   74SLPC   C36 6621   2.013   0.151   6.582 -0.3938  0.3190  0.5039
   74SLPC   H6X 6622   1.996   0.048   6.621  1.7650  0.3561  1.7295
   74SLPC   H6Y 6623   2.123   0.160   6.592 -0.1875 -1.0037 -0.2919
   74SLPC   C37 6624   1.990   0.175   6.436 -0.0349  0.5622 -0.6212
   74SLPC   H7X 6625   1.882   0.184   6.409 -0.3235  1.3805  0.7096
   74SLPC   H7Y 6626   2.031   0.086   6.385  0.5054 -0.8033  2.0493
   74SLPC   C38 6627   2.065   0.302   6.382  0.0116  0.0005 -0.0597
   74SLPC   H8X 6628   2.174   0.295   6.401  0.2142  0.4421 -1.0184
   74SLPC   H8Y 6629   2.016   0.387   6.433  0.6940 -1.6384  3.6621
   74SLPC   C39 6630   2.048   0.317   6.228 -0.6303 -0.3946 -0.0126
   74SLPC   H9X 6631   2.093   0.414   6.200  2.1001 -0.7144  2.7271
   74SLPC   H9Y 6632   1.941   0.296   6.208 -1.2267  0.8070  1.6724
   74SLPC  C310 6633   2.133   0.212   6.143 -0.1217  0.4072 -0.0603
   74SLPC  H10X 6634   2.106   0.109   6.174 -0.2883  0.0923 -1.2039
   74SLPC  H10Y 6635   2.238   0.221   6.178  0.3130 -0.9460 -0.9097
   74SLPC  C311 6636   2.137   0.231   5.992  0.2088 -0.0248  0.3065
   74SLPC  H11X 6637   2.233   0.192   5.951 -0.6629 -0.2199 -1.6629
   74SLPC  H11Y 6638   2.140   0.338   5.963  2.2854 -0.6406 -2.1610
   74SLPC  C312 6639   2.017   0.161   5.915  0.3150 -0.2244  0.3653
   74SLPC  H12X 6640   1.920   0.183   5.964  1.1917 -0.0944  2.1217
   74SLPC  H12Y 6641   2.035   0.051   5.920 -3.0929 -0.9575 -0.5348
   74SLPC  C313 6642   2.002   0.189   5.772  0.3180  0.3129  0.0261
   74SLPC  H13X 6643   1.998   0.300   5.762 -1.2716  0.1929 -0.9397
   74SLPC  H13Y 6644   1.908   0.144   5.735 -1.6985  3.1597  1.3263
   74SLPC  C314 6645   2.121   0.125   5.690 -0.4938 -0.4602  0.4285
   74SLPC  H14X 6646   2.119   0.014   5.686  0.2186 -0.4555 -2.6252
   74SLPC  H14Y 6647   2.202   0.156   5.760  0.3286 -1.1309 -0.2136
   74SLPC  C315 6648   2.150   0.194   5.553  0.4035  0.1711 -0.0581
   74SLPC  H15X 6649   2.248   0.163   5.510  0.4453  1.8561 -1.2448
   74SLPC  H15Y 6650   2.161   0.302   5.572  0.5424  0.3460 -1.0744
   74SLPC  C316 6651   2.033   0.177   5.459 -0.0399 -0.2778 -0.4515
   74SLPC  H16X 6652   2.068   0.220   5.363  3.2370 -2.0699 -0.2012
   74SLPC  H16Y 6653   1.941   0.234   5.485 -0.1602 -0.6538 -0.0297
   74SLPC  C317 6654   1.997   0.030   5.421  1.3991  0.5348  0.2385
   74SLPC  H17X 6655   1.937  -0.008   5.506 -0.6024 -1.9310 -2.0665
   74SLPC  H17Y 6656   2.088  -0.031   5.402  2.2337  1.6944  0.4825
   74SLPC  C318 6657   1.900   0.033   5.299  0.0894 -0.8130 -0.3993
   74SLPC  H18X 6658   1.809   0.089   5.329 -0.5131 -2.0084  0.0814
   74SLPC  H18Y 6659   1.870  -0.071   5.272  0.6455 -0.9576 -0.4841
   74SLPC  H18Z 6660   1.945   0.091   5.216 -1.9894  0.4330 -0.7089
   75SLPC     N 6661   2.223   1.704   7.464 -0.3121 -0.0439  0.4398
   75SLPC   C13 6662   2.097   1.771   7.416 -0.2391  0.1994  0.0453
   75SLPC  H13A 6663   2.106   1.876   7.392  2.1805  0.3773  1.3486
   75SLPC  H13B 6664   2.072   1.719   7.324  0.4724  2.1277 -1.3012
   75SLPC  H13C 6665   2.019   1.755   7.489 -0.9450  0.4591 -0.6428
   75SLPC   C14 6666   2.198   1.553   7.473 -0.9744  0.1423  0.0127
   75SLPC  H14A 6667   2.189   1.522   7.370  1.9325  0.4402 -0.4003
   75SLPC  H14B 6668   2.287   1.497   7.496 -0.7848  1.0403  1.6412
   75SLPC  H14C 6669   2.113   1.525   7.534  0.2339 -1.1640  1.1706
   75SLPC   C15 6670   2.263   1.753   7.601 -0.4929 -0.3071  0.4492
   75SLPC  H15A 6671   2.180   1.756   7.669 -0.5962  0.6603  0.3009
   75SLPC  H15B 6672   2.325   1.675   7.642 -1.9131 -3.5081 -2.8767
   75SLPC  H15C 6673   2.309   1.851   7.598 -3.2372  1.0823 -2.0864
   75SLPC   C12 6674   2.330   1.728   7.363 -0.3670  0.0568  0.5882
   75SLPC  H12A 6675   2.340   1.835   7.352 -0.8611  0.2076  1.4574
   75SLPC  H12B 6676   2.316   1.693   7.262  0.7255  1.6244 -0.1386
   75SLPC   C11 6677   2.466   1.677   7.399  0.1037 -0.4136 -0.1032
   75SLPC  H11A 6678   2.500   1.708   7.500  0.0815 -0.9998  0.0907
   75SLPC  H11B 6679   2.545   1.722   7.335  0.3051 -0.0819  0.3794
   75SLPC     P 6680   2.519   1.468   7.249 -0.0798  0.0819 -0.0322
   75SLPC   O13 6681   2.655   1.521   7.224 -0.6430 -0.1537  0.9087
   75SLPC   O14 6682   2.510   1.323   7.271 -0.6394 -0.1804  0.4256
   75SLPC   O12 6683   2.481   1.534   7.390  0.4167  0.2903 -0.0340
   75SLPC   O11 6684   2.420   1.529   7.151  0.5108 -0.3354  0.6227
   75SLPC    C1 6685   2.301   1.449   7.118  0.0807  0.6353  0.4176
   75SLPC    HA 6686   2.260   1.385   7.200 -1.4677 -0.7184 -1.3259
   75SLPC    HB 6687   2.222   1.516   7.077 -0.6271  0.3376  1.2507
   75SLPC    C2 6688   2.335   1.354   7.004  0.0243  0.0824  0.0137
   75SLPC    HS 6689   2.422   1.288   7.020 -1.1861 -1.8655 -1.0800
   75SLPC   O21 6690   2.341   1.427   6.880 -0.0673  0.0364 -0.3135
   75SLPC   C21 6691   2.443   1.396   6.798  0.6333  0.0426  0.3362
   75SLPC   O22 6692   2.529   1.319   6.825  0.6609  0.4779 -0.5421
   75SLPC   C22 6693   2.422   1.465   6.659  0.0233  0.1936  0.1352
   75SLPC   H2R 6694   2.318   1.503   6.658  0.3287  1.0576  0.2235
   75SLPC   H2S 6695   2.493   1.550   6.656  0.3303 -0.0799 -0.5250
   75SLPC    C3 6696   2.217   1.253   6.978  0.0368 -0.5950 -0.4317
   75SLPC    HX 6697   2.127   1.317   6.965 -0.1443 -0.7683 -0.0586
   75SLPC    HY 6698   2.210   1.196   7.073  1.3300  2.4789  1.6993
   75SLPC   O31 6699   2.233   1.169   6.860  0.4105  0.6239 -0.6606
   75SLPC   C31 6700   2.158   1.198   6.758  0.3294 -0.7108 -0.1316
   75SLPC   O32 6701   2.091   1.297   6.743 -0.1744  0.0812  0.0077
   75SLPC   C32 6702   2.180   1.102   6.645 -0.3973  0.2589  0.1586
   75SLPC   H2X 6703   2.203   1.155   6.550  1.2193 -1.5753 -0.5342
   75SLPC   H2Y 6704   2.093   1.036   6.626  0.7432 -0.7457 -1.8646
   75SLPC   C23 6705   2.442   1.368   6.534 -0.6426 -0.1044  0.4080
   75SLPC   H3R 6706   2.345   1.320   6.508  0.6820 -2.7498  0.0767
   75SLPC   H3S 6707   2.529   1.303   6.557  1.2183  1.5550 -1.4515
   75SLPC   C24 6708   2.487   1.437   6.399 -0.6929 -0.0892 -0.7199
   75SLPC   H4R 6709   2.592   1.474   6.406 -1.0794  0.9959 -0.3947
   75SLPC   H4S 6710   2.427   1.530   6.389 -0.8717 -0.2736 -1.3545
   75SLPC   C25 6711   2.465   1.352   6.279 -0.6180  0.3432  0.8328
   75SLPC   H5R 6712   2.362   1.311   6.267 -1.0209  1.4069  0.6044
   75SLPC   H5S 6713   2.536   1.267   6.289 -3.5918 -2.3762  0.5294
   75SLPC   C26 6714   2.499   1.422   6.151 -0.6660 -0.7088  0.3847
   75SLPC   H6R 6715   2.606   1.451   6.142 -0.8785 -0.0892 -0.3074
   75SLPC   H6S 6716   2.438   1.515   6.156 -0.0357 -0.3412  1.8364
   75SLPC   C27 6717   2.463   1.338   6.032 -0.1520  0.3149  0.7603
   75SLPC   H7R 6718   2.361   1.293   6.030 -0.1836  0.1650 -3.6171
   75SLPC   H7S 6719   2.533   1.252   6.031  0.6476  0.7773  3.8264
   75SLPC   C28 6720   2.449   1.416   5.890 -0.4895 -0.4534 -0.5215
   75SLPC   H8R 6721   2.396   1.511   5.908 -0.6523 -0.7423  0.5546
   75SLPC   H8S 6722   2.387   1.347   5.828 -1.1823 -0.3360  0.0349
   75SLPC   C29 6723   2.589   1.441   5.838  0.5300 -0.0888  0.2432
   75SLPC   H9R 6724   2.654   1.506   5.898  2.2941 -2.1993  0.7318
   75SLPC  C210 6725   2.634   1.386   5.723  0.1881 -0.5987 -0.1697
   75SLPC  H10R 6726   2.737   1.411   5.698 -0.0461  0.8520  0.2430
   75SLPC  C211 6727   2.574   1.284   5.626  0.1999 -0.2829 -0.0405
   75SLPC  H11R 6728   2.474   1.326   5.602  0.1082 -1.6384 -2.3713
   75SLPC  H11S 6729   2.551   1.188   5.678  0.6730 -0.2996  0.1442
   75SLPC  C212 6730   2.654   1.257   5.498  0.1929 -0.2080 -0.3616
   75SLPC  H12R 6731   2.762   1.252   5.518  0.0061  1.4359  1.3633
   75SLPC  C213 6732   2.603   1.238   5.373  0.3798 -0.3832  0.2250
   75SLPC  H13R 6733   2.663   1.230   5.281 -2.6049 -1.4222 -1.7607
   75SLPC  C214 6734   2.455   1.251   5.324 -0.3832  0.3723  0.2719
   75SLPC  H14R 6735   2.445   1.357   5.291 -0.2310  0.4723  0.5410
   75SLPC  H14S 6736   2.383   1.239   5.407 -0.3481 -1.6368  0.0541
   75SLPC  C215 6737   2.419   1.156   5.210 -0.2696 -0.5151 -0.1251
   75SLPC  H15R 6738   2.482   1.167   5.120 -1.2911 -0.2700 -0.8306
   75SLPC  H15S 6739   2.315   1.188   5.186  0.3500  3.5071  1.8176
   75SLPC  C216 6740   2.401   1.009   5.251 -0.3183 -0.1694  0.5308
   75SLPC  H16R 6741   2.342   1.008   5.345 -0.0046 -1.3974  0.7200
   75SLPC  H16S 6742   2.500   0.968   5.278 -1.0092 -0.8778  2.1451
   75SLPC  C217 6743   2.353   0.922   5.134  0.4070  0.0247 -0.0242
   75SLPC  H17R 6744   2.424   0.923   5.049 -1.0617  0.3477 -1.3046
   75SLPC  H17S 6745   2.250   0.955   5.106  0.5320  0.4814  0.0498
   75SLPC  C218 6746   2.341   0.781   5.190  0.4907 -0.7386  0.2614
   75SLPC  H18R 6747   2.437   0.756   5.241  0.5869 -0.6038  0.1467
   75SLPC  H18S 6748   2.313   0.710   5.109 -1.3880  1.3124 -0.9881
   75SLPC  H18T 6749   2.256   0.775   5.261  0.8738 -3.5154  0.6146
   75SLPC   C33 6750   2.319   1.022   6.668  0.3994  0.4972 -0.2756
   75SLPC   H3X 6751   2.289   0.946   6.744  2.2090  0.4520  0.4447
   75SLPC   H3Y 6752   2.403   1.084   6.706  1.2709 -0.4142 -0.6735
   75SLPC   C34 6753   2.371   0.945   6.543  0.0515  0.4849  0.1286
   75SLPC   H4X 6754   2.289   0.892   6.490  2.2281 -0.5690 -2.4350
   75SLPC   H4Y 6755   2.443   0.865   6.571  0.4075 -0.1117 -2.2573
   75SLPC   C35 6756   2.431   1.020   6.423 -0.3382  0.4580 -0.1911
   75SLPC   H5X 6757   2.512   1.082   6.468  0.5654  0.5457 -1.8558
   75SLPC   H5Y 6758   2.360   1.098   6.388 -0.2475  1.7003  2.1745
   75SLPC   C36 6759   2.476   0.932   6.308 -0.5048  0.1186  0.0335
   75SLPC   H6X 6760   2.395   0.859   6.286 -2.0219  1.9188 -0.6575
   75SLPC   H6Y 6761   2.560   0.867   6.340 -0.5748 -0.5649 -1.1338
   75SLPC   C37 6762   2.524   1.004   6.182 -0.1896 -0.5195  0.2144
   75SLPC   H7X 6763   2.608   1.072   6.209 -0.6233  0.5723 -1.0361
   75SLPC   H7Y 6764   2.440   1.058   6.133 -0.4695  0.5699  1.8072
   75SLPC   C38 6765   2.569   0.897   6.081 -0.1356 -0.8117  0.3520
   75SLPC   H8X 6766   2.480   0.831   6.069 -0.2485 -0.8374  1.2336
   75SLPC   H8Y 6767   2.646   0.832   6.128 -1.3746 -2.7582 -0.2119
   75SLPC   C39 6768   2.620   0.963   5.948 -0.8842  0.1025  0.6812
   75SLPC   H9X 6769   2.704   1.034   5.964 -1.9225  1.5803 -0.1469
   75SLPC   H9Y 6770   2.532   1.016   5.906 -2.1273 -2.2433  0.1375
   75SLPC  C310 6771   2.665   0.863   5.839 -0.7543  0.2403 -0.6260
   75SLPC  H10X 6772   2.582   0.799   5.804  0.1785 -0.7847 -1.0010
   75SLPC  H10Y 6773   2.742   0.791   5.872 -2.2092 -1.4336 -0.7221
   75SLPC  C311 6774   2.707   0.929   5.702 -0.0375 -0.3861 -0.2006
   75SLPC  H11X 6775   2.793   0.998   5.710 -0.8463  0.6334 -0.1608
   75SLPC  H11Y 6776   2.621   0.995   5.677 -1.1751 -1.5166  0.6020
   75SLPC  C312 6777   2.757   0.821   5.603 -0.6830 -0.2628  0.4459
   75SLPC  H12X 6778   2.667   0.771   5.560 -0.2549 -0.7549  0.1215
   75SLPC  H12Y 6779   2.824   0.749   5.654 -1.0931 -2.3314 -1.7481
   75SLPC  C313 6780   2.832   0.893   5.486  0.6654 -0.4321  0.2642
   75SLPC  H13X 6781   2.912   0.953   5.534 -1.0879  0.9398  1.6097
   75SLPC  H13Y 6782   2.756   0.967   5.454  2.1574  1.4027  0.8520
   75SLPC  C314 6783   2.885   0.802   5.374  0.4157  0.2327 -0.1910
   75SLPC  H14X 6784   2.799   0.751   5.326  0.3910 -2.2805  2.2617
   75SLPC  H14Y 6785   2.945   0.715   5.410 -1.4173 -1.4700 -1.1021
   75SLPC  C315 6786   2.973   0.873   5.273  0.1516 -0.1247 -0.9197
   75SLPC  H15X 6787   3.023   0.807   5.199 -0.0007 -1.6871  0.3364
   75SLPC  H15Y 6788   3.056   0.914   5.334  0.5799  0.7888 -2.0680
   75SLPC  C316 6789   2.898   0.987   5.199 -0.1618 -0.1997 -0.4035
   75SLPC  H16X 6790   2.837   1.047   5.270  1.7365  0.0922  1.0655
   75SLPC  H16Y 6791   2.831   0.939   5.125  1.4574  0.3263 -2.3042
   75SLPC  C317 6792   2.984   1.087   5.129 -0.8404  0.6346 -0.0012
   75SLPC  H17X 6793   3.011   1.048   5.028  1.4872 -0.3137  0.9147
   75SLPC  H17Y 6794   3.072   1.087   5.197  0.1524 -0.5573 -1.2199
   75SLPC  C318 6795   2.926   1.222   5.113  0.3751 -0.8080 -0.0300
   75SLPC  H18X 6796   2.821   1.212   5.079  0.5324 -1.4668 -0.3435
   75SLPC  H18Y 6797   2.976   1.297   5.048  0.4166 -0.3857  0.4826
   75SLPC  H18Z 6798   2.913   1.268   5.213 -0.1956 -1.6508  0.2978
   76SLPC     N 6799   6.731   6.620   6.884  0.4677 -0.6586  0.6992
   76SLPC   C13 6800   6.760   6.622   7.027 -0.1071  0.0513  0.2421
   76SLPC  H13A 6801   6.762   6.725   7.059  1.2602  0.0395  0.2572
   76SLPC  H13B 6802   6.689   6.564   7.084 -0.3486  0.9402  0.8772
   76SLPC  H13C 6803   6.859   6.584   7.044  0.9098  2.3859 -0.0822
   76SLPC   C14 6804   6.722   6.480   6.833 -0.2896  0.3263 -0.1045
   76SLPC  H14A 6805   6.804   6.419   6.868 -2.3065 -2.2156  0.5370
   76SLPC  H14B 6806   6.637   6.423   6.869 -0.9480  1.3220 -0.0510
   76SLPC  H14C 6807   6.734   6.480   6.725  0.0927  1.6178 -0.0753
   76SLPC   C15 6808   6.852   6.686   6.828  0.4870 -0.2328 -0.1696
   76SLPC  H15A 6809   6.943   6.646   6.871  0.5651  0.0604 -0.0598
   76SLPC  H15B 6810   6.867   6.661   6.724  0.8941 -0.8726  0.0372
   76SLPC  H15C 6811   6.856   6.793   6.838  0.3135 -0.3536  1.5320
   76SLPC   C12 6812   6.608   6.695   6.841  0.4946 -0.3231  0.0903
   76SLPC  H12A 6813   6.605   6.686   6.734  1.1512  0.8366 -0.0439
   76SLPC  H12B 6814   6.608   6.799   6.871  1.8621 -0.6916  1.5094
   76SLPC   C11 6815   6.473   6.649   6.899 -0.5306 -0.1966 -0.2378
   76SLPC  H11A 6816   6.488   6.581   6.985 -0.6028  1.4820  1.1633
   76SLPC  H11B 6817   6.413   6.597   6.822 -0.6232  1.1887 -1.1322
   76SLPC     P 6818   6.333   6.862   6.873  0.6900  0.1362 -0.3108
   76SLPC   O13 6819   6.186   6.879   6.897  0.3311  0.3339  0.5620
   76SLPC   O14 6820   6.414   6.989   6.894  0.6599 -0.3126 -0.4728
   76SLPC   O12 6821   6.392   6.746   6.962 -0.3585 -0.0252  0.2009
   76SLPC   O11 6822   6.345   6.813   6.725 -0.3668  0.4789  0.0630
   76SLPC    C1 6823   6.236   6.768   6.654  0.6566 -0.1676  0.4901
   76SLPC    HA 6824   6.188   6.691   6.717 -0.8194  1.6157  1.6580
   76SLPC    HB 6825   6.164   6.850   6.631  0.2122 -0.6328  0.2025
   76SLPC    C2 6826   6.280   6.701   6.519 -0.5459  0.4811 -0.4499
   76SLPC    HS 6827   6.347   6.620   6.554 -1.2756  0.4998  1.0892
   76SLPC   O21 6828   6.339   6.794   6.424 -0.0996  0.0030  0.1490
   76SLPC   C21 6829   6.465   6.779   6.388 -0.1206 -0.5872 -0.4159
   76SLPC   O22 6830   6.546   6.703   6.437  0.1743 -0.3264  0.1908
   76SLPC   C22 6831   6.506   6.884   6.276 -0.1980 -0.1922 -0.0482
   76SLPC   H2R 6832   6.513   6.981   6.329  0.7264 -0.3594  0.1520
   76SLPC   H2S 6833   6.599   6.833   6.243  0.3525 -0.7265  2.2063
   76SLPC    C3 6834   6.157   6.630   6.450  0.1016 -0.1801  0.2451
   76SLPC    HX 6835   6.097   6.712   6.405 -1.1360  0.3095  2.6719
   76SLPC    HY 6836   6.093   6.585   6.528  0.6365  2.0044  2.0380
   76SLPC   O31 6837   6.197   6.540   6.347  0.2812  0.4335  0.4197
   76SLPC   C31 6838   6.209   6.414   6.393 -0.3942  0.2940 -0.7955
   76SLPC   O32 6839   6.195   6.373   6.504 -1.0936  0.0804 -0.2333
   76SLPC   C32 6840   6.259   6.328   6.273  0.6314  0.5723 -0.1036
   76SLPC   H2X 6841   6.292   6.228   6.307  1.4323  1.1746  0.9387
   76SLPC   H2Y 6842   6.351   6.370   6.227 -0.0905  0.6865 -1.4879
   76SLPC   C23 6843   6.411   6.901   6.150  0.2533 -0.9648 -0.0790
   76SLPC   H3R 6844   6.345   6.983   6.185 -0.9033 -0.3863 -3.2579
   76SLPC   H3S 6845   6.353   6.809   6.130  1.3045 -1.3065 -1.7902
   76SLPC   C24 6846   6.478   6.950   6.020 -0.6770  0.1892 -0.5519
   76SLPC   H4R 6847   6.543   6.870   5.980  0.8877  0.1663  1.8273
   76SLPC   H4S 6848   6.544   7.034   6.050  0.1752 -0.3420 -0.8986
   76SLPC   C25 6849   6.383   6.986   5.910 -0.1990 -0.2630 -0.2609
   76SLPC   H5R 6850   6.293   7.040   5.947 -0.1783 -1.1163  1.0987
   76SLPC   H5S 6851   6.341   6.900   5.852  1.4233  0.3511 -2.5010
   76SLPC   C26 6852   6.455   7.075   5.803  0.1188  0.4792 -0.3737
   76SLPC   H6R 6853   6.553   7.028   5.778  0.5778  0.8682  0.6499
   76SLPC   H6S 6854   6.472   7.172   5.854 -0.0317  0.5112 -0.3840
   76SLPC   C27 6855   6.372   7.113   5.689  0.0570  0.1661  0.5682
   76SLPC   H7R 6856   6.410   7.200   5.632 -1.9633  0.7164 -0.0378
   76SLPC   H7S 6857   6.269   7.140   5.721 -0.5818 -0.1195 -1.0925
   76SLPC   C28 6858   6.368   6.998   5.581 -0.4775  0.3535 -0.2301
   76SLPC   H8R 6859   6.313   6.913   5.626 -2.0852  1.8976  0.8545
   76SLPC   H8S 6860   6.473   6.966   5.564 -0.4211  1.0307 -1.2634
   76SLPC   C29 6861   6.295   7.050   5.461 -0.0170  0.2134 -0.2596
   76SLPC   H9R 6862   6.341   7.144   5.429  0.4443  0.1670  0.2537
   76SLPC  C210 6863   6.193   6.999   5.389  0.0133  0.2483  1.0877
   76SLPC  H10R 6864   6.160   7.065   5.307  0.6511  0.4839  1.0193
   76SLPC  C211 6865   6.114   6.869   5.419 -0.2116  0.1745 -0.3386
   76SLPC  H11R 6866   6.074   6.866   5.523  1.9571  0.3729  0.5392
   76SLPC  H11S 6867   6.180   6.780   5.417  0.2275  0.3906  2.0900
   76SLPC  C212 6868   5.994   6.861   5.328 -1.2000  0.8827 -0.1862
   76SLPC  H12R 6869   6.021   6.835   5.225 -2.3595 -2.1354  0.1386
   76SLPC  C213 6870   5.871   6.903   5.353 -0.4725  0.5003 -0.2322
   76SLPC  H13R 6871   5.802   6.895   5.268 -0.0579 -1.0855 -0.4420
   76SLPC  C214 6872   5.825   6.970   5.482  0.5270  0.0754  0.5194
   76SLPC  H14R 6873   5.909   6.994   5.551  0.0850  1.0572  0.7337
   76SLPC  H14S 6874   5.772   6.885   5.532 -0.2284 -0.2749 -0.8270
   76SLPC  C215 6875   5.753   7.099   5.463 -0.0710  0.6789 -0.2488
   76SLPC  H15R 6876   5.732   7.144   5.562  3.3179  1.0134  0.4572
   76SLPC  H15S 6877   5.651   7.092   5.419 -0.4033 -0.0588  0.6233
   76SLPC  C216 6878   5.839   7.200   5.385 -0.0652  0.3197  0.5666
   76SLPC  H16R 6879   5.854   7.162   5.281 -1.2910  1.7823 -0.1943
   76SLPC  H16S 6880   5.934   7.202   5.441  0.0006 -0.2161  0.4807
   76SLPC  C217 6881   5.774   7.341   5.379  0.0663  0.0605  0.3224
   76SLPC  H17R 6882   5.759   7.375   5.484  0.7361  0.2905  0.3523
   76SLPC  H17S 6883   5.675   7.332   5.329  0.0447 -1.4189  0.5763
   76SLPC  C218 6884   5.876   7.438   5.329  0.6385  0.3119  0.5570
   76SLPC  H18R 6885   5.921   7.384   5.243  0.7986 -0.1247  0.9126
   76SLPC  H18S 6886   5.959   7.462   5.398  3.5688 -2.0701 -1.8536
   76SLPC  H18T 6887   5.828   7.533   5.296 -0.0560  0.0168  0.6868
   76SLPC   C33 6888   6.138   6.305   6.177 -0.2891  0.0903 -0.4098
   76SLPC   H3X 6889   6.137   6.398   6.116 -1.3386  0.9142  0.8288
   76SLPC   H3Y 6890   6.046   6.304   6.239 -0.2049  2.3483 -0.1811
   76SLPC   C34 6891   6.163   6.188   6.075 -0.0105  0.3777 -0.1496
   76SLPC   H4X 6892   6.170   6.092   6.130  0.0320 -0.6995 -1.9508
   76SLPC   H4Y 6893   6.262   6.213   6.030 -1.3966  1.8054 -2.6035
   76SLPC   C35 6894   6.071   6.184   5.950  0.2010 -0.0452 -0.0085
   76SLPC   H5X 6895   6.053   6.287   5.913  0.1757 -0.3484 -0.8652
   76SLPC   H5Y 6896   5.972   6.151   5.989 -0.2753  0.2030 -0.9721
   76SLPC   C36 6897   6.108   6.083   5.846 -0.6190  0.3433 -0.4369
   76SLPC   H6X 6898   6.104   5.981   5.891  0.2494 -0.7033 -2.6004
   76SLPC   H6Y 6899   6.209   6.090   5.801 -0.2063 -1.6193  0.0514
   76SLPC   C37 6900   6.009   6.075   5.734 -0.3252 -0.2884  0.2592
   76SLPC   H7X 6901   5.911   6.094   5.785  0.1626  3.4097  0.0791
   76SLPC   H7Y 6902   6.010   5.975   5.686  0.0163  0.2375 -0.8387
   76SLPC   C38 6903   6.027   6.185   5.635  0.6882 -0.1355  0.0614
   76SLPC   H8X 6904   6.127   6.226   5.608  0.6580  0.0081  0.1635
   76SLPC   H8Y 6905   5.981   6.281   5.669  0.5202  0.2317 -1.1460
   76SLPC   C39 6906   5.951   6.149   5.502  0.0270 -0.6079  0.5563
   76SLPC   H9X 6907   5.853   6.109   5.536 -0.3321  0.9959  1.5494
   76SLPC   H9Y 6908   6.001   6.068   5.445  0.9248  0.3515 -0.0532
   76SLPC  C310 6909   5.940   6.272   5.407 -0.5742 -0.2419  0.2053
   76SLPC  H10X 6910   5.881   6.354   5.453  0.1235  1.3339 -1.5638
   76SLPC  H10Y 6911   5.886   6.241   5.315 -0.2477  1.6171 -0.6680
   76SLPC  C311 6912   6.075   6.329   5.365  0.1028 -0.6452 -0.1701
   76SLPC  H11X 6913   6.127   6.248   5.310  0.0134 -0.5818 -0.3472
   76SLPC  H11Y 6914   6.120   6.369   5.459  0.0488  1.2989 -0.9100
   76SLPC  C312 6915   6.046   6.449   5.262  0.0955 -0.3581 -0.0085
   76SLPC  H12X 6916   5.975   6.512   5.319  1.8594  0.9820  0.8178
   76SLPC  H12Y 6917   5.992   6.393   5.183  2.0386 -1.9297 -0.3240
   76SLPC  C313 6918   6.166   6.515   5.209 -0.2324  0.9327 -0.0238
   76SLPC  H13X 6919   6.228   6.532   5.299  3.2099 -1.8002 -1.6374
   76SLPC  H13Y 6920   6.140   6.615   5.168 -1.4186 -0.1518 -2.1486
   76SLPC  C314 6921   6.243   6.423   5.118 -0.7860 -0.2119  1.0657
   76SLPC  H14X 6922   6.167   6.393   5.043  0.2116 -0.4028  0.0891
   76SLPC  H14Y 6923   6.270   6.335   5.179 -0.1039 -1.6521 -1.1978
   76SLPC  C315 6924   6.357   6.495   5.055 -0.1173  0.0585  0.1629
   76SLPC  H15X 6925   6.444   6.498   5.125  0.4243 -0.9330 -0.4500
   76SLPC  H15Y 6926   6.337   6.602   5.032  2.3903  0.6939  0.6388
   76SLPC  C316 6927   6.412   6.441   4.918  0.3287  0.5317  0.6737
   76SLPC  H16X 6928   6.340   6.474   4.840  2.0139 -2.1649 -2.2921
   76SLPC  H16Y 6929   6.413   6.330   4.914 -2.4733  0.4649 -0.8711
   76SLPC  C317 6930   6.560   6.480   4.897  0.0847 -0.5850  0.1442
   76SLPC  H17X 6931   6.603   6.429   4.809  1.9538  0.6569  0.3015
   76SLPC  H17Y 6932   6.627   6.443   4.977  0.2653 -1.1200 -0.2514
   76SLPC  C318 6933   6.577   6.627   4.852 -0.9952  0.4863 -0.2729
   76SLPC  H18X 6934   6.553   6.705   4.928 -2.3035  1.3888 -1.5675
   76SLPC  H18Y 6935   6.516   6.645   4.761  2.1908  1.0314 -2.4540
   76SLPC  H18Z 6936   6.684   6.654   4.837 -1.0300  0.7682 -0.0341
   77SLPC     N 6937   4.548   0.045   7.483  0.1023 -0.1390  0.1042
   77SLPC   C13 6938   4.654   0.099   7.384  0.5826  0.0517 -0.5519
   77SLPC  H13A 6939   4.631   0.061   7.286 -0.9026  1.8338 -0.9447
   77SLPC  H13B 6940   4.665   0.207   7.384  1.0058  0.0761  1.7457
   77SLPC  H13C 6941   4.750   0.058   7.412  0.6366 -0.7983 -1.8952
   77SLPC   C14 6942   4.561   0.122   7.614  0.5684  0.5471 -0.4938
   77SLPC  H14A 6943   4.502   0.213   7.617  0.5545  0.5113  0.9618
   77SLPC  H14B 6944   4.520   0.071   7.700 -0.9642  1.7995 -0.4191
   77SLPC  H14C 6945   4.666   0.140   7.630  1.6696 -3.8480 -1.4890
   77SLPC   C15 6946   4.592  -0.093   7.517 -0.8060  0.3553  0.8108
   77SLPC  H15A 6947   4.527  -0.148   7.583 -0.9567  0.2446  0.5721
   77SLPC  H15B 6948   4.592  -0.154   7.428  0.8364 -0.3165  1.2527
   77SLPC  H15C 6949   4.686  -0.095   7.569 -0.1682 -0.0511 -0.3220
   77SLPC   C12 6950   4.416   0.061   7.423 -0.1474  0.2492 -0.4450
   77SLPC  H12A 6951   4.412  -0.005   7.338  0.0186  1.5239 -1.4584
   77SLPC  H12B 6952   4.406   0.159   7.380  1.7531  0.5331 -0.2952
   77SLPC   C11 6953   4.289   0.028   7.507  0.5144  0.1592  0.3581
   77SLPC  H11A 6954   4.203   0.035   7.437  0.9701 -2.8114 -0.6515
   77SLPC  H11B 6955   4.287   0.107   7.585 -0.5457  1.0775 -0.5722
   77SLPC     P 6956   4.232  -0.221   7.464 -0.3678  0.8796 -0.1235
   77SLPC   O13 6957   4.326  -0.240   7.345 -0.5146  0.0492 -0.0069
   77SLPC   O14 6958   4.214  -0.333   7.562 -0.2274 -0.2853 -0.9111
   77SLPC   O12 6959   4.292  -0.105   7.556  0.4322  0.6261  0.0143
   77SLPC   O11 6960   4.085  -0.164   7.427  0.0683 -0.2191 -0.0811
   77SLPC    C1 6961   3.988  -0.247   7.361 -0.0492 -0.5264  0.3889
   77SLPC    HA 6962   4.020  -0.353   7.349  0.9493 -0.0693 -1.3697
   77SLPC    HB 6963   3.888  -0.241   7.407 -0.4196  2.5707 -0.6310
   77SLPC    C2 6964   3.975  -0.188   7.216  0.6978 -0.4570  0.6600
   77SLPC    HS 6965   3.889  -0.243   7.172 -0.8245  1.0319  1.6368
   77SLPC   O21 6966   4.093  -0.208   7.141  0.4147 -0.8396  0.4725
   77SLPC   C21 6967   4.105  -0.312   7.073 -0.7847 -0.7128 -0.2200
   77SLPC   O22 6968   4.016  -0.390   7.046  0.3056  0.2394 -0.4842
   77SLPC   C22 6969   4.243  -0.306   7.008  0.5566 -0.0968  1.1177
   77SLPC   H2R 6970   4.306  -0.259   7.087  0.1903 -0.6412  1.7459
   77SLPC   H2S 6971   4.284  -0.409   6.999  1.0557  0.1985 -0.2174
   77SLPC    C3 6972   3.934  -0.031   7.200  0.2176 -0.0270 -0.0846
   77SLPC    HX 6973   4.009   0.021   7.264 -0.4727  4.3137 -2.4225
   77SLPC    HY 6974   3.835  -0.021   7.248 -1.0231 -0.5179 -2.3989
   77SLPC   O31 6975   3.928   0.008   7.062  0.1296  0.0217 -0.2801
   77SLPC   C31 6976   3.982   0.126   7.032 -0.0029  0.3783 -0.3367
   77SLPC   O32 6977   4.013   0.211   7.112 -0.1350  0.3378 -0.1375
   77SLPC   C32 6978   3.991   0.143   6.878 -0.0921 -0.1436  0.4029
   77SLPC   H2X 6979   3.906   0.205   6.842  0.4337 -0.7425 -2.0515
   77SLPC   H2Y 6980   3.979   0.043   6.831  0.4834  0.3734 -0.8915
   77SLPC   C23 6981   4.232  -0.247   6.866 -0.1915 -0.2078 -0.0970
   77SLPC   H3R 6982   4.165  -0.158   6.866  0.8487  0.6242  1.7845
   77SLPC   H3S 6983   4.176  -0.319   6.801 -2.6001  1.0622  0.4440
   77SLPC   C24 6984   4.372  -0.230   6.794  0.7363 -0.3933  0.1163
   77SLPC   H4R 6985   4.433  -0.323   6.800 -0.8024 -1.4935 -0.4589
   77SLPC   H4S 6986   4.434  -0.156   6.849  1.9270 -1.6682  0.5461
   77SLPC   C25 6987   4.356  -0.171   6.650 -0.5823  0.3782 -0.1925
   77SLPC   H5R 6988   4.314  -0.068   6.652 -0.4089  0.4333  0.7175
   77SLPC   H5S 6989   4.297  -0.235   6.582 -2.0325  2.6880 -1.2439
   77SLPC   C26 6990   4.490  -0.142   6.585  0.1126  0.1474  0.1074
   77SLPC   H6R 6991   4.548  -0.237   6.585 -1.3162 -0.7616 -0.5151
   77SLPC   H6S 6992   4.554  -0.075   6.647  1.5664 -2.5003  1.6669
   77SLPC   C27 6993   4.479  -0.095   6.441 -0.2734 -0.1212 -0.5306
   77SLPC   H7R 6994   4.405  -0.012   6.446  1.6070  1.5816  0.5433
   77SLPC   H7S 6995   4.433  -0.175   6.380  1.4577 -2.0046  0.5432
   77SLPC   C28 6996   4.610  -0.043   6.374  0.3735 -0.2539  0.3859
   77SLPC   H8R 6997   4.695  -0.114   6.381  1.1887  0.8241  2.2342
   77SLPC   H8S 6998   4.646   0.057   6.405  1.6240 -1.2118  2.2340
   77SLPC   C29 6999   4.582  -0.024   6.225  0.2372 -0.6603 -0.0195
   77SLPC   H9R 7000   4.501   0.049   6.206 -1.1280 -1.7076  1.4724
   77SLPC  C210 7001   4.642  -0.072   6.122  0.3581 -0.5214  0.0023
   77SLPC  H10R 7002   4.612  -0.024   6.028  0.5443  0.6029  0.4989
   77SLPC  C211 7003   4.745  -0.180   6.118  0.1560  0.6757  0.2605
   77SLPC  H11R 7004   4.738  -0.238   6.023 -1.0414 -0.9467  1.2646
   77SLPC  H11S 7005   4.714  -0.255   6.195  0.5870 -1.6197 -1.6707
   77SLPC  C212 7006   4.880  -0.133   6.155 -0.1898 -0.4534 -0.1203
   77SLPC  H12R 7007   4.894  -0.134   6.264  2.1804  3.6355 -0.2123
   77SLPC  C213 7008   4.981  -0.108   6.075 -0.5372 -1.1822  0.2196
   77SLPC  H13R 7009   5.070  -0.055   6.112 -0.5789 -0.8919 -0.0939
   77SLPC  C214 7010   4.978  -0.118   5.924  0.3060 -1.4535 -0.0159
   77SLPC  H14R 7011   4.897  -0.184   5.887  0.9950 -1.3644 -1.7825
   77SLPC  H14S 7012   5.076  -0.149   5.882  1.1574  2.1211 -1.0229
   77SLPC  C215 7013   4.952   0.033   5.879 -0.0846  0.1455  0.1904
   77SLPC  H15R 7014   5.034   0.102   5.909  2.1820 -2.7733  1.2147
   77SLPC  H15S 7015   4.864   0.080   5.926 -0.9127  1.2510 -2.2980
   77SLPC  C216 7016   4.936   0.039   5.725  0.7306  0.8124 -0.3117
   77SLPC  H16R 7017   4.853  -0.032   5.701 -0.5749  2.1605  0.0695
   77SLPC  H16S 7018   5.024   0.015   5.663 -0.6806 -1.2455 -1.6657
   77SLPC  C217 7019   4.889   0.181   5.685 -0.7363 -0.2123 -0.2823
   77SLPC  H17R 7020   4.969   0.255   5.707 -1.3578  0.6323 -0.8089
   77SLPC  H17S 7021   4.814   0.197   5.765  0.1548  0.4222  0.4473
   77SLPC  C218 7022   4.831   0.201   5.541  0.0738  0.4888 -0.4539
   77SLPC  H18R 7023   4.908   0.167   5.468  0.2879  2.9028 -1.4400
   77SLPC  H18S 7024   4.808   0.307   5.518  1.7760  1.0221  0.0863
   77SLPC  H18T 7025   4.743   0.134   5.537  0.0504  0.5865 -2.1415
   77SLPC   C33 7026   4.134   0.186   6.822  0.4126  0.3512 -1.0284
   77SLPC   H3X 7027   4.214   0.115   6.854 -0.5586 -0.5073 -0.4421
   77SLPC   H3Y 7028   4.160   0.290   6.852 -2.3743  1.2313 -1.4005
   77SLPC   C34 7029   4.124   0.194   6.671  0.6062  0.3255 -0.1072
   77SLPC   H4X 7030   4.095   0.093   6.634  2.8219 -0.0913 -0.8863
   77SLPC   H4Y 7031   4.227   0.212   6.635  0.6561  3.2818  1.1854
   77SLPC   C35 7032   4.049   0.313   6.618  0.2472 -0.1626 -0.3039
   77SLPC   H5X 7033   4.095   0.408   6.652 -0.3128 -0.1812  0.5552
   77SLPC   H5Y 7034   3.945   0.305   6.656 -0.0070  1.1890 -0.6764
   77SLPC   C36 7035   4.051   0.306   6.468  0.4551 -0.5934  0.2645
   77SLPC   H6X 7036   3.953   0.350   6.439  0.2682 -0.5818  0.8980
   77SLPC   H6Y 7037   4.058   0.201   6.433 -0.2257 -0.7240  0.4909
   77SLPC   C37 7038   4.161   0.404   6.404 -1.1613  0.0733 -0.0442
   77SLPC   H7X 7039   4.259   0.353   6.416 -0.7845  1.2094  2.2600
   77SLPC   H7Y 7040   4.171   0.493   6.469  0.2617 -0.5261  0.5926
   77SLPC   C38 7041   4.123   0.444   6.265  0.6066 -0.2961 -0.5811
   77SLPC   H8X 7042   4.183   0.533   6.237  1.1270 -0.8910 -1.4032
   77SLPC   H8Y 7043   4.019   0.482   6.275  0.7113 -0.5073  2.3579
   77SLPC   C39 7044   4.133   0.336   6.160  0.3148 -0.5372  0.4619
   77SLPC   H9X 7045   4.065   0.255   6.194  0.8172 -0.9660  0.4671
   77SLPC   H9Y 7046   4.235   0.293   6.164 -0.3407 -2.1241  0.8368
   77SLPC  C310 7047   4.092   0.398   6.025 -0.4992  0.7140 -0.5234
   77SLPC  H10X 7048   4.175   0.468   6.001  0.0279 -0.1079 -1.1922
   77SLPC  H10Y 7049   3.993   0.447   6.036 -1.2288 -0.2963 -2.1528
   77SLPC  C311 7050   4.062   0.283   5.923 -0.0985 -0.2428  0.4140
   77SLPC  H11X 7051   3.968   0.227   5.947 -1.4168  2.4044  1.8210
   77SLPC  H11Y 7052   4.144   0.208   5.928  0.1997  0.1137  0.7960
   77SLPC  C312 7053   4.057   0.341   5.777 -0.2463  0.0563 -0.8433
   77SLPC  H12X 7054   4.156   0.386   5.753 -0.3317  1.4413  1.1201
   77SLPC  H12Y 7055   3.984   0.424   5.767  1.3937  1.3082 -3.6643
   77SLPC  C313 7056   4.034   0.225   5.685 -0.0985 -0.2616 -0.1331
   77SLPC  H13X 7057   3.934   0.178   5.701 -1.0238  1.5531 -0.2846
   77SLPC  H13Y 7058   4.108   0.149   5.717 -0.8224 -0.6062  0.7819
   77SLPC  C314 7059   4.062   0.266   5.548 -0.5027 -0.1055 -0.1334
   77SLPC  H14X 7060   4.148   0.336   5.552 -0.6809  0.0727  0.9306
   77SLPC  H14Y 7061   3.981   0.339   5.525  1.4548  1.8106 -1.2467
   77SLPC  C315 7062   4.076   0.163   5.441 -0.3833 -0.3447  0.2582
   77SLPC  H15X 7063   3.976   0.123   5.414  1.0141 -3.4810 -0.8257
   77SLPC  H15Y 7064   4.149   0.087   5.476 -1.0424 -0.7264  0.8336
   77SLPC  C316 7065   4.124   0.225   5.307 -0.6821 -0.4028  0.7478
   77SLPC  H16X 7066   4.231   0.248   5.328 -0.9105  0.2016  1.2544
   77SLPC  H16Y 7067   4.083   0.325   5.284 -0.2977 -0.4738 -0.3214
   77SLPC  C317 7068   4.098   0.135   5.188  1.3008 -1.0789 -0.0717
   77SLPC  H17X 7069   4.137   0.034   5.213  1.7799 -0.5064  1.6231
   77SLPC  H17Y 7070   4.170   0.166   5.110  0.3295 -0.4162 -0.7285
   77SLPC  C318 7071   3.950   0.142   5.146  0.1558 -0.8030 -0.0901
   77SLPC  H18X 7072   3.870   0.112   5.218  0.2719 -0.7715  0.0524
   77SLPC  H18Y 7073   3.936   0.080   5.055  0.1591 -0.8431 -0.0637
   77SLPC  H18Z 7074   3.922   0.243   5.109 -0.6120 -1.0407 -0.1851
   78SLPC     N 7075   6.707   1.438   7.248  0.2032  0.7737 -0.0599
   78SLPC   C13 7076   6.683   1.536   7.361  0.4327  0.0089 -0.5118
   78SLPC  H13A 7077   6.712   1.491   7.455 -0.5116  2.0258  0.8079
   78SLPC  H13B 7078   6.745   1.623   7.350 -0.1718  0.7775  1.6305
   78SLPC  H13C 7079   6.577   1.556   7.368  0.1524 -1.5106  0.1000
   78SLPC   C14 7080   6.634   1.315   7.285  0.1953  0.6692  0.2198
   78SLPC  H14A 7081   6.670   1.264   7.373 -0.5278 -1.4477 -0.6380
   78SLPC  H14B 7082   6.531   1.333   7.313  0.2533  0.9946  0.2312
   78SLPC  H14C 7083   6.628   1.253   7.197  2.5426  3.5165 -2.1599
   78SLPC   C15 7084   6.851   1.402   7.238  0.0011  0.4491 -0.4088
   78SLPC  H15A 7085   6.909   1.486   7.203  1.3227 -0.2829 -0.0208
   78SLPC  H15B 7086   6.887   1.354   7.327 -2.2221  0.1300  0.3806
   78SLPC  H15C 7087   6.850   1.336   7.153 -2.2094  0.5188 -0.5065
   78SLPC   C12 7088   6.663   1.506   7.126  0.3087 -0.1253  0.8463
   78SLPC  H12A 7089   6.710   1.603   7.118 -1.8658  0.8737 -0.6587
   78SLPC  H12B 7090   6.557   1.526   7.124  0.2596 -0.2991 -1.6105
   78SLPC   C11 7091   6.680   1.423   6.989  0.2144  0.5989  1.0307
   78SLPC  H11A 7092   6.784   1.405   6.954 -0.9545  0.2387 -2.6551
   78SLPC  H11B 7093   6.635   1.483   6.908 -0.5983  0.1702  1.1592
   78SLPC     P 7094   6.467   1.276   6.950 -0.0461  0.3464  0.3879
   78SLPC   O13 7095   6.463   1.192   6.833  0.2334  0.5036  0.1572
   78SLPC   O14 7096   6.387   1.231   7.066  0.0080  0.3137 -0.2499
   78SLPC   O12 7097   6.617   1.292   6.997 -0.5944  0.2358  0.5511
   78SLPC   O11 7098   6.425   1.423   6.913 -0.0050  0.5732 -0.0895
   78SLPC    C1 7099   6.339   1.462   6.813  0.0469 -0.3036 -0.0170
   78SLPC    HA 7100   6.304   1.372   6.759 -0.1541 -0.6588  0.6941
   78SLPC    HB 7101   6.257   1.510   6.871  0.6081  1.5748 -0.6973
   78SLPC    C2 7102   6.394   1.573   6.720 -0.0038  0.0042 -0.4974
   78SLPC    HS 7103   6.324   1.579   6.634  0.6992 -2.6196 -1.3435
   78SLPC   O21 7104   6.520   1.531   6.669  0.2504  0.1121 -0.3369
   78SLPC   C21 7105   6.550   1.545   6.545  0.0068 -0.4670  0.1532
   78SLPC   O22 7106   6.474   1.588   6.457  0.2586 -0.3545 -0.1280
   78SLPC   C22 7107   6.676   1.460   6.527  0.5030 -0.4319  0.6465
   78SLPC   H2R 7108   6.761   1.507   6.580  1.0829 -1.1787  0.3946
   78SLPC   H2S 7109   6.654   1.354   6.551 -1.4974 -0.1050  0.4761
   78SLPC    C3 7110   6.401   1.719   6.788  0.0663 -0.4881 -0.5006
   78SLPC    HX 7111   6.471   1.723   6.873 -2.6075  1.8838  1.7982
   78SLPC    HY 7112   6.309   1.744   6.845  0.8288 -1.1607  1.0675
   78SLPC   O31 7113   6.441   1.824   6.699 -0.4697  0.0978 -0.4827
   78SLPC   C31 7114   6.357   1.861   6.603  0.1564 -1.0797  0.2712
   78SLPC   O32 7115   6.242   1.819   6.588  0.5092  0.1166  0.0895
   78SLPC   C32 7116   6.409   1.982   6.527  0.2525 -0.3353  0.0473
   78SLPC   H2X 7117   6.506   2.020   6.567  0.8881  3.0662 -4.0450
   78SLPC   H2Y 7118   6.335   2.065   6.529  1.9896  1.2770 -0.0637
   78SLPC   C23 7119   6.705   1.457   6.377  0.3825 -0.3628 -0.0761
   78SLPC   H3R 7120   6.711   1.564   6.347 -1.8428 -0.4745 -1.1464
   78SLPC   H3S 7121   6.625   1.407   6.318 -1.6357  0.8015  1.5447
   78SLPC   C24 7122   6.836   1.387   6.354 -0.3307 -0.2464  0.3285
   78SLPC   H4R 7123   6.834   1.283   6.394  0.4274  0.1789  1.5401
   78SLPC   H4S 7124   6.921   1.431   6.410 -0.3948  1.5653 -0.9478
   78SLPC   C25 7125   6.873   1.384   6.210  0.2302  0.1919  0.7160
   78SLPC   H5R 7126   6.862   1.489   6.175  1.3322  0.8338  2.1730
   78SLPC   H5S 7127   6.819   1.304   6.155  0.7483 -0.9056  1.7708
   78SLPC   C26 7128   7.019   1.348   6.187 -0.7959  0.7987  0.5958
   78SLPC   H6R 7129   7.043   1.250   6.233  1.5590  0.4895 -1.0977
   78SLPC   H6S 7130   7.095   1.414   6.233 -0.9158  1.0195  0.4779
   78SLPC   C27 7131   7.054   1.335   6.035 -0.0105  0.1159 -0.3339
   78SLPC   H7R 7132   6.968   1.276   5.997  0.0217 -0.2012  0.0671
   78SLPC   H7S 7133   7.148   1.279   6.019 -0.6929 -0.3743 -3.0401
   78SLPC   C28 7134   7.066   1.465   5.965  0.1043 -0.8862 -0.3110
   78SLPC   H8R 7135   6.966   1.507   5.988 -0.1308 -2.2753  1.4110
   78SLPC   H8S 7136   7.061   1.448   5.855 -0.4371  1.5311 -0.7133
   78SLPC   C29 7137   7.164   1.569   6.001 -0.2542  0.1411  0.4269
   78SLPC   H9R 7138   7.214   1.552   6.098 -0.7142 -0.3176  0.5902
   78SLPC  C210 7139   7.187   1.672   5.917 -0.0444  0.2094 -0.2079
   78SLPC  H10R 7140   7.254   1.743   5.968 -0.5508 -0.2292  1.0841
   78SLPC  C211 7141   7.134   1.689   5.777 -0.5328 -0.1402 -0.0836
   78SLPC  H11R 7142   7.028   1.659   5.767  0.2585 -3.2192 -0.2999
   78SLPC  H11S 7143   7.185   1.614   5.712 -2.8570 -1.0344 -0.9933
   78SLPC  C212 7144   7.164   1.825   5.713  0.3877  0.4584 -0.8745
   78SLPC  H12R 7145   7.112   1.908   5.764 -0.0476  1.2763 -2.5809
   78SLPC  C213 7146   7.235   1.853   5.608 -0.4869 -0.3246  0.5516
   78SLPC  H13R 7147   7.227   1.953   5.564  0.6029 -0.5914 -0.3065
   78SLPC  C214 7148   7.311   1.755   5.522  0.0797 -0.3792  0.7338
   78SLPC  H14R 7149   7.236   1.691   5.470 -0.7894  0.9534  0.2899
   78SLPC  H14S 7150   7.369   1.690   5.590 -0.5913 -1.3819  0.3719
   78SLPC  C215 7151   7.406   1.830   5.418 -0.5877 -0.2692  0.0068
   78SLPC  H15R 7152   7.471   1.903   5.472  2.0043 -0.3101 -2.7901
   78SLPC  H15S 7153   7.350   1.879   5.336 -2.5749 -1.7164  0.4189
   78SLPC  C216 7154   7.495   1.730   5.352  0.7685 -0.0548 -0.8455
   78SLPC  H16R 7155   7.423   1.658   5.309  1.1706 -2.0023  1.5338
   78SLPC  H16S 7156   7.552   1.664   5.421 -0.5713 -0.3961 -0.0387
   78SLPC  C217 7157   7.602   1.782   5.252 -0.1619 -0.5149  0.4911
   78SLPC  H17R 7158   7.557   1.836   5.166  2.7382  0.2859 -0.6194
   78SLPC  H17S 7159   7.644   1.690   5.207 -0.9797 -1.3106  1.3040
   78SLPC  C218 7160   7.727   1.851   5.314 -0.2463 -0.0565 -0.0438
   78SLPC  H18R 7161   7.700   1.942   5.372  2.8606  1.1005 -0.2011
   78SLPC  H18S 7162   7.812   1.875   5.247  1.0206 -1.6641  0.9262
   78SLPC  H18T 7163   7.776   1.782   5.386 -0.8884 -0.4295  0.0473
   78SLPC   C33 7164   6.434   1.948   6.378  0.1013 -0.3847  0.8692
   78SLPC   H3X 7165   6.474   1.845   6.372 -0.1070 -0.4437  0.4577
   78SLPC   H3Y 7166   6.506   2.018   6.331 -2.9548  2.4294  0.0415
   78SLPC   C34 7167   6.306   1.952   6.291  0.3732  0.6455 -0.3537
   78SLPC   H4X 7168   6.257   2.051   6.293 -2.5856 -0.7053  1.2663
   78SLPC   H4Y 7169   6.236   1.879   6.338  0.4728  1.7176  1.5743
   78SLPC   C35 7170   6.345   1.930   6.141 -0.5089  0.0022  0.3775
   78SLPC   H5X 7171   6.399   1.834   6.128 -1.7884 -0.5075 -1.6373
   78SLPC   H5Y 7172   6.415   2.011   6.111 -1.4348  0.8844  0.5548
   78SLPC   C36 7173   6.240   1.930   6.029 -0.4272  0.3952 -0.4221
   78SLPC   H6X 7174   6.182   2.023   6.049 -2.3740 -0.9600  0.5682
   78SLPC   H6Y 7175   6.184   1.834   6.037  1.6648 -0.7985  0.8194
   78SLPC   C37 7176   6.301   1.929   5.897 -0.9426  0.6557  0.4756
   78SLPC   H7X 7177   6.378   1.851   5.878 -0.2117  1.9045 -2.2424
   78SLPC   H7Y 7178   6.346   2.026   5.867  1.9010 -0.6133  0.2753
   78SLPC   C38 7179   6.193   1.900   5.789 -0.0085  1.1252 -0.2401
   78SLPC   H8X 7180   6.134   1.993   5.777 -1.3491  0.3815  0.4195
   78SLPC   H8Y 7181   6.124   1.817   5.814  0.1096  0.6235 -1.4957
   78SLPC   C39 7182   6.259   1.867   5.648  0.3756 -1.0962  0.6721
   78SLPC   H9X 7183   6.307   1.766   5.646  1.2557 -0.6851 -1.4834
   78SLPC   H9Y 7184   6.338   1.943   5.634 -1.4207  0.3320 -2.9244
   78SLPC  C310 7185   6.156   1.877   5.531  0.0233 -0.5519 -0.5361
   78SLPC  H10X 7186   6.115   1.980   5.533  1.6026  0.0912  0.2226
   78SLPC  H10Y 7187   6.076   1.801   5.547  2.8865 -3.9419 -1.0947
   78SLPC  C311 7188   6.229   1.848   5.395 -0.1195 -0.0822 -0.3472
   78SLPC  H11X 7189   6.241   1.739   5.379 -3.2170 -0.6160  0.1420
   78SLPC  H11Y 7190   6.332   1.888   5.403 -1.1146  2.9057 -1.2479
   78SLPC  C312 7191   6.150   1.910   5.276 -0.0138  0.3212  0.1851
   78SLPC  H12X 7192   6.137   2.019   5.295 -2.8211  0.1228 -0.1039
   78SLPC  H12Y 7193   6.043   1.881   5.272 -0.2070  1.0779 -0.6385
   78SLPC  C313 7194   6.219   1.883   5.141  0.3527  0.4134  0.3844
   78SLPC  H13X 7195   6.150   1.920   5.063  1.0670 -1.0749 -1.0306
   78SLPC  H13Y 7196   6.238   1.774   5.130 -1.5056  0.0064  0.8636
   78SLPC  C314 7197   6.352   1.974   5.124 -0.1845  0.3555  0.0995
   78SLPC  H14X 7198   6.355   2.037   5.215  0.7186 -0.0678  0.3712
   78SLPC  H14Y 7199   6.347   2.040   5.035  0.7458  1.5454  0.9123
   78SLPC  C315 7200   6.470   1.880   5.107  0.1698  0.8022  0.5363
   78SLPC  H15X 7201   6.447   1.817   5.018 -0.1860  1.1919  0.3458
   78SLPC  H15Y 7202   6.473   1.812   5.194 -0.7749 -0.0871 -0.1012
   78SLPC  C316 7203   6.601   1.942   5.097 -0.7161 -0.1927 -0.3279
   78SLPC  H16X 7204   6.615   1.995   5.000  0.5492  0.1605  0.0216
   78SLPC  H16Y 7205   6.689   1.875   5.087 -1.3534 -1.1183  0.1047
   78SLPC  C317 7206   6.627   2.037   5.209 -0.2735 -0.0667 -0.3405
   78SLPC  H17X 7207   6.633   1.989   5.308  1.2249 -1.8921 -1.2714
   78SLPC  H17Y 7208   6.543   2.110   5.213 -0.3834 -0.0753 -1.7470
   78SLPC  C318 7209   6.755   2.123   5.195 -0.2483 -0.6598  0.3119
   78SLPC  H18X 7210   6.745   2.198   5.113 -2.4023 -0.7686  0.4012
   78SLPC  H18Y 7211   6.851   2.072   5.175  0.8513  1.1320  0.8061
   78SLPC  H18Z 7212   6.764   2.186   5.287 -1.0405  0.2080 -0.1863
   79SLPC     N 7213   4.945   5.754   7.353  0.6763 -0.2621 -0.6732
   79SLPC   C13 7214   4.797   5.719   7.348  0.5533  0.1116  0.1121
   79SLPC  H13A 7215   4.757   5.746   7.445 -2.1759 -0.1875 -0.8343
   79SLPC  H13B 7216   4.742   5.780   7.278 -0.8003 -2.5704 -1.3318
   79SLPC  H13C 7217   4.781   5.616   7.318 -1.9064  1.2084 -2.7967
   79SLPC   C14 7218   5.007   5.673   7.460 -0.5826  0.5147 -0.9622
   79SLPC  H14A 7219   4.998   5.566   7.450  2.1025  0.0529  0.4860
   79SLPC  H14B 7220   5.114   5.690   7.460 -0.1638 -1.7075  0.5378
   79SLPC  H14C 7221   4.963   5.697   7.556 -0.5280  0.3787 -0.9028
   79SLPC   C15 7222   4.958   5.894   7.377 -0.1809  0.2165  1.0652
   79SLPC  H15A 7223   5.059   5.920   7.350  0.2416 -1.5706  0.8520
   79SLPC  H15B 7224   4.889   5.944   7.310  3.9038  1.2180 -2.8565
   79SLPC  H15C 7225   4.935   5.923   7.478  0.1677  2.0055  0.6694
   79SLPC   C12 7226   5.012   5.722   7.221  0.6355 -0.4142  0.9903
   79SLPC  H12A 7227   5.104   5.776   7.204 -1.2633  2.4357 -1.3269
   79SLPC  H12B 7228   4.943   5.757   7.146 -0.7016 -1.7858  1.5347
   79SLPC   C11 7229   5.047   5.570   7.202 -0.4555 -1.2534  0.4863
   79SLPC  H11A 7230   5.138   5.546   7.260 -1.1614 -0.2596  2.0719
   79SLPC  H11B 7231   5.081   5.559   7.097 -1.4746 -1.0166  0.1113
   79SLPC     P 7232   4.868   5.401   7.113 -0.1103 -0.0305 -0.5775
   79SLPC   O13 7233   4.943   5.274   7.103 -0.2566  0.1672  0.5312
   79SLPC   O14 7234   4.725   5.387   7.125 -0.3249 -0.2580 -0.0420
   79SLPC   O12 7235   4.931   5.490   7.228 -0.4306  0.0616  0.1275
   79SLPC   O11 7236   4.900   5.484   6.983  0.3878 -0.1165 -0.6686
   79SLPC    C1 7237   4.817   5.592   6.942  0.2888 -0.0035 -0.5275
   79SLPC    HA 7238   4.751   5.632   7.022 -0.7828 -0.3766 -1.1946
   79SLPC    HB 7239   4.878   5.680   6.912  3.6412 -2.1989 -0.7061
   79SLPC    C2 7240   4.723   5.543   6.828 -0.6889 -0.0717  0.2684
   79SLPC    HS 7241   4.680   5.445   6.854 -1.1126 -0.4683 -1.7212
   79SLPC   O21 7242   4.790   5.534   6.700  0.0774 -0.1761 -0.5349
   79SLPC   C21 7243   4.751   5.443   6.617  0.5862 -0.7644  0.1535
   79SLPC   O22 7244   4.671   5.352   6.635  0.7604 -0.6540  0.2283
   79SLPC   C22 7245   4.836   5.464   6.487  0.2980 -0.2841  0.5759
   79SLPC   H2R 7246   4.929   5.511   6.524  0.1118  1.7027 -1.2950
   79SLPC   H2S 7247   4.850   5.361   6.447 -0.1908  0.4044 -1.4785
   79SLPC    C3 7248   4.592   5.622   6.820 -0.2048 -0.6398  0.2406
   79SLPC    HX 7249   4.639   5.716   6.783 -1.4281  0.6120  1.7173
   79SLPC    HY 7250   4.540   5.628   6.918 -1.2033 -0.5320 -0.2834
   79SLPC   O31 7251   4.508   5.582   6.714 -0.4344 -0.2441 -0.1697
   79SLPC   C31 7252   4.436   5.472   6.737 -0.2964 -0.3774 -0.0987
   79SLPC   O32 7253   4.440   5.408   6.841  1.2384  0.1138 -0.0180
   79SLPC   C32 7254   4.359   5.435   6.611  0.0062 -0.4471 -0.1504
   79SLPC   H2X 7255   4.423   5.369   6.549  0.0816  0.5044 -1.1149
   79SLPC   H2Y 7256   4.343   5.523   6.545  1.7274  0.5483  0.7007
   79SLPC   C23 7257   4.766   5.560   6.394 -0.4730 -0.4589  0.1230
   79SLPC   H3R 7258   4.753   5.663   6.434  0.4437 -0.2387 -0.1278
   79SLPC   H3S 7259   4.667   5.513   6.380  0.2719 -1.8152 -0.7990
   79SLPC   C24 7260   4.843   5.556   6.259  0.2575  0.2569  0.1647
   79SLPC   H4R 7261   4.951   5.574   6.279  0.0748  0.8604  0.6593
   79SLPC   H4S 7262   4.804   5.640   6.197  1.5418  0.4590 -0.4060
   79SLPC   C25 7263   4.810   5.417   6.185  0.0611  0.7627 -0.3446
   79SLPC   H5R 7264   4.702   5.394   6.181  0.0859  0.7130 -0.6956
   79SLPC   H5S 7265   4.853   5.341   6.254 -0.4752  1.1325  0.4077
   79SLPC   C26 7266   4.879   5.401   6.052  0.6425 -0.2488  0.2872
   79SLPC   H6R 7267   4.852   5.304   6.006  1.2211 -0.0855 -0.4156
   79SLPC   H6S 7268   4.990   5.411   6.058  0.6994  0.5239 -1.4481
   79SLPC   C27 7269   4.833   5.515   5.959 -0.0700 -0.9654  0.0946
   79SLPC   H7R 7270   4.886   5.607   5.991 -0.7281  0.0725 -1.6680
   79SLPC   H7S 7271   4.722   5.518   5.965 -0.1704 -0.1790 -1.5904
   79SLPC   C28 7272   4.848   5.480   5.805 -0.8549  0.7683  0.5782
   79SLPC   H8R 7273   4.806   5.379   5.792  1.5309 -0.2971  0.6087
   79SLPC   H8S 7274   4.957   5.457   5.802 -0.7102  1.1676  1.8664
   79SLPC   C29 7275   4.811   5.589   5.710 -0.0075  0.0161  0.0113
   79SLPC   H9R 7276   4.827   5.690   5.752  0.5485  0.4724 -1.2191
   79SLPC  C210 7277   4.722   5.569   5.611 -0.1091  0.1416  0.2268
   79SLPC  H10R 7278   4.707   5.650   5.538  1.0535  0.9136  0.8111
   79SLPC  C211 7279   4.684   5.437   5.555  0.1385  0.5913  0.1498
   79SLPC  H11R 7280   4.701   5.359   5.632 -0.1619 -0.3059 -0.6636
   79SLPC  H11S 7281   4.751   5.411   5.471  1.1159  2.5259  0.2669
   79SLPC  C212 7282   4.540   5.445   5.523  0.7604  0.1590 -0.4394
   79SLPC  H12R 7283   4.526   5.478   5.419 -1.6188 -1.4568 -0.7115
   79SLPC  C213 7284   4.437   5.410   5.607  0.6619 -0.3418  0.2341
   79SLPC  H13R 7285   4.335   5.420   5.566  0.3598 -0.4936  0.9377
   79SLPC  C214 7286   4.445   5.345   5.741  0.3412 -0.1598  0.3069
   79SLPC  H14R 7287   4.542   5.290   5.746 -1.7297 -4.5402 -2.1715
   79SLPC  H14S 7288   4.364   5.272   5.760 -0.8253  1.3109  1.2892
   79SLPC  C215 7289   4.430   5.444   5.856  0.0068  0.1315  0.0708
   79SLPC  H15R 7290   4.329   5.488   5.839  0.0211  0.8449  1.6649
   79SLPC  H15S 7291   4.505   5.525   5.847 -0.6628  0.7949  0.2919
   79SLPC  C216 7292   4.422   5.377   5.997  0.3532  0.1046 -0.2301
   79SLPC  H16R 7293   4.499   5.298   6.002 -1.7239 -2.0174  0.4634
   79SLPC  H16S 7294   4.332   5.312   6.000  1.3004 -1.3031 -1.2215
   79SLPC  C217 7295   4.421   5.479   6.114  0.6053 -0.0624  0.5391
   79SLPC  H17R 7296   4.363   5.562   6.069 -0.1620  0.0964  1.7807
   79SLPC  H17S 7297   4.522   5.521   6.131  0.6536  0.4338 -0.8598
   79SLPC  C218 7298   4.371   5.425   6.250  0.0462 -0.0938  0.3242
   79SLPC  H18R 7299   4.444   5.361   6.305 -0.8867 -1.5628 -0.0951
   79SLPC  H18S 7300   4.288   5.353   6.233 -0.3074  0.3411  0.2064
   79SLPC  H18T 7301   4.346   5.516   6.307 -0.7463 -0.0802 -0.0312
   79SLPC   C33 7302   4.225   5.361   6.650  0.6054 -0.1683 -0.1158
   79SLPC   H3X 7303   4.240   5.286   6.731 -0.1432  1.8594  2.0021
   79SLPC   H3Y 7304   4.174   5.319   6.561 -0.4977  1.8266 -0.4800
   79SLPC   C34 7305   4.124   5.457   6.714 -0.3421 -0.0165  0.5797
   79SLPC   H4X 7306   4.159   5.500   6.811 -0.7563  2.4255 -0.2848
   79SLPC   H4Y 7307   4.034   5.394   6.734 -0.9259  1.4112  2.8874
   79SLPC   C35 7308   4.071   5.578   6.627 -0.2151 -0.0328  0.2390
   79SLPC   H5X 7309   4.155   5.645   6.598 -1.5638  2.5268  1.8516
   79SLPC   H5Y 7310   4.003   5.649   6.679  2.9068  2.5372  1.1346
   79SLPC   C36 7311   4.001   5.530   6.500 -0.2223  0.1597  0.8274
   79SLPC   H6X 7312   3.895   5.504   6.521  0.0938 -2.3448 -0.3135
   79SLPC   H6Y 7313   4.042   5.440   6.451 -1.6146  0.5671 -1.2133
   79SLPC   C37 7314   3.973   5.642   6.389  0.5872 -0.3682  0.2726
   79SLPC   H7X 7315   4.071   5.681   6.353  0.1519  0.5471  0.0701
   79SLPC   H7Y 7316   3.927   5.723   6.450  1.7796  1.2755 -0.9205
   79SLPC   C38 7317   3.893   5.587   6.271 -0.2564 -0.4692  0.2137
   79SLPC   H8X 7318   3.796   5.550   6.310 -1.1980  0.0683 -1.5016
   79SLPC   H8Y 7319   3.944   5.504   6.219 -0.7027 -0.2922 -0.5184
   79SLPC   C39 7320   3.864   5.704   6.174  0.0539  0.1720 -0.2738
   79SLPC   H9X 7321   3.901   5.802   6.211 -2.0862  1.4459 -1.3055
   79SLPC   H9Y 7322   3.756   5.717   6.153 -0.4844 -0.8626  1.6354
   79SLPC  C310 7323   3.935   5.684   6.043 -0.1668  0.0044  0.1931
   79SLPC  H10X 7324   3.896   5.585   6.008  0.2092 -0.6507  1.5605
   79SLPC  H10Y 7325   4.045   5.678   6.056 -0.0594 -0.4931 -0.7750
   79SLPC  C311 7326   3.900   5.785   5.934  0.3836 -1.0025  0.2783
   79SLPC  H11X 7327   3.970   5.870   5.942  0.2082 -0.8378  0.0729
   79SLPC  H11Y 7328   3.796   5.822   5.942  1.0142  0.4786  2.4640
   79SLPC  C312 7329   3.916   5.718   5.797 -1.1200  0.0448  0.6614
   79SLPC  H12X 7330   3.855   5.625   5.797 -0.5268 -0.3807 -0.9001
   79SLPC  H12Y 7331   4.024   5.699   5.779 -0.3132  2.8077  2.0381
   79SLPC  C313 7332   3.876   5.806   5.681  0.5450  0.6409 -0.6305
   79SLPC  H13X 7333   3.931   5.902   5.694 -1.6692  1.8074  0.5952
   79SLPC  H13Y 7334   3.769   5.831   5.692  0.2834 -0.6322 -0.0751
   79SLPC  C314 7335   3.921   5.755   5.538 -0.0623  0.1931 -0.6661
   79SLPC  H14X 7336   3.873   5.656   5.520 -0.7733  0.1370  1.2701
   79SLPC  H14Y 7337   4.031   5.742   5.548 -0.3142 -0.2980  2.5282
   79SLPC  C315 7338   3.887   5.854   5.423  0.4361  0.1622  0.1277
   79SLPC  H15X 7339   3.975   5.921   5.416  0.5346  0.3478  2.3611
   79SLPC  H15Y 7340   3.792   5.905   5.450  0.3301  0.5468 -0.9555
   79SLPC  C316 7341   3.857   5.772   5.296 -0.1967 -0.4397  0.1381
   79SLPC  H16X 7342   3.775   5.699   5.309  0.3550 -0.7337  2.3685
   79SLPC  H16Y 7343   3.940   5.712   5.255  0.4512  0.5481 -0.0327
   79SLPC  C317 7344   3.804   5.868   5.183  0.3636 -0.3625  0.1308
   79SLPC  H17X 7345   3.878   5.942   5.146 -1.7601  0.7557 -2.2293
   79SLPC  H17Y 7346   3.721   5.931   5.223  1.5487  1.2334  0.1560
   79SLPC  C318 7347   3.760   5.800   5.055  0.0456  1.0802 -0.4251
   79SLPC  H18X 7348   3.670   5.736   5.062  0.2233  0.9633  1.0981
   79SLPC  H18Y 7349   3.844   5.740   5.013 -0.5546 -1.4407  1.7101
   79SLPC  H18Z 7350   3.746   5.889   4.990  3.0071  2.5984  0.8105
   80SLPC     N 7351   5.075   4.828   7.411  0.0586 -0.2551  1.0187
   80SLPC   C13 7352   5.175   4.751   7.326 -0.3508  0.0745  0.1478
   80SLPC  H13A 7353   5.129   4.737   7.229  0.0265 -3.7913  0.3915
   80SLPC  H13B 7354   5.274   4.791   7.312 -0.6602  0.7256 -0.2286
   80SLPC  H13C 7355   5.181   4.654   7.373 -1.2261 -0.6949 -1.2654
   80SLPC   C14 7356   5.054   4.960   7.341 -0.3367 -0.6819  0.0315
   80SLPC  H14A 7357   5.027   5.033   7.416 -0.5191 -0.4582 -0.2479
   80SLPC  H14B 7358   5.138   4.991   7.280 -1.0469  1.0608 -0.1284
   80SLPC  H14C 7359   4.965   4.954   7.280 -1.2154  0.9018  1.0820
   80SLPC   C15 7360   5.152   4.846   7.542  0.0981 -0.1207  0.3208
   80SLPC  H15A 7361   5.175   4.753   7.592  0.0709 -2.2471 -3.2757
   80SLPC  H15B 7362   5.246   4.888   7.510  0.2427 -0.3038  0.4998
   80SLPC  H15C 7363   5.116   4.924   7.607 -0.1104 -0.8199  1.0668
   80SLPC   C12 7364   4.948   4.753   7.430  0.3885 -0.6009  0.8482
   80SLPC  H12A 7365   4.890   4.817   7.495  1.3521  1.2286 -0.0145
   80SLPC  H12B 7366   4.970   4.666   7.490  1.3940  0.4593  2.1061
   80SLPC   C11 7367   4.878   4.705   7.304  0.0996 -0.5088 -0.2322
   80SLPC  H11A 7368   4.941   4.630   7.252 -0.1093  0.2957 -1.7004
   80SLPC  H11B 7369   4.870   4.795   7.240 -2.4599 -0.2084  0.3860
   80SLPC     P 7370   4.692   4.509   7.305  0.2874 -0.0576 -0.0224
   80SLPC   O13 7371   4.810   4.413   7.284  0.7405  0.4394 -0.1669
   80SLPC   O14 7372   4.604   4.473   7.420  0.7140  0.0020  0.3717
   80SLPC   O12 7373   4.747   4.658   7.334 -0.4588  0.5948 -0.4045
   80SLPC   O11 7374   4.597   4.512   7.173  0.4302 -0.0672 -0.3592
   80SLPC    C1 7375   4.513   4.619   7.143  0.7807  0.0980 -0.7093
   80SLPC    HA 7376   4.411   4.576   7.140  0.4425  0.6357  1.5459
   80SLPC    HB 7377   4.516   4.698   7.220  0.4079 -0.3484 -0.2289
   80SLPC    C2 7378   4.526   4.683   7.004  0.5802  0.3689  1.0329
   80SLPC    HS 7379   4.431   4.725   6.965  0.7291 -1.1556 -1.2331
   80SLPC   O21 7380   4.559   4.583   6.905  0.0661 -0.1811  0.1885
   80SLPC   C21 7381   4.473   4.490   6.868  0.1555 -1.1455 -0.8514
   80SLPC   O22 7382   4.363   4.477   6.908  0.0043  0.5474  0.6675
   80SLPC   C22 7383   4.525   4.420   6.744 -0.0134  0.0991 -0.4942
   80SLPC   H2R 7384   4.629   4.391   6.774  0.0193  1.5185  0.8631
   80SLPC   H2S 7385   4.468   4.329   6.714 -1.7079  1.0174 -0.1624
   80SLPC    C3 7386   4.644   4.790   6.996  0.5026  0.2972  0.2559
   80SLPC    HX 7387   4.740   4.741   7.024 -0.4161 -2.4348 -0.9710
   80SLPC    HY 7388   4.629   4.872   7.070  0.7026  1.4282 -0.9232
   80SLPC   O31 7389   4.650   4.842   6.863 -0.3632  0.4538  0.0198
   80SLPC   C31 7390   4.576   4.942   6.835 -0.2275  0.0027  0.2647
   80SLPC   O32 7391   4.508   5.010   6.907 -0.3995 -0.7778 -0.5558
   80SLPC   C32 7392   4.580   4.967   6.680 -0.0175  0.5089 -0.3794
   80SLPC   H2X 7393   4.552   4.870   6.636  1.3870 -0.3644  0.5837
   80SLPC   H2Y 7394   4.686   4.988   6.653  0.9785 -1.0572  2.0355
   80SLPC   C23 7395   4.540   4.518   6.624  0.5262 -0.6331 -0.6217
   80SLPC   H3R 7396   4.606   4.485   6.540  0.2385  1.5217 -1.7714
   80SLPC   H3S 7397   4.588   4.610   6.663  0.1711  0.1818 -2.0333
   80SLPC   C24 7398   4.399   4.554   6.571 -0.2628 -0.3864 -0.0009
   80SLPC   H4R 7399   4.389   4.665   6.571 -2.4632 -0.5432 -1.1096
   80SLPC   H4S 7400   4.322   4.524   6.644 -0.4960 -1.6860 -0.7418
   80SLPC   C25 7401   4.360   4.487   6.439 -0.0764  0.0495 -0.8645
   80SLPC   H5R 7402   4.250   4.501   6.433 -0.6376 -1.5698  2.9252
   80SLPC   H5S 7403   4.380   4.378   6.432  1.1025  0.2127 -0.1599
   80SLPC   C26 7404   4.433   4.553   6.324 -0.0785  0.5456 -0.2129
   80SLPC   H6R 7405   4.543   4.546   6.338 -0.3525  0.6116  2.5261
   80SLPC   H6S 7406   4.398   4.658   6.321 -0.5792  0.5285  2.3897
   80SLPC   C27 7407   4.377   4.496   6.195 -0.4695  0.5240  1.3611
   80SLPC   H7R 7408   4.267   4.494   6.203 -0.6277  0.4571 -0.4228
   80SLPC   H7S 7409   4.419   4.394   6.181 -0.8957  0.6579 -1.4434
   80SLPC   C28 7410   4.421   4.567   6.065  0.3327 -0.4439  0.0380
   80SLPC   H8R 7411   4.531   4.555   6.052  0.6177  0.8272  1.1030
   80SLPC   H8S 7412   4.414   4.677   6.080  1.3826 -0.5620  1.7156
   80SLPC   C29 7413   4.342   4.528   5.938 -0.5513 -0.1338 -0.2908
   80SLPC   H9R 7414   4.242   4.485   5.955  0.2511 -2.9499 -1.9180
   80SLPC  C210 7415   4.375   4.558   5.808 -0.1014 -0.9101 -0.9917
   80SLPC  H10R 7416   4.304   4.519   5.733 -1.6288 -0.3362  0.1215
   80SLPC  C211 7417   4.505   4.627   5.757 -0.0400  0.2804  0.1573
   80SLPC  H11R 7418   4.559   4.685   5.836  0.2879  1.2511 -0.7473
   80SLPC  H11S 7419   4.486   4.714   5.690 -1.3795  0.3420  0.5852
   80SLPC  C212 7420   4.605   4.524   5.719 -0.1179 -0.1635 -0.5018
   80SLPC  H12R 7421   4.656   4.504   5.814 -1.1494 -1.0200 -0.1078
   80SLPC  C213 7422   4.648   4.485   5.593 -0.5272 -0.5960  0.1865
   80SLPC  H13R 7423   4.726   4.407   5.588 -1.2124 -1.7336  3.9282
   80SLPC  C214 7424   4.591   4.554   5.476  0.3967  0.2007  0.2373
   80SLPC  H14R 7425   4.674   4.585   5.409 -1.0781 -0.7885 -2.1686
   80SLPC  H14S 7426   4.521   4.638   5.498 -3.0789 -2.6334  1.0210
   80SLPC  C215 7427   4.490   4.453   5.412 -0.2317 -0.1503  0.1001
   80SLPC  H15R 7428   4.403   4.441   5.481  0.0451 -1.2598  0.2853
   80SLPC  H15S 7429   4.534   4.351   5.404  2.9876  1.2780 -2.6938
   80SLPC  C216 7430   4.446   4.507   5.268 -0.4789  0.4330 -0.0149
   80SLPC  H16R 7431   4.537   4.549   5.221 -1.5747  2.7118 -0.2835
   80SLPC  H16S 7432   4.381   4.596   5.283 -0.1603  0.3260  2.4783
   80SLPC  C217 7433   4.375   4.405   5.180  0.0184 -0.3842  0.2877
   80SLPC  H17R 7434   4.345   4.457   5.087 -0.7483 -0.4116  0.5118
   80SLPC  H17S 7435   4.285   4.368   5.233 -1.5773  2.1307 -0.5223
   80SLPC  C218 7436   4.464   4.287   5.141 -0.8438  0.4429 -0.6183
   80SLPC  H18R 7437   4.449   4.258   5.034  2.0238  0.7904 -1.1840
   80SLPC  H18S 7438   4.450   4.196   5.203 -0.5088 -0.5626 -1.9675
   80SLPC  H18T 7439   4.571   4.312   5.158 -0.0322 -0.5061 -3.5261
   80SLPC   C33 7440   4.477   5.070   6.625 -0.8347 -0.6028 -0.4525
   80SLPC   H3X 7441   4.507   5.173   6.656 -0.7486 -0.8927  0.4531
   80SLPC   H3Y 7442   4.380   5.060   6.678 -1.4992  2.7631 -0.7825
   80SLPC   C34 7443   4.471   5.078   6.470 -0.5061  0.6758  0.6286
   80SLPC   H4X 7444   4.388   5.148   6.445 -0.8795 -0.0486 -0.2321
   80SLPC   H4Y 7445   4.442   4.981   6.426  1.2619  1.0642 -1.5383
   80SLPC   C35 7446   4.603   5.116   6.392  0.5111 -0.0626 -0.1896
   80SLPC   H5X 7447   4.679   5.037   6.414  0.1976 -1.3146 -3.0958
   80SLPC   H5Y 7448   4.629   5.220   6.421 -0.3653  0.5466 -1.4908
   80SLPC   C36 7449   4.603   5.124   6.235  0.0536  0.4700 -0.2607
   80SLPC   H6X 7450   4.697   5.158   6.189  1.2719 -2.3566 -0.0673
   80SLPC   H6Y 7451   4.519   5.188   6.201  1.4652  1.4162 -2.1227
   80SLPC   C37 7452   4.578   4.987   6.168  1.0941  0.4111  0.4462
   80SLPC   H7X 7453   4.472   4.967   6.194  1.8197 -0.3713  3.1336
   80SLPC   H7Y 7454   4.650   4.910   6.203 -0.1360 -1.1443 -0.3074
   80SLPC   C38 7455   4.571   4.995   6.012  0.1433 -0.0770  0.3796
   80SLPC   H8X 7456   4.503   5.076   5.978 -0.0360  0.3522  1.6973
   80SLPC   H8Y 7457   4.535   4.899   5.970  0.3583 -0.8859  1.9401
   80SLPC   C39 7458   4.706   5.034   5.963  0.3083 -0.4942  0.5371
   80SLPC   H9X 7459   4.784   4.982   6.023  1.7923  0.7770 -0.2185
   80SLPC   H9Y 7460   4.729   5.142   5.980  0.4894 -0.5770  0.8413
   80SLPC  C310 7461   4.727   5.014   5.816  0.0356 -0.1345  0.6197
   80SLPC  H10X 7462   4.647   5.067   5.760  1.7286  0.7475 -1.0303
   80SLPC  H10Y 7463   4.721   4.907   5.790 -1.0556  0.0703 -0.0421
   80SLPC  C311 7464   4.853   5.068   5.753  0.1108 -0.3361  1.3087
   80SLPC  H11X 7465   4.919   4.999   5.809 -2.6958 -3.0283  1.5134
   80SLPC  H11Y 7466   4.873   5.174   5.779 -0.5668 -0.2025  1.3092
   80SLPC  C312 7467   4.855   5.046   5.599  0.4705  0.1179 -0.9210
   80SLPC  H12X 7468   4.764   5.088   5.551 -0.7190 -0.4030  0.7535
   80SLPC  H12Y 7469   4.847   4.936   5.589  2.2784 -0.1094 -0.2308
   80SLPC  C313 7470   4.985   5.091   5.539  0.0134  0.1928 -0.0623
   80SLPC  H13X 7471   4.994   5.060   5.433 -0.5783 -0.0690 -0.0377
   80SLPC  H13Y 7472   5.070   5.050   5.598  0.2485  0.5830 -0.1208
   80SLPC  C314 7473   5.008   5.245   5.520 -0.5579 -0.0286  0.0194
   80SLPC  H14X 7474   4.992   5.304   5.613  0.4993  0.9888 -0.4247
   80SLPC  H14Y 7475   4.930   5.280   5.448 -1.4186 -0.6396  0.6311
   80SLPC  C315 7476   5.144   5.262   5.454 -0.2145 -1.0111  0.2433
   80SLPC  H15X 7477   5.146   5.209   5.357  0.7059  0.7541 -0.7585
   80SLPC  H15Y 7478   5.236   5.231   5.508  0.9874  0.1083 -1.0669
   80SLPC  C316 7479   5.187   5.408   5.416  1.1429 -0.1599 -0.2748
   80SLPC  H16X 7480   5.167   5.473   5.504 -0.2922  0.8343 -1.2915
   80SLPC  H16Y 7481   5.113   5.440   5.339 -0.5075 -2.3481  0.2929
   80SLPC  C317 7482   5.332   5.411   5.367 -0.0953  0.3766  0.8712
   80SLPC  H17X 7483   5.325   5.466   5.271 -1.1178  0.4502  0.9787
   80SLPC  H17Y 7484   5.363   5.304   5.357 -0.5786  0.3348 -0.3027
   80SLPC  C318 7485   5.432   5.486   5.460 -0.2211 -0.2799  0.2320
   80SLPC  H18X 7486   5.533   5.452   5.427 -0.3741 -0.2465 -0.2798
   80SLPC  H18Y 7487   5.417   5.452   5.565 -0.4788 -0.5486  0.1116
   80SLPC  H18Z 7488   5.420   5.596   5.451  1.4728 -0.0196  0.7367
   81SLPC     N 7489   2.173   4.073   2.385 -0.0913  0.6713 -0.0731
   81SLPC   C13 7490   2.192   4.089   2.242  0.3039 -0.1636  0.2636
   81SLPC  H13A 7491   2.212   4.191   2.212  1.9967 -0.5830 -0.1552
   81SLPC  H13B 7492   2.275   4.033   2.200  0.5154  1.4537 -1.6724
   81SLPC  H13C 7493   2.107   4.067   2.179  0.2963  1.0207 -0.1662
   81SLPC   C14 7494   2.049   4.141   2.421 -0.3990 -0.0084  0.8980
   81SLPC  H14A 7495   1.964   4.110   2.363 -0.7514 -1.4151  2.1155
   81SLPC  H14B 7496   2.037   4.127   2.527  0.4198  2.2480  1.3641
   81SLPC  H14C 7497   2.053   4.249   2.409  1.1900 -0.0994  0.4171
   81SLPC   C15 7498   2.297   4.128   2.453  0.4077 -0.4100  0.1329
   81SLPC  H15A 7499   2.296   4.236   2.461  0.4929 -0.3495 -0.5823
   81SLPC  H15B 7500   2.301   4.099   2.557  2.2455 -2.4908 -0.4505
   81SLPC  H15C 7501   2.385   4.093   2.400 -0.2132 -0.5434 -0.8301
   81SLPC   C12 7502   2.158   3.921   2.411  0.0424  0.0617 -0.1659
   81SLPC  H12A 7503   2.233   3.875   2.349  1.2694  0.5863  0.8770
   81SLPC  H12B 7504   2.067   3.882   2.368 -0.3008 -1.1611  1.5808
   81SLPC   C11 7505   2.146   3.862   2.556 -0.3989 -0.7944  0.2906
   81SLPC  H11A 7506   2.134   3.753   2.544  0.0373 -0.9482  1.1074
   81SLPC  H11B 7507   2.050   3.904   2.594 -0.0325  1.6168 -1.2212
   81SLPC     P 7508   2.271   3.810   2.771 -0.2011  0.1252  0.2426
   81SLPC   O13 7509   2.262   3.664   2.737 -0.4296 -0.3871 -0.1330
   81SLPC   O14 7510   2.391   3.850   2.843  0.7486  0.0489  0.3139
   81SLPC   O12 7511   2.254   3.895   2.644 -0.0027 -0.5741  0.7481
   81SLPC   O11 7512   2.140   3.861   2.848  0.6175 -0.0289  0.3822
   81SLPC    C1 7513   2.120   3.998   2.860 -0.0487 -0.8896  0.4650
   81SLPC    HA 7514   2.202   4.066   2.828 -0.7213  0.5223  1.6002
   81SLPC    HB 7515   2.031   4.031   2.802  0.3312  3.4930  1.9318
   81SLPC    C2 7516   2.103   4.031   3.015 -0.6376 -0.0482  0.5278
   81SLPC    HS 7517   2.039   3.953   3.061  2.3714 -3.2113 -0.2856
   81SLPC   O21 7518   2.051   4.164   3.025 -0.3890  0.2872 -0.6118
   81SLPC   C21 7519   1.928   4.187   2.987  0.0106 -0.3832 -0.0457
   81SLPC   O22 7520   1.857   4.115   2.924  0.3751  0.1511  0.3764
   81SLPC   C22 7521   1.883   4.323   3.049  0.2878  0.5416 -0.0768
   81SLPC   H2R 7522   1.895   4.405   2.975  2.3800  0.1724 -0.2226
   81SLPC   H2S 7523   1.774   4.315   3.065 -0.0577  0.8561 -2.0279
   81SLPC    C3 7524   2.237   4.031   3.095  0.1965 -0.4559  0.4213
   81SLPC    HX 7525   2.300   4.102   3.038  0.2396 -1.3736 -0.7096
   81SLPC    HY 7526   2.276   3.928   3.089  1.5397  0.0518  0.1347
   81SLPC   O31 7527   2.207   4.069   3.234  0.3356 -0.1402  0.2298
   81SLPC   C31 7528   2.302   4.013   3.309  0.1801 -0.6933 -0.2063
   81SLPC   O32 7529   2.394   3.939   3.273 -0.3420  0.1303  0.1801
   81SLPC   C32 7530   2.274   4.053   3.452 -0.6503 -0.1030  0.2260
   81SLPC   H2X 7531   2.173   4.021   3.486 -0.8790 -0.9358 -1.1536
   81SLPC   H2Y 7532   2.281   4.164   3.454  1.2223 -0.1921  0.5045
   81SLPC   C23 7533   1.957   4.351   3.182 -0.0055  0.1221  0.8340
   81SLPC   H3R 7534   1.957   4.461   3.199  2.1071  0.2516  0.2970
   81SLPC   H3S 7535   2.064   4.320   3.177 -0.3087 -0.7619 -1.1225
   81SLPC   C24 7536   1.911   4.278   3.303  0.7232 -0.6578  0.1043
   81SLPC   H4R 7537   1.883   4.176   3.268 -1.1676  0.7082 -2.6931
   81SLPC   H4S 7538   1.809   4.308   3.333  0.6274  1.0364 -1.7061
   81SLPC   C25 7539   1.996   4.295   3.437  0.2165  0.1133 -0.1895
   81SLPC   H5R 7540   2.102   4.283   3.408 -0.3971 -1.9293 -1.8615
   81SLPC   H5S 7541   1.961   4.212   3.502 -0.9297  0.9452  0.2912
   81SLPC   C26 7542   1.988   4.428   3.507  0.3466 -1.1329  0.5119
   81SLPC   H6R 7543   1.881   4.432   3.537  0.3150 -1.2837  0.4219
   81SLPC   H6S 7544   1.980   4.514   3.438  2.8119 -0.0528  1.4611
   81SLPC   C27 7545   2.098   4.451   3.607  0.4241  0.1918 -0.5533
   81SLPC   H7R 7546   2.132   4.556   3.594  0.7324  0.2184  0.3900
   81SLPC   H7S 7547   2.181   4.381   3.585  1.3954  0.8308  0.9010
   81SLPC   C28 7548   2.044   4.434   3.752  0.4484  0.5339  1.0621
   81SLPC   H8R 7549   1.974   4.518   3.771 -0.8148  0.2768 -1.8495
   81SLPC   H8S 7550   2.118   4.465   3.829  0.0647  2.7022  0.6180
   81SLPC   C29 7551   1.963   4.306   3.769  0.2462  0.2328 -0.3486
   81SLPC   H9R 7552   1.888   4.292   3.690  2.0906  1.4614 -2.4460
   81SLPC  C210 7553   1.968   4.219   3.874 -0.4040  0.4068  0.1337
   81SLPC  H10R 7554   1.899   4.134   3.876 -2.1181  1.7453 -0.4581
   81SLPC  C211 7555   2.073   4.220   3.982 -0.1711  0.1389  0.5460
   81SLPC  H11R 7556   2.178   4.211   3.946 -0.2042  3.4250 -0.6949
   81SLPC  H11S 7557   2.067   4.123   4.035 -2.1163 -0.1903 -0.2228
   81SLPC  C212 7558   2.057   4.335   4.077  0.5333  0.0427 -0.1529
   81SLPC  H12R 7559   1.961   4.388   4.079  1.0186  1.1089 -2.2076
   81SLPC  C213 7560   2.155   4.389   4.154  1.0177  0.0611 -0.3681
   81SLPC  H13R 7561   2.125   4.469   4.223  0.6068 -0.5995  0.2266
   81SLPC  C214 7562   2.292   4.333   4.161  0.7262 -0.0211 -0.0346
   81SLPC  H14R 7563   2.354   4.421   4.135  2.1546 -0.3954  1.9074
   81SLPC  H14S 7564   2.323   4.253   4.091 -1.4526 -1.5520  0.6411
   81SLPC  C215 7565   2.345   4.285   4.296 -0.2104 -0.1544 -0.3681
   81SLPC  H15R 7566   2.319   4.363   4.370 -0.4174 -0.3213 -0.2625
   81SLPC  H15S 7567   2.456   4.282   4.296 -0.2153 -1.8769 -1.1220
   81SLPC  C216 7568   2.283   4.144   4.328  0.1061 -0.5407 -0.5120
   81SLPC  H16R 7569   2.306   4.081   4.240 -0.7146 -0.9606 -0.4341
   81SLPC  H16S 7570   2.173   4.154   4.325 -0.1019 -1.8090  1.1371
   81SLPC  C217 7571   2.326   4.086   4.462  0.4250  0.0100  0.0898
   81SLPC  H17R 7572   2.265   4.142   4.536 -1.1398 -0.2534 -0.9580
   81SLPC  H17S 7573   2.435   4.109   4.466  0.2465  0.9920 -0.2923
   81SLPC  C218 7574   2.297   3.935   4.488 -0.1446  0.0377 -0.2969
   81SLPC  H18R 7575   2.188   3.916   4.478 -0.2154 -2.0398  3.0498
   81SLPC  H18S 7576   2.345   3.914   4.586  3.2651  0.1156 -1.7862
   81SLPC  H18T 7577   2.345   3.867   4.414  1.7070 -0.0910  0.9543
   81SLPC   C33 7578   2.382   4.012   3.551  0.2948 -0.0231  0.1148
   81SLPC   H3X 7579   2.485   4.052   3.537  0.8362 -0.7944  1.6102
   81SLPC   H3Y 7580   2.389   3.901   3.545  0.6262 -0.1283  1.8398
   81SLPC   C34 7581   2.353   4.025   3.702 -0.6734  0.3627  0.5167
   81SLPC   H4X 7582   2.253   3.982   3.724 -0.3752 -0.2765  0.6216
   81SLPC   H4Y 7583   2.372   4.132   3.725  1.7004 -0.1187  0.9715
   81SLPC   C35 7584   2.453   3.940   3.782 -0.5035 -0.0666 -0.4772
   81SLPC   H5X 7585   2.553   3.986   3.768 -1.0381  1.5041  0.5986
   81SLPC   H5Y 7586   2.445   3.831   3.764  0.4624 -0.0395 -1.1209
   81SLPC   C36 7587   2.420   3.953   3.930 -0.3297 -0.0909 -0.4040
   81SLPC   H6X 7588   2.317   3.915   3.945 -0.3547 -0.0417 -0.4513
   81SLPC   H6Y 7589   2.423   4.057   3.967 -0.7670  0.2196 -1.2154
   81SLPC   C37 7590   2.519   3.873   4.020 -0.0100 -0.6121  0.6358
   81SLPC   H7X 7591   2.622   3.917   4.017  0.0985 -0.8807  0.2696
   81SLPC   H7Y 7592   2.525   3.769   3.982 -2.6532  0.0268 -1.8836
   81SLPC   C38 7593   2.472   3.877   4.170 -0.0649  0.2565 -0.4614
   81SLPC   H8X 7594   2.363   3.857   4.170  0.0959 -0.7254 -1.3026
   81SLPC   H8Y 7595   2.483   3.976   4.220  0.0696  0.7483 -1.4321
   81SLPC   C39 7596   2.541   3.770   4.262  0.0485  0.0316  0.2571
   81SLPC   H9X 7597   2.513   3.780   4.369 -1.4653 -2.2817  0.1479
   81SLPC   H9Y 7598   2.652   3.778   4.263 -0.0358  1.3643  0.7357
   81SLPC  C310 7599   2.487   3.622   4.230  0.1360 -0.5812 -0.7536
   81SLPC  H10X 7600   2.499   3.584   4.126 -0.5688 -1.4493 -0.5354
   81SLPC  H10Y 7601   2.380   3.604   4.253  0.6606 -2.5322  0.4557
   81SLPC  C311 7602   2.563   3.517   4.312 -0.2434  0.5507  0.4594
   81SLPC  H11X 7603   2.544   3.517   4.421  0.4139 -2.2417  0.6489
   81SLPC  H11Y 7604   2.665   3.557   4.298 -0.4157  0.2188 -2.4944
   81SLPC  C312 7605   2.543   3.371   4.267 -0.4246  0.2412  0.2238
   81SLPC  H12X 7606   2.437   3.340   4.284  0.2111 -0.2009  4.5968
   81SLPC  H12Y 7607   2.599   3.308   4.339  0.5992 -1.5727 -2.0296
   81SLPC  C313 7608   2.589   3.325   4.127  0.1020  0.0766  0.3587
   81SLPC  H13X 7609   2.697   3.343   4.107 -0.2124  1.6120 -0.0596
   81SLPC  H13Y 7610   2.526   3.379   4.053 -1.8466  1.0989  2.6593
   81SLPC  C314 7611   2.561   3.172   4.101  0.1792  0.5086 -0.9424
   81SLPC  H14X 7612   2.452   3.151   4.101  0.4526 -1.0746 -0.2547
   81SLPC  H14Y 7613   2.606   3.110   4.182  0.8421 -0.2067 -1.8230
   81SLPC  C315 7614   2.609   3.116   3.967  0.2943  1.0778 -0.8300
   81SLPC  H15X 7615   2.718   3.094   3.968  0.5408  2.1119  0.8975
   81SLPC  H15Y 7616   2.597   3.198   3.893 -1.7484  1.3892 -0.2269
   81SLPC  C316 7617   2.538   2.991   3.926  0.0380 -0.9119  0.3607
   81SLPC  H16X 7618   2.544   2.980   3.815 -3.0247 -2.0583  0.2057
   81SLPC  H16Y 7619   2.430   3.010   3.940 -0.4485 -1.6882 -1.9190
   81SLPC  C317 7620   2.577   2.865   4.011 -0.3353  0.3593  0.3176
   81SLPC  H17X 7621   2.600   2.888   4.117  0.0539  3.0539 -0.2734
   81SLPC  H17Y 7622   2.671   2.831   3.962 -1.1288 -0.0014 -1.0083
   81SLPC  C318 7623   2.476   2.747   4.012 -0.3936  0.1169 -0.1974
   81SLPC  H18X 7624   2.436   2.738   3.908  0.7283 -2.0355 -0.5085
   81SLPC  H18Y 7625   2.388   2.782   4.069 -1.5492 -0.5047 -1.5373
   81SLPC  H18Z 7626   2.533   2.664   4.058  0.7314  0.5337 -0.7905
   82SLPC     N 7627   0.176   0.707   2.947 -0.6705 -0.3376  0.7547
   82SLPC   C13 7628   0.161   0.667   3.094  0.2274 -0.8963 -0.0958
   82SLPC  H13A 7629   0.191   0.566   3.116  1.0765 -0.3319  1.4749
   82SLPC  H13B 7630   0.221   0.732   3.156 -0.9057  0.8683 -0.7396
   82SLPC  H13C 7631   0.060   0.673   3.131  0.3165 -0.3996  0.0858
   82SLPC   C14 7632   0.088   0.619   2.866 -0.0239  0.4902 -0.3624
   82SLPC  H14A 7633   0.115   0.516   2.882 -0.3184  0.1345 -2.0015
   82SLPC  H14B 7634  -0.016   0.640   2.886 -0.2152  0.1870 -1.0163
   82SLPC  H14C 7635   0.096   0.634   2.759  0.2014 -0.0218 -0.4191
   82SLPC   C15 7636   0.321   0.680   2.910  0.6903  0.1837  0.7097
   82SLPC  H15A 7637   0.338   0.711   2.808 -0.3794  0.5571  0.6233
   82SLPC  H15B 7638   0.395   0.732   2.968  0.9557 -1.0923  1.5587
   82SLPC  H15C 7639   0.337   0.573   2.914 -0.1779 -0.0678 -1.3441
   82SLPC   C12 7640   0.138   0.850   2.938  0.7570 -0.1810  0.6924
   82SLPC  H12A 7641   0.161   0.903   3.029 -0.3829  0.3006  0.7210
   82SLPC  H12B 7642   0.030   0.853   2.943  0.6289 -1.0953 -0.8903
   82SLPC   C11 7643   0.168   0.921   2.803  0.4077  0.2115 -0.8383
   82SLPC  H11A 7644   0.119   1.021   2.805  1.9662  1.0174  1.0483
   82SLPC  H11B 7645   0.110   0.863   2.728 -0.5981 -0.7040  0.6065
   82SLPC     P 7646   0.409   1.031   2.821 -0.5234  0.2163  0.1430
   82SLPC   O13 7647   0.546   0.982   2.800 -0.4308 -0.4563  0.1661
   82SLPC   O14 7648   0.382   1.174   2.785 -0.0316  0.0463  0.0950
   82SLPC   O12 7649   0.307   0.922   2.759 -0.1800 -0.1860 -0.3890
   82SLPC   O11 7650   0.366   1.021   2.977 -0.0801  0.5507 -0.3039
   82SLPC    C1 7651   0.450   1.069   3.079 -0.8267 -0.1742 -0.2231
   82SLPC    HA 7652   0.480   1.176   3.067  0.5832 -0.3231  1.5033
   82SLPC    HB 7653   0.384   1.069   3.168  1.4539  0.0271  1.5626
   82SLPC    C2 7654   0.575   0.985   3.099  0.2673  0.2680  0.1773
   82SLPC    HS 7655   0.642   1.001   3.011  0.4500  1.2965  0.4885
   82SLPC   O21 7656   0.540   0.846   3.114 -1.0919 -0.0343  0.7689
   82SLPC   C21 7657   0.637   0.762   3.098  0.3041 -0.3336 -0.6164
   82SLPC   O22 7658   0.750   0.787   3.058 -0.0985  0.1820 -0.0284
   82SLPC   C22 7659   0.591   0.627   3.154  0.4005 -0.0879 -0.1937
   82SLPC   H2R 7660   0.532   0.632   3.248  0.6061 -0.2059 -0.0596
   82SLPC   H2S 7661   0.536   0.577   3.071  0.6665  0.4450 -0.6978
   82SLPC    C3 7662   0.659   1.036   3.216 -0.7395  0.2799  0.3703
   82SLPC    HX 7663   0.699   1.132   3.177 -1.2948  0.1333 -0.5681
   82SLPC    HY 7664   0.748   0.975   3.244 -0.7212 -0.5425 -1.3749
   82SLPC   O31 7665   0.573   1.066   3.329 -0.1036  0.2870 -0.1031
   82SLPC   C31 7666   0.561   0.970   3.423 -0.3939  0.5948  0.0275
   82SLPC   O32 7667   0.624   0.869   3.429 -0.2077  0.0742  0.1451
   82SLPC   C32 7668   0.439   0.997   3.513  0.1132 -0.4184 -0.1070
   82SLPC   H2X 7669   0.361   0.926   3.479 -1.1450 -1.9430  5.1650
   82SLPC   H2Y 7670   0.408   1.103   3.495  0.6028 -0.0972  0.8905
   82SLPC   C23 7671   0.709   0.532   3.189 -0.5020 -0.0753  0.8309
   82SLPC   H3R 7672   0.776   0.535   3.101 -0.2088  4.7995  0.9862
   82SLPC   H3S 7673   0.666   0.431   3.205 -2.0348  0.5342  0.7355
   82SLPC   C24 7674   0.789   0.558   3.312  0.3901 -0.2971  0.0438
   82SLPC   H4R 7675   0.730   0.558   3.406  0.5229  1.8177  0.1790
   82SLPC   H4S 7676   0.825   0.663   3.308 -1.5745  0.4783  1.2495
   82SLPC   C25 7677   0.908   0.461   3.327 -0.0961  0.7968 -0.1798
   82SLPC   H5R 7678   0.978   0.513   3.396 -0.6318  0.6991  0.4541
   82SLPC   H5S 7679   0.960   0.451   3.230 -1.3828  1.1104 -0.9241
   82SLPC   C26 7680   0.868   0.327   3.385  0.5157 -0.0575 -0.2016
   82SLPC   H6R 7681   0.829   0.257   3.308 -0.2036 -1.2217  1.1676
   82SLPC   H6S 7682   0.792   0.345   3.464 -1.0226  2.2831 -2.0883
   82SLPC   C27 7683   0.991   0.264   3.448  0.0423  0.7324  0.0355
   82SLPC   H7R 7684   1.029   0.326   3.532 -0.9208  0.6366  0.5628
   82SLPC   H7S 7685   1.062   0.249   3.364 -0.9808  2.0658 -1.1089
   82SLPC   C28 7686   0.958   0.123   3.503 -0.4452 -0.2889 -0.3724
   82SLPC   H8R 7687   0.885   0.057   3.450  0.0333 -1.2805  0.1630
   82SLPC   H8S 7688   0.922   0.137   3.607  0.7828 -3.1530  0.5560
   82SLPC   C29 7689   1.088   0.036   3.526 -0.2076 -0.1375 -0.6289
   82SLPC   H9R 7690   1.104  -0.019   3.432 -2.0989  1.1008 -1.7507
   82SLPC  C210 7691   1.178   0.030   3.627 -0.1066  0.1450  0.6650
   82SLPC  H10R 7692   1.264  -0.036   3.610 -0.4786 -0.2749  0.4111
   82SLPC  C211 7693   1.167   0.096   3.756  0.6622  0.8707 -0.0581
   82SLPC  H11R 7694   1.068   0.081   3.804  0.8096  1.0893  0.3129
   82SLPC  H11S 7695   1.177   0.206   3.746  2.0628  0.8564  0.9434
   82SLPC  C212 7696   1.273   0.044   3.849 -0.2425  0.4858  0.8089
   82SLPC  H12R 7697   1.374   0.026   3.809 -0.7571 -0.3985 -0.1308
   82SLPC  C213 7698   1.266   0.036   3.985  0.8198 -0.0329 -0.0529
   82SLPC  H13R 7699   1.350  -0.001   4.046  0.9211 -1.2890 -0.9173
   82SLPC  C214 7700   1.135   0.063   4.062 -0.6932 -0.9362  0.5801
   82SLPC  H14R 7701   1.046   0.024   4.009 -0.2293 -1.5288  0.2168
   82SLPC  H14S 7702   1.114   0.172   4.065 -3.7228 -1.4607  1.7458
   82SLPC  C215 7703   1.153   0.005   4.202 -0.1491  0.9650 -0.3269
   82SLPC  H15R 7704   1.249   0.040   4.247 -0.9640 -0.3390  2.6290
   82SLPC  H15S 7705   1.154  -0.106   4.206 -2.1779  0.8801 -1.1939
   82SLPC  C216 7706   1.036   0.040   4.292  0.1712  0.2614  0.3719
   82SLPC  H16R 7707   0.942   0.006   4.244 -1.0864  1.1973  2.0658
   82SLPC  H16S 7708   1.033   0.150   4.306 -1.1501  0.2191  0.4750
   82SLPC  C217 7709   1.030  -0.042   4.422  0.4186  0.1961  0.7349
   82SLPC  H17R 7710   1.026  -0.146   4.383 -0.1748  0.5217 -0.0948
   82SLPC  H17S 7711   0.940  -0.011   4.479 -1.3463  0.1895 -1.9193
   82SLPC  C218 7712   1.163  -0.038   4.501 -0.5729 -0.7505 -0.2613
   82SLPC  H18R 7713   1.180   0.059   4.553  1.1430 -0.9301 -0.4140
   82SLPC  H18S 7714   1.244  -0.061   4.428 -0.3478  1.5726 -0.8064
   82SLPC  H18T 7715   1.163  -0.121   4.575  1.0723  0.3416  1.0367
   82SLPC   C33 7716   0.462   0.976   3.661 -0.5187  0.0198  0.1076
   82SLPC   H3X 7717   0.522   0.885   3.680 -0.0111 -0.1404 -1.9655
   82SLPC   H3Y 7718   0.362   0.948   3.698  0.3619 -2.8249  0.5807
   82SLPC   C34 7719   0.524   1.105   3.719  0.2094  0.3239  0.1322
   82SLPC   H4X 7720   0.457   1.190   3.693  2.4577  2.4063  0.7304
   82SLPC   H4Y 7721   0.620   1.121   3.666  0.0545  1.0349  0.0445
   82SLPC   C35 7722   0.564   1.095   3.869  0.2184 -0.4035  0.3919
   82SLPC   H5X 7723   0.654   1.155   3.894 -0.6884  1.1081  0.1746
   82SLPC   H5Y 7724   0.589   0.991   3.899  0.3329 -0.0288  1.6516
   82SLPC   C36 7725   0.447   1.135   3.955 -0.6574  0.4328 -0.8242
   82SLPC   H6X 7726   0.448   1.084   4.053  1.4629  3.2560  0.8084
   82SLPC   H6Y 7727   0.354   1.111   3.900 -2.3089  3.1511  0.5499
   82SLPC   C37 7728   0.445   1.289   3.986 -0.4542  0.7425 -0.1165
   82SLPC   H7X 7729   0.444   1.339   3.887 -1.7288 -1.2195 -1.1600
   82SLPC   H7Y 7730   0.532   1.324   4.046 -0.7864 -2.0987  2.2870
   82SLPC   C38 7731   0.314   1.332   4.050  0.1267  0.7767  0.0747
   82SLPC   H8X 7732   0.314   1.311   4.159  0.0064  1.0710  0.1312
   82SLPC   H8Y 7733   0.230   1.281   3.999 -0.7844  1.9806  0.3290
   82SLPC   C39 7734   0.292   1.476   4.024  0.6478  0.2007 -1.3034
   82SLPC   H9X 7735   0.313   1.505   3.919 -2.8561 -0.8866 -2.4395
   82SLPC   H9Y 7736   0.357   1.536   4.092  2.5626 -1.4763 -1.5603
   82SLPC  C310 7737   0.137   1.503   4.059  0.5338  0.1989  0.3284
   82SLPC  H10X 7738   0.124   1.461   4.161 -0.2116  1.9160  0.9754
   82SLPC  H10Y 7739   0.085   1.448   3.978  2.5637  0.0851 -0.9681
   82SLPC  C311 7740   0.105   1.654   4.043  0.7768 -0.1339 -0.4188
   82SLPC  H11X 7741   0.136   1.676   3.939  0.1281 -0.4471 -0.6819
   82SLPC  H11Y 7742   0.165   1.717   4.112 -1.1595 -0.5794  1.7901
   82SLPC  C312 7743  -0.048   1.697   4.072 -0.3980  0.9423  0.0254
   82SLPC  H12X 7744  -0.128   1.633   4.031 -0.0461  1.0913 -0.9219
   82SLPC  H12Y 7745  -0.067   1.790   4.015 -0.7103  0.8219 -0.0665
   82SLPC  C313 7746  -0.073   1.740   4.222  0.1275  0.7242  0.1103
   82SLPC  H13X 7747  -0.161   1.808   4.221 -2.6979 -2.5378  2.6692
   82SLPC  H13Y 7748   0.020   1.785   4.266 -0.7831  1.0879  1.7652
   82SLPC  C314 7749  -0.113   1.616   4.317  0.8620  1.0485  0.3725
   82SLPC  H14X 7750  -0.022   1.552   4.322 -1.1691 -2.2073 -0.6094
   82SLPC  H14Y 7751  -0.190   1.557   4.262  0.3078  1.5199  0.6327
   82SLPC  C315 7752  -0.166   1.643   4.460  0.6510 -0.6200  0.2380
   82SLPC  H15X 7753  -0.097   1.703   4.522 -0.6361 -0.8841  2.0074
   82SLPC  H15Y 7754  -0.194   1.556   4.524  0.9642 -0.5531  0.4658
   82SLPC  C316 7755  -0.298   1.731   4.456  0.1489  0.2367  0.1466
   82SLPC  H16X 7756  -0.368   1.682   4.385 -0.3681  0.0033  0.8089
   82SLPC  H16Y 7757  -0.280   1.833   4.415 -1.4335  1.2222  1.7560
   82SLPC  C317 7758  -0.359   1.750   4.585 -0.2871 -0.1460 -0.6069
   82SLPC  H17X 7759  -0.298   1.820   4.646 -0.2119 -1.3326  0.7369
   82SLPC  H17Y 7760  -0.365   1.660   4.650 -0.1703  0.3293  0.0648
   82SLPC  C318 7761  -0.508   1.799   4.584 -0.2128 -0.6960  0.5161
   82SLPC  H18X 7762  -0.569   1.772   4.674 -2.7115 -1.3524 -1.2615
   82SLPC  H18Y 7763  -0.552   1.752   4.494  2.6279 -3.4825  0.3831
   82SLPC  H18Z 7764  -0.511   1.909   4.570 -1.2857 -0.7308  0.4118
   83SLPC     N 7765   4.887   0.947   2.835  0.1969  0.3471  0.3607
   83SLPC   C13 7766   4.951   0.834   2.910 -0.5910 -0.8726 -0.1851
   83SLPC  H13A 7767   4.930   0.838   3.016 -1.2102  0.9647 -0.3438
   83SLPC  H13B 7768   4.918   0.738   2.872 -2.1657 -0.6818  0.6300
   83SLPC  H13C 7769   5.059   0.843   2.908 -0.5795 -0.9909 -0.1207
   83SLPC   C14 7770   4.916   1.077   2.912  0.4972 -0.0661  0.0716
   83SLPC  H14A 7771   4.900   1.171   2.861  4.5196  3.3181  4.2443
   83SLPC  H14B 7772   4.859   1.083   3.003  1.4958  1.4167  0.6219
   83SLPC  H14C 7773   5.020   1.070   2.940  0.1165 -3.6618  1.0545
   83SLPC   C15 7774   4.741   0.919   2.837  0.0445 -0.2875 -0.0655
   83SLPC  H15A 7775   4.696   0.898   2.934 -1.2019 -1.7355 -0.9010
   83SLPC  H15B 7776   4.690   1.006   2.799  0.6983  1.1395  2.0944
   83SLPC  H15C 7777   4.727   0.831   2.776  0.5331  1.1724 -2.3956
   83SLPC   C12 7778   4.926   0.952   2.692  0.0227  0.1140 -0.7808
   83SLPC  H12A 7779   5.031   0.978   2.687  1.1079 -3.4509  0.4002
   83SLPC  H12B 7780   4.866   1.023   2.636 -2.0650 -2.5890 -2.2250
   83SLPC   C11 7781   4.917   0.817   2.614  0.4034  0.1168  0.5708
   83SLPC  H11A 7782   5.004   0.756   2.645  0.3993  0.7021  1.8094
   83SLPC  H11B 7783   4.931   0.837   2.505 -0.5835 -2.7412 -0.1646
   83SLPC     P 7784   4.688   0.696   2.534  0.1695 -0.3542  0.2207
   83SLPC   O13 7785   4.637   0.823   2.477 -0.1408 -0.8144 -0.2240
   83SLPC   O14 7786   4.728   0.586   2.447  0.3651 -1.1589 -0.5481
   83SLPC   O12 7787   4.806   0.731   2.635  0.2858  0.0961  0.4271
   83SLPC   O11 7788   4.578   0.631   2.626  0.4823 -0.2991 -0.5380
   83SLPC    C1 7789   4.593   0.535   2.728  0.1327 -0.3700  0.5879
   83SLPC    HA 7790   4.522   0.449   2.719  0.1641 -0.6498  2.6378
   83SLPC    HB 7791   4.690   0.481   2.723 -0.2047 -1.1043  1.6113
   83SLPC    C2 7792   4.574   0.577   2.876  0.3023 -0.6045  0.2160
   83SLPC    HS 7793   4.658   0.647   2.895  0.6610 -1.1601  0.6911
   83SLPC   O21 7794   4.562   0.460   2.960 -0.4300 -0.0033 -0.4588
   83SLPC   C21 7795   4.636   0.460   3.064 -0.4855 -0.0458  0.9488
   83SLPC   O22 7796   4.714   0.551   3.092  0.2774 -0.7613  0.0625
   83SLPC   C22 7797   4.619   0.339   3.152 -0.6043 -0.3538  0.0164
   83SLPC   H2R 7798   4.555   0.264   3.100 -0.2093  0.3457 -1.5489
   83SLPC   H2S 7799   4.722   0.297   3.156  0.2665  1.5447 -0.9702
   83SLPC    C3 7800   4.441   0.664   2.888 -0.7060 -0.3349  0.5404
   83SLPC    HX 7801   4.353   0.630   2.829 -1.3022  1.1805  0.5119
   83SLPC    HY 7802   4.462   0.768   2.857 -1.3270 -0.0721  0.9818
   83SLPC   O31 7803   4.416   0.697   3.035  0.1894  0.3530 -0.7388
   83SLPC   C31 7804   4.312   0.632   3.091 -0.2471 -0.6651  0.0124
   83SLPC   O32 7805   4.240   0.555   3.030  0.2312  0.4776  0.3715
   83SLPC   C32 7806   4.304   0.674   3.239 -1.0559 -0.2173 -0.4776
   83SLPC   H2X 7807   4.271   0.780   3.241  1.8255  0.8098 -1.4162
   83SLPC   H2Y 7808   4.404   0.678   3.286 -0.8434 -0.2948 -0.9142
   83SLPC   C23 7809   4.575   0.378   3.289  0.1953 -0.7245 -0.5274
   83SLPC   H3R 7810   4.553   0.285   3.344 -1.5966 -0.2979 -0.4523
   83SLPC   H3S 7811   4.479   0.433   3.283 -0.0838 -0.8620  1.8650
   83SLPC   C24 7812   4.671   0.461   3.382  0.0457 -0.3539  0.8361
   83SLPC   H4R 7813   4.693   0.560   3.337  0.1155  0.0871  1.8068
   83SLPC   H4S 7814   4.772   0.414   3.384  0.7658  0.8150 -2.4389
   83SLPC   C25 7815   4.613   0.469   3.520 -0.3027  0.1326 -0.7041
   83SLPC   H5R 7816   4.555   0.377   3.543 -0.7745  0.8232  1.0324
   83SLPC   H5S 7817   4.558   0.565   3.534  0.3953  0.6917 -1.6838
   83SLPC   C26 7818   4.721   0.481   3.625  0.4252  0.3161  0.0888
   83SLPC   H6R 7819   4.798   0.401   3.614 -0.7989 -0.9951  0.7838
   83SLPC   H6S 7820   4.673   0.471   3.724 -1.4701 -0.2314 -0.8378
   83SLPC   C27 7821   4.807   0.611   3.613  0.0559  0.7028 -0.3345
   83SLPC   H7R 7822   4.763   0.701   3.660  0.7380  1.0340 -0.3074
   83SLPC   H7S 7823   4.813   0.646   3.508  1.2864 -1.0383 -0.9037
   83SLPC   C28 7824   4.948   0.615   3.689 -0.2052 -0.0228  0.7929
   83SLPC   H8R 7825   5.001   0.702   3.644 -0.5010 -1.7797 -3.3823
   83SLPC   H8S 7826   4.992   0.526   3.639 -2.4043 -0.7289  0.0065
   83SLPC   C29 7827   4.949   0.587   3.838  0.1120  0.2436  0.7062
   83SLPC   H9R 7828   4.859   0.632   3.882 -0.1977  1.3959 -1.0301
   83SLPC  C210 7829   5.029   0.511   3.907  0.2631  0.1724 -0.4618
   83SLPC  H10R 7830   5.006   0.500   4.014 -0.2611  2.3466 -0.2882
   83SLPC  C211 7831   5.150   0.435   3.855  0.0371  0.4044  0.3143
   83SLPC  H11R 7832   5.172   0.464   3.750  0.4993  0.6333  0.4725
   83SLPC  H11S 7833   5.122   0.327   3.857 -0.1872  0.3849 -1.6878
   83SLPC  C212 7834   5.271   0.444   3.938 -0.0502 -0.8791 -0.3704
   83SLPC  H12R 7835   5.330   0.533   3.910  0.0620 -0.7720  0.2010
   83SLPC  C213 7836   5.312   0.370   4.042  0.0653 -0.1770 -0.6873
   83SLPC  H13R 7837   5.409   0.384   4.093 -0.0568  0.3498 -0.5971
   83SLPC  C214 7838   5.247   0.247   4.089  0.2770  0.2585 -0.5205
   83SLPC  H14R 7839   5.313   0.163   4.058 -0.7005  0.3962 -3.2300
   83SLPC  H14S 7840   5.148   0.220   4.045  0.9636 -0.9060 -1.3867
   83SLPC  C215 7841   5.221   0.240   4.239 -0.1354 -0.1367  0.6139
   83SLPC  H15R 7842   5.131   0.303   4.256  0.4010  1.1852 -1.1452
   83SLPC  H15S 7843   5.306   0.298   4.281  0.8949 -0.4368 -0.9521
   83SLPC  C216 7844   5.213   0.098   4.302  0.7276 -0.1878 -0.4493
   83SLPC  H16R 7845   5.305   0.037   4.289  0.1112 -1.1390 -0.5014
   83SLPC  H16S 7846   5.131   0.042   4.251  1.1057  0.7381 -2.1770
   83SLPC  C217 7847   5.178   0.110   4.451 -0.6456 -0.6907  0.1316
   83SLPC  H17R 7848   5.124   0.019   4.485 -2.4980  0.6120  0.8413
   83SLPC  H17S 7849   5.104   0.191   4.466  0.4461  0.0196  2.1581
   83SLPC  C218 7850   5.311   0.138   4.529  0.2828  0.1072 -0.5821
   83SLPC  H18R 7851   5.400   0.079   4.497  1.9684  2.1487  0.1333
   83SLPC  H18S 7852   5.291   0.116   4.636  1.4307  0.3014 -0.3092
   83SLPC  H18T 7853   5.325   0.246   4.511  0.3090  0.3486  0.8017
   83SLPC   C33 7854   4.212   0.582   3.325 -0.0801  0.0058 -0.5641
   83SLPC   H3X 7855   4.237   0.474   3.312  0.1568 -0.3035  1.9314
   83SLPC   H3Y 7856   4.106   0.604   3.303 -0.6735  1.2908  2.9809
   83SLPC   C34 7857   4.228   0.591   3.479 -0.8445 -1.0132  0.4022
   83SLPC   H4X 7858   4.195   0.692   3.514  2.2781  0.8808 -1.6246
   83SLPC   H4Y 7859   4.336   0.578   3.502 -0.8664  0.1928  1.2993
   83SLPC   C35 7860   4.159   0.494   3.566  0.4256  0.4622 -0.1233
   83SLPC   H5X 7861   4.057   0.482   3.524  0.7217  0.5033 -0.8723
   83SLPC   H5Y 7862   4.151   0.529   3.671 -0.5156 -1.6661  0.5781
   83SLPC   C36 7863   4.226   0.355   3.567  0.0429  0.4933  0.0056
   83SLPC   H6X 7864   4.319   0.346   3.629 -0.5237 -2.2213  0.6253
   83SLPC   H6Y 7865   4.266   0.339   3.465  0.4252  1.6313 -0.0370
   83SLPC   C37 7866   4.133   0.246   3.623  0.1203  0.2089 -0.1742
   83SLPC   H7X 7867   4.163   0.140   3.604  1.7714  0.8144 -1.1707
   83SLPC   H7Y 7868   4.037   0.257   3.568  0.4180 -0.4463 -0.8605
   83SLPC   C38 7869   4.102   0.263   3.776  0.4603 -0.5056  0.3135
   83SLPC   H8X 7870   4.034   0.180   3.803  1.1760 -2.3850 -3.0495
   83SLPC   H8Y 7871   4.041   0.355   3.792  1.3669  0.1408  0.1679
   83SLPC   C39 7872   4.227   0.265   3.860  0.7883 -0.5922 -0.4275
   83SLPC   H9X 7873   4.292   0.353   3.843  0.4017 -0.5372 -1.7026
   83SLPC   H9Y 7874   4.295   0.185   3.823  0.1283 -2.8799  2.8359
   83SLPC  C310 7875   4.208   0.259   4.011  0.4416  1.0628 -0.0998
   83SLPC  H10X 7876   4.296   0.298   4.067 -0.5775  1.2042  1.4808
   83SLPC  H10Y 7877   4.193   0.151   4.035 -2.3608  0.5561 -3.3724
   83SLPC  C311 7878   4.085   0.335   4.055  0.1346  0.5658  0.2999
   83SLPC  H11X 7879   3.999   0.267   4.039  0.9357 -0.7079  1.2046
   83SLPC  H11Y 7880   4.075   0.431   3.999 -1.0522  1.5550  2.0942
   83SLPC  C312 7881   4.078   0.375   4.211 -0.6859 -0.7124 -0.1230
   83SLPC  H12X 7882   3.987   0.436   4.226 -1.7025 -2.2040 -0.0833
   83SLPC  H12Y 7883   4.172   0.431   4.232 -0.3710  0.0372 -3.0576
   83SLPC  C313 7884   4.070   0.260   4.304 -0.0661  0.3479  0.2159
   83SLPC  H13X 7885   4.161   0.217   4.350  0.5596 -1.6964 -2.6415
   83SLPC  H13Y 7886   4.025   0.179   4.242  0.5381 -0.9080  1.3789
   83SLPC  C314 7887   3.957   0.271   4.419  0.7805  0.1517 -0.2049
   83SLPC  H14X 7888   3.860   0.266   4.365  1.0201  4.4602 -1.4189
   83SLPC  H14Y 7889   3.952   0.371   4.467  0.7288  0.1912 -0.2902
   83SLPC  C315 7890   3.957   0.152   4.511  0.1822 -0.1420  0.0178
   83SLPC  H15X 7891   4.039   0.175   4.583  0.8755  3.0605 -1.6341
   83SLPC  H15Y 7892   3.983   0.054   4.463  0.9437  0.6493 -1.2662
   83SLPC  C316 7893   3.827   0.130   4.596  0.0586 -0.3654 -0.6595
   83SLPC  H16X 7894   3.737   0.108   4.534 -0.2750  2.4930 -1.3218
   83SLPC  H16Y 7895   3.793   0.223   4.645 -0.1224 -0.6144 -0.3016
   83SLPC  C317 7896   3.838   0.005   4.694  0.3453  0.0691 -0.0053
   83SLPC  H17X 7897   3.899   0.043   4.779  0.1079  0.9168 -0.2050
   83SLPC  H17Y 7898   3.903  -0.073   4.650  2.2069  0.5261  1.7592
   83SLPC  C318 7899   3.700  -0.045   4.736 -1.2336 -0.2208  0.4995
   83SLPC  H18X 7900   3.641  -0.075   4.647  1.6972 -3.3206 -0.5981
   83SLPC  H18Y 7901   3.642   0.021   4.804 -0.4278  0.6183  0.3829
   83SLPC  H18Z 7902   3.717  -0.141   4.790 -1.1711 -1.1828 -1.1739
   84SLPC     N 7903   2.632   2.771   3.182  0.0918  0.6770  0.7415
   84SLPC   C13 7904   2.627   2.821   3.034  0.2107  0.0195  0.3915
   84SLPC  H13A 7905   2.524   2.803   3.006  0.2224 -0.7226  0.8015
   84SLPC  H13B 7906   2.645   2.927   3.023 -1.0578  0.1446 -0.6774
   84SLPC  H13C 7907   2.687   2.760   2.969 -0.5336  0.7609 -1.0321
   84SLPC   C14 7908   2.771   2.799   3.233 -0.1851  0.3580  0.2770
   84SLPC  H14A 7909   2.849   2.749   3.176  1.8878  2.1972  1.3400
   84SLPC  H14B 7910   2.791   2.905   3.228  2.5976 -0.1283 -1.3380
   84SLPC  H14C 7911   2.782   2.755   3.331  0.5632 -3.6576 -1.3909
   84SLPC   C15 7912   2.623   2.615   3.193  0.7205 -0.1897 -0.1281
   84SLPC  H15A 7913   2.711   2.569   3.150  0.5180 -0.5346 -0.1748
   84SLPC  H15B 7914   2.634   2.572   3.291 -0.5033 -0.7421 -0.2149
   84SLPC  H15C 7915   2.548   2.572   3.129  1.3771 -1.9265  0.2252
   84SLPC   C12 7916   2.525   2.840   3.264 -0.4946 -0.2157 -0.3981
   84SLPC  H12A 7917   2.550   2.944   3.250 -1.1732 -0.0152 -0.1639
   84SLPC  H12B 7918   2.540   2.823   3.370 -2.8819 -2.0737 -0.2687
   84SLPC   C11 7919   2.373   2.825   3.235  0.3066 -0.4550  0.5205
   84SLPC  H11A 7920   2.305   2.881   3.302  1.6342  0.0246  1.5177
   84SLPC  H11B 7921   2.339   2.720   3.252 -0.2016 -0.3649  0.0852
   84SLPC     P 7922   2.310   3.005   3.047 -0.4571  0.3823 -0.1466
   84SLPC   O13 7923   2.402   3.034   2.935  0.0277 -0.3542  0.9544
   84SLPC   O14 7924   2.160   3.006   3.012 -0.0896  0.6229 -0.6070
   84SLPC   O12 7925   2.342   2.859   3.098  0.0050 -0.4831  0.1898
   84SLPC   O11 7926   2.329   3.094   3.176 -0.2178 -0.1784 -0.2991
   84SLPC    C1 7927   2.310   3.233   3.161 -0.5797 -0.3401 -0.4906
   84SLPC    HA 7928   2.406   3.284   3.142 -0.6575  0.1420  0.3596
   84SLPC    HB 7929   2.239   3.255   3.079 -1.8210 -1.2473  0.2985
   84SLPC    C2 7930   2.260   3.288   3.299 -0.5690  0.1660 -0.2986
   84SLPC    HS 7931   2.168   3.233   3.330  0.3367 -0.9801  0.4218
   84SLPC   O21 7932   2.250   3.429   3.296 -0.1182 -0.6686 -0.0388
   84SLPC   C21 7933   2.129   3.471   3.269  0.4391 -0.2022 -0.8765
   84SLPC   O22 7934   2.032   3.402   3.244  0.1627  0.0770  0.2144
   84SLPC   C22 7935   2.142   3.631   3.260 -0.3673 -0.5752 -0.2157
   84SLPC   H2R 7936   2.225   3.655   3.329  0.2413 -0.3582 -1.0123
   84SLPC   H2S 7937   2.178   3.660   3.159  0.2489 -0.5632  0.0050
   84SLPC    C3 7938   2.369   3.244   3.409  0.7284  0.4582  0.0412
   84SLPC    HX 7939   2.471   3.276   3.378 -0.2468  1.4086 -2.5202
   84SLPC    HY 7940   2.370   3.133   3.404  5.4391  0.1531  2.7188
   84SLPC   O31 7941   2.331   3.291   3.536  0.1139 -0.3025  0.9639
   84SLPC   C31 7942   2.337   3.203   3.634 -0.4599 -0.0907 -0.1729
   84SLPC   O32 7943   2.353   3.083   3.628 -0.2733  0.3965  0.0879
   84SLPC   C32 7944   2.329   3.278   3.762  0.1067  0.0332  0.4822
   84SLPC   H2X 7945   2.432   3.290   3.800 -0.3345 -0.1169  1.7924
   84SLPC   H2Y 7946   2.266   3.218   3.832  0.0495  0.1528  0.5344
   84SLPC   C23 7947   2.013   3.707   3.285  0.2620 -0.0528 -0.4174
   84SLPC   H3R 7948   1.917   3.657   3.261 -0.5186  0.7788  0.8643
   84SLPC   H3S 7949   2.016   3.800   3.226  2.1288 -1.2798 -2.4089
   84SLPC   C24 7950   2.002   3.752   3.434 -0.2904  0.0237 -0.0462
   84SLPC   H4R 7951   2.093   3.796   3.480 -0.2080  1.2372 -1.2929
   84SLPC   H4S 7952   1.959   3.668   3.493 -0.2867  0.3213  0.3869
   84SLPC   C25 7953   1.918   3.882   3.463 -0.1151  0.4184 -0.3295
   84SLPC   H5R 7954   1.814   3.863   3.428 -0.1004  1.1988 -0.8227
   84SLPC   H5S 7955   1.960   3.960   3.396  2.7908 -0.4788  0.2998
   84SLPC   C26 7956   1.909   3.933   3.596  0.1378  0.7453  0.1392
   84SLPC   H6R 7957   1.855   4.028   3.582  2.4217  2.4507  2.0038
   84SLPC   H6S 7958   2.009   3.973   3.627  0.4198 -1.0357  1.7745
   84SLPC   C27 7959   1.856   3.841   3.706  0.6834  0.1480 -0.2547
   84SLPC   H7R 7960   1.864   3.889   3.806  0.5106 -2.0459  0.8576
   84SLPC   H7S 7961   1.920   3.751   3.705 -0.3200 -0.6488  1.5822
   84SLPC   C28 7962   1.706   3.795   3.694 -0.0027 -0.1743  1.0585
   84SLPC   H8R 7963   1.667   3.717   3.762 -2.0555 -1.0836 -1.0167
   84SLPC   H8S 7964   1.683   3.770   3.588 -1.4495 -0.9776  1.5340
   84SLPC   C29 7965   1.614   3.912   3.720 -0.1042 -0.3255  0.6568
   84SLPC   H9R 7966   1.578   3.962   3.628 -2.6960 -0.7138  1.3882
   84SLPC  C210 7967   1.562   3.943   3.839  0.6081  0.2043 -0.5182
   84SLPC  H10R 7968   1.488   4.023   3.856  0.7440  0.6237 -1.8484
   84SLPC  C211 7969   1.599   3.864   3.963  0.4871  0.3561 -0.2737
   84SLPC  H11R 7970   1.618   3.937   4.045  1.5443 -1.2628  0.9873
   84SLPC  H11S 7971   1.694   3.806   3.955 -0.8107 -2.0884  1.0313
   84SLPC  C212 7972   1.486   3.765   3.995  0.4254  0.2386  0.1930
   84SLPC  H12R 7973   1.502   3.660   3.967  0.5774  0.3291 -0.0629
   84SLPC  C213 7974   1.357   3.799   4.033 -0.0040 -0.2428  0.3914
   84SLPC  H13R 7975   1.285   3.718   4.055  0.9030 -1.6982 -1.6369
   84SLPC  C214 7976   1.317   3.941   4.064  0.0919 -0.7308 -0.5143
   84SLPC  H14R 7977   1.224   3.969   4.010  0.0045  1.2146  0.5324
   84SLPC  H14S 7978   1.394   4.019   4.045 -0.0282  0.0843  1.9058
   84SLPC  C215 7979   1.287   3.972   4.212  0.4471 -0.4854  0.0180
   84SLPC  H15R 7980   1.388   3.972   4.258  1.5659 -1.7859 -2.2574
   84SLPC  H15S 7981   1.228   3.886   4.251 -0.0896 -1.7953 -3.3347
   84SLPC  C216 7982   1.204   4.104   4.236  0.7438  0.2019 -0.5335
   84SLPC  H16R 7983   1.115   4.086   4.172 -0.7639  1.2029  1.1773
   84SLPC  H16S 7984   1.254   4.198   4.205  1.0969  0.4551  0.7708
   84SLPC  C217 7985   1.141   4.114   4.375 -0.6924  0.1563 -0.5713
   84SLPC  H17R 7986   1.106   4.015   4.412  1.9508 -0.2744  0.9857
   84SLPC  H17S 7987   1.041   4.163   4.373 -0.3014  0.9481 -1.1137
   84SLPC  C218 7988   1.236   4.172   4.474  0.9216  0.3932  0.2223
   84SLPC  H18R 7989   1.282   4.261   4.425  0.1974 -0.1852 -1.6017
   84SLPC  H18S 7990   1.320   4.107   4.508  0.4915 -1.7930 -2.4801
   84SLPC  H18T 7991   1.176   4.205   4.561 -0.4629  1.1850 -0.9822
   84SLPC   C33 7992   2.257   3.416   3.747  0.9164 -0.1576  0.0162
   84SLPC   H3X 7993   2.173   3.428   3.676  2.1513  1.4966 -1.2546
   84SLPC   H3Y 7994   2.326   3.495   3.710 -1.1600  1.3976 -0.7632
   84SLPC   C34 7995   2.208   3.468   3.882  0.2389  0.0851 -0.4050
   84SLPC   H4X 7996   2.304   3.460   3.938  1.0506  0.7990 -1.6584
   84SLPC   H4Y 7997   2.129   3.402   3.925 -0.6529  0.6319 -1.1787
   84SLPC   C35 7998   2.154   3.611   3.878  0.5860  0.1048  0.3006
   84SLPC   H5X 7999   2.053   3.609   3.832  1.0475  0.0967 -0.7329
   84SLPC   H5Y 8000   2.219   3.666   3.807  0.0738 -0.4643 -0.6353
   84SLPC   C36 8001   2.150   3.683   4.009  0.4723  0.3047  0.1279
   84SLPC   H6X 8002   2.248   3.731   4.031 -0.0218  0.7417  1.4692
   84SLPC   H6Y 8003   2.149   3.612   4.095  0.3613 -0.1128 -0.2115
   84SLPC   C37 8004   2.041   3.788   4.023  0.4881 -0.6203 -0.4634
   84SLPC   H7X 8005   1.936   3.753   4.015 -0.0844  0.6520  0.9726
   84SLPC   H7Y 8006   2.059   3.865   3.945  1.9651  0.7377  1.1190
   84SLPC   C38 8007   2.047   3.859   4.157 -0.7375 -0.3507 -0.3782
   84SLPC   H8X 8008   2.007   3.963   4.156  1.8199  0.7215 -0.5122
   84SLPC   H8Y 8009   2.148   3.901   4.177 -0.9676  0.5495 -1.0324
   84SLPC   C39 8010   1.985   3.786   4.277  0.4798 -0.0803  0.7811
   84SLPC   H9X 8011   2.014   3.837   4.371 -0.2615  0.0315  0.9567
   84SLPC   H9Y 8012   2.031   3.686   4.270  1.5811  0.4963 -0.9103
   84SLPC  C310 8013   1.830   3.779   4.271 -0.2656  0.0513  0.0111
   84SLPC  H10X 8014   1.802   3.689   4.212 -1.0115 -2.5064  3.8981
   84SLPC  H10Y 8015   1.780   3.871   4.232 -1.5867 -1.2316 -1.4706
   84SLPC  C311 8016   1.769   3.737   4.408 -0.3835 -0.1434 -0.3124
   84SLPC  H11X 8017   1.796   3.819   4.478  1.0291 -1.3146  0.5934
   84SLPC  H11Y 8018   1.803   3.638   4.448 -0.9874 -0.5378 -0.7568
   84SLPC  C312 8019   1.615   3.759   4.408  0.5853 -0.0019 -0.7683
   84SLPC  H12X 8020   1.577   3.696   4.324  2.6124  0.3689 -2.0229
   84SLPC  H12Y 8021   1.594   3.865   4.382  2.9357  0.4384 -1.0490
   84SLPC  C313 8022   1.552   3.735   4.540  0.3421 -0.6021 -0.2201
   84SLPC  H13X 8023   1.620   3.756   4.625  0.7194  0.8904 -0.8696
   84SLPC  H13Y 8024   1.533   3.625   4.546  0.0994 -0.4948  1.2068
   84SLPC  C314 8025   1.417   3.814   4.553 -0.8688 -0.6486  0.2923
   84SLPC  H14X 8026   1.361   3.820   4.457  0.7428  2.1437 -0.5829
   84SLPC  H14Y 8027   1.453   3.919   4.562  1.2933 -1.3631  0.4601
   84SLPC  C315 8028   1.335   3.781   4.681 -1.0252 -0.0875  0.2202
   84SLPC  H15X 8029   1.399   3.797   4.770  1.3898 -1.6211 -1.1343
   84SLPC  H15Y 8030   1.323   3.671   4.669 -0.7412  0.0273 -1.3686
   84SLPC  C316 8031   1.196   3.850   4.689  0.4501  0.2266 -0.0922
   84SLPC  H16X 8032   1.142   3.828   4.595  1.9915  2.5609 -1.6529
   84SLPC  H16Y 8033   1.212   3.960   4.689  0.4375  0.2327  0.5018
   84SLPC  C317 8034   1.105   3.804   4.810 -0.2216 -0.2299 -0.0742
   84SLPC  H17X 8035   1.000   3.829   4.782 -0.2852 -1.7208 -1.2794
   84SLPC  H17Y 8036   1.139   3.873   4.890 -2.5848  1.9178 -0.7960
   84SLPC  C318 8037   1.115   3.651   4.839 -0.0376  0.3394 -0.9262
   84SLPC  H18X 8038   1.034   3.619   4.907  1.7209 -2.6138 -0.0601
   84SLPC  H18Y 8039   1.213   3.630   4.887 -1.1807 -1.6927  0.6816
   84SLPC  H18Z 8040   1.110   3.588   4.747  0.2175  0.5593 -1.0927
   85SLPC     N 8041   0.558   3.826   2.803 -0.7848 -0.1409 -0.5604
   85SLPC   C13 8042   0.549   3.777   2.940 -0.6385  0.2051  0.3832
   85SLPC  H13A 8043   0.477   3.836   2.995 -2.3022 -0.1608 -1.2710
   85SLPC  H13B 8044   0.521   3.673   2.945  0.1972  0.0528  3.7745
   85SLPC  H13C 8045   0.645   3.789   2.988  0.0381 -0.6891 -0.6871
   85SLPC   C14 8046   0.424   3.828   2.750  0.8552 -0.2493 -0.4166
   85SLPC  H14A 8047   0.361   3.900   2.800 -1.3177 -3.2838  1.5311
   85SLPC  H14B 8048   0.433   3.848   2.644  1.4127  0.4579 -0.2469
   85SLPC  H14C 8049   0.379   3.731   2.760 -2.0754  1.1213  0.8644
   85SLPC   C15 8050   0.636   3.721   2.733 -0.1176 -0.1719  0.6433
   85SLPC  H15A 8051   0.742   3.733   2.753  0.4237 -2.3115 -0.5630
   85SLPC  H15B 8052   0.614   3.623   2.773  1.7999 -0.9450 -0.0477
   85SLPC  H15C 8053   0.618   3.718   2.627  0.2397 -0.0631  0.5777
   85SLPC   C12 8054   0.627   3.953   2.789  0.1499  0.5101 -1.3860
   85SLPC  H12A 8055   0.573   4.023   2.851 -1.8424 -1.0573 -1.2580
   85SLPC  H12B 8056   0.609   3.981   2.686  2.1326  0.3702 -1.8099
   85SLPC   C11 8057   0.778   3.961   2.831  0.3003 -0.3942  0.8149
   85SLPC  H11A 8058   0.775   3.916   2.933  3.9401  0.2669  1.3177
   85SLPC  H11B 8059   0.804   4.069   2.827 -2.2701  0.2721 -2.2573
   85SLPC     P 8060   0.891   3.917   2.588  0.2061 -0.0806  0.0892
   85SLPC   O13 8061   0.931   3.790   2.530  0.5957 -0.3201 -0.3226
   85SLPC   O14 8062   0.771   3.985   2.525 -0.2178  0.1330 -0.1705
   85SLPC   O12 8063   0.868   3.894   2.745 -0.6882  0.3358 -0.5384
   85SLPC   O11 8064   1.015   4.014   2.581 -0.4366  0.0509 -0.4585
   85SLPC    C1 8065   1.140   3.978   2.641 -0.0099 -0.3017 -0.4832
   85SLPC    HA 8066   1.148   3.878   2.688  0.6932  0.1939  0.4880
   85SLPC    HB 8067   1.218   3.982   2.562 -0.5723  1.8106 -0.9990
   85SLPC    C2 8068   1.184   4.091   2.746 -0.8180 -0.1559 -0.5618
   85SLPC    HS 8069   1.276   4.046   2.789 -1.4821 -0.4602  0.5822
   85SLPC   O21 8070   1.087   4.130   2.853  0.0465  0.4223  0.6102
   85SLPC   C21 8071   1.081   4.029   2.946  0.4492 -0.0218  0.1208
   85SLPC   O22 8072   1.139   3.922   2.944 -0.3656  0.2385  0.5600
   85SLPC   C22 8073   0.984   4.073   3.064  0.5777  0.4297  0.4364
   85SLPC   H2R 8074   0.909   4.147   3.029  0.0520  0.6928  1.9996
   85SLPC   H2S 8075   0.936   3.978   3.097 -0.0186  1.3094  2.2728
   85SLPC    C3 8076   1.223   4.225   2.673 -0.2347  0.1348  0.3030
   85SLPC    HX 8077   1.127   4.275   2.649  1.4229  3.2350 -0.3364
   85SLPC    HY 8078   1.280   4.199   2.581  3.0705  0.5073  2.0822
   85SLPC   O31 8079   1.294   4.314   2.763 -0.2679  0.4402  0.1843
   85SLPC   C31 8080   1.429   4.297   2.768 -0.2045 -0.1547  0.3018
   85SLPC   O32 8081   1.484   4.206   2.703  0.3302 -0.0796 -0.3762
   85SLPC   C32 8082   1.489   4.385   2.876 -0.1955 -0.4700  0.9215
   85SLPC   H2X 8083   1.468   4.491   2.851  2.4243  0.5267  2.5326
   85SLPC   H2Y 8084   1.597   4.362   2.884  0.0798  0.2442 -0.5908
   85SLPC   C23 8085   1.068   4.135   3.180  0.5341  0.1418 -0.2939
   85SLPC   H3R 8086   1.117   4.228   3.143 -0.9829  1.5787  1.0657
   85SLPC   H3S 8087   1.139   4.065   3.228 -0.2044 -0.1410  0.4096
   85SLPC   C24 8088   0.970   4.181   3.299 -0.0838  0.4253 -0.0387
   85SLPC   H4R 8089   0.912   4.096   3.339  0.4160  0.4693  0.7956
   85SLPC   H4S 8090   0.895   4.252   3.256  0.5119 -0.0102 -1.9049
   85SLPC   C25 8091   1.048   4.237   3.408  0.5994  0.0450 -0.7176
   85SLPC   H5R 8092   1.128   4.165   3.439  1.7497 -0.2070 -3.9159
   85SLPC   H5S 8093   1.106   4.327   3.378  1.6271  1.0923  3.6855
   85SLPC   C26 8094   0.959   4.272   3.532 -1.2757 -0.0009 -0.5259
   85SLPC   H6R 8095   0.892   4.185   3.549  0.8185 -1.7214 -0.6837
   85SLPC   H6S 8096   0.893   4.358   3.509 -1.4704 -0.1302 -0.4558
   85SLPC   C27 8097   1.043   4.298   3.659 -1.0576 -0.0176 -0.8712
   85SLPC   H7R 8098   1.100   4.388   3.630 -1.7907 -0.0708 -2.6314
   85SLPC   H7S 8099   1.118   4.216   3.668 -0.8469 -0.1709 -3.2188
   85SLPC   C28 8100   0.970   4.321   3.785 -0.3325  0.0404 -0.2375
   85SLPC   H8R 8101   0.891   4.246   3.805 -0.9476  0.3348 -1.4976
   85SLPC   H8S 8102   0.922   4.420   3.774  1.1792  0.8989  0.5066
   85SLPC   C29 8103   1.072   4.318   3.899  0.0574  0.2525  0.8708
   85SLPC   H9R 8104   1.157   4.249   3.887  0.0088  0.2161  0.7308
   85SLPC  C210 8105   1.074   4.383   4.015  0.2457  0.2116 -0.2691
   85SLPC  H10R 8106   1.163   4.366   4.076 -0.5365 -0.6459  0.6723
   85SLPC  C211 8107   0.967   4.477   4.060 -0.6647 -0.5402 -0.4514
   85SLPC  H11R 8108   0.902   4.428   4.135  3.1257 -2.2058  2.0601
   85SLPC  H11S 8109   0.909   4.511   3.972 -0.9256  1.1405  0.3413
   85SLPC  C212 8110   1.018   4.605   4.129 -0.2149  0.1388  0.2346
   85SLPC  H12R 8111   1.000   4.701   4.077 -1.1582 -1.3037 -2.2793
   85SLPC  C213 8112   1.054   4.614   4.257 -0.2205 -0.3898  0.2540
   85SLPC  H13R 8113   1.088   4.712   4.294 -0.6776  0.2688 -1.0251
   85SLPC  C214 8114   1.073   4.492   4.346  0.3764 -0.0366  0.1444
   85SLPC  H14R 8115   1.174   4.450   4.326  0.0048 -1.1520  0.5370
   85SLPC  H14S 8116   1.003   4.411   4.319 -0.9149  0.9157  0.5328
   85SLPC  C215 8117   1.071   4.515   4.495 -0.9235 -0.0731  0.4068
   85SLPC  H15R 8118   1.151   4.587   4.524 -1.0108  0.0383  0.3746
   85SLPC  H15S 8119   1.110   4.424   4.546  0.1583 -1.0897 -2.0731
   85SLPC  C216 8120   0.938   4.557   4.551 -0.7513 -0.0402 -0.3712
   85SLPC  H16R 8121   0.856   4.483   4.534 -1.3923  0.6563 -0.3482
   85SLPC  H16S 8122   0.902   4.652   4.506  0.1913  0.4731 -0.0537
   85SLPC  C217 8123   0.955   4.592   4.702 -0.0003  0.0586  1.0407
   85SLPC  H17R 8124   1.044   4.659   4.708 -0.5622  0.9009  0.3147
   85SLPC  H17S 8125   0.979   4.494   4.747  2.1487  0.0441 -0.0321
   85SLPC  C218 8126   0.847   4.662   4.785  0.3942 -0.3352 -0.2421
   85SLPC  H18R 8127   0.879   4.681   4.890  0.7961  0.1828 -0.4530
   85SLPC  H18S 8128   0.761   4.592   4.783  0.8460 -0.9074 -2.5661
   85SLPC  H18T 8129   0.817   4.755   4.731 -0.3348 -0.0258  0.6738
   85SLPC   C33 8130   1.418   4.360   3.016  0.5117 -0.2131  0.0423
   85SLPC   H3X 8131   1.424   4.251   3.036 -4.6685 -0.7764  0.0242
   85SLPC   H3Y 8132   1.308   4.372   2.998  0.8862  0.6691 -1.9748
   85SLPC   C34 8133   1.470   4.449   3.131 -0.1636 -0.2093  0.7059
   85SLPC   H4X 8134   1.414   4.545   3.133  1.0705  0.5721 -0.4515
   85SLPC   H4Y 8135   1.579   4.467   3.123 -0.0957 -0.3505  1.3106
   85SLPC   C35 8136   1.455   4.382   3.264 -0.1142  0.1001 -0.2283
   85SLPC   H5X 8137   1.540   4.324   3.306 -1.0895 -2.0293 -1.1111
   85SLPC   H5Y 8138   1.366   4.316   3.264  0.4250 -0.6448 -0.3909
   85SLPC   C36 8139   1.430   4.481   3.377  0.4283  0.3484 -0.0483
   85SLPC   H6X 8140   1.352   4.553   3.345 -0.8379 -0.7472  0.4890
   85SLPC   H6Y 8141   1.519   4.547   3.386  0.0245  0.6932  2.1536
   85SLPC   C37 8142   1.422   4.417   3.522 -0.4801 -0.3032  0.0687
   85SLPC   H7X 8143   1.351   4.333   3.538  0.2238 -0.5961  2.0248
   85SLPC   H7Y 8144   1.371   4.493   3.585 -2.1203 -1.3292  0.0436
   85SLPC   C38 8145   1.560   4.362   3.579  0.4449 -0.0118  0.2413
   85SLPC   H8X 8146   1.630   4.447   3.585  0.7972 -0.1460 -1.4538
   85SLPC   H8Y 8147   1.607   4.285   3.514 -0.0717  0.8710 -1.2376
   85SLPC   C39 8148   1.545   4.306   3.720  0.4129 -0.1262 -0.1361
   85SLPC   H9X 8149   1.650   4.283   3.748  0.5927  1.1289  0.2938
   85SLPC   H9Y 8150   1.480   4.216   3.726 -0.6903  0.6854  0.5126
   85SLPC  C310 8151   1.491   4.412   3.820  0.0262 -0.2878 -0.3087
   85SLPC  H10X 8152   1.388   4.440   3.791  0.3260 -1.3739 -2.6539
   85SLPC  H10Y 8153   1.554   4.502   3.834 -0.8255  0.2754 -0.0332
   85SLPC  C311 8154   1.479   4.351   3.960  0.3162  0.6012 -0.2031
   85SLPC  H11X 8155   1.410   4.264   3.962  0.1147  0.7656  0.0643
   85SLPC  H11Y 8156   1.434   4.437   4.016 -0.2322  1.8205 -2.3965
   85SLPC  C312 8157   1.607   4.311   4.034  0.2486 -0.0286  0.1854
   85SLPC  H12X 8158   1.678   4.397   4.029  1.1853 -0.8128 -0.1944
   85SLPC  H12Y 8159   1.649   4.225   3.977 -0.5092 -1.5935  1.9239
   85SLPC  C313 8160   1.585   4.272   4.185  0.2414 -0.4276 -0.3389
   85SLPC  H13X 8161   1.523   4.180   4.188  1.6962 -1.4046  2.5001
   85SLPC  H13Y 8162   1.523   4.351   4.232 -0.1466 -1.1772  0.4142
   85SLPC  C314 8163   1.707   4.232   4.266  0.2513 -0.7478  0.5344
   85SLPC  H14X 8164   1.776   4.318   4.283  3.9196 -3.1800 -0.8457
   85SLPC  H14Y 8165   1.766   4.158   4.209  1.1663  0.1682  0.2578
   85SLPC  C315 8166   1.676   4.175   4.399 -0.0958 -0.0028 -0.3287
   85SLPC  H15X 8167   1.603   4.091   4.394 -1.7819  1.2874  1.1108
   85SLPC  H15Y 8168   1.621   4.250   4.461 -0.9568  0.0395 -1.1164
   85SLPC  C316 8169   1.804   4.141   4.471 -0.6992  0.3144 -0.0723
   85SLPC  H16X 8170   1.863   4.236   4.467 -0.6856  0.3040 -0.1221
   85SLPC  H16Y 8171   1.865   4.060   4.426  0.0728 -0.7795  2.7312
   85SLPC  C317 8172   1.808   4.112   4.626  0.7714 -1.0897 -0.0184
   85SLPC  H17X 8173   1.748   4.023   4.656 -0.2915 -0.2378  0.4308
   85SLPC  H17Y 8174   1.752   4.201   4.661 -0.8899 -1.8722 -0.5897
   85SLPC  C318 8175   1.951   4.107   4.682 -0.2402  0.2693 -0.0032
   85SLPC  H18X 8176   1.937   4.116   4.792  0.0759 -0.8687  0.1515
   85SLPC  H18Y 8177   2.012   4.195   4.653  0.9632 -0.9199 -1.2198
   85SLPC  H18Z 8178   2.016   4.018   4.667 -0.2522  0.3004 -0.2314
   86SLPC     N 8179   0.070   5.706   2.686 -0.7279  0.7052 -0.0176
   86SLPC   C13 8180  -0.020   5.794   2.611 -0.2457 -0.0005  0.5433
   86SLPC  H13A 8181  -0.116   5.747   2.596 -0.8552  0.6383  2.2302
   86SLPC  H13B 8182  -0.036   5.890   2.656 -2.1603  0.7011 -1.4545
   86SLPC  H13C 8183   0.030   5.815   2.517  1.3007 -2.4635  0.7079
   86SLPC   C14 8184   0.206   5.768   2.709 -0.6298 -0.8745 -0.0599
   86SLPC  H14A 8185   0.194   5.847   2.782 -2.7705 -1.4907  0.3166
   86SLPC  H14B 8186   0.276   5.696   2.747  0.6585 -1.3332 -3.0700
   86SLPC  H14C 8187   0.247   5.815   2.621 -1.5055  1.7113  0.8015
   86SLPC   C15 8188   0.095   5.583   2.605  0.6179 -0.3743 -0.9273
   86SLPC  H15A 8189   0.180   5.533   2.648  0.1398  0.5858  1.2466
   86SLPC  H15B 8190   0.013   5.514   2.604  0.6605 -0.4245 -1.4163
   86SLPC  H15C 8191   0.132   5.614   2.508 -0.5188 -0.2735 -1.3472
   86SLPC   C12 8192   0.015   5.663   2.825  0.4817 -0.4513  0.0079
   86SLPC  H12A 8193   0.014   5.751   2.886 -1.4298  0.8826 -1.7794
   86SLPC  H12B 8194   0.078   5.581   2.856  0.4442 -0.2564  0.5948
   86SLPC   C11 8195  -0.123   5.602   2.837  0.6065  0.5377 -0.2548
   86SLPC  H11A 8196  -0.199   5.679   2.813  1.0928  1.0424 -0.1862
   86SLPC  H11B 8197  -0.144   5.589   2.946 -1.1388  1.6749 -0.4108
   86SLPC     P 8198  -0.101   5.348   2.810  0.0031  0.0657  0.2410
   86SLPC   O13 8199  -0.031   5.283   2.698 -0.5672  0.3468  0.0980
   86SLPC   O14 8200  -0.030   5.360   2.940 -0.2293  0.0429  0.3359
   86SLPC   O12 8201  -0.143   5.487   2.752 -0.0757 -0.0985  0.7601
   86SLPC   O11 8202  -0.235   5.271   2.845  0.0591  0.1232  0.1274
   86SLPC    C1 8203  -0.354   5.329   2.895 -0.3077 -0.3449  0.1532
   86SLPC    HA 8204  -0.373   5.437   2.874  0.0252 -0.4903 -0.9364
   86SLPC    HB 8205  -0.437   5.268   2.852 -0.3798  0.1827 -0.4662
   86SLPC    C2 8206  -0.368   5.318   3.052 -0.0070 -0.2323  0.7498
   86SLPC    HS 8207  -0.322   5.413   3.087  0.3554  0.4158 -1.3638
   86SLPC   O21 8208  -0.297   5.197   3.103 -0.6723 -0.6042  0.0257
   86SLPC   C21 8209  -0.238   5.207   3.218 -0.3364 -0.1529 -0.5546
   86SLPC   O22 8210  -0.218   5.314   3.279 -0.0587 -0.1026 -0.0313
   86SLPC   C22 8211  -0.213   5.065   3.259  0.0890 -0.5687  0.1019
   86SLPC   H2R 8212  -0.317   5.029   3.266 -0.1649  0.2131  0.4683
   86SLPC   H2S 8213  -0.153   5.012   3.182  0.0382 -1.0245  0.3736
   86SLPC    C3 8214  -0.521   5.314   3.091 -0.2328 -0.1912  0.4321
   86SLPC    HX 8215  -0.569   5.227   3.041  1.4291 -1.0691  0.3239
   86SLPC    HY 8216  -0.568   5.407   3.053  1.6833  0.4261 -0.5298
   86SLPC   O31 8217  -0.526   5.303   3.236 -0.0232 -0.4785 -0.2657
   86SLPC   C31 8218  -0.530   5.407   3.312 -0.6060  0.2154  0.1885
   86SLPC   O32 8219  -0.557   5.524   3.283  0.0824  0.1167  0.6481
   86SLPC   C32 8220  -0.502   5.359   3.459 -0.1759  0.1253  0.4411
   86SLPC   H2X 8221  -0.399   5.317   3.466  1.0020  2.9522  1.7881
   86SLPC   H2Y 8222  -0.574   5.277   3.482 -1.7973  0.9146 -1.5316
   86SLPC   C23 8223  -0.143   5.049   3.399  0.5408 -0.2183  0.2148
   86SLPC   H3R 8224  -0.048   5.103   3.383 -0.0201  0.7085 -0.1167
   86SLPC   H3S 8225  -0.127   4.940   3.411 -0.2096 -0.4033 -0.3390
   86SLPC   C24 8226  -0.225   5.093   3.522  0.1666 -0.2572  0.6609
   86SLPC   H4R 8227  -0.333   5.066   3.518 -0.1388  1.0537 -1.5147
   86SLPC   H4S 8228  -0.206   5.203   3.526  0.7680 -0.3206 -0.1515
   86SLPC   C25 8229  -0.163   5.037   3.648 -0.3225  0.0704 -0.0701
   86SLPC   H5R 8230  -0.052   5.044   3.651 -0.2954 -0.3942  0.2379
   86SLPC   H5S 8231  -0.179   4.927   3.656 -1.2416  0.2318  0.4476
   86SLPC   C26 8232  -0.220   5.112   3.775 -0.8548 -0.1691 -0.6880
   86SLPC   H6R 8233  -0.331   5.112   3.785 -0.7951  0.5122  0.1082
   86SLPC   H6S 8234  -0.191   5.220   3.773  2.5652 -0.9819 -0.7678
   86SLPC   C27 8235  -0.161   5.052   3.903 -0.3933 -0.1277 -0.0567
   86SLPC   H7R 8236  -0.053   5.059   3.878 -0.8333 -2.0652 -3.0710
   86SLPC   H7S 8237  -0.193   4.947   3.919  0.3339  0.0226  2.9536
   86SLPC   C28 8238  -0.190   5.139   4.025  0.6661  0.2863  0.0999
   86SLPC   H8R 8239  -0.181   5.249   4.012  2.4047  0.2234  0.5256
   86SLPC   H8S 8240  -0.109   5.114   4.097 -1.0815  1.6068  2.7098
   86SLPC   C29 8241  -0.328   5.111   4.086 -0.5614 -0.0815 -0.2328
   86SLPC   H9R 8242  -0.413   5.100   4.018 -1.6423 -0.7309  1.1574
   86SLPC  C210 8243  -0.345   5.093   4.220 -0.2205  0.5831  0.0790
   86SLPC  H10R 8244  -0.444   5.086   4.267 -0.0234 -0.4602  0.3707
   86SLPC  C211 8245  -0.238   5.113   4.328  0.0105 -0.9285 -0.1635
   86SLPC  H11R 8246  -0.136   5.087   4.290  1.1497  2.9804 -0.2705
   86SLPC  H11S 8247  -0.258   5.033   4.402 -0.4786  1.5531  2.5671
   86SLPC  C212 8248  -0.218   5.256   4.387 -0.2382  0.2905 -0.2480
   86SLPC  H12R 8249  -0.188   5.330   4.312 -1.7012  0.1376 -1.0165
   86SLPC  C213 8250  -0.225   5.299   4.516 -0.2706  0.3149  0.5697
   86SLPC  H13R 8251  -0.203   5.406   4.526 -3.2093  1.2168 -1.4023
   86SLPC  C214 8252  -0.245   5.216   4.637  0.2921  0.2623 -0.5792
   86SLPC  H14R 8253  -0.155   5.219   4.702 -0.8098 -0.0257  1.0073
   86SLPC  H14S 8254  -0.267   5.110   4.611 -1.0583  0.5658 -0.7482
   86SLPC  C215 8255  -0.355   5.264   4.731 -0.0139 -0.1211 -0.0597
   86SLPC  H15R 8256  -0.453   5.274   4.680  0.9236  2.0179 -1.5497
   86SLPC  H15S 8257  -0.327   5.366   4.766 -2.1218  0.3006  0.5498
   86SLPC  C216 8258  -0.389   5.173   4.854  0.7970 -0.7581 -0.1105
   86SLPC  H16R 8259  -0.485   5.218   4.887  1.2647 -0.0549  0.3053
   86SLPC  H16S 8260  -0.301   5.188   4.920  0.1640  2.4983  0.1565
   86SLPC  C217 8261  -0.422   5.024   4.820  0.5438 -0.3802 -0.4180
   86SLPC  H17R 8262  -0.348   4.992   4.744  2.9002  1.5054  0.9372
   86SLPC  H17S 8263  -0.515   5.030   4.759  0.2193 -0.7471  0.0271
   86SLPC  C218 8264  -0.450   4.932   4.937 -0.6682 -0.5558  0.2006
   86SLPC  H18R 8265  -0.432   4.829   4.900  0.8084 -0.0518 -0.5811
   86SLPC  H18S 8266  -0.552   4.941   4.978  0.3880  2.9458  2.5575
   86SLPC  H18T 8267  -0.377   4.951   5.018  2.2494 -0.7795 -2.1937
   86SLPC   C33 8268  -0.503   5.477   3.567 -0.0523  0.6365  0.1497
   86SLPC   H3X 8269  -0.609   5.496   3.596 -0.4757 -0.5690 -0.5350
   86SLPC   H3Y 8270  -0.449   5.564   3.524 -1.2066  1.4916  0.3720
   86SLPC   C34 8271  -0.455   5.427   3.704 -0.0957 -0.1829 -0.0681
   86SLPC   H4X 8272  -0.344   5.418   3.703 -0.1121 -0.4820  0.5100
   86SLPC   H4Y 8273  -0.509   5.330   3.704  0.2815 -0.5310 -3.3777
   86SLPC   C35 8274  -0.488   5.517   3.823  0.4898  0.2829 -0.3130
   86SLPC   H5X 8275  -0.596   5.543   3.827  0.4155 -0.0930  0.3304
   86SLPC   H5Y 8276  -0.452   5.620   3.800  1.6322 -0.5016 -2.2772
   86SLPC   C36 8277  -0.445   5.459   3.955  0.5721 -0.9959 -0.2091
   86SLPC   H6X 8278  -0.335   5.443   3.944  0.5480  0.1812 -3.2438
   86SLPC   H6Y 8279  -0.498   5.363   3.968 -2.3350  0.3635 -1.2448
   86SLPC   C37 8280  -0.496   5.548   4.074 -0.1931 -0.9263 -0.1940
   86SLPC   H7X 8281  -0.607   5.553   4.064 -0.0348  0.3102 -1.8878
   86SLPC   H7Y 8282  -0.455   5.650   4.057  1.0607 -0.6993  3.3752
   86SLPC   C38 8283  -0.446   5.505   4.208 -0.2509 -0.6817 -0.6425
   86SLPC   H8X 8284  -0.337   5.527   4.210 -0.3584  0.4100 -3.4624
   86SLPC   H8Y 8285  -0.466   5.397   4.223  0.4133 -0.6106  1.0132
   86SLPC   C39 8286  -0.530   5.581   4.318 -0.2641 -0.0941  0.3259
   86SLPC   H9X 8287  -0.636   5.569   4.287 -0.7997  2.7307  0.8490
   86SLPC   H9Y 8288  -0.502   5.687   4.298  1.9789 -0.5809  0.5374
   86SLPC  C310 8289  -0.495   5.541   4.464  0.7386  0.3821  0.9921
   86SLPC  H10X 8290  -0.386   5.561   4.471  1.1172 -1.0400 -0.2497
   86SLPC  H10Y 8291  -0.512   5.433   4.485 -1.1254  0.8819  2.2753
   86SLPC  C311 8292  -0.563   5.626   4.569 -0.1394  0.3515  0.4355
   86SLPC  H11X 8293  -0.673   5.632   4.556 -0.1134  1.6549  0.6204
   86SLPC  H11Y 8294  -0.507   5.723   4.568  0.3190  0.1906  3.1667
   86SLPC  C312 8295  -0.532   5.590   4.718 -0.4802 -0.7096  0.4509
   86SLPC  H12X 8296  -0.422   5.604   4.723 -0.4142 -0.7238 -0.6440
   86SLPC  H12Y 8297  -0.536   5.480   4.734  1.2585 -0.9640 -0.5296
   86SLPC  C313 8298  -0.595   5.683   4.820 -0.0090 -0.0622  0.0632
   86SLPC  H13X 8299  -0.702   5.660   4.840 -0.1756 -1.0216 -1.6879
   86SLPC  H13Y 8300  -0.585   5.787   4.782  1.7562 -0.5018 -0.7675
   86SLPC  C314 8301  -0.524   5.682   4.948  0.3085 -0.4289  0.4405
   86SLPC  H14X 8302  -0.578   5.744   5.024  0.9334  0.4279  0.1945
   86SLPC  H14Y 8303  -0.423   5.726   4.958  0.0528 -0.2537  2.7961
   86SLPC  C315 8304  -0.522   5.534   4.994  0.2449  0.3233 -0.0600
   86SLPC  H15X 8305  -0.434   5.486   4.945 -0.0917  1.5332 -1.9364
   86SLPC  H15Y 8306  -0.616   5.479   4.973 -1.0783  1.7086  1.8969
   86SLPC  C316 8307  -0.502   5.522   5.148 -0.6429 -0.5361  0.2087
   86SLPC  H16X 8308  -0.560   5.590   5.214 -3.4899 -1.6117 -1.0196
   86SLPC  H16Y 8309  -0.395   5.553   5.150 -0.4530 -1.1902  0.2406
   86SLPC  C317 8310  -0.508   5.380   5.172  0.7737 -0.1454  0.6496
   86SLPC  H17X 8311  -0.439   5.328   5.102 -0.5627  1.0427 -1.7088
   86SLPC  H17Y 8312  -0.610   5.348   5.142 -0.4482  4.9307 -1.6681
   86SLPC  C318 8313  -0.461   5.342   5.318  0.3062 -0.1066  0.0465
   86SLPC  H18X 8314  -0.461   5.231   5.323  0.8763 -0.2928 -2.6107
   86SLPC  H18Y 8315  -0.541   5.393   5.375 -0.6809  0.0369 -1.4187
   86SLPC  H18Z 8316  -0.363   5.390   5.340  0.2119  0.6078 -1.0421
   87SLPC     N 8317   5.546   5.461   2.591 -0.3455  0.1631  0.0787
   87SLPC   C13 8318   5.558   5.498   2.739 -0.3507  0.7032  0.0577
   87SLPC  H13A 8319   5.582   5.414   2.801 -1.4130 -0.3234 -0.8797
   87SLPC  H13B 8320   5.635   5.574   2.744 -0.1303  0.4266  0.9058
   87SLPC  H13C 8321   5.465   5.538   2.776  0.5342 -0.2315  3.6288
   87SLPC   C14 8322   5.671   5.419   2.532  0.3097 -0.2082  0.7862
   87SLPC  H14A 8323   5.663   5.383   2.431 -0.5015 -1.0405  1.1336
   87SLPC  H14B 8324   5.737   5.505   2.533 -0.9469  0.8149  0.1668
   87SLPC  H14C 8325   5.729   5.353   2.594  0.0856  0.5278  1.8274
   87SLPC   C15 8326   5.479   5.570   2.510 -0.6179  0.3657 -0.5400
   87SLPC  H15A 8327   5.469   5.543   2.406  0.5843  1.8892 -1.0876
   87SLPC  H15B 8328   5.381   5.596   2.550 -0.4055  0.7595 -0.2643
   87SLPC  H15C 8329   5.546   5.654   2.519 -0.5710  0.2476  0.3223
   87SLPC   C12 8330   5.444   5.342   2.589  0.7545  0.5754 -0.6211
   87SLPC  H12A 8331   5.471   5.268   2.663  0.0128  1.6474  0.7748
   87SLPC  H12B 8332   5.451   5.295   2.492 -1.9735  1.6245 -1.4133
   87SLPC   C11 8333   5.294   5.368   2.618 -0.1743  0.4593  0.2403
   87SLPC  H11A 8334   5.236   5.274   2.602 -0.5893  0.5085  1.3501
   87SLPC  H11B 8335   5.243   5.430   2.541 -2.5817 -1.2249  0.3340
   87SLPC     P 8336   5.118   5.446   2.788  0.1831  0.0076  0.1134
   87SLPC   O13 8337   5.060   5.524   2.680 -0.0754 -0.1102 -0.5812
   87SLPC   O14 8338   5.034   5.329   2.823 -0.1017 -0.6010  0.3510
   87SLPC   O12 8339   5.264   5.407   2.748  0.2461 -0.0144 -0.0046
   87SLPC   O11 8340   5.134   5.539   2.919  0.7557 -0.4137 -0.6892
   87SLPC    C1 8341   5.255   5.560   2.993  0.0929  0.4057  0.1995
   87SLPC    HA 8342   5.345   5.548   2.929  1.5279 -1.8433  2.4549
   87SLPC    HB 8343   5.252   5.659   3.045 -0.6896 -0.3186  1.6035
   87SLPC    C2 8344   5.255   5.465   3.112  0.9436  0.1836 -0.1370
   87SLPC    HS 8345   5.242   5.361   3.074  0.4149 -0.1951  1.0536
   87SLPC   O21 8346   5.140   5.498   3.198  0.5469  0.0608 -0.0568
   87SLPC   C21 8347   5.095   5.405   3.280  0.2906  0.1229  0.1623
   87SLPC   O22 8348   5.143   5.297   3.307  0.5937 -0.0632 -0.1720
   87SLPC   C22 8349   4.972   5.461   3.348  0.2125  0.5772  0.0598
   87SLPC   H2R 8350   4.963   5.571   3.332 -0.8158  0.3181 -1.4617
   87SLPC   H2S 8351   4.884   5.417   3.296  0.1852  0.0856  0.5254
   87SLPC    C3 8352   5.386   5.458   3.203  0.2125 -0.3955 -0.4792
   87SLPC    HX 8353   5.467   5.448   3.128 -0.9782  0.4286 -1.9342
   87SLPC    HY 8354   5.381   5.368   3.267  0.9685  0.2628  0.5330
   87SLPC   O31 8355   5.391   5.585   3.283 -0.0516  0.0909  0.0883
   87SLPC   C31 8356   5.495   5.574   3.371  0.1707  0.3770 -0.2191
   87SLPC   O32 8357   5.577   5.486   3.375 -0.4679 -0.2626 -0.4142
   87SLPC   C32 8358   5.489   5.701   3.463  0.3925 -0.3860  0.3585
   87SLPC   H2X 8359   5.387   5.718   3.504  0.5161 -3.6651  2.4142
   87SLPC   H2Y 8360   5.523   5.798   3.421 -1.0402 -0.1472 -0.2942
   87SLPC   C23 8361   4.981   5.439   3.495  0.4608 -0.3482 -0.2166
   87SLPC   H3R 8362   5.017   5.337   3.522  0.2828  0.1821  2.2950
   87SLPC   H3S 8363   4.877   5.445   3.533  0.6385  1.2208  0.0753
   87SLPC   C24 8364   5.074   5.533   3.577 -0.2167 -0.4926 -0.1385
   87SLPC   H4R 8365   5.060   5.641   3.555  0.2290 -0.0842  1.4793
   87SLPC   H4S 8366   5.177   5.514   3.539  0.1236 -2.8209  1.7236
   87SLPC   C25 8367   5.074   5.499   3.724  0.2712  0.0807  0.2831
   87SLPC   H5R 8368   5.092   5.390   3.737  3.3433  0.6282  1.5337
   87SLPC   H5S 8369   4.970   5.523   3.758 -0.0201  0.7023 -1.0068
   87SLPC   C26 8370   5.189   5.562   3.801  0.0806 -1.3147  0.6225
   87SLPC   H6R 8371   5.198   5.671   3.781 -0.5775 -1.5827 -1.4722
   87SLPC   H6S 8372   5.290   5.521   3.778  0.6195 -1.3946  2.9203
   87SLPC   C27 8373   5.182   5.528   3.948 -0.6509 -0.2580  0.2396
   87SLPC   H7R 8374   5.285   5.537   3.988 -0.0700  1.0542 -1.4162
   87SLPC   H7S 8375   5.161   5.419   3.958  0.2084 -0.5323 -0.8475
   87SLPC   C28 8376   5.075   5.602   4.030 -0.6827 -0.0527 -0.6347
   87SLPC   H8R 8377   5.033   5.542   4.113 -2.3028  0.4574 -1.0532
   87SLPC   H8S 8378   4.989   5.627   3.965 -2.2696 -0.5435  1.1696
   87SLPC   C29 8379   5.135   5.727   4.093  0.1502 -0.5661  0.5370
   87SLPC   H9R 8380   5.126   5.815   4.029  1.8098 -0.7502  0.0209
   87SLPC  C210 8381   5.199   5.744   4.211  0.6484  0.4675 -0.2474
   87SLPC  H10R 8382   5.218   5.847   4.245  3.0625  0.7809 -2.2123
   87SLPC  C211 8383   5.224   5.640   4.314  0.1858 -0.7889 -0.0871
   87SLPC  H11R 8384   5.230   5.539   4.267 -0.2558 -1.2264  0.7704
   87SLPC  H11S 8385   5.139   5.641   4.386 -0.3696 -1.9651 -0.6878
   87SLPC  C212 8386   5.357   5.662   4.389  0.0533  0.1344  0.4988
   87SLPC  H12R 8387   5.440   5.593   4.366 -0.2177 -0.2410  0.6289
   87SLPC  C213 8388   5.384   5.749   4.478 -0.2988  0.1255 -0.7984
   87SLPC  H13R 8389   5.485   5.758   4.522 -0.8778  0.9279  0.4454
   87SLPC  C214 8390   5.296   5.851   4.532  0.6853  0.0719 -0.8660
   87SLPC  H14R 8391   5.196   5.851   4.483  0.9401 -0.9903 -1.4109
   87SLPC  H14S 8392   5.346   5.946   4.504  1.6984 -0.0306  0.4953
   87SLPC  C215 8393   5.272   5.862   4.684 -0.5094 -0.3993 -0.3513
   87SLPC  H15R 8394   5.219   5.958   4.696 -1.5988 -0.5584 -3.0478
   87SLPC  H15S 8395   5.367   5.857   4.742 -0.4092 -0.3796 -0.5127
   87SLPC  C216 8396   5.183   5.752   4.739 -0.5538  0.1503 -0.5453
   87SLPC  H16R 8397   5.159   5.788   4.842 -1.9172 -1.0653 -0.3941
   87SLPC  H16S 8398   5.246   5.661   4.744 -0.4889  0.0692 -2.3611
   87SLPC  C217 8399   5.042   5.728   4.677 -0.2569  0.2810 -0.6325
   87SLPC  H17R 8400   5.041   5.742   4.567  1.9730  0.6780 -0.6516
   87SLPC  H17S 8401   4.970   5.806   4.709  1.5380  1.9575 -0.4495
   87SLPC  C218 8402   4.998   5.583   4.710 -0.4009  0.7292  0.4278
   87SLPC  H18R 8403   5.078   5.507   4.699 -2.8363 -1.9638 -0.0585
   87SLPC  H18S 8404   4.913   5.543   4.651  0.1273 -0.1668  0.2570
   87SLPC  H18T 8405   4.978   5.579   4.819 -0.0354 -0.9947  0.4674
   87SLPC   C33 8406   5.583   5.687   3.587 -0.1228  0.4314 -0.4554
   87SLPC   H3X 8407   5.685   5.652   3.559  1.5675  2.4499  2.5380
   87SLPC   H3Y 8408   5.537   5.610   3.652 -0.1097  2.3882  2.0245
   87SLPC   C34 8409   5.587   5.813   3.676  0.0971 -0.0826 -0.2681
   87SLPC   H4X 8410   5.485   5.851   3.702 -0.1205  1.4389 -2.9435
   87SLPC   H4Y 8411   5.646   5.888   3.619  0.1361  0.7697  0.8734
   87SLPC   C35 8412   5.652   5.782   3.813 -0.2836 -0.9193  0.0950
   87SLPC   H5X 8413   5.757   5.817   3.806 -0.6236 -0.2178 -3.4478
   87SLPC   H5Y 8414   5.649   5.676   3.847  1.7529 -1.3650 -0.9768
   87SLPC   C36 8415   5.570   5.885   3.912 -0.0659  0.1453  0.4862
   87SLPC   H6X 8416   5.470   5.837   3.920 -1.4070  2.7197  0.0287
   87SLPC   H6Y 8417   5.563   5.980   3.856  0.2281 -0.0454  0.1233
   87SLPC   C37 8418   5.634   5.905   4.048 -0.2388  0.6105  0.2224
   87SLPC   H7X 8419   5.573   5.986   4.093 -1.2961  0.8662 -1.5886
   87SLPC   H7Y 8420   5.739   5.941   4.040  1.0294 -2.8885 -0.7657
   87SLPC   C38 8421   5.621   5.783   4.141  0.1594 -0.0362 -0.1944
   87SLPC   H8X 8422   5.664   5.691   4.096  0.4592  0.0613 -0.1098
   87SLPC   H8Y 8423   5.515   5.770   4.170  0.3989  2.1769  1.9913
   87SLPC   C39 8424   5.708   5.807   4.269 -0.1849  0.1202  0.1215
   87SLPC   H9X 8425   5.814   5.832   4.243  0.0963 -0.8179  0.3115
   87SLPC   H9Y 8426   5.701   5.716   4.333 -0.9285 -0.4453 -0.7374
   87SLPC  C310 8427   5.657   5.923   4.356  0.3837 -0.2434 -0.0971
   87SLPC  H10X 8428   5.547   5.910   4.362  0.4703 -2.0505 -1.5104
   87SLPC  H10Y 8429   5.672   6.014   4.295 -2.5175 -0.8300 -1.8810
   87SLPC  C311 8430   5.724   5.944   4.493  0.5768  0.9028 -0.2827
   87SLPC  H11X 8431   5.832   5.915   4.489  0.3058 -0.0885 -3.3243
   87SLPC  H11Y 8432   5.675   5.864   4.553  2.0123  0.0937 -0.1425
   87SLPC  C312 8433   5.693   6.085   4.551  0.7210 -0.0061 -0.6829
   87SLPC  H12X 8434   5.709   6.165   4.476 -1.7810  0.0109 -1.2802
   87SLPC  H12Y 8435   5.764   6.095   4.636  0.4459 -2.2569 -0.1214
   87SLPC  C313 8436   5.564   6.093   4.631  0.3405 -0.2328 -0.2567
   87SLPC  H13X 8437   5.575   6.020   4.713 -0.6509 -0.9084 -0.7010
   87SLPC  H13Y 8438   5.470   6.072   4.574 -0.6157  1.6866  0.5076
   87SLPC  C314 8439   5.548   6.228   4.695 -0.0342 -0.8730 -0.3001
   87SLPC  H14X 8440   5.529   6.305   4.617 -1.3153  1.9078  2.4857
   87SLPC  H14Y 8441   5.622   6.255   4.773 -0.6023 -1.4325  0.4448
   87SLPC  C315 8442   5.410   6.235   4.778  0.5067  0.3741 -0.2291
   87SLPC  H15X 8443   5.422   6.159   4.858  2.2289  1.1490  0.3061
   87SLPC  H15Y 8444   5.336   6.180   4.717 -1.7540  2.0195  0.8665
   87SLPC  C316 8445   5.372   6.374   4.831  0.4037  0.1162 -0.5001
   87SLPC  H16X 8446   5.308   6.415   4.749  0.5398  0.4259 -0.4525
   87SLPC  H16Y 8447   5.458   6.444   4.838  0.1465  0.7626 -2.7594
   87SLPC  C317 8448   5.306   6.375   4.964  0.1609 -0.7606 -0.4060
   87SLPC  H17X 8449   5.371   6.356   5.052  0.2389 -0.9681 -0.5091
   87SLPC  H17Y 8450   5.254   6.277   4.961  1.4274 -1.5422  1.5140
   87SLPC  C318 8451   5.216   6.491   4.986 -0.2090  0.0471  0.5059
   87SLPC  H18X 8452   5.130   6.480   4.917  0.4991 -0.1171 -0.3850
   87SLPC  H18Y 8453   5.259   6.592   4.970  1.7951 -0.4644  2.1268
   87SLPC  H18Z 8454   5.166   6.488   5.085 -0.6758  0.0462  0.2702
   88SLPC     N 8455   4.034   1.016   2.551  0.7212  0.1431 -0.1639
   88SLPC   C13 8456   3.887   1.032   2.529  0.2147 -0.3203 -0.2176
   88SLPC  H13A 8457   3.836   0.937   2.531 -1.3568  0.5033  0.5308
   88SLPC  H13B 8458   3.840   1.089   2.608 -0.7553  0.8031 -1.5522
   88SLPC  H13C 8459   3.854   1.079   2.437 -1.1647 -1.9622 -0.6183
   88SLPC   C14 8460   4.095   1.156   2.560 -0.5953  0.3764 -0.3383
   88SLPC  H14A 8461   4.203   1.149   2.562 -0.5603  0.8947  0.7153
   88SLPC  H14B 8462   4.067   1.219   2.477  1.2838  1.7747  0.0160
   88SLPC  H14C 8463   4.047   1.207   2.642 -0.5326 -0.3373  0.1507
   88SLPC   C15 8464   4.083   0.948   2.430 -0.0397  0.4249  0.3746
   88SLPC  H15A 8465   4.190   0.936   2.437  0.1523  0.9875 -1.0951
   88SLPC  H15B 8466   4.047   0.849   2.408 -0.2088  0.5754 -0.0345
   88SLPC  H15C 8467   4.086   1.008   2.340 -1.3546 -1.7003 -1.1878
   88SLPC   C12 8468   4.042   0.933   2.683 -0.1516  0.1965  0.3235
   88SLPC  H12A 8469   3.980   0.847   2.661  0.1082  0.4988 -1.7111
   88SLPC  H12B 8470   4.001   0.991   2.765  0.6012  2.1732 -0.6489
   88SLPC   C11 8471   4.182   0.877   2.722 -0.8996 -0.5209  0.1433
   88SLPC  H11A 8472   4.215   0.818   2.634 -0.4583 -1.5073  0.9560
   88SLPC  H11B 8473   4.177   0.806   2.807 -1.2203  0.3176  0.8444
   88SLPC     P 8474   4.302   1.059   2.884  0.2929  0.0457  0.1526
   88SLPC   O13 8475   4.444   1.073   2.905 -0.5651  0.5732 -0.2729
   88SLPC   O14 8476   4.227   1.182   2.885 -0.1142 -0.2222 -0.5164
   88SLPC   O12 8477   4.274   0.982   2.747 -0.4814  0.4035 -0.1494
   88SLPC   O11 8478   4.245   0.966   2.993 -0.5482  0.6130 -0.2044
   88SLPC    C1 8479   4.119   0.971   3.051 -0.2755  0.8286 -1.0564
   88SLPC    HA 8480   4.037   0.999   2.982 -1.0233  4.0943  0.9711
   88SLPC    HB 8481   4.091   0.865   3.073 -0.6335  1.0465 -0.4573
   88SLPC    C2 8482   4.106   1.066   3.172  0.0309  1.5045 -0.1268
   88SLPC    HS 8483   4.134   1.170   3.145 -0.2245  1.5764 -0.1138
   88SLPC   O21 8484   4.204   1.015   3.267  0.9558 -0.2418  0.7732
   88SLPC   C21 8485   4.263   1.111   3.347 -0.3330 -0.3295  1.1493
   88SLPC   O22 8486   4.248   1.230   3.346  0.2590 -0.1061 -0.3696
   88SLPC   C22 8487   4.351   1.042   3.436 -0.7597 -0.1943 -0.2007
   88SLPC   H2R 8488   4.433   0.992   3.382 -0.3180  1.2218 -0.8979
   88SLPC   H2S 8489   4.399   1.130   3.485 -1.2935 -0.6866  1.2701
   88SLPC    C3 8490   3.960   1.070   3.227  0.0706  0.1235 -0.2295
   88SLPC    HX 8491   3.928   0.968   3.259 -0.3717 -0.6567 -2.8726
   88SLPC    HY 8492   3.888   1.103   3.150 -2.6412 -0.2046  1.9913
   88SLPC   O31 8493   3.945   1.163   3.338 -0.1903 -0.7815 -0.5336
   88SLPC   C31 8494   3.951   1.291   3.317  0.3384 -0.6622 -0.1629
   88SLPC   O32 8495   3.969   1.339   3.207 -0.3942  0.2288  0.1000
   88SLPC   C32 8496   3.932   1.371   3.441 -0.0486  0.2315  0.2529
   88SLPC   H2X 8497   3.826   1.401   3.451  0.4156  2.2827 -0.5205
   88SLPC   H2Y 8498   3.991   1.465   3.439  0.9203 -0.0768  4.3652
   88SLPC   C23 8499   4.286   0.951   3.551  0.2895 -0.0251  0.0383
   88SLPC   H3R 8500   4.228   0.871   3.499  1.1429 -0.4576 -0.2798
   88SLPC   H3S 8501   4.223   1.018   3.612 -0.5555 -1.9126  1.3453
   88SLPC   C24 8502   4.389   0.895   3.647  0.3212 -0.3375  0.4198
   88SLPC   H4R 8503   4.454   0.970   3.697 -0.1741  0.1394  0.3484
   88SLPC   H4S 8504   4.467   0.834   3.597  1.7942  0.8424  1.1831
   88SLPC   C25 8505   4.329   0.814   3.766  0.3087  0.0011  0.4917
   88SLPC   H5R 8506   4.241   0.755   3.732  0.3810 -0.2076  0.6720
   88SLPC   H5S 8507   4.287   0.888   3.837  1.5861  1.3933 -0.1431
   88SLPC   C26 8508   4.432   0.724   3.841 -0.4537  0.0731 -0.1744
   88SLPC   H6R 8509   4.513   0.791   3.878 -0.3716  0.6187 -1.3035
   88SLPC   H6S 8510   4.476   0.646   3.776 -1.6159 -0.4176 -0.3967
   88SLPC   C27 8511   4.360   0.648   3.953 -0.4541 -0.2679  0.5238
   88SLPC   H7R 8512   4.413   0.585   4.028 -3.4593 -3.0357  0.5339
   88SLPC   H7S 8513   4.294   0.571   3.910 -2.9950  1.5820  0.9157
   88SLPC   C28 8514   4.250   0.725   4.038  0.4089  0.0790  0.1720
   88SLPC   H8R 8515   4.206   0.644   4.101 -0.5363  0.9200  0.6246
   88SLPC   H8S 8516   4.175   0.779   3.976 -0.0415  0.7678  1.2889
   88SLPC   C29 8517   4.302   0.825   4.136 -0.1955  0.0901  0.2253
   88SLPC   H9R 8518   4.393   0.880   4.108  0.0681 -0.3056  0.3001
   88SLPC  C210 8519   4.248   0.834   4.262 -0.2249 -0.6345 -1.0719
   88SLPC  H10R 8520   4.298   0.903   4.332 -1.5651 -2.5573  2.0135
   88SLPC  C211 8521   4.127   0.761   4.310 -0.2648 -0.1797  0.4055
   88SLPC  H11R 8522   4.160   0.668   4.361 -0.5054 -0.7169 -0.3905
   88SLPC  H11S 8523   4.065   0.729   4.224  1.0063  0.8612 -0.9589
   88SLPC  C212 8524   4.038   0.848   4.397  0.1825 -0.0389 -0.0475
   88SLPC  H12R 8525   4.034   0.952   4.360  0.0084  0.0773  0.3032
   88SLPC  C213 8526   3.973   0.809   4.504  0.7732  0.3083  0.1347
   88SLPC  H13R 8527   3.908   0.876   4.561 -0.4482 -1.3487  0.7682
   88SLPC  C214 8528   3.969   0.677   4.570 -0.0001  0.6285  0.7048
   88SLPC  H14R 8529   4.022   0.678   4.668  3.1323 -0.9115 -0.8069
   88SLPC  H14S 8530   4.027   0.602   4.510 -0.9137 -1.4402  2.2742
   88SLPC  C215 8531   3.829   0.625   4.603  0.4003  0.7362  0.1008
   88SLPC  H15R 8532   3.785   0.582   4.510 -0.7047  4.0415 -1.0663
   88SLPC  H15S 8533   3.758   0.710   4.617 -2.2301 -1.3649  0.4405
   88SLPC  C216 8534   3.811   0.525   4.720 -0.1260  0.3747  0.4158
   88SLPC  H16R 8535   3.851   0.576   4.810 -1.9837  0.9259  0.9858
   88SLPC  H16S 8536   3.874   0.435   4.702  1.1071  1.3686 -0.3838
   88SLPC  C217 8537   3.661   0.489   4.756 -0.3965 -0.3610  0.5990
   88SLPC  H17R 8538   3.616   0.419   4.682 -0.2459  0.5291 -0.3608
   88SLPC  H17S 8539   3.598   0.580   4.744  0.3677  0.2213  0.9272
   88SLPC  C218 8540   3.642   0.435   4.892  0.0188  0.6739 -0.1645
   88SLPC  H18R 8541   3.532   0.418   4.902  0.1216  0.3550  0.4672
   88SLPC  H18S 8542   3.680   0.497   4.976 -0.5310  0.7624  0.0234
   88SLPC  H18T 8543   3.689   0.335   4.898 -0.6115  0.4508  2.2705
   88SLPC   C33 8544   3.968   1.291   3.567  0.0142  0.1787  0.0173
   88SLPC   H3X 8545   4.067   1.242   3.557 -0.2386 -0.5369  0.9990
   88SLPC   H3Y 8546   3.890   1.214   3.579 -0.2845  0.4905  0.0735
   88SLPC   C34 8547   3.950   1.357   3.702  0.3989 -0.3026 -0.2863
   88SLPC   H4X 8548   3.845   1.390   3.713  0.7258  0.2104  1.7587
   88SLPC   H4Y 8549   4.002   1.455   3.709  1.4390 -0.9107  0.8701
   88SLPC   C35 8550   3.997   1.265   3.820  0.5151 -0.3798  0.4921
   88SLPC   H5X 8551   4.098   1.233   3.786 -1.0735 -2.9337 -2.3569
   88SLPC   H5Y 8552   3.925   1.180   3.824 -3.0367  1.9742 -3.9900
   88SLPC   C36 8553   4.015   1.335   3.951  0.0271 -0.2971 -0.6079
   88SLPC   H6X 8554   3.913   1.367   3.981 -0.4175  0.8288 -3.0869
   88SLPC   H6Y 8555   4.080   1.425   3.942 -1.7828  1.1023 -0.2275
   88SLPC   C37 8556   4.075   1.247   4.061 -0.2366 -0.2132  0.5151
   88SLPC   H7X 8557   4.152   1.183   4.014  1.1039  2.6906 -1.5697
   88SLPC   H7Y 8558   3.999   1.172   4.092 -1.0786 -0.1465 -1.2771
   88SLPC   C38 8559   4.143   1.330   4.173  0.0270 -0.7261  0.1204
   88SLPC   H8X 8560   4.071   1.409   4.203  0.1117 -0.5314 -0.1819
   88SLPC   H8Y 8561   4.226   1.391   4.132 -0.1113  0.5610  1.6765
   88SLPC   C39 8562   4.187   1.253   4.292 -0.5108 -0.0096  0.4671
   88SLPC   H9X 8563   4.274   1.187   4.273  0.2583  0.6323  1.6129
   88SLPC   H9Y 8564   4.107   1.186   4.328 -0.8886 -0.0437 -0.4091
   88SLPC  C310 8565   4.220   1.325   4.418 -0.1231 -0.1249  0.4902
   88SLPC  H10X 8566   4.123   1.360   4.459 -0.2645 -1.5143  1.3704
   88SLPC  H10Y 8567   4.285   1.414   4.401  0.9143 -0.9031  0.3188
   88SLPC  C311 8568   4.295   1.251   4.529 -0.2803 -0.4640  0.0284
   88SLPC  H11X 8569   4.305   1.329   4.607  3.4378 -0.1365 -0.5996
   88SLPC  H11Y 8570   4.396   1.214   4.503 -0.0204  1.3394 -1.8678
   88SLPC  C312 8571   4.217   1.140   4.594  0.9431 -0.0122  0.5476
   88SLPC  H12X 8572   4.210   1.050   4.529  0.1036  0.4299  0.0124
   88SLPC  H12Y 8573   4.116   1.177   4.618  1.0848  1.8102 -1.3924
   88SLPC  C313 8574   4.283   1.114   4.730  0.4340  0.4888  0.0348
   88SLPC  H13X 8575   4.230   1.027   4.776  2.0715 -1.1600 -1.0439
   88SLPC  H13Y 8576   4.286   1.209   4.787  1.5832  1.2123 -1.1777
   88SLPC  C314 8577   4.427   1.058   4.710  0.1274 -0.8520  0.0902
   88SLPC  H14X 8578   4.472   1.035   4.809  0.3184  0.3800  0.2988
   88SLPC  H14Y 8579   4.489   1.148   4.693 -1.6153  0.5054  0.7355
   88SLPC  C315 8580   4.452   0.953   4.599 -0.2658 -0.1196 -0.4629
   88SLPC  H15X 8581   4.471   1.001   4.500  1.0763 -0.5397 -0.4229
   88SLPC  H15Y 8582   4.360   0.890   4.600  1.1015 -2.2271 -0.6200
   88SLPC  C316 8583   4.562   0.849   4.624  0.4507 -0.1109  0.5047
   88SLPC  H16X 8584   4.665   0.888   4.636  1.3726 -2.4485  0.7225
   88SLPC  H16Y 8585   4.561   0.765   4.552 -2.2134  0.2313  0.0587
   88SLPC  C317 8586   4.549   0.758   4.754 -0.0283  0.4141  0.2103
   88SLPC  H17X 8587   4.446   0.717   4.749  1.3604 -3.6070  0.7937
   88SLPC  H17Y 8588   4.572   0.821   4.843  0.1859  1.4221 -0.5400
   88SLPC  C318 8589   4.644   0.637   4.738  0.2585 -0.1064  0.1032
   88SLPC  H18X 8590   4.588   0.554   4.787 -2.9863  0.9078 -1.6118
   88SLPC  H18Y 8591   4.740   0.662   4.789 -0.4906  0.2649  1.3679
   88SLPC  H18Z 8592   4.665   0.619   4.630 -0.2775  0.3810 -0.0831
   89SAPE     N 8593   3.050   1.068   7.544 -0.0816 -0.1027 -0.3033
   89SAPE   HN1 8594   3.116   1.123   7.486 -0.2327  1.0606  0.6088
   89SAPE   HN2 8595   2.993   1.125   7.608 -0.2468  2.4767 -2.5700
   89SAPE   HN3 8596   3.109   1.001   7.598  1.9699 -1.5774 -3.9867
   89SAPE   C12 8597   2.962   0.988   7.457  0.2869  0.8717 -0.2664
   89SAPE  H12A 8598   2.861   0.993   7.503  0.3449 -2.6107  0.4971
   89SAPE  H12B 8599   2.992   0.881   7.457  0.5324  0.8356 -3.2978
   89SAPE   C11 8600   2.965   1.033   7.311  0.3643 -0.7110  0.6184
   89SAPE  H11A 8601   2.933   1.139   7.306  0.7596 -0.6312 -0.5193
   89SAPE  H11B 8602   2.881   0.980   7.260 -1.6065  1.2509  1.6605
   89SAPE     P 8603   3.161   0.902   7.187 -0.0837  0.2442  0.2108
   89SAPE   O13 8604   3.271   0.965   7.112 -0.9052 -0.1480 -0.0522
   89SAPE   O14 8605   3.202   0.802   7.283 -0.0590  0.2135 -0.6951
   89SAPE   O12 8606   3.088   1.021   7.248  0.3233  0.1812  0.1341
   89SAPE   O11 8607   3.054   0.842   7.084  0.3131 -0.5145  0.8569
   89SAPE    C1 8608   2.970   0.935   7.007 -0.7666 -0.0568 -0.1563
   89SAPE    HA 8609   2.874   0.894   6.969 -0.4870  1.7343 -3.1987
   89SAPE    HB 8610   2.941   1.029   7.058 -0.7795  1.3386 -2.5404
   89SAPE    C2 8611   3.052   0.990   6.883 -0.3718  0.0582  0.6867
   89SAPE    HS 8612   3.136   1.055   6.919 -0.6477  1.4834 -1.0761
   89SAPE   O21 8613   2.950   1.064   6.807 -0.4732 -0.1184  0.0651
   89SAPE   C21 8614   2.967   1.197   6.775 -0.3413 -0.1445 -0.2192
   89SAPE   O22 8615   3.066   1.263   6.802 -0.0570 -0.1615  0.2409
   89SAPE   C22 8616   2.834   1.252   6.727 -0.2885  0.2183 -0.2478
   89SAPE   H2R 8617   2.773   1.167   6.688  0.5200 -0.0361 -0.9789
   89SAPE   H2S 8618   2.778   1.287   6.816  0.2085 -2.3871  1.1843
   89SAPE    C3 8619   3.104   0.880   6.790 -0.2989  0.0367 -0.6331
   89SAPE    HX 8620   3.023   0.805   6.787  0.5339 -0.8533 -1.2524
   89SAPE    HY 8621   3.189   0.823   6.833  0.7625 -0.3428 -3.0770
   89SAPE   O31 8622   3.116   0.914   6.656  0.0953 -0.2546  0.8159
   89SAPE   C31 8623   3.236   0.958   6.618 -0.0916  0.7234 -0.5366
   89SAPE   O32 8624   3.337   0.968   6.692 -0.5965  0.2690  0.3852
   89SAPE   C32 8625   3.230   1.009   6.472  0.4318 -0.8242  0.4029
   89SAPE   H2X 8626   3.167   1.100   6.468  0.7126 -0.6689 -1.9054
   89SAPE   H2Y 8627   3.177   0.937   6.405 -0.9460  0.6370 -0.1621
   89SAPE   C23 8628   2.852   1.378   6.637 -0.0476  0.0885  0.1890
   89SAPE   H3R 8629   2.904   1.454   6.699  3.3411 -1.6545 -0.3013
   89SAPE   H3S 8630   2.752   1.424   6.623  0.0758  0.7977  1.4713
   89SAPE   C24 8631   2.923   1.349   6.508 -0.5445  0.5148  0.0529
   89SAPE   H4R 8632   2.874   1.257   6.468  0.6827  0.7105 -2.0360
   89SAPE   H4S 8633   3.030   1.324   6.523 -0.5859 -0.7967 -1.4565
   89SAPE   C25 8634   2.903   1.463   6.416  0.0914  0.2819  0.5059
   89SAPE   H5R 8635   2.918   1.566   6.453  1.8777  0.5540 -0.8533
   89SAPE   C26 8636   2.870   1.453   6.284  0.3054 -0.4950 -0.5842
   89SAPE   H6R 8637   2.861   1.548   6.228  0.6607  0.0346  0.2297
   89SAPE   C27 8638   2.848   1.335   6.196  0.7308  0.0617  0.4928
   89SAPE   H7R 8639   2.804   1.370   6.100 -1.9723 -2.0945  0.8141
   89SAPE   H7S 8640   2.775   1.269   6.247 -0.1534  0.6044 -0.0384
   89SAPE   C28 8641   2.978   1.259   6.164 -0.2890  0.4606 -0.3770
   89SAPE   H8R 8642   3.008   1.213   6.260 -5.3262 -0.3800  1.0596
   89SAPE   C29 8643   3.028   1.220   6.046 -0.3430 -0.6081  0.2309
   89SAPE   H9R 8644   3.129   1.178   6.053  0.1610  0.6620  1.1827
   89SAPE  C210 8645   2.981   1.263   5.908  0.3881 -0.2670  0.0040
   89SAPE  H10R 8646   2.873   1.283   5.891  0.2896 -1.1558 -0.4398
   89SAPE  H10S 8647   3.006   1.175   5.846 -0.7489 -0.4332 -0.2262
   89SAPE  C211 8648   3.068   1.371   5.851 -0.2982 -0.0069 -0.3487
   89SAPE  H11R 8649   3.066   1.474   5.889  1.2450 -0.3885  0.8511
   89SAPE  C212 8650   3.168   1.357   5.758  0.4061 -0.2527 -0.5377
   89SAPE  H12R 8651   3.207   1.449   5.714  0.8468 -0.4960 -0.6565
   89SAPE  C213 8652   3.206   1.226   5.691 -0.2956  0.3566  0.0577
   89SAPE  H13R 8653   3.198   1.137   5.758 -1.8146 -0.0250 -0.5671
   89SAPE  H13S 8654   3.312   1.240   5.662  0.2191 -0.8240  1.2771
   89SAPE  C214 8655   3.121   1.190   5.569  0.2923  0.3883 -1.0132
   89SAPE  H14R 8656   3.043   1.115   5.589  1.5363 -1.0507 -1.3493
   89SAPE  C215 8657   3.119   1.252   5.447 -0.4043  0.4767  0.3340
   89SAPE  H15R 8658   3.040   1.212   5.382 -1.0219  1.5206  0.4306
   89SAPE  C216 8659   3.200   1.365   5.397 -0.5797 -0.1156 -0.0696
   89SAPE  H16R 8660   3.262   1.402   5.482 -0.1543 -1.2395  0.1331
   89SAPE  H16S 8661   3.124   1.439   5.365 -1.9645 -1.1951  0.6434
   89SAPE  C217 8662   3.282   1.328   5.267 -0.2522 -0.7378 -0.0144
   89SAPE  H17R 8663   3.219   1.260   5.205 -1.9259  0.7860 -0.0722
   89SAPE  H17S 8664   3.372   1.272   5.300 -0.0750 -1.5378 -1.7438
   89SAPE  C218 8665   3.314   1.449   5.168  0.3463  0.7002 -0.2024
   89SAPE  H18R 8666   3.356   1.533   5.228  0.9905  0.1804  0.0765
   89SAPE  H18S 8667   3.217   1.475   5.119  0.4077 -1.2162 -1.4103
   89SAPE  C219 8668   3.416   1.404   5.065 -0.1182 -0.1495 -1.0586
   89SAPE  H19R 8669   3.493   1.338   5.110  1.2834  1.5135 -0.9277
   89SAPE  H19S 8670   3.475   1.491   5.031  2.0655 -1.5465 -1.0066
   89SAPE  C220 8671   3.344   1.335   4.947  0.4587 -0.1973 -0.3659
   89SAPE  H20R 8672   3.401   1.277   4.872 -0.5011 -1.4837 -0.1330
   89SAPE  H20S 8673   3.262   1.397   4.906  0.8419  0.2210 -0.5152
   89SAPE  H20T 8674   3.298   1.246   4.995 -0.8378 -0.2660 -1.6959
   89SAPE   C33 8675   3.361   1.068   6.421 -0.1223  0.1187  0.4219
   89SAPE   H3X 8676   3.405   1.130   6.502  0.0231 -2.1061  2.1614
   89SAPE   H3Y 8677   3.335   1.130   6.333 -1.9452 -1.3583 -0.1465
   89SAPE   C34 8678   3.450   0.955   6.360  0.1737  0.0837 -0.6142
   89SAPE   H4X 8679   3.398   0.907   6.274  2.1638 -0.3388 -1.6279
   89SAPE   H4Y 8680   3.451   0.876   6.438 -0.9955  0.4920 -0.1569
   89SAPE   C35 8681   3.586   1.007   6.321  0.3845 -0.3466 -0.0937
   89SAPE   H5X 8682   3.642   1.036   6.413 -0.2496 -1.0796  0.5362
   89SAPE   H5Y 8683   3.564   1.095   6.256 -0.7266 -0.6179 -0.1156
   89SAPE   C36 8684   3.682   0.909   6.246  0.1569  0.0430 -0.6784
   89SAPE   H6X 8685   3.636   0.886   6.147  0.2428  1.0325 -0.9559
   89SAPE   H6Y 8686   3.683   0.811   6.299  3.4287 -1.0941 -2.5697
   89SAPE   C37 8687   3.821   0.960   6.245 -0.3567 -0.0582 -0.0669
   89SAPE   H7X 8688   3.850   0.964   6.352  2.5505 -0.6032 -0.7389
   89SAPE   H7Y 8689   3.813   1.062   6.201  0.7097 -0.7060 -1.8927
   89SAPE   C38 8690   3.934   0.892   6.162  0.6519  0.3536 -0.4657
   89SAPE   H8X 8691   3.945   0.787   6.197 -2.0405 -0.1903 -1.0577
   89SAPE   H8Y 8692   4.020   0.960   6.179  1.2014  0.1121 -2.0604
   89SAPE   C39 8693   3.914   0.871   6.012 -0.6631  0.5815  0.4829
   89SAPE   H9X 8694   3.911   0.967   5.955 -2.8535  0.3394  0.1090
   89SAPE   H9Y 8695   3.820   0.814   5.995 -0.8341  1.2821 -1.1300
   89SAPE  C310 8696   4.027   0.795   5.944 -0.0996  0.1139 -0.2784
   89SAPE  H10X 8697   4.059   0.695   5.982 -1.8644 -0.9106 -1.3415
   89SAPE  H10Y 8698   4.109   0.870   5.942 -0.9667  1.2456  2.0806
   89SAPE  C311 8699   3.993   0.768   5.796 -0.3190 -0.6998  0.0038
   89SAPE  H11X 8700   3.957   0.861   5.746  1.6047  1.0226  1.6535
   89SAPE  H11Y 8701   3.906   0.700   5.784 -0.8291  0.3572 -3.3770
   89SAPE  C312 8702   4.102   0.726   5.694 -0.2955 -0.5154  0.7066
   89SAPE  H12X 8703   4.134   0.623   5.722 -0.6132 -0.5560  0.9243
   89SAPE  H12Y 8704   4.176   0.808   5.688  1.1188 -1.7627  0.3223
   89SAPE  C313 8705   4.045   0.711   5.553 -0.3791 -0.2810 -0.0625
   89SAPE  H13X 8706   4.006   0.808   5.517 -0.7322  0.6775  2.6226
   89SAPE  H13Y 8707   3.956   0.645   5.547 -1.4121  1.1545 -1.3278
   89SAPE  C314 8708   4.144   0.647   5.461 -0.4761 -0.3777  0.6957
   89SAPE  H14X 8709   4.161   0.542   5.490 -0.8104 -0.7811 -0.5131
   89SAPE  H14Y 8710   4.243   0.698   5.466 -0.2426 -0.4916 -1.6900
   89SAPE  C315 8711   4.110   0.668   5.315  0.1867  0.2092 -0.0787
   89SAPE  H15X 8712   4.103   0.776   5.290  4.7014  0.2611 -2.0062
   89SAPE  H15Y 8713   4.006   0.634   5.294 -0.4369  1.3909  0.9529
   89SAPE  C316 8714   4.214   0.602   5.233 -0.3814  0.8542  0.2782
   89SAPE  H16X 8715   4.226   0.501   5.277  1.6120  0.6984 -0.4839
   89SAPE  H16Y 8716   4.315   0.646   5.252  1.0230 -0.7404 -2.6970
   89SAPE  C317 8717   4.186   0.594   5.079  0.0282 -0.2121 -0.5422
   89SAPE  H17X 8718   4.276   0.554   5.028 -0.1723  0.0732 -1.1372
   89SAPE  H17Y 8719   4.171   0.701   5.053  0.3736  0.2700  1.1043
   89SAPE  C318 8720   4.067   0.504   5.040  0.3357  0.1077  0.2729
   89SAPE  H18X 8721   4.073   0.403   5.086 -1.8897 -0.1224  0.1503
   89SAPE  H18Y 8722   4.069   0.490   4.930 -0.4810 -0.0879  0.2779
   89SAPE  H18Z 8723   3.973   0.547   5.080  1.2453  1.5473  0.9745
   90SAPE     N 8724   3.386   4.691   7.438 -0.1529  0.0648 -0.3453
   90SAPE   HN1 8725   3.328   4.611   7.472  0.8219  0.0272  1.3823
   90SAPE   HN2 8726   3.346   4.719   7.346 -1.8498 -0.4100  0.1958
   90SAPE   HN3 8727   3.487   4.667   7.436 -0.2188 -0.1685 -0.8872
   90SAPE   C12 8728   3.361   4.807   7.543  0.2129 -0.2299  0.1944
   90SAPE  H12A 8729   3.438   4.881   7.513  0.0860  0.7624  2.1333
   90SAPE  H12B 8730   3.403   4.778   7.641  2.1143  5.2373  1.3610
   90SAPE   C11 8731   3.214   4.855   7.541  0.9744  0.3621 -0.5738
   90SAPE  H11A 8732   3.196   4.926   7.624  3.0926 -0.3971  0.5910
   90SAPE  H11B 8733   3.148   4.767   7.560  0.0286  0.9788 -0.9291
   90SAPE     P 8734   3.203   5.045   7.360 -0.2599 -0.0593 -0.0529
   90SAPE   O13 8735   3.097   5.131   7.408  0.7234  0.4664 -0.5162
   90SAPE   O14 8736   3.340   5.086   7.396  0.2808  0.5210 -0.2750
   90SAPE   O12 8737   3.180   4.901   7.406  0.2245 -0.3686 -0.0110
   90SAPE   O11 8738   3.210   5.051   7.198 -0.5131  0.0679  0.1162
   90SAPE    C1 8739   3.316   4.982   7.128  0.5745  0.1484 -0.2101
   90SAPE    HA 8740   3.412   4.989   7.184  0.6229  1.8897 -0.4541
   90SAPE    HB 8741   3.294   4.874   7.111 -0.9740  0.5878 -1.2010
   90SAPE    C2 8742   3.346   5.039   6.989  0.4124 -0.5387  0.1158
   90SAPE    HS 8743   3.390   5.139   7.013 -1.1588  1.1306 -3.2184
   90SAPE   O21 8744   3.219   5.032   6.919 -0.1569 -0.5961  0.3522
   90SAPE   C21 8745   3.201   5.124   6.828 -0.2525  0.9944  0.0471
   90SAPE   O22 8746   3.270   5.222   6.812  0.1312 -0.2877 -0.5518
   90SAPE   C22 8747   3.093   5.076   6.732  0.3993 -0.4450  1.1856
   90SAPE   H2R 8748   3.089   4.965   6.728  0.1041 -0.4193 -1.4379
   90SAPE   H2S 8749   2.998   5.119   6.767 -0.8821 -1.3432 -0.9510
   90SAPE    C3 8750   3.450   4.948   6.913  0.0232 -0.2494  0.7801
   90SAPE    HX 8751   3.398   4.853   6.888 -0.0281 -0.7098  2.4540
   90SAPE    HY 8752   3.528   4.920   6.988  0.6947  1.4968  0.7857
   90SAPE   O31 8753   3.489   4.995   6.788 -0.6787 -1.1046 -0.9354
   90SAPE   C31 8754   3.604   5.068   6.786  0.0845 -0.5410  0.4955
   90SAPE   O32 8755   3.670   5.092   6.886 -0.4368 -0.6191  0.5570
   90SAPE   C32 8756   3.638   5.112   6.643 -0.3899  0.2286 -0.5123
   90SAPE   H2X 8757   3.574   5.194   6.603  0.1186  1.1152  0.4468
   90SAPE   H2Y 8758   3.629   5.021   6.581 -0.2204  0.7429 -1.3101
   90SAPE   C23 8759   3.115   5.145   6.589  0.1604  0.2391 -0.6898
   90SAPE   H3R 8760   3.103   5.255   6.596  1.8743  0.3856  0.6793
   90SAPE   H3S 8761   3.044   5.092   6.522 -0.7016 -1.2433  1.2768
   90SAPE   C24 8762   3.256   5.118   6.528 -0.2495  0.6283 -0.3097
   90SAPE   H4R 8763   3.276   5.009   6.540  2.0117  0.9469 -0.7442
   90SAPE   H4S 8764   3.328   5.179   6.587  0.0058  3.5307 -3.3292
   90SAPE   C25 8765   3.254   5.159   6.382  0.2777  0.4869  0.5751
   90SAPE   H5R 8766   3.196   5.249   6.356  0.4946  0.6494  0.6496
   90SAPE   C26 8767   3.309   5.079   6.286 -0.0811  0.0949 -0.2904
   90SAPE   H6R 8768   3.292   5.110   6.181 -2.1240 -1.2406 -0.4159
   90SAPE   C27 8769   3.383   4.950   6.320 -0.1538  0.7251  0.1470
   90SAPE   H7R 8770   3.457   4.967   6.401  1.6737 -2.8246 -0.5665
   90SAPE   H7S 8771   3.454   4.910   6.244 -2.2770 -1.1951 -0.9176
   90SAPE   C28 8772   3.294   4.837   6.336 -0.5770  0.3890  0.0100
   90SAPE   H8R 8773   3.228   4.849   6.422 -0.9106  3.1382 -0.5409
   90SAPE   C29 8774   3.289   4.722   6.266 -0.3847  0.3893  0.3208
   90SAPE   H9R 8775   3.221   4.642   6.300  2.0073 -2.1452 -0.3797
   90SAPE  C210 8776   3.365   4.686   6.139  0.3460 -0.5195 -0.2337
   90SAPE  H10R 8777   3.433   4.602   6.164  2.4633  0.6952 -1.5949
   90SAPE  H10S 8778   3.431   4.772   6.116 -1.6287  1.8692  2.3058
   90SAPE  C211 8779   3.276   4.653   6.020  0.2168 -0.2803 -0.1255
   90SAPE  H11R 8780   3.181   4.708   6.017  2.2619  3.4987 -1.9510
   90SAPE  C212 8781   3.297   4.557   5.927 -0.8311  0.5041  0.5431
   90SAPE  H12R 8782   3.229   4.546   5.841  1.9339 -0.9856 -1.6097
   90SAPE  C213 8783   3.414   4.463   5.923 -0.0951 -0.5248  0.1252
   90SAPE  H13R 8784   3.412   4.423   6.026 -0.1770  1.6992  1.0235
   90SAPE  H13S 8785   3.512   4.513   5.915 -0.7770  0.8708  0.1224
   90SAPE  C214 8786   3.405   4.356   5.820 -0.6067  0.6579  0.2921
   90SAPE  H14R 8787   3.400   4.253   5.858 -2.3077  0.5296 -0.1977
   90SAPE  C215 8788   3.429   4.368   5.691  0.3049 -0.3882 -0.2980
   90SAPE  H15R 8789   3.421   4.283   5.622  1.1770 -0.7897  0.0796
   90SAPE  C216 8790   3.458   4.494   5.618 -0.8914 -0.4596 -0.1776
   90SAPE  H16R 8791   3.565   4.492   5.591 -1.1189 -0.1713 -1.1301
   90SAPE  H16S 8792   3.427   4.582   5.679  3.7736 -0.3861  2.5355
   90SAPE  C217 8793   3.391   4.488   5.486 -0.0910  0.4743  0.4280
   90SAPE  H17R 8794   3.283   4.462   5.483 -0.1246  0.6829 -0.1341
   90SAPE  H17S 8795   3.437   4.407   5.427  2.2541  0.4595  2.1264
   90SAPE  C218 8796   3.423   4.610   5.397  0.7623 -0.1739 -0.5277
   90SAPE  H18R 8797   3.531   4.635   5.403  0.7114 -0.3080  2.6646
   90SAPE  H18S 8798   3.371   4.697   5.443  0.7898 -1.5252  2.2236
   90SAPE  C219 8799   3.388   4.585   5.252  0.4403  0.1703 -0.2317
   90SAPE  H19R 8800   3.284   4.546   5.260  0.4884  0.3327  1.7922
   90SAPE  H19S 8801   3.453   4.506   5.208  0.2976 -0.0893  0.0176
   90SAPE  C220 8802   3.391   4.711   5.157  0.5125 -0.0109 -0.2245
   90SAPE  H20R 8803   3.496   4.747   5.159  0.7407 -0.6637  0.0623
   90SAPE  H20S 8804   3.321   4.792   5.186  1.6419  0.1780  2.2408
   90SAPE  H20T 8805   3.374   4.679   5.052 -1.2240 -1.0322  0.3345
   90SAPE   C33 8806   3.786   5.163   6.627 -0.1723 -0.3065 -0.1513
   90SAPE   H3X 8807   3.852   5.075   6.641 -2.7729 -2.2902  0.4691
   90SAPE   H3Y 8808   3.806   5.236   6.708 -2.4480  1.5126 -1.0955
   90SAPE   C34 8809   3.824   5.223   6.489  0.6185  0.7383 -0.4273
   90SAPE   H4X 8810   3.932   5.246   6.479  0.6608  0.1915 -1.3548
   90SAPE   H4Y 8811   3.774   5.321   6.469  0.9048  1.1063  0.5922
   90SAPE   C35 8812   3.796   5.134   6.370 -0.0623 -0.1134 -0.7766
   90SAPE   H5X 8813   3.695   5.086   6.363  0.8843 -2.3679  0.1499
   90SAPE   H5Y 8814   3.865   5.047   6.377 -0.5807 -0.3832  2.1803
   90SAPE   C36 8815   3.811   5.211   6.238 -0.4311  0.3461  0.1710
   90SAPE   H6X 8816   3.915   5.247   6.226  0.1416 -1.4564 -0.5283
   90SAPE   H6Y 8817   3.750   5.304   6.246  0.9767  1.2009  1.4858
   90SAPE   C37 8818   3.793   5.141   6.103  0.4890 -0.5382  0.2816
   90SAPE   H7X 8819   3.881   5.078   6.077  0.0479 -2.3603  2.7352
   90SAPE   H7Y 8820   3.803   5.219   6.025 -1.5805 -2.1815 -1.7634
   90SAPE   C38 8821   3.660   5.070   6.078  0.1632  0.0777 -0.1055
   90SAPE   H8X 8822   3.577   5.144   6.079  0.8621  0.8698  0.4451
   90SAPE   H8Y 8823   3.638   4.997   6.158 -1.4875 -1.1524 -1.5918
   90SAPE   C39 8824   3.670   5.004   5.941  0.1611 -0.1230 -0.2826
   90SAPE   H9X 8825   3.700   4.898   5.956 -3.4054 -1.3310 -0.8368
   90SAPE   H9Y 8826   3.734   5.053   5.864  1.1780 -1.7781 -0.5390
   90SAPE  C310 8827   3.540   5.005   5.856 -0.8874 -0.2846 -0.5468
   90SAPE  H10X 8828   3.491   5.104   5.869  1.5886  0.7589  1.8599
   90SAPE  H10Y 8829   3.471   4.928   5.897 -0.9484  0.1854  0.2581
   90SAPE  C311 8830   3.573   4.970   5.708  1.2706  0.3785  0.6993
   90SAPE  H11X 8831   3.614   4.867   5.697 -1.0585 -0.4935 -0.8147
   90SAPE  H11Y 8832   3.632   5.052   5.661 -0.4247  0.5986 -1.2034
   90SAPE  C312 8833   3.434   4.963   5.627  0.3309  0.1905  0.8610
   90SAPE  H12X 8834   3.375   5.057   5.628  0.0637  0.1284 -1.8978
   90SAPE  H12Y 8835   3.373   4.873   5.652 -1.5455  0.9182 -0.7747
   90SAPE  C313 8836   3.461   4.949   5.470  0.8475  0.6126 -0.3987
   90SAPE  H13X 8837   3.372   4.919   5.410  1.4833 -0.1118 -1.0152
   90SAPE  H13Y 8838   3.537   4.868   5.472 -2.7552 -3.0909  1.6926
   90SAPE  C314 8839   3.519   5.071   5.399 -0.2125 -0.1840  0.3336
   90SAPE  H14X 8840   3.604   5.103   5.462  1.7786  2.0424 -3.1720
   90SAPE  H14Y 8841   3.445   5.153   5.391  1.4156  1.1659 -2.2482
   90SAPE  C315 8842   3.578   5.043   5.260  0.3353 -0.5237 -0.3607
   90SAPE  H15X 8843   3.501   4.993   5.198 -2.5463  2.9494  0.0871
   90SAPE  H15Y 8844   3.673   4.985   5.268  1.3224  1.1671  0.7789
   90SAPE  C316 8845   3.619   5.173   5.187 -0.0680 -0.2221  0.0401
   90SAPE  H16X 8846   3.687   5.230   5.254 -0.2731 -1.1401  1.0671
   90SAPE  H16Y 8847   3.529   5.221   5.143 -0.1233 -1.6171 -1.4675
   90SAPE  C317 8848   3.702   5.138   5.064  0.1377  0.1217  0.9254
   90SAPE  H17X 8849   3.634   5.088   4.991  0.2040  0.8161  0.3754
   90SAPE  H17Y 8850   3.785   5.068   5.089  0.3750 -0.6501 -1.6484
   90SAPE  C318 8851   3.766   5.257   4.981 -0.4120 -0.1433 -0.6174
   90SAPE  H18X 8852   3.694   5.339   5.002 -0.2598 -0.3075  0.6286
   90SAPE  H18Y 8853   3.776   5.229   4.874  0.4350  0.8555 -0.8079
   90SAPE  H18Z 8854   3.867   5.277   5.022 -1.2547  0.5475  1.1986
   91SAPE     N 8855   6.958   4.696   7.379 -0.4718  0.2652  0.5457
   91SAPE   HN1 8856   6.880   4.628   7.389 -0.9661  0.8823  0.9492
   91SAPE   HN2 8857   7.047   4.650   7.407  0.1434 -1.1080 -3.0064
   91SAPE   HN3 8858   6.937   4.779   7.438  1.2303 -0.1266  1.7600
   91SAPE   C12 8859   6.974   4.746   7.240  0.0226  0.4249  0.1511
   91SAPE  H12A 8860   6.872   4.761   7.199  0.3477 -0.5648 -1.0856
   91SAPE  H12B 8861   7.007   4.661   7.177 -0.1255  0.2581  0.2990
   91SAPE   C11 8862   7.053   4.868   7.221 -0.4757  0.3297 -0.3961
   91SAPE  H11A 8863   7.037   4.916   7.122  0.3667 -1.0127 -1.2158
   91SAPE  H11B 8864   7.161   4.842   7.211 -0.7315 -1.2700  0.5742
   91SAPE     P 8865   7.121   5.093   7.334 -0.0965 -0.3732 -0.2303
   91SAPE   O13 8866   7.039   5.216   7.316  0.1712 -0.2253  0.2230
   91SAPE   O14 8867   7.190   5.086   7.468 -0.7138  0.5728  0.1870
   91SAPE   O12 8868   7.024   4.966   7.321 -0.6101 -0.9042  0.4446
   91SAPE   O11 8869   7.229   5.085   7.221  0.2553 -0.0132  0.4796
   91SAPE    C1 8870   7.263   5.180   7.125 -0.2499 -0.0310  0.9108
   91SAPE    HA 8871   7.182   5.253   7.107  0.0703  0.5920  1.9406
   91SAPE    HB 8872   7.352   5.227   7.172 -0.0056 -0.0467  0.4657
   91SAPE    C2 8873   7.305   5.129   6.985  0.5139  0.0861 -0.1459
   91SAPE    HS 8874   7.347   5.220   6.936 -0.8017  1.0633  0.4680
   91SAPE   O21 8875   7.187   5.078   6.919 -0.7085  0.2045  0.7330
   91SAPE   C21 8876   7.099   5.164   6.870 -0.4290 -0.8827 -0.3207
   91SAPE   O22 8877   7.111   5.284   6.884 -0.8957 -0.3829  0.3559
   91SAPE   C22 8878   6.981   5.090   6.822  1.1824 -0.2436  0.2922
   91SAPE   H2R 8879   7.011   4.986   6.795 -2.2591 -0.9643 -1.3671
   91SAPE   H2S 8880   6.901   5.076   6.898  0.3278 -1.8029 -0.8196
   91SAPE    C3 8881   7.420   5.019   6.991  0.0006  0.1087 -0.1843
   91SAPE    HX 8882   7.356   4.938   7.032 -2.7298  1.9576 -0.5331
   91SAPE    HY 8883   7.499   5.054   7.061  1.1796 -1.6994 -0.5399
   91SAPE   O31 8884   7.484   4.995   6.866  0.1205  0.3500 -0.1940
   91SAPE   C31 8885   7.573   4.901   6.848 -0.8804 -0.6012 -0.4079
   91SAPE   O32 8886   7.633   4.838   6.935 -0.3797 -0.6200  0.2787
   91SAPE   C32 8887   7.600   4.893   6.696 -0.6226 -0.0529  0.3899
   91SAPE   H2X 8888   7.672   4.976   6.677 -2.0508  1.9886  3.2094
   91SAPE   H2Y 8889   7.505   4.897   6.639 -0.0117  0.1875 -0.6431
   91SAPE   C23 8890   6.914   5.154   6.699  0.2576  0.0404 -0.3894
   91SAPE   H3R 8891   6.860   5.248   6.723  0.8964  0.2076  0.4205
   91SAPE   H3S 8892   6.844   5.080   6.654 -2.8105  2.2169  0.4968
   91SAPE   C24 8893   7.014   5.183   6.581  0.5868 -0.2777  0.4092
   91SAPE   H4R 8894   7.091   5.252   6.621  1.7165 -2.0229  1.4037
   91SAPE   H4S 8895   6.960   5.227   6.495  0.1108  0.5617  1.1269
   91SAPE   C25 8896   7.070   5.053   6.524 -0.0335  0.6400  0.2702
   91SAPE   H5R 8897   7.123   4.989   6.596 -0.5503 -0.7787 -0.5639
   91SAPE   C26 8898   7.051   5.001   6.406  0.7721 -0.3936  0.2899
   91SAPE   H6R 8899   7.104   4.908   6.382 -1.0071 -0.8822 -2.1249
   91SAPE   C27 8900   6.971   5.063   6.295  1.0103 -0.3418  0.0411
   91SAPE   H7R 8901   6.882   5.112   6.339  0.2628 -1.8370  0.2655
   91SAPE   H7S 8902   6.920   4.985   6.234  2.4596 -1.5508  0.3122
   91SAPE   C28 8903   7.065   5.150   6.214 -0.5331  0.2939  0.2528
   91SAPE   H8R 8904   7.113   5.232   6.270  0.3510  0.1257 -0.2477
   91SAPE   C29 8905   7.084   5.146   6.075  1.1465 -0.0328 -0.1060
   91SAPE   H9R 8906   7.146   5.231   6.042 -0.4654  1.1015 -0.3416
   91SAPE  C210 8907   7.033   5.044   5.978  0.3715  0.4933 -0.0005
   91SAPE  H10R 8908   6.936   5.076   5.936  0.1443  0.5410  0.5499
   91SAPE  H10S 8909   7.007   4.948   6.028 -0.8083  1.8752  2.2211
   91SAPE  C211 8910   7.138   5.028   5.865 -0.0504  0.0971  0.6437
   91SAPE  H11R 8911   7.245   5.023   5.892 -0.0833 -3.0016  0.5485
   91SAPE  C212 8912   7.112   4.986   5.741 -0.1773  0.0028  0.2886
   91SAPE  H12R 8913   7.193   4.987   5.666 -0.4972 -1.1405 -0.0926
   91SAPE  C213 8914   6.978   4.969   5.686  0.7115  0.4567 -0.5206
   91SAPE  H13R 8915   6.940   5.068   5.654 -1.1903 -0.6209 -1.8194
   91SAPE  H13S 8916   6.909   4.921   5.759  1.1086  2.2164  1.0857
   91SAPE  C214 8917   6.983   4.872   5.568 -0.3486 -0.0422  0.2824
   91SAPE  H14R 8918   7.027   4.773   5.586  0.4698 -0.2810 -2.4957
   91SAPE  C215 8919   6.990   4.904   5.441 -0.5341 -0.8919 -0.2045
   91SAPE  H15R 8920   7.000   4.826   5.365 -1.6127  0.4006 -1.7474
   91SAPE  C216 8921   6.948   5.038   5.394  0.3900  0.0725  0.1365
   91SAPE  H16R 8922   7.033   5.109   5.401  1.4522 -1.0071 -1.2004
   91SAPE  H16S 8923   6.868   5.069   5.464 -0.3259 -0.3869 -0.4708
   91SAPE  C217 8924   6.905   5.032   5.250 -0.2160  0.1514 -0.0602
   91SAPE  H17R 8925   6.845   4.940   5.234 -0.4012  0.4207 -0.9805
   91SAPE  H17S 8926   6.998   5.022   5.190  0.0601  0.8516  0.2335
   91SAPE  C218 8927   6.835   5.153   5.194 -0.2148 -0.3192  0.1150
   91SAPE  H18R 8928   6.726   5.155   5.216  0.0270  1.9405  1.4299
   91SAPE  H18S 8929   6.839   5.151   5.083 -2.3340  0.8210 -0.0438
   91SAPE  C219 8930   6.911   5.277   5.233  0.5478 -0.0448  0.0837
   91SAPE  H19R 8931   7.021   5.258   5.234  1.0924  2.3653 -2.5209
   91SAPE  H19S 8932   6.883   5.302   5.338  0.7534 -2.5029  0.8077
   91SAPE  C220 8933   6.883   5.393   5.140  1.3289  0.3289  0.1061
   91SAPE  H20R 8934   6.896   5.359   5.035  0.6736  0.8870 -0.1640
   91SAPE  H20S 8935   6.960   5.470   5.157  1.1934  0.4115  0.3418
   91SAPE  H20T 8936   6.776   5.425   5.147  1.3061  0.2178  0.2554
   91SAPE   C33 8937   7.670   4.760   6.651  0.0106 -0.0510  0.4088
   91SAPE   H3X 8938   7.603   4.675   6.677  1.2653 -1.0545  0.5104
   91SAPE   H3Y 8939   7.758   4.771   6.719  2.1591 -3.2246 -1.5448
   91SAPE   C34 8940   7.703   4.763   6.501 -0.4378 -0.7460  0.0736
   91SAPE   H4X 8941   7.791   4.696   6.491  0.3189  0.0537  1.2477
   91SAPE   H4Y 8942   7.737   4.867   6.484  0.1931 -0.4868  2.6370
   91SAPE   C35 8943   7.594   4.740   6.398  0.3281 -0.0534 -0.0992
   91SAPE   H5X 8944   7.506   4.798   6.433  1.0089  0.7671  0.2810
   91SAPE   H5Y 8945   7.574   4.631   6.401 -0.3323  0.0595 -0.1440
   91SAPE   C36 8946   7.628   4.775   6.253 -0.9490 -0.0808 -1.3617
   91SAPE   H6X 8947   7.719   4.720   6.220  0.2624  1.1709 -0.2187
   91SAPE   H6Y 8948   7.654   4.882   6.238 -0.4879 -0.1472 -1.0747
   91SAPE   C37 8949   7.520   4.752   6.154  0.5490 -0.6471  0.2259
   91SAPE   H7X 8950   7.436   4.818   6.185  0.8219  0.1946 -0.7912
   91SAPE   H7Y 8951   7.493   4.645   6.162  1.3016 -0.9471 -1.1231
   91SAPE   C38 8952   7.570   4.781   6.011 -0.9434  0.3341 -0.2809
   91SAPE   H8X 8953   7.659   4.721   5.987 -2.5307 -1.5134 -1.8483
   91SAPE   H8Y 8954   7.581   4.889   5.986  1.5614 -0.0427 -0.9931
   91SAPE   C39 8955   7.472   4.730   5.906  0.5178 -0.1191 -0.3221
   91SAPE   H9X 8956   7.379   4.791   5.901 -0.4625 -1.2752  2.3113
   91SAPE   H9Y 8957   7.440   4.626   5.923  2.4400 -0.7963 -0.6390
   91SAPE  C310 8958   7.535   4.725   5.767  0.4528  0.8131  0.4094
   91SAPE  H10X 8959   7.597   4.636   5.741 -0.4066  1.1550 -3.5093
   91SAPE  H10Y 8960   7.601   4.814   5.758 -1.0056  1.8058 -1.1588
   91SAPE  C311 8961   7.428   4.738   5.645  0.6804 -0.0781  0.7222
   91SAPE  H11X 8962   7.354   4.818   5.665 -0.1458  0.5817 -3.9034
   91SAPE  H11Y 8963   7.376   4.640   5.635 -0.9446  0.5906  2.2134
   91SAPE  C312 8964   7.497   4.792   5.521  0.3369  0.1478 -0.6028
   91SAPE  H12X 8965   7.573   4.866   5.555 -0.7582  0.5596  1.0923
   91SAPE  H12Y 8966   7.421   4.844   5.459 -1.5364  1.1836  2.3460
   91SAPE  C313 8967   7.565   4.682   5.436 -0.2866  0.2755  0.2123
   91SAPE  H13X 8968   7.548   4.584   5.486  0.8731  0.3301  0.7355
   91SAPE  H13Y 8969   7.674   4.695   5.453 -0.3526  3.0279 -0.9328
   91SAPE  C314 8970   7.540   4.688   5.289  0.5207  0.1359 -0.4855
   91SAPE  H14X 8971   7.585   4.599   5.239 -2.6764 -1.0816 -1.4888
   91SAPE  H14Y 8972   7.581   4.774   5.232 -1.4975  0.7753 -1.0909
   91SAPE  C315 8973   7.391   4.670   5.259 -0.5769 -0.3038 -0.4446
   91SAPE  H15X 8974   7.340   4.766   5.280 -1.5438 -1.0318  0.6899
   91SAPE  H15Y 8975   7.341   4.598   5.328 -0.1814  0.7431  0.9704
   91SAPE  C316 8976   7.361   4.628   5.117  0.4055 -0.0017  0.8087
   91SAPE  H16X 8977   7.429   4.542   5.096 -1.3946 -1.1405 -0.6512
   91SAPE  H16Y 8978   7.381   4.716   5.052  0.2770 -0.3989  0.2220
   91SAPE  C317 8979   7.213   4.583   5.090  0.7181 -0.1773 -0.1466
   91SAPE  H17X 8980   7.206   4.483   5.138  0.8631  0.0912  0.4398
   91SAPE  H17Y 8981   7.195   4.549   4.986 -2.2351  0.9772 -0.1001
   91SAPE  C318 8982   7.111   4.695   5.121 -0.8158  0.4410 -0.3283
   91SAPE  H18X 8983   7.115   4.781   5.051  0.4952 -1.4161 -2.6516
   91SAPE  H18Y 8984   7.126   4.732   5.225 -0.6198 -0.2714 -0.0999
   91SAPE  H18Z 8985   7.007   4.654   5.124 -1.4903  2.1219  0.7965
   92SAPE     N 8986   3.596   2.942   7.174  0.2942  0.1502  0.0663
   92SAPE   HN1 8987   3.561   2.875   7.246 -3.8047  1.0650 -0.7957
   92SAPE   HN2 8988   3.689   2.906   7.144 -0.5778 -1.3267 -0.9839
   92SAPE   HN3 8989   3.612   3.031   7.225  0.1989 -1.0627  2.3541
   92SAPE   C12 8990   3.501   2.975   7.060  0.1704 -0.5810 -0.2274
   92SAPE  H12A 8991   3.559   3.042   6.993 -1.1720 -1.0946 -1.9721
   92SAPE  H12B 8992   3.426   3.046   7.099  2.2810  2.5311 -1.4531
   92SAPE   C11 8993   3.454   2.849   7.005  1.0297  0.1821  0.4444
   92SAPE  H11A 8994   3.540   2.802   6.951  0.5765 -0.6969  0.4630
   92SAPE  H11B 8995   3.380   2.862   6.923 -0.7123  2.3598  2.2175
   92SAPE     P 8996   3.253   2.707   7.125 -0.1916 -0.5721  0.3928
   92SAPE   O13 8997   3.262   2.584   7.202  0.0208 -0.2375 -0.0561
   92SAPE   O14 8998   3.174   2.821   7.189  0.0321  0.2909  0.2382
   92SAPE   O12 8999   3.404   2.760   7.105  0.6345  0.2055 -0.2802
   92SAPE   O11 9000   3.199   2.686   6.982 -0.2942 -0.7153 -0.8905
   92SAPE    C1 9001   3.248   2.562   6.926 -0.1842 -0.8695  0.4092
   92SAPE    HA 9002   3.358   2.573   6.914 -0.1333 -1.2506  0.5126
   92SAPE    HB 9003   3.232   2.467   6.982  0.4347 -0.9109  0.5165
   92SAPE    C2 9004   3.175   2.541   6.786 -0.0038 -0.1669 -0.2571
   92SAPE    HS 9005   3.213   2.455   6.728 -0.7576 -1.1644  0.6966
   92SAPE   O21 9006   3.183   2.663   6.708  0.1077 -0.0296 -0.1153
   92SAPE   C21 9007   3.307   2.690   6.668  0.3439  0.0752  0.5415
   92SAPE   O22 9008   3.403   2.616   6.678  0.5026 -0.4730 -0.4483
   92SAPE   C22 9009   3.303   2.827   6.596 -0.5556  0.7714 -0.3745
   92SAPE   H2R 9010   3.198   2.859   6.582 -1.4129 -2.0461 -1.1225
   92SAPE   H2S 9011   3.371   2.900   6.646 -0.7520  0.4407  0.3917
   92SAPE    C3 9012   3.026   2.520   6.803  0.0720 -0.0063 -0.4931
   92SAPE    HX 9013   2.976   2.611   6.841 -1.8822 -1.6537  1.1446
   92SAPE    HY 9014   3.014   2.448   6.887 -3.1771  0.1142 -0.7299
   92SAPE   O31 9015   2.974   2.455   6.685  0.1528  0.1226  0.3753
   92SAPE   C31 9016   2.844   2.489   6.662  0.7263 -0.2999  0.1243
   92SAPE   O32 9017   2.775   2.555   6.738 -0.2743 -0.0947 -0.2569
   92SAPE   C32 9018   2.797   2.445   6.522 -0.1693  0.2122  0.8555
   92SAPE   H2X 9019   2.707   2.380   6.527 -0.1613  0.2473  1.5429
   92SAPE   H2Y 9020   2.880   2.389   6.473  0.0187  1.5909 -0.4631
   92SAPE   C23 9021   3.374   2.819   6.452  0.6444 -0.6337  0.1217
   92SAPE   H3R 9022   3.467   2.758   6.462  1.3966  0.2121 -1.3560
   92SAPE   H3S 9023   3.402   2.926   6.443 -0.7423 -0.2254  0.5107
   92SAPE   C24 9024   3.304   2.782   6.329 -0.5702 -0.0060 -0.0341
   92SAPE   H4R 9025   3.258   2.682   6.345  1.5527 -1.4411 -2.2305
   92SAPE   H4S 9026   3.374   2.765   6.244 -0.0135  1.0266  0.2047
   92SAPE   C25 9027   3.192   2.881   6.286 -0.2336 -0.6469 -0.4860
   92SAPE   H5R 9028   3.109   2.891   6.358  0.2310  0.5899 -0.0953
   92SAPE   C26 9029   3.188   2.955   6.177 -0.3301 -0.2365 -0.2937
   92SAPE   H6R 9030   3.098   3.018   6.168 -0.5352 -0.5028 -0.1248
   92SAPE   C27 9031   3.294   2.969   6.074  0.1309  0.5585  0.5073
   92SAPE   H7R 9032   3.281   2.875   6.015  0.0147  1.2056 -0.5194
   92SAPE   H7S 9033   3.396   2.962   6.116  1.3668  0.2875 -2.3422
   92SAPE   C28 9034   3.293   3.094   5.999  0.2835  0.1253 -0.4305
   92SAPE   H8R 9035   3.297   3.186   6.060 -1.3832 -0.1425  0.1086
   92SAPE   C29 9036   3.269   3.099   5.864 -0.3067 -0.5209 -0.0546
   92SAPE   H9R 9037   3.277   3.198   5.816 -2.3139 -0.2644  0.0472
   92SAPE  C210 9038   3.237   2.982   5.773  0.4927  0.4171  0.2301
   92SAPE  H10R 9039   3.188   2.901   5.831  2.0955 -0.4344  0.4523
   92SAPE  H10S 9040   3.334   2.947   5.732  0.2784 -0.7660  0.6827
   92SAPE  C211 9041   3.163   3.036   5.652  0.2593  0.1660  0.0951
   92SAPE  H11R 9042   3.063   3.081   5.668  0.1323  0.3515 -1.1142
   92SAPE  C212 9043   3.208   3.034   5.517  1.0235  0.8434 -0.5021
   92SAPE  H12R 9044   3.145   3.078   5.439 -0.7987  1.0036  0.9981
   92SAPE  C213 9045   3.334   2.973   5.456 -0.8383 -0.9578 -0.1633
   92SAPE  H13R 9046   3.413   2.985   5.533  0.7938 -0.7373 -1.8218
   92SAPE  H13S 9047   3.356   3.029   5.363 -1.0517  1.7832  1.3133
   92SAPE  C214 9048   3.302   2.830   5.427  0.0705 -0.1026 -0.0715
   92SAPE  H14R 9049   3.242   2.785   5.508 -0.2910  0.0677 -0.2478
   92SAPE  C215 9050   3.330   2.752   5.321 -0.5815 -0.6542 -0.0947
   92SAPE  H15R 9051   3.281   2.654   5.312  2.5878 -2.5063  1.0685
   92SAPE  C216 9052   3.424   2.788   5.200  0.7116 -0.4359  0.1126
   92SAPE  H16R 9053   3.511   2.720   5.191  1.0864  0.1932 -1.2875
   92SAPE  H16S 9054   3.454   2.894   5.214  2.4874 -0.7900 -0.7299
   92SAPE  C217 9055   3.348   2.784   5.067 -0.5327  1.2873 -0.2936
   92SAPE  H17R 9056   3.414   2.822   4.986  1.5044 -0.1648  0.6213
   92SAPE  H17S 9057   3.263   2.857   5.068 -1.2057  0.5170 -0.4134
   92SAPE  C218 9058   3.279   2.656   5.028  0.1437 -0.2641 -0.2266
   92SAPE  H18R 9059   3.197   2.642   5.102  1.1638 -0.7834  0.8301
   92SAPE  H18S 9060   3.334   2.560   5.040  0.3386 -0.6614 -3.4515
   92SAPE  C219 9061   3.191   2.649   4.902  0.1397  0.1858  0.0679
   92SAPE  H19R 9062   3.258   2.678   4.818 -0.6026 -1.1362 -1.0304
   92SAPE  H19S 9063   3.115   2.729   4.896 -1.1506 -0.9267  0.9660
   92SAPE  C220 9064   3.136   2.506   4.871 -0.4466 -0.2745 -0.0632
   92SAPE  H20R 9065   3.066   2.473   4.950 -0.9062  0.4726 -0.1490
   92SAPE  H20S 9066   3.217   2.430   4.863 -0.2822 -0.3393  1.7838
   92SAPE  H20T 9067   3.089   2.516   4.771 -2.0050  1.7123  0.8135
   92SAPE   C33 9068   2.775   2.578   6.445 -0.0203  0.1676  0.5128
   92SAPE   H3X 9069   2.845   2.659   6.474 -1.3726  0.9616  1.6865
   92SAPE   H3Y 9070   2.673   2.621   6.458 -0.2839 -0.0118 -0.7462
   92SAPE   C34 9071   2.799   2.575   6.295  0.8348 -0.0505  0.3662
   92SAPE   H4X 9072   2.745   2.484   6.260 -2.5765  1.5637  0.9712
   92SAPE   H4Y 9073   2.905   2.555   6.269  0.7143 -0.5064  0.2159
   92SAPE   C35 9074   2.762   2.703   6.213 -0.4851 -0.2640 -0.2026
   92SAPE   H5X 9075   2.801   2.793   6.263  0.0938 -0.9620  0.6220
   92SAPE   H5Y 9076   2.653   2.723   6.205 -0.1601  1.0305 -2.2588
   92SAPE   C36 9077   2.816   2.702   6.069  0.2227 -0.2131  0.6343
   92SAPE   H6X 9078   2.775   2.618   6.010 -0.1942 -0.2260  0.9339
   92SAPE   H6Y 9079   2.924   2.677   6.072 -0.2515 -2.5020  0.6635
   92SAPE   C37 9080   2.784   2.836   5.998  0.0202  0.5235  0.9369
   92SAPE   H7X 9081   2.825   2.922   6.055 -0.8497  0.7709  1.2176
   92SAPE   H7Y 9082   2.676   2.860   5.985 -0.0660  0.3506  1.3345
   92SAPE   C38 9083   2.842   2.847   5.857 -0.4123 -0.4466  0.1680
   92SAPE   H8X 9084   2.949   2.819   5.845  0.0107  1.4960 -1.1889
   92SAPE   H8Y 9085   2.840   2.952   5.821  0.5435 -1.0381 -1.7553
   92SAPE   C39 9086   2.767   2.767   5.753  0.0311  0.9678  0.4591
   92SAPE   H9X 9087   2.662   2.801   5.740  0.3311  1.3645 -1.1091
   92SAPE   H9Y 9088   2.772   2.662   5.789  0.7381  1.1201  0.8336
   92SAPE  C310 9089   2.841   2.775   5.621 -0.1202  0.4964  0.3793
   92SAPE  H10X 9090   2.940   2.726   5.633 -1.1776 -1.9844 -0.4395
   92SAPE  H10Y 9091   2.862   2.881   5.593  1.0094  0.0887 -0.3880
   92SAPE  C311 9092   2.771   2.691   5.508  0.4395 -0.7033 -0.1229
   92SAPE  H11X 9093   2.683   2.754   5.483 -0.0106 -0.7652  1.2120
   92SAPE  H11Y 9094   2.739   2.595   5.553  2.3749 -0.7678  1.2527
   92SAPE  C312 9095   2.866   2.670   5.389  0.2835 -0.2408 -0.2527
   92SAPE  H12X 9096   2.935   2.592   5.427 -0.3513 -0.0176  1.4279
   92SAPE  H12Y 9097   2.923   2.761   5.363 -1.3000  0.5118 -1.2709
   92SAPE  C313 9098   2.797   2.620   5.267  0.4759 -0.0667  0.4236
   92SAPE  H13X 9099   2.868   2.609   5.182 -1.2034  0.2800 -1.0733
   92SAPE  H13Y 9100   2.719   2.689   5.229  1.1065 -0.9008 -2.6662
   92SAPE  C314 9101   2.731   2.478   5.275 -0.2938 -0.2254  0.0032
   92SAPE  H14X 9102   2.637   2.491   5.332  0.4794 -2.2895  1.8586
   92SAPE  H14Y 9103   2.800   2.410   5.328  1.7136  1.1560 -0.7063
   92SAPE  C315 9104   2.700   2.423   5.135  0.0644 -0.6449 -0.0773
   92SAPE  H15X 9105   2.799   2.396   5.092  1.5418  0.8984  2.0684
   92SAPE  H15Y 9106   2.662   2.497   5.062 -0.5228 -1.6674 -0.8246
   92SAPE  C316 9107   2.626   2.288   5.138  0.7511  0.6610 -0.1613
   92SAPE  H16X 9108   2.535   2.308   5.198  0.9961  2.0216 -0.2032
   92SAPE  H16Y 9109   2.686   2.211   5.190 -0.4098  0.0066  0.2335
   92SAPE  C317 9110   2.596   2.232   4.996 -0.3229  0.8660 -0.0709
   92SAPE  H17X 9111   2.674   2.263   4.923 -4.2452  1.2305 -4.5822
   92SAPE  H17Y 9112   2.502   2.265   4.947 -1.0700 -2.8925 -1.5353
   92SAPE  C318 9113   2.579   2.082   4.992  0.0478  0.4206  0.3745
   92SAPE  H18X 9114   2.583   2.041   4.888 -2.2234 -1.3707  0.9160
   92SAPE  H18Y 9115   2.474   2.063   5.023 -1.3397  4.1318 -1.4148
   92SAPE  H18Z 9116   2.656   2.029   5.052 -0.8808  0.4063  1.5817
   93SAPE     N 9117   3.573   1.348   7.131  0.3442 -0.2749 -0.1249
   93SAPE   HN1 9118   3.572   1.369   7.030  1.1255 -0.1441 -0.1053
   93SAPE   HN2 9119   3.494   1.286   7.159  0.6628 -0.0874  1.2752
   93SAPE   HN3 9120   3.555   1.443   7.169 -0.3591 -0.9107  1.2344
   93SAPE   C12 9121   3.704   1.292   7.175 -0.1930 -0.3018  0.0460
   93SAPE  H12A 9122   3.718   1.193   7.126 -0.5847 -0.0579 -0.5691
   93SAPE  H12B 9123   3.707   1.276   7.285 -2.1497  0.8679  0.3046
   93SAPE   C11 9124   3.817   1.390   7.131 -0.1097  0.1513 -0.3970
   93SAPE  H11A 9125   3.826   1.405   7.021  0.8897 -0.1977 -0.3703
   93SAPE  H11B 9126   3.903   1.331   7.167 -0.4934 -0.1763 -0.0136
   93SAPE     P 9127   3.739   1.646   7.164  0.2252 -0.5029  0.2835
   93SAPE   O13 9128   3.595   1.613   7.166 -0.1208  0.5025  0.7869
   93SAPE   O14 9129   3.785   1.759   7.245  0.0534  0.1228 -0.7772
   93SAPE   O12 9130   3.809   1.514   7.205  0.5845  0.2276 -0.2097
   93SAPE   O11 9131   3.789   1.675   7.013 -0.4793 -0.0373 -0.0305
   93SAPE    C1 9132   3.932   1.677   6.982  0.2290 -0.3084 -0.0502
   93SAPE    HA 9133   3.993   1.713   7.067 -0.3339 -0.5337  0.4566
   93SAPE    HB 9134   3.968   1.578   6.945  0.9240 -0.2728  0.5035
   93SAPE    C2 9135   3.974   1.784   6.871  0.1762 -0.4758 -0.0447
   93SAPE    HS 9136   3.900   1.867   6.880  0.2423 -0.5022  0.8082
   93SAPE   O21 9137   3.955   1.717   6.741  0.7651  0.0226 -0.2877
   93SAPE   C21 9138   3.828   1.699   6.704 -0.0504  0.1807  0.0012
   93SAPE   O22 9139   3.732   1.752   6.752  0.1306 -0.5349 -0.1862
   93SAPE   C22 9140   3.822   1.593   6.594  0.2981 -0.1843  0.8068
   93SAPE   H2R 9141   3.923   1.558   6.566 -0.3719 -2.7358  1.3057
   93SAPE   H2S 9142   3.763   1.507   6.632 -0.3622 -0.1842 -0.1722
   93SAPE    C3 9143   4.122   1.833   6.897  0.3017  0.3290  0.6855
   93SAPE    HX 9144   4.176   1.736   6.905 -0.7488 -0.3992 -0.6406
   93SAPE    HY 9145   4.127   1.889   6.993  0.5600 -0.1279  0.9422
   93SAPE   O31 9146   4.179   1.902   6.779 -0.0190 -0.3576  0.1577
   93SAPE   C31 9147   4.123   2.016   6.755  0.4061 -0.2278  0.1010
   93SAPE   O32 9148   4.034   2.074   6.818  0.1215  0.1975  0.0447
   93SAPE   C32 9149   4.169   2.073   6.618 -1.0540  0.4928 -0.0748
   93SAPE   H2X 9150   4.256   2.010   6.590 -1.0027  0.6770 -0.3326
   93SAPE   H2Y 9151   4.192   2.181   6.627 -1.5863  0.6075 -0.0484
   93SAPE   C23 9152   3.739   1.651   6.470  0.3360 -0.3076 -0.9120
   93SAPE   H3R 9153   3.761   1.756   6.441 -0.3083  0.3806  0.9094
   93SAPE   H3S 9154   3.632   1.652   6.500  0.9606 -0.6021  1.5537
   93SAPE   C24 9155   3.771   1.569   6.338 -0.4773  0.3849 -0.1349
   93SAPE   H4R 9156   3.872   1.606   6.312  0.3502 -0.7670  1.2511
   93SAPE   H4S 9157   3.703   1.595   6.255 -0.7120 -3.5344 -1.3872
   93SAPE   C25 9158   3.778   1.416   6.342 -0.5920  0.4390  0.0469
   93SAPE   H5R 9159   3.684   1.368   6.374 -0.5625  0.2662 -0.1218
   93SAPE   C26 9160   3.882   1.335   6.317  0.4305  0.4384 -0.4538
   93SAPE   H6R 9161   3.873   1.227   6.334 -0.6810  0.4228 -1.0699
   93SAPE   C27 9162   4.023   1.377   6.294  0.3689  0.2450 -0.1166
   93SAPE   H7R 9163   4.064   1.381   6.397  0.6038 -0.8711 -0.1528
   93SAPE   H7S 9164   4.039   1.479   6.255 -0.6845  0.1252 -0.9043
   93SAPE   C28 9165   4.085   1.276   6.199  0.3111 -0.1892 -0.0674
   93SAPE   H8R 9166   4.117   1.191   6.262  0.0828 -0.4849 -0.3467
   93SAPE   C29 9167   4.097   1.267   6.067  0.4378 -0.2196 -0.4746
   93SAPE   H9R 9168   4.149   1.182   6.023 -1.7136 -0.8034 -2.0277
   93SAPE  C210 9169   4.056   1.353   5.956  0.2930 -0.0420 -0.4561
   93SAPE  H10R 9170   4.150   1.382   5.904  1.1924  0.3708  1.3315
   93SAPE  H10S 9171   4.006   1.447   5.988 -1.6320 -1.2019  0.1405
   93SAPE  C211 9172   3.960   1.284   5.861  0.2547  0.8597  0.6280
   93SAPE  H11R 9173   3.855   1.297   5.890 -0.4206 -2.0655 -0.2169
   93SAPE  C212 9174   3.990   1.203   5.759  0.5927 -0.4746  0.0948
   93SAPE  H12R 9175   3.907   1.152   5.708 -0.6422  0.7163  0.8301
   93SAPE  C213 9176   4.126   1.183   5.698  0.1146  0.6276  0.6661
   93SAPE  H13R 9177   4.134   1.076   5.668  0.5895  0.8132  0.1139
   93SAPE  H13S 9178   4.209   1.190   5.772  0.7688 -1.1333  0.1488
   93SAPE  C214 9179   4.165   1.277   5.584 -0.3338  0.0438  0.2626
   93SAPE  H14R 9180   4.120   1.377   5.594  0.8393  0.5557  0.5699
   93SAPE  C215 9181   4.248   1.247   5.478 -0.2571  0.2924  0.0427
   93SAPE  H15R 9182   4.269   1.319   5.398 -0.0553 -0.0237 -0.1885
   93SAPE  C216 9183   4.330   1.118   5.470  0.2303 -0.4826  0.3113
   93SAPE  H16R 9184   4.264   1.034   5.499 -0.7154  0.1521  0.0497
   93SAPE  H16S 9185   4.402   1.123   5.555  0.5691 -1.2103  0.0726
   93SAPE  C217 9186   4.419   1.095   5.349 -0.4410  0.6667 -0.6682
   93SAPE  H17R 9187   4.493   1.012   5.358  0.1145  1.1529 -0.6804
   93SAPE  H17S 9188   4.480   1.185   5.327 -0.0951  0.9772  1.3089
   93SAPE  C218 9189   4.354   1.055   5.218  0.4206  0.7218  1.0485
   93SAPE  H18R 9190   4.290   1.142   5.192  1.2910  1.0870  0.0497
   93SAPE  H18S 9191   4.284   0.970   5.227 -1.4290  1.7714 -1.9987
   93SAPE  C219 9192   4.450   1.011   5.106  0.2808  0.0062 -0.6047
   93SAPE  H19R 9193   4.506   1.099   5.069 -0.0161 -0.0213 -1.1199
   93SAPE  H19S 9194   4.379   0.964   5.035  0.1931 -1.4409  0.3867
   93SAPE  C220 9195   4.539   0.898   5.147 -0.3937 -0.4218 -0.8356
   93SAPE  H20R 9196   4.625   0.940   5.203 -1.4115  0.9906 -0.2575
   93SAPE  H20S 9197   4.584   0.847   5.059 -0.4527 -1.3572 -0.3363
   93SAPE  H20T 9198   4.489   0.826   5.214  1.8493  0.5449  2.0944
   93SAPE   C33 9199   4.077   2.049   6.499 -0.4523  0.2773 -0.3876
   93SAPE   H3X 9200   4.099   2.137   6.435 -0.1209  1.3930  1.2078
   93SAPE   H3Y 9201   3.970   2.043   6.527 -0.1884 -1.9313  0.3439
   93SAPE   C34 9202   4.122   1.931   6.416  0.3226  0.8499 -0.1392
   93SAPE   H4X 9203   4.138   1.834   6.468 -2.5610 -0.8634 -2.1030
   93SAPE   H4Y 9204   4.223   1.957   6.378  1.1105 -0.8272  0.7238
   93SAPE   C35 9205   4.028   1.910   6.299 -0.5184  0.3450 -1.4044
   93SAPE   H5X 9206   4.017   2.011   6.253  2.1477  0.8002 -1.1697
   93SAPE   H5Y 9207   3.928   1.868   6.323 -0.5756  0.6436 -1.1153
   93SAPE   C36 9208   4.085   1.809   6.203  0.0911  0.5890  0.3171
   93SAPE   H6X 9209   4.068   1.704   6.236  0.1131 -0.6587 -3.1954
   93SAPE   H6Y 9210   4.194   1.809   6.184  0.3258  0.8347  1.5468
   93SAPE   C37 9211   4.022   1.808   6.063  0.2726  0.6165 -0.4104
   93SAPE   H7X 9212   4.000   1.915   6.045  1.7027  0.9348 -0.3724
   93SAPE   H7Y 9213   3.929   1.747   6.069  1.6117 -1.4080  1.2770
   93SAPE   C38 9214   4.113   1.754   5.952 -0.0379  0.6841 -0.2545
   93SAPE   H8X 9215   4.146   1.651   5.978 -1.5928  0.2657  0.1590
   93SAPE   H8Y 9216   4.211   1.806   5.956  1.4508 -1.9820  0.9599
   93SAPE   C39 9217   4.032   1.758   5.816  0.2565  0.6834  0.2254
   93SAPE   H9X 9218   3.994   1.857   5.782 -0.0066  0.5321  0.0781
   93SAPE   H9Y 9219   3.937   1.713   5.850  0.4180 -2.5269 -2.9983
   93SAPE  C310 9220   4.086   1.681   5.701 -0.6161  0.0787 -0.3198
   93SAPE  H10X 9221   3.993   1.649   5.650 -1.5570  1.5126  0.4205
   93SAPE  H10Y 9222   4.119   1.587   5.749 -1.2264  0.7527  1.5092
   93SAPE  C311 9223   4.197   1.760   5.620  0.2046  0.7513  0.3170
   93SAPE  H11X 9224   4.295   1.717   5.650 -0.0402 -1.2173 -1.4636
   93SAPE  H11Y 9225   4.184   1.870   5.626  0.5009  0.7429  1.4618
   93SAPE  C312 9226   4.182   1.741   5.468  0.3046  0.6821  0.4054
   93SAPE  H12X 9227   4.094   1.802   5.440 -1.1336 -0.5798  1.9488
   93SAPE  H12Y 9228   4.155   1.639   5.435 -1.0122  1.3467 -0.6583
   93SAPE  C313 9229   4.313   1.787   5.410 -0.3171 -0.5867  0.5241
   93SAPE  H13X 9230   4.397   1.747   5.470  0.2622  0.4132  0.3850
   93SAPE  H13Y 9231   4.317   1.896   5.429  0.1073 -0.4411 -0.3852
   93SAPE  C314 9232   4.348   1.752   5.273  0.0299  0.0305  0.2098
   93SAPE  H14X 9233   4.426   1.826   5.245  0.7607 -1.3692 -1.6935
   93SAPE  H14Y 9234   4.261   1.770   5.206 -0.9447 -1.3141  1.0532
   93SAPE  C315 9235   4.404   1.607   5.257  0.5215 -0.0885  0.1783
   93SAPE  H15X 9236   4.319   1.538   5.277  1.6927 -2.1501 -1.4896
   93SAPE  H15Y 9237   4.484   1.585   5.331  1.7943 -1.6296 -1.5530
   93SAPE  C316 9238   4.446   1.580   5.117 -0.3057  0.5672 -0.4642
   93SAPE  H16X 9239   4.532   1.646   5.090  0.7866 -0.6616 -0.0856
   93SAPE  H16Y 9240   4.367   1.606   5.044  0.3062 -0.0996 -1.3858
   93SAPE  C317 9241   4.487   1.435   5.101  0.3669  0.0263 -0.1250
   93SAPE  H17X 9242   4.427   1.376   5.173 -2.9061  2.5634 -0.5486
   93SAPE  H17Y 9243   4.590   1.433   5.144  0.3639  0.7916 -0.0628
   93SAPE  C318 9244   4.492   1.367   4.966  0.4402 -0.3096 -0.1348
   93SAPE  H18X 9245   4.553   1.275   4.961  1.5914  0.1430  2.9963
   93SAPE  H18Y 9246   4.537   1.440   4.895  0.3869 -0.1045  0.0393
   93SAPE  H18Z 9247   4.388   1.346   4.934 -0.8536  1.5539  2.4797
   94SAPE     N 9248   5.456   0.117   6.831 -0.4083 -0.6241 -0.5898
   94SAPE   HN1 9249   5.521   0.176   6.776  0.9179 -2.8578 -1.5319
   94SAPE   HN2 9250   5.522   0.058   6.887 -0.8999  0.1674  0.8883
   94SAPE   HN3 9251   5.391   0.058   6.775 -2.3902 -0.1494  1.0643
   94SAPE   C12 9252   5.377   0.193   6.940 -0.5513  0.2167  0.2086
   94SAPE  H12A 9253   5.313   0.114   6.984 -2.8117  2.4059  1.0912
   94SAPE  H12B 9254   5.318   0.270   6.887  2.6817  2.3334 -0.5606
   94SAPE   C11 9255   5.460   0.258   7.047  0.2239 -0.2355 -0.8828
   94SAPE  H11A 9256   5.545   0.191   7.071  1.6581  1.5570 -0.6978
   94SAPE  H11B 9257   5.388   0.274   7.130  0.4288  1.5826 -1.0131
   94SAPE     P 9258   5.430   0.524   7.035 -0.6734 -0.2694 -0.0760
   94SAPE   O13 9259   5.283   0.502   7.043  0.2768  0.2210  0.0571
   94SAPE   O14 9260   5.501   0.594   7.144  0.6611  0.0815 -0.3746
   94SAPE   O12 9261   5.508   0.386   7.010  0.4006  0.1341  0.0866
   94SAPE   O11 9262   5.469   0.602   6.901 -0.2289 -0.3329 -0.0676
   94SAPE    C1 9263   5.445   0.545   6.774 -0.4282  0.0180 -0.1484
   94SAPE    HA 9264   5.531   0.572   6.710  0.6730 -3.0400 -0.1157
   94SAPE    HB 9265   5.466   0.436   6.774  1.0507  0.2653 -1.3903
   94SAPE    C2 9266   5.308   0.575   6.708 -0.3314  0.1513 -0.2325
   94SAPE    HS 9267   5.224   0.524   6.760 -0.9246  1.0135 -0.3387
   94SAPE   O21 9268   5.304   0.519   6.580 -0.0807  0.1699 -0.2585
   94SAPE   C21 9269   5.280   0.396   6.567 -0.4003  1.1954  0.0599
   94SAPE   O22 9270   5.279   0.308   6.652  0.4082 -0.4207  0.1281
   94SAPE   C22 9271   5.276   0.359   6.411  0.5303 -0.6839 -0.3318
   94SAPE   H2R 9272   5.314   0.446   6.352 -0.8518  0.5308  0.5085
   94SAPE   H2S 9273   5.342   0.269   6.409  0.0696 -1.2991  3.5699
   94SAPE    C3 9274   5.271   0.725   6.706  0.0633  0.0653  1.0791
   94SAPE    HX 9275   5.362   0.771   6.662  1.1713 -2.2225  0.8005
   94SAPE    HY 9276   5.267   0.778   6.803 -1.6566  1.1068  0.4868
   94SAPE   O31 9277   5.157   0.756   6.619 -0.8778  0.5541  0.5959
   94SAPE   C31 9278   5.033   0.748   6.676  0.3357  0.2236  0.5190
   94SAPE   O32 9279   5.021   0.698   6.789  0.2052 -0.1064  0.0443
   94SAPE   C32 9280   4.919   0.797   6.592 -0.6229  0.3747  0.3755
   94SAPE   H2X 9281   4.892   0.904   6.600 -0.0079  0.4895  0.9925
   94SAPE   H2Y 9282   4.844   0.717   6.613 -0.3356  0.6226  2.5974
   94SAPE   C23 9283   5.132   0.321   6.376 -0.2566 -0.1031 -0.4434
   94SAPE   H3R 9284   5.060   0.400   6.405  1.0974  2.1690 -2.8506
   94SAPE   H3S 9285   5.111   0.232   6.440  1.2105  1.0091  1.7315
   94SAPE   C24 9286   5.119   0.278   6.226  0.8709  0.0052 -0.0589
   94SAPE   H4R 9287   5.049   0.192   6.230  0.6884  0.1630  0.1831
   94SAPE   H4S 9288   5.219   0.234   6.203  0.8089 -0.5382  0.6544
   94SAPE   C25 9289   5.066   0.375   6.126 -0.2804 -0.3007 -0.5631
   94SAPE   H5R 9290   4.964   0.415   6.139 -0.4654 -1.1023  0.6460
   94SAPE   C26 9291   5.133   0.433   6.026 -0.4889 -0.3287  0.6116
   94SAPE   H6R 9292   5.082   0.505   5.960  1.0662 -0.1880 -0.4966
   94SAPE   C27 9293   5.271   0.391   5.971 -0.7712 -0.1125 -0.2911
   94SAPE   H7R 9294   5.344   0.417   6.052 -1.1779  0.7400 -0.1874
   94SAPE   H7S 9295   5.309   0.462   5.895 -0.5752  0.8326  0.6700
   94SAPE   C28 9296   5.284   0.252   5.919 -0.1190 -0.1581 -0.5497
   94SAPE   H8R 9297   5.260   0.170   5.989 -1.1706  0.6289  0.0471
   94SAPE   C29 9298   5.318   0.219   5.793 -0.3431 -0.1052 -0.0154
   94SAPE   H9R 9299   5.317   0.113   5.764 -0.8972  0.0139 -0.4420
   94SAPE  C210 9300   5.360   0.317   5.685 -0.2795  0.4998  0.1543
   94SAPE  H10R 9301   5.424   0.395   5.730 -0.8630  0.1205  1.7209
   94SAPE  H10S 9302   5.275   0.384   5.661  0.2833  0.7436 -1.2575
   94SAPE  C211 9303   5.434   0.267   5.570  0.6190 -0.0586  0.0603
   94SAPE  H11R 9304   5.543   0.282   5.575  0.6147  0.3283 -0.9323
   94SAPE  C212 9305   5.374   0.220   5.459 -0.6702  0.2631  1.1493
   94SAPE  H12R 9306   5.436   0.184   5.375 -0.7038  2.5672  0.0765
   94SAPE  C213 9307   5.231   0.213   5.430  0.3156  0.2400  0.3842
   94SAPE  H13R 9308   5.198   0.313   5.394  0.3488  0.4540  0.9423
   94SAPE  H13S 9309   5.171   0.205   5.523  0.2368  2.3080  0.5620
   94SAPE  C214 9310   5.196   0.124   5.317 -0.1835  0.3309  0.8026
   94SAPE  H14R 9311   5.154   0.028   5.353  0.0733 -0.1734 -0.2069
   94SAPE  C215 9312   5.215   0.140   5.188  0.4616 -0.4318 -0.6425
   94SAPE  H15R 9313   5.183   0.061   5.118 -1.1807  0.4908 -0.9684
   94SAPE  C216 9314   5.265   0.264   5.117  0.2236 -0.7230  0.2518
   94SAPE  H16R 9315   5.306   0.342   5.185  0.7997 -0.2739 -0.5888
   94SAPE  H16S 9316   5.187   0.323   5.065  1.0136  0.9833  0.8908
   94SAPE  C217 9317   5.370   0.245   5.007  0.1766  1.3549 -0.7584
   94SAPE  H17R 9318   5.420   0.340   4.978 -2.9359  3.3170 -0.2265
   94SAPE  H17S 9319   5.316   0.202   4.920  0.0255 -1.7067  0.6956
   94SAPE  C218 9320   5.487   0.150   5.040  0.7732  0.2393 -0.1191
   94SAPE  H18R 9321   5.466   0.047   5.076  0.9983  0.1214 -0.3196
   94SAPE  H18S 9322   5.545   0.200   5.120  2.0878  1.5883 -1.8520
   94SAPE  C219 9323   5.569   0.133   4.912  0.3440  0.3682 -0.3090
   94SAPE  H19R 9324   5.607   0.234   4.883 -2.1429  1.4923  0.0983
   94SAPE  H19S 9325   5.510   0.093   4.826 -0.8098  0.0056  0.6216
   94SAPE  C220 9326   5.689   0.036   4.932  1.4354  0.1448  0.1955
   94SAPE  H20R 9327   5.739   0.028   4.833  1.6086  1.3946  0.1646
   94SAPE  H20S 9328   5.652  -0.064   4.964 -1.8446  0.9406 -0.6619
   94SAPE  H20T 9329   5.765   0.079   5.001 -0.6076  1.8015  1.5554
   94SAPE   C33 9330   4.944   0.781   6.436  0.6183  0.1545  0.1833
   94SAPE   H3X 9331   4.964   0.678   6.400  1.1804 -0.1127  1.2322
   94SAPE   H3Y 9332   5.014   0.852   6.388 -1.1942  0.5829 -1.9902
   94SAPE   C34 9333   4.810   0.808   6.354 -0.1653  0.0219  0.2410
   94SAPE   H4X 9334   4.801   0.918   6.338 -0.1461  0.2372  1.5764
   94SAPE   H4Y 9335   4.724   0.767   6.410  0.7535 -1.6783  0.4667
   94SAPE   C35 9336   4.802   0.737   6.218 -0.2828  0.3489 -0.9575
   94SAPE   H5X 9337   4.700   0.766   6.183 -2.5264  1.9880  5.4485
   94SAPE   H5Y 9338   4.814   0.630   6.244 -2.1422  0.2704 -0.2575
   94SAPE   C36 9339   4.908   0.776   6.116  0.0713 -0.3392 -0.1759
   94SAPE   H6X 9340   4.996   0.739   6.173 -2.5472 -1.3538  3.5076
   94SAPE   H6Y 9341   4.912   0.887   6.104  1.7248 -0.1851  1.3307
   94SAPE   C37 9342   4.893   0.705   5.976 -0.3472 -0.7888 -0.0027
   94SAPE   H7X 9343   4.792   0.728   5.938  0.3997  0.0076 -1.5876
   94SAPE   H7Y 9344   4.897   0.595   5.986  1.2733 -0.6402  1.6785
   94SAPE   C38 9345   5.006   0.746   5.868  0.3912  0.1051 -0.2736
   94SAPE   H8X 9346   5.106   0.707   5.896  0.3946 -0.0363 -0.4797
   94SAPE   H8Y 9347   5.012   0.856   5.859  1.0035  0.0614 -0.4336
   94SAPE   C39 9348   4.968   0.706   5.725  0.7296 -0.3923  0.2888
   94SAPE   H9X 9349   5.026   0.773   5.658  0.6600  0.6529  1.2365
   94SAPE   H9Y 9350   4.863   0.713   5.690  0.6063 -0.7928  0.5734
   94SAPE  C310 9351   5.012   0.571   5.680 -0.2955  0.2944 -0.9166
   94SAPE  H10X 9352   4.953   0.492   5.732  0.4330  0.5355  0.3309
   94SAPE  H10Y 9353   5.115   0.564   5.721  1.0791 -2.3962 -4.3395
   94SAPE  C311 9354   5.014   0.555   5.531  0.3253 -0.5144 -0.3447
   94SAPE  H11X 9355   4.913   0.572   5.489 -0.4197 -0.5609  1.3478
   94SAPE  H11Y 9356   5.041   0.448   5.519 -0.0204 -0.7072  0.5404
   94SAPE  C312 9357   5.119   0.636   5.445  0.1316  0.1890  0.4094
   94SAPE  H12X 9358   5.074   0.737   5.433  1.2630  0.7408  0.7162
   94SAPE  H12Y 9359   5.132   0.583   5.348 -0.1951  1.1929 -0.2039
   94SAPE  C313 9360   5.253   0.666   5.500  0.2473  0.8619 -0.1101
   94SAPE  H13X 9361   5.296   0.575   5.546 -2.2000 -0.4216 -0.1703
   94SAPE  H13Y 9362   5.241   0.744   5.579  1.7081 -0.1611  1.1874
   94SAPE  C314 9363   5.368   0.716   5.404  0.1861 -0.3646 -0.3499
   94SAPE  H14X 9364   5.453   0.747   5.467  0.6435 -1.7644 -0.2310
   94SAPE  H14Y 9365   5.328   0.812   5.365 -1.3092  0.2376  2.4371
   94SAPE  C315 9366   5.416   0.619   5.309  0.5563 -0.2825  0.3943
   94SAPE  H15X 9367   5.335   0.577   5.245  0.5707 -0.2647  0.3650
   94SAPE  H15Y 9368   5.462   0.532   5.361  0.4789  0.3989  1.6270
   94SAPE  C316 9369   5.521   0.667   5.205  0.2467 -0.2270  0.0867
   94SAPE  H16X 9370   5.621   0.682   5.252 -0.5851 -2.1458  2.7148
   94SAPE  H16Y 9371   5.492   0.769   5.173 -1.4957  0.3699  3.1980
   94SAPE  C317 9372   5.518   0.585   5.074 -0.2274 -0.2170  0.2080
   94SAPE  H17X 9373   5.417   0.562   5.032  0.3803 -1.6213 -0.5579
   94SAPE  H17Y 9374   5.557   0.489   5.113  1.4665  0.6246  0.6828
   94SAPE  C318 9375   5.618   0.629   4.965  0.5573  0.0864  0.3609
   94SAPE  H18X 9376   5.579   0.576   4.876 -0.5140 -0.1608  0.9584
   94SAPE  H18Y 9377   5.722   0.601   4.990  0.6887  0.2726  0.0230
   94SAPE  H18Z 9378   5.617   0.739   4.945  1.8133 -0.4479 -3.4024
   95SAPE     N 9379   0.712   5.543   7.777  0.1105  0.6806 -0.0807
   95SAPE   HN1 9380   0.663   5.635   7.784 -4.0027 -1.3373  0.6256
   95SAPE   HN2 9381   0.650   5.483   7.719  1.7935 -0.0323 -1.2457
   95SAPE   HN3 9382   0.734   5.501   7.870  2.0221  0.8654 -0.4068
   95SAPE   C12 9383   0.830   5.563   7.695 -0.2369 -0.7055  0.4804
   95SAPE  H12A 9384   0.903   5.480   7.691  0.3261 -0.1740 -1.7469
   95SAPE  H12B 9385   0.881   5.658   7.724  0.1678 -0.8647  0.2934
   95SAPE   C11 9386   0.801   5.592   7.548 -0.0176 -0.4786  0.8210
   95SAPE  H11A 9387   0.767   5.497   7.503  0.5612 -0.4785  0.3752
   95SAPE  H11B 9388   0.898   5.608   7.495 -0.5209 -1.0229 -0.2844
   95SAPE     P 9389   0.654   5.720   7.376 -0.5967  0.2379 -0.0696
   95SAPE   O13 9390   0.507   5.746   7.393 -0.2416 -0.2550  0.1353
   95SAPE   O14 9391   0.743   5.833   7.333  0.5633  0.4525  0.0780
   95SAPE   O12 9392   0.714   5.696   7.522  0.5720  0.3756 -0.4084
   95SAPE   O11 9393   0.684   5.594   7.281  0.5138  0.2216  0.0844
   95SAPE    C1 9394   0.772   5.611   7.172 -0.1728  1.2553 -0.0896
   95SAPE    HA 9395   0.735   5.672   7.086 -2.2917  0.8533  0.4580
   95SAPE    HB 9396   0.866   5.651   7.214 -0.4027  0.0340  1.6927
   95SAPE    C2 9397   0.812   5.470   7.112 -0.3501 -0.7073  0.3353
   95SAPE    HS 9398   0.899   5.483   7.044 -0.7867 -1.0001 -0.2967
   95SAPE   O21 9399   0.707   5.416   7.035 -0.5215  0.5920 -0.1368
   95SAPE   C21 9400   0.689   5.482   6.921 -0.3628 -0.2000 -0.4539
   95SAPE   O22 9401   0.761   5.574   6.884 -0.0299  0.6734 -0.1715
   95SAPE   C22 9402   0.565   5.441   6.843 -0.3584  0.8174 -0.0789
   95SAPE   H2R 9403   0.484   5.401   6.908 -0.6396 -1.9525 -1.9682
   95SAPE   H2S 9404   0.534   5.541   6.804  1.9887  2.1405  1.2279
   95SAPE    C3 9405   0.856   5.374   7.217 -0.4098  0.4348 -0.0344
   95SAPE    HX 9406   0.763   5.351   7.273 -0.3512  1.7354  0.6342
   95SAPE    HY 9407   0.926   5.424   7.287 -0.1173  1.1244 -0.8063
   95SAPE   O31 9408   0.913   5.253   7.157 -0.3425 -0.1013 -0.2229
   95SAPE   C31 9409   0.855   5.139   7.146  0.1122 -0.0504 -0.1162
   95SAPE   O32 9410   0.754   5.101   7.205  0.2820  0.2333 -0.2441
   95SAPE   C32 9411   0.929   5.056   7.047  0.0242  0.2566  0.5117
   95SAPE   H2X 9412   0.897   4.951   7.062  0.3607  0.2365  1.1287
   95SAPE   H2Y 9413   1.039   5.044   7.059 -0.1316 -1.3214  0.5427
   95SAPE   C23 9414   0.588   5.340   6.730 -0.9088  0.7983 -0.1118
   95SAPE   H3R 9415   0.612   5.241   6.776 -0.1831  0.3581 -1.3873
   95SAPE   H3S 9416   0.666   5.378   6.661 -1.6721  1.3530 -0.6739
   95SAPE   C24 9417   0.454   5.320   6.661 -0.4981  0.2937 -0.6703
   95SAPE   H4R 9418   0.446   5.401   6.586 -1.2979  0.8768  0.0281
   95SAPE   H4S 9419   0.364   5.336   6.725 -1.1007 -0.3496 -1.3437
   95SAPE   C25 9420   0.430   5.188   6.591 -0.2928 -0.0525 -0.3403
   95SAPE   H5R 9421   0.379   5.111   6.651  1.8320 -0.4023  1.1389
   95SAPE   C26 9422   0.485   5.156   6.470 -0.0481 -0.5484 -0.0816
   95SAPE   H6R 9423   0.460   5.056   6.431 -1.9072  0.4462 -1.5792
   95SAPE   C27 9424   0.543   5.260   6.379 -0.0660 -0.0723 -0.0329
   95SAPE   H7R 9425   0.620   5.209   6.318  1.3611  0.4741  1.2448
   95SAPE   H7S 9426   0.588   5.348   6.431 -0.9299  0.6950 -0.5488
   95SAPE   C28 9427   0.439   5.323   6.294  0.3925 -0.2237  0.3093
   95SAPE   H8R 9428   0.384   5.410   6.335  0.4671  0.3517 -0.7726
   95SAPE   C29 9429   0.411   5.305   6.165  0.3922 -0.4574 -0.2735
   95SAPE   H9R 9430   0.328   5.361   6.118  1.4828  1.7171  0.2523
   95SAPE  C210 9431   0.482   5.217   6.070 -0.1882  0.0802  0.6819
   95SAPE  H10R 9432   0.415   5.179   5.991  2.0615 -1.3170 -0.6650
   95SAPE  H10S 9433   0.512   5.128   6.129  4.0413 -0.4484 -1.8555
   95SAPE  C211 9434   0.611   5.262   6.009 -0.7991 -0.1290  0.3610
   95SAPE  H11R 9435   0.693   5.248   6.080 -0.9079 -1.8233  0.1770
   95SAPE  C212 9436   0.633   5.315   5.886 -0.0013 -0.3689 -0.5724
   95SAPE  H12R 9437   0.737   5.334   5.856  1.2354  2.3198  4.4503
   95SAPE  C213 9438   0.531   5.327   5.772 -0.2132 -0.3420 -0.4122
   95SAPE  H13R 9439   0.563   5.417   5.714 -3.5753  0.7361 -0.8221
   95SAPE  H13S 9440   0.427   5.337   5.809 -0.2845 -2.8264  0.1992
   95SAPE  C214 9441   0.542   5.204   5.690  0.1788 -0.4586 -0.4948
   95SAPE  H14R 9442   0.635   5.145   5.694  0.4735  0.0215  2.7243
   95SAPE  C215 9443   0.452   5.176   5.594 -0.6543  0.2936  0.9033
   95SAPE  H15R 9444   0.461   5.082   5.537  1.2142  1.9770 -1.8324
   95SAPE  C216 9445   0.330   5.261   5.563 -0.2895 -0.3091 -0.1621
   95SAPE  H16R 9446   0.310   5.338   5.640 -0.6857  2.5669 -2.9222
   95SAPE  H16S 9447   0.236   5.204   5.554 -1.4303  1.6976 -1.7892
   95SAPE  C217 9448   0.361   5.337   5.435  0.7098 -0.0099  0.5405
   95SAPE  H17R 9449   0.353   5.265   5.350 -0.1343  2.8432 -1.9802
   95SAPE  H17S 9450   0.464   5.377   5.425 -0.0734  1.5997 -2.2526
   95SAPE  C218 9451   0.264   5.448   5.394  0.3715  0.5875 -0.0554
   95SAPE  H18R 9452   0.280   5.535   5.461 -0.2424  0.1700  0.6456
   95SAPE  H18S 9453   0.164   5.401   5.405  1.5130 -1.5548  1.9158
   95SAPE  C219 9454   0.279   5.482   5.244 -0.4686 -0.3876  0.4971
   95SAPE  H19R 9455   0.199   5.550   5.208  0.2058  1.5809  2.4982
   95SAPE  H19S 9456   0.274   5.390   5.181 -0.0387  0.1691 -0.3784
   95SAPE  C220 9457   0.413   5.551   5.217 -0.2720 -0.4635  0.8694
   95SAPE  H20R 9458   0.498   5.487   5.249  0.5543 -0.1481 -0.6269
   95SAPE  H20S 9459   0.413   5.651   5.265 -2.2197  0.1907 -0.3602
   95SAPE  H20T 9460   0.428   5.570   5.109  0.8714  0.6780  1.2188
   95SAPE   C33 9461   0.901   5.111   6.902  0.5561 -0.3123  0.1328
   95SAPE   H3X 9462   0.925   5.219   6.913  1.0002 -0.4321  0.3494
   95SAPE   H3Y 9463   0.796   5.088   6.872  1.2777 -1.9001 -1.3248
   95SAPE   C34 9464   0.989   5.046   6.797 -0.2463  0.1124  0.0036
   95SAPE   H4X 9465   0.950   4.944   6.779  1.8997 -0.5308 -1.3653
   95SAPE   H4Y 9466   1.096   5.026   6.823 -0.1698 -2.6021 -2.0051
   95SAPE   C35 9467   0.981   5.115   6.660 -0.5597  0.1160  0.6191
   95SAPE   H5X 9468   1.020   5.218   6.671 -6.0297  2.6475 -0.7075
   95SAPE   H5Y 9469   0.875   5.136   6.635  0.6212  1.3266 -4.2963
   95SAPE   C36 9470   1.036   5.032   6.542 -0.3664  0.2458 -0.5818
   95SAPE   H6X 9471   1.003   4.928   6.564  0.5370  0.4062  1.8503
   95SAPE   H6Y 9472   1.147   5.042   6.544  0.0808 -2.9897 -2.0739
   95SAPE   C37 9473   0.985   5.077   6.402  0.3599 -0.0737  0.4626
   95SAPE   H7X 9474   1.027   5.179   6.390 -3.2690  1.5477  0.2700
   95SAPE   H7Y 9475   0.874   5.083   6.407  0.2775 -1.6706  3.9591
   95SAPE   C38 9476   1.029   4.981   6.287 -0.0974 -0.2065  0.1867
   95SAPE   H8X 9477   0.999   4.878   6.316  1.8590 -0.7897  0.2664
   95SAPE   H8Y 9478   1.139   4.984   6.272 -0.3799 -0.9899 -2.7555
   95SAPE   C39 9479   0.965   5.013   6.146 -0.3998  0.1171  0.4273
   95SAPE   H9X 9480   1.002   5.116   6.127  0.3931  0.3117  2.6460
   95SAPE   H9Y 9481   0.856   4.999   6.161 -0.3450  0.4791  1.2779
   95SAPE  C310 9482   1.013   4.919   6.028  0.2358  0.1004  0.1092
   95SAPE  H10X 9483   1.005   4.814   6.064  1.4837  0.0116  0.1652
   95SAPE  H10Y 9484   1.117   4.947   6.002  0.0639 -0.5930 -1.3868
   95SAPE  C311 9485   0.927   4.946   5.914  0.4822 -0.3042  0.1861
   95SAPE  H11X 9486   0.910   5.056   5.916  2.0569 -0.0139 -0.4592
   95SAPE  H11Y 9487   0.836   4.883   5.910 -1.3431  2.1866  0.3085
   95SAPE  C312 9488   1.001   4.917   5.784 -0.3067 -0.5032  0.3388
   95SAPE  H12X 9489   1.025   4.809   5.781 -3.5083 -1.3075 -3.3171
   95SAPE  H12Y 9490   1.091   4.982   5.791 -1.7485  1.5925  0.6159
   95SAPE  C313 9491   0.923   4.956   5.649 -0.1460 -0.4632 -0.2564
   95SAPE  H13X 9492   0.863   5.047   5.670 -0.0148 -0.7069  1.3303
   95SAPE  H13Y 9493   0.858   4.869   5.623  2.0729 -2.2233 -0.2617
   95SAPE  C314 9494   1.017   4.968   5.534  0.3787  0.3569  0.0536
   95SAPE  H14X 9495   1.083   4.878   5.531  0.4739  0.3601  1.5646
   95SAPE  H14Y 9496   1.082   5.056   5.556 -0.1099  0.7216  0.0546
   95SAPE  C315 9497   0.938   4.974   5.395 -0.3632 -0.2534  0.0862
   95SAPE  H15X 9498   0.851   4.906   5.407 -1.5645  1.1752 -0.1011
   95SAPE  H15Y 9499   0.997   4.933   5.311 -1.1080 -3.5541  1.0496
   95SAPE  C316 9500   0.888   5.115   5.366  0.4655  0.2308 -0.2132
   95SAPE  H16X 9501   0.957   5.168   5.297 -1.2514  2.9607  0.0244
   95SAPE  H16Y 9502   0.884   5.177   5.458 -0.0964  0.5478 -0.4509
   95SAPE  C317 9503   0.753   5.106   5.297 -0.1509 -0.3402 -0.5251
   95SAPE  H17X 9504   0.678   5.072   5.371 -0.0487 -0.0592 -0.2914
   95SAPE  H17Y 9505   0.754   5.034   5.212 -3.6994  1.0862 -1.9799
   95SAPE  C318 9506   0.710   5.241   5.249 -0.0290  0.3476  0.1089
   95SAPE  H18X 9507   0.625   5.236   5.177 -0.9106 -0.0922  1.1656
   95SAPE  H18Y 9508   0.793   5.296   5.198 -2.0080  1.5341 -2.0500
   95SAPE  H18Z 9509   0.673   5.303   5.333  0.2144  2.0674 -1.0074
   96SAPE     N 9510   2.724   3.176   7.158  0.5445 -0.0627  0.2006
   96SAPE   HN1 9511   2.705   3.095   7.095 -0.4986 -1.1276  1.7914
   96SAPE   HN2 9512   2.686   3.152   7.252  1.0168 -0.7227  0.2316
   96SAPE   HN3 9513   2.669   3.260   7.134  2.2067  1.8721  2.6514
   96SAPE   C12 9514   2.867   3.216   7.169  0.1362  0.3714 -0.5556
   96SAPE  H12A 9515   2.933   3.128   7.155 -0.9131 -0.6726  0.7906
   96SAPE  H12B 9516   2.879   3.262   7.270 -0.4085 -0.8955  0.1009
   96SAPE   C11 9517   2.898   3.316   7.058 -0.1633 -0.2768 -0.1876
   96SAPE  H11A 9518   2.886   3.267   6.959  1.5902  0.7590 -0.9571
   96SAPE  H11B 9519   3.004   3.350   7.058  0.3471 -1.7820  1.1780
   96SAPE     P 9520   2.759   3.512   6.946 -0.2118  0.0590  0.1970
   96SAPE   O13 9521   2.624   3.571   6.978 -0.4001 -0.5145  0.1758
   96SAPE   O14 9522   2.863   3.608   6.919 -0.6315 -0.0103  0.0704
   96SAPE   O12 9523   2.813   3.432   7.071 -0.8660  0.1592  0.6690
   96SAPE   O11 9524   2.755   3.402   6.825  0.1872 -0.0085  0.1130
   96SAPE    C1 9525   2.644   3.369   6.747  0.2402  0.9117 -0.0935
   96SAPE    HA 9526   2.631   3.259   6.745 -2.4008  1.1155  1.4490
   96SAPE    HB 9527   2.550   3.401   6.796 -1.2698 -0.9037 -1.6534
   96SAPE    C2 9528   2.640   3.438   6.606 -0.2505  0.6302  0.7891
   96SAPE    HS 9529   2.716   3.388   6.542  0.7108  2.9067  0.0518
   96SAPE   O21 9530   2.677   3.571   6.623 -0.2274  0.1170 -0.2269
   96SAPE   C21 9531   2.803   3.610   6.590 -0.5823  0.2016 -0.4464
   96SAPE   O22 9532   2.894   3.532   6.569 -0.1963  0.6982 -0.3426
   96SAPE   C22 9533   2.819   3.762   6.612 -0.5796  0.3083  0.0814
   96SAPE   H2R 9534   2.717   3.797   6.642 -0.7805 -1.2627  1.3763
   96SAPE   H2S 9535   2.889   3.770   6.698 -1.4574 -1.4198  0.9966
   96SAPE    C3 9536   2.504   3.427   6.524  0.3091 -0.2636 -0.1978
   96SAPE    HX 9537   2.526   3.468   6.424 -0.0797  1.6397  0.4542
   96SAPE    HY 9538   2.439   3.498   6.581  1.3601 -0.6789  1.5875
   96SAPE   O31 9539   2.465   3.292   6.524  0.2104 -0.1502  0.1518
   96SAPE   C31 9540   2.399   3.250   6.415 -0.2395  0.5645  0.1682
   96SAPE   O32 9541   2.390   3.310   6.309  0.1381  0.4023 -0.0191
   96SAPE   C32 9542   2.323   3.114   6.443 -0.0268  0.2615  0.5669
   96SAPE   H2X 9543   2.228   3.135   6.497 -1.3098  0.5465 -1.6656
   96SAPE   H2Y 9544   2.387   3.049   6.507  0.4500 -0.0608 -0.2126
   96SAPE   C23 9545   2.877   3.837   6.493 -0.4875 -0.5083 -0.5180
   96SAPE   H3R 9546   2.968   3.783   6.459  1.0838  0.4560  1.8482
   96SAPE   H3S 9547   2.916   3.931   6.538 -0.2294 -0.8796  0.0408
   96SAPE   C24 9548   2.772   3.871   6.384 -1.0751  0.6698 -0.3696
   96SAPE   H4R 9549   2.830   3.924   6.305  1.8971  1.2339  1.9940
   96SAPE   H4S 9550   2.708   3.949   6.429 -1.7937 -0.9636  1.5820
   96SAPE   C25 9551   2.693   3.751   6.330 -0.1226 -0.1022  0.6318
   96SAPE   H5R 9552   2.594   3.733   6.374  1.0965 -1.4366  3.0889
   96SAPE   C26 9553   2.717   3.691   6.206  0.0932 -0.2205  0.1192
   96SAPE   H6R 9554   2.650   3.612   6.170 -0.5086  0.7118 -0.8640
   96SAPE   C27 9555   2.831   3.717   6.110 -0.2858 -0.9110 -0.4555
   96SAPE   H7R 9556   2.870   3.628   6.057 -1.9346 -0.4810 -2.5162
   96SAPE   H7S 9557   2.910   3.768   6.171 -1.4884  0.8460 -0.2785
   96SAPE   C28 9558   2.794   3.835   6.021 -0.8532 -0.3242 -0.0475
   96SAPE   H8R 9559   2.756   3.927   6.069  1.0071 -0.6162  2.1595
   96SAPE   C29 9560   2.806   3.833   5.886  0.8433  0.1122 -0.2250
   96SAPE   H9R 9561   2.769   3.920   5.830 -1.1406 -0.5225 -0.0088
   96SAPE  C210 9562   2.871   3.725   5.803  0.8392 -0.2694  0.4135
   96SAPE  H10R 9563   2.788   3.653   5.787  0.8009 -0.4547  1.3898
   96SAPE  H10S 9564   2.962   3.690   5.856  0.9438  2.4016  2.1907
   96SAPE  C211 9565   2.924   3.765   5.663  0.1085  0.4283 -1.1860
   96SAPE  H11R 9566   3.032   3.745   5.663 -0.1854 -2.6423  3.1695
   96SAPE  C212 9567   2.858   3.792   5.551 -0.2118  0.3817  0.3783
   96SAPE  H12R 9568   2.917   3.821   5.462  2.9136 -0.5314  2.0142
   96SAPE  C213 9569   2.709   3.792   5.528 -0.2124  0.6961 -0.2419
   96SAPE  H13R 9570   2.681   3.867   5.452 -0.7832  1.3979  0.6326
   96SAPE  H13S 9571   2.655   3.816   5.622 -2.8524  1.8694 -1.9634
   96SAPE  C214 9572   2.671   3.647   5.495 -0.3267 -0.2243  0.1270
   96SAPE  H14R 9573   2.737   3.571   5.539 -0.1171  0.1055  0.3826
   96SAPE  C215 9574   2.565   3.610   5.421  0.3856 -0.4187 -0.4200
   96SAPE  H15R 9575   2.552   3.502   5.406  0.1520 -0.8239  2.1606
   96SAPE  C216 9576   2.472   3.703   5.353  0.8702 -0.7678  0.6269
   96SAPE  H16R 9577   2.512   3.724   5.252  0.4118 -2.0780  0.1473
   96SAPE  H16S 9578   2.484   3.802   5.403 -0.0359  0.9975 -2.3929
   96SAPE  C217 9579   2.329   3.653   5.358  0.3962 -0.1970 -0.9567
   96SAPE  H17R 9580   2.269   3.746   5.344 -0.2285 -0.5200 -0.4651
   96SAPE  H17S 9581   2.305   3.614   5.459  0.2199  2.3832  0.0724
   96SAPE  C218 9582   2.283   3.540   5.260  0.1212  0.7747 -0.0609
   96SAPE  H18R 9583   2.346   3.448   5.268 -0.0246  0.4545 -2.0526
   96SAPE  H18S 9584   2.288   3.574   5.155  0.7379  1.5997  0.2262
   96SAPE  C219 9585   2.134   3.502   5.279 -0.1221  0.3737  1.0287
   96SAPE  H19R 9586   2.118   3.446   5.373 -0.1680  1.3959  1.6428
   96SAPE  H19S 9587   2.106   3.427   5.202  0.9614 -1.2010  2.1109
   96SAPE  C220 9588   2.041   3.618   5.254  0.0252 -0.1608  0.2397
   96SAPE  H20R 9589   1.932   3.597   5.259  0.3589 -1.7199  2.1352
   96SAPE  H20S 9590   2.063   3.646   5.149 -1.5679  0.5446  0.0745
   96SAPE  H20T 9591   2.066   3.702   5.322  0.5547 -0.3780  0.3193
   96SAPE   C33 9592   2.292   3.032   6.319  0.9313  0.0972 -0.4616
   96SAPE   H3X 9593   2.235   3.097   6.249  3.0895  0.0691 -2.3487
   96SAPE   H3Y 9594   2.230   2.942   6.338  1.5120 -0.3941 -0.8772
   96SAPE   C34 9595   2.416   2.971   6.250  1.3122 -0.5224 -0.9117
   96SAPE   H4X 9596   2.489   2.940   6.328  1.3863 -2.3967 -1.6593
   96SAPE   H4Y 9597   2.475   3.046   6.194 -1.1223  0.9156 -1.6967
   96SAPE   C35 9598   2.390   2.849   6.162 -0.3004 -0.1612  0.4804
   96SAPE   H5X 9599   2.360   2.762   6.224 -0.2183 -1.1535 -0.8298
   96SAPE   H5Y 9600   2.484   2.814   6.113  0.9305 -0.3406  2.8227
   96SAPE   C36 9601   2.287   2.877   6.055 -0.4495  0.5345  0.1904
   96SAPE   H6X 9602   2.307   2.971   5.998 -0.3543  0.5139  0.1906
   96SAPE   H6Y 9603   2.190   2.892   6.108 -1.4201  1.0417 -1.6256
   96SAPE   C37 9604   2.269   2.769   5.949  0.1221 -0.1986  0.1036
   96SAPE   H7X 9605   2.220   2.678   5.991 -2.9294  0.0947 -2.4474
   96SAPE   H7Y 9606   2.359   2.730   5.898  0.3943 -0.1484  0.5430
   96SAPE   C38 9607   2.163   2.823   5.851  0.1945  0.3382  0.5717
   96SAPE   H8X 9608   2.206   2.917   5.812  0.1899 -0.6074 -1.9542
   96SAPE   H8Y 9609   2.067   2.844   5.902  1.3262  0.3397  2.8087
   96SAPE   C39 9610   2.143   2.724   5.736 -0.7635 -0.2258 -0.1028
   96SAPE   H9X 9611   2.050   2.746   5.680 -0.6381 -0.0236 -0.2346
   96SAPE   H9Y 9612   2.120   2.626   5.781 -2.3724  0.6881  1.1401
   96SAPE  C310 9613   2.254   2.723   5.632  0.0628  0.6090  0.5263
   96SAPE  H10X 9614   2.352   2.730   5.685  0.6710  0.1401 -0.5128
   96SAPE  H10Y 9615   2.254   2.820   5.578 -0.5239  0.0756 -0.4560
   96SAPE  C311 9616   2.249   2.600   5.544  0.0470 -0.0548  0.3435
   96SAPE  H11X 9617   2.143   2.586   5.514  0.3093 -1.1287 -0.1485
   96SAPE  H11Y 9618   2.275   2.509   5.602  0.3646 -0.4282 -0.3684
   96SAPE  C312 9619   2.352   2.589   5.424  0.3365 -0.6875  0.2688
   96SAPE  H12X 9620   2.363   2.479   5.414 -0.6234 -0.7649 -0.0751
   96SAPE  H12Y 9621   2.449   2.636   5.449  1.2903 -1.1136 -2.3397
   96SAPE  C313 9622   2.306   2.639   5.289  0.3912  0.7971 -0.1111
   96SAPE  H13X 9623   2.218   2.584   5.248  0.4400  0.3105  0.4224
   96SAPE  H13Y 9624   2.395   2.614   5.228  0.0290  0.1426 -0.3728
   96SAPE  C314 9625   2.266   2.782   5.301  0.1842 -0.4600  0.0083
   96SAPE  H14X 9626   2.324   2.833   5.381 -1.2571  1.4154 -0.0693
   96SAPE  H14Y 9627   2.164   2.779   5.345  0.6227 -0.3797  1.0767
   96SAPE  C315 9628   2.268   2.870   5.173  0.3444  0.0357  0.8324
   96SAPE  H15X 9629   2.220   2.806   5.096 -0.4076 -0.0732  1.3914
   96SAPE  H15Y 9630   2.377   2.878   5.150  0.3614  0.1076  0.9384
   96SAPE  C316 9631   2.191   3.006   5.163 -0.0237  0.0837 -0.7264
   96SAPE  H16X 9632   2.240   3.087   5.220  0.8638 -1.9632  1.6353
   96SAPE  H16Y 9633   2.095   3.001   5.218  1.2275  0.9311  1.6731
   96SAPE  C317 9634   2.167   3.054   5.022  0.2638  0.2710  0.1527
   96SAPE  H17X 9635   2.110   3.150   5.028  0.9130  0.5645  2.1651
   96SAPE  H17Y 9636   2.100   2.972   4.988 -1.1042  1.8291 -1.1331
   96SAPE  C318 9637   2.289   3.077   4.932 -0.7122  0.5201 -0.3519
   96SAPE  H18X 9638   2.363   3.138   4.989 -1.9298  0.7527  1.0391
   96SAPE  H18Y 9639   2.262   3.143   4.846  0.8870  0.8603 -0.6340
   96SAPE  H18Z 9640   2.332   2.984   4.889  0.0496  0.1785  1.1099
   97SAPE     N 9641   2.770   3.876   7.097  0.2280 -0.0359 -0.1000
   97SAPE   HN1 9642   2.689   3.812   7.080  0.0257  0.2683 -0.3194
   97SAPE   HN2 9643   2.854   3.830   7.135  0.0399 -0.1007  0.2433
   97SAPE   HN3 9644   2.731   3.943   7.166 -1.3415  0.3953 -1.3151
   97SAPE   C12 9645   2.810   3.951   6.974  0.7641 -0.1850  0.2328
   97SAPE  H12A 9646   2.849   3.880   6.897  1.6227  0.6213 -0.0919
   97SAPE  H12B 9647   2.883   4.030   7.002  2.0691 -1.0867 -0.5344
   97SAPE   C11 9648   2.681   4.022   6.915  0.4447  0.2323  0.8641
   97SAPE  H11A 9649   2.706   4.060   6.813  0.6941  1.9997  1.5332
   97SAPE  H11B 9650   2.648   4.109   6.976  0.1805 -0.8589  2.3081
   97SAPE     P 9651   2.428   3.967   6.903  0.0125 -0.1987 -0.6625
   97SAPE   O13 9652   2.349   3.848   6.916  0.4585  0.4108 -0.4061
   97SAPE   O14 9653   2.420   4.068   7.011 -0.3976 -0.2007 -0.4923
   97SAPE   O12 9654   2.575   3.925   6.914  0.1939  0.5755 -0.4902
   97SAPE   O11 9655   2.411   4.028   6.763  0.1831 -0.0142 -0.2088
   97SAPE    C1 9656   2.395   3.941   6.646 -0.6578 -0.3757  0.5635
   97SAPE    HA 9657   2.440   3.996   6.561  0.8339 -1.0045  0.9119
   97SAPE    HB 9658   2.453   3.847   6.656  2.1664  1.2246  0.3689
   97SAPE    C2 9659   2.251   3.923   6.614  0.4242  0.4755  0.3289
   97SAPE    HS 9660   2.196   3.884   6.703  1.6063 -0.9601  0.4753
   97SAPE   O21 9661   2.252   3.840   6.493  0.1854 -0.0919 -0.1226
   97SAPE   C21 9662   2.134   3.784   6.476 -0.2416  0.0297 -0.5572
   97SAPE   O22 9663   2.041   3.774   6.553 -0.3386 -0.1534 -0.1108
   97SAPE   C22 9664   2.131   3.722   6.334  0.3176 -0.3867 -1.0589
   97SAPE   H2R 9665   2.069   3.631   6.345  0.2210 -0.1089  1.2164
   97SAPE   H2S 9666   2.076   3.798   6.275  1.9717  0.0680 -2.0858
   97SAPE    C3 9667   2.180   4.060   6.578  0.2131  0.1891 -0.1793
   97SAPE    HX 9668   2.190   4.111   6.676  0.6448  0.2957 -0.2747
   97SAPE    HY 9669   2.073   4.046   6.554  0.8842 -3.3639 -1.7537
   97SAPE   O31 9670   2.247   4.134   6.479 -0.8868  0.4912 -0.5146
   97SAPE   C31 9671   2.203   4.118   6.355  0.2577 -0.1041 -0.4538
   97SAPE   O32 9672   2.102   4.053   6.326 -0.2911 -0.2404 -0.1468
   97SAPE   C32 9673   2.290   4.190   6.251  0.3891 -0.1366 -0.5003
   97SAPE   H2X 9674   2.391   4.149   6.271 -0.5902 -2.1823  0.5456
   97SAPE   H2Y 9675   2.282   4.299   6.271  0.1447 -0.2611  0.1055
   97SAPE   C23 9676   2.273   3.681   6.281  1.0531  0.5912 -0.5314
   97SAPE   H3R 9677   2.263   3.586   6.224  1.1250  0.2399  0.0426
   97SAPE   H3S 9678   2.341   3.666   6.367 -0.5301  1.3339  0.9055
   97SAPE   C24 9679   2.332   3.774   6.187  0.0342  0.3442 -0.8027
   97SAPE   H4R 9680   2.440   3.748   6.179 -0.3270 -0.7280 -2.5581
   97SAPE   H4S 9681   2.339   3.880   6.221  2.5141 -0.3379  1.1854
   97SAPE   C25 9682   2.272   3.786   6.050  0.4012  0.0594 -0.6722
   97SAPE   H5R 9683   2.171   3.831   6.048  0.7800  0.9352 -0.4585
   97SAPE   C26 9684   2.314   3.717   5.937 -0.5949  0.4039 -0.3926
   97SAPE   H6R 9685   2.258   3.731   5.844  0.2271  0.8589 -0.8223
   97SAPE   C27 9686   2.436   3.631   5.937 -0.3498  0.1400  0.0612
   97SAPE   H7R 9687   2.418   3.548   6.008 -0.1384  0.3043  0.3130
   97SAPE   H7S 9688   2.525   3.692   5.967 -0.8053 -0.3208  2.5637
   97SAPE   C28 9689   2.457   3.581   5.796  0.2535  0.5532  0.5643
   97SAPE   H8R 9690   2.440   3.653   5.715 -0.3156  0.8525  0.9398
   97SAPE   C29 9691   2.492   3.456   5.757  0.1888  0.2403 -0.2068
   97SAPE   H9R 9692   2.504   3.440   5.649  0.5268  0.9367 -0.2773
   97SAPE  C210 9693   2.546   3.344   5.845  0.0309  0.1096  0.1827
   97SAPE  H10R 9694   2.541   3.379   5.950 -0.2874  0.6197  0.0028
   97SAPE  H10S 9695   2.654   3.334   5.823 -0.0679  1.5690 -1.1992
   97SAPE  C211 9696   2.483   3.213   5.820 -0.2106  0.6245 -0.1725
   97SAPE  H11R 9697   2.419   3.173   5.901  0.4045  0.2827  0.1533
   97SAPE  C212 9698   2.501   3.131   5.716 -0.3557  0.7137  0.3618
   97SAPE  H12R 9699   2.446   3.036   5.713  0.5409  0.1728  0.5874
   97SAPE  C213 9700   2.584   3.155   5.592 -0.4562  0.5833 -0.0496
   97SAPE  H13R 9701   2.623   3.063   5.542  0.3796  0.6080  0.5276
   97SAPE  H13S 9702   2.679   3.208   5.616  0.2115  0.5295 -2.2759
   97SAPE  C214 9703   2.515   3.236   5.481  0.3241  0.8203  0.5647
   97SAPE  H14R 9704   2.447   3.318   5.506  0.5191  0.9323  0.7257
   97SAPE  C215 9705   2.531   3.219   5.345  0.0341  0.3011  0.4294
   97SAPE  H15R 9706   2.480   3.291   5.279 -0.9351 -0.0223  0.8111
   97SAPE  C216 9707   2.603   3.104   5.281 -0.0095  0.0863  0.1534
   97SAPE  H16R 9708   2.561   3.066   5.186 -1.8264  3.6149 -0.6336
   97SAPE  H16S 9709   2.614   3.015   5.347 -0.0654  0.6394  0.9172
   97SAPE  C217 9710   2.745   3.159   5.259  0.1420  0.2090  0.7611
   97SAPE  H17R 9711   2.787   3.203   5.352 -1.1661  0.9464  1.0319
   97SAPE  H17S 9712   2.755   3.248   5.193  2.9793  1.1614  2.2723
   97SAPE  C218 9713   2.853   3.059   5.210 -0.0043 -0.2475 -0.0476
   97SAPE  H18R 9714   2.856   2.976   5.284 -2.5191 -1.3737 -1.0906
   97SAPE  H18S 9715   2.953   3.106   5.219  0.3643 -1.4304  3.8710
   97SAPE  C219 9716   2.822   2.990   5.079 -0.0718 -0.1232  0.4122
   97SAPE  H19R 9717   2.828   3.061   4.993  3.4697 -1.4763 -0.6370
   97SAPE  H19S 9718   2.721   2.943   5.090  0.3197 -0.7300  1.4572
   97SAPE  C220 9719   2.927   2.883   5.047  0.7020  0.4062  0.1880
   97SAPE  H20R 9720   2.932   2.815   5.134 -0.4488  1.2812  0.9709
   97SAPE  H20S 9721   3.027   2.925   5.024  0.9116 -0.3745 -0.3724
   97SAPE  H20T 9722   2.889   2.830   4.957  1.7784 -1.2276  0.6607
   97SAPE   C33 9723   2.249   4.174   6.107  0.2369  0.3433  0.2902
   97SAPE   H3X 9724   2.147   4.211   6.085 -0.7280 -3.0237 -1.6768
   97SAPE   H3Y 9725   2.251   4.067   6.078  2.0260  0.4111  0.0556
   97SAPE   C34 9726   2.347   4.251   6.016 -0.2047 -0.2375 -0.7638
   97SAPE   H4X 9727   2.454   4.241   6.042  0.1775  0.6164 -1.9021
   97SAPE   H4Y 9728   2.328   4.361   6.019  2.0687  0.2005  1.5549
   97SAPE   C35 9729   2.339   4.216   5.867  0.8618 -0.4219 -0.6572
   97SAPE   H5X 9730   2.405   4.290   5.816 -0.8443  1.5462 -0.1450
   97SAPE   H5Y 9731   2.232   4.232   5.843  0.9941  3.0254  0.5513
   97SAPE   C36 9732   2.395   4.081   5.827 -0.5251  0.2847  0.3324
   97SAPE   H6X 9733   2.329   4.003   5.871 -0.5733 -1.0580 -1.9459
   97SAPE   H6Y 9734   2.497   4.075   5.871 -0.6130 -1.2256  0.3815
   97SAPE   C37 9735   2.401   4.065   5.673  0.1963 -0.2922 -0.7493
   97SAPE   H7X 9736   2.303   4.105   5.639 -0.0081 -1.7201 -1.9624
   97SAPE   H7Y 9737   2.394   3.956   5.649 -0.3321 -0.2719 -0.7049
   97SAPE   C38 9738   2.530   4.130   5.612  0.4616  0.3663 -0.2125
   97SAPE   H8X 9739   2.580   4.058   5.543 -0.7198 -2.6176  1.8166
   97SAPE   H8Y 9740   2.598   4.151   5.697  0.2207  2.2651 -0.4490
   97SAPE   C39 9741   2.504   4.258   5.536  0.2300 -0.2478 -0.4429
   97SAPE   H9X 9742   2.493   4.341   5.609  3.4441 -1.6778  1.8690
   97SAPE   H9Y 9743   2.416   4.256   5.468  0.6161  0.9896 -1.0235
   97SAPE  C310 9744   2.622   4.284   5.443  0.3581  0.0329 -0.5077
   97SAPE  H10X 9745   2.709   4.250   5.502 -1.0585 -0.8054  1.2234
   97SAPE  H10Y 9746   2.642   4.392   5.423  0.0383  0.1072 -0.4464
   97SAPE  C311 9747   2.612   4.214   5.307  0.2669  0.2314 -0.0740
   97SAPE  H11X 9748   2.538   4.279   5.255 -1.5169  0.2063  2.2696
   97SAPE  H11Y 9749   2.580   4.108   5.318 -2.0126  0.8485 -0.2528
   97SAPE  C312 9750   2.740   4.236   5.231 -0.9388 -0.3941  0.2307
   97SAPE  H12X 9751   2.819   4.180   5.285  0.9383  0.1523 -1.7999
   97SAPE  H12Y 9752   2.752   4.347   5.238  0.2109 -0.6219  4.1318
   97SAPE  C313 9753   2.723   4.192   5.084  0.6667 -0.2638 -0.0400
   97SAPE  H13X 9754   2.661   4.276   5.045  0.2194 -0.8431 -0.5947
   97SAPE  H13Y 9755   2.662   4.099   5.085  0.1604  0.0396  1.9340
   97SAPE  C314 9756   2.855   4.183   5.009 -0.4178 -0.6475 -0.1630
   97SAPE  H14X 9757   2.907   4.277   5.037 -0.5454 -0.9143  1.0240
   97SAPE  H14Y 9758   2.853   4.186   4.898  1.3546  0.6274 -0.2062
   97SAPE  C315 9759   2.945   4.071   5.053  0.2247  0.3550  0.2502
   97SAPE  H15X 9760   2.886   3.977   5.045 -1.9474  1.6133  0.5487
   97SAPE  H15Y 9761   2.968   4.091   5.160 -0.4832 -1.9738  0.8895
   97SAPE  C316 9762   3.072   4.070   4.970  0.2693 -0.3867  1.1021
   97SAPE  H16X 9763   3.127   4.165   4.989  0.3497 -0.0550 -0.6508
   97SAPE  H16Y 9764   3.048   4.060   4.862  1.6610 -1.7962  0.8906
   97SAPE  C317 9765   3.166   3.951   4.999  0.3790 -0.1052  0.4442
   97SAPE  H17X 9766   3.244   3.972   5.075 -0.8946 -1.0687  2.0908
   97SAPE  H17Y 9767   3.225   3.934   4.907  0.0836  0.3012  0.1776
   97SAPE  C318 9768   3.086   3.823   5.032 -0.1472 -0.4663 -0.1688
   97SAPE  H18X 9769   3.149   3.732   5.034 -0.6092 -1.0152 -3.9351
   97SAPE  H18Y 9770   2.999   3.813   4.965 -1.5106  2.6587  0.9325
   97SAPE  H18Z 9771   3.049   3.827   5.137  0.4631 -0.0717  0.0373
   98SAPE     N 9772   3.136   4.175   6.953  0.4109  0.2375  0.3892
   98SAPE   HN1 9773   3.127   4.096   7.020  2.1235 -0.4994 -0.2146
   98SAPE   HN2 9774   3.065   4.250   6.967  0.0977 -0.0552  0.3706
   98SAPE   HN3 9775   3.128   4.136   6.857 -2.0554 -2.2569  1.4863
   98SAPE   C12 9776   3.267   4.243   6.986  0.5015  0.5194 -0.2133
   98SAPE  H12A 9777   3.283   4.318   6.906  0.4817  0.1093 -0.6035
   98SAPE  H12B 9778   3.344   4.164   7.002 -2.1686 -1.8465  2.2164
   98SAPE   C11 9779   3.268   4.322   7.121 -0.2114 -0.5454 -0.3690
   98SAPE  H11A 9780   3.369   4.356   7.151 -0.9652  1.1565  0.3655
   98SAPE  H11B 9781   3.244   4.261   7.211  0.0099 -2.7730 -1.7574
   98SAPE     P 9782   3.181   4.576   7.105  0.0430 -0.5093  0.3455
   98SAPE   O13 9783   3.053   4.637   7.134 -0.3409 -0.3309 -0.8266
   98SAPE   O14 9784   3.295   4.619   7.181 -0.4629 -0.2900  0.4746
   98SAPE   O12 9785   3.167   4.421   7.116  0.0564 -0.1833  0.0877
   98SAPE   O11 9786   3.209   4.584   6.949  0.2121 -0.4216 -0.0631
   98SAPE    C1 9787   3.099   4.587   6.852  0.1075 -0.4581  0.4553
   98SAPE    HA 9788   3.010   4.522   6.866 -0.7709  0.5373 -0.3005
   98SAPE    HB 9789   3.068   4.693   6.844  1.5967  0.0092  0.6090
   98SAPE    C2 9790   3.148   4.534   6.709 -0.3382 -0.6387 -0.0829
   98SAPE    HS 9791   3.149   4.423   6.709 -1.5270 -0.6645 -0.0339
   98SAPE   O21 9792   3.278   4.606   6.696 -0.1883 -0.0609  0.1273
   98SAPE   C21 9793   3.370   4.531   6.656  0.1956  0.1161  0.1514
   98SAPE   O22 9794   3.367   4.411   6.643 -0.4071  1.1167 -0.6029
   98SAPE   C22 9795   3.479   4.619   6.601 -0.4756  0.7134 -0.6599
   98SAPE   H2R 9796   3.426   4.691   6.537 -1.0706  0.1595 -0.8007
   98SAPE   H2S 9797   3.518   4.679   6.687 -1.8374  1.2610 -0.3999
   98SAPE    C3 9798   3.049   4.563   6.593  0.1929 -0.1299  0.9649
   98SAPE    HX 9799   2.966   4.490   6.585 -0.9814  1.3544 -1.8440
   98SAPE    HY 9800   3.112   4.530   6.508 -1.7383 -0.1585 -0.5224
   98SAPE   O31 9801   3.002   4.701   6.562 -0.0442 -0.2706 -0.7697
   98SAPE   C31 9802   2.876   4.725   6.606 -0.1473  0.4581 -0.6663
   98SAPE   O32 9803   2.805   4.642   6.662 -0.3953 -0.3495 -0.2060
   98SAPE   C32 9804   2.842   4.871   6.571 -0.5347  0.7000 -0.4316
   98SAPE   H2X 9805   2.887   4.890   6.472  2.6307  0.0099  0.7690
   98SAPE   H2Y 9806   2.885   4.929   6.655 -0.0390  0.4647 -0.5218
   98SAPE   C23 9807   3.591   4.541   6.528  0.0978  0.3170  0.4202
   98SAPE   H3R 9808   3.541   4.478   6.452  0.3684  0.0734  0.4448
   98SAPE   H3S 9809   3.630   4.462   6.595  1.3910 -0.1661 -0.8546
   98SAPE   C24 9810   3.698   4.632   6.468 -0.2239  0.0247 -0.7750
   98SAPE   H4R 9811   3.719   4.722   6.530  1.2748 -0.2153 -0.8976
   98SAPE   H4S 9812   3.659   4.652   6.365 -0.5011  2.1820 -0.3031
   98SAPE   C25 9813   3.828   4.555   6.466  0.2354 -0.5331  0.7484
   98SAPE   H5R 9814   3.870   4.523   6.562  0.6711  0.3188  0.8473
   98SAPE   C26 9815   3.903   4.528   6.358 -0.0911 -0.5405  0.2513
   98SAPE   H6R 9816   3.998   4.477   6.382  0.7897  0.9057  0.0011
   98SAPE   C27 9817   3.894   4.582   6.214  0.3764  0.3916  0.5102
   98SAPE   H7R 9818   3.926   4.687   6.195  3.6333 -0.6554 -0.3895
   98SAPE   H7S 9819   3.790   4.570   6.177  0.6996 -1.0820  0.0196
   98SAPE   C28 9820   3.967   4.490   6.118 -0.3246  0.2079  0.4171
   98SAPE   H8R 9821   3.997   4.389   6.150 -0.3591  0.0922  0.0867
   98SAPE   C29 9822   3.994   4.524   5.996 -0.3142 -0.3920  0.0623
   98SAPE   H9R 9823   4.057   4.464   5.929  1.0302  0.6375  0.3427
   98SAPE  C210 9824   3.949   4.648   5.921  0.2442  0.1667  0.4891
   98SAPE  H10R 9825   4.037   4.703   5.882  0.2494  2.1020  2.9839
   98SAPE  H10S 9826   3.902   4.721   5.991  0.9414  1.2887 -0.1771
   98SAPE  C211 9827   3.858   4.606   5.810  0.0426  0.2527  0.9764
   98SAPE  H11R 9828   3.782   4.535   5.844  0.2101  0.3565  1.5982
   98SAPE  C212 9829   3.866   4.647   5.685 -0.1952 -0.3193  0.5330
   98SAPE  H12R 9830   3.791   4.615   5.611 -2.2908  0.0972  2.3881
   98SAPE  C213 9831   3.972   4.742   5.636 -0.0151  0.0667 -0.3017
   98SAPE  H13R 9832   4.059   4.682   5.604  1.8750  1.5978  1.6623
   98SAPE  H13S 9833   3.994   4.816   5.717 -0.5658 -0.3797  0.2635
   98SAPE  C214 9834   3.926   4.828   5.522  0.2667  0.5530  0.5767
   98SAPE  H14R 9835   3.819   4.854   5.518  0.0631 -0.4007 -1.1677
   98SAPE  C215 9836   4.010   4.889   5.436  0.3669 -0.0557 -0.4535
   98SAPE  H15R 9837   3.972   4.949   5.352 -2.6369 -0.3951  0.5661
   98SAPE  C216 9838   4.157   4.848   5.417  0.3025 -0.3513 -0.6182
   98SAPE  H16R 9839   4.160   4.793   5.320 -0.3477  1.5896 -1.8124
   98SAPE  H16S 9840   4.196   4.793   5.505  1.2425  2.3980  0.7988
   98SAPE  C217 9841   4.251   4.969   5.393 -0.4404 -0.1675 -0.2013
   98SAPE  H17R 9842   4.247   5.038   5.480  2.1651  3.8584 -2.8884
   98SAPE  H17S 9843   4.210   5.033   5.312 -1.5296  0.1938  0.6261
   98SAPE  C218 9844   4.402   4.944   5.363 -0.2363 -0.5833  0.3894
   98SAPE  H18R 9845   4.419   4.880   5.274 -1.7122  1.2824 -1.3250
   98SAPE  H18S 9846   4.440   4.886   5.450 -2.3063  2.0388  3.2620
   98SAPE  C219 9847   4.489   5.073   5.357  0.1532 -0.6096  0.0087
   98SAPE  H19R 9848   4.597   5.044   5.352  0.2446 -0.3070  0.2128
   98SAPE  H19S 9849   4.474   5.129   5.452 -3.2000 -0.2455 -0.6117
   98SAPE  C220 9850   4.460   5.161   5.239 -0.2683 -0.3952  0.2060
   98SAPE  H20R 9851   4.499   5.113   5.146 -0.7028  3.2500 -2.0904
   98SAPE  H20S 9852   4.513   5.259   5.243  1.1480 -1.1209 -0.1367
   98SAPE  H20T 9853   4.354   5.193   5.226  0.6657  2.5941 -1.1214
   98SAPE   C33 9854   2.694   4.895   6.574  0.7708 -0.3494  0.2376
   98SAPE   H3X 9855   2.681   5.005   6.567  0.1480 -0.3122  1.6831
   98SAPE   H3Y 9856   2.646   4.864   6.670  1.5026  0.8430  1.0131
   98SAPE   C34 9857   2.614   4.845   6.448 -0.2177 -0.1529 -0.3976
   98SAPE   H4X 9858   2.622   4.736   6.428  3.3904  0.0613 -0.6853
   98SAPE   H4Y 9859   2.666   4.898   6.365  3.1671  2.8169  3.2574
   98SAPE   C35 9860   2.462   4.874   6.456 -0.2463  0.0385  0.3250
   98SAPE   H5X 9861   2.446   4.983   6.444  2.9676  0.5030 -1.0103
   98SAPE   H5Y 9862   2.427   4.836   6.554  1.0108  2.4979  1.8183
   98SAPE   C36 9863   2.377   4.794   6.355 -0.3229  0.7928  0.0842
   98SAPE   H6X 9864   2.270   4.805   6.384 -0.6188 -2.2371  0.4262
   98SAPE   H6Y 9865   2.405   4.687   6.355 -0.1471  0.8214  1.5319
   98SAPE   C37 9866   2.387   4.850   6.218 -0.1790 -0.2253  0.2547
   98SAPE   H7X 9867   2.493   4.863   6.186 -0.8479 -2.0699 -3.2004
   98SAPE   H7Y 9868   2.331   4.946   6.212 -1.2159 -0.8670 -0.8012
   98SAPE   C38 9869   2.333   4.749   6.113 -0.0238 -0.0493 -0.1727
   98SAPE   H8X 9870   2.224   4.729   6.124  0.2953 -0.7010  2.3160
   98SAPE   H8Y 9871   2.388   4.652   6.113 -0.6269 -0.3953 -0.0903
   98SAPE   C39 9872   2.368   4.809   5.974 -0.9237 -0.0262 -0.8149
   98SAPE   H9X 9873   2.477   4.824   5.961 -0.7632 -0.9880 -0.6298
   98SAPE   H9Y 9874   2.316   4.906   5.959  1.1492  1.2661  0.0441
   98SAPE  C310 9875   2.335   4.697   5.874  0.5976  0.3664 -0.1863
   98SAPE  H10X 9876   2.244   4.644   5.909 -0.4860  1.5657 -1.0761
   98SAPE  H10Y 9877   2.423   4.630   5.870 -1.0541 -1.9003 -0.2222
   98SAPE  C311 9878   2.322   4.757   5.729 -0.2616 -0.0259  0.2958
   98SAPE  H11X 9879   2.405   4.829   5.715  0.5340 -1.0001 -0.1479
   98SAPE  H11Y 9880   2.232   4.821   5.719 -1.1168 -1.1430  0.5712
   98SAPE  C312 9881   2.328   4.643   5.621  0.5699 -0.7379 -0.1775
   98SAPE  H12X 9882   2.229   4.593   5.630 -0.2717  0.8632 -0.1477
   98SAPE  H12Y 9883   2.399   4.563   5.649 -1.6577 -2.0452  2.2753
   98SAPE  C313 9884   2.338   4.698   5.478 -0.5177 -0.3551  1.0678
   98SAPE  H13X 9885   2.435   4.750   5.462  0.1819 -1.6919  0.7488
   98SAPE  H13Y 9886   2.254   4.766   5.454 -0.2090 -1.0536 -2.5987
   98SAPE  C314 9887   2.339   4.578   5.374  0.1012  0.0376 -0.7012
   98SAPE  H14X 9888   2.234   4.549   5.352 -0.2251  1.9124 -1.8704
   98SAPE  H14Y 9889   2.406   4.508   5.428  1.2360  2.7369  1.6459
   98SAPE  C315 9890   2.391   4.627   5.236 -0.5089  0.1304 -0.8133
   98SAPE  H15X 9891   2.399   4.532   5.179  1.4655 -0.3706  0.1789
   98SAPE  H15Y 9892   2.494   4.670   5.244 -0.9534  1.2297 -0.9103
   98SAPE  C316 9893   2.307   4.737   5.171 -0.0776  1.2260 -0.1545
   98SAPE  H16X 9894   2.321   4.832   5.226 -2.7830  1.5129  0.1744
   98SAPE  H16Y 9895   2.200   4.707   5.180 -0.0869  1.3903  0.3007
   98SAPE  C317 9896   2.338   4.754   5.016 -0.3492  0.0168  0.0110
   98SAPE  H17X 9897   2.301   4.668   4.957  1.0735 -0.3449 -0.4102
   98SAPE  H17Y 9898   2.448   4.748   5.000 -0.4900 -1.4389 -0.5439
   98SAPE  C318 9899   2.285   4.884   4.957 -0.0594  0.0847 -0.5680
   98SAPE  H18X 9900   2.311   4.974   5.018  0.9654 -0.8640  0.4427
   98SAPE  H18Y 9901   2.176   4.871   4.941 -0.3410 -0.9607  1.7849
   98SAPE  H18Z 9902   2.337   4.908   4.862  2.2074 -1.7536  0.1109
   99SAPE     N 9903   0.943   2.054   7.249  0.2047  0.7020  0.1022
   99SAPE   HN1 9904   0.893   2.071   7.159  1.8529 -1.9192 -1.4723
   99SAPE   HN2 9905   0.973   2.145   7.288 -3.0221  1.7100  0.5361
   99SAPE   HN3 9906   1.022   1.996   7.214  0.1690  1.1986 -0.8359
   99SAPE   C12 9907   0.865   1.960   7.348  0.0167 -0.2472  0.7395
   99SAPE  H12A 9908   0.783   2.011   7.403 -0.5011 -0.7332  0.4246
   99SAPE  H12B 9909   0.937   1.914   7.419  2.1590  1.6635 -0.0573
   99SAPE   C11 9910   0.791   1.849   7.273 -0.2428  0.6633  0.2323
   99SAPE  H11A 9911   0.745   1.789   7.355 -2.2635 -0.9385 -1.9354
   99SAPE  H11B 9912   0.854   1.776   7.217 -1.5189 -0.1462 -0.1834
   99SAPE     P 9913   0.695   1.910   7.038 -0.1160 -0.2954  0.1861
   99SAPE   O13 9914   0.670   1.781   6.980  0.6070  0.6831  0.0655
   99SAPE   O14 9915   0.585   2.006   7.001 -0.4342 -0.3468 -0.1001
   99SAPE   O12 9916   0.687   1.906   7.192  0.6229  0.8875 -0.5804
   99SAPE   O11 9917   0.841   1.957   7.009 -0.0285  0.0609  0.1180
   99SAPE    C1 9918   0.870   2.065   6.912 -0.7631 -0.4050  0.6937
   99SAPE    HA 9919   0.777   2.089   6.856 -1.2680 -1.2818  1.1263
   99SAPE    HB 9920   0.896   2.158   6.966  0.0195 -0.0773 -0.2276
   99SAPE    C2 9921   0.977   2.028   6.801  0.3317  0.2830  0.3776
   99SAPE    HS 9922   0.993   2.111   6.730  0.4743 -0.5523 -0.5902
   99SAPE   O21 9923   0.934   1.913   6.727 -0.4350  0.2345 -0.7683
   99SAPE   C21 9924   0.871   1.939   6.616 -0.2841 -0.1060  0.4018
   99SAPE   O22 9925   0.848   2.050   6.576  0.4133  0.5799 -0.0483
   99SAPE   C22 9926   0.851   1.807   6.536 -0.1927  0.0893  0.0064
   99SAPE   H2R 9927   0.946   1.750   6.539 -1.0107 -1.8905 -4.2666
   99SAPE   H2S 9928   0.769   1.751   6.587  0.4653  0.3928  1.4366
   99SAPE    C3 9929   1.109   2.002   6.872 -0.2491  0.3022 -0.0431
   99SAPE    HX 9930   1.118   1.900   6.916  0.8022  1.0111  1.4611
   99SAPE    HY 9931   1.114   2.064   6.964  5.0263 -0.0209  0.2437
   99SAPE   O31 9932   1.214   2.041   6.780 -0.6046 -0.2822 -0.1577
   99SAPE   C31 9933   1.268   1.946   6.698 -0.2970  0.7098 -0.0314
   99SAPE   O32 9934   1.223   1.841   6.674  0.5969  0.3749 -0.4922
   99SAPE   C32 9935   1.393   2.005   6.643 -0.2753  0.5644  0.2662
   99SAPE   H2X 9936   1.474   1.969   6.709  0.7836  1.3578 -0.5593
   99SAPE   H2Y 9937   1.407   2.115   6.647  1.4684  0.4131 -0.6813
   99SAPE   C23 9938   0.808   1.839   6.390 -0.4260  0.1980 -0.1810
   99SAPE   H3R 9939   0.733   1.921   6.394 -0.1228  0.4137  1.8765
   99SAPE   H3S 9940   0.755   1.748   6.355  0.4183  0.0638 -1.1881
   99SAPE   C24 9941   0.931   1.876   6.301  0.4842  0.4312 -0.0510
   99SAPE   H4R 9942   0.980   1.777   6.288  0.7396  0.6326 -0.6295
   99SAPE   H4S 9943   0.995   1.939   6.367 -0.1879 -0.9594  2.0243
   99SAPE   C25 9944   0.885   1.933   6.173 -0.1756  0.3089 -0.4099
   99SAPE   H5R 9945   0.886   1.857   6.094 -0.4261 -1.7456  1.4581
   99SAPE   C26 9946   0.872   2.067   6.145 -0.2245  0.5416  0.2903
   99SAPE   H6R 9947   0.825   2.104   6.053 -2.1925 -1.2700  0.5004
   99SAPE   C27 9948   0.889   2.180   6.233 -0.3041  0.2089  0.1770
   99SAPE   H7R 9949   0.938   2.266   6.183 -0.9724  0.4116 -0.1293
   99SAPE   H7S 9950   0.947   2.146   6.322 -1.6423 -1.5001  0.4570
   99SAPE   C28 9951   0.761   2.223   6.300 -0.0281  0.1255 -0.3859
   99SAPE   H8R 9952   0.730   2.156   6.381  0.8584  1.3855  1.0504
   99SAPE   C29 9953   0.705   2.346   6.306 -0.6260 -0.7901 -0.1031
   99SAPE   H9R 9954   0.607   2.360   6.355 -0.7708 -1.5654 -0.1499
   99SAPE  C210 9955   0.760   2.471   6.236 -0.2719 -0.3309  0.0001
   99SAPE  H10R 9956   0.774   2.444   6.129  2.7023 -0.2027  0.2716
   99SAPE  H10S 9957   0.863   2.506   6.258 -1.2594  2.9783 -0.1782
   99SAPE  C211 9958   0.684   2.604   6.265 -0.6267 -0.3322 -0.2147
   99SAPE  H11R 9959   0.726   2.653   6.355  0.0427  0.8254 -1.1339
   99SAPE  C212 9960   0.590   2.673   6.196 -0.5211 -0.2034  0.6833
   99SAPE  H12R 9961   0.550   2.772   6.225 -2.3154 -0.4783 -0.7367
   99SAPE  C213 9962   0.528   2.627   6.066 -0.1516  0.1009 -0.4106
   99SAPE  H13R 9963   0.519   2.516   6.077  1.4215 -0.1574 -1.3615
   99SAPE  H13S 9964   0.605   2.645   5.988  0.4017 -0.6570 -0.0649
   99SAPE  C214 9965   0.396   2.693   6.032 -0.1929  0.7392  0.5364
   99SAPE  H14R 9966   0.344   2.758   6.104  0.6115  0.9934  0.8901
   99SAPE  C215 9967   0.337   2.668   5.913  0.4887  0.2742 -0.6295
   99SAPE  H15R 9968   0.241   2.717   5.893  0.2346 -0.4182 -1.1536
   99SAPE  C216 9969   0.400   2.585   5.804 -0.5038  0.9805  0.1611
   99SAPE  H16R 9970   0.371   2.479   5.821 -1.8962  1.3382  0.1298
   99SAPE  H16S 9971   0.511   2.590   5.815  0.1103 -3.5576 -1.6695
   99SAPE  C217 9972   0.368   2.619   5.658 -0.2760  0.9562  0.3051
   99SAPE  H17R 9973   0.441   2.559   5.599 -1.9566 -0.8045 -0.1184
   99SAPE  H17S 9974   0.373   2.729   5.647 -0.9656  0.7828 -2.8058
   99SAPE  C218 9975   0.225   2.572   5.620  1.4320 -0.0252 -0.5015
   99SAPE  H18R 9976   0.202   2.642   5.537  1.6448  1.1568  0.4068
   99SAPE  H18S 9977   0.157   2.600   5.703 -0.3065 -1.7847 -1.2480
   99SAPE  C219 9978   0.201   2.428   5.583  0.1087  0.3627 -0.3968
   99SAPE  H19R 9979   0.212   2.367   5.675 -0.5295  0.9882  0.0998
   99SAPE  H19S 9980   0.277   2.388   5.512 -0.3610 -2.8635  0.7138
   99SAPE  C220 9981   0.066   2.402   5.515  0.1994 -0.3905 -0.0948
   99SAPE  H20R 9982   0.037   2.481   5.443  0.6393 -1.3328 -1.3336
   99SAPE  H20S 9983  -0.010   2.391   5.596 -1.4631 -0.1055 -1.5610
   99SAPE  H20T 9984   0.062   2.309   5.455 -0.4347  0.8157 -2.0257
   99SAPE   C33 9985   1.422   1.936   6.506  0.5535 -0.2100  0.7399
   99SAPE   H3X 9986   1.403   1.826   6.513  2.4457 -0.5189  2.1954
   99SAPE   H3Y 9987   1.533   1.938   6.494  0.4843 -1.6082 -0.4091
   99SAPE   C34 9988   1.345   1.992   6.384 -0.0458  0.2995  0.7378
   99SAPE   H4X 9989   1.395   2.083   6.345 -0.0852 -0.1161 -0.3047
   99SAPE   H4Y 9990   1.241   2.015   6.416 -0.6527  0.3250 -1.1398
   99SAPE   C35 9991   1.333   1.882   6.278  0.1553  0.5422 -0.1248
   99SAPE   H5X 9992   1.258   1.805   6.306  1.5775 -0.9639 -0.3468
   99SAPE   H5Y 9993   1.434   1.837   6.283  0.4186  1.1659  0.3984
   99SAPE   C36 9994   1.300   1.928   6.138  0.3778 -0.0781 -0.7532
   99SAPE   H6X 9995   1.210   1.993   6.137  0.3775  0.0378  1.3321
   99SAPE   H6Y 9996   1.279   1.833   6.084 -0.2202 -0.3246 -0.1002
   99SAPE   C37 9997   1.410   2.002   6.064 -0.1706 -0.0306 -0.1014
   99SAPE   H7X 9998   1.502   1.941   6.051  0.8048  1.5439 -0.9249
   99SAPE   H7Y 9999   1.431   2.095   6.121 -1.1900  0.1061  0.0774
   99SAPE   C3810000   1.355   2.045   5.925 -0.1095 -0.3444 -0.5783
   99SAPE   H8X10001   1.260   2.101   5.938  0.4401  0.7417 -1.0583
   99SAPE   H8Y10002   1.330   1.954   5.867  1.2568 -1.6395  0.7616
   99SAPE   C3910003   1.459   2.125   5.854  0.5651 -0.4554 -0.2829
   99SAPE   H9X10004   1.534   2.045   5.832 -0.2272 -1.8892  1.8797
   99SAPE   H9Y10005   1.513   2.188   5.927  0.7554  1.7768 -2.2226
   99SAPE  C31010006   1.419   2.193   5.721 -0.4575 -0.4528 -0.5730
   99SAPE  H10X10007   1.353   2.278   5.748  0.3013  0.3325 -1.1086
   99SAPE  H10Y10008   1.361   2.136   5.646 -1.4437 -1.1831  0.7200
   99SAPE  C31110009   1.553   2.237   5.652 -0.6680 -0.0295  0.0450
   99SAPE  H11X10010   1.622   2.150   5.643 -0.4327  0.0789  0.7892
   99SAPE  H11Y10011   1.601   2.319   5.709 -0.2890  0.2736 -0.6953
   99SAPE  C31210012   1.530   2.292   5.509  0.1770  0.1578  0.2882
   99SAPE  H12X10013   1.606   2.372   5.495  1.1903 -0.9322 -0.7172
   99SAPE  H12Y10014   1.429   2.335   5.492  1.0255  1.8105 -0.8787
   99SAPE  C31310015   1.547   2.180   5.403 -0.0700 -0.3092  0.0770
   99SAPE  H13X10016   1.481   2.096   5.434 -1.9651  0.0604 -2.5791
   99SAPE  H13Y10017   1.655   2.152   5.405  0.2779  1.0176  1.6265
   99SAPE  C31410018   1.512   2.212   5.256  0.1551 -0.1480  0.0068
   99SAPE  H14X10019   1.405   2.186   5.237  0.4430 -0.7402 -0.8549
   99SAPE  H14Y10020   1.570   2.146   5.189 -1.3033 -0.0684 -1.4053
   99SAPE  C31510021   1.541   2.354   5.212 -0.2419 -0.3967  0.1481
   99SAPE  H15X10022   1.652   2.366   5.215 -0.2285 -0.5613  0.3682
   99SAPE  H15Y10023   1.501   2.429   5.283 -0.5834 -0.0160 -0.4417
   99SAPE  C31610024   1.500   2.380   5.065  0.6284  0.2966  0.1386
   99SAPE  H16X10025   1.552   2.309   4.997 -0.7454 -0.6755  0.0704
   99SAPE  H16Y10026   1.532   2.476   5.020  1.8697 -0.5364 -0.8470
   99SAPE  C31710027   1.354   2.372   5.041 -0.0385  0.3674 -1.4024
   99SAPE  H17X10028   1.300   2.431   5.118 -0.4445 -3.9710  2.0627
   99SAPE  H17Y10029   1.319   2.267   5.056 -2.8347  1.2070 -1.3800
   99SAPE  C31810030   1.306   2.416   4.907 -0.0185 -0.0653  0.5631
   99SAPE  H18X10031   1.198   2.402   4.883  0.3680  2.2868 -3.4716
   99SAPE  H18Y10032   1.360   2.366   4.824  1.0436  2.2443 -0.2208
   99SAPE  H18Z10033   1.327   2.525   4.899 -0.5887 -0.0419 -1.0660
  100SAPE     N10034   0.118   4.177   7.733  0.0556  0.0827 -0.2154
  100SAPE   HN110035   0.222   4.174   7.730  0.1300  0.6951  1.0632
  100SAPE   HN210036   0.085   4.236   7.812 -0.6202 -1.6969  0.8849
  100SAPE   HN310037   0.072   4.087   7.755  0.1062  0.3835  1.2262
  100SAPE   C1210038   0.074   4.238   7.600  0.2747 -0.0058  0.3736
  100SAPE  H12A10039   0.152   4.312   7.572  2.1116 -1.4938  1.3116
  100SAPE  H12B10040  -0.020   4.293   7.622  1.1843  1.5816  0.4255
  100SAPE   C1110041   0.040   4.125   7.493 -0.8327 -0.3446  0.1191
  100SAPE  H11A10042   0.036   4.189   7.402  1.5626 -1.2879 -0.7168
  100SAPE  H11B10043  -0.062   4.088   7.515 -0.3049 -2.4387 -0.7424
  100SAPE     P10044   0.132   3.885   7.534  0.2976 -0.0544  0.0361
  100SAPE   O1310045   0.126   3.900   7.684 -0.1000  0.6167  0.2116
  100SAPE   O1410046   0.019   3.819   7.471  0.0474  0.6111  0.1705
  100SAPE   O1210047   0.143   4.034   7.479 -0.2744  0.0941  0.2997
  100SAPE   O1110048   0.267   3.820   7.496 -0.3654  0.2720 -0.0950
  100SAPE    C110049   0.361   3.879   7.407 -0.6124 -0.6787  0.2860
  100SAPE    HA10050   0.363   3.988   7.427 -1.7629 -0.9416  1.9899
  100SAPE    HB10051   0.462   3.844   7.437 -0.9497 -0.9114  1.1674
  100SAPE    C210052   0.354   3.842   7.249 -0.1003  0.3990  0.0883
  100SAPE    HS10053   0.429   3.899   7.191  0.9477 -0.8767  0.1334
  100SAPE   O2110054   0.217   3.861   7.202 -0.0768  0.2766 -0.2797
  100SAPE   C2110055   0.196   3.981   7.152  0.2444 -0.0216 -0.8845
  100SAPE   O2210056   0.278   4.068   7.137 -0.6082 -0.0335  0.1369
  100SAPE   C2210057   0.048   4.009   7.125  0.7653  1.0486 -0.5239
  100SAPE   H2R10058   0.001   3.908   7.130  2.5104  0.1780 -0.9880
  100SAPE   H2S10059   0.019   4.077   7.208 -0.7371  0.0548 -0.1911
  100SAPE    C310060   0.385   3.693   7.224  0.0156 -0.1358  0.2213
  100SAPE    HX10061   0.314   3.633   7.284  0.0766  0.7627  1.2131
  100SAPE    HY10062   0.491   3.683   7.255  0.0334  2.5125  1.2871
  100SAPE   O3110063   0.386   3.649   7.086  0.1041  1.2188  0.4125
  100SAPE   C3110064   0.284   3.571   7.045  0.1273 -0.0106 -0.2204
  100SAPE   O3210065   0.215   3.499   7.116  0.2829 -0.4256 -0.1846
  100SAPE   C3210066   0.264   3.604   6.899  0.2626  0.6357  0.5108
  100SAPE   H2X10067   0.360   3.578   6.849 -1.2036 -1.2401 -1.5323
  100SAPE   H2Y10068   0.233   3.708   6.876 -1.0111  0.3218  0.7270
  100SAPE   C2310069   0.011   4.077   6.992 -0.1136 -0.2697  0.4475
  100SAPE   H3R10070   0.067   4.025   6.911  2.7920  1.3442  1.2588
  100SAPE   H3S10071   0.043   4.183   6.984  0.2802 -0.4920 -1.1766
  100SAPE   C2410072  -0.136   4.082   6.948  0.6741  0.2119  0.1319
  100SAPE   H4R10073  -0.153   4.167   6.879  2.4043 -0.8472 -1.7235
  100SAPE   H4S10074  -0.194   4.108   7.039  0.5294 -1.3337  0.5004
  100SAPE   C2510075  -0.198   3.952   6.888  0.2705  0.2119  0.2385
  100SAPE   H5R10076  -0.265   3.899   6.957 -2.9253  2.1625 -1.1277
  100SAPE   C2610077  -0.202   3.917   6.755 -0.0341 -0.2798  0.4783
  100SAPE   H6R10078  -0.248   3.822   6.725  1.6216 -0.9009 -0.2064
  100SAPE   C2710079  -0.129   3.999   6.644 -0.1842  0.1960 -0.0837
  100SAPE   H7R10080  -0.090   4.098   6.679  2.8091 -0.8540 -0.2157
  100SAPE   H7S10081  -0.200   4.028   6.564 -0.2911  0.3859  0.0762
  100SAPE   C2810082  -0.016   3.909   6.590 -0.7782 -0.3876  1.2154
  100SAPE   H8R10083   0.048   3.868   6.669 -1.0844  0.4202  1.9004
  100SAPE   C2910084  -0.000   3.883   6.459 -0.0639 -0.8217 -0.0178
  100SAPE   H9R10085   0.087   3.818   6.439 -1.0452 -1.8852 -1.0042
  100SAPE  C21010086  -0.084   3.930   6.337  0.6841 -0.7046 -0.4866
  100SAPE  H10R10087  -0.012   3.996   6.285  0.4686 -0.9331 -1.0865
  100SAPE  H10S10088  -0.171   3.991   6.368 -0.1659 -2.2417  0.2969
  100SAPE  C21110089  -0.130   3.806   6.269  0.7429 -0.4991 -0.3804
  100SAPE  H11R10090  -0.195   3.747   6.336  0.1499  1.0814  0.4978
  100SAPE  C21210091  -0.132   3.779   6.136 -0.6424 -0.5185  0.0250
  100SAPE  H12R10092  -0.181   3.688   6.099 -0.3457 -0.3715 -0.7621
  100SAPE  C21310093  -0.080   3.858   6.020  0.3477 -0.8793  0.1038
  100SAPE  H13R10094  -0.147   3.946   6.008  0.0372 -0.6718  2.8041
  100SAPE  H13S10095  -0.079   3.809   5.920  2.1646  0.1320 -0.4200
  100SAPE  C21410096   0.061   3.907   6.040  0.0478  0.0548  0.6623
  100SAPE  H14R10097   0.114   3.863   6.126 -1.9722  0.3543  2.1360
  100SAPE  C21510098   0.131   3.972   5.947  0.7208 -0.1635  0.1311
  100SAPE  H15R10099   0.237   3.993   5.965  0.3829  0.8868  1.0349
  100SAPE  C21610100   0.076   4.022   5.818  0.2474  0.0826 -0.7055
  100SAPE  H16R10101   0.116   4.123   5.795 -1.4394  0.4571 -2.2000
  100SAPE  H16S10102  -0.034   4.036   5.822 -0.2595 -3.2801 -0.3903
  100SAPE  C21710103   0.117   3.930   5.707 -0.4372  0.3585  0.7773
  100SAPE  H17R10104   0.100   3.823   5.732  0.0768 -0.1388 -0.9103
  100SAPE  H17S10105   0.226   3.943   5.690 -0.2878  0.2716  1.6061
  100SAPE  C21810106   0.048   3.974   5.572  0.5387 -0.1377  0.0180
  100SAPE  H18R10107   0.087   4.077   5.553 -1.2082  0.2047 -2.1598
  100SAPE  H18S10108  -0.061   3.983   5.594  0.4285  0.4354 -0.7075
  100SAPE  C21910109   0.077   3.875   5.454  0.6717 -0.2547 -0.4873
  100SAPE  H19R10110   0.186   3.852   5.453  0.5851 -0.7047 -1.9220
  100SAPE  H19S10111   0.052   3.921   5.356  1.6803  1.5356  0.0623
  100SAPE  C22010112  -0.006   3.750   5.476  0.2300 -0.1262  0.0603
  100SAPE  H20R10113   0.039   3.683   5.552  0.4860 -0.6040 -0.5047
  100SAPE  H20S10114  -0.010   3.686   5.385  0.1320 -0.3346  0.2094
  100SAPE  H20T10115  -0.111   3.780   5.498  0.0929 -0.4183 -0.1752
  100SAPE   C3310116   0.153   3.501   6.842 -0.2513 -0.1184 -0.2481
  100SAPE   H3X10117   0.060   3.510   6.901 -0.4417  1.7077 -0.7410
  100SAPE   H3Y10118   0.210   3.406   6.849  0.6249  0.2313 -1.8901
  100SAPE   C3410119   0.120   3.527   6.691  0.0909 -0.4887 -0.6909
  100SAPE   H4X10120   0.045   3.607   6.674 -0.7882 -1.3132 -0.7648
  100SAPE   H4Y10121   0.061   3.439   6.658 -0.3529 -0.0057 -1.1989
  100SAPE   C3510122   0.252   3.527   6.610 -0.1836  0.2461  0.1444
  100SAPE   H5X10123   0.305   3.442   6.657 -2.1687 -0.4072  1.3011
  100SAPE   H5Y10124   0.310   3.622   6.613 -2.0518  1.4457 -0.1085
  100SAPE   C3610125   0.222   3.487   6.471  0.0521  0.2833  0.5361
  100SAPE   H6X10126   0.158   3.566   6.425  1.5013  0.9162 -0.4902
  100SAPE   H6Y10127   0.183   3.383   6.476  2.9358 -0.9292 -0.2402
  100SAPE   C3710128   0.357   3.490   6.394  0.3921 -0.7528 -0.5378
  100SAPE   H7X10129   0.421   3.409   6.435 -1.9652 -0.7628  3.7067
  100SAPE   H7Y10130   0.406   3.588   6.410  1.4602 -0.9879 -2.1109
  100SAPE   C3810131   0.338   3.488   6.241 -0.2726  0.1328  0.0352
  100SAPE   H8X10132   0.281   3.401   6.202  0.3345 -0.1734 -0.1907
  100SAPE   H8Y10133   0.442   3.479   6.202  0.2132 -0.5922  1.4124
  100SAPE   C3910134   0.290   3.621   6.176  0.6144  0.3680  0.1104
  100SAPE   H9X10135   0.355   3.699   6.222  0.2593  0.8583 -0.2104
  100SAPE   H9Y10136   0.184   3.642   6.205 -0.3513 -2.1920 -1.2171
  100SAPE  C31010137   0.312   3.624   6.024  0.2710 -0.6547 -0.8280
  100SAPE  H10X10138   0.402   3.562   6.003  0.7632  0.6150 -2.7805
  100SAPE  H10Y10139   0.320   3.733   6.006  0.5743 -0.2462  1.4563
  100SAPE  C31110140   0.192   3.578   5.936 -0.8851  0.2839 -0.0875
  100SAPE  H11X10141   0.113   3.657   5.935 -0.7457  0.4298 -1.1952
  100SAPE  H11Y10142   0.150   3.481   5.969  0.4262  0.1369  1.2296
  100SAPE  C31210143   0.238   3.569   5.789  0.1872  0.0908  0.1337
  100SAPE  H12X10144   0.289   3.665   5.764  0.6625 -0.0475  0.5531
  100SAPE  H12Y10145   0.145   3.557   5.730  0.1602 -0.7853  0.3362
  100SAPE  C31310146   0.335   3.460   5.760 -0.2503  0.1000  0.3273
  100SAPE  H13X10147   0.304   3.368   5.815 -2.0632  0.9211  0.7675
  100SAPE  H13Y10148   0.433   3.487   5.804 -0.5191 -1.8932  2.3516
  100SAPE  C31410149   0.346   3.436   5.608 -0.1050  0.1360  0.4403
  100SAPE  H14X10150   0.247   3.435   5.558 -0.3286  2.3893  0.7217
  100SAPE  H14Y10151   0.406   3.346   5.585 -1.4411 -0.5712 -0.4516
  100SAPE  C31510152   0.420   3.555   5.552 -0.6286  0.0412  0.2201
  100SAPE  H15X10153   0.528   3.528   5.556 -0.9248 -1.1907  0.2550
  100SAPE  H15Y10154   0.400   3.656   5.595  0.3162  0.3395 -0.0042
  100SAPE  C31610155   0.377   3.581   5.403  0.2830  0.5413 -0.9798
  100SAPE  H16X10156   0.427   3.675   5.371  1.8083  0.2851  0.5151
  100SAPE  H16Y10157   0.267   3.596   5.410  0.1435 -0.8833  0.8269
  100SAPE  C31710158   0.399   3.462   5.307 -0.2609  0.1745 -0.3405
  100SAPE  H17X10159   0.315   3.390   5.312 -0.5931  0.6096  0.4809
  100SAPE  H17Y10160   0.484   3.399   5.341  0.0881  0.4185 -0.7512
  100SAPE  C31810161   0.434   3.494   5.161  0.1853 -0.0740  0.8056
  100SAPE  H18X10162   0.530   3.549   5.159  1.1538 -1.5366 -2.9997
  100SAPE  H18Y10163   0.362   3.555   5.101  0.9741  0.1182  0.0360
  100SAPE  H18Z10164   0.452   3.403   5.100  1.2473 -0.5173  1.7596
  101SAPE     N10165   1.025   4.502   7.389 -0.3153 -0.4270  0.3438
  101SAPE   HN110166   0.949   4.437   7.419 -1.1826  1.0694  1.5319
  101SAPE   HN210167   1.089   4.500   7.471 -1.1782 -1.0621  1.0125
  101SAPE   HN310168   0.983   4.597   7.381 -0.9966 -0.5716  1.8878
  101SAPE   C1210169   1.083   4.442   7.264 -0.2481 -0.2534  0.2355
  101SAPE  H12A10170   1.190   4.472   7.258  0.0284 -1.3544 -0.9204
  101SAPE  H12B10171   1.034   4.496   7.180  0.9319  0.4211 -0.0405
  101SAPE   C1110172   1.064   4.291   7.257  0.2406 -0.2765 -0.5472
  101SAPE  H11A10173   1.111   4.238   7.343  4.1881 -0.2609 -2.4709
  101SAPE  H11B10174   1.121   4.247   7.173  1.6959  0.2104  0.1406
  101SAPE     P10175   0.867   4.147   7.162  0.0719 -0.2873  0.5760
  101SAPE   O1310176   0.950   4.029   7.189 -0.4302 -0.4611  0.2591
  101SAPE   O1410177   0.714   4.137   7.174  0.2503  0.0504  0.2408
  101SAPE   O1210178   0.918   4.259   7.251 -0.2202 -0.1953  0.2007
  101SAPE   O1110179   0.913   4.196   7.017 -0.8321  0.1031  0.4068
  101SAPE    C110180   0.934   4.102   6.908  0.7191  0.1554 -0.1052
  101SAPE    HA10181   1.037   4.112   6.866  0.0589  1.3709 -1.5272
  101SAPE    HB10182   0.929   3.998   6.946 -1.1229  0.4947  0.6677
  101SAPE    C210183   0.822   4.113   6.802  0.4202 -0.5205  0.3371
  101SAPE    HS10184   0.826   4.019   6.744 -2.7468 -0.7009  0.2421
  101SAPE   O2110185   0.841   4.238   6.737  0.3173 -0.4716  0.1997
  101SAPE   C2110186   0.795   4.224   6.611  0.1386  0.0471 -0.0696
  101SAPE   O2210187   0.749   4.130   6.558 -0.2917  0.5250  0.0583
  101SAPE   C2210188   0.816   4.358   6.549  0.5624  0.4784 -0.8734
  101SAPE   H2R10189   0.760   4.426   6.617  1.0934 -0.9204  1.0662
  101SAPE   H2S10190   0.923   4.386   6.550  1.1300 -1.5524 -0.4800
  101SAPE    C310191   0.684   4.094   6.880 -0.1127 -0.7261 -0.9245
  101SAPE    HX10192   0.667   4.188   6.936 -0.3843 -0.1681 -1.9307
  101SAPE    HY10193   0.711   4.008   6.945  1.8470 -0.6455 -1.5773
  101SAPE   O3110194   0.567   4.055   6.804 -1.5063 -0.1027 -0.6117
  101SAPE   C3110195   0.491   4.157   6.777  0.3438 -0.3094  0.0775
  101SAPE   O3210196   0.512   4.277   6.783 -0.2419  0.6084 -0.1221
  101SAPE   C3210197   0.353   4.106   6.754  0.3933 -0.2204 -0.2590
  101SAPE   H2X10198   0.302   4.187   6.697 -0.1715 -0.9917 -0.8703
  101SAPE   H2Y10199   0.307   4.073   6.850  0.2283  1.3399  0.2250
  101SAPE   C2310200   0.755   4.384   6.408  0.6810  0.1393  0.1728
  101SAPE   H3R10201   0.785   4.488   6.382  2.4833 -0.5754 -0.7545
  101SAPE   H3S10202   0.644   4.392   6.413  0.8362  3.2708  0.8307
  101SAPE   C2410203   0.812   4.304   6.294 -0.0063  0.3422 -0.6218
  101SAPE   H4R10204   0.764   4.337   6.200  0.0243  2.0660 -0.0527
  101SAPE   H4S10205   0.779   4.198   6.304 -0.1278  0.5553  1.7123
  101SAPE   C2510206   0.965   4.320   6.266 -0.0509  0.4650  0.0476
  101SAPE   H5R10207   1.038   4.304   6.346  1.6923 -0.2219 -1.6105
  101SAPE   C2610208   1.020   4.339   6.145 -0.6386 -0.3778 -0.1417
  101SAPE   H6R10209   1.128   4.360   6.136 -0.3139 -0.4421  2.7804
  101SAPE   C2710210   0.945   4.345   6.012  0.3646  0.3105 -0.3000
  101SAPE   H7R10211   0.858   4.276   6.017  0.1656  0.5032 -1.0565
  101SAPE   H7S10212   1.004   4.294   5.933  0.2502  1.9083 -1.4516
  101SAPE   C2810213   0.899   4.479   5.965 -0.4132  0.0486 -0.4078
  101SAPE   H8R10214   0.857   4.541   6.045 -2.0141 -2.1410  0.5768
  101SAPE   C2910215   0.898   4.518   5.837 -0.9181  0.2976  0.6278
  101SAPE   H9R10216   0.849   4.612   5.811  0.0185  0.9642  1.1856
  101SAPE  C21010217   0.939   4.434   5.715 -0.2630 -0.7864  0.3283
  101SAPE  H10R10218   0.851   4.369   5.695  0.3014 -0.7694 -2.7045
  101SAPE  H10S10219   1.034   4.383   5.741  1.1840  0.8350 -1.4266
  101SAPE  C21110220   0.977   4.513   5.589  0.0056  0.4840  0.1370
  101SAPE  H11R10221   1.011   4.616   5.607 -1.9183  0.9895  1.1142
  101SAPE  C21210222   0.983   4.464   5.461 -0.4598 -0.5071  0.1770
  101SAPE  H12R10223   1.031   4.525   5.383 -0.8343 -2.0757 -1.3106
  101SAPE  C21310224   0.947   4.325   5.413  0.4426 -0.0196 -0.2353
  101SAPE  H13R10225   0.874   4.281   5.484  0.5393  1.3209  0.7295
  101SAPE  H13S10226   1.041   4.267   5.408  1.0215  0.9793 -1.9084
  101SAPE  C21410227   0.886   4.339   5.277  0.6131  0.2093  0.4464
  101SAPE  H14R10228   0.786   4.385   5.274  0.7830  0.5236 -1.2844
  101SAPE  C21510229   0.944   4.304   5.160 -0.0712  0.1819 -0.2525
  101SAPE  H15R10230   0.887   4.317   5.067 -2.3861  0.1424  1.0812
  101SAPE  C21610231   1.079   4.243   5.148 -0.0011 -0.3761  0.2218
  101SAPE  H16R10232   1.087   4.132   5.156  0.1345 -0.4228 -0.4577
  101SAPE  H16S10233   1.152   4.269   5.228  0.1031  1.1244 -0.3284
  101SAPE  C21710234   1.148   4.277   5.016  0.4922  0.2219  0.0799
  101SAPE  H17R10235   1.146   4.385   4.988  0.7988  0.5409  1.2257
  101SAPE  H17S10236   1.082   4.217   4.950  0.1332  0.5424  0.1452
  101SAPE  C21810237   1.293   4.217   5.010  0.3730  0.0497  0.1772
  101SAPE  H18R10238   1.293   4.106   5.012 -1.0770  0.0447  1.8113
  101SAPE  H18S10239   1.349   4.259   5.097  0.5717  1.2028 -0.4748
  101SAPE  C21910240   1.376   4.290   4.900 -1.1315  0.1397 -0.8152
  101SAPE  H19R10241   1.347   4.396   4.884  0.4592  0.7948  0.3397
  101SAPE  H19S10242   1.359   4.238   4.804  0.9148  1.1925 -1.8181
  101SAPE  C22010243   1.530   4.290   4.925 -0.0432 -0.0061 -0.3240
  101SAPE  H20R10244   1.569   4.190   4.896 -0.2094 -0.0711 -0.3272
  101SAPE  H20S10245   1.561   4.316   5.028  0.6495 -0.4241 -0.4260
  101SAPE  H20T10246   1.580   4.368   4.864  2.6464 -0.6529  0.9455
  101SAPE   C3310247   0.361   3.989   6.652 -0.0902  0.2739  0.0889
  101SAPE   H3X10248   0.263   3.936   6.645 -0.4756  0.7345  1.5744
  101SAPE   H3Y10249   0.436   3.912   6.680 -0.9944 -0.9471 -0.6927
  101SAPE   C3410250   0.392   4.038   6.504  0.3399 -0.5032 -0.0303
  101SAPE   H4X10251   0.462   4.124   6.501 -1.3020  0.8570 -1.1369
  101SAPE   H4Y10252   0.303   4.077   6.451 -0.0225 -1.3214 -0.0400
  101SAPE   C3510253   0.451   3.926   6.411 -0.1502  0.0049  0.0930
  101SAPE   H5X10254   0.365   3.857   6.399 -1.1288  1.0496  0.9404
  101SAPE   H5Y10255   0.532   3.871   6.462 -1.8355 -3.7276 -0.9258
  101SAPE   C3610256   0.496   3.983   6.272  0.8896  0.4526  0.2027
  101SAPE   H6X10257   0.504   3.896   6.204  1.0958 -0.8239  1.7875
  101SAPE   H6Y10258   0.599   4.025   6.274  1.0029  0.3039 -1.4369
  101SAPE   C3710259   0.413   4.099   6.204  0.2729  0.6249 -0.3854
  101SAPE   H7X10260   0.438   4.193   6.256  1.3567 -0.2265  0.6895
  101SAPE   H7Y10261   0.306   4.075   6.222 -0.0460  1.6145 -0.8756
  101SAPE   C3810262   0.440   4.118   6.051  0.5115  0.5209  0.1730
  101SAPE   H8X10263   0.351   4.163   6.003  0.0491 -2.6467 -2.2348
  101SAPE   H8Y10264   0.458   4.025   5.993  0.3871  0.9516 -0.5731
  101SAPE   C3910265   0.567   4.206   6.035 -0.5567 -0.2787  0.3488
  101SAPE   H9X10266   0.655   4.169   6.093 -1.6740 -1.3016  1.4364
  101SAPE   H9Y10267   0.531   4.299   6.083 -3.2176  1.3045 -4.1651
  101SAPE  C31010268   0.607   4.221   5.885  0.0986 -0.0014  0.6253
  101SAPE  H10X10269   0.638   4.123   5.841 -0.2823  1.2127 -2.6310
  101SAPE  H10Y10270   0.695   4.288   5.874 -0.3408  0.3780 -0.8371
  101SAPE  C31110271   0.498   4.297   5.803 -0.4085  1.1044  0.6247
  101SAPE  H11X10272   0.539   4.391   5.762 -0.6026  0.3022 -1.5278
  101SAPE  H11Y10273   0.412   4.309   5.873 -1.5081 -0.9592 -0.2843
  101SAPE  C31210274   0.452   4.220   5.675 -0.1408  0.1662 -0.8347
  101SAPE  H12X10275   0.428   4.114   5.701 -2.8692 -0.2868 -4.3846
  101SAPE  H12Y10276   0.545   4.216   5.615 -0.2559 -4.3407 -1.0885
  101SAPE  C31310277   0.331   4.281   5.608  0.0556  0.2006  0.4644
  101SAPE  H13X10278   0.363   4.387   5.594  0.6120  0.3658  2.5637
  101SAPE  H13Y10279   0.246   4.272   5.680 -0.7138  0.5216 -0.3931
  101SAPE  C31410280   0.312   4.247   5.464  0.3052 -0.8935 -0.0575
  101SAPE  H14X10281   0.221   4.302   5.431 -0.2623 -2.4918 -1.3596
  101SAPE  H14Y10282   0.278   4.141   5.457 -0.4698 -0.6080 -0.7909
  101SAPE  C31510283   0.440   4.270   5.380  0.2433 -0.0426 -0.3823
  101SAPE  H15X10284   0.529   4.210   5.407  0.1939 -0.2563 -0.6907
  101SAPE  H15Y10285   0.468   4.375   5.404  1.5771 -0.8025  1.6117
  101SAPE  C31610286   0.403   4.237   5.236  0.4547 -0.1047 -0.7891
  101SAPE  H16X10287   0.323   4.312   5.220 -1.0100 -1.6453 -1.0163
  101SAPE  H16Y10288   0.370   4.131   5.230  0.9437 -0.2562 -0.8011
  101SAPE  C31710289   0.510   4.269   5.137 -1.1542 -0.1509  0.2417
  101SAPE  H17X10290   0.605   4.234   5.182 -1.8258  0.7960  2.5003
  101SAPE  H17Y10291   0.517   4.379   5.124 -0.5496 -0.2360 -0.2121
  101SAPE  C31810292   0.478   4.218   4.995 -0.4435  0.7522  0.4665
  101SAPE  H18X10293   0.394   4.279   4.957  0.4888  0.9869 -1.3381
  101SAPE  H18Y10294   0.450   4.111   4.986 -1.2321  1.0111 -0.3004
  101SAPE  H18Z10295   0.564   4.237   4.927  0.2698 -3.1875  0.0325
  102SAPE     N10296   5.781   3.397   7.510  0.1540 -0.0980  0.2763
  102SAPE   HN110297   5.712   3.374   7.585  0.5492  0.1077  0.7120
  102SAPE   HN210298   5.835   3.320   7.466  1.3600  1.7366 -1.6710
  102SAPE   HN310299   5.852   3.447   7.568 -2.0964  1.7631  1.6157
  102SAPE   C1210300   5.712   3.486   7.415 -0.2236  0.9454  0.4717
  102SAPE  H12A10301   5.608   3.508   7.448  0.0519  0.4522  1.7141
  102SAPE  H12B10302   5.707   3.429   7.320 -0.8163 -1.9118  2.1206
  102SAPE   C1110303   5.791   3.613   7.392 -0.2772  0.3755 -0.5351
  102SAPE  H11A10304   5.727   3.668   7.320 -0.8519 -0.5025 -0.7156
  102SAPE  H11B10305   5.888   3.592   7.342  0.1406  2.0963 -0.5240
  102SAPE     P10306   5.920   3.805   7.517  0.1407 -0.2987  0.1675
  102SAPE   O1310307   5.917   3.876   7.645 -0.3631 -0.1769 -0.3157
  102SAPE   O1410308   6.054   3.756   7.475  0.4131 -0.3366  0.7257
  102SAPE   O1210309   5.807   3.689   7.513  0.1161  0.5081 -0.2477
  102SAPE   O1110310   5.871   3.899   7.398  0.8357 -0.2464 -0.2170
  102SAPE    C110311   5.748   3.967   7.416  0.4695  0.1747  0.0788
  102SAPE    HA10312   5.663   3.895   7.420  0.9783 -0.3962  2.3652
  102SAPE    HB10313   5.746   4.024   7.511  1.1327  1.9044 -0.9070
  102SAPE    C210314   5.716   4.072   7.307 -0.0915  0.3511  0.6056
  102SAPE    HS10315   5.618   4.120   7.327 -0.2396  1.0884 -1.6747
  102SAPE   O2110316   5.711   4.026   7.173 -0.1374  0.5242 -0.2734
  102SAPE   C2110317   5.595   3.952   7.142 -0.1750 -0.2490  0.8778
  102SAPE   O2210318   5.509   3.921   7.226 -0.1545  0.6021  0.5267
  102SAPE   C2210319   5.596   3.918   6.991  0.0627  0.1208  0.0085
  102SAPE   H2R10320   5.674   3.974   6.935 -0.5758  0.4639 -0.5530
  102SAPE   H2S10321   5.626   3.811   6.989  1.8338  0.5641  0.8022
  102SAPE    C310322   5.810   4.196   7.308  0.1856 -0.5046  0.1123
  102SAPE    HX10323   5.896   4.171   7.242 -0.3723 -1.6870 -0.1917
  102SAPE    HY10324   5.863   4.212   7.404  0.8707  1.2126 -0.5199
  102SAPE   O3110325   5.751   4.313   7.248 -0.0082 -0.0034 -0.4008
  102SAPE   C3110326   5.804   4.425   7.285  0.2089 -0.0009 -0.1347
  102SAPE   O3210327   5.885   4.437   7.376 -0.0682  0.1004 -0.2889
  102SAPE   C3210328   5.750   4.553   7.210 -0.3422 -0.0285  0.0472
  102SAPE   H2X10329   5.696   4.627   7.273  0.0408 -0.9577  1.5104
  102SAPE   H2Y10330   5.672   4.500   7.151 -0.5964 -1.1406  1.3414
  102SAPE   C2310331   5.457   3.930   6.924 -0.2005  0.4458 -0.2572
  102SAPE   H3R10332   5.373   3.909   6.993  2.4063 -0.0465  3.0403
  102SAPE   H3S10333   5.458   3.855   6.842 -1.6410  1.8368 -1.6199
  102SAPE   C2410334   5.432   4.060   6.848  0.0745  0.4680 -0.0996
  102SAPE   H4R10335   5.330   4.075   6.807  0.0539  0.7974  0.0687
  102SAPE   H4S10336   5.499   4.050   6.760 -0.8508 -0.7300 -0.6927
  102SAPE   C2510337   5.460   4.182   6.930 -0.7000 -1.1869  0.3118
  102SAPE   H5R10338   5.395   4.212   7.014 -2.3392 -0.3158 -1.2104
  102SAPE   C2610339   5.574   4.257   6.923 -0.0166 -0.4319  0.8459
  102SAPE   H6R10340   5.568   4.347   6.986 -0.2804  0.2028 -0.0802
  102SAPE   C2710341   5.689   4.225   6.822  0.4672 -0.5212  0.5043
  102SAPE   H7R10342   5.718   4.313   6.761 -0.1152 -1.5039 -1.2547
  102SAPE   H7S10343   5.666   4.154   6.740 -1.6619  0.0259  0.5721
  102SAPE   C2810344   5.819   4.184   6.892 -0.1565 -0.4254 -1.0555
  102SAPE   H8R10345   5.806   4.156   6.998  1.2726  1.0070 -0.4620
  102SAPE   C2910346   5.943   4.172   6.838 -0.0791 -0.6301  0.0174
  102SAPE   H9R10347   6.024   4.150   6.909  0.7121  0.8460 -0.3928
  102SAPE  C21010348   5.971   4.194   6.690  0.8106  0.8540 -0.0923
  102SAPE  H10R10349   6.068   4.247   6.685 -0.2767  2.9103 -1.2233
  102SAPE  H10S10350   5.901   4.269   6.646 -0.7595 -0.6941 -0.3759
  102SAPE  C21110351   5.981   4.067   6.607 -0.1789 -0.0623 -0.3850
  102SAPE  H11R10352   6.072   4.007   6.624  0.2695  1.0831  1.6151
  102SAPE  C21210353   5.899   4.027   6.508  0.4475  0.5054 -0.1405
  102SAPE  H12R10354   5.920   3.935   6.451 -1.3913  0.4603 -0.7906
  102SAPE  C21310355   5.778   4.099   6.453 -1.2704 -0.0554  0.3948
  102SAPE  H13R10356   5.809   4.136   6.353 -0.1453  0.6514  0.9821
  102SAPE  H13S10357   5.752   4.188   6.515  1.9308 -0.3447  2.4170
  102SAPE  C21410358   5.653   4.012   6.432 -0.2953 -0.0604 -0.4707
  102SAPE  H14R10359   5.563   4.025   6.493 -0.8570  2.4859 -1.7068
  102SAPE  C21510360   5.634   3.908   6.345  0.4077 -0.6146 -0.4123
  102SAPE  H15R10361   5.548   3.840   6.338  0.4436 -0.5284 -2.5552
  102SAPE  C21610362   5.744   3.851   6.257  1.4198 -0.4189  0.2071
  102SAPE  H16R10363   5.795   3.771   6.315  2.2368  0.0285  0.1043
  102SAPE  H16S10364   5.814   3.932   6.232 -0.5686  1.2529 -0.2268
  102SAPE  C21710365   5.698   3.795   6.121  0.0366  0.0559  0.2973
  102SAPE  H17R10366   5.617   3.722   6.139 -1.1750  1.3436  0.2285
  102SAPE  H17S10367   5.780   3.741   6.067  0.1319  2.9068 -2.7325
  102SAPE  C21810368   5.626   3.899   6.030  0.1406  0.2791 -0.3088
  102SAPE  H18R10369   5.706   3.977   6.025  1.5655 -1.2070 -2.0076
  102SAPE  H18S10370   5.538   3.936   6.088 -1.1087  0.5965 -2.2833
  102SAPE  C21910371   5.582   3.858   5.893 -0.6777 -0.6972  0.3040
  102SAPE  H19R10372   5.544   3.950   5.843  0.6268 -1.1098 -1.5728
  102SAPE  H19S10373   5.504   3.779   5.900  0.6065 -2.0059  0.2928
  102SAPE  C22010374   5.685   3.811   5.787 -0.0845 -0.7059  0.1409
  102SAPE  H20R10375   5.698   3.885   5.705  1.2137 -2.2286 -1.1141
  102SAPE  H20S10376   5.650   3.715   5.743 -2.1575  0.3927 -0.7367
  102SAPE  H20T10377   5.783   3.785   5.832  0.7492 -0.0228 -1.2125
  102SAPE   C3310378   5.870   4.607   7.135 -0.3708  0.9724  0.1880
  102SAPE   H3X10379   5.957   4.625   7.202 -0.8567 -0.8273  1.3465
  102SAPE   H3Y10380   5.835   4.703   7.090  0.3610  0.6662 -1.0963
  102SAPE   C3410381   5.926   4.528   7.019  0.6707  0.6829  0.1868
  102SAPE   H4X10382   5.835   4.488   6.969  0.3827  2.5512 -0.8691
  102SAPE   H4Y10383   5.987   4.445   7.062 -1.8299 -1.4373 -0.1511
  102SAPE   C3510384   5.998   4.618   6.916 -0.6297  0.6287 -0.2589
  102SAPE   H5X10385   6.065   4.681   6.977 -1.3644  0.8641  0.3171
  102SAPE   H5Y10386   5.925   4.680   6.859 -1.1669  1.3205  1.1218
  102SAPE   C3610387   6.069   4.528   6.814  0.3835  0.2858  0.3203
  102SAPE   H6X10388   5.998   4.475   6.746  0.4366  1.8350 -1.0122
  102SAPE   H6Y10389   6.130   4.450   6.865 -1.5854 -1.5046  0.0623
  102SAPE   C3710390   6.176   4.605   6.729  0.0951 -0.2829  0.0673
  102SAPE   H7X10391   6.243   4.653   6.803  1.7919  0.8359 -2.0818
  102SAPE   H7Y10392   6.125   4.687   6.674  0.6627 -0.0160 -0.0658
  102SAPE   C3810393   6.253   4.508   6.635 -0.2958 -0.3200 -0.2631
  102SAPE   H8X10394   6.301   4.429   6.696  0.2326  1.5661  1.8733
  102SAPE   H8Y10395   6.334   4.576   6.602  0.6437 -0.1205  2.2192
  102SAPE   C3910396   6.162   4.460   6.523  0.0142 -0.6123  0.4474
  102SAPE   H9X10397   6.140   4.551   6.463 -2.6871 -1.2032  0.4180
  102SAPE   H9Y10398   6.066   4.418   6.558 -0.3815  1.2319  1.7360
  102SAPE  C31010399   6.228   4.358   6.427  0.0762 -0.0283  0.7565
  102SAPE  H10X10400   6.275   4.273   6.480 -0.3066 -0.8898 -0.2376
  102SAPE  H10Y10401   6.308   4.401   6.363  0.1299 -2.4118 -0.9182
  102SAPE  C31110402   6.128   4.302   6.320 -0.8900  0.7923 -0.0732
  102SAPE  H11X10403   6.060   4.383   6.288  1.4523  2.4627 -1.0942
  102SAPE  H11Y10404   6.074   4.217   6.367 -0.2596  1.1195  1.2922
  102SAPE  C31210405   6.200   4.234   6.199 -0.0578 -0.5074 -0.0368
  102SAPE  H12X10406   6.252   4.138   6.222 -0.3220 -0.4633  0.7641
  102SAPE  H12Y10407   6.273   4.301   6.150 -0.2933 -0.5472 -0.4481
  102SAPE  C31310408   6.085   4.211   6.094 -0.8008  0.0921  0.2098
  102SAPE  H13X10409   6.036   4.310   6.088 -0.7016  0.1046 -0.4373
  102SAPE  H13Y10410   6.007   4.142   6.131  0.9991 -2.0036  0.3117
  102SAPE  C31410411   6.141   4.166   5.960  0.2315 -0.3219  0.4622
  102SAPE  H14X10412   6.232   4.226   5.941 -0.5720  0.5290 -0.8951
  102SAPE  H14Y10413   6.066   4.188   5.881  0.8474  1.9695  0.4553
  102SAPE  C31510414   6.164   4.013   5.951 -0.6793 -0.6704 -0.2514
  102SAPE  H15X10415   6.222   3.986   6.042 -0.6089 -1.5156 -0.5353
  102SAPE  H15Y10416   6.222   3.980   5.862  0.9554  0.1780  0.4616
  102SAPE  C31610417   6.034   3.934   5.961 -0.5188  0.0927 -0.3666
  102SAPE  H16X10418   5.978   3.970   5.872  1.7279  0.8023 -1.5639
  102SAPE  H16Y10419   5.979   3.964   6.053 -0.5052  2.0376 -0.9490
  102SAPE  C31710420   6.046   3.777   5.976 -0.3728 -0.1264 -0.3725
  102SAPE  H17X10421   5.947   3.730   5.993  0.4127 -0.9688  2.4260
  102SAPE  H17Y10422   6.088   3.762   6.078 -0.4649 -0.5219 -0.3892
  102SAPE  C31810423   6.131   3.705   5.875 -0.1909  0.8598  0.5752
  102SAPE  H18X10424   6.123   3.600   5.912  2.3750  0.0844 -0.8454
  102SAPE  H18Y10425   6.238   3.736   5.874 -0.3889  1.5454 -0.3789
  102SAPE  H18Z10426   6.085   3.717   5.775 -0.2452  2.7282  0.8002
  103SAPE     N10427   6.510   1.620   3.220  0.3199  0.0585 -0.3902
  103SAPE   HN110428   6.543   1.580   3.130  0.2568 -0.1633 -0.3139
  103SAPE   HN210429   6.445   1.556   3.270 -1.6197  2.1769 -0.0295
  103SAPE   HN310430   6.461   1.711   3.207  0.0734 -0.1767 -1.1310
  103SAPE   C1210431   6.635   1.642   3.307  0.3587  0.4632  0.0523
  103SAPE  H12A10432   6.597   1.633   3.411 -1.2124 -3.0191 -0.6725
  103SAPE  H12B10433   6.666   1.747   3.288 -2.0189  1.4086  0.9716
  103SAPE   C1110434   6.743   1.535   3.279  0.3171  0.0994  0.2847
  103SAPE  H11A10435   6.705   1.431   3.286  0.4647  0.1434  3.0161
  103SAPE  H11B10436   6.826   1.558   3.350 -0.2921 -0.7632  1.3050
  103SAPE     P10437   6.894   1.624   3.079  0.0481  0.0017  0.5243
  103SAPE   O1310438   6.923   1.553   2.948  0.6151  0.4142 -0.8853
  103SAPE   O1410439   6.864   1.768   3.076  0.0667 -0.5558  0.4327
  103SAPE   O1210440   6.777   1.540   3.138  0.3297  0.1782 -0.6734
  103SAPE   O1110441   7.018   1.608   3.168  0.1487  0.1689 -0.1661
  103SAPE    C110442   7.075   1.476   3.189 -0.6418 -0.4679  0.0762
  103SAPE    HA10443   7.017   1.396   3.138 -1.6003  0.2200  0.0663
  103SAPE    HB10444   7.176   1.489   3.143 -1.3706  3.2616 -0.7675
  103SAPE    C210445   7.102   1.449   3.341  0.1183  0.2104  0.4180
  103SAPE    HS10446   7.004   1.450   3.393 -1.5327  2.1347 -2.4345
  103SAPE   O2110447   7.193   1.545   3.392  0.5530 -0.2552  0.0417
  103SAPE   C2110448   7.175   1.586   3.517 -0.3316 -0.2125  0.1370
  103SAPE   O2210449   7.079   1.552   3.583  0.5709 -0.3311  0.1920
  103SAPE   C2210450   7.281   1.688   3.564 -0.1831 -0.1470  0.4895
  103SAPE   H2R10451   7.302   1.746   3.471 -0.9975 -0.1750  0.2807
  103SAPE   H2S10452   7.232   1.754   3.639  0.5087  1.1329 -0.1534
  103SAPE    C310453   7.163   1.307   3.354 -0.3698  0.3044 -0.3856
  103SAPE    HX10454   7.266   1.313   3.313  0.0214 -2.1941  0.0473
  103SAPE    HY10455   7.113   1.231   3.289  0.1868 -0.0252 -0.4358
  103SAPE   O3110456   7.162   1.263   3.486  0.0562  0.6706  0.3904
  103SAPE   C3110457   7.059   1.180   3.525  0.5746  0.9452 -0.1720
  103SAPE   O3210458   6.982   1.120   3.454 -0.0630 -0.1477  0.0123
  103SAPE   C3210459   7.058   1.169   3.680 -0.0087 -0.2063 -0.4823
  103SAPE   H2X10460   7.018   1.267   3.715  2.4157  1.8289 -2.9186
  103SAPE   H2Y10461   7.163   1.168   3.717 -0.2806 -0.7722  0.3101
  103SAPE   C2310462   7.418   1.626   3.622  0.5856 -0.9078 -0.6636
  103SAPE   H3R10463   7.471   1.557   3.552  2.4189 -2.6258  2.1738
  103SAPE   H3S10464   7.411   1.566   3.716  0.1270 -1.0794 -0.8052
  103SAPE   C2410465   7.515   1.743   3.658 -0.3620 -0.4486 -0.4230
  103SAPE   H4R10466   7.521   1.803   3.565  1.5616 -1.2462 -0.8573
  103SAPE   H4S10467   7.613   1.696   3.680 -0.6270 -0.9849 -0.3545
  103SAPE   C2510468   7.467   1.834   3.777  0.2000 -0.1370  0.4021
  103SAPE   H5R10469   7.403   1.915   3.740 -1.5599 -1.7894 -0.3155
  103SAPE   C2610470   7.475   1.809   3.905  0.1254  0.1031  0.0224
  103SAPE   H6R10471   7.427   1.880   3.975  0.4100 -0.6020  0.9549
  103SAPE   C2710472   7.543   1.696   3.972 -0.1561 -0.1323  0.0801
  103SAPE   H7R10473   7.491   1.605   3.937  1.1557  0.4737 -3.9157
  103SAPE   H7S10474   7.519   1.703   4.080  0.7433  0.6578  0.2448
  103SAPE   C2810475   7.688   1.691   3.948  0.7511 -0.0181  0.2913
  103SAPE   H8R10476   7.723   1.651   3.852  2.5674 -0.7890  1.2106
  103SAPE   C2910477   7.790   1.689   4.037  0.1590  0.1178 -0.0086
  103SAPE   H9R10478   7.891   1.701   3.995  0.1723  1.1153  0.2900
  103SAPE  C21010479   7.779   1.728   4.183  0.1329  0.1767 -0.4103
  103SAPE  H10R10480   7.717   1.819   4.195 -1.1194 -0.9065  2.5524
  103SAPE  H10S10481   7.876   1.753   4.231 -1.5348  2.4799  2.0833
  103SAPE  C21110482   7.711   1.613   4.252  0.1911 -0.0327  0.5129
  103SAPE  H11R10483   7.761   1.520   4.221  1.1507 -0.0177  1.8793
  103SAPE  C21210484   7.602   1.601   4.328 -0.1993 -1.1309 -0.6562
  103SAPE  H12R10485   7.573   1.500   4.358 -1.8939 -0.2367  0.9223
  103SAPE  C21310486   7.505   1.707   4.381  0.0426 -0.1933  0.4864
  103SAPE  H13R10487   7.509   1.799   4.319  2.4857 -0.7947 -0.3626
  103SAPE  H13S10488   7.539   1.736   4.483 -0.3909 -1.3837  0.9871
  103SAPE  C21410489   7.354   1.668   4.367  0.4621 -0.5287  0.2113
  103SAPE  H14R10490   7.309   1.679   4.268  1.0736  1.1046  0.0865
  103SAPE  C21510491   7.279   1.601   4.455  0.3308  0.1995 -0.2908
  103SAPE  H15R10492   7.174   1.583   4.428 -1.1765  3.5531  2.6053
  103SAPE  C21610493   7.326   1.553   4.594  0.0500 -0.4160 -0.2559
  103SAPE  H16R10494   7.300   1.632   4.667  0.6132  1.3323 -1.8495
  103SAPE  H16S10495   7.437   1.550   4.591  0.0168 -1.8757 -0.8198
  103SAPE  C21710496   7.262   1.423   4.635  0.7207 -0.1243 -0.1261
  103SAPE  H17R10497   7.317   1.381   4.722  0.9810  1.3920  0.4854
  103SAPE  H17S10498   7.266   1.356   4.546  0.0603  2.9419 -2.6469
  103SAPE  C21810499   7.117   1.447   4.676 -0.5962  0.0602 -0.0175
  103SAPE  H18R10500   7.053   1.468   4.588  0.7490  2.3560 -0.5030
  103SAPE  H18S10501   7.103   1.531   4.747  0.7324 -0.4297  0.8869
  103SAPE  C21910502   7.051   1.321   4.730  0.5719  0.3682  0.5820
  103SAPE  H19R10503   7.103   1.294   4.824  1.0715  0.7210  0.4099
  103SAPE  H19S10504   7.068   1.233   4.664  2.0400  0.3508  0.9473
  103SAPE  C22010505   6.901   1.343   4.765  0.0066  0.0516  0.2169
  103SAPE  H20R10506   6.837   1.355   4.674  1.7126  2.0659 -0.7929
  103SAPE  H20S10507   6.896   1.438   4.823 -1.5564 -0.1236  0.4253
  103SAPE  H20T10508   6.867   1.263   4.834  0.6540 -0.3422  0.0791
  103SAPE   C3310509   6.973   1.059   3.747  0.1903  0.3262  0.3853
  103SAPE   H3X10510   7.012   0.963   3.706  1.6628 -0.4167  3.2498
  103SAPE   H3Y10511   6.869   1.078   3.712  0.0650 -1.6049 -0.4746
  103SAPE   C3410512   6.981   1.059   3.898 -0.3252 -0.9243  0.0282
  103SAPE   H4X10513   7.090   1.054   3.916 -0.0906  3.5175  0.8286
  103SAPE   H4Y10514   6.934   0.963   3.930 -0.7473  0.2167  3.2198
  103SAPE   C3510515   6.913   1.170   3.973 -0.4075  0.5269 -0.0108
  103SAPE   H5X10516   6.808   1.165   3.936  0.6181  1.6518 -3.4699
  103SAPE   H5Y10517   6.936   1.274   3.943  1.2742  0.6436  1.5405
  103SAPE   C3610518   6.930   1.157   4.120 -0.3396  0.3155 -0.5312
  103SAPE   H6X10519   7.034   1.170   4.159 -0.7831 -0.6052  1.0514
  103SAPE   H6Y10520   6.906   1.049   4.128  0.0896 -0.2293 -4.7304
  103SAPE   C3710521   6.834   1.225   4.222  0.1112 -0.1953 -0.2902
  103SAPE   H7X10522   6.733   1.178   4.211 -0.4734  0.8467  0.4631
  103SAPE   H7Y10523   6.831   1.333   4.198  0.7885  0.6964  3.1586
  103SAPE   C3810524   6.883   1.199   4.361  0.6830  0.6351  0.2280
  103SAPE   H8X10525   6.860   1.280   4.433 -0.8977  0.9430 -0.5624
  103SAPE   H8Y10526   6.993   1.188   4.360  0.4908 -2.1565 -0.0097
  103SAPE   C3910527   6.830   1.063   4.404  0.2272  0.0418 -0.9753
  103SAPE   H9X10528   6.850   0.976   4.339 -0.4975 -0.9716  0.1089
  103SAPE   H9Y10529   6.719   1.068   4.412  0.2275 -0.9670 -0.1011
  103SAPE  C31010530   6.890   1.031   4.540  0.9888 -0.2853  0.1678
  103SAPE  H10X10531   6.863   1.104   4.620  2.1675 -0.8695  1.1335
  103SAPE  H10Y10532   7.000   1.044   4.527  0.8617  0.8417  0.1055
  103SAPE  C31110533   6.861   0.892   4.589 -0.2925  0.4360 -0.1183
  103SAPE  H11X10534   6.911   0.823   4.518 -1.9601  0.0238 -0.9483
  103SAPE  H11Y10535   6.751   0.881   4.601 -0.1091 -2.3784 -0.4062
  103SAPE  C31210536   6.921   0.868   4.730 -0.3217  0.1268 -0.2083
  103SAPE  H12X10537   6.886   0.775   4.779  1.6241  0.6488  2.3798
  103SAPE  H12Y10538   6.915   0.959   4.793 -0.7102  0.5459 -0.8429
  103SAPE  C31310539   7.075   0.837   4.712  0.1152  0.4059  0.2273
  103SAPE  H13X10540   7.113   0.930   4.663  0.1060  0.2707 -0.0382
  103SAPE  H13Y10541   7.072   0.747   4.648 -1.3988 -0.2782  1.1850
  103SAPE  C31410542   7.151   0.804   4.844  0.3901 -0.4813  0.4300
  103SAPE  H14X10543   7.124   0.701   4.876 -1.5499 -0.4443 -0.9471
  103SAPE  H14Y10544   7.125   0.883   4.917  0.1658 -0.0925 -0.0637
  103SAPE  C31510545   7.305   0.811   4.832 -0.2173 -0.0041 -0.5575
  103SAPE  H15X10546   7.344   0.914   4.814 -1.9109  0.0906 -4.9162
  103SAPE  H15Y10547   7.335   0.747   4.746 -3.1137 -1.2990 -0.7051
  103SAPE  C31610548   7.379   0.739   4.951 -0.9097  0.1145  0.5137
  103SAPE  H16X10549   7.340   0.635   4.961  0.0332 -0.4252 -1.1088
  103SAPE  H16Y10550   7.360   0.791   5.048  1.9113 -0.9703  1.7728
  103SAPE  C31710551   7.535   0.737   4.930 -0.2204 -0.3507  0.2008
  103SAPE  H17X10552   7.583   0.835   4.949 -0.0431  0.1319 -2.3011
  103SAPE  H17Y10553   7.548   0.716   4.822 -2.8530 -0.4856 -0.1705
  103SAPE  C31810554   7.616   0.629   5.002 -0.2097  0.2703 -0.3862
  103SAPE  H18X10555   7.582   0.641   5.107 -0.8078  2.6161 -0.7997
  103SAPE  H18Y10556   7.726   0.647   5.001  0.4437 -3.0345 -1.3182
  103SAPE  H18Z10557   7.602   0.522   4.974  0.8748 -0.7813  2.6115
  104SAPE     N10558   3.822   4.770   2.541 -0.3626  0.2290 -0.1657
  104SAPE   HN110559   3.762   4.845   2.500 -1.0049 -0.4063 -0.3936
  104SAPE   HN210560   3.888   4.806   2.613  0.3357 -2.9304  0.9292
  104SAPE   HN310561   3.890   4.739   2.468  0.2042 -0.0960  0.4910
  104SAPE   C1210562   3.732   4.661   2.584 -0.0413 -0.6046 -0.1646
  104SAPE  H12A10563   3.797   4.575   2.612  1.1598 -0.1670 -1.5008
  104SAPE  H12B10564   3.666   4.638   2.498 -2.0718  1.0200  0.8771
  104SAPE   C1110565   3.644   4.706   2.701 -0.5809 -0.3193  0.0328
  104SAPE  H11A10566   3.715   4.735   2.781 -2.6366 -0.9640  2.2155
  104SAPE  H11B10567   3.584   4.621   2.741 -1.5921 -0.2805 -1.3263
  104SAPE     P10568   3.507   4.923   2.773  0.2060 -0.2650  0.1779
  104SAPE   O1310569   3.625   5.011   2.795  0.1178  0.1165 -0.2171
  104SAPE   O1410570   3.376   4.980   2.722 -0.0824  0.0039  0.1222
  104SAPE   O1210571   3.549   4.807   2.667  0.1194 -0.2989  0.2332
  104SAPE   O1110572   3.482   4.835   2.898 -0.7016 -0.1195 -0.5739
  104SAPE    C110573   3.388   4.731   2.902 -0.1590 -0.0410  0.3677
  104SAPE    HA10574   3.347   4.718   2.799 -1.7086 -3.3758  1.2726
  104SAPE    HB10575   3.441   4.638   2.930  0.1911  0.0489  0.0234
  104SAPE    C210576   3.265   4.755   2.991  0.2042 -0.1819 -0.8553
  104SAPE    HS10577   3.217   4.852   2.965  0.0714  1.0542  3.2207
  104SAPE   O2110578   3.305   4.757   3.123 -0.0728 -0.0859 -0.4003
  104SAPE   C2110579   3.356   4.878   3.154 -0.4509 -0.2593  0.2480
  104SAPE   O2210580   3.344   4.984   3.089 -0.1675 -0.1154  0.5127
  104SAPE   C2210581   3.429   4.856   3.289  0.6931 -0.2084  0.2812
  104SAPE   H2R10582   3.357   4.864   3.374 -0.8094 -0.9612 -0.8715
  104SAPE   H2S10583   3.475   4.755   3.289  2.2379  0.4741  0.5152
  104SAPE    C310584   3.161   4.652   2.965 -0.2573  0.5764 -0.1536
  104SAPE    HX10585   3.197   4.549   2.981  0.2037  0.9218  1.1121
  104SAPE    HY10586   3.127   4.654   2.859 -0.5612 -0.5704 -0.0817
  104SAPE   O3110587   3.045   4.660   3.050 -0.0933 -0.1377  0.0133
  104SAPE   C3110588   2.960   4.757   3.044 -1.1143 -0.1489  1.0029
  104SAPE   O3210589   2.961   4.846   2.955 -0.1124  0.4334 -0.7287
  104SAPE   C3210590   2.863   4.744   3.161 -0.5318  0.1475 -0.4377
  104SAPE   H2X10591   2.892   4.654   3.219 -0.9430 -0.6894 -1.4955
  104SAPE   H2Y10592   2.761   4.728   3.121 -0.6141 -1.1248  0.2162
  104SAPE   C2310593   3.551   4.949   3.300  0.6646 -0.4219 -0.0867
  104SAPE   H3R10594   3.517   5.055   3.303 -0.3388 -0.7405  0.5098
  104SAPE   H3S10595   3.619   4.939   3.213 -0.3423 -1.1291 -0.8173
  104SAPE   C2410596   3.637   4.924   3.420 -0.1331 -0.1804  0.2440
  104SAPE   H4R10597   3.675   4.820   3.417 -1.5850 -0.7202 -0.4537
  104SAPE   H4S10598   3.574   4.920   3.512 -0.1156  1.3652  0.3557
  104SAPE   C2510599   3.747   5.024   3.441  0.5086  0.1888 -0.1438
  104SAPE   H5R10600   3.799   5.052   3.349 -0.2453  2.6293  0.1093
  104SAPE   C2610601   3.784   5.076   3.555 -0.3910 -0.0386 -0.6076
  104SAPE   H6R10602   3.866   5.149   3.549  1.9541 -2.2949  1.3848
  104SAPE   C2710603   3.721   5.051   3.691 -0.2739 -0.2030  0.7399
  104SAPE   H7R10604   3.708   4.941   3.701  1.3203 -0.3678  1.4355
  104SAPE   H7S10605   3.630   5.112   3.708  0.0982 -0.0203  2.3137
  104SAPE   C2810606   3.807   5.076   3.812  0.6238 -0.2841  0.2460
  104SAPE   H8R10607   3.909   5.107   3.784  0.5033  1.0720  1.2073
  104SAPE   C2910608   3.780   5.053   3.942 -0.0532  0.2262 -0.4135
  104SAPE   H9R10609   3.863   5.072   4.012  1.4810 -0.2462 -2.0509
  104SAPE  C21010610   3.647   5.016   4.004 -0.4784  0.1001  0.1759
  104SAPE  H10R10611   3.594   4.950   3.932  0.7970  0.1932 -0.8879
  104SAPE  H10S10612   3.586   5.109   4.015 -1.4633 -0.2055 -2.2362
  104SAPE  C21110613   3.660   4.956   4.147 -0.1303 -0.2538  0.6026
  104SAPE  H11R10614   3.682   5.030   4.225  0.7175 -0.6751  0.7777
  104SAPE  C21210615   3.679   4.830   4.175  0.7080 -0.1724 -0.2084
  104SAPE  H12R10616   3.677   4.799   4.281 -0.1842  2.2034  0.5370
  104SAPE  C21310617   3.653   4.724   4.075 -0.1153  0.1920  0.4523
  104SAPE  H13R10618   3.685   4.630   4.123 -0.3012  0.1645  0.5214
  104SAPE  H13S10619   3.719   4.744   3.987  0.0858  3.6508  1.2509
  104SAPE  C21410620   3.518   4.710   4.011  0.8762 -0.3649 -0.1541
  104SAPE  H14R10621   3.440   4.768   4.062  1.2517 -0.5207  0.6070
  104SAPE  C21510622   3.472   4.655   3.896 -0.1105  0.1239  0.5676
  104SAPE  H15R10623   3.363   4.656   3.881  0.2170  2.4278 -2.6275
  104SAPE  C21610624   3.555   4.562   3.815 -0.2035 -0.2314  0.2996
  104SAPE  H16R10625   3.645   4.522   3.867  0.3388 -0.6348 -0.9196
  104SAPE  H16S10626   3.595   4.604   3.721  1.5129  1.4487  1.7047
  104SAPE  C21710627   3.477   4.425   3.795  0.2330 -0.2330 -0.3579
  104SAPE  H17R10628   3.538   4.368   3.722  2.0547  3.2684 -1.8168
  104SAPE  H17S10629   3.377   4.442   3.750 -0.3372  0.3155  1.0763
  104SAPE  C21810630   3.468   4.349   3.928  0.5540 -0.4072  0.1476
  104SAPE  H18R10631   3.383   4.397   3.981 -0.6645  0.0224 -2.1036
  104SAPE  H18S10632   3.556   4.354   3.996  1.0325  1.6383 -0.5686
  104SAPE  C21910633   3.437   4.197   3.908  0.9602  0.5267 -0.0881
  104SAPE  H19R10634   3.420   4.138   4.000  2.7872  0.0094 -0.0486
  104SAPE  H19S10635   3.520   4.144   3.856 -0.9634 -1.8111 -0.9948
  104SAPE  C22010636   3.313   4.174   3.829  0.1074  0.3684  0.5108
  104SAPE  H20R10637   3.345   4.214   3.730 -0.8513 -0.0977 -0.0071
  104SAPE  H20S10638   3.226   4.227   3.872  0.3511 -0.8804  2.6751
  104SAPE  H20T10639   3.289   4.070   3.798  3.3517  0.3169 -2.4080
  104SAPE   C3310640   2.885   4.870   3.248 -0.0122  0.2234  0.1037
  104SAPE   H3X10641   2.833   4.955   3.199  0.0274 -0.5046 -1.2401
  104SAPE   H3Y10642   2.989   4.900   3.272  0.6374  0.7077 -2.8915
  104SAPE   C3410643   2.805   4.838   3.385  0.2492 -0.3128  0.4140
  104SAPE   H4X10644   2.861   4.762   3.443  2.1595  0.8476  0.2009
  104SAPE   H4Y10645   2.707   4.799   3.352 -0.3861  1.1340  0.5354
  104SAPE   C3510646   2.787   4.965   3.474 -1.0828  0.0925  0.0953
  104SAPE   H5X10647   2.755   5.044   3.403 -2.4638 -2.0054 -1.7784
  104SAPE   H5Y10648   2.885   4.996   3.515  0.6583 -1.9872 -2.1335
  104SAPE   C3610649   2.685   4.930   3.584 -0.4171 -0.3349 -0.1473
  104SAPE   H6X10650   2.715   4.831   3.624  1.5407 -0.0730 -0.8742
  104SAPE   H6Y10651   2.594   4.924   3.520 -0.6695  2.9738 -0.2570
  104SAPE   C3710652   2.663   5.035   3.690 -0.6310  0.3354 -0.3286
  104SAPE   H7X10653   2.629   5.136   3.659  1.2438  1.0142 -0.3027
  104SAPE   H7Y10654   2.761   5.052   3.740 -0.6982  0.4382 -0.2312
  104SAPE   C3810655   2.562   4.994   3.802 -0.0910  0.4963 -0.0627
  104SAPE   H8X10656   2.556   4.886   3.827  1.9997  0.6365  1.2096
  104SAPE   H8Y10657   2.459   5.022   3.770  0.2174  1.0258 -0.6118
  104SAPE   C3910658   2.581   5.074   3.934  0.8043 -0.7156  0.1480
  104SAPE   H9X10659   2.502   5.034   4.001  0.6550 -0.7873 -0.0681
  104SAPE   H9Y10660   2.550   5.180   3.927  0.3852 -0.8668 -0.3228
  104SAPE  C31010661   2.715   5.059   4.011 -0.4723  0.7312  0.1461
  104SAPE  H10X10662   2.797   5.111   3.958 -2.3109  0.2533 -3.4217
  104SAPE  H10Y10663   2.752   4.955   4.026 -0.6613  0.8654  1.7678
  104SAPE  C31110664   2.705   5.115   4.152 -0.2874  0.0143  0.6452
  104SAPE  H11X10665   2.638   5.202   4.162 -2.0602 -1.4748  2.7259
  104SAPE  H11Y10666   2.811   5.139   4.176 -0.0449  0.5685 -0.8931
  104SAPE  C31210667   2.655   5.014   4.256 -0.2384  0.3473 -0.1487
  104SAPE  H12X10668   2.719   4.923   4.258  0.8797  1.1282  0.7848
  104SAPE  H12Y10669   2.550   4.991   4.226  0.2148 -0.4741 -1.1373
  104SAPE  C31310670   2.668   5.083   4.389 -0.1260  0.7557 -0.0405
  104SAPE  H13X10671   2.632   5.186   4.365 -2.5936 -0.1831 -0.6931
  104SAPE  H13Y10672   2.778   5.080   4.407  0.3428 -1.1096 -2.7035
  104SAPE  C31410673   2.596   5.014   4.498 -0.3729  0.2729 -0.5642
  104SAPE  H14X10674   2.630   5.029   4.603 -1.5305 -2.5833  0.3255
  104SAPE  H14Y10675   2.608   4.905   4.483 -2.0509  0.4459 -4.4998
  104SAPE  C31510676   2.441   5.039   4.496 -0.1639  0.0477  0.4954
  104SAPE  H15X10677   2.402   4.958   4.560  0.8255 -1.0461 -0.2339
  104SAPE  H15Y10678   2.394   5.023   4.397 -0.1263 -0.2862  0.5312
  104SAPE  C31610679   2.409   5.178   4.535  0.5098  0.0418 -0.0206
  104SAPE  H16X10680   2.460   5.249   4.466  0.7426  0.9010  1.0068
  104SAPE  H16Y10681   2.458   5.210   4.629  0.4430  0.7167 -0.2080
  104SAPE  C31710682   2.263   5.215   4.536 -0.6439  0.4874 -0.0857
  104SAPE  H17X10683   2.215   5.186   4.440 -3.0347 -2.0136  1.7091
  104SAPE  H17Y10684   2.262   5.323   4.564  0.3596 -0.0547  2.2682
  104SAPE  C31810685   2.173   5.144   4.644  0.1961  0.9189 -0.3293
  104SAPE  H18X10686   2.069   5.182   4.636 -0.7747 -1.4462  0.1575
  104SAPE  H18Y10687   2.225   5.147   4.743 -2.0208  1.3926  0.8910
  104SAPE  H18Z10688   2.160   5.038   4.614 -1.2244  0.7089  0.9459
  105SAPE     N10689   4.777   6.548   2.849 -0.5766  0.1391 -0.3216
  105SAPE   HN110690   4.854   6.611   2.820 -0.0729 -0.0276  0.6121
  105SAPE   HN210691   4.775   6.475   2.775  4.0150  0.2803 -0.8782
  105SAPE   HN310692   4.699   6.617   2.856 -0.5491  0.0501  1.1255
  105SAPE   C1210693   4.817   6.483   2.986 -0.7187  0.5098  0.5772
  105SAPE  H12A10694   4.738   6.406   2.999  1.1277 -1.3151  1.4731
  105SAPE  H12B10695   4.827   6.554   3.071 -1.7399 -0.1143  1.2374
  105SAPE   C1110696   4.948   6.405   2.958 -0.9330 -0.1776 -0.1329
  105SAPE  H11A10697   4.977   6.350   3.050 -0.4787  1.4438  0.7270
  105SAPE  H11B10698   5.023   6.486   2.942  2.1618 -2.5854  1.0432
  105SAPE     P10699   5.023   6.344   2.717  0.1200 -0.3990  0.1019
  105SAPE   O1310700   5.013   6.231   2.626  0.2907  1.0532 -0.4404
  105SAPE   O1410701   4.997   6.482   2.665 -0.1237  0.0848  0.4387
  105SAPE   O1210702   4.938   6.317   2.843  0.1980 -0.1564  0.0813
  105SAPE   O1110703   5.166   6.347   2.776  0.1690  0.0873 -0.7712
  105SAPE    C110704   5.237   6.221   2.803 -0.1318  0.4382 -0.5973
  105SAPE    HA10705   5.209   6.136   2.737  0.2590 -1.1065  1.1519
  105SAPE    HB10706   5.345   6.243   2.786  0.5087  0.2512  2.6296
  105SAPE    C210707   5.228   6.187   2.953  0.3231 -0.7339  0.6784
  105SAPE    HS10708   5.123   6.168   2.983 -0.3670 -0.0295 -1.1652
  105SAPE   O2110709   5.287   6.298   3.024 -0.4381 -1.0733  0.5583
  105SAPE   C2110710   5.243   6.307   3.153 -0.2173 -0.0095  0.0768
  105SAPE   O2210711   5.169   6.233   3.211  0.5298  0.2254 -0.3392
  105SAPE   C2210712   5.312   6.431   3.211  0.2373  0.3197  0.2326
  105SAPE   H2R10713   5.348   6.492   3.125 -0.3001 -0.4181 -0.5326
  105SAPE   H2S10714   5.232   6.491   3.259 -3.2048 -1.8404 -2.3410
  105SAPE    C310715   5.315   6.061   2.974  0.1100  1.0464 -0.6847
  105SAPE    HX10716   5.416   6.096   2.941  0.2268  1.5897  0.2043
  105SAPE    HY10717   5.282   5.977   2.909  0.6539 -0.5352  1.0283
  105SAPE   O3110718   5.334   6.025   3.113 -0.1676  0.0323 -0.4499
  105SAPE   C3110719   5.229   5.954   3.162  0.4588  0.0524  0.1538
  105SAPE   O3210720   5.138   5.905   3.098 -0.3677  0.0598 -0.4784
  105SAPE   C3210721   5.246   5.949   3.318  0.4507  0.3658  0.2161
  105SAPE   H2X10722   5.296   6.043   3.349  0.3303  0.3217  0.5510
  105SAPE   H2Y10723   5.291   5.853   3.352 -0.9489  0.5408  2.8269
  105SAPE   C2310724   5.423   6.380   3.299  0.5723 -0.0270  0.0461
  105SAPE   H3R10725   5.514   6.441   3.278 -0.1520  1.4436  1.0116
  105SAPE   H3S10726   5.452   6.275   3.275 -0.9424 -0.6560  0.8234
  105SAPE   C2410727   5.383   6.378   3.450  0.7188 -0.1587  0.9926
  105SAPE   H4R10728   5.294   6.313   3.462  2.2038 -2.1813  1.4872
  105SAPE   H4S10729   5.368   6.483   3.483 -2.8438  0.2310 -1.3030
  105SAPE   C2510730   5.494   6.309   3.519  0.0514  0.0674 -0.0523
  105SAPE   H5R10731   5.518   6.208   3.483  0.4819 -0.5285  1.8078
  105SAPE   C2610732   5.576   6.360   3.613 -0.3525  0.2148  0.0948
  105SAPE   H6R10733   5.637   6.278   3.653 -0.6057 -0.1776 -0.3060
  105SAPE   C2710734   5.564   6.496   3.685  0.0823  0.6872 -0.3255
  105SAPE   H7R10735   5.480   6.482   3.756  0.6278  0.5005  0.2938
  105SAPE   H7S10736   5.533   6.581   3.620  1.2073  1.6562  0.3632
  105SAPE   C2810737   5.687   6.521   3.770  0.5082 -0.1364  0.0543
  105SAPE   H8R10738   5.746   6.433   3.799  0.5479 -0.9373 -2.2458
  105SAPE   C2910739   5.730   6.644   3.788  0.0901 -0.0007 -0.2733
  105SAPE   H9R10740   5.795   6.652   3.876 -2.0337  0.4144  1.3465
  105SAPE  C21010741   5.665   6.771   3.744  0.2578 -0.3964 -0.3306
  105SAPE  H10R10742   5.636   6.754   3.638  1.6797  1.0164 -0.9849
  105SAPE  H10S10743   5.740   6.853   3.744  0.4984 -0.5921 -1.5091
  105SAPE  C21110744   5.541   6.826   3.812 -0.7462 -0.0214  0.2535
  105SAPE  H11R10745   5.510   6.772   3.903  0.5984 -1.5810 -0.1639
  105SAPE  C21210746   5.461   6.922   3.764 -0.0179  0.0349 -0.5783
  105SAPE  H12R10747   5.369   6.953   3.816  0.5736  3.5706 -1.3644
  105SAPE  C21310748   5.492   6.994   3.637  0.6257  0.1627 -0.0235
  105SAPE  H13R10749   5.414   6.957   3.567  1.0936 -0.1801 -0.3665
  105SAPE  H13S10750   5.587   6.970   3.586 -0.5082 -1.5013 -1.4614
  105SAPE  C21410751   5.467   7.142   3.646  0.0101 -0.7533 -0.6044
  105SAPE  H14R10752   5.395   7.186   3.717  0.1248 -1.6826  0.1118
  105SAPE  C21510753   5.533   7.233   3.571  0.4131 -0.5083  0.3415
  105SAPE  H15R10754   5.501   7.338   3.580  0.9967 -0.1204 -1.7327
  105SAPE  C21610755   5.647   7.207   3.478 -0.2274  0.0081  0.1749
  105SAPE  H16R10756   5.697   7.115   3.515 -1.0252 -0.6734 -0.3917
  105SAPE  H16S10757   5.728   7.284   3.481  0.5099 -0.7404 -0.2471
  105SAPE  C21710758   5.605   7.161   3.338  0.2365 -0.0510 -0.1013
  105SAPE  H17R10759   5.515   7.096   3.335  1.3816 -1.7576  0.5658
  105SAPE  H17S10760   5.694   7.103   3.306  0.6791 -0.0401  1.0712
  105SAPE  C21810761   5.579   7.270   3.232  0.0826 -0.4896 -0.5432
  105SAPE  H18R10762   5.666   7.339   3.229 -0.5728  0.3747 -3.6123
  105SAPE  H18S10763   5.484   7.324   3.255 -0.5405 -1.0685 -1.6894
  105SAPE  C21910764   5.584   7.207   3.094  0.8890 -0.1497 -0.3040
  105SAPE  H19R10765   5.534   7.108   3.099 -0.0938  0.3624  0.3992
  105SAPE  H19S10766   5.688   7.178   3.070  0.3162 -1.2433 -1.5758
  105SAPE  C22010767   5.514   7.294   2.984  0.2386 -0.5968  0.5720
  105SAPE  H20R10768   5.530   7.239   2.889 -1.4695  0.0355 -0.1217
  105SAPE  H20S10769   5.548   7.398   2.970 -2.4580  0.5772  2.0262
  105SAPE  H20T10770   5.406   7.296   3.010 -0.0324  0.6761 -0.5461
  105SAPE   C3310771   5.108   5.940   3.394  0.1472  0.1514 -0.3046
  105SAPE   H3X10772   5.063   5.848   3.350 -0.2284  0.0760  0.2368
  105SAPE   H3Y10773   5.044   6.028   3.374 -0.7640 -0.1748  1.0518
  105SAPE   C3410774   5.119   5.915   3.550  0.0279 -0.1060  0.0959
  105SAPE   H4X10775   5.177   5.822   3.570 -0.6504 -0.0778  2.4206
  105SAPE   H4Y10776   5.020   5.897   3.596  0.5771 -0.7118  1.0804
  105SAPE   C3510777   5.195   6.032   3.622  0.3506 -0.9936 -0.2387
  105SAPE   H5X10778   5.123   6.116   3.616  0.8007 -0.6319 -0.5723
  105SAPE   H5Y10779   5.291   6.051   3.571  0.7866  0.9554  1.1684
  105SAPE   C3610780   5.204   6.012   3.780 -0.3787 -0.1222  0.4711
  105SAPE   H6X10781   5.284   5.935   3.789 -0.8442 -0.4468  2.2441
  105SAPE   H6Y10782   5.106   5.973   3.815 -0.5733  0.1064  0.1873
  105SAPE   C3710783   5.231   6.132   3.863 -0.3207 -1.1739 -0.2189
  105SAPE   H7X10784   5.136   6.188   3.851  0.1187 -0.6718 -1.5654
  105SAPE   H7Y10785   5.325   6.181   3.829 -0.3510 -0.1828  1.0510
  105SAPE   C3810786   5.244   6.089   4.015  0.6591 -0.3188  0.0554
  105SAPE   H8X10787   5.310   6.000   4.017  0.1763 -0.7049 -0.7014
  105SAPE   H8Y10788   5.141   6.056   4.043  1.3812 -2.3327  0.5155
  105SAPE   C3910789   5.282   6.214   4.110  0.0969  0.3980 -0.0350
  105SAPE   H9X10790   5.211   6.298   4.094 -1.8472 -0.6816  2.2400
  105SAPE   H9Y10791   5.374   6.264   4.073 -0.6303  1.7039 -0.1032
  105SAPE  C31010792   5.300   6.183   4.258 -0.5504  0.5600  0.0642
  105SAPE  H10X10793   5.345   6.274   4.303  2.1009 -0.7263  0.2381
  105SAPE  H10Y10794   5.379   6.106   4.273  0.4756  1.3404 -1.1286
  105SAPE  C31110795   5.168   6.156   4.331 -0.2003 -0.1090  0.0136
  105SAPE  H11X10796   5.148   6.047   4.316  0.0829 -0.3396  1.2323
  105SAPE  H11Y10797   5.095   6.228   4.287  1.7374  1.3772 -0.9365
  105SAPE  C31210798   5.155   6.183   4.480  0.2794  0.8409  0.3593
  105SAPE  H12X10799   5.214   6.272   4.513 -0.9787  2.2876 -1.1116
  105SAPE  H12Y10800   5.203   6.102   4.540  1.5744  1.7795  0.6490
  105SAPE  C31310801   5.018   6.217   4.536  0.1502 -0.7666  0.8859
  105SAPE  H13X10802   4.937   6.152   4.497  0.3501 -0.0409 -0.7967
  105SAPE  H13Y10803   4.990   6.318   4.498 -1.5030 -1.9837 -1.3802
  105SAPE  C31410804   5.015   6.206   4.684  0.7469 -0.5239  0.5152
  105SAPE  H14X10805   5.100   6.258   4.733  2.0639 -1.0898 -1.0809
  105SAPE  H14Y10806   5.028   6.098   4.708  0.8313 -0.5477  0.3574
  105SAPE  C31510807   4.874   6.259   4.731 -0.0259 -0.1301 -0.6848
  105SAPE  H15X10808   4.792   6.215   4.671  1.4212 -0.9981 -2.0953
  105SAPE  H15Y10809   4.871   6.370   4.725 -1.3783 -0.1621 -1.0174
  105SAPE  C31610810   4.846   6.222   4.881  0.0563 -0.3892  0.0244
  105SAPE  H16X10811   4.912   6.286   4.943 -0.9184  0.8608 -0.1942
  105SAPE  H16Y10812   4.874   6.114   4.890 -0.6437 -0.4064  2.8564
  105SAPE  C31710813   4.700   6.240   4.939 -0.7649  0.5724 -0.3162
  105SAPE  H17X10814   4.642   6.164   4.882  0.8567 -3.0961  2.4311
  105SAPE  H17Y10815   4.659   6.342   4.925 -1.8253  0.0900 -0.8497
  105SAPE  C31810816   4.689   6.203   5.085 -0.0517  0.2877 -0.5084
  105SAPE  H18X10817   4.586   6.179   5.120 -0.0673  0.7745 -0.2024
  105SAPE  H18Y10818   4.716   6.292   5.145 -1.4648  0.3070  0.1487
  105SAPE  H18Z10819   4.755   6.115   5.101  0.0530  0.4488 -0.0374
  106SAPE     N10820   3.974   2.165   3.012 -1.0998 -0.9555  0.3781
  106SAPE   HN110821   3.930   2.079   2.972  0.4258 -1.4799 -0.2336
  106SAPE   HN210822   3.975   2.238   2.939 -3.5072  1.0534  2.1780
  106SAPE   HN310823   4.073   2.144   3.037 -0.9514 -0.2674  0.3751
  106SAPE   C1210824   3.897   2.214   3.139 -0.2224 -0.1306  0.1501
  106SAPE  H12A10825   3.895   2.139   3.221  0.6323  1.3107  1.5419
  106SAPE  H12B10826   3.792   2.215   3.105 -0.3727  0.3189  0.6207
  106SAPE   C1110827   3.933   2.349   3.204  0.0213 -0.0132 -0.0075
  106SAPE  H11A10828   3.999   2.328   3.291  1.2793 -3.4571 -1.6271
  106SAPE  H11B10829   3.837   2.391   3.241  0.1936  0.7633 -0.4153
  106SAPE     P10830   3.960   2.594   3.109  0.2425 -0.2452  0.1045
  106SAPE   O1310831   4.019   2.662   2.985  0.2229  0.1342 -0.7068
  106SAPE   O1410832   3.814   2.608   3.122  0.3479  0.2076 -0.0679
  106SAPE   O1210833   3.996   2.439   3.109 -0.3790  0.1623 -0.3951
  106SAPE   O1110834   4.036   2.660   3.234 -0.0109 -0.0127 -0.1144
  106SAPE    C110835   4.118   2.597   3.321 -0.3154  0.5835  0.2069
  106SAPE    HA10836   4.163   2.505   3.278  0.5114  0.2113  1.7874
  106SAPE    HB10837   4.204   2.666   3.335 -0.0111  0.6440 -1.7013
  106SAPE    C210838   4.053   2.566   3.455 -0.2460 -0.0130 -0.0165
  106SAPE    HS10839   3.970   2.495   3.438  1.2000 -2.1949  1.4291
  106SAPE   O2110840   4.019   2.695   3.522 -0.2919  0.0628 -0.1234
  106SAPE   C2110841   3.894   2.732   3.502  0.1238 -0.1769 -0.2195
  106SAPE   O2210842   3.804   2.656   3.461 -0.4858  0.6340 -0.4996
  106SAPE   C2210843   3.870   2.883   3.530  0.4593 -0.1476  0.2550
  106SAPE   H2R10844   3.966   2.939   3.526  1.4422 -1.7765  0.2239
  106SAPE   H2S10845   3.819   2.915   3.437  1.0020  4.2903  1.2713
  106SAPE    C310846   4.146   2.489   3.551 -0.4113 -0.6683 -0.3822
  106SAPE    HX10847   4.229   2.555   3.583 -1.1866  1.1955 -2.0397
  106SAPE    HY10848   4.192   2.405   3.495  0.5739  0.3899 -1.2072
  106SAPE   O3110849   4.071   2.451   3.666 -0.7968 -0.4687 -0.6340
  106SAPE   C3110850   4.023   2.327   3.672  0.4542  0.2743  0.7141
  106SAPE   O3210851   4.037   2.249   3.584 -0.4597  0.7196  0.8315
  106SAPE   C3210852   3.963   2.296   3.813 -0.5966  1.0315 -0.5680
  106SAPE   H2X10853   3.853   2.311   3.807 -0.9101  0.1515  1.8213
  106SAPE   H2Y10854   4.010   2.352   3.896 -0.4076  0.9340 -0.6086
  106SAPE   C2310855   3.812   2.904   3.670 -0.7252  0.0581 -0.4231
  106SAPE   H3R10856   3.862   2.846   3.749 -2.9023 -2.6362 -0.8627
  106SAPE   H3S10857   3.706   2.872   3.682 -0.6692 -0.0687 -0.2727
  106SAPE   C2410858   3.818   3.056   3.704  1.0680 -0.5901 -0.4042
  106SAPE   H4R10859   3.916   3.089   3.664  0.6192  0.4677 -0.6730
  106SAPE   H4S10860   3.817   3.082   3.812 -2.6937 -0.8222 -0.2525
  106SAPE   C2510861   3.699   3.123   3.637  0.2708  1.0009  0.1007
  106SAPE   H5R10862   3.694   3.120   3.528 -0.5631  4.7597 -0.0961
  106SAPE   C2610863   3.605   3.196   3.704  0.0665  0.1555  0.1579
  106SAPE   H6R10864   3.516   3.235   3.651  0.6803 -0.8220 -1.6906
  106SAPE   C2710865   3.594   3.195   3.855  0.0220  0.1284 -0.5260
  106SAPE   H7R10866   3.690   3.236   3.895 -1.5389  2.2877  1.2417
  106SAPE   H7S10867   3.587   3.095   3.902  0.8087  0.7360  0.9538
  106SAPE   C2810868   3.490   3.277   3.913  1.0042  0.7997 -0.0933
  106SAPE   H8R10869   3.430   3.334   3.841  0.0447 -1.2068 -0.9401
  106SAPE   C2910870   3.448   3.271   4.044 -0.1336 -0.6804  0.2538
  106SAPE   H9R10871   3.362   3.335   4.067  0.5569  0.8196 -1.0741
  106SAPE  C21010872   3.504   3.199   4.166  0.7718 -0.2463  0.0329
  106SAPE  H10R10873   3.587   3.135   4.131  0.4775  0.3952 -1.9650
  106SAPE  H10S10874   3.429   3.132   4.213 -0.4208  0.5085 -0.7174
  106SAPE  C21110875   3.559   3.295   4.265 -0.7750  0.0173 -0.2938
  106SAPE  H11R10876   3.632   3.364   4.221 -1.6736  0.7298 -0.6957
  106SAPE  C21210877   3.531   3.307   4.400  0.2599 -0.0330 -0.3555
  106SAPE  H12R10878   3.593   3.380   4.453 -0.0649  0.0478 -0.0878
  106SAPE  C21310879   3.427   3.232   4.480  0.0207 -0.0182  0.4717
  106SAPE  H13R10880   3.366   3.174   4.408  1.3564  2.0192 -2.5233
  106SAPE  H13S10881   3.357   3.304   4.528  1.1537  1.4227  0.0602
  106SAPE  C21410882   3.490   3.147   4.589 -0.0105 -0.5492  0.8342
  106SAPE  H14R10883   3.593   3.116   4.567  0.3552  1.1458 -0.0350
  106SAPE  C21510884   3.441   3.119   4.710 -0.1730 -0.1705  0.5291
  106SAPE  H15R10885   3.516   3.076   4.777  2.5188  1.7946 -0.9831
  106SAPE  C21610886   3.309   3.152   4.772  0.1641 -0.5588 -0.2319
  106SAPE  H16R10887   3.258   3.059   4.806 -1.4689  0.1578 -0.6573
  106SAPE  H16S10888   3.239   3.200   4.701  1.2291 -0.2031 -1.0678
  106SAPE  C21710889   3.322   3.231   4.906 -0.9956  0.3011  0.2749
  106SAPE  H17R10890   3.377   3.325   4.883 -1.8589  0.3262 -1.8471
  106SAPE  H17S10891   3.389   3.171   4.972 -1.3796  0.1782  0.5585
  106SAPE  C21810892   3.192   3.253   4.969  0.1768 -0.2388 -0.0158
  106SAPE  H18R10893   3.206   3.259   5.079 -0.4835 -1.6813  0.1770
  106SAPE  H18S10894   3.133   3.158   4.965  1.0087 -1.0426  3.3287
  106SAPE  C21910895   3.117   3.375   4.906 -0.5186  0.2494  0.4493
  106SAPE  H19R10896   3.100   3.349   4.799  0.2456  0.5305  0.2496
  106SAPE  H19S10897   3.200   3.449   4.916  1.3253 -1.1781 -2.5958
  106SAPE  C22010898   2.984   3.420   4.967 -0.2480  0.2193 -0.4961
  106SAPE  H20R10899   2.956   3.523   4.936 -1.1948  0.2534  0.4030
  106SAPE  H20S10900   2.991   3.420   5.078  0.2256 -0.6819 -0.5171
  106SAPE  H20T10901   2.906   3.342   4.953 -0.9367  0.4748  1.4872
  106SAPE   C3310902   3.970   2.139   3.839  0.3554  0.2297 -0.3867
  106SAPE   H3X10903   3.895   2.086   3.776  1.6423 -1.4808 -0.5597
  106SAPE   H3Y10904   3.928   2.136   3.942 -0.9296  0.7611 -0.8854
  106SAPE   C3410905   4.112   2.077   3.839 -0.1465  0.1710  0.2024
  106SAPE   H4X10906   4.194   2.149   3.861  0.8675 -1.2178  1.1204
  106SAPE   H4Y10907   4.134   2.047   3.734 -1.1329 -2.3125  0.6533
  106SAPE   C3510908   4.127   1.952   3.925  0.1053  0.2767 -0.2286
  106SAPE   H5X10909   4.214   1.889   3.898 -0.5672 -0.8665  0.1808
  106SAPE   H5Y10910   4.042   1.881   3.913  0.8758 -0.7892  0.5634
  106SAPE   C3610911   4.135   1.991   4.073 -0.4639  0.4904  0.6051
  106SAPE   H6X10912   4.047   2.042   4.118  0.7823 -0.1485  4.1489
  106SAPE   H6Y10913   4.224   2.053   4.096  2.0028 -2.3019 -0.7227
  106SAPE   C3710914   4.167   1.864   4.156 -0.2354  0.0236  0.5130
  106SAPE   H7X10915   4.260   1.813   4.123  0.5535  1.0656  1.0436
  106SAPE   H7Y10916   4.082   1.795   4.140 -0.3631  0.2537  0.1838
  106SAPE   C3810917   4.167   1.900   4.308 -0.4587  0.1562 -0.4446
  106SAPE   H8X10918   4.093   1.982   4.323  0.2949  0.8765 -0.5655
  106SAPE   H8Y10919   4.267   1.942   4.332 -0.4757  0.7120 -1.3164
  106SAPE   C3910920   4.151   1.774   4.403 -0.2917  0.4304 -0.4974
  106SAPE   H9X10921   4.233   1.701   4.387 -1.3507 -0.6827 -1.0334
  106SAPE   H9Y10922   4.054   1.728   4.374  0.4911  0.0592 -2.7320
  106SAPE  C31010923   4.150   1.797   4.556  0.8731 -0.1953  0.4458
  106SAPE  H10X10924   4.079   1.879   4.581 -0.7042 -1.6714  1.0354
  106SAPE  H10Y10925   4.244   1.826   4.608  1.1725  0.4390 -0.4197
  106SAPE  C31110926   4.099   1.668   4.633  0.3775  0.6162 -0.2702
  106SAPE  H11X10927   4.177   1.590   4.620 -1.1737 -0.7859 -1.5864
  106SAPE  H11Y10928   4.010   1.626   4.582  1.3856 -0.4029 -1.2455
  106SAPE  C31210929   4.082   1.685   4.789  0.6306  0.2970 -0.3330
  106SAPE  H12X10930   4.000   1.759   4.805  0.6016  0.1848  0.0385
  106SAPE  H12Y10931   4.175   1.730   4.829  0.4634  0.9228 -0.6243
  106SAPE  C31310932   4.059   1.547   4.858 -0.1704  1.1153  0.2543
  106SAPE  H13X10933   4.149   1.485   4.836 -1.9095 -0.8090 -1.9814
  106SAPE  H13Y10934   3.974   1.495   4.808 -1.8497  2.5396  1.4927
  106SAPE  C31410935   4.032   1.540   5.006  0.8286 -0.5021 -1.0123
  106SAPE  H14X10936   4.126   1.568   5.057  0.9527 -0.8221 -1.0669
  106SAPE  H14Y10937   4.022   1.435   5.040 -0.3976 -0.4239 -1.0609
  106SAPE  C31510938   3.902   1.609   5.064 -0.0330 -0.6853 -0.3434
  106SAPE  H15X10939   3.817   1.542   5.041 -1.3936  1.2941 -1.4394
  106SAPE  H15Y10940   3.889   1.713   5.026  0.3957 -0.7347 -0.6324
  106SAPE  C31610941   3.917   1.610   5.218  0.1245 -0.2359 -0.0785
  106SAPE  H16X10942   4.009   1.667   5.245 -0.5209  0.1488  1.3888
  106SAPE  H16Y10943   3.934   1.507   5.255 -2.0100  0.0743  2.0270
  106SAPE  C31710944   3.782   1.667   5.274 -0.4636 -0.4523 -0.2817
  106SAPE  H17X10945   3.774   1.640   5.382  2.0212 -1.0081 -0.1805
  106SAPE  H17Y10946   3.699   1.617   5.221 -2.6395  0.7775  1.7507
  106SAPE  C31810947   3.781   1.822   5.266  0.1990 -0.1008 -0.1393
  106SAPE  H18X10948   3.793   1.850   5.159  0.5046 -2.5504 -0.8135
  106SAPE  H18Y10949   3.855   1.858   5.340  0.7199 -1.6057  0.1142
  106SAPE  H18Z10950   3.682   1.863   5.294  0.0885 -1.3107  1.3551
  107SAPE     N10951   2.215   6.635   2.494 -0.3012 -0.4037 -0.5281
  107SAPE   HN110952   2.121   6.602   2.463 -1.1775  1.4313  0.0562
  107SAPE   HN210953   2.227   6.732   2.461  3.2294 -0.3768  0.3816
  107SAPE   HN310954   2.279   6.579   2.433 -0.5943 -1.6437  0.2566
  107SAPE   C1210955   2.263   6.610   2.640  0.3582 -0.4146  0.1960
  107SAPE  H12A10956   2.281   6.501   2.657 -1.0371 -0.3256  2.8074
  107SAPE  H12B10957   2.190   6.637   2.719  1.6746 -1.8381  1.9841
  107SAPE   C1110958   2.399   6.682   2.672  0.1061  0.3073 -0.6338
  107SAPE  H11A10959   2.421   6.662   2.779  0.1056 -1.3104 -0.9116
  107SAPE  H11B10960   2.379   6.792   2.664  0.3312  0.2292 -3.0176
  107SAPE     P10961   2.647   6.704   2.579  0.3446  0.5384  0.2484
  107SAPE   O1310962   2.738   6.607   2.516 -0.3352 -0.4101 -0.0200
  107SAPE   O1410963   2.626   6.827   2.511  0.4557  0.1343  0.6392
  107SAPE   O1210964   2.505   6.637   2.585  0.2059  0.1125 -0.3014
  107SAPE   O1110965   2.688   6.741   2.730 -0.0128 -0.4796  0.0110
  107SAPE    C110966   2.767   6.657   2.818 -0.2695  0.5139  0.6040
  107SAPE    HA10967   2.762   6.552   2.784 -1.0834  1.3723 -2.2379
  107SAPE    HB10968   2.875   6.684   2.819  0.4885 -2.2236  2.3412
  107SAPE    C210969   2.709   6.670   2.964 -1.6092  0.0201 -0.3744
  107SAPE    HS10970   2.610   6.619   2.962 -0.8530 -1.5003 -0.6596
  107SAPE   O2110971   2.701   6.810   3.009 -0.8049 -0.2195 -0.3702
  107SAPE   C2110972   2.606   6.850   3.083 -0.0487  0.1910 -0.1174
  107SAPE   O2210973   2.514   6.780   3.119 -0.1543 -0.1980  0.0687
  107SAPE   C2210974   2.636   7.001   3.127  0.1411 -0.1243  0.5081
  107SAPE   H2R10975   2.734   6.999   3.179 -0.0815 -0.1181  0.9319
  107SAPE   H2S10976   2.646   7.040   3.023 -1.1204 -0.6775  0.1666
  107SAPE    C310977   2.813   6.595   3.054 -0.8934 -0.7182  0.6380
  107SAPE    HX10978   2.894   6.672   3.055  0.3670 -1.9727 -0.9774
  107SAPE    HY10979   2.858   6.505   3.008  1.4599  1.2661 -1.3002
  107SAPE   O3110980   2.758   6.578   3.181  0.1309  0.2730 -0.1172
  107SAPE   C3110981   2.701   6.466   3.219  0.4183 -0.0233  0.1019
  107SAPE   O3210982   2.704   6.370   3.148 -0.5873  0.5262 -0.5114
  107SAPE   C3210983   2.620   6.475   3.350 -0.5253 -0.8756  0.1258
  107SAPE   H2X10984   2.527   6.532   3.335  0.1138  0.4286  0.8837
  107SAPE   H2Y10985   2.684   6.522   3.428 -2.2190  0.2355  0.8971
  107SAPE   C2310986   2.518   7.070   3.202 -0.0633 -0.0662 -0.2078
  107SAPE   H3R10987   2.512   7.032   3.306  0.0264  0.5974  0.0463
  107SAPE   H3S10988   2.419   7.055   3.153  0.0576 -1.8545  0.0587
  107SAPE   C2410989   2.534   7.223   3.213 -0.7727 -0.6661  0.0120
  107SAPE   H4R10990   2.435   7.264   3.243 -0.4967 -1.2992  1.9067
  107SAPE   H4S10991   2.560   7.255   3.110 -0.0975  1.3430  0.7598
  107SAPE   C2510992   2.650   7.277   3.299  0.2297 -0.1283 -0.0191
  107SAPE   H5R10993   2.745   7.237   3.261 -0.4048 -0.6828 -1.0648
  107SAPE   C2610994   2.636   7.352   3.410 -0.1886 -0.3393 -0.1028
  107SAPE   H6R10995   2.730   7.388   3.455  0.4557 -1.4429 -0.5414
  107SAPE   C2710996   2.504   7.411   3.457  0.5923 -0.6797 -0.4870
  107SAPE   H7R10997   2.442   7.439   3.369 -0.4840 -0.0599  0.4378
  107SAPE   H7S10998   2.521   7.508   3.507 -1.2115 -1.1800  1.2085
  107SAPE   C2810999   2.413   7.314   3.534 -0.8099 -0.5932 -0.2539
  107SAPE   H8R11000   2.372   7.241   3.464  1.5295 -0.5133 -1.8510
  107SAPE   C2911001   2.393   7.318   3.669 -0.2137  0.2168  0.3482
  107SAPE   H9R11002   2.334   7.236   3.712 -1.0169  0.9042  0.5658
  107SAPE  C21011003   2.462   7.410   3.771  0.5935  0.0140  0.0166
  107SAPE  H10R11004   2.392   7.427   3.855  0.4270 -0.1825 -0.0818
  107SAPE  H10S11005   2.462   7.505   3.713  0.6005  1.4338  2.2008
  107SAPE  C21111006   2.594   7.368   3.816 -0.1550  0.4598 -0.3079
  107SAPE  H11R11007   2.657   7.317   3.742 -1.0062 -2.6955  0.9965
  107SAPE  C21211008   2.646   7.373   3.941 -0.6695  0.4396 -0.5782
  107SAPE  H12R11009   2.751   7.353   3.967 -1.2795  0.1848  1.9443
  107SAPE  C21311010   2.566   7.404   4.061  0.4268  0.3136  0.4036
  107SAPE  H13R11011   2.488   7.479   4.035  0.1766  0.0069  0.2695
  107SAPE  H13S11012   2.628   7.468   4.128 -0.1051  1.2331  0.0476
  107SAPE  C21411013   2.509   7.282   4.121  0.3328  0.0956 -0.0503
  107SAPE  H14R11014   2.449   7.231   4.044 -0.7621  1.7663 -0.3843
  107SAPE  C21511015   2.537   7.224   4.236  0.2745  0.1788 -0.1245
  107SAPE  H15R11016   2.472   7.137   4.250 -0.7158  0.9983  0.5564
  107SAPE  C21611017   2.616   7.276   4.357  0.5504  0.4559 -0.7129
  107SAPE  H16R11018   2.718   7.309   4.328  1.0733 -0.7718 -0.3602
  107SAPE  H16S11019   2.631   7.190   4.426  1.6160  0.8417 -0.4556
  107SAPE  C21711020   2.544   7.390   4.424  0.2823 -1.0522 -0.3874
  107SAPE  H17R11021   2.435   7.367   4.428  0.0049  0.1024 -0.7922
  107SAPE  H17S11022   2.557   7.477   4.356  0.9178 -0.3468  0.6064
  107SAPE  C21811023   2.594   7.427   4.564 -0.0651  1.0473 -1.2102
  107SAPE  H18R11024   2.562   7.528   4.595 -0.2084  0.8984 -0.8708
  107SAPE  H18S11025   2.705   7.431   4.569  0.1664 -2.3364 -1.3950
  107SAPE  C21911026   2.560   7.326   4.675 -0.0711  0.2847 -0.0913
  107SAPE  H19R11027   2.628   7.339   4.763 -1.2162 -1.5562  1.1377
  107SAPE  H19S11028   2.578   7.223   4.638 -1.3935  0.1713 -0.4591
  107SAPE  C22011029   2.417   7.324   4.726  0.0085 -0.0431  0.1480
  107SAPE  H20R11030   2.344   7.327   4.642  0.9141  2.1985 -0.6402
  107SAPE  H20S11031   2.391   7.410   4.792 -1.6139  1.0648 -1.8006
  107SAPE  H20T11032   2.398   7.225   4.772 -0.0593  0.7677  1.9401
  107SAPE   C3311033   2.568   6.333   3.392  0.0349  0.4433  0.1749
  107SAPE   H3X11034   2.660   6.270   3.399  1.0956  1.4055 -3.3703
  107SAPE   H3Y11035   2.506   6.287   3.312 -0.2351 -1.5207  1.4485
  107SAPE   C3411036   2.475   6.334   3.515 -0.2015  0.1596 -0.3289
  107SAPE   H4X11037   2.424   6.235   3.511  1.4585 -0.7200 -1.0878
  107SAPE   H4Y11038   2.397   6.410   3.494  0.2476  1.5727  2.5704
  107SAPE   C3511039   2.535   6.353   3.648 -0.2023 -0.2991 -0.4372
  107SAPE   H5X11040   2.541   6.461   3.673 -3.2647 -0.0352 -0.3765
  107SAPE   H5Y11041   2.636   6.309   3.635 -1.4218 -3.2269 -0.8327
  107SAPE   C3611042   2.463   6.291   3.764  0.3801  0.0734  0.7238
  107SAPE   H6X11043   2.429   6.185   3.762  2.4021 -0.6011  0.1407
  107SAPE   H6Y11044   2.369   6.352   3.768 -0.0493 -0.5913  0.9465
  107SAPE   C3711045   2.544   6.294   3.885 -0.2099 -1.0385 -0.4884
  107SAPE   H7X11046   2.574   6.398   3.910 -1.7559 -1.1770  2.3995
  107SAPE   H7Y11047   2.627   6.220   3.877  1.7053  0.9530 -0.0148
  107SAPE   C3811048   2.465   6.252   4.009 -0.0936  0.4332  0.2007
  107SAPE   H8X11049   2.447   6.142   4.007 -0.2583  0.4540  0.6756
  107SAPE   H8Y11050   2.370   6.307   4.026 -0.8517 -0.9284  0.5398
  107SAPE   C3911051   2.541   6.277   4.141  0.3410  0.8005  0.2265
  107SAPE   H9X11052   2.597   6.373   4.135  1.3753  0.2831  1.2174
  107SAPE   H9Y11053   2.624   6.203   4.141 -0.9032 -0.9386 -4.3057
  107SAPE  C31011054   2.439   6.261   4.264 -0.7421 -0.5737  0.6081
  107SAPE  H10X11055   2.394   6.161   4.248 -1.6588 -0.3486  1.6089
  107SAPE  H10Y11056   2.358   6.338   4.268  0.2999  0.5544  4.8617
  107SAPE  C31111057   2.514   6.271   4.395  0.3343 -0.6485 -0.3677
  107SAPE  H11X11058   2.545   6.377   4.405 -1.4437 -0.1674  0.3690
  107SAPE  H11Y11059   2.603   6.204   4.388 -0.8561 -2.3442  0.0363
  107SAPE  C31211060   2.431   6.224   4.511  0.3732  0.4283  0.0679
  107SAPE  H12X11061   2.377   6.130   4.487 -0.3997  1.2948 -1.8907
  107SAPE  H12Y11062   2.349   6.300   4.515  0.3413  0.3625  0.6334
  107SAPE  C31311063   2.519   6.211   4.637 -0.0021 -0.5959  0.7688
  107SAPE  H13X11064   2.600   6.136   4.629  2.9115  2.0884  2.7792
  107SAPE  H13Y11065   2.453   6.169   4.717 -0.3144  0.9797  1.3870
  107SAPE  C31411066   2.572   6.344   4.687  0.2747  0.4407 -0.0037
  107SAPE  H14X11067   2.499   6.427   4.698 -1.2717 -1.1318  3.0955
  107SAPE  H14Y11068   2.647   6.374   4.611 -1.2172  1.2713 -1.1979
  107SAPE  C31511069   2.647   6.334   4.822  0.4650 -0.6788 -0.7493
  107SAPE  H15X11070   2.727   6.257   4.825  1.5818  0.4781  0.1682
  107SAPE  H15Y11071   2.578   6.299   4.901  0.7792 -0.3367 -0.3220
  107SAPE  C31611072   2.706   6.466   4.871 -0.6879  0.0061  0.3563
  107SAPE  H16X11073   2.640   6.554   4.853 -1.2723 -0.9572 -2.7206
  107SAPE  H16Y11074   2.792   6.480   4.802 -2.0872  0.3705 -1.3959
  107SAPE  C31711075   2.769   6.456   5.008  0.3352 -1.0424  0.5279
  107SAPE  H17X11076   2.843   6.373   5.009  1.2913 -0.2296 -0.7803
  107SAPE  H17Y11077   2.688   6.425   5.078 -1.4994  0.4255 -0.8577
  107SAPE  C31811078   2.840   6.582   5.043 -0.7195 -0.8547 -0.2474
  107SAPE  H18X11079   2.901   6.626   4.961  2.4048 -1.6165  1.4755
  107SAPE  H18Y11080   2.901   6.571   5.135  1.3783 -0.7743 -1.5639
  107SAPE  H18Z11081   2.765   6.659   5.068 -1.0199 -0.7638 -1.3573
  108SAPE     N11082   5.882   2.627   3.271 -1.0281  0.2951 -0.4595
  108SAPE   HN111083   5.869   2.526   3.291 -0.9914  0.9229  3.6573
  108SAPE   HN211084   5.884   2.644   3.168  1.2378  0.1683 -0.4888
  108SAPE   HN311085   5.983   2.642   3.292 -1.0652  0.3578 -0.3244
  108SAPE   C1211086   5.776   2.708   3.336  0.6524 -0.2768  0.7910
  108SAPE  H12A11087   5.811   2.813   3.337  0.5983 -0.1897 -1.4364
  108SAPE  H12B11088   5.752   2.674   3.439 -1.2086  0.7899  0.7462
  108SAPE   C1111089   5.642   2.703   3.257  0.4138 -0.1817 -0.8826
  108SAPE  H11A11090   5.575   2.776   3.306  0.4575 -1.7950  1.7951
  108SAPE  H11B11091   5.600   2.605   3.288 -1.3763  0.7606 -0.2138
  108SAPE     P11092   5.541   2.650   3.023  0.2703 -0.2388 -0.3611
  108SAPE   O1311093   5.529   2.727   2.896  0.6619 -0.1536  0.0839
  108SAPE   O1411094   5.590   2.509   3.016 -0.2785 -0.1739  0.3624
  108SAPE   O1211095   5.648   2.729   3.115 -0.4764  0.2292  0.6250
  108SAPE   O1111096   5.413   2.648   3.108 -0.3585  0.3529  0.2653
  108SAPE    C111097   5.285   2.670   3.053 -0.1106 -0.4050 -0.3158
  108SAPE    HA11098   5.291   2.764   2.993  0.8538 -0.2223  0.0503
  108SAPE    HB11099   5.269   2.587   2.981  0.2863 -0.6410 -0.1323
  108SAPE    C211100   5.177   2.681   3.165  0.4039  0.4192 -0.4771
  108SAPE    HS11101   5.079   2.719   3.130 -0.8423  0.4512  2.6859
  108SAPE   O2111102   5.234   2.766   3.264 -0.2685  0.4313  0.3560
  108SAPE   C2111103   5.247   2.894   3.234  0.3963  0.6357  0.2304
  108SAPE   O2211104   5.211   2.942   3.129 -0.3125  0.1404 -0.3254
  108SAPE   C2211105   5.313   2.958   3.349  0.4308 -0.2313  0.2738
  108SAPE   H2R11106   5.367   2.874   3.398 -0.7967 -0.8142  0.6659
  108SAPE   H2S11107   5.378   3.041   3.313  0.0647  0.0577  0.2832
  108SAPE    C311108   5.150   2.539   3.221 -0.1121  0.3836 -0.3443
  108SAPE    HX11109   5.246   2.489   3.247 -1.3996 -0.2544  3.9005
  108SAPE    HY11110   5.094   2.471   3.153 -1.7566  0.2469  1.0678
  108SAPE   O3111111   5.070   2.542   3.345 -0.3907 -0.0201 -0.5310
  108SAPE   C3111112   4.933   2.539   3.321 -0.4556  0.4558  0.4863
  108SAPE   O3211113   4.879   2.530   3.211 -0.3532  0.4190  0.0547
  108SAPE   C3211114   4.867   2.538   3.456 -0.2288 -0.3752  0.1198
  108SAPE   H2X11115   4.935   2.502   3.536 -0.0161 -1.4264 -0.5224
  108SAPE   H2Y11116   4.782   2.467   3.448 -0.0115 -0.6008 -0.2005
  108SAPE   C2311117   5.209   3.005   3.450  0.2787 -0.4006  0.2566
  108SAPE   H3R11118   5.144   2.924   3.489  1.1324 -1.4895 -0.4796
  108SAPE   H3S11119   5.157   3.089   3.400  0.2441 -1.5652 -1.7717
  108SAPE   C2411120   5.289   3.053   3.572  0.2264 -0.6217 -0.3779
  108SAPE   H4R11121   5.367   2.980   3.600 -1.2766 -2.1015  0.0980
  108SAPE   H4S11122   5.225   3.071   3.660  2.6135  4.2358  0.7019
  108SAPE   C2511123   5.354   3.181   3.536  0.4972 -0.4467  0.1380
  108SAPE   H5R11124   5.391   3.190   3.433 -0.5450  0.8310 -0.1546
  108SAPE   C2611125   5.384   3.290   3.608  0.5688  0.2234 -0.2121
  108SAPE   H6R11126   5.443   3.375   3.571 -0.2794  1.2727  0.7550
  108SAPE   C2711127   5.345   3.307   3.756 -0.1094 -0.1319  0.8070
  108SAPE   H7R11128   5.239   3.274   3.764 -0.9102  2.0611 -0.1399
  108SAPE   H7S11129   5.345   3.418   3.754  3.4327  0.0014 -2.1594
  108SAPE   C2811130   5.442   3.255   3.857 -0.3566 -0.3554 -0.0115
  108SAPE   H8R11131   5.499   3.164   3.834  0.4680 -0.6488  2.8852
  108SAPE   C2911132   5.453   3.300   3.983  0.3133  0.7241 -0.4633
  108SAPE   H9R11133   5.528   3.244   4.040 -0.2806 -1.7732 -1.9575
  108SAPE  C21011134   5.371   3.411   4.050 -0.3118 -0.9997 -0.1483
  108SAPE  H10R11135   5.386   3.422   4.159 -0.0764  1.7517 -0.3659
  108SAPE  H10S11136   5.263   3.395   4.029  0.0218 -1.3283 -1.7477
  108SAPE  C21111137   5.408   3.548   3.990  0.4693 -0.3019 -0.5463
  108SAPE  H11R11138   5.354   3.588   3.902  0.8048  3.9753  0.9673
  108SAPE  C21211139   5.495   3.632   4.038  0.2900 -0.5831 -0.2607
  108SAPE  H12R11140   5.515   3.724   3.981  1.3102 -1.2066 -0.9470
  108SAPE  C21311141   5.589   3.605   4.151  0.1381 -0.1098  1.1074
  108SAPE  H13R11142   5.639   3.508   4.129 -1.9406 -0.5742 -2.3399
  108SAPE  H13S11143   5.541   3.592   4.250 -0.0346 -0.6873  0.9473
  108SAPE  C21411144   5.691   3.718   4.151  0.2509 -0.0384 -1.2865
  108SAPE  H14R11145   5.720   3.746   4.048  0.8392 -1.4914 -1.5380
  108SAPE  C21511146   5.744   3.790   4.256  0.5497 -0.3864  0.1563
  108SAPE  H15R11147   5.812   3.864   4.213  0.0175  0.1092  0.1507
  108SAPE  C21611148   5.726   3.784   4.407  0.3373 -0.4978  0.4349
  108SAPE  H16R11149   5.633   3.726   4.429  0.2776 -0.1728  1.0701
  108SAPE  H16S11150   5.707   3.880   4.458 -1.6025 -0.1539 -0.8381
  108SAPE  C21711151   5.845   3.716   4.475  0.3815 -1.0888  0.4816
  108SAPE  H17R11152   5.928   3.790   4.474 -0.7502  0.2135 -0.8858
  108SAPE  H17S11153   5.871   3.629   4.411  0.0259 -0.7449 -0.1449
  108SAPE  C21811154   5.828   3.679   4.624  0.1468 -0.1013  0.4316
  108SAPE  H18R11155   5.782   3.579   4.637 -0.8593  0.0568 -1.5254
  108SAPE  H18S11156   5.769   3.750   4.686  0.6281 -0.6297  1.5302
  108SAPE  C21911157   5.966   3.678   4.695 -0.6573 -0.4058  0.0785
  108SAPE  H19R11158   5.989   3.784   4.719  1.4028 -0.8093  0.0993
  108SAPE  H19S11159   6.034   3.634   4.619 -1.0276  1.2123 -1.2406
  108SAPE  C22011160   5.965   3.596   4.823  0.4222  0.1333  0.3666
  108SAPE  H20R11161   5.958   3.488   4.799 -0.5000 -0.1729  1.8569
  108SAPE  H20S11162   5.872   3.619   4.880  1.8634  0.9948  2.5289
  108SAPE  H20T11163   6.058   3.619   4.880  0.0645 -1.0238  1.4660
  108SAPE   C3311164   4.803   2.675   3.499  0.0044 -0.0297  0.8091
  108SAPE   H3X11165   4.738   2.716   3.419  3.7540 -0.9808 -3.1548
  108SAPE   H3Y11166   4.892   2.743   3.503  0.7956 -0.9766 -0.1533
  108SAPE   C3411167   4.731   2.670   3.628  0.6889 -0.3232  0.6905
  108SAPE   H4X11168   4.720   2.567   3.668 -0.4416  0.3892  2.3133
  108SAPE   H4Y11169   4.626   2.697   3.601  1.5747  1.3128 -1.4295
  108SAPE   C3511170   4.768   2.772   3.735 -0.4496 -0.8186  0.7925
  108SAPE   H5X11171   4.876   2.757   3.754 -0.6814 -1.3829  1.7344
  108SAPE   H5Y11172   4.760   2.876   3.699  0.5957  0.4947  3.9973
  108SAPE   C3611173   4.682   2.745   3.852 -0.3822  0.0018  0.4925
  108SAPE   H6X11174   4.690   2.641   3.890  1.1388  0.1188  0.5472
  108SAPE   H6Y11175   4.575   2.747   3.822 -0.7603 -2.4560  1.4129
  108SAPE   C3711176   4.699   2.847   3.973 -0.2095  0.1364 -0.2498
  108SAPE   H7X11177   4.717   2.950   3.935 -0.6436 -0.4673 -2.1962
  108SAPE   H7Y11178   4.794   2.821   4.025 -0.5038 -2.4532 -0.8640
  108SAPE   C3811179   4.579   2.838   4.060 -0.1692 -0.7417  0.9824
  108SAPE   H8X11180   4.555   2.739   4.103 -2.9880 -0.8910 -0.7058
  108SAPE   H8Y11181   4.492   2.871   3.999  0.5890 -0.6421 -0.0727
  108SAPE   C3911182   4.590   2.931   4.189  0.2424 -0.2356  0.2556
  108SAPE   H9X11183   4.617   3.036   4.167 -0.0248 -0.1598  0.2903
  108SAPE   H9Y11184   4.660   2.884   4.261 -1.0207 -4.0626 -0.7672
  108SAPE  C31011185   4.459   2.953   4.257 -0.2331 -0.3974  0.2148
  108SAPE  H10X11186   4.391   2.975   4.172  1.6109  1.3107 -0.9178
  108SAPE  H10Y11187   4.469   3.053   4.305  1.9913  0.8056 -2.4218
  108SAPE  C31111188   4.410   2.840   4.350  0.1596 -0.4176 -1.3370
  108SAPE  H11X11189   4.494   2.821   4.421 -1.7914  0.0709  1.2778
  108SAPE  H11Y11190   4.405   2.751   4.284 -0.2812 -1.0979 -0.4152
  108SAPE  C31211191   4.274   2.856   4.422 -0.4659  0.5641  0.0400
  108SAPE  H12X11192   4.195   2.849   4.345  0.0096  1.8093 -0.5983
  108SAPE  H12Y11193   4.274   2.953   4.477 -0.7854  0.2358  0.6340
  108SAPE  C31311194   4.267   2.748   4.533 -0.3980 -0.3250 -0.8751
  108SAPE  H13X11195   4.359   2.733   4.594 -0.6576  1.4675  0.0365
  108SAPE  H13Y11196   4.245   2.657   4.474  2.6457 -1.2128 -0.8123
  108SAPE  C31411197   4.154   2.782   4.621 -0.0586 -0.7793 -0.8628
  108SAPE  H14X11198   4.058   2.770   4.565 -1.6420  0.8410  1.3267
  108SAPE  H14Y11199   4.180   2.887   4.648 -0.3018 -1.0335  0.4124
  108SAPE  C31511200   4.141   2.698   4.749 -0.1997 -0.2178  0.4852
  108SAPE  H15X11201   4.235   2.701   4.810 -1.3995 -0.2481  2.4136
  108SAPE  H15Y11202   4.123   2.594   4.714 -0.8370 -0.0307  0.2553
  108SAPE  C31611203   4.024   2.748   4.835 -0.0809  0.2291  0.6631
  108SAPE  H16X11204   4.006   2.858   4.825 -2.5842  0.5294  5.6078
  108SAPE  H16Y11205   4.030   2.744   4.946 -0.9487  1.8682  0.8153
  108SAPE  C31711206   3.898   2.672   4.798 -0.2180  0.4423 -0.5184
  108SAPE  H17X11207   3.917   2.563   4.804  1.8911  0.7937  0.4870
  108SAPE  H17Y11208   3.870   2.684   4.691  1.2253  0.8939 -0.8710
  108SAPE  C31811209   3.784   2.724   4.877  0.0499 -0.2859  0.6717
  108SAPE  H18X11210   3.788   2.834   4.887 -1.6612 -0.2261  1.0648
  108SAPE  H18Y11211   3.785   2.686   4.982 -0.7669  2.0356  1.5865
  108SAPE  H18Z11212   3.686   2.713   4.826  2.0369  1.3297 -3.9780
  109SAPE     N11213   5.262   0.637   2.554  0.4033  0.1307 -0.7223
  109SAPE   HN111214   5.220   0.566   2.490  3.4811 -1.9018 -0.6513
  109SAPE   HN211215   5.346   0.602   2.603 -0.7645  0.6217  1.7620
  109SAPE   HN311216   5.203   0.647   2.639  2.4506 -1.5744  0.9841
  109SAPE   C1211217   5.268   0.773   2.500  0.1734 -0.2979 -1.1097
  109SAPE  H12A11218   5.172   0.822   2.473  1.5927  3.4435  0.0529
  109SAPE  H12B11219   5.339   0.779   2.415  1.6178  1.5771  0.1384
  109SAPE   C1111220   5.327   0.871   2.604  0.1640  0.5283  0.0991
  109SAPE  H11A11221   5.334   0.970   2.556 -0.8315  0.4018 -0.3440
  109SAPE  H11B11222   5.424   0.831   2.638 -0.5234 -1.2043  0.1386
  109SAPE     P11223   5.288   0.979   2.839 -0.3362 -0.0148  0.1915
  109SAPE   O1311224   5.429   0.998   2.818 -0.4564  0.3661  0.6089
  109SAPE   O1411225   5.206   1.100   2.834  0.2152  0.3826 -0.0461
  109SAPE   O1211226   5.249   0.882   2.722 -0.2225 -0.1705 -0.4866
  109SAPE   O1111227   5.254   0.896   2.966  0.1444 -0.5927  0.3786
  109SAPE    C111228   5.317   0.770   2.994  0.7861  0.2705 -0.4006
  109SAPE    HA11229   5.322   0.704   2.904  2.0473  0.3904 -0.4268
  109SAPE    HB11230   5.421   0.783   3.031  0.6360 -1.4925  0.7674
  109SAPE    C211231   5.244   0.696   3.111 -0.4977  0.3967  0.7991
  109SAPE    HS11232   5.138   0.677   3.082 -0.0933  2.3749 -2.5034
  109SAPE   O2111233   5.254   0.781   3.229  0.0625 -0.1677  0.3966
  109SAPE   C2111234   5.173   0.736   3.328  0.1739 -0.4715 -0.3799
  109SAPE   O2211235   5.075   0.667   3.311  0.2239  0.0486  0.4961
  109SAPE   C2211236   5.214   0.797   3.458  0.3478 -0.2322 -0.1333
  109SAPE   H2R11237   5.257   0.898   3.447  0.9194 -0.0507  2.8948
  109SAPE   H2S11238   5.120   0.810   3.516 -0.3456 -2.1090 -0.7544
  109SAPE    C311239   5.305   0.554   3.137 -0.4584 -0.8255 -0.6537
  109SAPE    HX11240   5.409   0.566   3.173 -0.9419  3.9576 -0.1769
  109SAPE    HY11241   5.313   0.510   3.035 -1.9071  0.4401 -1.3508
  109SAPE   O3111242   5.226   0.471   3.228  0.6709 -0.2607  0.3978
  109SAPE   C3111243   5.124   0.410   3.169  0.0612 -0.5668 -0.1401
  109SAPE   O3211244   5.101   0.401   3.053  0.0597  0.1784  0.0481
  109SAPE   C3211245   5.036   0.352   3.275  0.2307  1.3002 -0.0245
  109SAPE   H2X11246   4.964   0.283   3.226 -2.5557  2.5567  2.0558
  109SAPE   H2Y11247   4.967   0.437   3.294 -0.6116  1.1496 -2.0870
  109SAPE   C2311248   5.310   0.715   3.545 -0.1475 -0.0809 -0.6837
  109SAPE   H3R11249   5.260   0.618   3.567  0.1237  0.2805  1.8042
  109SAPE   H3S11250   5.326   0.764   3.643 -0.3059 -1.1201 -0.1248
  109SAPE   C2411251   5.456   0.701   3.493  0.0368 -0.7816  0.6531
  109SAPE   H4R11252   5.451   0.621   3.416 -0.6046  1.6516 -1.9789
  109SAPE   H4S11253   5.512   0.659   3.579  0.2925  0.5691  1.1689
  109SAPE   C2511254   5.520   0.828   3.436 -0.3325 -0.4913  0.1433
  109SAPE   H5R11255   5.458   0.889   3.368  1.7445  0.6389 -0.8188
  109SAPE   C2611256   5.643   0.882   3.463  0.8082 -0.9094 -0.8868
  109SAPE   H6R11257   5.666   0.985   3.430  1.4411 -0.5458  0.6295
  109SAPE   C2711258   5.737   0.834   3.562 -0.4360 -0.2680 -0.6327
  109SAPE   H7R11259   5.684   0.827   3.659 -0.3389 -0.7728 -0.6144
  109SAPE   H7S11260   5.813   0.912   3.584  0.3458 -1.3278  0.6219
  109SAPE   C2811261   5.804   0.699   3.531 -0.1057 -0.5700 -0.4345
  109SAPE   H8R11262   5.826   0.680   3.425  0.2586  3.1537 -1.1760
  109SAPE   C2911263   5.842   0.605   3.612  0.0795 -0.2231 -0.2536
  109SAPE   H9R11264   5.890   0.516   3.568  2.0579  0.2321  0.8326
  109SAPE  C21011265   5.818   0.597   3.770  0.1360  0.3612  0.2653
  109SAPE  H10R11266   5.727   0.534   3.769 -0.1216  0.6907 -1.5066
  109SAPE  H10S11267   5.765   0.685   3.812 -1.7559  0.0713 -1.3356
  109SAPE  C21111268   5.924   0.536   3.854 -0.4041  1.2112 -0.1644
  109SAPE  H11R11269   6.029   0.560   3.835 -0.6978  1.1907 -1.9592
  109SAPE  C21211270   5.897   0.461   3.960  0.2314  0.1703 -0.6973
  109SAPE  H12R11271   5.981   0.422   4.019 -2.0588 -0.1259  2.5943
  109SAPE  C21311272   5.758   0.427   4.006  0.6741 -0.3438  0.3474
  109SAPE  H13R11273   5.679   0.497   3.971  0.7111 -1.6622 -2.6838
  109SAPE  H13S11274   5.762   0.429   4.117 -1.6256  1.5683  0.4768
  109SAPE  C21411275   5.731   0.288   3.956  0.4487  0.8832  0.1111
  109SAPE  H14R11276   5.769   0.249   3.860  1.4154 -1.6754  1.4397
  109SAPE  C21511277   5.678   0.199   4.038 -0.3263  0.1421 -0.3080
  109SAPE  H15R11278   5.668   0.096   4.000  1.9753  0.6573 -2.5849
  109SAPE  C21611279   5.646   0.213   4.183  0.4103 -0.1336  0.4482
  109SAPE  H16R11280   5.556   0.156   4.215  1.1652 -1.4452  0.3044
  109SAPE  H16S11281   5.619   0.317   4.210  0.1668 -0.1077  0.0980
  109SAPE  C21711282   5.769   0.183   4.276  0.1794  0.1272 -0.2188
  109SAPE  H17R11283   5.858   0.219   4.220  0.5112  1.3900  1.0597
  109SAPE  H17S11284   5.767   0.073   4.283 -1.0115 -0.0127 -2.0733
  109SAPE  C21811285   5.759   0.247   4.414  0.5252 -0.3583  0.0473
  109SAPE  H18R11286   5.741   0.354   4.389  0.3376 -0.2184  0.7634
  109SAPE  H18S11287   5.853   0.229   4.471 -0.1285 -3.8404  0.2619
  109SAPE  C21911288   5.650   0.196   4.514 -0.0347 -0.2528  0.7772
  109SAPE  H19R11289   5.567   0.225   4.447  0.3211 -1.6806 -0.3270
  109SAPE  H19S11290   5.652   0.254   4.609 -0.3111  1.3606 -0.1620
  109SAPE  C22011291   5.659   0.048   4.538  0.2016  1.1819  0.7474
  109SAPE  H20R11292   5.760   0.017   4.571 -0.4158  0.0876  1.6963
  109SAPE  H20S11293   5.635  -0.015   4.450  1.8347 -1.2068  1.9342
  109SAPE  H20T11294   5.578   0.014   4.607  0.7774 -1.1108  0.3585
  109SAPE   C3311295   5.113   0.295   3.396  0.3062  0.2021  0.0903
  109SAPE   H3X11296   5.124   0.376   3.471 -2.3167  0.5119  0.2271
  109SAPE   H3Y11297   5.210   0.251   3.365  0.5877 -0.4092  1.7484
  109SAPE   C3411298   5.032   0.177   3.470 -0.0233  0.9818  0.5474
  109SAPE   H4X11299   5.051   0.094   3.399  0.4058  0.6738  1.0171
  109SAPE   H4Y11300   4.923   0.200   3.468  0.3519  2.9510  0.7123
  109SAPE   C3511301   5.072   0.143   3.608  0.7925  0.2476  0.1027
  109SAPE   H5X11302   5.112   0.240   3.645  0.3213  0.5080 -0.0498
  109SAPE   H5Y11303   5.155   0.070   3.620 -0.2947 -1.2564 -1.1604
  109SAPE   C3611304   4.957   0.072   3.691 -0.3139  0.6932  0.4309
  109SAPE   H6X11305   4.947  -0.026   3.639  0.7434  1.2987 -0.9844
  109SAPE   H6Y11306   4.866   0.135   3.689 -1.2372 -0.5965  0.6245
  109SAPE   C3711307   5.003   0.048   3.834  0.0393 -0.2813 -0.4226
  109SAPE   H7X11308   5.049   0.142   3.872  0.1281 -0.7363  0.6298
  109SAPE   H7Y11309   5.088  -0.022   3.833 -0.0986 -0.5700  2.1619
  109SAPE   C3811310   4.898  -0.001   3.926 -0.1157  0.8124 -0.1328
  109SAPE   H8X11311   4.948  -0.077   3.989  0.7209  1.9542  0.6226
  109SAPE   H8Y11312   4.808  -0.037   3.872  0.7081  0.3200 -1.2054
  109SAPE   C3911313   4.859   0.107   4.036  0.9391  0.7546 -0.4398
  109SAPE   H9X11314   4.956   0.152   4.064  1.3715  0.9690 -2.1957
  109SAPE   H9Y11315   4.800   0.078   4.126  1.2214  0.9944 -0.1741
  109SAPE  C31011316   4.786   0.222   3.961 -0.2776  0.1706 -0.4447
  109SAPE  H10X11317   4.699   0.168   3.918 -0.1320 -2.0972  1.8513
  109SAPE  H10Y11318   4.851   0.270   3.884 -0.9561 -0.1210 -1.2173
  109SAPE  C31111319   4.748   0.330   4.057 -1.1240  0.2839 -0.1073
  109SAPE  H11X11320   4.733   0.429   4.009  0.6578  1.3527  1.4006
  109SAPE  H11Y11321   4.837   0.343   4.121 -0.8415 -0.0830 -0.4250
  109SAPE  C31211322   4.612   0.298   4.126  0.3592 -0.1979  0.2718
  109SAPE  H12X11323   4.616   0.199   4.176  1.2439 -0.4334 -0.2210
  109SAPE  H12Y11324   4.523   0.292   4.060  1.2531  0.4147 -1.0402
  109SAPE  C31311325   4.578   0.408   4.231  0.0687  0.2633 -0.3992
  109SAPE  H13X11326   4.565   0.505   4.179  1.4008 -0.5528 -2.3792
  109SAPE  H13Y11327   4.662   0.425   4.302  2.1566 -1.6563 -2.2360
  109SAPE  C31411328   4.464   0.369   4.319 -0.1757 -0.6891  0.2451
  109SAPE  H14X11329   4.489   0.274   4.371 -0.9410 -2.0739 -1.7719
  109SAPE  H14Y11330   4.377   0.352   4.251  0.0687  0.7766 -0.4860
  109SAPE  C31511331   4.445   0.495   4.409 -0.4034  0.5896  0.7730
  109SAPE  H15X11332   4.447   0.583   4.341  1.1946 -1.7479 -2.5049
  109SAPE  H15Y11333   4.540   0.509   4.465 -0.7995  1.4662  1.2519
  109SAPE  C31611334   4.324   0.490   4.507 -0.3368 -0.2997 -0.3458
  109SAPE  H16X11335   4.239   0.480   4.437 -0.5110 -1.0278 -0.0369
  109SAPE  H16Y11336   4.318   0.588   4.559  1.1610 -0.9178  1.0947
  109SAPE  C31711337   4.325   0.374   4.604  0.5071 -0.2370 -0.0997
  109SAPE  H17X11338   4.427   0.383   4.649 -0.1257  0.4709  1.2503
  109SAPE  H17Y11339   4.292   0.276   4.563 -2.9024  0.5133  0.6223
  109SAPE  C31811340   4.215   0.410   4.715  0.1052 -0.4505  0.3915
  109SAPE  H18X11341   4.122   0.439   4.662 -0.5021  0.4170  1.8586
  109SAPE  H18Y11342   4.262   0.499   4.763 -0.8967  1.4242 -1.8683
  109SAPE  H18Z11343   4.204   0.331   4.792 -0.0636 -1.3181 -0.5115
  110SAPE     N11344   4.323   1.415   2.792  1.3135 -0.1947 -0.9311
  110SAPE   HN111345   4.261   1.496   2.770  2.5584  0.9419 -0.4458
  110SAPE   HN211346   4.338   1.359   2.706 -1.6777 -0.2230 -1.5174
  110SAPE   HN311347   4.272   1.352   2.856  1.4070 -0.2674 -0.9280
  110SAPE   C1211348   4.434   1.471   2.854 -0.6599 -0.0966 -0.0323
  110SAPE  H12A11349   4.498   1.388   2.892  0.5868  1.3047  1.0687
  110SAPE  H12B11350   4.397   1.518   2.949  3.1003 -0.6129  1.8721
  110SAPE   C1111351   4.512   1.577   2.756 -0.2018  0.0757 -0.4490
  110SAPE  H11A11352   4.538   1.517   2.666 -1.1096  1.0673 -1.3949
  110SAPE  H11B11353   4.610   1.607   2.800 -0.2316 -0.5727  0.0819
  110SAPE     P11354   4.436   1.817   2.800  0.3933  0.2728  0.1498
  110SAPE   O1311355   4.571   1.882   2.789 -0.4696 -0.2636 -0.4977
  110SAPE   O1411356   4.310   1.894   2.779  0.0022  0.7738  0.0491
  110SAPE   O1211357   4.433   1.682   2.718  0.3117 -0.1976  0.2460
  110SAPE   O1111358   4.430   1.766   2.949  0.7474 -0.4148 -0.4028
  110SAPE    C111359   4.316   1.738   3.028 -0.1045 -0.8707  0.4865
  110SAPE    HA11360   4.238   1.677   2.976  0.3726 -2.2254  1.3106
  110SAPE    HB11361   4.349   1.678   3.115 -1.5379 -1.9560  0.3295
  110SAPE    C211362   4.246   1.858   3.096  0.2183 -0.0333  1.0152
  110SAPE    HS11363   4.199   1.921   3.017 -0.7374 -1.3130  0.5211
  110SAPE   O2111364   4.342   1.930   3.170  0.2380 -0.4990  0.1500
  110SAPE   C2111365   4.312   2.057   3.193  0.0356  0.4566 -0.6116
  110SAPE   O2211366   4.213   2.114   3.145  0.1620 -0.2372  0.0682
  110SAPE   C2211367   4.416   2.123   3.278 -0.1426  0.0316  0.6867
  110SAPE   H2R11368   4.519   2.093   3.251  1.2082  4.3061  0.4756
  110SAPE   H2S11369   4.405   2.230   3.251 -2.8359 -0.7906 -2.0383
  110SAPE    C311370   4.127   1.815   3.183 -0.2544  0.0293 -0.1563
  110SAPE    HX11371   4.073   1.899   3.231  1.2383  1.0843 -0.2351
  110SAPE    HY11372   4.057   1.766   3.111 -1.2773  1.2076  0.0022
  110SAPE   O3111373   4.171   1.717   3.275  0.2460 -0.4103 -0.0757
  110SAPE   C3111374   4.208   1.760   3.399 -0.6076 -0.4247 -0.1551
  110SAPE   O3211375   4.190   1.875   3.437 -0.5394  0.0596 -0.1883
  110SAPE   C3211376   4.290   1.648   3.465 -0.0641 -1.1870  0.3888
  110SAPE   H2X11377   4.387   1.698   3.486 -0.7032 -0.0055  0.6043
  110SAPE   H2Y11378   4.304   1.564   3.393 -0.9674 -0.8050 -0.2492
  110SAPE   C2311379   4.391   2.109   3.431 -0.1122  0.4454  0.1200
  110SAPE   H3R11380   4.401   2.003   3.463  0.6586  0.9775  1.7490
  110SAPE   H3S11381   4.289   2.148   3.452 -0.2745  0.9928 -1.5387
  110SAPE   C2411382   4.510   2.179   3.511  0.1878  0.1564  0.2421
  110SAPE   H4R11383   4.607   2.142   3.472 -0.9418 -2.8887 -0.0008
  110SAPE   H4S11384   4.482   2.131   3.607 -2.1080 -1.0543 -0.9366
  110SAPE   C2511385   4.517   2.325   3.511  0.6869  0.0545 -0.2115
  110SAPE   H5R11386   4.566   2.370   3.423 -1.7589  1.7918 -0.7941
  110SAPE   C2611387   4.492   2.413   3.612 -0.0620  0.1214  0.1121
  110SAPE   H6R11388   4.507   2.520   3.590  1.4951 -0.5069 -2.1709
  110SAPE   C2711389   4.437   2.368   3.747  0.5013  0.1172 -0.7080
  110SAPE   H7R11390   4.525   2.320   3.794  0.0818 -0.3062 -0.3463
  110SAPE   H7S11391   4.365   2.284   3.732  0.9803 -0.7517  1.4934
  110SAPE   C2811392   4.385   2.477   3.838 -0.2694  0.0973 -0.3376
  110SAPE   H8R11393   4.358   2.570   3.785  1.8126  0.3563 -1.0736
  110SAPE   C2911394   4.395   2.484   3.967  0.8654  0.3829 -1.0335
  110SAPE   H9R11395   4.359   2.572   4.022  2.3423  0.5597 -0.3016
  110SAPE  C21011396   4.439   2.370   4.052  0.4900  0.9186  0.4657
  110SAPE  H10R11397   4.534   2.322   4.021 -0.1146 -0.1004  0.1542
  110SAPE  H10S11398   4.366   2.289   4.034 -0.3872  1.4452  1.5030
  110SAPE  C21111399   4.451   2.411   4.198 -0.1458  0.0736 -0.1931
  110SAPE  H11R11400   4.552   2.449   4.220 -0.2604 -0.5233  1.5168
  110SAPE  C21211401   4.356   2.395   4.292 -0.5063 -0.3487 -0.5961
  110SAPE  H12R11402   4.385   2.412   4.397  0.8962 -1.0338 -0.8393
  110SAPE  C21311403   4.220   2.348   4.253  0.1187  0.6416 -0.7260
  110SAPE  H13R11404   4.216   2.282   4.164 -1.7316  0.1537 -0.3268
  110SAPE  H13S11405   4.159   2.436   4.224 -1.5529 -0.4971 -0.7641
  110SAPE  C21411406   4.161   2.254   4.361 -0.5393 -0.2036 -0.0391
  110SAPE  H14R11407   4.226   2.167   4.380  0.6009  0.1403 -2.0085
  110SAPE  C21511408   4.075   2.288   4.454 -0.2827 -0.0285 -0.0570
  110SAPE  H15R11409   4.045   2.208   4.524  2.3202 -0.2721  0.8846
  110SAPE  C21611410   4.001   2.422   4.445 -0.1283  0.1953 -0.2265
  110SAPE  H16R11411   4.050   2.521   4.452 -0.7626  0.4196  3.6086
  110SAPE  H16S11412   3.934   2.417   4.534 -0.9749 -0.1385 -0.8765
  110SAPE  C21711413   3.901   2.411   4.326  1.1389 -0.3618  0.0802
  110SAPE  H17R11414   3.961   2.411   4.233 -1.8948  0.0524 -2.0454
  110SAPE  H17S11415   3.833   2.500   4.324 -2.3976 -2.8001  1.4286
  110SAPE  C21811416   3.806   2.293   4.320  0.4630 -0.1567  0.2525
  110SAPE  H18R11417   3.732   2.286   4.402  0.3101 -0.1214  0.1186
  110SAPE  H18S11418   3.874   2.208   4.301  1.1170  0.6297 -1.0610
  110SAPE  C21911419   3.721   2.279   4.187  0.4497 -1.0559  0.4031
  110SAPE  H19R11420   3.783   2.319   4.104 -1.2242 -1.3007 -1.0005
  110SAPE  H19S11421   3.635   2.350   4.191  0.7450 -0.4515 -2.3425
  110SAPE  C22011422   3.669   2.137   4.157  0.6764 -0.7514 -0.3101
  110SAPE  H20R11423   3.584   2.111   4.223  0.6587 -2.1409 -0.8478
  110SAPE  H20S11424   3.750   2.061   4.164  1.4119 -0.0894 -1.2934
  110SAPE  H20T11425   3.617   2.131   4.058  1.5040 -2.0181 -0.6879
  110SAPE   C3311426   4.226   1.590   3.595 -0.1868 -0.6092  0.1162
  110SAPE   H3X11427   4.132   1.545   3.555  0.3220 -0.6698 -1.0615
  110SAPE   H3Y11428   4.202   1.662   3.676 -0.7938 -0.6140 -0.0490
  110SAPE   C3411429   4.299   1.473   3.658  0.5813  0.7189 -0.0113
  110SAPE   H4X11430   4.355   1.408   3.588  1.6191 -0.7914  2.1121
  110SAPE   H4Y11431   4.228   1.404   3.707  0.0987  0.4931 -1.0055
  110SAPE   C3511432   4.383   1.525   3.776  0.3236  0.3169  0.6307
  110SAPE   H5X11433   4.330   1.604   3.833 -1.2124  0.4709 -0.9228
  110SAPE   H5Y11434   4.476   1.576   3.742 -1.2979  1.5928 -2.2691
  110SAPE   C3611435   4.402   1.425   3.890  0.9080  0.0913 -0.2469
  110SAPE   H6X11436   4.306   1.373   3.915  1.3524 -0.9643 -0.6895
  110SAPE   H6Y11437   4.433   1.477   3.984 -0.9701 -0.5386  0.7782
  110SAPE   C3711438   4.506   1.315   3.868 -0.1259 -1.1993 -0.1308
  110SAPE   H7X11439   4.605   1.362   3.850 -1.4859  2.4205  1.0267
  110SAPE   H7Y11440   4.475   1.265   3.774 -2.6733  1.0657 -0.6023
  110SAPE   C3811441   4.510   1.203   3.975 -0.1882  0.3887  0.0645
  110SAPE   H8X11442   4.588   1.135   3.933 -0.8807  0.7911 -1.9630
  110SAPE   H8Y11443   4.413   1.149   3.973 -0.1198  0.2302  0.8186
  110SAPE   C3911444   4.537   1.235   4.120  0.8904 -0.4722  0.2637
  110SAPE   H9X11445   4.458   1.305   4.156  1.6955  0.6005 -0.0065
  110SAPE   H9Y11446   4.625   1.303   4.115 -0.9028  1.9043 -1.1601
  110SAPE  C31011447   4.547   1.116   4.207 -0.6125 -0.0849 -0.4131
  110SAPE  H10X11448   4.447   1.070   4.222 -0.4688 -0.2341  0.0964
  110SAPE  H10Y11449   4.580   1.165   4.301  0.2457 -0.4456 -0.5171
  110SAPE  C31111450   4.644   0.999   4.175 -0.2576  0.4895  0.1028
  110SAPE  H11X11451   4.746   1.030   4.143 -0.0495  0.4692  0.7470
  110SAPE  H11Y11452   4.603   0.942   4.088  0.0781 -1.5436  1.2145
  110SAPE  C31211453   4.668   0.892   4.286  0.6403 -0.8573  0.2723
  110SAPE  H12X11454   4.569   0.846   4.307 -0.0905  0.3275 -0.4682
  110SAPE  H12Y11455   4.717   0.946   4.370 -0.6108 -0.4872  0.7900
  110SAPE  C31311456   4.783   0.793   4.253 -0.5103 -0.3195 -0.1975
  110SAPE  H13X11457   4.880   0.846   4.240 -0.0092 -1.6546 -2.3588
  110SAPE  H13Y11458   4.773   0.740   4.156 -0.6381 -2.2302  0.8098
  110SAPE  C31411459   4.806   0.687   4.364 -0.3751  0.0489  0.1737
  110SAPE  H14X11460   4.706   0.642   4.381  0.4493 -1.8952  0.1231
  110SAPE  H14Y11461   4.848   0.730   4.458  0.8438 -1.4498  0.3524
  110SAPE  C31511462   4.904   0.582   4.308  0.2158  0.4712  0.4024
  110SAPE  H15X11463   4.885   0.556   4.202  1.2980 -2.0883  0.7749
  110SAPE  H15Y11464   4.882   0.489   4.365  1.8231 -1.8110 -2.4091
  110SAPE  C31611465   5.053   0.617   4.313  1.2801 -0.0761  0.0105
  110SAPE  H16X11466   5.066   0.723   4.284  0.2795 -0.5046 -2.2138
  110SAPE  H16Y11467   5.109   0.561   4.234  1.3105 -0.7755  0.5142
  110SAPE  C31711468   5.113   0.588   4.449  0.6463  0.2467  0.1263
  110SAPE  H17X11469   5.112   0.477   4.455 -1.9065  0.2086  0.0589
  110SAPE  H17Y11470   5.049   0.625   4.532 -0.4840 -1.7959  0.2415
  110SAPE  C31811471   5.261   0.624   4.470 -0.0942 -0.3180  0.6878
  110SAPE  H18X11472   5.302   0.571   4.558 -1.2919 -1.2470  0.7266
  110SAPE  H18Y11473   5.287   0.732   4.466 -0.2342 -0.3178 -1.3207
  110SAPE  H18Z11474   5.307   0.582   4.379 -0.1813 -0.1766  0.5773
  111SAPE     N11475   3.460   5.566   2.600 -0.0571  0.5330 -0.3968
  111SAPE   HN111476   3.360   5.539   2.599  0.5939 -2.1031 -0.1945
  111SAPE   HN211477   3.483   5.579   2.499  0.5093  0.3507 -0.2923
  111SAPE   HN311478   3.506   5.483   2.643 -1.3786 -0.7463 -1.3492
  111SAPE   C1211479   3.486   5.688   2.675  0.0895 -0.1256 -0.4330
  111SAPE  H12A11480   3.573   5.733   2.624  0.5548 -0.8740 -0.3102
  111SAPE  H12B11481   3.519   5.658   2.777  2.4773 -2.3191 -1.7269
  111SAPE   C1111482   3.362   5.789   2.674 -0.0420 -0.5321 -0.2756
  111SAPE  H11A11483   3.395   5.873   2.739  1.4282 -2.2619  1.3328
  111SAPE  H11B11484   3.278   5.739   2.726  0.1054  1.0216  1.5328
  111SAPE     P11485   3.226   5.930   2.503  0.4749  0.0704 -0.1464
  111SAPE   O1311486   3.303   6.045   2.439  0.4231 -0.5383  0.4285
  111SAPE   O1411487   3.123   5.876   2.412 -0.4237  0.1680 -0.4773
  111SAPE   O1211488   3.327   5.814   2.539  0.4183  0.3836 -0.1254
  111SAPE   O1111489   3.157   5.973   2.640 -0.0997  0.3973 -0.7075
  111SAPE    C111490   3.021   5.923   2.661  0.5914 -0.4382 -0.1026
  111SAPE    HA11491   2.943   5.957   2.590 -0.8056 -1.3605  0.9504
  111SAPE    HB11492   3.021   5.812   2.668 -2.3122 -0.4594  0.5879
  111SAPE    C211493   2.953   5.969   2.798  0.0981  0.3232 -0.0514
  111SAPE    HS11494   2.922   6.074   2.778 -1.5978 -0.4379 -1.7377
  111SAPE   O2111495   3.052   5.962   2.906 -0.4385 -0.9122  0.2360
  111SAPE   C2111496   3.020   5.997   3.025  0.4420  0.5006 -0.2696
  111SAPE   O2211497   2.918   6.060   3.053 -0.0414  0.7575  0.4352
  111SAPE   C2211498   3.127   5.955   3.125  1.1461 -0.0994 -0.1341
  111SAPE   H2R11499   3.157   6.050   3.174 -3.2080  1.3020  0.2380
  111SAPE   H2S11500   3.084   5.885   3.199  3.2797 -0.3347  0.9679
  111SAPE    C311501   2.822   5.889   2.834 -0.5179  0.0226 -0.3432
  111SAPE    HX11502   2.762   5.872   2.743  0.4956  1.4563 -1.3319
  111SAPE    HY11503   2.771   5.953   2.909 -0.1991 -0.1408  0.0183
  111SAPE   O3111504   2.865   5.767   2.889 -1.0245  0.1337  0.0349
  111SAPE   C3111505   2.777   5.702   2.953  0.4629 -0.1467  0.4635
  111SAPE   O3211506   2.656   5.737   2.966  0.6409 -0.0800  0.2345
  111SAPE   C3211507   2.827   5.572   3.006 -0.1550 -0.2673  0.5734
  111SAPE   H2X11508   2.937   5.570   3.021  0.0014 -3.1313 -0.2819
  111SAPE   H2Y11509   2.800   5.502   2.924 -0.0274  1.3594 -0.9158
  111SAPE   C2311510   3.253   5.881   3.079 -0.8490  0.6476 -0.0771
  111SAPE   H3R11511   3.303   5.937   2.996  0.1449  0.3604  0.3081
  111SAPE   H3S11512   3.226   5.781   3.040 -0.5271 -0.5085  2.5164
  111SAPE   C2411513   3.347   5.863   3.204  0.0080 -0.6432  0.7507
  111SAPE   H4R11514   3.382   5.957   3.251  0.5578 -0.0534 -0.7774
  111SAPE   H4S11515   3.441   5.821   3.163 -0.1543  1.5491 -2.1742
  111SAPE   C2511516   3.300   5.769   3.307 -0.4368  0.2236 -0.1850
  111SAPE   H5R11517   3.313   5.663   3.278  1.4454 -0.8576  3.8192
  111SAPE   C2611518   3.260   5.783   3.439  0.2341  1.0273  0.0526
  111SAPE   H6R11519   3.254   5.695   3.504 -0.4656  2.3991  1.9455
  111SAPE   C2711520   3.240   5.917   3.500  0.4796  0.5550  0.4210
  111SAPE   H7R11521   3.258   6.001   3.429  0.1481 -0.2889 -0.6997
  111SAPE   H7S11522   3.313   5.931   3.582  0.3069 -3.2238  1.4232
  111SAPE   C2811523   3.094   5.941   3.537 -0.4368  0.1075  0.5539
  111SAPE   H8R11524   3.017   5.954   3.459  0.1672 -0.6475 -0.1869
  111SAPE   C2911525   3.050   5.941   3.664  0.3708  0.2527  0.1401
  111SAPE   H9R11526   2.944   5.954   3.692  0.3752  1.5139 -0.3356
  111SAPE  C21011527   3.134   5.923   3.788  0.5797 -0.1071  0.6459
  111SAPE  H10R11528   3.210   5.842   3.782  1.5468  0.7033  1.6280
  111SAPE  H10S11529   3.067   5.885   3.868  3.1621 -4.1455  1.2231
  111SAPE  C21111530   3.198   6.046   3.847 -0.9257  0.0536  0.4945
  111SAPE  H11R11531   3.206   6.138   3.787  0.1529  1.3613  2.5387
  111SAPE  C21211532   3.238   6.066   3.979 -0.4366  0.1963  0.3849
  111SAPE  H12R11533   3.308   6.148   3.999 -0.8525  0.4998  0.6032
  111SAPE  C21311534   3.233   5.956   4.083  0.4578  0.3192 -0.1037
  111SAPE  H13R11535   3.183   5.864   4.044 -0.4729  0.9623 -0.4653
  111SAPE  H13S11536   3.175   5.988   4.171 -1.6737 -1.1216 -0.9136
  111SAPE  C21411537   3.379   5.926   4.119  0.6795  0.6309 -0.0808
  111SAPE  H14R11538   3.440   5.924   4.028 -0.0027 -0.6650 -0.5324
  111SAPE  C21511539   3.430   5.900   4.244  0.0556  0.7311 -0.2186
  111SAPE  H15R11540   3.534   5.874   4.270  0.1909  1.7474  0.2816
  111SAPE  C21611541   3.347   5.898   4.370  0.6658  0.1073  0.3939
  111SAPE  H16R11542   3.370   5.802   4.420  0.1967 -0.7981 -1.0623
  111SAPE  H16S11543   3.239   5.907   4.347  0.4648 -0.1588  1.2012
  111SAPE  C21711544   3.384   6.010   4.462 -0.0092  0.1209  0.1192
  111SAPE  H17R11545   3.344   6.103   4.416 -0.5867  1.1775  2.6182
  111SAPE  H17S11546   3.492   6.034   4.477 -0.4749  2.7393 -0.1266
  111SAPE  C21811547   3.338   5.979   4.602 -0.0603 -0.1251 -0.4506
  111SAPE  H18R11548   3.380   5.884   4.640  0.5518 -0.6621 -2.3578
  111SAPE  H18S11549   3.229   5.965   4.590  0.3839 -2.3034 -2.6456
  111SAPE  C21911550   3.377   6.089   4.698 -0.3888 -0.5512 -0.8717
  111SAPE  H19R11551   3.308   6.103   4.784  1.5157 -0.7192  0.7708
  111SAPE  H19S11552   3.389   6.189   4.652  2.7805  0.2756  1.3604
  111SAPE  C22011553   3.513   6.061   4.766  0.1497  0.1289  0.7398
  111SAPE  H20R11554   3.583   6.019   4.692 -1.1023  2.0517 -1.6795
  111SAPE  H20S11555   3.502   5.987   4.848 -0.3724 -0.8939 -0.2208
  111SAPE  H20T11556   3.547   6.157   4.810 -0.7867  0.3979  0.9134
  111SAPE   C3311557   2.756   5.524   3.135 -0.0314  0.0756 -0.4539
  111SAPE   H3X11558   2.759   5.414   3.145  0.1841 -0.0537 -1.7739
  111SAPE   H3Y11559   2.647   5.548   3.130 -0.5671 -1.6900  1.3927
  111SAPE   C3411560   2.806   5.592   3.263  0.3147  0.3224  0.2181
  111SAPE   H4X11561   2.779   5.700   3.261  0.4325  0.5702  4.4389
  111SAPE   H4Y11562   2.916   5.579   3.265  0.2748 -0.3185 -0.8933
  111SAPE   C3511563   2.747   5.524   3.384  0.3598  0.9210 -1.0681
  111SAPE   H5X11564   2.738   5.417   3.360  0.0244 -0.1211  2.9154
  111SAPE   H5Y11565   2.646   5.560   3.413  0.9490  2.1006 -0.3493
  111SAPE   C3611566   2.834   5.533   3.511  0.3431 -0.5014  0.5832
  111SAPE   H6X11567   2.832   5.628   3.569  4.0459 -0.4746  0.9342
  111SAPE   H6Y11568   2.939   5.520   3.476 -0.3598 -2.4550 -0.9750
  111SAPE   C3711569   2.801   5.422   3.613 -0.4948 -0.6202 -0.2292
  111SAPE   H7X11570   2.774   5.327   3.562 -2.8076  1.0282 -2.3286
  111SAPE   H7Y11571   2.722   5.461   3.680 -0.7283  0.4859 -1.1137
  111SAPE   C3811572   2.919   5.395   3.707  0.2809  0.2923 -0.2267
  111SAPE   H8X11573   3.013   5.369   3.654 -0.0742 -1.8995  0.1186
  111SAPE   H8Y11574   2.895   5.308   3.772 -0.9556  0.1680 -0.8131
  111SAPE   C3911575   2.946   5.511   3.809 -0.3126  0.3003  0.1991
  111SAPE   H9X11576   2.848   5.528   3.859 -0.0301  0.9821  0.5344
  111SAPE   H9Y11577   2.977   5.606   3.762  0.0605  0.0320 -0.1051
  111SAPE  C31011578   3.051   5.476   3.915 -0.4665  0.2707  0.1117
  111SAPE  H10X11579   3.146   5.439   3.871 -0.3658  0.8980 -0.2069
  111SAPE  H10Y11580   3.004   5.387   3.963 -0.8998  1.1510  1.3773
  111SAPE  C31111581   3.080   5.582   4.022 -0.0297 -0.1226 -0.0839
  111SAPE  H11X11582   2.988   5.631   4.060  1.0660  0.6566  1.6878
  111SAPE  H11Y11583   3.129   5.664   3.965 -0.4884  1.8691  2.2192
  111SAPE  C31211584   3.180   5.541   4.127  0.0946 -0.1542 -0.4383
  111SAPE  H12X11585   3.238   5.627   4.166 -2.3844  1.4908 -0.1354
  111SAPE  H12Y11586   3.252   5.464   4.092  0.1217 -0.8906  1.1631
  111SAPE  C31311587   3.116   5.477   4.251 -0.3278 -0.8714  0.5022
  111SAPE  H13X11588   3.185   5.396   4.282  1.7468  0.2368 -0.9073
  111SAPE  H13Y11589   3.023   5.421   4.232  0.0694 -0.9046 -1.5402
  111SAPE  C31411590   3.085   5.570   4.372  0.1832  0.8898 -0.5028
  111SAPE  H14X11591   2.977   5.564   4.396 -0.1963  2.1575 -1.7066
  111SAPE  H14Y11592   3.101   5.672   4.330  0.9302 -0.0038 -2.5232
  111SAPE  C31511593   3.166   5.539   4.496  0.6783 -0.2566  0.1273
  111SAPE  H15X11594   3.135   5.625   4.558 -0.1269  0.0127 -0.6346
  111SAPE  H15Y11595   3.271   5.550   4.461  0.1136  0.0333 -1.5714
  111SAPE  C31611596   3.129   5.410   4.564 -0.7466 -0.4131  0.0129
  111SAPE  H16X11597   3.202   5.386   4.644  0.7251  1.6119 -0.6478
  111SAPE  H16Y11598   3.133   5.321   4.498  0.1258 -1.0528  0.8887
  111SAPE  C31711599   2.999   5.427   4.630 -0.0944  0.6651 -0.9609
  111SAPE  H17X11600   2.920   5.452   4.557 -2.1245 -0.6210  0.6582
  111SAPE  H17Y11601   3.000   5.508   4.707 -1.0369 -0.7019  0.5678
  111SAPE  C31811602   2.956   5.288   4.685  1.0184 -0.1949  0.1025
  111SAPE  H18X11603   3.034   5.253   4.757  1.5829  0.9238  0.0542
  111SAPE  H18Y11604   2.966   5.219   4.599  1.0244  0.6354 -0.5752
  111SAPE  H18Z11605   2.849   5.285   4.717  0.8196 -1.9690 -0.6243
  112SAPE     N11606   5.594   2.981   2.935 -0.4595  0.3771 -0.0332
  112SAPE   HN111607   5.604   3.037   2.847  4.7820 -0.4353 -0.3318
  112SAPE   HN211608   5.583   2.882   2.906 -0.4991  0.2342  0.4612
  112SAPE   HN311609   5.516   3.006   2.998 -1.8367  0.4137 -1.6647
  112SAPE   C1211610   5.718   3.003   3.010 -0.2269 -0.2564  0.2733
  112SAPE  H12A11611   5.804   2.941   2.976 -0.8268 -1.2718  0.5662
  112SAPE  H12B11612   5.696   2.988   3.118 -2.8302 -2.1210 -0.4334
  112SAPE   C1111613   5.763   3.147   3.005  0.5490 -0.1698  0.1673
  112SAPE  H11A11614   5.690   3.215   3.054  2.3054  2.4740 -0.6901
  112SAPE  H11B11615   5.765   3.193   2.904 -2.8559  1.9954  0.9308
  112SAPE     P11616   5.905   3.228   3.206  0.1773  0.0816  0.5160
  112SAPE   O1311617   6.039   3.218   3.258  0.2847 -0.0141 -0.5226
  112SAPE   O1411618   5.845   3.361   3.201 -0.3670  0.4678 -0.4595
  112SAPE   O1211619   5.894   3.164   3.058 -0.4321  0.0344 -0.4548
  112SAPE   O1111620   5.814   3.136   3.295 -0.2583 -0.4090  0.1226
  112SAPE    C111621   5.833   3.100   3.429 -0.3062 -0.2089 -0.6463
  112SAPE    HA11622   5.760   3.017   3.441 -0.3965  0.2566  3.0338
  112SAPE    HB11623   5.935   3.074   3.464 -1.1726 -1.2196  1.2952
  112SAPE    C211624   5.789   3.208   3.535 -0.1833 -0.2410 -0.0679
  112SAPE    HS11625   5.691   3.240   3.495  0.7332 -0.1723 -2.4614
  112SAPE   O2111626   5.886   3.315   3.538 -0.3005 -0.6272 -0.0657
  112SAPE   C2111627   5.841   3.428   3.591  0.3266  0.5345  0.4144
  112SAPE   O2211628   5.721   3.449   3.611 -0.2894 -0.2753  1.0344
  112SAPE   C2211629   5.949   3.531   3.590 -0.2146  0.5051 -0.7296
  112SAPE   H2R11630   6.051   3.493   3.614  0.2518  2.2520  0.2339
  112SAPE   H2S11631   5.937   3.568   3.486 -1.5777  1.8196 -0.1543
  112SAPE    C311632   5.792   3.144   3.675  0.2230  0.4014  0.5828
  112SAPE    HX11633   5.759   3.211   3.757  0.5895 -0.2079  1.2492
  112SAPE    HY11634   5.896   3.113   3.699  0.9657  0.7490 -1.9308
  112SAPE   O3111635   5.703   3.031   3.682  0.6182  0.3334  0.6225
  112SAPE   C3111636   5.726   2.948   3.788  1.4065 -0.8303  0.0712
  112SAPE   O3211637   5.805   2.976   3.877 -0.5371 -0.2165  0.1719
  112SAPE   C3211638   5.621   2.837   3.786  1.0004  0.5260  0.1268
  112SAPE   H2X11639   5.670   2.757   3.726 -1.6676 -0.8249 -0.4480
  112SAPE   H2Y11640   5.532   2.875   3.731 -0.0141  1.5422  2.3549
  112SAPE   C2311641   5.937   3.660   3.680 -0.2787  0.6971 -0.6202
  112SAPE   H3R11642   5.866   3.729   3.629 -1.6240 -1.3022 -1.6064
  112SAPE   H3S11643   6.029   3.719   3.662  1.0085 -0.8255  0.7377
  112SAPE   C2411644   5.915   3.642   3.826  0.4374 -0.2363 -0.8274
  112SAPE   H4R11645   5.844   3.558   3.844  1.3943 -1.0178 -0.5742
  112SAPE   H4S11646   5.867   3.730   3.873  0.5140 -1.5586  1.9510
  112SAPE   C2511647   6.050   3.611   3.899  0.2811 -0.2867 -0.5038
  112SAPE   H5R11648   6.136   3.667   3.859 -1.2113  2.6122  0.0491
  112SAPE   C2611649   6.078   3.513   3.991  0.6815  0.3239  0.3656
  112SAPE   H6R11650   6.180   3.491   4.025 -0.0150 -1.2745  1.5973
  112SAPE   C2711651   5.974   3.424   4.053  0.3209  0.2836 -0.1589
  112SAPE   H7R11652   5.878   3.468   4.018  0.1499 -0.4272 -0.5964
  112SAPE   H7S11653   5.977   3.438   4.164  0.2752 -2.8726  0.3241
  112SAPE   C2811654   5.982   3.284   4.019 -0.4238  0.2331 -0.3966
  112SAPE   H8R11655   6.021   3.257   3.920  2.9193 -0.7186  1.0541
  112SAPE   C2911656   5.960   3.178   4.102  0.3604  0.0384  0.5490
  112SAPE   H9R11657   5.975   3.078   4.059  0.8591  0.6772 -0.8316
  112SAPE  C21011658   5.910   3.187   4.249 -0.0758  0.2732 -0.2807
  112SAPE  H10R11659   5.887   3.290   4.282  2.2926  0.2754  1.6634
  112SAPE  H10S11660   5.995   3.161   4.315 -0.7270  0.8993  0.8296
  112SAPE  C21111661   5.804   3.085   4.266  0.3053  0.0496  0.2048
  112SAPE  H11R11662   5.828   2.979   4.251 -1.7736 -0.0628 -3.2941
  112SAPE  C21211663   5.677   3.116   4.296 -0.3405 -0.4830  0.3353
  112SAPE  H12R11664   5.607   3.035   4.318  0.8210 -1.3603  0.9293
  112SAPE  C21311665   5.621   3.257   4.312  0.9062 -0.0886  0.3068
  112SAPE  H13R11666   5.515   3.254   4.279  0.7717 -0.1724  0.7480
  112SAPE  H13S11667   5.662   3.329   4.238  0.9802 -0.3088  0.1321
  112SAPE  C21411668   5.636   3.324   4.449  0.4341  0.2433  0.4473
  112SAPE  H14R11669   5.737   3.317   4.492  0.3084  1.2865  0.9491
  112SAPE  C21511670   5.532   3.361   4.527  0.0093 -0.1063  0.2528
  112SAPE  H15R11671   5.550   3.418   4.619 -0.1008  1.2829 -0.5710
  112SAPE  C21611672   5.378   3.357   4.498 -0.1078 -0.0595  0.2358
  112SAPE  H16R11673   5.367   3.333   4.390  1.6089 -1.8667  0.4168
  112SAPE  H16S11674   5.334   3.456   4.523  1.0027  0.8670 -1.2694
  112SAPE  C21711675   5.308   3.248   4.578 -0.2511  0.1637 -0.2084
  112SAPE  H17R11676   5.200   3.256   4.551 -0.4541  2.0592  0.9907
  112SAPE  H17S11677   5.299   3.271   4.687  1.0938 -0.2325  0.0070
  112SAPE  C21811678   5.351   3.109   4.534 -0.6938  0.7821  0.1056
  112SAPE  H18R11679   5.443   3.102   4.596 -1.0865  0.8287  0.7043
  112SAPE  H18S11680   5.378   3.095   4.427  0.6258  0.5408  0.4556
  112SAPE  C21911681   5.270   2.988   4.578  0.1705 -0.4479 -0.3017
  112SAPE  H19R11682   5.329   2.894   4.588  0.6833 -0.0260  0.7520
  112SAPE  H19S11683   5.196   2.971   4.497 -1.0173  1.6356  0.2933
  112SAPE  C22011684   5.196   3.005   4.713 -1.0792 -0.8135 -0.1126
  112SAPE  H20R11685   5.148   2.911   4.746 -1.1834 -0.5220  0.5878
  112SAPE  H20S11686   5.107   3.070   4.696  0.3071  1.3514  0.4756
  112SAPE  H20T11687   5.262   3.057   4.785 -0.8840 -1.0478 -0.1221
  112SAPE   C3311688   5.560   2.775   3.917  0.1241  0.0105  0.0618
  112SAPE   H3X11689   5.642   2.717   3.964  1.7328  0.3317 -2.1946
  112SAPE   H3Y11690   5.478   2.703   3.897  0.8841 -1.7231  2.6981
  112SAPE   C3411691   5.519   2.890   4.011  1.4022  0.0776 -0.5891
  112SAPE   H4X11692   5.460   2.962   3.950  1.5024  1.0314  0.4268
  112SAPE   H4Y11693   5.606   2.940   4.058  0.8265 -0.7926  1.5003
  112SAPE   C3511694   5.434   2.843   4.126  0.8305 -0.4568  0.5116
  112SAPE   H5X11695   5.365   2.760   4.101 -1.0142  1.2491 -0.3285
  112SAPE   H5Y11696   5.379   2.930   4.166  0.0465  0.9250 -3.1403
  112SAPE   C3611697   5.516   2.771   4.239  0.7589  0.5178  0.3544
  112SAPE   H6X11698   5.586   2.842   4.288  0.3035  0.9113  0.4427
  112SAPE   H6Y11699   5.571   2.684   4.197 -0.4481  0.2071 -0.6708
  112SAPE   C3711700   5.416   2.713   4.341  0.0958 -0.9052 -0.3353
  112SAPE   H7X11701   5.350   2.635   4.297 -0.6525 -0.3903 -0.1559
  112SAPE   H7Y11702   5.364   2.804   4.379  0.8238 -1.1617  1.3710
  112SAPE   C3811703   5.472   2.642   4.467 -0.5001  0.2629  1.1713
  112SAPE   H8X11704   5.393   2.631   4.544  0.2622 -1.9400  1.7035
  112SAPE   H8Y11705   5.542   2.720   4.504  1.8767  0.0462 -2.4158
  112SAPE   C3911706   5.530   2.510   4.424 -0.7395  0.4724  0.2893
  112SAPE   H9X11707   5.597   2.531   4.339 -2.2781  2.8313 -0.4299
  112SAPE   H9Y11708   5.445   2.445   4.394 -0.5625 -0.9074  2.5068
  112SAPE  C31011709   5.605   2.435   4.535 -0.7099  0.2975 -0.0324
  112SAPE  H10X11710   5.537   2.425   4.623 -2.4452 -0.5003 -1.4053
  112SAPE  H10Y11711   5.693   2.490   4.574 -1.0875 -0.3295  1.7968
  112SAPE  C31111712   5.644   2.288   4.507  0.2466  0.1001  0.5822
  112SAPE  H11X11713   5.553   2.239   4.465 -0.1751  2.1821 -1.1295
  112SAPE  H11Y11714   5.669   2.239   4.603  1.7138  0.8899  0.6340
  112SAPE  C31211715   5.756   2.280   4.400 -0.2327 -0.0062 -0.2333
  112SAPE  H12X11716   5.710   2.326   4.310 -2.0813 -2.9991 -0.9474
  112SAPE  H12Y11717   5.780   2.175   4.376 -0.1459  0.3201 -1.6387
  112SAPE  C31311718   5.881   2.346   4.447 -0.0271 -0.0412 -0.1333
  112SAPE  H13X11719   5.893   2.305   4.549 -1.0792  0.8710  0.3699
  112SAPE  H13Y11720   5.857   2.454   4.446  1.5683  0.3477 -1.6242
  112SAPE  C31411721   6.001   2.309   4.359  0.1324 -0.4152  0.5157
  112SAPE  H14X11722   6.024   2.201   4.371  3.4275  0.2241  0.9504
  112SAPE  H14Y11723   6.091   2.366   4.392 -1.4293  1.3695  1.9286
  112SAPE  C31511724   5.982   2.338   4.211 -0.3053 -0.2938  0.1373
  112SAPE  H15X11725   5.964   2.446   4.190  2.0464  0.2978  0.8382
  112SAPE  H15Y11726   5.907   2.273   4.162  0.8098 -2.8886  1.6735
  112SAPE  C31611727   6.116   2.310   4.144 -0.6502  0.1858 -0.0057
  112SAPE  H16X11728   6.137   2.204   4.168 -0.2540  0.4904  1.0489
  112SAPE  H16Y11729   6.192   2.377   4.190  1.0536 -2.5853  1.4724
  112SAPE  C31711730   6.111   2.334   3.997  0.0480 -0.9391 -0.1842
  112SAPE  H17X11731   6.083   2.441   3.984 -0.6178 -1.1137 -0.2222
  112SAPE  H17Y11732   6.035   2.274   3.944 -0.0628 -0.4921 -0.5378
  112SAPE  C31811733   6.245   2.319   3.921  0.2500 -0.2679 -0.1549
  112SAPE  H18X11734   6.262   2.209   3.913  1.9447 -0.0180 -0.4895
  112SAPE  H18Y11735   6.327   2.373   3.973  0.1095 -0.2294  0.0285
  112SAPE  H18Z11736   6.240   2.357   3.817 -0.8623 -0.6641 -0.2533
  113SAPE     N11737   6.908   1.659   2.711 -0.5137 -0.2013  0.0532
  113SAPE   HN111738   6.972   1.620   2.639  0.4175  1.1391  0.1112
  113SAPE   HN211739   6.961   1.735   2.758 -0.7972  0.2725 -0.3838
  113SAPE   HN311740   6.901   1.589   2.788 -1.3804 -0.6228 -0.3940
  113SAPE   C1211741   6.768   1.702   2.672 -0.7597  0.0119 -0.3186
  113SAPE  H12A11742   6.775   1.760   2.578  2.2051  1.7012  0.8372
  113SAPE  H12B11743   6.721   1.763   2.752 -0.7414  0.7946 -0.9013
  113SAPE   C1111744   6.689   1.574   2.635 -0.0076  0.3016  0.2379
  113SAPE  H11A11745   6.731   1.528   2.544 -0.6664  0.3247 -0.0829
  113SAPE  H11B11746   6.590   1.615   2.605  0.4823  1.0921 -0.3290
  113SAPE     P11747   6.666   1.333   2.725 -0.7048 -0.3445 -0.2191
  113SAPE   O1311748   6.582   1.317   2.605 -0.3722  0.2935  0.2814
  113SAPE   O1411749   6.808   1.287   2.738 -0.3601 -0.6485 -0.7016
  113SAPE   O1211750   6.660   1.486   2.751  0.0163  0.2705  0.0117
  113SAPE   O1111751   6.592   1.279   2.856  0.4689 -0.5056  0.0997
  113SAPE    C111752   6.663   1.274   2.981 -0.4761  0.6273 -0.2505
  113SAPE    HA11753   6.736   1.358   2.983  1.0146 -0.3954 -3.7421
  113SAPE    HB11754   6.595   1.286   3.068  0.3616 -2.6234  1.0082
  113SAPE    C211755   6.749   1.145   2.994 -0.1279  0.5052 -0.7053
  113SAPE    HS11756   6.819   1.141   2.907 -1.6851 -0.4911 -1.9792
  113SAPE   O2111757   6.664   1.029   2.980 -0.3944 -0.1564 -0.1448
  113SAPE   C2111758   6.711   0.911   2.955  0.8325 -0.3818 -0.1753
  113SAPE   O2211759   6.824   0.887   2.916 -0.5029  0.4708 -0.4490
  113SAPE   C2211760   6.592   0.805   2.960 -0.2125  0.0090  0.0031
  113SAPE   H2R11761   6.532   0.820   2.867  0.1400 -1.0532 -0.4091
  113SAPE   H2S11762   6.647   0.709   2.959 -1.6505 -0.9282 -2.9352
  113SAPE    C311763   6.820   1.146   3.134  0.4430 -0.3916  1.3030
  113SAPE    HX11764   6.898   1.226   3.129 -0.0054 -0.0376 -1.1051
  113SAPE    HY11765   6.889   1.060   3.148 -0.7109 -1.5523  0.0929
  113SAPE   O3111766   6.727   1.172   3.242 -0.3915  0.0841 -0.1373
  113SAPE   C3111767   6.708   1.061   3.316 -0.8540  0.1524  0.1945
  113SAPE   O3211768   6.729   0.946   3.282 -0.2376 -0.1202  0.0009
  113SAPE   C3211769   6.649   1.102   3.445 -0.2568 -0.1176  0.4631
  113SAPE   H2X11770   6.552   1.153   3.426 -0.1468  0.1305  0.5682
  113SAPE   H2Y11771   6.710   1.185   3.486 -0.7625  0.9925 -0.9325
  113SAPE   C2311772   6.496   0.804   3.080 -0.6788 -0.5429  0.6101
  113SAPE   H3R11773   6.460   0.909   3.089  0.6154 -0.0493  0.2150
  113SAPE   H3S11774   6.550   0.789   3.176 -1.6722  1.5996  1.5645
  113SAPE   C2411775   6.371   0.709   3.057 -0.1777  0.2800  0.0033
  113SAPE   H4R11776   6.337   0.721   2.951  0.7240 -1.1120 -0.4711
  113SAPE   H4S11777   6.291   0.749   3.122 -0.9593 -0.8210 -0.2504
  113SAPE   C2511778   6.379   0.555   3.065 -0.0069 -1.3972 -0.0992
  113SAPE   H5R11779   6.401   0.499   2.973  0.7842  0.6903 -1.2556
  113SAPE   C2611780   6.361   0.487   3.181  0.1487  0.6201  0.3203
  113SAPE   H6R11781   6.393   0.382   3.179  2.5362  1.2831  0.0468
  113SAPE   C2711782   6.330   0.558   3.307  0.3214  0.6135 -0.4943
  113SAPE   H7R11783   6.234   0.521   3.350  0.4416 -1.2210 -1.6548
  113SAPE   H7S11784   6.315   0.668   3.306  1.2265  0.7422 -0.8439
  113SAPE   C2811785   6.445   0.526   3.400  0.4405 -0.5616  0.1578
  113SAPE   H8R11786   6.535   0.582   3.373  0.0062 -0.1062 -0.3553
  113SAPE   C2911787   6.454   0.435   3.501 -0.1500 -0.4368 -0.2727
  113SAPE   H9R11788   6.552   0.420   3.549 -0.6377  0.4630  1.0522
  113SAPE  C21011789   6.339   0.351   3.554 -0.5307 -0.3556 -0.1028
  113SAPE  H10R11790   6.361   0.247   3.585 -0.4431  0.2648  2.0749
  113SAPE  H10S11791   6.265   0.332   3.474  1.9014 -0.0057 -2.6096
  113SAPE  C21111792   6.268   0.418   3.670 -0.3600 -1.0245 -0.0590
  113SAPE  H11R11793   6.177   0.473   3.641  1.2019 -0.0282 -3.5760
  113SAPE  C21211794   6.314   0.416   3.798 -0.0538 -0.5855 -0.6511
  113SAPE  H12R11795   6.255   0.475   3.870 -1.0888  0.4822 -2.2923
  113SAPE  C21311796   6.440   0.350   3.851  0.1238  0.2624 -0.7190
  113SAPE  H13R11797   6.520   0.332   3.775  1.3933  0.3855  0.5424
  113SAPE  H13S11798   6.409   0.247   3.878  1.1808 -0.1489 -1.0056
  113SAPE  C21411799   6.508   0.415   3.973  0.3491  0.2523  0.4828
  113SAPE  H14R11800   6.594   0.480   3.952  2.6835 -2.8361 -0.0805
  113SAPE  C21511801   6.455   0.393   4.100  0.4845  0.4345  1.1218
  113SAPE  H15R11802   6.501   0.441   4.188 -0.8891  0.7674  1.6848
  113SAPE  C21611803   6.337   0.308   4.137  0.6940 -0.4043  0.4176
  113SAPE  H16R11804   6.295   0.257   4.048  0.4592  0.0298  0.2752
  113SAPE  H16S11805   6.245   0.364   4.164  0.7051 -1.0650  1.9440
  113SAPE  C21711806   6.360   0.210   4.254 -0.8296  0.1914  0.2908
  113SAPE  H17R11807   6.451   0.149   4.238 -1.1433 -0.6240  1.5051
  113SAPE  H17S11808   6.277   0.136   4.261 -0.8061  0.0904 -0.3660
  113SAPE  C21811809   6.377   0.278   4.386 -0.0454 -0.3406  0.1001
  113SAPE  H18R11810   6.295   0.353   4.381 -2.4023 -2.7419  0.5375
  113SAPE  H18S11811   6.473   0.330   4.407 -1.2593  1.6974  0.8902
  113SAPE  C21911812   6.345   0.191   4.510  0.2563 -0.2389 -0.1246
  113SAPE  H19R11813   6.244   0.144   4.501 -0.1719  0.6506 -0.0821
  113SAPE  H19S11814   6.323   0.263   4.591  0.5737  1.2214 -1.2832
  113SAPE  C22011815   6.460   0.099   4.538  1.1546  0.1741  0.3126
  113SAPE  H20R11816   6.484   0.021   4.463  0.6182 -0.3389  0.6583
  113SAPE  H20S11817   6.448   0.033   4.626 -0.4443  0.0653  0.0538
  113SAPE  H20T11818   6.552   0.161   4.547  1.2865  0.0398 -0.0924
  113SAPE   C3311819   6.641   0.988   3.547  0.2712  0.6302 -0.1824
  113SAPE   H3X11820   6.737   0.934   3.561 -0.6431 -0.9580  0.2693
  113SAPE   H3Y11821   6.568   0.910   3.517 -1.8676  2.1343  0.7788
  113SAPE   C3411822   6.597   1.041   3.687 -0.0763 -0.6277  0.5538
  113SAPE   H4X11823   6.502   1.097   3.679  1.5132  2.2619  0.4581
  113SAPE   H4Y11824   6.667   1.123   3.714  1.6595 -1.2001 -1.8180
  113SAPE   C3511825   6.599   0.931   3.790 -0.5687 -0.1431  0.4887
  113SAPE   H5X11826   6.705   0.900   3.784 -0.5124  0.1847 -0.3812
  113SAPE   H5Y11827   6.542   0.844   3.750  0.3952 -1.1877  1.3373
  113SAPE   C3611828   6.552   0.966   3.931  1.2380 -0.2090  0.1791
  113SAPE   H6X11829   6.446   0.998   3.921  1.7152  1.0661 -1.1631
  113SAPE   H6Y11830   6.619   1.046   3.967 -0.8083  2.5131 -1.6721
  113SAPE   C3711831   6.562   0.852   4.036 -0.2872  0.1756 -0.2182
  113SAPE   H7X11832   6.649   0.790   4.005 -1.0965 -0.8692 -0.4644
  113SAPE   H7Y11833   6.475   0.787   4.012 -0.4401  1.1802 -2.6358
  113SAPE   C3811834   6.576   0.907   4.178  0.1385  0.2643 -0.0623
  113SAPE   H8X11835   6.679   0.948   4.184  1.3048 -1.6777 -3.7502
  113SAPE   H8Y11836   6.507   0.992   4.197  0.4942  0.5534 -0.0592
  113SAPE   C3911837   6.545   0.806   4.290 -0.4640  0.1353 -0.0354
  113SAPE   H9X11838   6.456   0.745   4.261 -1.6585  1.0300  1.5558
  113SAPE   H9Y11839   6.515   0.861   4.382  0.0430  0.2861  0.0378
  113SAPE  C31011840   6.657   0.716   4.339  0.6863 -0.0686 -0.5400
  113SAPE  H10X11841   6.727   0.771   4.406 -0.3508 -2.6823  2.9603
  113SAPE  H10Y11842   6.720   0.672   4.258  3.1760  2.7294 -0.2819
  113SAPE  C31111843   6.608   0.605   4.429  0.1820 -0.9764 -0.3469
  113SAPE  H11X11844   6.689   0.530   4.440  0.2008 -0.7649  1.0930
  113SAPE  H11Y11845   6.519   0.560   4.380 -0.9743 -0.3538  1.1207
  113SAPE  C31211846   6.559   0.663   4.564 -0.9151 -0.5295  0.8058
  113SAPE  H12X11847   6.484   0.745   4.553  2.0105  2.3300  0.4493
  113SAPE  H12Y11848   6.649   0.712   4.608 -0.1942  0.3219 -1.4885
  113SAPE  C31311849   6.505   0.552   4.654  0.0645  0.4672 -0.4110
  113SAPE  H13X11850   6.590   0.481   4.658  0.0037  0.4396  1.8568
  113SAPE  H13Y11851   6.425   0.503   4.595  0.2442  1.4606 -1.5178
  113SAPE  C31411852   6.476   0.591   4.805 -0.4510  1.0357 -0.0008
  113SAPE  H14X11853   6.395   0.667   4.801 -1.7285 -0.3183 -2.4157
  113SAPE  H14Y11854   6.565   0.643   4.848  0.9512 -0.5270 -0.8800
  113SAPE  C31511855   6.432   0.467   4.892  0.2790  0.0335 -0.7106
  113SAPE  H15X11856   6.525   0.408   4.912 -0.8016 -1.8744 -1.0913
  113SAPE  H15Y11857   6.364   0.405   4.829  0.0639  0.7613 -1.1977
  113SAPE  C31611858   6.358   0.509   5.019 -0.0619  0.7683 -0.9090
  113SAPE  H16X11859   6.291   0.425   5.049  0.3866  0.1897 -1.5086
  113SAPE  H16Y11860   6.292   0.598   5.014 -0.8070  0.2236 -1.0183
  113SAPE  C31711861   6.435   0.551   5.147 -0.5437 -0.0097 -0.8173
  113SAPE  H17X11862   6.477   0.653   5.134  2.6626 -1.2693 -1.2629
  113SAPE  H17Y11863   6.524   0.486   5.157 -0.0893  0.7821  0.4774
  113SAPE  C31811864   6.345   0.539   5.261 -0.4566  0.1898  0.2117
  113SAPE  H18X11865   6.400   0.526   5.357 -1.2899  0.2195  0.7067
  113SAPE  H18Y11866   6.282   0.449   5.245  0.6751 -0.9819  1.9739
  113SAPE  H18Z11867   6.286   0.631   5.281  3.1067  2.4893  1.1710
  114SAPE     N11868   5.447   4.118   3.131  0.7639 -0.3733 -0.0049
  114SAPE   HN111869   5.463   4.062   3.044  0.2361  1.6154 -1.4526
  114SAPE   HN211870   5.484   4.069   3.215  2.0796  1.8799  0.8048
  114SAPE   HN311871   5.343   4.125   3.133  0.4064 -3.0342 -2.1069
  114SAPE   C1211872   5.504   4.256   3.103  0.3598  0.2392 -0.0924
  114SAPE  H12A11873   5.605   4.234   3.063 -0.0947 -1.8080 -0.2089
  114SAPE  H12B11874   5.511   4.308   3.201 -1.1838 -0.6347  0.5196
  114SAPE   C1111875   5.428   4.347   3.000  0.3125 -0.0015 -0.0699
  114SAPE  H11A11876   5.496   4.431   2.974 -1.3981  1.9229  1.3956
  114SAPE  H11B11877   5.338   4.392   3.046  0.9411  0.8293  0.3829
  114SAPE     P11878   5.273   4.262   2.815  0.0412 -0.0855  0.3600
  114SAPE   O1311879   5.297   4.268   2.667 -0.2618  0.3391  0.6092
  114SAPE   O1411880   5.206   4.144   2.870  0.4799  0.0884 -0.7744
  114SAPE   O1211881   5.413   4.267   2.886 -0.2854 -0.6923 -0.6128
  114SAPE   O1111882   5.198   4.395   2.853  0.7608  0.0700  0.5834
  114SAPE    C111883   5.053   4.406   2.861  0.1663  0.0522 -0.6210
  114SAPE    HA11884   5.022   4.498   2.807  0.2900 -0.1466 -1.0293
  114SAPE    HB11885   5.014   4.314   2.812  2.1723 -1.1294 -0.0885
  114SAPE    C211886   5.004   4.428   3.010  0.4661 -0.1453  0.4129
  114SAPE    HS11887   4.896   4.453   3.002  0.5990  0.1515 -0.4647
  114SAPE   O2111888   5.079   4.542   3.060 -0.2363 -0.3697 -0.8380
  114SAPE   C2111889   5.035   4.600   3.172 -0.4159 -0.0407 -0.6542
  114SAPE   O2211890   4.925   4.579   3.220 -0.0818 -0.0347 -0.0395
  114SAPE   C2211891   5.139   4.682   3.254  0.3825 -0.2661 -0.1645
  114SAPE   H2R11892   5.181   4.623   3.338  0.3145  1.2947  1.0111
  114SAPE   H2S11893   5.212   4.740   3.193 -0.7111  0.6379 -0.6596
  114SAPE    C311894   5.032   4.304   3.091 -0.0734  0.5902 -0.4403
  114SAPE    HX11895   5.142   4.290   3.098 -0.0607  1.0919  0.4072
  114SAPE    HY11896   5.010   4.213   3.030  0.2869  0.3550 -0.2247
  114SAPE   O3111897   4.980   4.292   3.228  0.4386  0.2286 -0.3694
  114SAPE   C3111898   4.846   4.280   3.236 -0.1816  0.1729  0.0842
  114SAPE   O3211899   4.773   4.267   3.142  0.4637 -0.5317  0.8891
  114SAPE   C3211900   4.793   4.282   3.379 -0.0357  0.3466  0.8143
  114SAPE   H2X11901   4.882   4.288   3.445  0.0970  3.3297  0.4996
  114SAPE   H2Y11902   4.732   4.191   3.391  1.1269 -0.3003  2.1509
  114SAPE   C2311903   5.062   4.791   3.339  0.2906  0.1556 -0.0846
  114SAPE   H3R11904   4.986   4.748   3.408 -0.9478 -0.4349 -1.7629
  114SAPE   H3S11905   5.015   4.851   3.257  1.7867  1.0213 -0.3531
  114SAPE   C2411906   5.161   4.876   3.424 -0.1885  0.8798 -0.1685
  114SAPE   H4R11907   5.248   4.917   3.369  0.6459  0.3670  0.7495
  114SAPE   H4S11908   5.212   4.801   3.488 -1.8727  0.1236  0.3603
  114SAPE   C2511909   5.101   4.983   3.504 -0.3960  0.1757  0.1574
  114SAPE   H5R11910   5.093   5.085   3.462  1.2404 -0.4513 -1.8355
  114SAPE   C2611911   5.076   4.969   3.639 -0.1152 -0.2996  0.0202
  114SAPE   H6R11912   5.042   5.063   3.685 -2.8619 -2.3044  2.4754
  114SAPE   C2711913   5.072   4.844   3.718  0.0916 -0.0576  0.1455
  114SAPE   H7R11914   5.096   4.756   3.655 -0.8670  0.4468 -0.9548
  114SAPE   H7S11915   4.969   4.813   3.745  0.0735 -1.8911 -1.7863
  114SAPE   C2811916   5.161   4.864   3.835  0.3664 -0.4133 -0.2809
  114SAPE   H8R11917   5.267   4.886   3.815 -0.2221  1.0864 -2.0689
  114SAPE   C2911918   5.128   4.842   3.965 -0.7016 -0.8591 -0.1125
  114SAPE   H9R11919   5.220   4.853   4.025 -0.0909 -0.5899 -1.0666
  114SAPE  C21011920   4.995   4.797   4.025  0.0186 -0.3386  0.8161
  114SAPE  H10R11921   4.907   4.828   3.964 -0.3183 -0.0436  1.4414
  114SAPE  H10S11922   4.990   4.833   4.130 -0.3885  2.1639 -0.0009
  114SAPE  C21111923   5.013   4.647   4.027 -0.2329  0.5060  0.4479
  114SAPE  H11R11924   5.057   4.613   3.932 -1.1021 -0.6205  0.4333
  114SAPE  C21211925   4.998   4.552   4.123 -0.3228  0.0550  0.4945
  114SAPE  H12R11926   5.012   4.448   4.092 -2.3988 -0.2507  0.3889
  114SAPE  C21311927   4.941   4.573   4.266 -0.2129  0.5841  0.5851
  114SAPE  H13R11928   4.868   4.493   4.289  0.0415  0.3815  0.6907
  114SAPE  H13S11929   4.890   4.672   4.276  0.5201  1.0501 -0.2286
  114SAPE  C21411930   5.054   4.585   4.367 -0.1264 -0.1567  0.0181
  114SAPE  H14R11931   5.153   4.592   4.320  0.9772 -1.7184  1.9625
  114SAPE  C21511932   5.048   4.568   4.498  0.4583  0.4654 -0.6175
  114SAPE  H15R11933   5.144   4.574   4.551 -0.0337 -2.1269  0.7398
  114SAPE  C21611934   4.930   4.539   4.595 -0.4333  0.1217  0.6351
  114SAPE  H16R11935   4.924   4.436   4.636  0.0443 -0.5632 -0.9133
  114SAPE  H16S11936   4.836   4.570   4.543  1.2074  1.5332 -1.6891
  114SAPE  C21711937   4.944   4.633   4.711 -0.9515  0.2623  0.4037
  114SAPE  H17R11938   4.934   4.740   4.681  2.6511  0.4268 -0.6717
  114SAPE  H17S11939   5.045   4.626   4.757  0.1781  0.6002 -1.8899
  114SAPE  C21811940   4.847   4.595   4.822  0.0733 -0.4957  0.1587
  114SAPE  H18R11941   4.857   4.487   4.843  0.2352 -0.4056  0.5537
  114SAPE  H18S11942   4.740   4.603   4.791 -0.3459  0.5801  1.7565
  114SAPE  C21911943   4.854   4.686   4.948  0.1338 -0.0322  0.0383
  114SAPE  H19R11944   4.800   4.780   4.926  0.4883 -0.0440 -0.9454
  114SAPE  H19S11945   4.957   4.728   4.961 -0.3900  2.0425 -1.9022
  114SAPE  C22011946   4.780   4.636   5.075  0.0442  0.0704 -0.4517
  114SAPE  H20R11947   4.779   4.702   5.164 -0.6272 -2.1186  1.2692
  114SAPE  H20S11948   4.840   4.553   5.118  0.9707  0.7706 -0.3478
  114SAPE  H20T11949   4.674   4.607   5.062  0.5215 -1.5688 -1.0081
  114SAPE   C3311950   4.704   4.398   3.406  0.2320 -0.1696 -0.3451
  114SAPE   H3X11951   4.620   4.407   3.334 -1.9328 -0.4122  1.9923
  114SAPE   H3Y11952   4.771   4.486   3.415  0.0879 -0.1897  1.1738
  114SAPE   C3411953   4.630   4.373   3.535 -0.1268  0.4854  0.8141
  114SAPE   H4X11954   4.581   4.273   3.537 -2.2068  1.3986 -0.7371
  114SAPE   H4Y11955   4.543   4.442   3.544 -0.9007 -0.4349  0.5598
  114SAPE   C3511956   4.715   4.369   3.661 -0.8841  0.2227 -0.7549
  114SAPE   H5X11957   4.753   4.473   3.665 -0.6375  0.2475 -2.7515
  114SAPE   H5Y11958   4.797   4.293   3.659 -0.2411  0.9140 -1.3105
  114SAPE   C3611959   4.629   4.334   3.780  0.1151  0.0190  0.3471
  114SAPE   H6X11960   4.618   4.223   3.786  0.4184 -0.0646 -0.5053
  114SAPE   H6Y11961   4.532   4.384   3.756  0.2284 -0.1736 -0.5493
  114SAPE   C3711962   4.682   4.369   3.913 -0.3549  0.4991 -0.5867
  114SAPE   H7X11963   4.732   4.469   3.908 -1.3548  1.4507  4.1021
  114SAPE   H7Y11964   4.761   4.296   3.939 -1.8383 -1.8887 -2.3169
  114SAPE   C3811965   4.581   4.379   4.024 -0.5007 -0.3851  1.5134
  114SAPE   H8X11966   4.535   4.279   4.044  1.7462 -1.5178  1.3335
  114SAPE   H8Y11967   4.509   4.453   3.985  0.5437 -0.7176 -1.2556
  114SAPE   C3911968   4.634   4.429   4.162 -0.3453  0.1333  0.8711
  114SAPE   H9X11969   4.674   4.532   4.149 -1.2233  0.6606  2.1056
  114SAPE   H9Y11970   4.715   4.365   4.203  0.1606 -0.7404 -1.3457
  114SAPE  C31011971   4.528   4.424   4.272 -0.0644  0.3757  0.3157
  114SAPE  H10X11972   4.464   4.335   4.256  1.3890 -0.6000 -0.2907
  114SAPE  H10Y11973   4.473   4.518   4.251 -0.5049 -0.0892 -0.6765
  114SAPE  C31111974   4.581   4.438   4.411 -0.0327 -0.0112  0.2506
  114SAPE  H11X11975   4.652   4.521   4.427 -0.0763 -0.3509  2.4837
  114SAPE  H11Y11976   4.638   4.344   4.428  1.9448  1.2058  0.6256
  114SAPE  C31211977   4.456   4.448   4.495 -0.4234  0.9234  0.3440
  114SAPE  H12X11978   4.401   4.353   4.479  0.9889  0.4147 -1.7233
  114SAPE  H12Y11979   4.383   4.526   4.463 -1.0090  0.9240  1.6061
  114SAPE  C31311980   4.485   4.459   4.642 -0.0445  0.0492  0.1874
  114SAPE  H13X11981   4.493   4.561   4.683  0.6987 -0.2619  0.8500
  114SAPE  H13Y11982   4.586   4.425   4.673 -0.0794 -0.7657 -0.5293
  114SAPE  C31411983   4.372   4.400   4.739  0.2819 -0.9236  0.1300
  114SAPE  H14X11984   4.405   4.412   4.844  1.0987  0.4068 -0.2662
  114SAPE  H14Y11985   4.368   4.291   4.717  0.8300 -1.2676  1.6281
  114SAPE  C31511986   4.234   4.444   4.709  0.2254 -0.2197 -0.9672
  114SAPE  H15X11987   4.224   4.468   4.601  5.2217 -0.3379 -1.6957
  114SAPE  H15Y11988   4.221   4.539   4.764  1.2083 -1.4234  1.5225
  114SAPE  C31611989   4.124   4.352   4.760  0.0197 -0.1322  0.3899
  114SAPE  H16X11990   4.120   4.352   4.871  0.6406  1.8684  0.4591
  114SAPE  H16Y11991   4.147   4.250   4.723 -0.3954  0.3592 -1.3130
  114SAPE  C31711992   3.996   4.405   4.692 -0.4783 -0.5242 -0.2932
  114SAPE  H17X11993   4.017   4.505   4.649  1.0638 -0.3213  0.8559
  114SAPE  H17Y11994   3.915   4.418   4.766  0.9859  0.6589  1.1677
  114SAPE  C31811995   3.953   4.316   4.577 -0.3966  0.2556 -0.3903
  114SAPE  H18X11996   4.031   4.322   4.497 -2.4079  0.1529 -2.4774
  114SAPE  H18Y11997   3.857   4.354   4.537 -0.1229  2.1605  0.6589
  114SAPE  H18Z11998   3.941   4.212   4.614  0.4755 -0.7494 -2.7345
  115SAPE     N11999   0.750   4.243   2.424 -0.3361  0.0622 -0.2487
  115SAPE   HN112000   0.745   4.146   2.460  1.9276  0.4038  1.1424
  115SAPE   HN212001   0.686   4.266   2.345  2.2192  1.8880 -1.9399
  115SAPE   HN312002   0.846   4.265   2.392  0.7218 -2.2439  1.0665
  115SAPE   C1212003   0.711   4.327   2.545  0.3865  0.1832 -0.5287
  115SAPE  H12A12004   0.619   4.278   2.585 -1.6165  2.0119 -2.5515
  115SAPE  H12B12005   0.671   4.423   2.505  0.7415 -0.7469 -3.3520
  115SAPE   C1112006   0.827   4.333   2.649 -0.8842  0.5722  0.1537
  115SAPE  H11A12007   0.866   4.229   2.661  1.1575  1.2452 -0.2720
  115SAPE  H11B12008   0.787   4.363   2.748 -2.1913 -2.2503  0.5915
  115SAPE     P12009   0.947   4.563   2.644 -0.2308  0.0268  0.0192
  115SAPE   O1312010   1.073   4.605   2.590 -0.2781 -0.5063 -0.5478
  115SAPE   O1412011   0.828   4.637   2.592 -0.5104  0.2904  0.2669
  115SAPE   O1212012   0.931   4.408   2.603 -0.6837  0.8273 -0.0519
  115SAPE   O1112013   0.942   4.564   2.800  0.2927 -0.7677  0.3184
  115SAPE    C112014   1.043   4.498   2.872  0.5292 -0.5850  0.2877
  115SAPE    HA12015   1.022   4.390   2.886 -0.6229 -0.7226 -2.1126
  115SAPE    HB12016   1.142   4.511   2.824  1.3794  0.3845  2.1753
  115SAPE    C212017   1.065   4.553   3.015  0.1216 -0.4378 -0.1206
  115SAPE    HS12018   1.096   4.478   3.090 -2.6288 -0.0989  1.4881
  115SAPE   O2112019   0.944   4.607   3.069 -0.1112  0.0772  0.3331
  115SAPE   C2112020   0.844   4.520   3.086 -0.4917  0.0531  0.0249
  115SAPE   O2212021   0.841   4.406   3.050 -0.5366  0.3091 -0.1570
  115SAPE   C2212022   0.726   4.600   3.133 -0.3275  0.1726 -0.6986
  115SAPE   H2R12023   0.760   4.706   3.141 -1.0127  0.3419  0.1278
  115SAPE   H2S12024   0.658   4.601   3.045  0.1294  0.7307 -1.0567
  115SAPE    C312025   1.177   4.659   3.013  0.6445 -0.3614 -0.3663
  115SAPE    HX12026   1.140   4.741   2.947 -2.8152 -0.9320  0.6665
  115SAPE    HY12027   1.273   4.621   2.973  1.8192  1.6369  0.3857
  115SAPE   O3112028   1.200   4.690   3.152  0.4559 -0.2955 -0.1785
  115SAPE   C3112029   1.138   4.800   3.198 -0.3079  0.0539 -0.3685
  115SAPE   O3212030   1.074   4.876   3.127 -0.4300 -0.3389  0.0700
  115SAPE   C3212031   1.155   4.820   3.346  0.1436 -0.7348 -0.0255
  115SAPE   H2X12032   1.105   4.916   3.370  1.2391 -0.0588 -0.3563
  115SAPE   H2Y12033   1.263   4.827   3.371  0.4935  0.1418 -1.6503
  115SAPE   C2312034   0.683   4.538   3.272  0.4558  0.4150  0.0294
  115SAPE   H3R12035   0.765   4.534   3.347  0.4364 -2.7336  0.0272
  115SAPE   H3S12036   0.660   4.432   3.249  1.4639  0.6421 -2.3267
  115SAPE   C2412037   0.566   4.614   3.342  0.3614 -0.1917 -0.0906
  115SAPE   H4R12038   0.489   4.634   3.265  1.0560 -0.0452 -0.7576
  115SAPE   H4S12039   0.608   4.713   3.368  0.1299 -0.3571  0.9728
  115SAPE   C2512040   0.516   4.530   3.457  0.2442 -1.5829  0.9411
  115SAPE   H5R12041   0.453   4.444   3.429 -1.2228 -0.3299  0.2913
  115SAPE   C2612042   0.548   4.539   3.587 -0.0178 -0.5694 -0.0560
  115SAPE   H6R12043   0.516   4.457   3.652  0.5544 -0.0636  0.8789
  115SAPE   C2712044   0.629   4.647   3.656  0.3151 -0.2946  0.7817
  115SAPE   H7R12045   0.570   4.741   3.661  0.7664  0.0822 -0.5436
  115SAPE   H7S12046   0.712   4.665   3.584 -0.3604  0.6286  0.2208
  115SAPE   C2812047   0.688   4.613   3.788  0.5287  0.2594  0.1387
  115SAPE   H8R12048   0.739   4.516   3.787 -1.8049 -1.0164 -0.9847
  115SAPE   C2912049   0.696   4.676   3.909 -0.3221 -0.5107  0.0988
  115SAPE   H9R12050   0.734   4.624   3.998 -0.2854 -0.5736  0.0457
  115SAPE  C21012051   0.644   4.818   3.939 -0.0649 -0.1892  0.0210
  115SAPE  H10R12052   0.604   4.870   3.849 -1.4945 -2.3061 -0.6488
  115SAPE  H10S12053   0.726   4.884   3.975  1.5381 -1.5843 -0.9179
  115SAPE  C21112054   0.531   4.790   4.042  0.2391  0.0784 -0.5099
  115SAPE  H11R12055   0.444   4.745   3.992 -1.6490 -0.0896  2.6633
  115SAPE  C21212056   0.535   4.815   4.177  0.0320 -0.1847  0.6302
  115SAPE  H12R12057   0.445   4.786   4.232 -0.9925 -0.3002 -1.0387
  115SAPE  C21312058   0.643   4.891   4.255  0.1989 -0.2475  0.8716
  115SAPE  H13R12059   0.613   4.995   4.278  2.2232  0.9396 -1.4179
  115SAPE  H13S12060   0.731   4.903   4.188  0.2333  1.2123  1.1592
  115SAPE  C21412061   0.672   4.811   4.375 -0.3396 -0.4024  0.1673
  115SAPE  H14R12062   0.739   4.725   4.361 -0.2695 -0.0998 -1.5527
  115SAPE  C21512063   0.617   4.827   4.496  0.1239  0.1550 -0.0084
  115SAPE  H15R12064   0.639   4.736   4.553  1.9901 -1.7995 -3.5096
  115SAPE  C21612065   0.522   4.931   4.546  0.3384 -0.7856  0.2800
  115SAPE  H16R12066   0.466   4.972   4.459 -2.3606 -0.9202  1.8554
  115SAPE  H16S12067   0.576   5.021   4.581  0.5151 -0.1250 -1.5475
  115SAPE  C21712068   0.428   4.882   4.658 -0.1204 -0.6989 -0.1467
  115SAPE  H17R12069   0.359   4.807   4.613 -1.0490  1.2694 -2.2144
  115SAPE  H17S12070   0.360   4.965   4.687 -0.9991 -1.5106  0.1663
  115SAPE  C21812071   0.477   4.835   4.796  0.4056  0.2131  0.0169
  115SAPE  H18R12072   0.518   4.733   4.785  3.1076  1.1992  0.0638
  115SAPE  H18S12073   0.387   4.830   4.860  1.7392  1.0995  2.0548
  115SAPE  C21912074   0.585   4.924   4.847 -0.5671 -0.0517  0.1726
  115SAPE  H19R12075   0.545   5.026   4.860 -0.3856  0.3363 -2.0116
  115SAPE  H19S12076   0.674   4.931   4.781 -0.0286  1.7133  1.0143
  115SAPE  C22012077   0.632   4.873   4.982 -0.2659 -0.1610  0.5894
  115SAPE  H20R12078   0.557   4.898   5.059 -0.3043  1.4283  0.0555
  115SAPE  H20S12079   0.716   4.940   5.010 -1.6200  0.9734  2.1211
  115SAPE  H20T12080   0.661   4.765   4.980  1.3272  0.2097  1.5396
  115SAPE   C3312081   1.094   4.704   3.440  0.4013 -0.4477  0.0101
  115SAPE   H3X12082   1.128   4.601   3.418 -1.0534 -1.6624  2.9825
  115SAPE   H3Y12083   0.984   4.705   3.429  0.3220 -2.2779  0.2991
  115SAPE   C3412084   1.107   4.732   3.592 -0.1140 -0.0467 -0.3073
  115SAPE   H4X12085   1.101   4.628   3.632  4.1191 -0.7660 -1.0740
  115SAPE   H4Y12086   1.025   4.783   3.647  1.2805  0.7591  1.1033
  115SAPE   C3512087   1.250   4.777   3.631  0.4339 -0.8989 -0.1173
  115SAPE   H5X12088   1.262   4.887   3.616 -0.2842 -0.7303  0.5102
  115SAPE   H5Y12089   1.330   4.713   3.586  0.3723 -2.2601  1.6398
  115SAPE   C3612090   1.263   4.774   3.785 -0.0416  0.1711  0.4573
  115SAPE   H6X12091   1.369   4.789   3.817 -0.2916  1.1443  0.8494
  115SAPE   H6Y12092   1.238   4.675   3.828 -0.8397  0.4571  0.6616
  115SAPE   C3712093   1.179   4.879   3.861  0.7504  0.0553  0.1034
  115SAPE   H7X12094   1.071   4.854   3.856  1.0114 -0.9478 -1.0759
  115SAPE   H7Y12095   1.191   4.982   3.820 -1.4949  0.0630 -0.6721
  115SAPE   C3812096   1.231   4.899   4.000 -0.5393  0.8192  0.5768
  115SAPE   H8X12097   1.330   4.948   4.011  0.3135  0.4359 -3.6168
  115SAPE   H8Y12098   1.247   4.797   4.042  1.0035  0.0857 -1.5729
  115SAPE   C3912099   1.131   4.971   4.084 -1.0994 -0.2782 -0.7108
  115SAPE   H9X12100   1.033   4.918   4.080 -2.3145  1.4458  2.6339
  115SAPE   H9Y12101   1.134   5.066   4.025  1.0158 -0.1721 -0.4979
  115SAPE  C31012102   1.177   5.010   4.222  0.1662 -0.0083 -0.6184
  115SAPE  H10X12103   1.262   5.081   4.222 -0.9411  1.3723 -0.9971
  115SAPE  H10Y12104   1.220   4.918   4.268 -0.6518 -0.5510 -0.9210
  115SAPE  C31112105   1.047   5.061   4.293 -0.1012  0.5853 -0.0773
  115SAPE  H11X12106   0.977   4.975   4.283  1.2133 -0.8077  1.9258
  115SAPE  H11Y12107   1.009   5.156   4.249  0.2794  1.0753  0.6355
  115SAPE  C31212108   1.069   5.084   4.440  0.8119 -0.4546 -0.7519
  115SAPE  H12X12109   1.124   5.179   4.462  0.6145 -0.5493  0.1895
  115SAPE  H12Y12110   1.128   4.997   4.476 -0.7853 -1.0818  0.4515
  115SAPE  C31312111   0.934   5.080   4.521 -0.5922 -0.9220 -0.3526
  115SAPE  H13X12112   0.846   5.033   4.473 -0.9033 -0.3030 -0.3982
  115SAPE  H13Y12113   0.901   5.185   4.533 -2.4691 -1.5763  0.7323
  115SAPE  C31412114   0.945   5.023   4.662 -0.0152 -0.0301  0.1756
  115SAPE  H14X12115   0.979   4.917   4.657 -0.5531 -0.2309  0.6333
  115SAPE  H14Y12116   0.840   5.022   4.698  0.3282  2.3785  1.4664
  115SAPE  C31512117   1.017   5.124   4.747 -0.0794  0.0521  0.3641
  115SAPE  H15X12118   0.970   5.224   4.737  3.0532  1.5530 -0.9092
  115SAPE  H15Y12119   1.119   5.133   4.703 -0.0869  1.2237  0.5416
  115SAPE  C31612120   1.028   5.092   4.902  0.4510  0.0121  0.0633
  115SAPE  H16X12121   0.921   5.087   4.933  0.7208  3.5659  2.1383
  115SAPE  H16Y12122   1.078   5.178   4.952  1.1158 -1.7939  2.7236
  115SAPE  C31712123   1.095   4.970   4.957 -0.2081  0.1096  0.0535
  115SAPE  H17X12124   1.052   4.874   4.920  0.3857  0.3760 -1.4044
  115SAPE  H17Y12125   1.079   4.985   5.066 -0.0199  1.2777 -0.0704
  115SAPE  C31812126   1.244   4.971   4.925  0.0862  0.1437 -0.0758
  115SAPE  H18X12127   1.285   4.953   4.823  0.3895  0.9105 -0.0964
  115SAPE  H18Y12128   1.294   4.888   4.978 -0.6798  0.1790  0.7371
  115SAPE  H18Z12129   1.298   5.062   4.960  0.7991 -0.4602  0.4111
  116SAPE     N12130   0.406   5.093   2.686  0.0870  0.6546 -0.1719
  116SAPE   HN112131   0.440   4.997   2.708  0.9084 -0.1349 -4.0798
  116SAPE   HN212132   0.392   5.092   2.583 -0.1177 -1.4837 -0.1757
  116SAPE   HN312133   0.494   5.147   2.698  1.3619 -1.3004 -0.2725
  116SAPE   C1212134   0.293   5.155   2.775  0.2543  0.5546  0.2479
  116SAPE  H12A12135   0.309   5.117   2.878 -2.4697 -0.9553  0.1949
  116SAPE  H12B12136   0.196   5.119   2.735  0.2254  1.9399 -1.0159
  116SAPE   C1112137   0.290   5.309   2.767  0.4064 -0.1299  0.1061
  116SAPE  H11A12138   0.205   5.345   2.829 -0.7775 -0.3083 -1.3530
  116SAPE  H11B12139   0.268   5.340   2.663 -1.3162  0.6457  0.6688
  116SAPE     P12140   0.455   5.506   2.783  0.6133  0.1387  0.2340
  116SAPE   O1312141   0.580   5.552   2.847  0.0334 -0.4043 -0.0308
  116SAPE   O1412142   0.443   5.541   2.639  0.6358  0.3772  0.1373
  116SAPE   O1212143   0.426   5.350   2.800  0.8408 -0.3214  0.2765
  116SAPE   O1112144   0.330   5.572   2.861 -0.3548  0.2824  0.1233
  116SAPE    C112145   0.356   5.639   2.985  0.7747  0.6452  0.0336
  116SAPE    HA12146   0.437   5.716   2.986  1.7177 -0.2839  2.1249
  116SAPE    HB12147   0.268   5.700   3.015 -0.6831 -2.7643  3.4436
  116SAPE    C212148   0.374   5.552   3.116 -0.1826  0.2463  0.1894
  116SAPE    HS12149   0.346   5.610   3.206 -1.6901 -0.2161  0.0565
  116SAPE   O2112150   0.504   5.493   3.134  0.6741  0.0835 -0.7937
  116SAPE   C2112151   0.590   5.585   3.179  0.3109 -0.2374 -0.0895
  116SAPE   O2212152   0.561   5.706   3.202 -0.3989  0.3445  0.6164
  116SAPE   C2212153   0.734   5.527   3.208 -0.0598  0.1589 -0.0446
  116SAPE   H2R12154   0.753   5.419   3.187 -1.3243  0.3250 -2.3742
  116SAPE   H2S12155   0.805   5.571   3.134 -0.2725  2.0760  0.8569
  116SAPE    C312156   0.280   5.430   3.119  0.1060 -0.5369  0.6521
  116SAPE    HX12157   0.319   5.358   3.044  0.0289  1.8357 -1.7996
  116SAPE    HY12158   0.178   5.459   3.085  0.2749  0.1757  0.7438
  116SAPE   O3112159   0.276   5.391   3.255 -0.5599 -0.0717 -0.3636
  116SAPE   C3112160   0.218   5.281   3.282  0.0071 -0.2965 -0.5420
  116SAPE   O3212161   0.158   5.205   3.205 -0.5433  0.1631  0.1555
  116SAPE   C3212162   0.219   5.255   3.434  0.4734  0.5939  0.0219
  116SAPE   H2X12163   0.126   5.199   3.459 -0.3380  1.9446  0.1255
  116SAPE   H2Y12164   0.207   5.353   3.485  2.9471  0.8859  0.1687
  116SAPE   C2312165   0.775   5.574   3.349 -0.0015 -0.0628  0.2624
  116SAPE   H3R12166   0.755   5.681   3.368 -1.6781  0.2416 -2.5932
  116SAPE   H3S12167   0.885   5.559   3.351  0.1782  1.0193  3.0462
  116SAPE   C2412168   0.717   5.490   3.459  0.4929  0.1066  0.1598
  116SAPE   H4R12169   0.729   5.388   3.416  1.5493  1.1742 -2.2399
  116SAPE   H4S12170   0.608   5.509   3.465  0.4235 -0.6594  2.4714
  116SAPE   C2512171   0.787   5.508   3.593 -0.1477 -0.3442 -0.5224
  116SAPE   H5R12172   0.875   5.445   3.614  0.8994  1.3085  0.2476
  116SAPE   C2612173   0.747   5.585   3.694 -0.5257  0.0952 -0.0785
  116SAPE   H6R12174   0.811   5.593   3.783 -1.5211  2.1496  0.5320
  116SAPE   C2712175   0.626   5.671   3.689  0.6964 -0.5042  0.3961
  116SAPE   H7R12176   0.547   5.640   3.762 -0.2625  1.1824  0.1186
  116SAPE   H7S12177   0.572   5.676   3.592 -1.3588 -0.9738  1.4539
  116SAPE   C2812178   0.664   5.812   3.719  0.8560 -0.6832 -0.3972
  116SAPE   H8R12179   0.709   5.867   3.635  0.5101  0.5663  0.2192
  116SAPE   C2912180   0.660   5.873   3.843  0.2803  0.0723  0.3874
  116SAPE   H9R12181   0.694   5.978   3.848  1.4230 -0.3220  1.4203
  116SAPE  C21012182   0.615   5.815   3.971  0.5660 -0.0639  0.0750
  116SAPE  H10R12183   0.546   5.729   3.957 -0.0128  0.4067 -0.0209
  116SAPE  H10S12184   0.555   5.888   4.029 -0.5797 -1.2224  0.3947
  116SAPE  C21112185   0.735   5.756   4.052  0.2403 -0.5861 -0.4346
  116SAPE  H11R12186   0.801   5.686   4.000  1.0943  1.7190 -2.6842
  116SAPE  C21212187   0.756   5.778   4.183 -0.0680 -0.2086  0.4085
  116SAPE  H12R12188   0.846   5.732   4.226 -0.1223  1.3153  2.2620
  116SAPE  C21312189   0.685   5.870   4.280  0.1187 -0.7985 -0.2108
  116SAPE  H13R12190   0.643   5.961   4.232  0.0540  0.1448  1.5826
  116SAPE  H13S12191   0.754   5.913   4.356 -0.4982  1.6142 -0.9306
  116SAPE  C21412192   0.572   5.794   4.342 -0.1237  0.2639 -0.3975
  116SAPE  H14R12193   0.487   5.770   4.275  0.2069 -0.7079 -0.4884
  116SAPE  C21512194   0.571   5.739   4.466 -0.1301  0.0319 -0.1441
  116SAPE  H15R12195   0.494   5.668   4.500  2.4747 -1.9212  2.1336
  116SAPE  C21612196   0.673   5.756   4.577  0.1786  0.2226  0.5929
  116SAPE  H16R12197   0.621   5.775   4.673 -2.1376 -0.5766 -0.4460
  116SAPE  H16S12198   0.750   5.835   4.565  2.5297 -2.0438 -0.1491
  116SAPE  C21712199   0.753   5.628   4.603 -0.1490  0.3467  0.3177
  116SAPE  H17R12200   0.835   5.670   4.664  0.1754 -1.0910  0.9230
  116SAPE  H17S12201   0.800   5.573   4.518  1.4623 -0.6390  1.8005
  116SAPE  C21812202   0.671   5.528   4.690  0.5183 -0.4581 -0.2693
  116SAPE  H18R12203   0.608   5.459   4.629 -1.0699  0.7908 -0.1024
  116SAPE  H18S12204   0.603   5.583   4.758 -0.1335 -0.4328 -0.9221
  116SAPE  C21912205   0.772   5.445   4.777  0.2545 -0.4513 -0.1139
  116SAPE  H19R12206   0.840   5.514   4.831 -1.3028  0.2525  1.0092
  116SAPE  H19S12207   0.824   5.383   4.700 -0.7746 -0.2545 -0.9870
  116SAPE  C22012208   0.718   5.348   4.881 -0.3565  0.0766  0.1022
  116SAPE  H20R12209   0.650   5.272   4.836 -0.5009 -0.3270  0.9979
  116SAPE  H20S12210   0.666   5.401   4.963 -1.4869 -3.0338  1.5531
  116SAPE  H20T12211   0.804   5.294   4.926 -1.3115  0.0469  1.9798
  116SAPE   C3312212   0.347   5.206   3.494  0.4035 -0.3417  0.3268
  116SAPE   H3X12213   0.420   5.289   3.488 -1.3510  1.4255  1.9368
  116SAPE   H3Y12214   0.377   5.116   3.436  0.9536  1.8241 -3.0343
  116SAPE   C3412215   0.337   5.176   3.645  0.3802 -0.3013  0.0630
  116SAPE   H4X12216   0.431   5.138   3.690 -0.4382  0.2430  2.3789
  116SAPE   H4Y12217   0.263   5.093   3.652  0.7252 -0.6078  0.0818
  116SAPE   C3512218   0.291   5.296   3.723  0.3427 -0.3401  0.4610
  116SAPE   H5X12219   0.196   5.341   3.689 -0.1454 -1.6551  0.0267
  116SAPE   H5Y12220   0.370   5.374   3.723  0.7997 -0.7948 -0.0453
  116SAPE   C3612221   0.257   5.275   3.873  0.2613  0.9292 -0.1195
  116SAPE   H6X12222   0.224   5.169   3.877 -1.9481  1.6157  1.4946
  116SAPE   H6Y12223   0.170   5.333   3.910 -0.8681 -0.4411 -0.5339
  116SAPE   C3712224   0.387   5.282   3.962  0.3139 -0.0100  0.3616
  116SAPE   H7X12225   0.435   5.382   3.952 -0.2445  0.5223  2.4738
  116SAPE   H7Y12226   0.449   5.202   3.917  0.2373  1.3232 -2.3081
  116SAPE   C3812227   0.356   5.241   4.109  0.5389 -0.1336 -0.0145
  116SAPE   H8X12228   0.445   5.189   4.149 -1.2176 -0.0078  4.7089
  116SAPE   H8Y12229   0.271   5.170   4.112  0.1392  0.3521  2.7396
  116SAPE   C3912230   0.331   5.363   4.209  0.3770  0.2418  0.3813
  116SAPE   H9X12231   0.246   5.419   4.165  0.3746 -1.2463 -1.6577
  116SAPE   H9Y12232   0.421   5.428   4.207  2.0690 -1.9543  0.9878
  116SAPE  C31012233   0.313   5.311   4.350 -0.1843 -0.4223  0.4418
  116SAPE  H10X12234   0.337   5.393   4.420 -0.8584 -1.7481  2.2996
  116SAPE  H10Y12235   0.380   5.228   4.382 -0.4068 -0.1828  1.5616
  116SAPE  C31112236   0.163   5.289   4.398  0.0650 -0.6527  0.4029
  116SAPE  H11X12237   0.115   5.220   4.327 -0.4933  2.5133 -2.5773
  116SAPE  H11Y12238   0.108   5.386   4.400  0.3384 -0.3746 -2.1480
  116SAPE  C31212239   0.170   5.229   4.542 -0.1205  0.3970  0.6703
  116SAPE  H12X12240   0.234   5.138   4.548  1.1195  1.3067  1.8030
  116SAPE  H12Y12241   0.069   5.195   4.573 -0.6061  0.6057 -0.6143
  116SAPE  C31312242   0.230   5.324   4.649 -0.1185  0.2898 -0.5725
  116SAPE  H13X12243   0.187   5.423   4.623  0.2601  0.4841 -0.4693
  116SAPE  H13Y12244   0.340   5.337   4.643 -0.2243  2.3816  0.9596
  116SAPE  C31412245   0.185   5.293   4.790  0.7962 -0.3287 -0.2584
  116SAPE  H14X12246   0.075   5.308   4.788  0.6674 -1.2322 -2.6285
  116SAPE  H14Y12247   0.232   5.373   4.851 -1.2081  2.0870 -1.6575
  116SAPE  C31512248   0.232   5.151   4.849 -0.4892 -0.7548  0.0657
  116SAPE  H15X12249   0.343   5.152   4.848 -0.4761  1.1685  0.1231
  116SAPE  H15Y12250   0.204   5.071   4.778  1.2397 -0.5405 -0.9343
  116SAPE  C31612251   0.186   5.133   4.995  0.0764 -0.4793  0.4219
  116SAPE  H16X12252   0.078   5.107   5.004  0.0962 -0.5693  0.3983
  116SAPE  H16Y12253   0.193   5.236   5.038 -1.8102  0.9859 -2.4653
  116SAPE  C31712254   0.278   5.042   5.066 -0.2908 -0.2459 -0.9396
  116SAPE  H17X12255   0.380   5.079   5.040 -0.2605  0.6533  0.3524
  116SAPE  H17Y12256   0.271   4.935   5.038  2.1832 -0.6899 -0.1543
  116SAPE  C31812257   0.260   5.033   5.219 -0.0236 -0.3263  0.6011
  116SAPE  H18X12258   0.228   5.135   5.250 -0.0526  0.1815 -1.0180
  116SAPE  H18Y12259   0.353   4.989   5.261  0.6842 -1.0408 -1.5638
  116SAPE  H18Z12260   0.176   4.962   5.237 -2.1638  1.8900 -0.0860
  117SOPE     N12261   2.825   1.775   7.176  0.2086  0.3071 -0.0953
  117SOPE   HN112262   2.770   1.862   7.159  0.2455  0.4745  0.6231
  117SOPE   HN212263   2.852   1.744   7.081  2.4965 -1.0432  0.9237
  117SOPE   HN312264   2.763   1.708   7.227 -0.2412  0.9132  0.1706
  117SOPE   C1212265   2.965   1.801   7.229 -0.2521  0.4509 -0.5348
  117SOPE  H12A12266   3.019   1.704   7.240 -0.9186  0.2440  1.3251
  117SOPE  H12B12267   2.947   1.843   7.330 -2.8273 -1.0523 -0.2961
  117SOPE   C1112268   3.039   1.908   7.148 -0.3163  0.4099 -0.2688
  117SOPE  H11A12269   3.056   1.874   7.044  0.2560  1.4774 -0.5396
  117SOPE  H11B12270   3.140   1.912   7.195  0.1847  0.1412 -1.2935
  117SOPE     P12271   2.986   2.153   7.058  0.1738 -0.3397 -0.0909
  117SOPE   O1312272   3.045   2.268   7.129  0.4702 -0.5497 -0.5013
  117SOPE   O1412273   2.854   2.180   7.000 -0.4244 -0.7031 -0.0687
  117SOPE   O1212274   2.966   2.032   7.153  0.1221 -0.4206  0.7736
  117SOPE   O1112275   3.098   2.100   6.964 -0.5061 -0.2385  0.7151
  117SOPE    C112276   3.132   2.180   6.850  0.4002  0.7762 -0.1122
  117SOPE    HA12277   3.205   2.256   6.887  0.9472 -0.4540  1.4403
  117SOPE    HB12278   3.042   2.228   6.808  0.8835  0.5902 -1.4046
  117SOPE    C212279   3.192   2.077   6.745  0.1814 -0.1726 -0.4936
  117SOPE    HS12280   3.302   2.093   6.748  0.3562 -1.3034 -0.4465
  117SOPE   O2112281   3.145   2.113   6.615 -0.7426  0.4888  0.0652
  117SOPE   C2112282   3.197   2.217   6.554 -0.2210 -0.2753 -0.2490
  117SOPE   O2212283   3.291   2.278   6.599  0.5433  0.1720 -0.4890
  117SOPE   C2212284   3.122   2.235   6.419  0.2905 -0.0057 -0.2924
  117SOPE   H2R12285   3.014   2.208   6.427  0.2299 -0.0933 -1.3153
  117SOPE   H2S12286   3.169   2.162   6.350 -0.7970  0.2046 -1.2954
  117SOPE    C312287   3.175   1.927   6.786 -0.1847  0.0978  0.3961
  117SOPE    HX12288   3.068   1.896   6.788 -0.2435  0.2198 -0.4498
  117SOPE    HY12289   3.225   1.927   6.885 -1.5128 -1.8878  1.1436
  117SOPE   O3112290   3.261   1.834   6.714  0.5856  0.3746 -0.4889
  117SOPE   C3112291   3.200   1.730   6.657 -0.0882 -0.0199 -0.6169
  117SOPE   O3212292   3.082   1.692   6.661 -0.0668  0.4819  0.1348
  117SOPE   C3212293   3.311   1.646   6.600 -0.5247 -0.1876  0.0719
  117SOPE   H2X12294   3.379   1.610   6.680  1.1973  0.7258 -0.9035
  117SOPE   H2Y12295   3.370   1.715   6.536 -0.0337 -0.5569  0.1226
  117SOPE   C2312296   3.141   2.375   6.349 -0.1837  0.7828 -0.5824
  117SOPE   H3R12297   3.236   2.414   6.390 -0.7593 -0.8767  2.6546
  117SOPE   H3S12298   3.056   2.439   6.382 -1.8000 -0.9593 -1.1738
  117SOPE   C2412299   3.136   2.367   6.190 -0.7471  0.2596 -0.8369
  117SOPE   H4R12300   3.209   2.286   6.168 -0.3518 -0.6205  2.9733
  117SOPE   H4S12301   3.033   2.343   6.154 -0.2847 -0.8882 -1.4558
  117SOPE   C2512302   3.178   2.492   6.117  0.3724  0.1919  0.4095
  117SOPE   H5R12303   3.105   2.570   6.147  0.3391  0.1826  0.3540
  117SOPE   H5S12304   3.278   2.528   6.148  0.5136 -0.8316  1.2134
  117SOPE   C2612305   3.169   2.462   5.970 -0.0007  0.7522 -0.1969
  117SOPE   H6R12306   3.238   2.379   5.944 -0.7488 -0.6244  1.9127
  117SOPE   H6S12307   3.075   2.407   5.949 -0.8427  1.9020  0.4662
  117SOPE   C2712308   3.174   2.574   5.869  0.5457 -0.4528 -0.1788
  117SOPE   H7R12309   3.102   2.657   5.887  2.1094  1.0476 -0.5662
  117SOPE   H7S12310   3.267   2.632   5.886 -0.5017  1.2602 -0.0345
  117SOPE   C2812311   3.163   2.544   5.716 -0.8243  0.8355 -0.1458
  117SOPE   H8R12312   3.172   2.633   5.649 -0.7172 -0.0507 -1.3367
  117SOPE   H8S12313   3.253   2.481   5.700 -0.6241  1.3583 -1.1689
  117SOPE   C2912314   3.038   2.475   5.677  0.0608 -0.0191 -0.1363
  117SOPE   H9112315   2.941   2.525   5.695  0.8203  0.7470  2.1827
  117SOPE  C21012316   3.031   2.356   5.615 -0.4329  0.4177 -0.0806
  117SOPE  H10112317   2.926   2.327   5.598 -0.5316  0.5441  0.3048
  117SOPE  C21112318   3.143   2.278   5.550 -0.2575 -0.5026  0.3092
  117SOPE  H11R12319   3.111   2.172   5.543  0.9018 -0.8422  0.0289
  117SOPE  H11S12320   3.239   2.286   5.604 -1.3126  0.1011  2.1867
  117SOPE  C21212321   3.179   2.312   5.406  0.1598  0.1675 -0.8312
  117SOPE  H12R12322   3.278   2.268   5.383 -0.5827 -1.8485 -0.4576
  117SOPE  H12S12323   3.196   2.421   5.393  1.7260  0.0334 -0.0939
  117SOPE  C21312324   3.089   2.243   5.306 -0.3344  0.6345 -0.2451
  117SOPE  H13R12325   2.984   2.278   5.314 -0.9008 -0.4998 -2.1585
  117SOPE  H13S12326   3.077   2.134   5.323  0.0495  0.3364 -1.7367
  117SOPE  C21412327   3.151   2.232   5.167 -0.5675 -0.9039 -0.0529
  117SOPE  H14R12328   3.245   2.174   5.173  0.6816  1.0070 -0.2379
  117SOPE  H14S12329   3.174   2.336   5.135 -0.9722 -0.8466 -0.1651
  117SOPE  C21512330   3.056   2.163   5.066 -0.2016  0.8790  0.4801
  117SOPE  H15R12331   3.082   2.200   4.965 -4.0240 -3.0932 -2.3057
  117SOPE  H15S12332   2.949   2.185   5.082 -0.3042 -0.2167  1.4294
  117SOPE  C21612333   3.074   2.010   5.061 -0.3564 -0.5949 -0.0126
  117SOPE  H16R12334   3.016   1.962   5.143  0.0603 -1.8973 -0.4546
  117SOPE  H16S12335   3.180   1.979   5.074 -0.6671 -0.7694  2.6751
  117SOPE  C21712336   3.023   1.965   4.924  0.0980 -0.7348  0.3830
  117SOPE  H17R12337   3.084   2.015   4.845 -0.6876  0.4538  0.5086
  117SOPE  H17S12338   2.921   2.006   4.915  0.3567 -0.5217 -2.3747
  117SOPE  C21812339   2.998   1.817   4.894  0.0808 -0.1083 -0.0704
  117SOPE  H18R12340   2.970   1.801   4.787 -0.0120  1.0926 -0.2392
  117SOPE  H18S12341   2.926   1.779   4.969  0.5535 -0.1467  0.3663
  117SOPE  H18T12342   3.091   1.756   4.904  0.8605  0.9534 -0.6165
  117SOPE   C3312343   3.246   1.521   6.526 -0.9420 -0.1169 -0.6925
  117SOPE   H3X12344   3.168   1.553   6.455 -0.9342  0.3908 -0.4756
  117SOPE   H3Y12345   3.214   1.453   6.608  0.8808  0.7951  0.8831
  117SOPE   C3412346   3.351   1.453   6.440  0.6765 -0.7668  0.3819
  117SOPE   H4X12347   3.315   1.351   6.415  0.4086  0.2167 -4.1682
  117SOPE   H4Y12348   3.449   1.463   6.491  1.7933  2.6790 -2.0671
  117SOPE   C3512349   3.359   1.529   6.303  0.0109 -0.0139  0.6504
  117SOPE   H5X12350   3.390   1.636   6.305  2.6499 -0.7023 -0.0378
  117SOPE   H5Y12351   3.254   1.534   6.266 -0.1752 -2.5802  0.6378
  117SOPE   C3612352   3.442   1.452   6.196 -0.0232 -0.2890 -1.1825
  117SOPE   H6X12353   3.434   1.343   6.213 -0.9467  0.1250  1.5291
  117SOPE   H6Y12354   3.549   1.476   6.214  0.0019 -0.2966 -1.3157
  117SOPE   C3712355   3.429   1.490   6.043  0.0926 -0.2570  0.2425
  117SOPE   H7X12356   3.420   1.599   6.027  2.8514 -0.1071 -0.8851
  117SOPE   H7Y12357   3.343   1.441   5.993  0.2684 -0.6419  0.3073
  117SOPE   C3812358   3.551   1.445   5.956  0.5256  1.1003  0.2496
  117SOPE   H8X12359   3.572   1.338   5.976 -1.7804  0.7047  0.8783
  117SOPE   H8Y12360   3.641   1.507   5.977  0.5554  1.3200 -0.5113
  117SOPE   C3912361   3.534   1.477   5.805 -1.0603 -0.4949 -0.0772
  117SOPE   H9X12362   3.524   1.585   5.779 -0.4332 -0.1196  1.1495
  117SOPE   H9Y12363   3.432   1.440   5.779 -1.3179 -0.0314  0.2427
  117SOPE  C31012364   3.656   1.422   5.728  0.7388 -0.2411 -0.2467
  117SOPE  H10X12365   3.667   1.313   5.745 -0.8382 -0.1072  2.1815
  117SOPE  H10Y12366   3.749   1.470   5.765  2.5668 -0.5399 -4.0701
  117SOPE  C31112367   3.649   1.452   5.575 -0.2307 -0.5942 -0.0467
  117SOPE  H11X12368   3.660   1.562   5.558  0.7337 -0.3092  2.1640
  117SOPE  H11Y12369   3.550   1.415   5.541 -0.3756  1.0816 -1.6438
  117SOPE  C31212370   3.762   1.385   5.499 -0.0803  0.5736 -0.1087
  117SOPE  H12X12371   3.859   1.380   5.553 -1.3072  0.0071  2.1921
  117SOPE  H12Y12372   3.779   1.442   5.405 -2.7106  0.6505 -0.6194
  117SOPE  C31312373   3.731   1.237   5.456 -0.7813  0.8821 -0.2538
  117SOPE  H13X12374   3.653   1.227   5.378 -0.9407 -0.2676  0.0303
  117SOPE  H13Y12375   3.704   1.188   5.552 -0.7634 -1.7650 -1.5078
  117SOPE  C31412376   3.854   1.176   5.389 -0.0467  1.0260 -0.3430
  117SOPE  H14X12377   3.859   1.068   5.410  2.1691  1.6383  2.9825
  117SOPE  H14Y12378   3.945   1.222   5.434 -0.2580  0.7439  0.3828
  117SOPE  C31512379   3.836   1.221   5.248 -0.5727  0.4990  0.0596
  117SOPE  H15X12380   3.809   1.327   5.230 -1.7814 -0.1001 -1.9869
  117SOPE  H15Y12381   3.756   1.164   5.195 -0.4739  0.8639 -0.4900
  117SOPE  C31612382   3.967   1.191   5.175 -0.4485 -0.6829 -0.1016
  117SOPE  H16X12383   4.044   1.265   5.207 -1.5417  0.1769  0.6218
  117SOPE  H16Y12384   3.953   1.212   5.067  1.0184  0.5948 -0.0834
  117SOPE  C31712385   4.020   1.044   5.180 -0.1994 -0.0125 -0.3588
  117SOPE  H17X12386   4.047   1.013   5.283 -0.4344 -0.1246 -0.3296
  117SOPE  H17Y12387   4.110   1.035   5.116  0.3003  2.8762 -0.1907
  117SOPE  C31812388   3.915   0.940   5.140 -0.2710  0.1164 -0.2610
  117SOPE  H18X12389   3.811   0.962   5.172 -1.5941 -1.5842 -3.0228
  117SOPE  H18Y12390   3.945   0.841   5.178 -0.0950  0.2375 -0.0804
  117SOPE  H18Z12391   3.906   0.930   5.030  0.1281  1.8197 -0.4879
  118SOPE     N12392   2.417   2.686   7.504 -0.2369  0.0837  0.8550
  118SOPE   HN112393   2.411   2.692   7.608 -0.2264 -0.8177  0.9165
  118SOPE   HN212394   2.417   2.782   7.464 -0.9627  0.1159  0.9176
  118SOPE   HN312395   2.330   2.644   7.465  0.0434 -2.8561  3.0119
  118SOPE   C1212396   2.536   2.611   7.460 -0.1512 -1.0853  0.4233
  118SOPE  H12A12397   2.532   2.513   7.512 -1.5613 -0.1153  2.2427
  118SOPE  H12B12398   2.622   2.669   7.500 -1.2386 -0.0978  1.4177
  118SOPE   C1112399   2.552   2.596   7.309 -1.1891 -0.5974  0.3552
  118SOPE  H11A12400   2.483   2.515   7.275  2.7786 -4.2061  0.0321
  118SOPE  H11B12401   2.655   2.564   7.283 -1.0929  0.8213 -1.1476
  118SOPE     P12402   2.400   2.737   7.146  0.2306 -0.1742  0.3445
  118SOPE   O1312403   2.391   2.873   7.088 -0.2073 -0.0590 -0.6576
  118SOPE   O1412404   2.282   2.704   7.224 -0.3222 -0.1897  0.0751
  118SOPE   O1212405   2.536   2.718   7.232 -0.3567 -0.0354 -0.4474
  118SOPE   O1112406   2.404   2.638   7.020 -0.2872  0.0143 -0.1788
  118SOPE    C112407   2.494   2.656   6.911  0.4889  1.1045  1.0691
  118SOPE    HA12408   2.593   2.612   6.934  0.5454 -0.9401 -2.4660
  118SOPE    HB12409   2.517   2.761   6.882  3.0741  0.4188  0.4117
  118SOPE    C212410   2.427   2.594   6.777  0.0690 -0.3455 -0.3610
  118SOPE    HS12411   2.491   2.616   6.689 -0.7438  1.5989 -0.5211
  118SOPE   O2112412   2.294   2.642   6.761 -0.2304 -0.4366  0.0776
  118SOPE   C2112413   2.284   2.754   6.684 -0.2470 -0.1577 -0.1811
  118SOPE   O2212414   2.374   2.823   6.640 -0.4898  0.5657 -0.5961
  118SOPE   C2212415   2.136   2.788   6.664 -0.3658  0.8228 -0.5692
  118SOPE   H2R12416   2.133   2.898   6.677  0.7370  0.9857 -1.5183
  118SOPE   H2S12417   2.078   2.747   6.750  0.0149  1.4444 -0.0051
  118SOPE    C312418   2.424   2.441   6.791 -0.0992 -0.3969 -0.0835
  118SOPE    HX12419   2.385   2.411   6.890 -0.9119 -0.0259 -0.2770
  118SOPE    HY12420   2.529   2.406   6.790 -0.3573 -1.1816 -0.2277
  118SOPE   O3112421   2.353   2.383   6.680 -0.5994 -0.3575 -0.2965
  118SOPE   C3112422   2.249   2.323   6.716  0.0230 -0.0949  0.3125
  118SOPE   O3212423   2.187   2.330   6.822  0.0418 -0.3151  0.7465
  118SOPE   C3212424   2.190   2.229   6.601  0.2870 -0.0147 -0.1005
  118SOPE   H2X12425   2.079   2.228   6.610  0.3781 -1.4696  1.2369
  118SOPE   H2Y12426   2.232   2.130   6.625 -0.0947 -0.3857 -0.9067
  118SOPE   C2312427   2.072   2.743   6.532  0.0960  0.4795 -0.0799
  118SOPE   H3R12428   2.040   2.637   6.524  0.7979  0.2901 -0.4404
  118SOPE   H3S12429   2.148   2.764   6.454  0.2777  2.3049  0.5313
  118SOPE   C2412430   1.955   2.835   6.492 -0.2304 -0.1264  0.4269
  118SOPE   H4R12431   1.866   2.805   6.551 -0.3089  0.5119  0.6431
  118SOPE   H4S12432   1.981   2.937   6.526 -2.6876 -0.0370  2.3261
  118SOPE   C2512433   1.926   2.836   6.336 -0.6476 -0.1181 -0.9819
  118SOPE   H5R12434   1.840   2.906   6.323 -0.3231  0.9076  1.7990
  118SOPE   H5S12435   2.020   2.882   6.299 -0.5041  1.8468  1.5221
  118SOPE   C2612436   1.891   2.702   6.273 -0.0051  0.0484 -0.1869
  118SOPE   H6R12437   1.967   2.624   6.296  0.5383  0.8268  0.7582
  118SOPE   H6S12438   1.793   2.676   6.319 -1.0582  2.5044 -0.9365
  118SOPE   C2712439   1.885   2.705   6.113 -0.0435 -0.6390  0.4062
  118SOPE   H7R12440   1.813   2.779   6.074  0.3317 -0.0976  0.7285
  118SOPE   H7S12441   1.987   2.734   6.080  0.1341 -1.8859 -0.2221
  118SOPE   C2812442   1.852   2.565   6.058 -0.4964  0.3068 -0.0428
  118SOPE   H8R12443   1.912   2.483   6.103 -1.2767  0.7683  1.9527
  118SOPE   H8S12444   1.751   2.542   6.098 -0.5524 -0.0380 -0.3778
  118SOPE   C2912445   1.843   2.566   5.906 -0.1599  0.5847  0.7659
  118SOPE   H9112446   1.773   2.644   5.870 -1.1828 -0.7001 -0.1335
  118SOPE  C21012447   1.876   2.464   5.824 -0.4842 -0.2193  0.5852
  118SOPE  H10112448   1.865   2.466   5.714  1.4428 -1.4065  0.3175
  118SOPE  C21112449   1.974   2.352   5.853  0.0393  0.1558 -0.0860
  118SOPE  H11R12450   1.925   2.258   5.886  0.7834  0.5535  2.3589
  118SOPE  H11S12451   2.044   2.378   5.935 -0.9484 -1.0295  1.1999
  118SOPE  C21212452   2.046   2.330   5.725  0.4395  0.1177  0.0209
  118SOPE  H12R12453   2.140   2.277   5.749  1.4019  0.8987 -1.8640
  118SOPE  H12S12454   2.074   2.427   5.679  2.1335 -0.4313 -0.1773
  118SOPE  C21312455   1.980   2.246   5.616  0.8592  0.8044 -0.0401
  118SOPE  H13R12456   1.870   2.263   5.609  1.0339  1.8642 -0.4221
  118SOPE  H13S12457   1.997   2.139   5.640  1.5822  0.5179 -1.7148
  118SOPE  C21412458   2.036   2.283   5.476 -0.4231  0.1498 -0.3563
  118SOPE  H14R12459   2.143   2.253   5.466 -0.3611 -0.2567  1.2846
  118SOPE  H14S12460   2.031   2.393   5.466 -3.7457  0.0151 -1.7433
  118SOPE  C21512461   1.955   2.228   5.361 -0.0051 -0.3343 -0.5278
  118SOPE  H15R12462   1.846   2.236   5.381 -1.1966 -0.8150 -5.5072
  118SOPE  H15S12463   1.972   2.120   5.344 -0.7003 -0.4344 -0.6010
  118SOPE  C21612464   1.963   2.310   5.234  0.3141 -0.3635 -0.1233
  118SOPE  H16R12465   2.015   2.403   5.266  1.9660 -1.6054  1.0182
  118SOPE  H16S12466   1.861   2.334   5.199 -0.2562 -1.9590  0.3567
  118SOPE  C21712467   2.051   2.263   5.114  0.8151  0.6118 -1.1170
  118SOPE  H17R12468   2.016   2.166   5.074 -0.2571  0.6167 -0.2206
  118SOPE  H17S12469   2.157   2.254   5.145  0.8772  1.4547 -1.0434
  118SOPE  C21812470   2.046   2.374   5.011 -0.5714  0.0373  0.2288
  118SOPE  H18R12471   2.091   2.466   5.054  2.4233 -1.7064  1.1564
  118SOPE  H18S12472   1.944   2.400   4.978 -1.0259 -0.0530  1.5182
  118SOPE  H18T12473   2.110   2.356   4.922  1.2578  0.8957  1.2988
  118SOPE   C3312474   2.226   2.262   6.456  0.1249  0.7272 -0.6739
  118SOPE   H3X12475   2.181   2.193   6.381 -1.2335 -0.7991  1.4482
  118SOPE   H3Y12476   2.335   2.258   6.436 -0.0163 -2.7649 -1.4004
  118SOPE   C3412477   2.184   2.402   6.409 -0.0244  0.1809 -0.0588
  118SOPE   H4X12478   2.199   2.473   6.493 -1.3030 -1.0672  1.2715
  118SOPE   H4Y12479   2.081   2.409   6.369  0.7410  1.3448 -1.9696
  118SOPE   C3512480   2.271   2.453   6.290  0.0862  0.3738  0.1321
  118SOPE   H5X12481   2.370   2.483   6.331 -1.3062 -0.2103  4.5086
  118SOPE   H5Y12482   2.227   2.539   6.237  2.5517  0.3762 -2.0890
  118SOPE   C3612483   2.293   2.357   6.169 -0.3628  0.7133  0.3314
  118SOPE   H6X12484   2.202   2.342   6.106 -0.0627  0.1836  0.0205
  118SOPE   H6Y12485   2.320   2.255   6.204 -1.2781 -0.4217 -2.0790
  118SOPE   C3712486   2.407   2.414   6.084  0.4243 -0.2270  0.3698
  118SOPE   H7X12487   2.507   2.420   6.132  1.4439 -1.3656 -1.5041
  118SOPE   H7Y12488   2.372   2.518   6.064 -1.3293 -0.9534 -0.5252
  118SOPE   C3812489   2.426   2.349   5.953 -0.4127 -0.0633 -0.4435
  118SOPE   H8X12490   2.322   2.336   5.917 -0.4779  0.5765 -0.4947
  118SOPE   H8Y12491   2.472   2.249   5.965  1.5528  0.6415 -1.6757
  118SOPE   C3912492   2.508   2.432   5.859  0.5980  0.5982 -0.1410
  118SOPE   H9X12493   2.614   2.448   5.888  0.9925  0.9360 -1.6441
  118SOPE   H9Y12494   2.463   2.533   5.868 -0.5077 -0.0699  2.8550
  118SOPE  C31012495   2.507   2.384   5.712  0.2785  0.4558  0.0467
  118SOPE  H10X12496   2.535   2.465   5.641 -0.1692 -0.2124 -0.9037
  118SOPE  H10Y12497   2.405   2.348   5.688  0.4139 -0.9120  1.4122
  118SOPE  C31112498   2.600   2.258   5.693 -0.1503  0.2294  0.9547
  118SOPE  H11X12499   2.552   2.174   5.748 -1.2413  0.4469  0.3685
  118SOPE  H11Y12500   2.702   2.268   5.736  0.1924  1.8624 -0.1615
  118SOPE  C31212501   2.605   2.220   5.539 -0.4274 -0.3985  0.5540
  118SOPE  H12X12502   2.667   2.283   5.472 -1.3066  1.5024  1.4689
  118SOPE  H12Y12503   2.499   2.232   5.509 -0.4798 -0.3395  0.7671
  118SOPE  C31312504   2.646   2.075   5.520 -0.2279  0.3741 -0.1471
  118SOPE  H13X12505   2.599   2.031   5.430 -1.3501  0.4525  0.3877
  118SOPE  H13Y12506   2.607   2.015   5.606  2.1829 -2.2376 -0.7267
  118SOPE  C31412507   2.796   2.052   5.476 -0.6421  0.0421 -0.2890
  118SOPE  H14X12508   2.865   2.114   5.537 -1.7775  0.1032  0.9820
  118SOPE  H14Y12509   2.803   2.079   5.369 -1.0092  1.6583  0.0708
  118SOPE  C31512510   2.841   1.905   5.495  0.3274  0.1155 -0.0921
  118SOPE  H15X12511   2.862   1.878   5.601  2.2430  0.2042 -0.4116
  118SOPE  H15Y12512   2.948   1.907   5.462  0.8494  2.6842  1.4006
  118SOPE  C31612513   2.780   1.789   5.419  0.3996  0.7878 -0.3069
  118SOPE  H16X12514   2.775   1.813   5.310  1.2596  0.3837 -0.4413
  118SOPE  H16Y12515   2.672   1.777   5.444  0.9911 -0.7334  1.8132
  118SOPE  C31712516   2.851   1.656   5.442  0.4288 -0.4725  0.0968
  118SOPE  H17X12517   2.827   1.606   5.538 -1.8868 -1.0707 -0.7322
  118SOPE  H17Y12518   2.959   1.677   5.435  0.7453 -1.7702  0.8133
  118SOPE  C31812519   2.803   1.547   5.342 -0.2674  0.6322  0.4219
  118SOPE  H18X12520   2.693   1.530   5.343 -0.0143 -1.2001  1.7672
  118SOPE  H18Y12521   2.841   1.452   5.385 -0.2367  0.6430  0.4181
  118SOPE  H18Z12522   2.826   1.572   5.236 -1.7675  0.1407 -0.0451
  119SOPE     N12523   6.213   3.579   7.371  0.1427 -0.6958 -0.1217
  119SOPE   HN112524   6.139   3.632   7.422  0.2009 -0.3930 -0.3488
  119SOPE   HN212525   6.229   3.625   7.279 -0.2421  1.1816  0.6823
  119SOPE   HN312526   6.175   3.485   7.348  2.2203 -1.1593 -1.9255
  119SOPE   C1212527   6.344   3.580   7.448  0.0050  0.1834 -0.1328
  119SOPE  H12A12528   6.352   3.503   7.528 -0.4963  1.5511  1.2722
  119SOPE  H12B12529   6.360   3.682   7.488  0.5866  0.6234 -1.4267
  119SOPE   C1112530   6.458   3.557   7.348 -0.0760 -0.2055  0.0093
  119SOPE  H11A12531   6.554   3.553   7.405 -0.2881 -0.7331  0.3381
  119SOPE  H11B12532   6.462   3.646   7.282 -0.9399 -1.5392 -1.9256
  119SOPE     P12533   6.582   3.376   7.220 -0.0637  0.1627  0.1270
  119SOPE   O1312534   6.548   3.256   7.138 -0.7069  0.4928  0.3451
  119SOPE   O1412535   6.665   3.350   7.335  0.2454 -0.2830  0.1233
  119SOPE   O1212536   6.450   3.434   7.276 -0.8487 -0.4559  0.1264
  119SOPE   O1112537   6.636   3.490   7.129 -0.8943  0.8305 -0.2743
  119SOPE    C112538   6.545   3.550   7.032 -0.5563 -0.5373  0.2668
  119SOPE    HA12539   6.589   3.647   7.001  0.0015 -1.4907 -2.1382
  119SOPE    HB12540   6.448   3.583   7.075  0.4455  2.1797  0.6386
  119SOPE    C212541   6.512   3.468   6.904 -0.3337 -0.2527 -0.0174
  119SOPE    HS12542   6.509   3.359   6.930  0.0342 -0.7279 -1.8464
  119SOPE   O2112543   6.612   3.507   6.814  0.7420  0.4971 -0.2342
  119SOPE   C2112544   6.664   3.408   6.744 -0.1419  0.6545  0.3055
  119SOPE   O2212545   6.662   3.289   6.775  0.3764  0.0158  0.0581
  119SOPE   C2212546   6.756   3.467   6.631  0.3651 -0.5541 -1.0579
  119SOPE   H2R12547   6.855   3.507   6.662 -0.4561 -0.9271  2.5313
  119SOPE   H2S12548   6.701   3.556   6.592  0.1809  0.0886  0.5959
  119SOPE    C312549   6.383   3.520   6.839  0.1383 -0.1731  0.1761
  119SOPE    HX12550   6.397   3.626   6.808  0.9398 -0.0306  0.9771
  119SOPE    HY12551   6.305   3.527   6.918 -0.9670  0.2987 -0.9204
  119SOPE   O3112552   6.351   3.441   6.720 -0.1886 -0.3540 -0.0968
  119SOPE   C3112553   6.274   3.335   6.747 -0.4385 -0.0437 -0.4936
  119SOPE   O3212554   6.245   3.291   6.856  0.1274 -0.1832 -0.4190
  119SOPE   C3212555   6.203   3.295   6.607 -0.0301  0.1095 -0.1386
  119SOPE   H2X12556   6.171   3.190   6.621  0.3824  0.1219  1.0161
  119SOPE   H2Y12557   6.281   3.285   6.529 -0.3839 -0.8410 -0.3803
  119SOPE   C2312558   6.796   3.355   6.534 -0.2114  0.1166 -0.1659
  119SOPE   H3R12559   6.711   3.287   6.512  0.2666 -0.1198 -1.3034
  119SOPE   H3S12560   6.875   3.289   6.575 -0.7191  0.7630  1.9921
  119SOPE   C2412561   6.849   3.417   6.397  0.6540 -0.2425  0.6569
  119SOPE   H4R12562   6.790   3.502   6.357  1.1772 -0.2323 -0.1006
  119SOPE   H4S12563   6.948   3.456   6.426  0.5006 -0.4071  1.4418
  119SOPE   C2512564   6.876   3.308   6.292  0.2067  0.1775 -0.1792
  119SOPE   H5R12565   6.976   3.274   6.325 -0.2807  0.1006  1.3113
  119SOPE   H5S12566   6.807   3.221   6.298 -1.1487  1.3132  3.9906
  119SOPE   C2612567   6.904   3.357   6.147  0.4169 -0.3589 -0.7052
  119SOPE   H6R12568   6.973   3.444   6.145  0.6181 -0.5190 -3.0384
  119SOPE   H6S12569   6.956   3.277   6.091 -0.7926 -1.4889 -0.2663
  119SOPE   C2712570   6.779   3.386   6.056  0.6860  0.3714 -0.4868
  119SOPE   H7R12571   6.711   3.299   6.042 -1.6046  2.1878 -1.2478
  119SOPE   H7S12572   6.723   3.463   6.114  0.4245  1.0651 -1.6297
  119SOPE   C2812573   6.815   3.444   5.923 -0.4217  0.5734 -0.7583
  119SOPE   H8R12574   6.730   3.511   5.898  0.4626  2.6203  1.3279
  119SOPE   H8S12575   6.901   3.514   5.931  1.0728 -1.0317 -1.7952
  119SOPE   C2912576   6.846   3.346   5.817 -0.4193 -0.6417 -0.1194
  119SOPE   H9112577   6.874   3.250   5.863 -3.7452 -0.0410  3.6551
  119SOPE  C21012578   6.824   3.361   5.683  0.5848 -0.2185  0.6411
  119SOPE  H10112579   6.857   3.282   5.614 -1.3237  1.2120 -2.0634
  119SOPE  C21112580   6.772   3.479   5.607 -0.1675 -0.6261 -0.1088
  119SOPE  H11R12581   6.845   3.561   5.624 -1.4819  0.3519  1.0395
  119SOPE  H11S12582   6.670   3.514   5.631  0.3935 -0.2514  1.8770
  119SOPE  C21212583   6.773   3.484   5.445 -0.9945  0.0102 -0.1768
  119SOPE  H12R12584   6.873   3.443   5.417 -1.2778 -3.1857  2.6983
  119SOPE  H12S12585   6.771   3.589   5.410 -2.3497 -0.1209 -0.5649
  119SOPE  C21312586   6.665   3.397   5.397 -0.3677 -0.1120 -0.4557
  119SOPE  H13R12587   6.567   3.433   5.433  0.1913  0.6939  0.2893
  119SOPE  H13S12588   6.674   3.292   5.432 -1.7324  0.3720  1.5233
  119SOPE  C21412589   6.657   3.402   5.240 -1.0559  0.4459 -0.5553
  119SOPE  H14R12590   6.756   3.361   5.213 -0.6009  0.2516  1.2809
  119SOPE  H14S12591   6.651   3.505   5.200 -0.8825  0.9534  0.6716
  119SOPE  C21512592   6.545   3.311   5.189 -0.9216 -0.0143  0.5631
  119SOPE  H15R12593   6.445   3.334   5.233 -2.0452  0.3724 -2.0122
  119SOPE  H15S12594   6.562   3.212   5.237 -1.2101  0.5826  1.9729
  119SOPE  C21612595   6.528   3.304   5.037  0.1913  0.8776 -0.0118
  119SOPE  H16R12596   6.499   3.398   4.986  0.8029  1.2238  0.2787
  119SOPE  H16S12597   6.439   3.237   5.027 -0.6031  1.7043  1.2188
  119SOPE  C21712598   6.644   3.232   4.960 -0.3374  0.2260  0.0475
  119SOPE  H17R12599   6.687   3.154   5.028 -2.9659 -2.3960 -1.1006
  119SOPE  H17S12600   6.724   3.306   4.940  1.2470 -1.1841  0.8395
  119SOPE  C21812601   6.596   3.167   4.832 -0.1793  0.5064  0.0847
  119SOPE  H18R12602   6.567   3.240   4.753 -0.3047 -1.5395 -1.8739
  119SOPE  H18S12603   6.515   3.092   4.847 -0.0726  0.5318  0.8121
  119SOPE  H18T12604   6.688   3.120   4.792 -0.5411 -0.0949 -0.0551
  119SOPE   C3312605   6.083   3.382   6.572  0.4634 -0.4548  0.2422
  119SOPE   H3X12606   6.094   3.489   6.600 -1.4772 -0.2666  0.4401
  119SOPE   H3Y12607   5.991   3.349   6.625  0.5586 -0.7679  0.2153
  119SOPE   C3412608   6.054   3.385   6.424 -1.1852 -0.2157  0.8550
  119SOPE   H4X12609   6.019   3.285   6.391 -0.3450  0.0917 -1.1676
  119SOPE   H4Y12610   6.151   3.417   6.379 -1.2776 -0.4757  0.4664
  119SOPE   C3512611   5.972   3.502   6.382 -0.1770  0.0380 -0.4379
  119SOPE   H5X12612   6.027   3.591   6.421  2.3739 -1.3529 -0.6878
  119SOPE   H5Y12613   5.877   3.501   6.439  0.1651 -0.2836  0.1338
  119SOPE   C3612614   5.955   3.513   6.229  0.4191  0.2977  0.4402
  119SOPE   H6X12615   6.055   3.483   6.192 -0.2092 -1.1193 -0.1839
  119SOPE   H6Y12616   5.926   3.618   6.206 -1.4273 -0.2859 -0.0374
  119SOPE   C3712617   5.844   3.416   6.175 -0.0557  0.1033  0.0165
  119SOPE   H7X12618   5.751   3.432   6.234  0.8335  0.4568  1.3646
  119SOPE   H7Y12619   5.887   3.316   6.199  0.5929 -0.4564 -3.0255
  119SOPE   C3812620   5.813   3.419   6.026 -0.7205 -0.8065 -0.1324
  119SOPE   H8X12621   5.793   3.524   5.994  1.7740  0.1006  1.0638
  119SOPE   H8Y12622   5.720   3.364   6.002 -1.7268  0.3567  0.9718
  119SOPE   C3912623   5.921   3.368   5.930 -0.6344 -0.3047 -0.3847
  119SOPE   H9X12624   5.920   3.258   5.944 -0.0640 -0.1036  1.6448
  119SOPE   H9Y12625   6.018   3.420   5.949  0.2317 -2.2564  0.9386
  119SOPE  C31012626   5.878   3.381   5.781 -0.2678 -0.0877 -0.9757
  119SOPE  H10X12627   5.858   3.488   5.760  0.7230  0.6127  1.3250
  119SOPE  H10Y12628   5.783   3.324   5.782 -0.2007 -0.3281  1.9767
  119SOPE  C31112629   5.979   3.330   5.677 -0.0030  1.0941  0.0864
  119SOPE  H11X12630   5.994   3.225   5.713 -0.1311  2.0655  3.3094
  119SOPE  H11Y12631   6.076   3.383   5.672  1.1915 -0.7872  1.7302
  119SOPE  C31212632   5.903   3.325   5.542 -0.2264  0.2787  0.3086
  119SOPE  H12X12633   5.881   3.425   5.499 -0.2596  0.3870  0.5795
  119SOPE  H12Y12634   5.801   3.285   5.556 -0.1314  0.4987  1.7913
  119SOPE  C31312635   5.979   3.255   5.432  0.3393  0.3369  0.1886
  119SOPE  H13X12636   5.993   3.148   5.458 -0.9764 -0.2808 -1.3889
  119SOPE  H13Y12637   6.078   3.304   5.424  1.0563 -0.9213  0.9274
  119SOPE  C31412638   5.908   3.272   5.294  0.2163 -0.1533  0.1882
  119SOPE  H14X12639   5.984   3.270   5.213  2.1322  0.4498  1.8871
  119SOPE  H14Y12640   5.869   3.375   5.289 -0.9987 -0.5817  0.4919
  119SOPE  C31512641   5.802   3.169   5.268 -0.4201 -0.0641  0.4017
  119SOPE  H15X12642   5.753   3.134   5.361  0.8864 -1.8252  0.4694
  119SOPE  H15Y12643   5.855   3.088   5.212  0.1737  0.2765  0.4579
  119SOPE  C31612644   5.693   3.220   5.182 -0.1001 -0.2047  0.2031
  119SOPE  H16X12645   5.665   3.313   5.236  0.9175 -0.8542  1.9040
  119SOPE  H16Y12646   5.605   3.154   5.173  0.3035 -0.8847  1.1332
  119SOPE  C31712647   5.749   3.264   5.040 -0.0990  1.0637  0.2402
  119SOPE  H17X12648   5.777   3.171   4.987 -1.1150  0.1393  1.2561
  119SOPE  H17Y12649   5.829   3.341   5.043 -0.8535  1.9030 -0.6482
  119SOPE  C31812650   5.639   3.327   4.959  0.2440  0.4773  0.6049
  119SOPE  H18X12651   5.618   3.435   4.975  2.1358  0.9979 -0.1994
  119SOPE  H18Y12652   5.544   3.276   4.985  2.1312 -4.2608 -0.8407
  119SOPE  H18Z12653   5.660   3.311   4.851 -0.6036 -1.7289  0.7107
  120SOPE     N12654   3.199   5.772   6.986 -0.4670 -0.0889  0.9021
  120SOPE   HN112655   3.135   5.790   6.906  0.3993  4.0551  0.9215
  120SOPE   HN212656   3.289   5.810   6.951 -0.2528 -0.9996  0.4301
  120SOPE   HN312657   3.211   5.670   7.001  0.0661 -0.0483  0.7816
  120SOPE   C1212658   3.140   5.831   7.113 -0.2492 -0.3504 -0.8555
  120SOPE  H12A12659   3.193   5.778   7.196 -1.0791 -0.4198 -0.3626
  120SOPE  H12B12660   3.036   5.793   7.121 -0.2475 -0.1224  0.4992
  120SOPE   C1112661   3.155   5.985   7.120 -0.7587 -0.4730 -0.3347
  120SOPE  H11A12662   3.261   6.006   7.095 -0.2491 -2.6060 -0.1879
  120SOPE  H11B12663   3.143   6.013   7.227  3.3650 -0.2166  0.2343
  120SOPE     P12664   3.073   6.215   7.026 -0.1064 -0.1552 -0.2555
  120SOPE   O1312665   3.177   6.250   6.937 -0.0841  0.0582 -0.7382
  120SOPE   O1412666   3.074   6.275   7.157 -0.0887  0.2757 -0.1254
  120SOPE   O1212667   3.067   6.059   7.034 -0.2649 -0.3243 -0.2669
  120SOPE   O1112668   2.938   6.264   6.960  0.0420  0.3696 -0.0442
  120SOPE    C112669   2.885   6.210   6.835  0.0781 -0.2986  0.1239
  120SOPE    HA12670   2.782   6.168   6.842 -0.9206  1.5007 -2.2338
  120SOPE    HB12671   2.939   6.119   6.802  0.7672  0.2121 -0.1849
  120SOPE    C212672   2.876   6.318   6.723 -0.2037 -0.4649 -0.1164
  120SOPE    HS12673   2.830   6.270   6.634  1.2799 -1.6673 -0.2652
  120SOPE   O2112674   3.012   6.361   6.701 -0.4335  0.2868  0.4522
  120SOPE   C2112675   3.069   6.290   6.604  0.1236  0.6746  0.3029
  120SOPE   O2212676   3.018   6.195   6.549  0.5708 -0.6000  0.3832
  120SOPE   C2212677   3.209   6.341   6.591 -0.0319  0.9320 -0.0282
  120SOPE   H2R12678   3.254   6.278   6.512  1.6659 -0.6091  2.0281
  120SOPE   H2S12679   3.257   6.318   6.689 -1.1897 -2.1741 -0.0807
  120SOPE    C312680   2.789   6.438   6.773  0.0585  0.2038 -0.1415
  120SOPE    HX12681   2.831   6.474   6.869  1.6036  1.9046 -1.3729
  120SOPE    HY12682   2.682   6.410   6.784 -0.2374  1.1161 -0.5803
  120SOPE   O3112683   2.794   6.541   6.675  0.0445  0.1752 -0.4880
  120SOPE   C3112684   2.882   6.640   6.697 -0.0375 -0.8067 -0.1245
  120SOPE   O3212685   2.948   6.658   6.796 -0.0489 -0.2604 -1.0217
  120SOPE   C3212686   2.851   6.740   6.592  0.4850  0.4937 -0.3292
  120SOPE   H2X12687   2.748   6.780   6.605 -0.3383 -1.3611 -0.9033
  120SOPE   H2Y12688   2.844   6.678   6.500 -0.6578 -1.7344  1.1758
  120SOPE   C2312689   3.224   6.488   6.540 -0.2341 -0.4069  0.2741
  120SOPE   H3R12690   3.329   6.518   6.562 -1.2770  4.0373  0.1122
  120SOPE   H3S12691   3.159   6.557   6.599  0.6608 -0.7027  1.6469
  120SOPE   C2412692   3.217   6.501   6.383  0.3234  0.4188  0.4828
  120SOPE   H4R12693   3.274   6.595   6.369 -1.4621  1.5770  0.6740
  120SOPE   H4S12694   3.271   6.420   6.330  1.8661  1.9126 -0.3418
  120SOPE   C2512695   3.075   6.500   6.310  1.1396  0.1081  0.0453
  120SOPE   H5R12696   3.039   6.397   6.288  0.1418  0.6939 -1.2010
  120SOPE   H5S12697   3.008   6.545   6.386  1.1045 -0.9708  0.6813
  120SOPE   C2612698   3.078   6.576   6.184 -0.1781 -0.5564  0.0684
  120SOPE   H6R12699   3.110   6.680   6.206 -0.8552 -0.3805  0.2329
  120SOPE   H6S12700   3.155   6.528   6.120 -2.3140 -1.4168 -2.0005
  120SOPE   C2712701   2.949   6.568   6.100 -0.3335  0.2375 -0.5037
  120SOPE   H7R12702   2.933   6.462   6.070  1.4470 -0.6139  1.3166
  120SOPE   H7S12703   2.857   6.597   6.155 -0.9886 -1.6064 -0.5404
  120SOPE   C2812704   2.960   6.651   5.971 -0.2305  0.6040  0.7451
  120SOPE   H8R12705   3.048   6.612   5.916 -2.9200 -1.9615 -2.2013
  120SOPE   H8S12706   2.873   6.617   5.911  0.2797 -1.5920  1.1422
  120SOPE   C2912707   2.959   6.798   5.995  0.9813 -0.5534  0.0168
  120SOPE   H9112708   2.919   6.818   6.095  1.7405 -0.9015  0.3969
  120SOPE  C21012709   3.020   6.897   5.926 -0.0725  0.0168 -0.4780
  120SOPE  H10112710   3.008   6.999   5.965 -0.0086  0.5452 -1.8023
  120SOPE  C21112711   3.081   6.866   5.794  0.2021  0.5856 -0.0058
  120SOPE  H11R12712   3.003   6.838   5.720 -0.6857 -1.2952  1.5388
  120SOPE  H11S12713   3.161   6.789   5.809  0.4775  0.8608 -0.0556
  120SOPE  C21212714   3.144   6.991   5.730 -0.1220  0.3252 -0.3019
  120SOPE  H12R12715   3.240   7.014   5.780  0.0458  0.9104 -0.8807
  120SOPE  H12S12716   3.080   7.081   5.729  1.9885  1.9185 -2.0292
  120SOPE  C21312717   3.190   6.965   5.589 -0.0554 -0.3256 -0.1670
  120SOPE  H13R12718   3.257   6.877   5.589  1.3116  0.6553  1.7206
  120SOPE  H13S12719   3.254   7.053   5.566 -0.1576 -0.1233  0.3112
  120SOPE  C21412720   3.075   6.960   5.488 -0.5478  0.2573  0.0469
  120SOPE  H14R12721   3.008   7.046   5.511 -0.3614  0.2472  0.6448
  120SOPE  H14S12722   3.013   6.872   5.515 -1.8376  0.8540 -0.8300
  120SOPE  C21512723   3.112   6.956   5.347  0.2855  0.5411  0.1656
  120SOPE  H15R12724   3.171   6.864   5.329  1.9279  1.2705  1.5643
  120SOPE  H15S12725   3.183   7.033   5.309 -0.2747 -0.2021 -2.6323
  120SOPE  C21612726   2.992   6.956   5.250  0.5613 -0.4993 -0.4947
  120SOPE  H16R12727   2.927   7.046   5.254  0.4329 -0.5857 -0.6436
  120SOPE  H16S12728   2.933   6.866   5.279 -0.8799  0.3258 -0.7903
  120SOPE  C21712729   3.025   6.914   5.110  0.4209 -0.3329 -0.2792
  120SOPE  H17R12730   3.069   6.812   5.112 -1.9864 -1.4574 -0.9090
  120SOPE  H17S12731   3.103   6.985   5.076 -0.9121  1.0311 -0.6314
  120SOPE  C21812732   2.890   6.928   5.025 -0.2409 -0.6261 -1.2156
  120SOPE  H18R12733   2.814   6.862   5.071 -1.2477  1.6857  0.6379
  120SOPE  H18S12734   2.907   6.911   4.917 -1.2354 -1.9687 -1.1916
  120SOPE  H18T12735   2.860   7.034   5.032 -0.9413 -0.9193  1.5607
  120SOPE   C3312736   2.964   6.846   6.555  1.2134 -0.3517  0.1108
  120SOPE   H3X12737   3.049   6.778   6.536 -0.0300 -1.9765  0.1758
  120SOPE   H3Y12738   2.981   6.915   6.641 -0.5359  0.3198 -0.0426
  120SOPE   C3412739   2.929   6.925   6.427  0.2207  0.0460 -0.1968
  120SOPE   H4X12740   2.858   7.010   6.437  0.8844  0.5615  0.2547
  120SOPE   H4Y12741   2.911   6.859   6.339 -0.6517  0.0753 -0.0506
  120SOPE   C3512742   3.048   7.017   6.392  0.2470  0.4593  0.7557
  120SOPE   H5X12743   3.086   7.079   6.476  1.1595 -2.3520  2.5277
  120SOPE   H5Y12744   3.036   7.081   6.302  3.3483  1.2619  0.7861
  120SOPE   C3612745   3.174   6.928   6.369 -0.7049 -0.2049  0.0248
  120SOPE   H6X12746   3.135   6.847   6.303  0.6859 -1.4962  0.7355
  120SOPE   H6Y12747   3.212   6.888   6.465 -1.2572 -2.3462 -0.5736
  120SOPE   C3712748   3.276   7.016   6.291  0.2337  0.3002  0.3062
  120SOPE   H7X12749   3.283   7.115   6.341 -3.2474  0.8881 -0.0901
  120SOPE   H7Y12750   3.220   7.043   6.199 -0.3686  0.0232  0.5836
  120SOPE   C3812751   3.414   6.951   6.264  0.1798  0.3778  0.4855
  120SOPE   H8X12752   3.383   6.845   6.250 -1.4968  0.9987 -0.7704
  120SOPE   H8Y12753   3.478   6.960   6.355 -0.6767  2.2324  0.9395
  120SOPE   C3912754   3.479   7.020   6.137  0.6329 -0.7595  0.0182
  120SOPE   H9X12755   3.529   7.111   6.175  0.5150 -0.2599 -0.9984
  120SOPE   H9Y12756   3.396   7.042   6.066  2.0239  2.2584 -0.8390
  120SOPE  C31012757   3.568   6.917   6.063  0.7418 -0.1156 -0.0526
  120SOPE  H10X12758   3.507   6.838   6.016  0.8223  0.0638 -0.4573
  120SOPE  H10Y12759   3.645   6.869   6.128  1.3372 -0.6167 -1.1029
  120SOPE  C31112760   3.644   6.983   5.949  0.2853  0.2097  0.0653
  120SOPE  H11X12761   3.717   6.905   5.918 -0.2580 -0.7955  1.2568
  120SOPE  H11Y12762   3.704   7.067   5.989  0.2276  0.2219  0.1262
  120SOPE  C31212763   3.553   7.026   5.832 -0.2419 -0.5904 -0.8846
  120SOPE  H12X12764   3.504   7.120   5.864 -2.0473 -1.9174  0.4200
  120SOPE  H12Y12765   3.485   6.938   5.833  1.9757 -2.4015  0.1472
  120SOPE  C31312766   3.632   7.031   5.703 -0.1856 -0.7431  0.0755
  120SOPE  H13X12767   3.688   6.935   5.699 -0.0962 -0.6835 -0.0950
  120SOPE  H13Y12768   3.700   7.119   5.693 -1.1209  0.1349  1.2385
  120SOPE  C31412769   3.543   7.040   5.577 -0.0515  0.2279 -0.1123
  120SOPE  H14X12770   3.494   7.139   5.583  1.8561  1.4093 -2.6104
  120SOPE  H14Y12771   3.454   6.973   5.572 -1.1023  1.4404  1.4978
  120SOPE  C31512772   3.622   7.031   5.441 -0.2008  0.1435 -1.3204
  120SOPE  H15X12773   3.690   6.944   5.436  2.3605  2.0339 -1.2066
  120SOPE  H15Y12774   3.690   7.119   5.441  0.1099 -0.0559  0.6085
  120SOPE  C31612775   3.528   7.024   5.324  0.1200 -0.4636  0.4393
  120SOPE  H16X12776   3.441   7.093   5.334 -0.2424 -0.9411  0.6853
  120SOPE  H16Y12777   3.484   6.922   5.317  1.7027 -1.0523 -2.3981
  120SOPE  C31712778   3.596   7.036   5.184  0.0693 -0.1914 -0.3989
  120SOPE  H17X12779   3.680   6.965   5.167  1.2256  0.9334  0.3780
  120SOPE  H17Y12780   3.646   7.135   5.177  0.9107 -0.5640  0.1201
  120SOPE  C31812781   3.489   7.030   5.068  0.3670  0.6373  0.5412
  120SOPE  H18X12782   3.439   6.931   5.070  1.0443  0.2510 -0.7012
  120SOPE  H18Y12783   3.540   7.041   4.970  0.4876  0.2179  0.5540
  120SOPE  H18Z12784   3.420   7.117   5.079 -0.5264  0.1168 -0.6770
  121SOPE     N12785   5.481   2.163   7.233  0.5638  0.0777 -0.1354
  121SOPE   HN112786   5.379   2.175   7.244  0.4362 -1.0250  0.0017
  121SOPE   HN212787   5.505   2.081   7.292 -1.8004  1.7750  3.5652
  121SOPE   HN312788   5.530   2.240   7.283 -0.0554 -0.1586  0.8689
  121SOPE   C1212789   5.506   2.150   7.089 -0.5732 -0.5931 -0.5048
  121SOPE  H12A12790   5.489   2.045   7.055 -0.7622 -0.2071 -1.6563
  121SOPE  H12B12791   5.616   2.149   7.072 -0.6052 -2.1895 -0.8010
  121SOPE   C1112792   5.432   2.253   7.011 -0.2036 -0.0670 -0.5531
  121SOPE  H11A12793   5.469   2.261   6.906 -0.3454  0.2703 -0.5781
  121SOPE  H11B12794   5.441   2.351   7.062 -0.9223 -0.8015  1.0680
  121SOPE     P12795   5.211   2.181   6.880  0.4135 -0.0549 -0.0846
  121SOPE   O1312796   5.065   2.169   6.917 -0.4248 -0.0784 -0.7745
  121SOPE   O1412797   5.275   2.057   6.831  0.2144  0.3045 -0.1189
  121SOPE   O1212798   5.290   2.222   7.012 -0.2471 -0.6120  1.1823
  121SOPE   O1112799   5.241   2.297   6.782  0.4391 -0.5051  0.2448
  121SOPE    C112800   5.187   2.429   6.814 -0.1358  0.2536  0.4159
  121SOPE    HA12801   5.271   2.494   6.847  1.3690 -1.0765 -0.6273
  121SOPE    HB12802   5.107   2.431   6.891 -2.3463 -0.1673 -1.7646
  121SOPE    C212803   5.128   2.498   6.686 -0.2217  0.0667  0.3014
  121SOPE    HS12804   5.046   2.434   6.646 -1.5276  1.5019  0.6022
  121SOPE   O2112805   5.232   2.515   6.588  0.3832 -0.0960 -0.1608
  121SOPE   C2112806   5.190   2.509   6.458 -0.2498 -0.0101  0.2160
  121SOPE   O2212807   5.082   2.514   6.419  0.5234  0.0301  0.0061
  121SOPE   C2212808   5.313   2.499   6.361 -0.0933 -0.9050  0.1497
  121SOPE   H2R12809   5.264   2.506   6.261 -0.1525 -3.3889 -0.0754
  121SOPE   H2S12810   5.359   2.399   6.379  0.3571 -0.9006 -0.9090
  121SOPE    C312811   5.073   2.635   6.722  0.3271  0.0072  0.2269
  121SOPE    HX12812   5.155   2.690   6.772 -0.2543  2.1388 -1.0288
  121SOPE    HY12813   4.992   2.617   6.797 -0.6219 -1.1502 -1.0379
  121SOPE   O3112814   5.029   2.718   6.611 -0.2696 -0.3428  0.1691
  121SOPE   C3112815   4.912   2.690   6.553 -0.6874 -0.3905 -0.0808
  121SOPE   O3212816   4.827   2.614   6.598 -0.5250  0.3754 -0.1504
  121SOPE   C3212817   4.885   2.794   6.446  0.2987  0.9288 -0.3488
  121SOPE   H2X12818   4.974   2.787   6.379 -0.0287  0.4603 -0.7494
  121SOPE   H2Y12819   4.876   2.891   6.499 -1.2855  0.1276  0.9310
  121SOPE   C2312820   5.418   2.610   6.385  0.1353 -0.2089  0.0302
  121SOPE   H3R12821   5.433   2.611   6.495 -1.2789 -1.2817  0.2710
  121SOPE   H3S12822   5.371   2.702   6.346 -3.9995 -1.1781  2.2084
  121SOPE   C2412823   5.555   2.585   6.316  0.0006 -0.3859  0.3072
  121SOPE   H4R12824   5.611   2.678   6.342 -2.3535  1.1026  0.3506
  121SOPE   H4S12825   5.607   2.492   6.349 -1.2744 -1.0163  0.5809
  121SOPE   C2512826   5.551   2.580   6.149  1.3217  0.5256 -0.2538
  121SOPE   H5R12827   5.495   2.486   6.132  0.1795  0.5741  2.6426
  121SOPE   H5S12828   5.491   2.662   6.104 -1.2990 -1.9053 -1.4621
  121SOPE   C2612829   5.688   2.588   6.085  0.0123  0.9859 -0.2261
  121SOPE   H6R12830   5.672   2.613   5.978 -0.3027  0.6488 -0.2621
  121SOPE   H6S12831   5.736   2.676   6.132  1.2943  0.0316  0.3361
  121SOPE   C2712832   5.780   2.470   6.114 -0.9398  0.5616  0.3796
  121SOPE   H7R12833   5.873   2.507   6.065 -0.3983 -2.3858 -1.0633
  121SOPE   H7S12834   5.803   2.459   6.222  0.8702  0.3281  0.0086
  121SOPE   C2812835   5.733   2.338   6.050 -0.0666  0.2791  0.7867
  121SOPE   H8R12836   5.646   2.300   6.107  0.9803 -1.0823  1.5254
  121SOPE   H8S12837   5.708   2.359   5.944 -0.1610  0.2701  0.8072
  121SOPE   C2912838   5.835   2.230   6.050 -0.0048  0.5122  0.9266
  121SOPE   H9112839   5.932   2.258   6.094 -0.4032 -0.9401  2.8762
  121SOPE  C21012840   5.819   2.095   6.027  0.3996 -0.1234  0.1859
  121SOPE  H10112841   5.911   2.035   6.015 -1.3853 -2.6526 -1.8335
  121SOPE  C21112842   5.700   2.027   5.975  0.5817  0.2716  0.3151
  121SOPE  H11R12843   5.611   2.067   6.028 -1.2085  0.7635 -2.7865
  121SOPE  H11S12844   5.699   1.920   6.003 -1.1385  0.3887  0.8177
  121SOPE  C21212845   5.678   2.039   5.823 -0.1589 -0.1957 -0.7945
  121SOPE  H12R12846   5.667   2.146   5.798 -1.1342  0.8578  3.3902
  121SOPE  H12S12847   5.588   1.979   5.798  0.0144 -1.1415  0.6949
  121SOPE  C21312848   5.790   1.982   5.730 -0.1803  0.1315  0.0950
  121SOPE  H13R12849   5.835   1.884   5.756  2.9400  0.9692 -1.5769
  121SOPE  H13S12850   5.881   2.047   5.725  0.3888 -0.6904 -0.6022
  121SOPE  C21412851   5.762   1.942   5.582 -0.1981  0.5874  0.3414
  121SOPE  H14R12852   5.660   1.898   5.577  1.0087 -2.3029 -1.1160
  121SOPE  H14S12853   5.838   1.869   5.549  1.0501  2.0460 -0.1102
  121SOPE  C21512854   5.776   2.072   5.500 -0.0973 -0.2944  0.7038
  121SOPE  H15R12855   5.879   2.114   5.505 -1.1007  2.4635 -0.2717
  121SOPE  H15S12856   5.704   2.138   5.553  0.4911 -0.6105  1.9512
  121SOPE  C21612857   5.754   2.050   5.349  1.0108 -0.0715 -0.0570
  121SOPE  H16R12858   5.807   1.954   5.335  1.0014 -0.3092  1.3594
  121SOPE  H16S12859   5.803   2.132   5.292 -1.9237  1.2040 -0.9564
  121SOPE  C21712860   5.611   2.033   5.305  0.3415 -0.8144  0.1770
  121SOPE  H17R12861   5.548   2.095   5.374  1.0603 -1.1481  1.1544
  121SOPE  H17S12862   5.575   1.929   5.313  2.4099 -1.7139 -1.3933
  121SOPE  C21812863   5.602   2.073   5.160  0.0253 -0.3510  0.3077
  121SOPE  H18R12864   5.664   2.163   5.138  0.1607 -0.9892 -2.2317
  121SOPE  H18S12865   5.495   2.091   5.138  0.0508  1.2127  1.2538
  121SOPE  H18T12866   5.641   1.997   5.089  1.5136  2.7145 -2.3951
  121SOPE   C3312867   4.767   2.754   6.360  0.4876 -0.3647  0.3905
  121SOPE   H3X12868   4.675   2.775   6.419 -0.7521  0.4608 -1.7311
  121SOPE   H3Y12869   4.773   2.645   6.338 -1.5803 -0.2404 -1.0331
  121SOPE   C3412870   4.754   2.833   6.226 -0.2981 -0.1321 -0.1230
  121SOPE   H4X12871   4.666   2.789   6.175 -0.7294  1.3893 -0.7581
  121SOPE   H4Y12872   4.831   2.810   6.148  0.4952  1.7471  0.0610
  121SOPE   C3512873   4.736   2.978   6.245 -0.6206 -0.8838  0.0983
  121SOPE   H5X12874   4.832   3.031   6.263 -1.3809  0.2649  0.9268
  121SOPE   H5Y12875   4.681   3.009   6.337 -0.5397  0.4853 -0.2904
  121SOPE   C3612876   4.673   3.058   6.134  0.0407  0.0785  0.5479
  121SOPE   H6X12877   4.692   3.166   6.148  2.1584 -0.0222 -1.1157
  121SOPE   H6Y12878   4.565   3.033   6.126  0.2646 -1.1909  1.2264
  121SOPE   C3712879   4.739   3.037   5.986  0.5992  0.0835 -0.0770
  121SOPE   H7X12880   4.694   2.947   5.940  0.0924  0.6848 -0.7675
  121SOPE   H7Y12881   4.849   3.020   5.989  0.3470 -1.7182  1.3200
  121SOPE   C3812882   4.694   3.152   5.895  0.0939  0.0192  0.0272
  121SOPE   H8X12883   4.708   3.253   5.941 -1.1479  0.5304 -0.6634
  121SOPE   H8Y12884   4.584   3.141   5.879  0.5263 -2.2421 -1.9474
  121SOPE   C3912885   4.760   3.130   5.765  0.5952  0.8318  0.5867
  121SOPE   H9X12886   4.715   3.038   5.723  0.7283  1.5890 -1.3114
  121SOPE   H9Y12887   4.869   3.115   5.786  1.1291  0.0287 -2.3850
  121SOPE  C31012888   4.740   3.236   5.662  0.0700  0.7098 -0.3206
  121SOPE  H10X12889   4.798   3.323   5.701 -0.1052  0.4156  0.6188
  121SOPE  H10Y12890   4.631   3.256   5.659  0.0625  0.9126  0.7910
  121SOPE  C31112891   4.782   3.184   5.520 -0.1984 -0.9408 -0.1647
  121SOPE  H11X12892   4.711   3.101   5.499 -0.5066 -1.3424  2.1256
  121SOPE  H11Y12893   4.883   3.137   5.530 -0.2469 -1.2178 -0.9352
  121SOPE  C31212894   4.764   3.288   5.407 -0.3684 -0.1854 -0.7705
  121SOPE  H12X12895   4.851   3.357   5.411  0.0741 -0.7491 -0.2599
  121SOPE  H12Y12896   4.668   3.342   5.417 -0.2462  0.0116 -0.6498
  121SOPE  C31312897   4.752   3.224   5.260  0.6247  1.1425  0.5237
  121SOPE  H13X12898   4.662   3.162   5.243  1.3130  0.4651 -0.8607
  121SOPE  H13Y12899   4.840   3.162   5.231  1.7021  1.9521  1.8964
  121SOPE  C31412900   4.741   3.333   5.155  0.1538 -0.1665 -0.4873
  121SOPE  H14X12901   4.836   3.389   5.144  1.1381 -1.8985 -1.0830
  121SOPE  H14Y12902   4.667   3.404   5.198 -0.7535 -1.3887  0.0188
  121SOPE  C31512903   4.707   3.285   5.017  0.0234 -0.6003  0.5422
  121SOPE  H15X12904   4.612   3.229   5.027 -0.7549  0.7190  0.7869
  121SOPE  H15Y12905   4.784   3.213   4.982 -0.4847  0.7035 -3.9328
  121SOPE  C31612906   4.687   3.402   4.927  0.6111 -0.5756 -0.4621
  121SOPE  H16X12907   4.626   3.484   4.971  0.3725  0.0153 -1.8519
  121SOPE  H16Y12908   4.628   3.369   4.839  2.8112 -3.1298 -1.0987
  121SOPE  C31712909   4.824   3.439   4.861 -0.3285 -0.1674 -0.1866
  121SOPE  H17X12910   4.857   3.370   4.781 -0.4580 -1.0007  0.4686
  121SOPE  H17Y12911   4.902   3.459   4.938  0.9313  3.0357 -2.0745
  121SOPE  C31812912   4.804   3.575   4.788  0.2708  0.4663 -0.2000
  121SOPE  H18X12913   4.883   3.594   4.712  0.6120 -0.2702 -0.0360
  121SOPE  H18Y12914   4.806   3.660   4.859  1.5883 -0.4387  0.8851
  121SOPE  H18Z12915   4.712   3.591   4.727 -0.2177  0.0101  0.4065
  122SOPE     N12916   5.796   2.913   7.393 -0.0531  0.5838 -0.5420
  122SOPE   HN112917   5.828   3.009   7.370 -0.0721  0.2929 -1.8638
  122SOPE   HN212918   5.837   2.888   7.485  1.8400 -1.2321 -1.7712
  122SOPE   HN312919   5.828   2.848   7.318  1.3197  0.3331  0.2200
  122SOPE   C1212920   5.641   2.940   7.396 -0.7728  0.1954  0.3342
  122SOPE  H12A12921   5.617   2.989   7.493 -0.6154 -1.8951  1.4869
  122SOPE  H12B12922   5.588   2.843   7.386 -0.2823 -0.0034 -0.4045
  122SOPE   C1112923   5.610   3.032   7.271 -0.0596 -0.5822  0.6471
  122SOPE  H11A12924   5.636   2.976   7.178  2.1869  0.2974  0.6877
  122SOPE  H11B12925   5.671   3.125   7.271 -1.9809  0.7479 -0.8968
  122SOPE     P12926   5.354   2.988   7.243 -0.1261 -0.4110  0.5675
  122SOPE   O1312927   5.229   3.061   7.263 -0.1026 -0.4691 -0.2215
  122SOPE   O1412928   5.369   2.863   7.317  0.2039 -0.3688 -0.0537
  122SOPE   O1212929   5.477   3.084   7.284 -0.6974  0.1055  1.0543
  122SOPE   O1112930   5.380   2.956   7.092 -0.1197 -0.3949 -0.3576
  122SOPE    C112931   5.422   3.049   6.998  0.0020 -0.4855  0.5393
  122SOPE    HA12932   5.498   2.988   6.944  0.2292 -0.6269  1.0121
  122SOPE    HB12933   5.475   3.141   7.030  1.8510 -0.3539 -2.5147
  122SOPE    C212934   5.313   3.080   6.885  0.4100 -0.3743  0.2766
  122SOPE    HS12935   5.375   3.113   6.799  0.9867  1.7073  1.4184
  122SOPE   O2112936   5.217   3.176   6.926 -0.3695 -0.0082  0.0300
  122SOPE   C2112937   5.256   3.303   6.929  0.0064  0.4722 -0.2315
  122SOPE   O2212938   5.371   3.338   6.905  0.0489 -1.0876 -0.2186
  122SOPE   C2212939   5.141   3.400   6.963  0.3255  0.2092 -0.5690
  122SOPE   H2R12940   5.136   3.401   7.074  1.8170 -1.3701 -0.4486
  122SOPE   H2S12941   5.044   3.369   6.919 -0.0345 -2.5531  1.8226
  122SOPE    C312942   5.235   2.958   6.839 -0.1273  0.3124  0.1300
  122SOPE    HX12943   5.168   2.936   6.924 -0.1938  1.5166  0.3960
  122SOPE    HY12944   5.298   2.867   6.826 -1.0635 -0.4629  0.8699
  122SOPE   O3112945   5.164   2.990   6.717  0.0193 -0.3901  0.1738
  122SOPE   C3112946   5.240   2.970   6.606  0.0183  0.2683  0.2659
  122SOPE   O3212947   5.348   2.914   6.609  0.3444 -0.4960  0.5223
  122SOPE   C3212948   5.176   3.035   6.479 -0.1970 -0.2042 -0.0158
  122SOPE   H2X12949   5.187   3.143   6.503 -2.8681  0.2468 -0.4437
  122SOPE   H2Y12950   5.069   3.004   6.477 -0.2251 -0.3642  1.8276
  122SOPE   C2312951   5.167   3.553   6.937 -0.6284  0.2477 -0.0361
  122SOPE   H3R12952   5.276   3.575   6.945 -0.1607 -1.8429 -0.0326
  122SOPE   H3S12953   5.126   3.617   7.018  0.7173  0.4560  0.5056
  122SOPE   C2412954   5.117   3.604   6.802  0.4078 -0.1077 -0.1289
  122SOPE   H4R12955   5.161   3.530   6.731  3.4950  1.8427 -0.4243
  122SOPE   H4S12956   5.007   3.590   6.800  0.7272 -3.3232 -0.9316
  122SOPE   C2512957   5.162   3.747   6.757 -0.0213  0.0095  0.4081
  122SOPE   H5R12958   5.099   3.815   6.818 -3.1327 -1.3618 -1.0607
  122SOPE   H5S12959   5.269   3.769   6.779  0.2261  1.4990 -1.9463
  122SOPE   C2612960   5.151   3.773   6.608  0.2915  0.2640  0.9268
  122SOPE   H6R12961   5.250   3.811   6.576 -0.7819  1.2737 -1.4001
  122SOPE   H6S12962   5.141   3.683   6.545  1.3579  0.7899 -0.0292
  122SOPE   C2712963   5.063   3.887   6.567  0.2446 -0.2788 -0.8870
  122SOPE   H7R12964   4.956   3.859   6.572  0.2580 -0.2531 -0.4303
  122SOPE   H7S12965   5.067   3.974   6.636 -1.2926 -0.8745 -0.0096
  122SOPE   C2812966   5.074   3.925   6.418 -0.8726 -0.3116 -0.0115
  122SOPE   H8R12967   5.052   3.825   6.374  1.1376 -1.2447  0.9751
  122SOPE   H8S12968   4.997   4.003   6.399  1.2381  1.3730 -2.2453
  122SOPE   C2912969   5.210   3.978   6.368  0.7256  0.2116 -0.5341
  122SOPE   H9112970   5.273   4.021   6.448  0.3765 -0.1753 -0.0410
  122SOPE  C21012971   5.257   3.985   6.239  0.3317 -0.3823  0.4166
  122SOPE  H10112972   5.358   4.024   6.219  0.4906 -0.3356  1.2876
  122SOPE  C21112973   5.187   3.918   6.123  0.3539  0.5774 -0.2876
  122SOPE  H11R12974   5.080   3.891   6.137  0.6232 -0.6275 -0.3821
  122SOPE  H11S12975   5.234   3.818   6.109  1.6607  0.6915  2.6168
  122SOPE  C21212976   5.199   4.018   6.005  0.1735  0.4365  0.1866
  122SOPE  H12R12977   5.288   4.084   6.005  1.7287 -1.4806 -2.4202
  122SOPE  H12S12978   5.112   4.085   6.022  0.7193  0.4387  3.8813
  122SOPE  C21312979   5.195   3.949   5.863  0.0593  0.3043  0.1515
  122SOPE  H13R12980   5.099   3.898   5.841  0.7968 -0.9841 -0.1837
  122SOPE  H13S12981   5.278   3.876   5.848  0.6067  1.1112 -0.8267
  122SOPE  C21412982   5.225   4.065   5.749 -0.4473 -0.3454  0.9687
  122SOPE  H14R12983   5.316   4.125   5.770 -2.0302  2.8003 -0.4836
  122SOPE  H14S12984   5.137   4.132   5.758 -1.7756 -1.5179 -2.0013
  122SOPE  C21512985   5.216   4.003   5.606  0.3787 -0.1182  0.3836
  122SOPE  H15R12986   5.125   3.941   5.614  0.5573 -0.3082  1.0229
  122SOPE  H15S12987   5.303   3.934   5.604  0.1086 -0.4503  0.1664
  122SOPE  C21612988   5.224   4.105   5.488  0.0555  0.4740 -0.2940
  122SOPE  H16R12989   5.140   4.177   5.501 -1.2820 -0.2420 -3.9741
  122SOPE  H16S12990   5.196   4.067   5.388  0.0282  1.0810 -0.5263
  122SOPE  C21712991   5.357   4.177   5.477  0.1272  0.3529  0.3070
  122SOPE  H17R12992   5.429   4.094   5.460 -1.2907 -0.4024 -2.8620
  122SOPE  H17S12993   5.374   4.215   5.580 -0.1785 -0.9163  0.8530
  122SOPE  C21812994   5.380   4.287   5.373  0.4471 -0.6955  0.1336
  122SOPE  H18R12995   5.307   4.371   5.381  0.0235 -0.9702 -0.6734
  122SOPE  H18S12996   5.379   4.243   5.271 -0.7893  0.0449 -0.2077
  122SOPE  H18T12997   5.481   4.331   5.379 -0.0481  0.5305 -0.1317
  122SOPE   C3312998   5.251   2.983   6.360  1.1682 -0.6122  0.3618
  122SOPE   H3X12999   5.236   2.873   6.350  0.2679 -0.6249  1.6688
  122SOPE   H3Y13000   5.357   3.016   6.357  1.3603 -1.2436 -1.4619
  122SOPE   C3413001   5.181   3.045   6.231 -1.1054  0.5440 -0.4087
  122SOPE   H4X13002   5.193   3.155   6.237 -0.0365  0.4830 -1.1985
  122SOPE   H4Y13003   5.074   3.015   6.242 -0.6108 -0.8727  1.0210
  122SOPE   C3513004   5.247   3.004   6.095  0.5563 -0.2690 -0.3700
  122SOPE   H5X13005   5.254   2.894   6.081 -2.0244 -0.5191 -0.0805
  122SOPE   H5Y13006   5.352   3.042   6.094  0.8646 -1.1104 -0.9572
  122SOPE   C3613007   5.182   3.065   5.970  0.2743  0.3043 -0.2816
  122SOPE   H6X13008   5.169   3.173   5.992 -0.0050 -0.1679  2.1165
  122SOPE   H6Y13009   5.085   3.016   5.944  1.9876 -2.4837 -1.9608
  122SOPE   C3713010   5.259   3.054   5.840  0.2423  0.4034  0.2482
  122SOPE   H7X13011   5.259   2.948   5.806  2.0099  0.3161  0.4348
  122SOPE   H7Y13012   5.364   3.089   5.843  0.1752  1.2310 -2.8675
  122SOPE   C3813013   5.188   3.133   5.728  0.3431  0.5332 -0.2375
  122SOPE   H8X13014   5.168   3.236   5.765  0.2594  0.3580  0.2119
  122SOPE   H8Y13015   5.092   3.080   5.711 -0.0436  0.0434  2.8888
  122SOPE   C3913016   5.265   3.150   5.595  0.3490  0.4165  0.0396
  122SOPE   H9X13017   5.297   3.049   5.562  1.7794  1.5454 -2.3279
  122SOPE   H9Y13018   5.358   3.208   5.613 -0.4271  2.2536 -1.6396
  122SOPE  C31013019   5.180   3.223   5.486  0.1297  0.2742  0.3198
  122SOPE  H10X13020   5.144   3.322   5.524 -0.8509  0.6126 -1.4024
  122SOPE  H10Y13021   5.086   3.172   5.455  1.3184 -0.7475 -1.7818
  122SOPE  C31113022   5.260   3.236   5.363 -0.2378 -0.7173  0.3792
  122SOPE  H11X13023   5.311   3.141   5.336 -0.0283 -0.3662 -0.4908
  122SOPE  H11Y13024   5.327   3.325   5.373  0.8083 -1.5318  0.7597
  122SOPE  C31213025   5.167   3.276   5.238 -0.2653 -0.2778 -0.7479
  122SOPE  H12X13026   5.119   3.368   5.279  1.0448 -0.5446  1.5147
  122SOPE  H12Y13027   5.081   3.206   5.227 -0.4626 -0.0442 -0.7159
  122SOPE  C31313028   5.252   3.308   5.115  0.8009 -0.3983 -0.2826
  122SOPE  H13X13029   5.317   3.225   5.079 -0.4652 -2.3291  1.6331
  122SOPE  H13Y13030   5.321   3.390   5.144  0.1394 -0.7213  2.4987
  122SOPE  C31413031   5.169   3.367   5.000 -0.2276  0.2413 -0.3235
  122SOPE  H14X13032   5.098   3.439   5.045 -0.6636 -1.8104  2.6355
  122SOPE  H14Y13033   5.121   3.288   4.938 -0.8197  1.0961 -0.9589
  122SOPE  C31513034   5.264   3.447   4.915  0.5283 -0.9742  0.1866
  122SOPE  H15X13035   5.345   3.382   4.876  0.4986  0.8086 -3.1062
  122SOPE  H15Y13036   5.314   3.523   4.979  0.8772 -0.5170 -0.6119
  122SOPE  C31613037   5.195   3.527   4.807 -0.2146  0.2940 -0.2000
  122SOPE  H16X13038   5.103   3.569   4.854  0.7944 -0.6460  2.8619
  122SOPE  H16Y13039   5.151   3.454   4.735 -2.4631  2.9816 -1.7457
  122SOPE  C31713040   5.285   3.625   4.729  0.9509  0.3792  0.3730
  122SOPE  H17X13041   5.369   3.555   4.707 -0.8426 -1.9051  0.4559
  122SOPE  H17Y13042   5.327   3.703   4.797  0.4781  0.4337  0.6057
  122SOPE  C31813043   5.219   3.694   4.610  0.9779 -0.1237 -0.0590
  122SOPE  H18X13044   5.143   3.772   4.634 -0.0348 -0.1658 -2.7926
  122SOPE  H18Y13045   5.157   3.617   4.559 -0.2244  1.0654 -0.4387
  122SOPE  H18Z13046   5.306   3.734   4.554  1.0726 -1.2807 -0.7671
  123SOPE     N13047   1.506   3.019   2.895  0.2323  0.0334  0.5359
  123SOPE   HN113048   1.573   3.031   2.974 -1.7806  1.3665  2.1471
  123SOPE   HN213049   1.421   3.076   2.915 -1.8755 -2.2551 -1.2993
  123SOPE   HN313050   1.470   2.921   2.892  0.0398  0.1355 -0.7474
  123SOPE   C1213051   1.566   3.056   2.762 -0.6536 -0.8644 -0.0492
  123SOPE  H12A13052   1.489   3.036   2.684 -0.7657  0.5785 -0.3415
  123SOPE  H12B13053   1.639   2.978   2.730  0.8775  0.9213 -1.1102
  123SOPE   C1113054   1.635   3.190   2.756 -0.3494  0.0448  0.6914
  123SOPE  H11A13055   1.688   3.207   2.660  0.8603  3.3136  1.7824
  123SOPE  H11B13056   1.714   3.199   2.833  0.2185  1.0473  0.0155
  123SOPE     P13057   1.599   3.437   2.780  0.0516 -0.3601 -0.0095
  123SOPE   O1313058   1.489   3.538   2.794 -0.5947 -0.2688  0.2563
  123SOPE   O1413059   1.689   3.457   2.665 -0.2975 -0.9423  0.0529
  123SOPE   O1213060   1.537   3.296   2.761 -0.0617 -0.0323 -0.2708
  123SOPE   O1113061   1.677   3.421   2.914  0.0601 -0.6552 -0.1939
  123SOPE    C113062   1.665   3.523   3.017  0.2416 -0.0858 -0.3363
  123SOPE    HA13063   1.664   3.627   2.979  3.8360 -0.3760 -1.5969
  123SOPE    HB13064   1.752   3.510   3.085 -2.4518 -2.2493  2.9861
  123SOPE    C213065   1.532   3.525   3.097 -0.5184 -0.2067  0.2655
  123SOPE    HS13066   1.454   3.503   3.021  0.9787 -0.4849 -1.2516
  123SOPE   O2113067   1.517   3.652   3.164  0.0639 -0.6680 -0.0350
  123SOPE   C2113068   1.402   3.666   3.223 -0.1585 -0.2636 -0.8602
  123SOPE   O2213069   1.300   3.606   3.195 -0.0360  0.1555  0.1891
  123SOPE   C2213070   1.398   3.782   3.324 -0.9491 -0.3219  1.1924
  123SOPE   H2R13071   1.359   3.868   3.264  1.2193  1.2640  1.9213
  123SOPE   H2S13072   1.500   3.799   3.363 -0.5125  2.0291 -0.7182
  123SOPE    C313073   1.536   3.408   3.202 -0.1800  0.1361  0.2311
  123SOPE    HX13074   1.526   3.309   3.153  2.3530 -1.0924  1.9632
  123SOPE    HY13075   1.444   3.410   3.263 -0.2644 -1.0273  0.1755
  123SOPE   O3113076   1.645   3.412   3.296 -0.1523 -0.1098 -0.1354
  123SOPE   C3113077   1.662   3.297   3.363  0.4963  0.2752 -0.2062
  123SOPE   O3213078   1.590   3.199   3.343  0.0740  0.0233 -0.4232
  123SOPE   C3213079   1.775   3.302   3.462 -0.0247  0.5731  0.4287
  123SOPE   H2X13080   1.868   3.333   3.409 -0.3371  0.4921 -0.1734
  123SOPE   H2Y13081   1.796   3.201   3.504  2.6521 -0.1588 -2.2911
  123SOPE   C2313082   1.300   3.767   3.441  0.4224 -0.4704 -0.1992
  123SOPE   H3R13083   1.208   3.712   3.415  0.5911  0.1072 -2.1718
  123SOPE   H3S13084   1.257   3.868   3.460 -1.3720 -0.8632 -1.8119
  123SOPE   C2413085   1.347   3.690   3.566  0.2456  0.3667 -0.0116
  123SOPE   H4R13086   1.441   3.732   3.607  2.1825 -1.6112 -2.1364
  123SOPE   H4S13087   1.275   3.725   3.643 -0.2147  0.9620 -0.6931
  123SOPE   C2513088   1.353   3.542   3.571  0.5578  0.4124  0.3399
  123SOPE   H5R13089   1.252   3.505   3.544  0.4829  0.0966  1.0253
  123SOPE   H5S13090   1.429   3.496   3.504  1.6014 -0.5856  2.1321
  123SOPE   C2613091   1.375   3.488   3.715 -0.0855 -0.1925  0.3510
  123SOPE   H6R13092   1.476   3.527   3.737 -0.5398  0.2876  1.6891
  123SOPE   H6S13093   1.309   3.539   3.789 -0.6381 -0.9935  0.4211
  123SOPE   C2713094   1.369   3.339   3.723  0.7552 -0.1929  0.4897
  123SOPE   H7R13095   1.277   3.295   3.678  0.8434 -1.1747  1.2159
  123SOPE   H7S13096   1.454   3.298   3.664 -0.2697 -0.7496 -0.6447
  123SOPE   C2813097   1.377   3.271   3.860  0.0994  0.1039  0.1264
  123SOPE   H8R13098   1.360   3.164   3.835  1.6396  0.4470 -2.8330
  123SOPE   H8S13099   1.483   3.267   3.893  0.0137 -0.6307  0.3393
  123SOPE   C2913100   1.285   3.319   3.969  0.0127 -0.6055 -0.2619
  123SOPE   H9113101   1.182   3.319   3.930  0.6263 -1.9868 -2.0472
  123SOPE  C21013102   1.317   3.358   4.095 -0.5297 -0.2888 -0.1156
  123SOPE  H10113103   1.230   3.368   4.161 -3.0803 -2.4630 -2.8618
  123SOPE  C21113104   1.456   3.358   4.160  0.2631 -0.0481  1.0819
  123SOPE  H11R13105   1.508   3.454   4.139 -0.3065 -0.2215 -1.3746
  123SOPE  H11S13106   1.519   3.278   4.116 -0.2701  0.3181 -0.4043
  123SOPE  C21213107   1.437   3.336   4.310 -0.5990  0.1853  0.6026
  123SOPE  H12R13108   1.370   3.247   4.317  0.8211 -0.8581  1.4802
  123SOPE  H12S13109   1.381   3.424   4.348 -1.0625  0.7561 -1.2628
  123SOPE  C21313110   1.571   3.312   4.384  0.3909 -0.0965  0.6369
  123SOPE  H13R13111   1.634   3.401   4.365 -0.5503  0.7757  1.4961
  123SOPE  H13S13112   1.611   3.222   4.333 -2.8118 -0.6528 -1.1773
  123SOPE  C21413113   1.550   3.301   4.537 -0.4606  0.0269 -0.1848
  123SOPE  H14R13114   1.476   3.219   4.547 -0.5056  0.1986  0.9658
  123SOPE  H14S13115   1.500   3.394   4.572 -1.6932 -0.4699 -0.5795
  123SOPE  C21513116   1.679   3.273   4.618  0.1871 -0.3863  0.9034
  123SOPE  H15R13117   1.736   3.368   4.617  1.5326 -1.1441  2.0632
  123SOPE  H15S13118   1.730   3.189   4.566 -0.1720 -0.0106 -0.0743
  123SOPE  C21613119   1.660   3.235   4.762 -0.5979 -0.2135 -0.8654
  123SOPE  H16R13120   1.593   3.147   4.758 -2.3241  1.0276 -0.6387
  123SOPE  H16S13121   1.605   3.310   4.823 -1.6945 -1.3094 -0.4709
  123SOPE  C21713122   1.796   3.198   4.829  0.7030 -0.8411 -0.3889
  123SOPE  H17R13123   1.875   3.270   4.796 -1.0234  1.4578  0.2056
  123SOPE  H17S13124   1.824   3.098   4.792  1.4687 -1.1455  0.9239
  123SOPE  C21813125   1.796   3.195   4.985 -0.2266 -1.1185  0.2975
  123SOPE  H18R13126   1.893   3.151   5.017 -0.9593 -2.0074  1.3858
  123SOPE  H18S13127   1.711   3.133   5.020 -0.0253 -1.1152  0.8050
  123SOPE  H18T13128   1.769   3.290   5.035 -0.2019 -2.1953  2.4741
  123SOPE   C3313129   1.743   3.397   3.573 -0.7943 -0.8243 -0.1073
  123SOPE   H3X13130   1.638   3.401   3.609 -1.0119 -0.7576 -0.7338
  123SOPE   H3Y13131   1.771   3.501   3.544 -1.5373 -0.2418  1.1599
  123SOPE   C3413132   1.835   3.376   3.699 -0.3543 -0.4899  0.1305
  123SOPE   H4X13133   1.813   3.458   3.771  3.5635  1.0205 -0.1428
  123SOPE   H4Y13134   1.940   3.379   3.663 -0.9024 -0.3174 -1.5187
  123SOPE   C3513135   1.806   3.247   3.776  0.5662  0.1998 -0.8764
  123SOPE   H5X13136   1.817   3.157   3.712  2.0183  0.5489 -1.1515
  123SOPE   H5Y13137   1.698   3.255   3.802  0.3123 -0.7500 -1.6054
  123SOPE   C3613138   1.893   3.215   3.905  0.5724  0.6673  0.5679
  123SOPE   H6X13139   1.996   3.203   3.866  0.7520  2.1102  0.5107
  123SOPE   H6Y13140   1.869   3.113   3.940  1.6164 -0.0556 -0.7245
  123SOPE   C3713141   1.875   3.318   4.018  0.8258  0.3969  0.3863
  123SOPE   H7X13142   1.769   3.342   4.037  0.1971 -1.7825 -0.0217
  123SOPE   H7Y13143   1.919   3.413   3.983  0.1388  0.6112  0.0970
  123SOPE   C3813144   1.943   3.283   4.153 -0.1746 -0.2374 -0.3346
  123SOPE   H8X13145   2.050   3.264   4.132 -0.3348 -0.3427 -1.1150
  123SOPE   H8Y13146   1.904   3.194   4.206  0.4846 -0.6816 -0.5929
  123SOPE   C3913147   1.945   3.401   4.248 -0.1724 -0.1648 -0.5541
  123SOPE   H9X13148   1.845   3.438   4.279  0.8442  1.4964  0.8665
  123SOPE   H9Y13149   1.999   3.481   4.192  0.4970 -1.5103 -1.9203
  123SOPE  C31013150   2.016   3.356   4.380  0.1273 -0.2279 -0.1164
  123SOPE  H10X13151   2.122   3.332   4.360  0.4649  1.1311 -0.0424
  123SOPE  H10Y13152   1.977   3.262   4.425 -0.3338 -0.3068 -0.6678
  123SOPE  C31113153   2.016   3.467   4.487  0.3411 -0.0373 -0.0896
  123SOPE  H11X13154   1.914   3.458   4.531  0.1633 -1.6080 -0.7799
  123SOPE  H11Y13155   2.041   3.558   4.428  0.4485 -1.2219 -1.9754
  123SOPE  C31213156   2.120   3.450   4.606  0.7244  0.5847  0.2264
  123SOPE  H12X13157   2.214   3.410   4.562 -0.1655  0.6688 -1.8387
  123SOPE  H12Y13158   2.081   3.380   4.683 -0.1005 -0.3353 -0.9977
  123SOPE  C31313159   2.165   3.592   4.651  0.2126  0.1378  0.5862
  123SOPE  H13X13160   2.113   3.638   4.738  0.2902 -0.2754  0.8532
  123SOPE  H13Y13161   2.162   3.660   4.563 -1.5222  2.5154  2.3544
  123SOPE  C31413162   2.318   3.601   4.695  0.1398 -0.1569 -0.6132
  123SOPE  H14X13163   2.340   3.709   4.705 -0.0913  0.1436 -2.7588
  123SOPE  H14Y13164   2.375   3.568   4.605 -1.2125 -0.3134 -1.4295
  123SOPE  C31513165   2.353   3.532   4.824  0.2748 -0.2173 -0.0629
  123SOPE  H15X13166   2.330   3.425   4.806 -1.2530 -0.0215  0.5360
  123SOPE  H15Y13167   2.281   3.570   4.900 -1.6453 -1.8242 -0.9740
  123SOPE  C31613168   2.494   3.551   4.865 -0.4863  0.1844  0.2265
  123SOPE  H16X13169   2.566   3.531   4.783  0.7776  0.7890  1.1578
  123SOPE  H16Y13170   2.536   3.481   4.941  3.2718  2.1046  0.1708
  123SOPE  C31713171   2.525   3.689   4.924  0.1675 -0.7558  0.2254
  123SOPE  H17X13172   2.446   3.731   4.991 -0.5913  1.5218 -1.9582
  123SOPE  H17Y13173   2.515   3.753   4.834  2.4891 -0.2647  0.2633
  123SOPE  C31813174   2.667   3.703   4.975  0.1609 -0.0304 -0.3534
  123SOPE  H18X13175   2.689   3.630   5.056 -1.5298 -0.6344 -0.3912
  123SOPE  H18Y13176   2.692   3.805   5.009  2.7079 -1.6850  3.4222
  123SOPE  H18Z13177   2.744   3.678   4.898  0.0516  1.0495 -0.8239
  124SOPE     N13178   6.153   2.213   3.149  0.4014  0.2699 -0.2398
  124SOPE   HN113179   6.148   2.316   3.142 -1.9355  0.2621  0.4392
  124SOPE   HN213180   6.104   2.195   3.239  1.7551  1.5562  0.8107
  124SOPE   HN313181   6.253   2.184   3.155 -0.2359 -1.8995  1.3660
  124SOPE   C1213182   6.085   2.147   3.035 -0.7181 -0.1350 -0.1788
  124SOPE  H12A13183   6.120   2.189   2.939 -1.4877 -1.2167 -0.9554
  124SOPE  H12B13184   5.980   2.180   3.051 -1.5142 -1.4264 -2.3484
  124SOPE   C1113185   6.086   1.998   3.032  0.5410 -0.0135  0.2501
  124SOPE  H11A13186   6.012   1.944   2.969  0.6623 -1.5936  1.3958
  124SOPE  H11B13187   6.061   1.955   3.132 -0.9255  2.0207  0.8376
  124SOPE     P13188   6.272   1.819   3.033 -0.5296 -0.0736 -0.2771
  124SOPE   O1313189   6.334   1.848   3.164 -0.5656  0.8694 -0.1822
  124SOPE   O1413190   6.352   1.765   2.921  0.2305 -0.1891 -0.4737
  124SOPE   O1213191   6.217   1.957   2.992  0.5058 -0.3950 -0.0567
  124SOPE   O1113192   6.144   1.735   3.051  0.3753  0.4696  0.3127
  124SOPE    C113193   6.136   1.601   3.097 -0.6659  0.2641 -0.4168
  124SOPE    HA13194   6.234   1.555   3.073  0.6856  3.0562 -0.7436
  124SOPE    HB13195   6.064   1.537   3.040  1.3285 -2.3017 -0.2188
  124SOPE    C213196   6.086   1.580   3.240  0.1145 -0.0245  0.0506
  124SOPE    HS13197   5.989   1.634   3.246 -0.0271 -0.1524 -0.9276
  124SOPE   O2113198   6.184   1.617   3.336 -0.4649  0.0955 -0.0176
  124SOPE   C2113199   6.154   1.725   3.410 -0.1520 -0.5869 -0.4087
  124SOPE   O2213200   6.048   1.786   3.400 -0.2354 -0.4743  0.0732
  124SOPE   C2213201   6.266   1.757   3.512 -0.1472  0.5787  0.3846
  124SOPE   H2R13202   6.333   1.669   3.508 -2.1884 -1.0057 -0.6148
  124SOPE   H2S13203   6.217   1.756   3.612 -0.0854 -3.5907  0.5436
  124SOPE    C313204   6.048   1.430   3.261 -0.1639  0.4125  0.1519
  124SOPE    HX13205   6.139   1.372   3.287 -1.4736 -2.1179 -0.5839
  124SOPE    HY13206   6.012   1.383   3.167  0.7779 -3.4415  1.5284
  124SOPE   O3113207   5.940   1.416   3.354  0.4623 -0.1099  0.0231
  124SOPE   C3113208   5.984   1.399   3.483  0.4955  0.2731 -0.4608
  124SOPE   O3213209   6.094   1.403   3.520 -0.4208  0.5019  0.5773
  124SOPE   C3213210   5.859   1.392   3.578 -0.5098  0.2449  0.1500
  124SOPE   H2X13211   5.807   1.303   3.537  0.0873  0.0876 -0.2922
  124SOPE   H2Y13212   5.793   1.481   3.575  0.6811  1.3567  3.1144
  124SOPE   C2313213   6.355   1.884   3.485 -0.0961  0.4885  1.0155
  124SOPE   H3R13214   6.308   1.945   3.404  2.1887 -1.4879 -2.0219
  124SOPE   H3S13215   6.447   1.855   3.430  0.2590  2.1984  0.6497
  124SOPE   C2413216   6.394   1.964   3.605 -0.8118  0.3650 -0.1859
  124SOPE   H4R13217   6.439   2.061   3.574  1.6299 -0.2047  1.3685
  124SOPE   H4S13218   6.304   1.981   3.668 -0.3834  0.0156  0.5193
  124SOPE   C2513219   6.499   1.907   3.692 -0.5630  0.2828  0.1566
  124SOPE   H5R13220   6.476   1.805   3.728  2.0835 -0.7856 -0.9120
  124SOPE   H5S13221   6.595   1.905   3.636 -1.5667 -0.7601 -1.5755
  124SOPE   C2613222   6.520   1.999   3.817 -0.4361  0.1115 -0.0410
  124SOPE   H6R13223   6.523   2.100   3.771  1.0320 -1.0250 -2.6600
  124SOPE   H6S13224   6.427   1.985   3.876 -1.3751 -0.0186 -1.5157
  124SOPE   C2713225   6.646   1.960   3.902 -0.4151 -0.0281  0.0139
  124SOPE   H7R13226   6.633   1.853   3.929 -2.3165  0.2146  0.2196
  124SOPE   H7S13227   6.736   1.963   3.837  0.0342  1.3336  0.6677
  124SOPE   C2813228   6.668   2.062   4.016 -0.2543 -0.1029  0.2767
  124SOPE   H8R13229   6.770   2.046   4.057 -0.1460  0.7635  0.3640
  124SOPE   H8S13230   6.672   2.165   3.975 -1.5165  0.3539  1.2644
  124SOPE   C2913231   6.571   2.049   4.126  0.2485  0.0424  0.2650
  124SOPE   H9113232   6.475   2.006   4.094  0.1150  0.5294 -0.0084
  124SOPE  C21013233   6.583   2.075   4.255 -0.1061  0.2955 -0.6646
  124SOPE  H10113234   6.500   2.056   4.326  1.0097 -0.3468  0.5073
  124SOPE  C21113235   6.705   2.134   4.325  0.1014 -0.0047 -0.1318
  124SOPE  H11R13236   6.788   2.146   4.252  0.7983  0.0163  0.6595
  124SOPE  H11S13237   6.737   2.066   4.406 -1.1934 -1.5883 -0.8839
  124SOPE  C21213238   6.667   2.281   4.367  0.1662  0.0381  0.7754
  124SOPE  H12R13239   6.661   2.342   4.275 -1.2170 -0.9409  0.1739
  124SOPE  H12S13240   6.756   2.303   4.429 -0.0163 -2.0128  1.8486
  124SOPE  C21313241   6.553   2.305   4.464  0.3200  0.6370 -0.0356
  124SOPE  H13R13242   6.562   2.240   4.553 -0.8302 -0.5974 -0.7820
  124SOPE  H13S13243   6.466   2.278   4.400  1.8417 -1.7595 -1.2253
  124SOPE  C21413244   6.550   2.449   4.512 -0.1469  0.2364  0.4440
  124SOPE  H14R13245   6.542   2.512   4.421 -0.1352  0.2966  0.4846
  124SOPE  H14S13246   6.653   2.475   4.547  0.5821  0.7823 -1.9226
  124SOPE  C21513247   6.453   2.478   4.622  0.6696  0.0410  0.1097
  124SOPE  H15R13248   6.452   2.407   4.707  0.9575 -1.6921 -1.2916
  124SOPE  H15S13249   6.347   2.483   4.589  0.0516  0.9620  2.0424
  124SOPE  C21613250   6.484   2.618   4.675  0.7537  0.0823 -0.5146
  124SOPE  H16R13251   6.462   2.687   4.590 -1.5512 -0.4693 -0.4475
  124SOPE  H16S13252   6.573   2.618   4.740  0.2334  1.2514  0.2241
  124SOPE  C21713253   6.374   2.670   4.780  0.0116  0.0153  0.7106
  124SOPE  H17R13254   6.381   2.596   4.863  2.0880 -0.0765  0.5054
  124SOPE  H17S13255   6.272   2.676   4.737 -0.0043  0.2187  0.7739
  124SOPE  C21813256   6.411   2.806   4.841 -0.1244 -0.3178 -0.2704
  124SOPE  H18R13257   6.522   2.814   4.851  0.0652 -1.3637 -1.3270
  124SOPE  H18S13258   6.372   2.808   4.945  2.0605  0.4866  0.6035
  124SOPE  H18T13259   6.370   2.895   4.790 -0.1855 -0.7594 -1.0012
  124SOPE   C3313260   5.896   1.371   3.725  0.1569 -0.9396 -0.1104
  124SOPE   H3X13261   5.954   1.460   3.757  1.0253 -0.7174 -2.1443
  124SOPE   H3Y13262   5.966   1.286   3.734  1.5892  0.3361  1.2245
  124SOPE   C3413263   5.773   1.350   3.814  0.0562  0.0515 -0.3214
  124SOPE   H4X13264   5.706   1.270   3.777 -3.5606  2.2502  0.9556
  124SOPE   H4Y13265   5.711   1.442   3.817  1.1977  0.8396  0.4669
  124SOPE   C3513266   5.824   1.319   3.948 -0.2209 -0.2358 -0.6397
  124SOPE   H5X13267   5.863   1.411   3.996 -2.5124  1.2572 -1.4951
  124SOPE   H5Y13268   5.902   1.240   3.938  1.0129  0.8698 -0.1641
  124SOPE   C3613269   5.727   1.265   4.051 -0.8883 -0.7642  0.5008
  124SOPE   H6X13270   5.689   1.168   4.013  0.5996 -1.8247  1.6290
  124SOPE   H6Y13271   5.637   1.331   4.049 -0.9562 -0.8450  0.9092
  124SOPE   C3713272   5.780   1.246   4.199 -0.2041 -0.2541  0.1993
  124SOPE   H7X13273   5.823   1.340   4.241  1.5873 -1.2353  0.6225
  124SOPE   H7Y13274   5.862   1.171   4.200 -0.9676 -1.3353 -3.6070
  124SOPE   C3813275   5.673   1.197   4.292  0.0428  0.6006 -0.5915
  124SOPE   H8X13276   5.640   1.093   4.269  0.7358  0.6439 -1.9186
  124SOPE   H8Y13277   5.592   1.272   4.274  1.3601  2.1208 -0.3800
  124SOPE   C3913278   5.724   1.193   4.436  0.1276  0.3287 -0.2373
  124SOPE   H9X13279   5.773   1.287   4.471 -0.6278  1.2237 -1.5052
  124SOPE   H9Y13280   5.804   1.117   4.448  1.1526  1.6822  2.5326
  124SOPE  C31013281   5.608   1.171   4.538 -0.3307 -0.2646 -0.5109
  124SOPE  H10X13282   5.568   1.070   4.516 -0.4370 -0.5891  1.0586
  124SOPE  H10Y13283   5.527   1.247   4.538 -1.1309 -1.0832 -1.6441
  124SOPE  C31113284   5.669   1.153   4.678  0.5185 -0.3135  0.2052
  124SOPE  H11X13285   5.671   1.261   4.705 -2.5330  0.3063 -1.5501
  124SOPE  H11Y13286   5.771   1.111   4.664  0.5865 -0.0606 -0.0657
  124SOPE  C31213287   5.600   1.059   4.776  0.3158 -0.4183  0.3467
  124SOPE  H12X13288   5.607   0.962   4.722  1.7643  0.7297 -1.7069
  124SOPE  H12Y13289   5.499   1.104   4.781  0.6753  0.3041  1.5247
  124SOPE  C31313290   5.661   1.059   4.916 -0.0427 -0.3618  0.6568
  124SOPE  H13X13291   5.589   1.001   4.977  0.0972 -2.4532 -1.0730
  124SOPE  H13Y13292   5.662   1.165   4.952  1.4846 -0.8272  2.1086
  124SOPE  C31413293   5.804   0.995   4.919  0.6183  0.2009 -0.0058
  124SOPE  H14X13294   5.860   1.059   4.848 -0.9130 -0.2986 -1.7239
  124SOPE  H14Y13295   5.801   0.897   4.867  0.7957  1.0455 -1.6584
  124SOPE  C31513296   5.879   0.996   5.052 -0.3367 -0.3757 -0.2290
  124SOPE  H15X13297   5.850   1.092   5.101  0.7610  0.6290 -1.4639
  124SOPE  H15Y13298   5.988   0.986   5.036 -0.7557 -1.3425 -2.9469
  124SOPE  C31613299   5.828   0.874   5.133 -0.1953 -0.3039 -0.5095
  124SOPE  H16X13300   5.876   0.778   5.104  2.5661  0.7687  0.2321
  124SOPE  H16Y13301   5.718   0.863   5.122 -0.3082  1.4426 -1.4112
  124SOPE  C31713302   5.861   0.893   5.281  0.1843  0.5606  0.6015
  124SOPE  H17X13303   5.809   0.815   5.341 -0.6569  1.0764  0.5484
  124SOPE  H17Y13304   5.829   0.994   5.314  0.1331  0.2716  1.4551
  124SOPE  C31813305   6.010   0.874   5.312  0.1047 -0.0909  0.1932
  124SOPE  H18X13306   6.038   0.916   5.411 -1.3222 -0.3374  0.7249
  124SOPE  H18Y13307   6.064   0.936   5.238  0.1895  1.9561  1.8921
  124SOPE  H18Z13308   6.047   0.770   5.295 -0.4119  0.0852 -2.4050
  125SOPE     N13309   5.820   3.550   3.023 -0.0549 -0.0323  0.6152
  125SOPE   HN113310   5.825   3.625   3.095  0.1267  0.3604  0.2037
  125SOPE   HN213311   5.721   3.555   2.991 -0.5386 -0.3248  2.0028
  125SOPE   HN313312   5.836   3.461   3.074  1.1585  0.4401  1.0953
  125SOPE   C1213313   5.919   3.571   2.910 -0.5580  0.5050  0.5319
  125SOPE  H12A13314   5.884   3.651   2.841  0.3682  0.3569 -0.1246
  125SOPE  H12B13315   5.936   3.477   2.855  0.8348  1.5309 -0.8718
  125SOPE   C1113316   6.061   3.614   2.962  0.4920 -0.5311  0.2582
  125SOPE  H11A13317   6.082   3.560   3.057 -0.2510 -1.2452  0.0287
  125SOPE  H11B13318   6.057   3.722   2.985 -2.2792 -0.7352  1.0595
  125SOPE     P13319   6.253   3.475   2.873 -0.1995  0.1670 -0.1121
  125SOPE   O1313320   6.329   3.465   2.745  0.7038  0.0092  0.5106
  125SOPE   O1413321   6.182   3.349   2.919 -0.4859  0.1057 -0.4761
  125SOPE   O1213322   6.153   3.595   2.860 -0.2337  1.0169  0.4078
  125SOPE   O1113323   6.352   3.503   2.995 -0.4629 -0.1765  0.4896
  125SOPE    C113324   6.425   3.623   3.002  0.4755  0.2727 -0.1005
  125SOPE    HA13325   6.362   3.714   3.005 -0.7784 -0.5284 -1.3485
  125SOPE    HB13326   6.484   3.627   2.907 -1.2271 -0.1456 -1.2056
  125SOPE    C213327   6.526   3.611   3.117  0.0687 -0.7363 -0.0515
  125SOPE    HS13328   6.567   3.508   3.110 -2.5739 -1.8666 -0.1124
  125SOPE   O2113329   6.449   3.626   3.237  0.3969 -0.2758  0.0929
  125SOPE   C2113330   6.510   3.573   3.344  0.0403  0.5257 -0.2824
  125SOPE   O2213331   6.596   3.486   3.343  0.3539 -0.3259  0.5546
  125SOPE   C2213332   6.447   3.627   3.469 -0.9664  0.0675 -0.0757
  125SOPE   H2R13333   6.340   3.596   3.474 -1.1048  0.1310 -2.1580
  125SOPE   H2S13334   6.477   3.734   3.463 -0.7240 -0.0249 -0.4985
  125SOPE    C313335   6.636   3.727   3.109 -0.7402 -0.2767 -0.6621
  125SOPE    HX13336   6.583   3.823   3.092 -0.2793  0.3087  0.9896
  125SOPE    HY13337   6.706   3.708   3.025  1.5245  0.4041  0.9946
  125SOPE   O3113338   6.717   3.733   3.228 -0.1886 -0.4255 -0.4055
  125SOPE   C3113339   6.807   3.833   3.233 -0.1953 -0.2713  0.1018
  125SOPE   O3213340   6.844   3.900   3.138 -0.8188  0.0634 -0.1480
  125SOPE   C3213341   6.875   3.851   3.374 -0.0728  0.6074 -0.5741
  125SOPE   H2X13342   6.970   3.899   3.345  1.2202 -1.1436  0.5355
  125SOPE   H2Y13343   6.897   3.750   3.417 -1.0022  1.3610  1.8900
  125SOPE   C2313344   6.524   3.568   3.590  0.0526 -0.7093  0.2715
  125SOPE   H3R13345   6.633   3.578   3.574 -0.0819 -0.5532 -0.6354
  125SOPE   H3S13346   6.508   3.459   3.600  3.0206 -1.3778 -1.2967
  125SOPE   C2413347   6.489   3.634   3.718  0.0474 -0.2554  0.4587
  125SOPE   H4R13348   6.504   3.744   3.713  0.4572 -0.3470 -0.4546
  125SOPE   H4S13349   6.382   3.616   3.741  0.2139 -0.8561  0.7839
  125SOPE   C2513350   6.573   3.582   3.835 -0.6002  0.9216 -0.6282
  125SOPE   H5R13351   6.549   3.474   3.839 -0.5453  0.9122 -0.5529
  125SOPE   H5S13352   6.683   3.585   3.819 -0.6396  0.9031 -0.9189
  125SOPE   C2613353   6.528   3.654   3.963 -0.0480  0.1326 -0.3245
  125SOPE   H6R13354   6.576   3.755   3.957 -1.0265  0.7477  1.5207
  125SOPE   H6S13355   6.417   3.656   3.972 -0.1022 -0.2190 -0.8849
  125SOPE   C2713356   6.586   3.584   4.095 -0.2220 -0.0782 -0.3909
  125SOPE   H7R13357   6.563   3.475   4.088 -0.5157 -0.5151  4.3111
  125SOPE   H7S13358   6.696   3.593   4.107 -0.0322 -0.1927 -1.8217
  125SOPE   C2813359   6.518   3.638   4.229  0.5182 -0.3357  0.5392
  125SOPE   H8R13360   6.410   3.640   4.203  0.9031 -1.4042 -1.3368
  125SOPE   H8S13361   6.534   3.566   4.311  0.5255  0.8226  1.5889
  125SOPE   C2913362   6.554   3.784   4.255 -1.2343  0.5712  0.5385
  125SOPE   H9113363   6.516   3.860   4.185 -0.2663 -0.3093 -0.9873
  125SOPE  C21013364   6.607   3.828   4.370  0.2315 -0.0613  0.2988
  125SOPE  H10113365   6.616   3.937   4.383 -0.0141  0.3093 -2.1238
  125SOPE  C21113366   6.658   3.739   4.484  1.0451  0.1248 -0.0717
  125SOPE  H11R13367   6.735   3.791   4.544 -1.9606  1.8732  2.6363
  125SOPE  H11S13368   6.698   3.644   4.442  0.0408  0.0589 -0.9225
  125SOPE  C21213369   6.538   3.702   4.574 -0.2206 -0.5535  0.6740
  125SOPE  H12R13370   6.453   3.672   4.509 -0.8785  1.4788  0.5238
  125SOPE  H12S13371   6.510   3.789   4.638 -2.6992 -0.5184 -0.3391
  125SOPE  C21313372   6.585   3.590   4.664  0.6267  0.2286 -0.2726
  125SOPE  H13R13373   6.630   3.509   4.603  1.0067 -0.2206  0.5880
  125SOPE  H13S13374   6.494   3.552   4.714 -0.4023  0.7018 -1.7308
  125SOPE  C21413375   6.682   3.629   4.775  0.3915 -0.4851 -0.3401
  125SOPE  H14R13376   6.768   3.689   4.738  1.2320 -0.2340  1.8436
  125SOPE  H14S13377   6.719   3.529   4.804 -1.5793 -1.2709 -0.3648
  125SOPE  C21513378   6.620   3.705   4.897 -0.2545 -0.2556 -0.0223
  125SOPE  H15R13379   6.536   3.649   4.944 -1.9862  2.3466  0.1682
  125SOPE  H15S13380   6.571   3.795   4.855 -4.3426 -1.4736  1.6071
  125SOPE  C21613381   6.724   3.729   5.013 -0.0644 -0.4682  0.5136
  125SOPE  H16R13382   6.826   3.755   4.977 -0.6006  0.2217 -0.5372
  125SOPE  H16S13383   6.728   3.636   5.075  1.5257 -0.8774 -0.1594
  125SOPE  C21713384   6.673   3.853   5.086  0.2309 -0.0912 -0.4519
  125SOPE  H17R13385   6.568   3.833   5.115 -0.5549 -0.1065 -3.0477
  125SOPE  H17S13386   6.662   3.940   5.018  1.0433  2.1522  2.0995
  125SOPE  C21813387   6.749   3.909   5.208 -0.3772  0.5854  0.7759
  125SOPE  H18R13388   6.747   3.819   5.275  1.0114 -2.0137 -2.4137
  125SOPE  H18S13389   6.698   4.002   5.241  0.0356  1.4252 -0.8740
  125SOPE  H18T13390   6.857   3.922   5.190 -0.3199 -0.6965  0.0313
  125SOPE   C3313391   6.796   3.926   3.483  0.1169  0.1279 -0.2416
  125SOPE   H3X13392   6.704   3.867   3.501 -0.0741  0.4730 -0.0739
  125SOPE   H3Y13393   6.766   4.031   3.461  0.6210  0.6417  1.3946
  125SOPE   C3413394   6.866   3.920   3.617  0.1686  0.5759  0.0313
  125SOPE   H4X13395   6.966   3.968   3.616  0.6395 -0.1200  3.0653
  125SOPE   H4Y13396   6.871   3.810   3.633 -0.2054  0.6396  0.6292
  125SOPE   C3513397   6.778   3.977   3.731 -0.0281  0.9200  0.8396
  125SOPE   H5X13398   6.685   3.918   3.747 -0.7150  1.1713 -1.7654
  125SOPE   H5Y13399   6.748   4.077   3.695 -0.3238 -0.4917 -3.3875
  125SOPE   C3613400   6.860   3.989   3.861 -0.2487  0.1997  0.3637
  125SOPE   H6X13401   6.919   4.083   3.853 -0.6859  0.4951  0.5331
  125SOPE   H6Y13402   6.936   3.908   3.864  3.3386  3.2334 -0.3034
  125SOPE   C3713403   6.776   3.999   3.990 -0.2042  0.1135  0.8638
  125SOPE   H7X13404   6.842   3.973   4.075 -0.9494 -1.5570  0.9788
  125SOPE   H7Y13405   6.685   3.935   3.986 -0.5210  0.5597 -2.7875
  125SOPE   C3813406   6.718   4.137   4.021 -0.6278 -0.6343 -0.0294
  125SOPE   H8X13407   6.642   4.169   3.947 -1.0054 -1.4841 -0.0148
  125SOPE   H8Y13408   6.805   4.205   4.012  0.4555 -2.2439 -3.2934
  125SOPE   C3913409   6.659   4.159   4.155  0.4521  0.1612 -0.1828
  125SOPE   H9X13410   6.587   4.083   4.190 -0.7472  1.5068  0.3540
  125SOPE   H9Y13411   6.602   4.254   4.145  1.4576  0.7992 -0.0213
  125SOPE  C31013412   6.771   4.189   4.254  0.2856 -0.4286 -0.7784
  125SOPE  H10X13413   6.832   4.273   4.217  1.0201 -1.6321 -2.4206
  125SOPE  H10Y13414   6.838   4.101   4.264  2.7937  0.9172 -4.2153
  125SOPE  C31113415   6.714   4.214   4.396  0.1281 -0.0199 -0.3709
  125SOPE  H11X13416   6.607   4.186   4.411 -0.3109  1.8285  0.2250
  125SOPE  H11Y13417   6.721   4.323   4.414 -1.0725  0.0454 -0.2141
  125SOPE  C31213418   6.795   4.148   4.506 -0.0107 -0.4681 -0.3068
  125SOPE  H12X13419   6.889   4.205   4.522  0.0466 -0.8435  0.7849
  125SOPE  H12Y13420   6.805   4.038   4.491 -1.7563 -0.4834 -1.7114
  125SOPE  C31313421   6.718   4.156   4.643  0.5224  0.3732  1.0037
  125SOPE  H13X13422   6.765   4.095   4.723 -1.9810 -1.8592  0.9478
  125SOPE  H13Y13423   6.618   4.107   4.632  0.7071  0.0902  0.5611
  125SOPE  C31413424   6.689   4.296   4.694  0.2899 -0.6904  0.4823
  125SOPE  H14X13425   6.657   4.373   4.621  0.6439 -0.0052  1.0343
  125SOPE  H14Y13426   6.787   4.341   4.720 -0.0826 -0.2835  1.2325
  125SOPE  C31513427   6.597   4.304   4.817  0.2362 -0.6500  0.0280
  125SOPE  H15X13428   6.503   4.249   4.797  0.1021 -1.0888  1.7186
  125SOPE  H15Y13429   6.580   4.413   4.827 -0.8373 -0.8978  1.1635
  125SOPE  C31613430   6.665   4.247   4.938 -0.2712  0.1699 -0.1058
  125SOPE  H16X13431   6.752   4.314   4.958 -0.3797  1.2457 -2.8081
  125SOPE  H16Y13432   6.704   4.143   4.930  1.1585  0.6854 -0.2869
  125SOPE  C31713433   6.577   4.260   5.069 -0.3195 -0.2671 -0.4602
  125SOPE  H17X13434   6.548   4.367   5.073  2.6009  0.6279 -0.9741
  125SOPE  H17Y13435   6.636   4.231   5.159 -2.4082 -0.1899  0.9855
  125SOPE  C31813436   6.463   4.165   5.071 -0.0206 -0.0432 -0.1806
  125SOPE  H18X13437   6.398   4.203   5.152  0.1180 -0.4756  0.1381
  125SOPE  H18Y13438   6.495   4.062   5.100 -0.4910 -0.6994 -1.8271
  125SOPE  H18Z13439   6.398   4.163   4.981 -0.2852 -0.6415  0.0173
  126SOPE     N13440   4.521   5.460   2.759  0.6591 -0.3322 -1.2717
  126SOPE   HN113441   4.578   5.380   2.725 -0.3526 -1.9268  0.6358
  126SOPE   HN213442   4.575   5.549   2.756 -0.6064  0.5953  0.9053
  126SOPE   HN313443   4.514   5.453   2.862  1.9896  2.1175 -0.9303
  126SOPE   C1213444   4.388   5.461   2.682  0.2584  0.1365  0.1728
  126SOPE  H12A13445   4.401   5.455   2.572 -2.2535  0.3624 -0.2036
  126SOPE  H12B13446   4.335   5.558   2.697 -1.5652 -0.6788 -0.6545
  126SOPE   C1113447   4.307   5.336   2.721  0.0782  0.1704  0.7562
  126SOPE  H11A13448   4.215   5.331   2.659  0.5345 -1.9882  0.1978
  126SOPE  H11B13449   4.284   5.341   2.830  0.2375  2.4552  0.7337
  126SOPE     P13450   4.335   5.074   2.728 -0.2577  0.5514 -0.4101
  126SOPE   O1313451   4.388   4.970   2.634 -1.0406  0.0041 -0.1209
  126SOPE   O1413452   4.189   5.059   2.749 -0.4596  0.3443 -0.0430
  126SOPE   O1213453   4.379   5.215   2.689  0.1256  0.0113  0.3434
  126SOPE   O1113454   4.403   5.047   2.868  0.1381  0.3405 -0.2105
  126SOPE    C113455   4.360   5.124   2.981 -0.4863  0.8448  0.1764
  126SOPE    HA13456   4.251   5.145   2.981 -0.2898  1.9011 -0.1084
  126SOPE    HB13457   4.414   5.220   2.996 -0.1712  0.5844  0.7382
  126SOPE    C213458   4.374   5.034   3.111  0.1004  0.1109 -0.0069
  126SOPE    HS13459   4.308   5.079   3.189  0.2809  1.0316 -0.3698
  126SOPE   O2113460   4.512   5.012   3.165 -0.8159  0.1946  0.4341
  126SOPE   C2113461   4.561   5.121   3.227 -0.4280  0.3715 -0.0874
  126SOPE   O2213462   4.495   5.221   3.250  0.3316  0.0033 -0.3790
  126SOPE   C2213463   4.697   5.093   3.290  0.7049  0.3365 -0.7226
  126SOPE   H2R13464   4.777   5.111   3.215  1.6919 -0.5828  0.0828
  126SOPE   H2S13465   4.699   4.986   3.319 -1.1830  0.4426 -0.0780
  126SOPE    C313466   4.308   4.896   3.100 -0.3234 -0.9183 -0.4088
  126SOPE    HX13467   4.383   4.829   3.052  0.1091  0.1566 -1.2763
  126SOPE    HY13468   4.218   4.915   3.038 -0.8489 -0.8788  0.3483
  126SOPE   O3113469   4.266   4.854   3.232  0.3625 -0.1715 -0.5040
  126SOPE   C3113470   4.347   4.775   3.293 -0.6037  0.7600 -0.1660
  126SOPE   O3213471   4.450   4.727   3.249 -0.4796 -0.5301  0.3043
  126SOPE   C3213472   4.308   4.749   3.441  0.0727  0.5670  0.3988
  126SOPE   H2X13473   4.244   4.659   3.450  2.0408 -0.6375  4.2918
  126SOPE   H2Y13474   4.259   4.841   3.481 -1.0537  0.1982 -0.0901
  126SOPE   C2313475   4.737   5.184   3.413 -0.0917 -0.4012  0.3769
  126SOPE   H3R13476   4.717   5.292   3.393 -1.2195 -0.6198  0.2682
  126SOPE   H3S13477   4.847   5.186   3.429  0.0851  0.5095 -0.8282
  126SOPE   C2413478   4.681   5.125   3.536  0.5126  0.1898 -0.5441
  126SOPE   H4R13479   4.571   5.117   3.523  0.5617  0.0495 -0.8884
  126SOPE   H4S13480   4.714   5.021   3.552  0.1593  0.4441  2.3663
  126SOPE   C2513481   4.715   5.210   3.665 -0.4246  0.7875  0.3999
  126SOPE   H5R13482   4.821   5.241   3.674 -0.0796 -0.6516  1.8007
  126SOPE   H5S13483   4.660   5.306   3.652 -0.0021  0.6573 -3.0786
  126SOPE   C2613484   4.673   5.156   3.803  0.8017  0.1725  0.3105
  126SOPE   H6R13485   4.566   5.129   3.813  0.7480  0.2457 -0.0302
  126SOPE   H6S13486   4.735   5.064   3.813 -0.5147 -0.8074 -0.2995
  126SOPE   C2713487   4.705   5.247   3.927  0.1843 -0.0313 -0.1279
  126SOPE   H7R13488   4.661   5.347   3.910  0.9311  0.8234  2.5482
  126SOPE   H7S13489   4.658   5.211   4.021  1.0394 -1.0990 -0.0859
  126SOPE   C2813490   4.860   5.270   3.949  0.1949 -0.2846  0.2101
  126SOPE   H8R13491   4.915   5.292   3.854 -2.5143 -2.7888 -2.1138
  126SOPE   H8S13492   4.857   5.366   4.006 -1.7658  0.2446 -0.7184
  126SOPE   C2913493   4.915   5.158   4.038  0.9305 -0.4223 -0.1253
  126SOPE   H9113494   4.944   5.070   3.979 -1.6875 -1.7079  0.3561
  126SOPE  C21013495   4.930   5.166   4.173 -0.2184  0.7560  0.0133
  126SOPE  H10113496   4.962   5.078   4.230 -0.2565  0.5399 -0.2941
  126SOPE  C21113497   4.897   5.287   4.255  0.5509  0.0166  0.4348
  126SOPE  H11R13498   4.811   5.340   4.209 -1.5664 -1.0336  2.9315
  126SOPE  H11S13499   4.986   5.352   4.267  2.2218 -2.3270  1.7817
  126SOPE  C21213500   4.869   5.254   4.403 -0.4493  0.2095  0.0941
  126SOPE  H12R13501   4.782   5.186   4.417 -1.6930  1.8245  0.4899
  126SOPE  H12S13502   4.836   5.347   4.454  1.6498  1.8118 -1.2870
  126SOPE  C21313503   4.999   5.201   4.477 -0.9350 -0.3277 -0.0581
  126SOPE  H13R13504   5.082   5.270   4.452 -0.0728 -0.6624  1.6948
  126SOPE  H13S13505   5.023   5.096   4.449 -0.5818 -0.2969  0.1231
  126SOPE  C21413506   4.988   5.218   4.629  0.0483 -0.1437 -0.1651
  126SOPE  H14R13507   4.965   5.322   4.663  0.9444 -0.4599  1.5062
  126SOPE  H14S13508   5.091   5.194   4.662  0.2843 -2.0416 -2.1076
  126SOPE  C21513509   4.896   5.120   4.699  0.8068  0.0957 -0.5500
  126SOPE  H15R13510   4.928   5.014   4.706  3.2089  0.8628  1.0585
  126SOPE  H15S13511   4.795   5.112   4.652  0.0212  0.1754  1.0385
  126SOPE  C21613512   4.864   5.151   4.852 -0.7188 -0.9359  0.7151
  126SOPE  H16R13513   4.954   5.166   4.915  1.0737 -0.5842 -1.7905
  126SOPE  H16S13514   4.804   5.068   4.896 -1.3917 -0.4829  0.6799
  126SOPE  C21713515   4.783   5.282   4.870  0.4316 -0.5218 -0.5470
  126SOPE  H17R13516   4.681   5.267   4.828 -0.9467  1.1350  1.9311
  126SOPE  H17S13517   4.825   5.367   4.812 -0.2347  0.7889  0.8134
  126SOPE  C21813518   4.754   5.322   5.018 -0.3530 -0.1133 -0.7684
  126SOPE  H18R13519   4.828   5.391   5.064  1.0885 -1.0415 -1.6193
  126SOPE  H18S13520   4.750   5.235   5.088 -0.1313  0.0716 -0.5227
  126SOPE  H18T13521   4.655   5.372   5.025  0.6499  2.1697 -1.8349
  126SOPE   C3313522   4.421   4.708   3.537  0.1833  0.4725 -0.7162
  126SOPE   H3X13523   4.465   4.623   3.482  1.5945  1.6496 -1.4597
  126SOPE   H3Y13524   4.373   4.662   3.626 -0.7240  0.2625 -1.3019
  126SOPE   C3413525   4.524   4.816   3.575 -0.0230 -0.0734  0.0568
  126SOPE   H4X13526   4.465   4.892   3.631  0.2315  1.3463 -1.5012
  126SOPE   H4Y13527   4.574   4.861   3.486  1.0086 -0.3193  0.5006
  126SOPE   C3513528   4.645   4.757   3.650  0.0096 -0.4756 -0.2634
  126SOPE   H5X13529   4.717   4.841   3.666 -0.9264  0.8164 -2.3445
  126SOPE   H5Y13530   4.700   4.689   3.582 -0.0272  3.4036 -4.6781
  126SOPE   C3613531   4.600   4.698   3.794 -0.5558 -0.1143  0.1231
  126SOPE   H6X13532   4.684   4.648   3.847 -1.8849 -3.3025 -0.5416
  126SOPE   H6Y13533   4.525   4.617   3.780  0.7839 -1.7215  1.6892
  126SOPE   C3713534   4.545   4.811   3.888  0.2586  0.1990  1.1235
  126SOPE   H7X13535   4.450   4.866   3.871  1.1204  1.5001  0.4223
  126SOPE   H7Y13536   4.618   4.894   3.901 -0.0403  0.9429 -1.4454
  126SOPE   C3813537   4.534   4.757   4.031 -0.1628 -0.3232 -0.3437
  126SOPE   H8X13538   4.627   4.697   4.039 -0.1239 -0.9844 -3.9126
  126SOPE   H8Y13539   4.447   4.688   4.030  0.4333 -1.0851 -0.9527
  126SOPE   C3913540   4.517   4.865   4.134  0.1500  0.1877 -0.2943
  126SOPE   H9X13541   4.413   4.901   4.116 -1.0342 -2.1007  1.5962
  126SOPE   H9Y13542   4.582   4.950   4.102 -0.8341 -0.6710 -5.6160
  126SOPE  C31013543   4.529   4.800   4.280 -0.0678 -0.3602  0.3288
  126SOPE  H10X13544   4.628   4.748   4.289  0.2835  0.2301 -0.0565
  126SOPE  H10Y13545   4.448   4.725   4.292  0.9858 -1.2263  2.6461
  126SOPE  C31113546   4.516   4.905   4.394  0.3145 -0.5981  0.7139
  126SOPE  H11X13547   4.423   4.958   4.363  0.7477 -1.8212 -3.1452
  126SOPE  H11Y13548   4.601   4.976   4.383  0.4516 -0.4996  2.1873
  126SOPE  C31213549   4.507   4.844   4.530 -0.4686  0.0506  0.6977
  126SOPE  H12X13550   4.563   4.748   4.540 -0.2708  0.1418  0.4531
  126SOPE  H12Y13551   4.400   4.819   4.550 -0.6359  0.4122  0.2660
  126SOPE  C31313552   4.553   4.941   4.641 -0.5697 -0.2310 -0.6913
  126SOPE  H13X13553   4.526   5.043   4.605  3.7718  2.7691  3.3364
  126SOPE  H13Y13554   4.664   4.936   4.647 -0.3907  1.0333 -2.3771
  126SOPE  C31413555   4.482   4.919   4.781  0.0049  0.2101  0.0451
  126SOPE  H14X13556   4.520   4.996   4.851  3.2964  0.3840 -1.7224
  126SOPE  H14Y13557   4.506   4.815   4.815 -2.6876 -0.1370  1.1902
  126SOPE  C31513558   4.331   4.922   4.788  0.7032  0.2323  0.7642
  126SOPE  H15X13559   4.281   4.852   4.718 -0.7944  1.5318  0.4709
  126SOPE  H15Y13560   4.298   5.027   4.774 -0.1147 -0.4071 -3.6328
  126SOPE  C31613561   4.295   4.876   4.932 -0.4158  1.1620  0.2245
  126SOPE  H16X13562   4.361   4.925   5.007  2.0979 -0.2660 -0.8939
  126SOPE  H16Y13563   4.304   4.768   4.953 -0.8023  1.2667  0.9336
  126SOPE  C31713564   4.162   4.937   4.990  0.6070 -0.3610  0.4279
  126SOPE  H17X13565   4.147   4.901   5.094  0.8252 -1.4203  0.1052
  126SOPE  H17Y13566   4.077   4.903   4.927 -0.1936 -1.5929  2.1154
  126SOPE  C31813567   4.152   5.092   5.002  0.0313  0.2921 -0.6076
  126SOPE  H18X13568   4.219   5.111   5.089 -0.7158 -1.5313  0.4344
  126SOPE  H18Y13569   4.054   5.131   5.035  0.5859  1.6896 -0.5763
  126SOPE  H18Z13570   4.184   5.144   4.909  1.2095 -0.7074 -0.8047
  127SOPE     N13571   2.013   1.480   2.917  0.4501  0.4442  0.6529
  127SOPE   HN113572   1.932   1.420   2.941  1.1355 -0.0396  1.8141
  127SOPE   HN213573   1.990   1.574   2.954  0.9487 -0.2265  2.7628
  127SOPE   HN313574   2.019   1.475   2.813 -1.7945 -1.2933  0.5258
  127SOPE   C1213575   2.125   1.418   2.993 -0.5941 -0.4095  0.1558
  127SOPE  H12A13576   2.144   1.320   2.945  1.9054 -0.8291  1.8312
  127SOPE  H12B13577   2.100   1.406   3.101 -1.3200  0.5373  0.1129
  127SOPE   C1113578   2.251   1.509   2.977 -0.4467  0.4927 -0.7885
  127SOPE  H11A13579   2.322   1.457   3.045 -0.6419  0.5556 -0.5339
  127SOPE  H11B13580   2.228   1.610   3.019  0.4517  0.0393  0.8803
  127SOPE     P13581   2.452   1.517   2.806  0.1485  0.0811 -0.3241
  127SOPE   O1313582   2.480   1.641   2.729 -0.1451  0.2631 -0.4409
  127SOPE   O1413583   2.481   1.383   2.751 -0.3270 -0.2087 -0.0322
  127SOPE   O1213584   2.295   1.526   2.840 -0.2080 -0.0040 -0.1497
  127SOPE   O1113585   2.531   1.536   2.952 -0.7852  0.0362  0.3139
  127SOPE    C113586   2.624   1.438   2.998  0.3603 -0.3257 -0.2391
  127SOPE    HA13587   2.689   1.411   2.912 -1.0382  0.3069 -1.5456
  127SOPE    HB13588   2.568   1.349   3.032  0.0873 -0.2640 -0.5169
  127SOPE    C213589   2.704   1.495   3.111 -0.3304 -0.9276  0.1058
  127SOPE    HS13590   2.764   1.419   3.167  0.2015  0.2960  1.2408
  127SOPE   O2113591   2.620   1.562   3.207 -0.0783 -0.5427  0.2559
  127SOPE   C2113592   2.529   1.495   3.272  0.3239  0.7454  0.8784
  127SOPE   O2213593   2.510   1.376   3.269 -0.1732  0.6650  0.2288
  127SOPE   C2213594   2.443   1.588   3.351 -0.2562  0.2573  0.3161
  127SOPE   H2R13595   2.358   1.612   3.283 -0.3811 -2.5799 -0.6696
  127SOPE   H2S13596   2.503   1.677   3.379  3.2097 -2.3275  1.8043
  127SOPE    C313597   2.808   1.597   3.043  0.5475 -0.1215  0.2096
  127SOPE    HX13598   2.746   1.661   2.976  0.4349 -0.8756 -0.4214
  127SOPE    HY13599   2.867   1.539   2.969  1.0005  1.3194 -0.5797
  127SOPE   O3113600   2.896   1.661   3.135 -0.6646  0.5337  0.6029
  127SOPE   C3113601   2.868   1.782   3.171 -1.2057  0.8987  0.1864
  127SOPE   O3213602   2.772   1.843   3.123 -0.1617  0.0271 -0.7592
  127SOPE   C3213603   2.951   1.823   3.289 -0.4123  0.6456 -0.1359
  127SOPE   H2X13604   3.058   1.825   3.258 -0.6715 -1.8049 -1.3893
  127SOPE   H2Y13605   2.943   1.742   3.364 -0.7283  1.8819  1.1922
  127SOPE   C2313606   2.387   1.527   3.482  0.3646  0.2464  0.0720
  127SOPE   H3R13607   2.458   1.454   3.526  1.2829  0.2884 -1.2905
  127SOPE   H3S13608   2.300   1.464   3.453  1.9774 -2.9622  1.6882
  127SOPE   C2413609   2.359   1.628   3.589  0.0720 -0.3561  0.1862
  127SOPE   H4R13610   2.449   1.687   3.616 -0.1605  0.3011 -0.4351
  127SOPE   H4S13611   2.290   1.707   3.553  1.8696  0.4625 -1.6719
  127SOPE   C2513612   2.318   1.553   3.712 -0.1725 -0.2516 -0.0861
  127SOPE   H5R13613   2.217   1.509   3.700 -0.7817  1.1341 -0.2549
  127SOPE   H5S13614   2.387   1.467   3.722 -2.2749 -1.9253  0.7318
  127SOPE   C2613615   2.331   1.647   3.830 -0.4529 -0.0233 -0.2141
  127SOPE   H6R13616   2.438   1.655   3.858 -1.5105 -0.6467  4.7861
  127SOPE   H6S13617   2.299   1.751   3.806 -2.5404 -0.4561  0.5005
  127SOPE   C2713618   2.270   1.581   3.946 -0.0710 -0.4954  0.2576
  127SOPE   H7R13619   2.159   1.579   3.934  0.0997 -4.0052 -2.2488
  127SOPE   H7S13620   2.289   1.472   3.933 -1.7672 -0.8824  0.7427
  127SOPE   C2813621   2.307   1.619   4.091  0.5286 -0.9133 -0.4697
  127SOPE   H8R13622   2.240   1.556   4.154 -1.7563  2.0707  0.2779
  127SOPE   H8S13623   2.407   1.578   4.120  0.8867  0.2207 -0.0650
  127SOPE   C2913624   2.273   1.765   4.108 -0.2916  0.2125 -0.7763
  127SOPE   H9113625   2.287   1.826   4.018 -0.4898  2.6975  0.7677
  127SOPE  C21013626   2.229   1.832   4.216 -0.4535 -0.1504  0.2923
  127SOPE  H10113627   2.214   1.940   4.208 -0.9255 -0.2998 -1.2527
  127SOPE  C21113628   2.205   1.777   4.350 -0.1546 -0.4413 -1.0392
  127SOPE  H11R13629   2.182   1.668   4.345  0.8058 -0.6294 -1.7151
  127SOPE  H11S13630   2.120   1.828   4.400  0.4306 -0.8158  0.3781
  127SOPE  C21213631   2.327   1.815   4.443  0.5954 -0.1119 -0.1642
  127SOPE  H12R13632   2.423   1.783   4.397  0.3201 -1.1101 -0.0769
  127SOPE  H12S13633   2.323   1.766   4.542  0.2848  0.0213 -0.1093
  127SOPE  C21313634   2.333   1.970   4.472 -0.3821  0.1189  0.1363
  127SOPE  H13R13635   2.307   2.032   4.384 -0.5667 -1.4262 -0.9454
  127SOPE  H13S13636   2.442   1.977   4.492 -0.1745 -1.2258 -0.4133
  127SOPE  C21413637   2.266   2.018   4.603  0.7206 -0.6496  0.5668
  127SOPE  H14R13638   2.254   2.127   4.591  4.8698 -0.2675 -1.8220
  127SOPE  H14S13639   2.329   2.009   4.694 -1.6316 -1.1635  2.2666
  127SOPE  C21513640   2.131   1.954   4.628  0.2509  0.0327 -0.2804
  127SOPE  H15R13641   2.145   1.846   4.648 -2.3582  0.0785  2.5906
  127SOPE  H15S13642   2.074   1.967   4.534  0.4309 -1.3374 -0.5970
  127SOPE  C21613643   2.043   2.005   4.740  0.0931 -0.5874 -0.0702
  127SOPE  H16R13644   2.003   2.104   4.710 -2.7086 -0.6641  2.8797
  127SOPE  H16S13645   2.098   2.029   4.833 -0.3308  1.7646 -0.3552
  127SOPE  C21713646   1.916   1.920   4.772 -0.1969  0.1324 -1.1753
  127SOPE  H17R13647   1.879   1.885   4.673  1.3506  1.1787 -2.1824
  127SOPE  H17S13648   1.851   1.976   4.842  1.0124 -0.4387  0.4696
  127SOPE  C21813649   1.947   1.791   4.849  0.4799 -0.1154 -0.5179
  127SOPE  H18R13650   1.878   1.705   4.837 -0.7838  0.4710  1.9191
  127SOPE  H18S13651   1.934   1.812   4.957  2.5875  1.9817 -0.6019
  127SOPE  H18T13652   2.052   1.763   4.827  0.5564  0.2628 -0.6393
  127SOPE   C3313653   2.906   1.956   3.349  0.0715 -0.2308 -0.5379
  127SOPE   H3X13654   2.806   1.941   3.396  0.2817  0.8816  0.3062
  127SOPE   H3Y13655   2.901   2.031   3.267 -2.6640  0.7696  0.4348
  127SOPE   C3413656   2.996   1.992   3.464  0.1021 -0.0810 -0.5180
  127SOPE   H4X13657   3.092   2.035   3.429  0.2946  0.5346  0.7065
  127SOPE   H4Y13658   3.013   1.897   3.520 -1.0723  0.5394  0.9836
  127SOPE   C3513659   2.925   2.085   3.558  0.5473 -0.4795 -0.2623
  127SOPE   H5X13660   2.815   2.072   3.559  0.2296  1.7980  1.7167
  127SOPE   H5Y13661   2.954   2.187   3.525  0.7223 -0.0124  1.2732
  127SOPE   C3613662   2.973   2.076   3.705  0.0493  0.5652  0.2619
  127SOPE   H6X13663   3.077   2.038   3.716  0.6333  1.6851 -1.0514
  127SOPE   H6Y13664   2.912   1.998   3.755  2.7838 -0.6661  1.9268
  127SOPE   C3713665   2.962   2.210   3.780 -0.8263 -0.3528  0.6388
  127SOPE   H7X13666   3.039   2.283   3.745  1.5515 -1.7798  2.5912
  127SOPE   H7Y13667   2.997   2.187   3.882  1.2546  0.5940  0.2075
  127SOPE   C3813668   2.817   2.256   3.785 -0.0987  0.1078  0.4017
  127SOPE   H8X13669   2.757   2.190   3.852 -0.3587  1.0994  1.1721
  127SOPE   H8Y13670   2.779   2.249   3.681 -0.3494 -0.6252  0.5375
  127SOPE   C3913671   2.802   2.408   3.826  0.0839  0.1574 -0.2962
  127SOPE   H9X13672   2.696   2.443   3.820 -0.2831 -0.8301  0.3319
  127SOPE   H9Y13673   2.871   2.462   3.758  0.7028  0.5619  0.6314
  127SOPE  C31013674   2.852   2.428   3.964 -0.7153 -1.1419 -0.1089
  127SOPE  H10X13675   2.960   2.403   3.964 -0.9702 -2.3789 -1.6418
  127SOPE  H10Y13676   2.803   2.365   4.042  0.0477 -2.1163 -0.4004
  127SOPE  C31113677   2.829   2.574   4.003 -0.1245 -0.1152  0.0127
  127SOPE  H11X13678   2.722   2.594   3.985  0.4418  0.9186 -2.6654
  127SOPE  H11Y13679   2.888   2.645   3.941  0.1687 -0.4545 -0.0979
  127SOPE  C31213680   2.850   2.598   4.148 -0.0671 -0.0063  0.2800
  127SOPE  H12X13681   2.934   2.536   4.186 -1.2928 -0.2402  2.8066
  127SOPE  H12Y13682   2.763   2.564   4.207 -1.1563 -0.2525 -1.4122
  127SOPE  C31313683   2.874   2.748   4.181 -0.1840  0.2328 -0.2292
  127SOPE  H13X13684   2.826   2.808   4.101  0.7027  1.1597 -0.0824
  127SOPE  H13Y13685   2.984   2.763   4.184 -0.1556 -0.0849  0.8321
  127SOPE  C31413686   2.830   2.807   4.317 -0.4321  0.2978 -0.1777
  127SOPE  H14X13687   2.726   2.771   4.331 -1.5187  3.0587 -0.5625
  127SOPE  H14Y13688   2.833   2.918   4.325 -1.2933  0.2520  1.0898
  127SOPE  C31513689   2.926   2.756   4.430 -0.2195 -0.4824  0.1001
  127SOPE  H15X13690   3.033   2.757   4.402 -0.6660 -2.1800 -1.8977
  127SOPE  H15Y13691   2.896   2.650   4.441 -1.1127 -0.1729  0.8790
  127SOPE  C31613692   2.919   2.834   4.564  0.2536  0.0137 -0.2974
  127SOPE  H16X13693   2.956   2.770   4.647 -4.0338  0.2145  2.0643
  127SOPE  H16Y13694   2.811   2.853   4.579  0.2782 -0.0208 -0.0830
  127SOPE  C31713695   2.981   2.973   4.564 -0.3446 -0.2914 -0.0918
  127SOPE  H17X13696   2.937   3.034   4.481 -0.4622 -1.3093 -0.7929
  127SOPE  H17Y13697   3.091   2.962   4.554 -0.3287  0.1508 -0.4997
  127SOPE  C31813698   2.958   3.041   4.704  0.1344  0.1138  0.0894
  127SOPE  H18X13699   2.973   3.150   4.689 -1.4693  0.1830 -1.2798
  127SOPE  H18Y13700   3.015   2.989   4.784  2.2706  0.3260 -1.1989
  127SOPE  H18Z13701   2.850   3.024   4.725  0.1210 -1.1356 -0.8931
  128SOPE     N13702   2.150   1.250   2.290 -0.2421 -0.1785  0.5470
  128SOPE   HN113703   2.125   1.303   2.204  0.7155  0.1497  0.4556
  128SOPE   HN213704   2.173   1.314   2.368  0.1587 -0.7198  0.8795
  128SOPE   HN313705   2.234   1.195   2.262  0.6756  2.1346 -1.7029
  128SOPE   C1213706   2.032   1.157   2.333 -0.0734  0.0807  0.4637
  128SOPE  H12A13707   2.020   1.081   2.254 -0.9622  0.8722 -0.1850
  128SOPE  H12B13708   1.944   1.225   2.343 -0.9040 -1.1465  2.0608
  128SOPE   C1113709   2.062   1.091   2.469  0.6493 -0.5506 -0.0901
  128SOPE  H11A13710   2.145   1.018   2.453  0.1556 -0.7983 -1.7504
  128SOPE  H11B13711   1.974   1.029   2.495  0.8986 -1.0025 -0.3033
  128SOPE     P13712   1.980   1.253   2.653 -0.0235 -0.3665  0.1331
  128SOPE   O1313713   1.847   1.224   2.596  0.3136 -0.7719  0.4710
  128SOPE   O1413714   2.010   1.398   2.668  0.1288 -0.1196  0.3191
  128SOPE   O1213715   2.092   1.185   2.575 -0.3571  0.1891  0.4145
  128SOPE   O1113716   1.984   1.186   2.798  0.4342  0.3846  0.2669
  128SOPE    C113717   2.073   1.082   2.826  0.1472  0.1552 -0.7657
  128SOPE    HA13718   2.178   1.118   2.826 -0.0771  1.0851  1.9129
  128SOPE    HB13719   2.054   1.004   2.749 -0.3584 -0.1353 -0.3506
  128SOPE    C213720   2.032   1.017   2.959  0.3287 -0.3794 -0.5546
  128SOPE    HS13721   1.923   1.033   2.968  0.3817  0.1293 -0.7832
  128SOPE   O2113722   2.097   1.094   3.058 -0.2576 -0.0069  0.1210
  128SOPE   C2113723   2.031   1.097   3.183 -0.3992  0.5891  0.3223
  128SOPE   O2213724   1.924   1.052   3.206 -0.1787 -0.1896  0.1840
  128SOPE   C2213725   2.128   1.169   3.291  0.6951  0.7362 -0.2992
  128SOPE   H2R13726   2.142   1.276   3.265  1.1822  0.4961 -1.0495
  128SOPE   H2S13727   2.225   1.116   3.284 -0.9387 -2.6760  0.7367
  128SOPE    C313728   2.064   0.863   2.976 -0.9149 -0.3521  0.2240
  128SOPE    HX13729   2.173   0.861   2.998 -0.1844  0.0853 -2.8660
  128SOPE    HY13730   2.055   0.810   2.879  4.5491 -0.8539 -0.3293
  128SOPE   O3113731   2.001   0.802   3.086  0.3420  0.0791 -0.4919
  128SOPE   C3113732   1.875   0.745   3.074  0.4637 -0.2748 -0.3351
  128SOPE   O3213733   1.820   0.720   2.971  0.4027  0.6229  0.3373
  128SOPE   C3213734   1.826   0.722   3.218  0.0708 -0.8341  0.4163
  128SOPE   H2X13735   1.795   0.825   3.245 -2.5014 -1.0285 -1.3900
  128SOPE   H2Y13736   1.906   0.681   3.283 -0.4529 -1.6508  0.5661
  128SOPE   C2313737   2.079   1.136   3.432 -0.0746  0.3165 -0.1443
  128SOPE   H3R13738   2.050   1.030   3.443 -0.8006  0.2897 -1.9888
  128SOPE   H3S13739   1.985   1.191   3.454 -0.4896 -0.4089 -0.0672
  128SOPE   C2413740   2.181   1.154   3.546 -0.5144  0.0600  0.2802
  128SOPE   H4R13741   2.271   1.089   3.539 -0.5253 -0.0030  0.7366
  128SOPE   H4S13742   2.214   1.260   3.547 -0.7543  0.1329  0.3909
  128SOPE   C2513743   2.116   1.107   3.677 -0.4599  0.3007 -0.4007
  128SOPE   H5R13744   2.008   1.129   3.667 -0.0552  2.5744 -0.2084
  128SOPE   H5S13745   2.136   0.998   3.687 -0.8370  0.1690 -1.0308
  128SOPE   C2613746   2.172   1.188   3.793 -0.1763 -0.6257  0.1334
  128SOPE   H6R13747   2.280   1.161   3.797 -0.1732 -0.6883 -0.3267
  128SOPE   H6S13748   2.160   1.298   3.777  0.4381 -0.6954 -0.9177
  128SOPE   C2713749   2.106   1.146   3.926  0.0261 -0.1303 -0.3210
  128SOPE   H7R13750   2.006   1.192   3.940 -0.1204 -0.1388 -1.2647
  128SOPE   H7S13751   2.090   1.037   3.916  1.2385 -0.4241  0.7848
  128SOPE   C2813752   2.197   1.157   4.053 -0.3447 -0.1161  0.0739
  128SOPE   H8R13753   2.293   1.104   4.037  0.6600  1.6098  0.0537
  128SOPE   H8S13754   2.217   1.267   4.057  0.7455 -0.3038  0.0578
  128SOPE   C2913755   2.123   1.095   4.170 -0.4013  0.2386  0.0980
  128SOPE   H9113756   2.064   1.006   4.145  0.1598  0.1741 -1.0949
  128SOPE  C21013757   2.128   1.149   4.291  0.4777  0.1584 -1.0573
  128SOPE  H10113758   2.049   1.115   4.358  1.8726  0.3650  0.7634
  128SOPE  C21113759   2.196   1.271   4.330  0.1638 -0.4810 -0.6760
  128SOPE  H11R13760   2.133   1.340   4.390  0.4219 -1.3564  0.6390
  128SOPE  H11S13761   2.205   1.335   4.240 -1.4946  0.0858 -0.4711
  128SOPE  C21213762   2.341   1.257   4.392 -0.8279 -0.2724 -0.2223
  128SOPE  H12R13763   2.392   1.355   4.404  1.3925 -1.1992 -1.5978
  128SOPE  H12S13764   2.395   1.195   4.318  0.9864  1.6340 -0.5948
  128SOPE  C21313765   2.334   1.201   4.536  0.0115 -0.0030 -0.6222
  128SOPE  H13R13766   2.278   1.105   4.532 -1.5011  0.7981  0.2401
  128SOPE  H13S13767   2.269   1.271   4.593 -0.1106 -1.7204  1.4473
  128SOPE  C21413768   2.464   1.188   4.617 -0.7053 -0.1620  0.2097
  128SOPE  H14R13769   2.529   1.101   4.591  0.2806 -0.1209  2.3210
  128SOPE  H14S13770   2.440   1.169   4.724 -0.1166  0.6430  0.5009
  128SOPE  C21513771   2.558   1.309   4.590 -0.3034  0.2728  0.2850
  128SOPE  H15R13772   2.483   1.390   4.593 -2.4872 -1.6096 -0.3772
  128SOPE  H15S13773   2.591   1.319   4.485 -0.4229 -1.3309  0.0599
  128SOPE  C21613774   2.674   1.330   4.688  0.2519  0.5699  0.5048
  128SOPE  H16R13775   2.732   1.418   4.652  0.6469  0.4038  0.7193
  128SOPE  H16S13776   2.737   1.239   4.679 -0.9756 -0.5387  2.3892
  128SOPE  C21713777   2.633   1.337   4.833 -0.8801  0.2594 -0.9185
  128SOPE  H17R13778   2.726   1.331   4.893 -0.5495  2.8751 -1.0713
  128SOPE  H17S13779   2.570   1.250   4.861  0.9066 -1.3411 -1.6619
  128SOPE  C21813780   2.557   1.468   4.870  0.3653  0.8844 -0.6635
  128SOPE  H18R13781   2.564   1.501   4.976 -4.2632  3.8042 -0.9915
  128SOPE  H18S13782   2.453   1.440   4.845  1.0853 -0.6566 -2.1593
  128SOPE  H18T13783   2.583   1.558   4.810 -2.1823  1.7107 -0.6339
  128SOPE   C3313784   1.696   0.643   3.240  0.3285  0.9666 -0.3667
  128SOPE   H3X13785   1.704   0.539   3.203  0.1201  1.3912 -1.6513
  128SOPE   H3Y13786   1.605   0.681   3.188 -0.3105  1.8815  1.3323
  128SOPE   C3413787   1.654   0.638   3.385  0.4884 -0.0202 -0.4734
  128SOPE   H4X13788   1.597   0.731   3.408  0.0250 -0.6220  0.9380
  128SOPE   H4Y13789   1.749   0.644   3.444 -0.3799 -0.3973  1.0259
  128SOPE   C3513790   1.573   0.514   3.431 -0.4499 -0.5700  0.4517
  128SOPE   H5X13791   1.632   0.422   3.413  1.9692  0.6714  1.4737
  128SOPE   H5Y13792   1.482   0.507   3.368 -0.8088  0.7829  0.7757
  128SOPE   C3613793   1.545   0.530   3.578 -0.8091 -0.4138  0.1239
  128SOPE   H6X13794   1.486   0.624   3.575  1.2884  1.0053 -3.0821
  128SOPE   H6Y13795   1.634   0.537   3.644 -0.9859 -0.8294  0.4131
  128SOPE   C3713796   1.466   0.411   3.640  0.6584  0.0587 -0.0824
  128SOPE   H7X13797   1.520   0.315   3.623 -3.2212 -2.2357 -0.5416
  128SOPE   H7Y13798   1.370   0.406   3.586 -0.5104 -1.4956  1.9922
  128SOPE   C3813799   1.421   0.442   3.786  1.0616  0.4361 -0.1853
  128SOPE   H8X13800   1.358   0.358   3.822 -3.3430  2.6130 -1.9865
  128SOPE   H8Y13801   1.356   0.532   3.781  0.5243  0.1066  0.6814
  128SOPE   C3913802   1.532   0.447   3.892 -0.1285  0.3123 -0.7344
  128SOPE   H9X13803   1.599   0.533   3.870  0.7761  0.0082  0.6837
  128SOPE   H9Y13804   1.577   0.346   3.879 -3.4775 -1.2993 -0.8391
  128SOPE  C31013805   1.475   0.458   4.034  0.1543  0.1122  0.3899
  128SOPE  H10X13806   1.424   0.365   4.067  1.0087 -0.1523  0.9896
  128SOPE  H10Y13807   1.405   0.544   4.044  0.2819  0.1160  1.3412
  128SOPE  C31113808   1.583   0.490   4.136  0.3020 -0.6831 -0.7207
  128SOPE  H11X13809   1.538   0.485   4.237  2.1281  0.2539  0.1670
  128SOPE  H11Y13810   1.635   0.586   4.117 -0.1810  0.1990  1.9774
  128SOPE  C31213811   1.691   0.373   4.144  0.6245 -0.6852 -0.2059
  128SOPE  H12X13812   1.731   0.354   4.042 -0.2407  1.0623 -0.9037
  128SOPE  H12Y13813   1.658   0.271   4.172  0.4936 -0.7734 -0.6607
  128SOPE  C31313814   1.804   0.409   4.241 -0.5268  0.1191 -0.1326
  128SOPE  H13X13815   1.775   0.425   4.347  0.5981 -2.7760  0.7062
  128SOPE  H13Y13816   1.839   0.509   4.210 -2.0495  0.8439  0.3593
  128SOPE  C31413817   1.925   0.311   4.244 -0.3329  0.9121  0.6597
  128SOPE  H14X13818   1.882   0.217   4.287 -0.9888  1.4775  1.2662
  128SOPE  H14Y13819   1.994   0.345   4.324 -1.1103  0.0535  1.7447
  128SOPE  C31513820   1.996   0.284   4.111 -0.0874  0.1672 -0.4229
  128SOPE  H15X13821   1.979   0.373   4.047  1.8397  0.9978  0.1530
  128SOPE  H15Y13822   1.941   0.201   4.062 -0.2521 -0.0440  0.1139
  128SOPE  C31613823   2.145   0.248   4.116 -0.1693 -0.3169 -0.1349
  128SOPE  H16X13824   2.209   0.298   4.193  0.5251  0.3333 -1.1035
  128SOPE  H16Y13825   2.194   0.272   4.019 -0.3514 -0.7692 -0.3381
  128SOPE  C31713826   2.170   0.091   4.129  0.1647 -0.0934  0.8960
  128SOPE  H17X13827   2.265   0.066   4.077  0.2730  0.1884  0.9618
  128SOPE  H17Y13828   2.078   0.050   4.081  0.8306  0.3130 -0.8199
  128SOPE  C31813829   2.166   0.046   4.270  0.3691  0.3150 -0.0799
  128SOPE  H18X13830   2.065   0.054   4.314  0.1616  0.0693 -0.5037
  128SOPE  H18Y13831   2.244   0.096   4.331 -0.8504  0.1968  1.6207
  128SOPE  H18Z13832   2.185  -0.063   4.266  0.3826  0.3444 -1.4427
  129OSM      N13833   4.389   2.475   7.349  0.1188 -0.1093  0.6723
  129OSM    C1513834   4.454   2.448   7.483  0.3308 -0.0265  0.1026
  129OSM   H15A13835   4.461   2.340   7.492 -0.1744 -0.1299 -0.6242
  129OSM   H15B13836   4.393   2.479   7.566 -1.4820 -4.5511  0.7360
  129OSM   H15C13837   4.554   2.489   7.487  0.4441  0.3339 -3.1707
  129OSM    C1413838   4.482   2.415   7.238  0.9878  0.1729  0.3116
  129OSM   H14A13839   4.469   2.308   7.238  0.7892  0.1472 -1.8107
  129OSM   H14B13840   4.585   2.440   7.259  1.1792 -1.7569  1.9128
  129OSM   H14C13841   4.445   2.459   7.146  2.3017  0.6869  0.0109
  129OSM    C1313842   4.254   2.408   7.332  0.1565  0.7419 -0.5042
  129OSM   H13A13843   4.274   2.302   7.338 -1.2316  0.4670 -0.4196
  129OSM   H13B13844   4.202   2.425   7.238 -3.5721 -0.2480  1.1898
  129OSM   H13C13845   4.193   2.432   7.418  1.0228  1.1123  0.0173
  129OSM    C1213846   4.385   2.633   7.335 -0.2964  0.3561  0.6400
  129OSM   H12A13847   4.477   2.667   7.379  0.7631  0.2952 -1.4347
  129OSM   H12B13848   4.311   2.662   7.408 -0.2775 -3.2724  2.2843
  129OSM    C1113849   4.355   2.704   7.202 -0.0090 -1.0479  0.1144
  129OSM   H11A13850   4.442   2.672   7.140  1.0820 -1.7064  1.9255
  129OSM   H11B13851   4.355   2.815   7.209 -1.6697 -1.0754  1.1759
  129OSM      P13852   4.095   2.709   7.183 -0.3041 -0.3606  0.2348
  129OSM    O1313853   4.003   2.635   7.104  0.7319 -0.6107 -0.4085
  129OSM    O1413854   4.082   2.692   7.328 -0.1341  0.3120 -0.2313
  129OSM    O1113855   4.083   2.863   7.149  0.0718 -0.0097 -0.2136
  129OSM    O1213856   4.231   2.662   7.140 -0.2180 -0.2117  0.0754
  129OSM    C1S13857   4.149   2.932   7.045 -0.4833  0.0073  1.5923
  129OSM    H1S13858   4.249   2.893   7.016 -0.9846 -0.5361  0.5637
  129OSM    H1T13859   4.169   3.034   7.085  0.2337  0.3521  0.4015
  129OSM     NF13860   4.118   3.041   6.827 -0.0600 -0.5229  0.0373
  129OSM    HNF13861   4.079   3.127   6.797 -0.4961 -0.5442  0.5485
  129OSM    C2S13862   4.056   2.954   6.922  0.1485 -0.4415 -0.8025
  129OSM    H2S13863   4.054   2.852   6.878 -3.3402  0.8584 -4.3822
  129OSM    C3S13864   3.912   2.991   6.962 -0.5847 -0.3072  0.4090
  129OSM    H3S13865   3.928   3.084   7.021  2.5829 -1.0406  0.8930
  129OSM     O313866   3.843   2.903   7.050  0.5769  0.2545 -0.3830
  129OSM    HO313867   3.908   2.834   7.067 -1.8618 -2.3294 -0.7247
  129OSM    C4S13868   3.823   3.012   6.848 -0.3761  0.2996  0.2600
  129OSM    H4S13869   3.813   3.120   6.832 -1.4449  0.2592  0.5492
  129OSM    C5S13870   3.754   2.925   6.771  0.3053 -0.3706  0.2829
  129OSM    H5S13871   3.759   2.818   6.795  1.3012 -0.4594 -0.2815
  129OSM    C6S13872   3.657   2.961   6.665  0.0408 -0.4736 -0.2131
  129OSM    H6S13873   3.574   3.032   6.685  0.9459  1.1001 -1.7713
  129OSM    H6T13874   3.602   2.873   6.625 -2.7906  0.7137  0.8370
  129OSM    C7S13875   3.736   3.039   6.555 -0.0418  0.2185 -0.1907
  129OSM    H7S13876   3.830   2.998   6.513 -2.7457 -2.7045 -4.1161
  129OSM    H7T13877   3.755   3.139   6.601  0.2709 -0.3649  0.9772
  129OSM    C8S13878   3.651   3.073   6.432 -0.2142  0.2144  0.0064
  129OSM    H8S13879   3.547   3.100   6.462 -0.8239 -1.1038 -0.8428
  129OSM    H8T13880   3.630   2.984   6.369 -0.6054  1.3653 -1.5607
  129OSM    C9S13881   3.693   3.187   6.342  0.0144 -0.1048 -0.2354
  129OSM    H9S13882   3.802   3.205   6.334 -0.0068 -0.2644 -0.9160
  129OSM    H9T13883   3.663   3.286   6.382  2.6273  1.3426 -1.5396
  129OSM   C10S13884   3.640   3.183   6.196 -0.3089 -0.6265 -0.5194
  129OSM   H10S13885   3.530   3.189   6.196 -0.3070 -0.4366  0.5660
  129OSM   H10T13886   3.659   3.085   6.147  0.5574  0.2967 -2.1218
  129OSM   C11S13887   3.697   3.299   6.107  0.4447 -0.5201 -0.2551
  129OSM   H11S13888   3.807   3.283   6.104  0.7175  0.6224 -5.3884
  129OSM   H11T13889   3.675   3.394   6.160 -0.9222 -0.3404 -1.1087
  129OSM   C12S13890   3.635   3.302   5.966  0.3296  0.1934 -0.3703
  129OSM   H12S13891   3.527   3.317   5.991  0.2825  0.3890 -0.6907
  129OSM   H12T13892   3.655   3.212   5.904 -1.1319 -1.1514  0.9969
  129OSM   C13S13893   3.685   3.415   5.874  0.3281 -0.9147  0.4250
  129OSM   H13S13894   3.791   3.389   5.852  0.1649 -1.3093  0.0997
  129OSM   H13T13895   3.679   3.512   5.928  1.0459  0.4257 -1.7781
  129OSM   C14S13896   3.602   3.431   5.745 -0.8268 -0.6810  0.5011
  129OSM   H14S13897   3.634   3.532   5.711  1.6320 -1.0563  1.5192
  129OSM   H14T13898   3.497   3.433   5.780 -1.9930 -1.6074 -2.5505
  129OSM   C15S13899   3.648   3.326   5.641 -0.5088 -0.4524 -0.0669
  129OSM   H15S13900   3.630   3.227   5.688  1.1959 -0.7400  0.0284
  129OSM   H15T13901   3.756   3.338   5.620  0.4582  0.2684  4.3530
  129OSM   C16S13902   3.556   3.347   5.528 -0.1556  0.9136 -0.0662
  129OSM   H16S13903   3.558   3.456   5.503  2.0233  1.3648  1.7348
  129OSM   H16T13904   3.451   3.319   5.550 -0.4712  0.8525 -1.5326
  129OSM   C17S13905   3.601   3.277   5.396  0.4067  0.6325  0.2028
  129OSM   H17S13906   3.596   3.168   5.419 -0.0664  0.7644  0.7584
  129OSM   H17T13907   3.710   3.293   5.386  1.0453 -1.1852  3.0970
  129OSM   C18S13908   3.517   3.311   5.277 -0.2531 -0.2137  0.1445
  129OSM   H18S13909   3.409   3.288   5.290 -0.3003  0.1313  0.3766
  129OSM   H18T13910   3.563   3.249   5.198  2.0053 -0.1728  1.3508
  129OSM   H18U13911   3.531   3.418   5.254  2.2856 -0.4121  0.5171
  129OSM    C1F13912   4.236   3.003   6.772  0.1449 -0.7000 -0.0895
  129OSM     OF13913   4.287   2.890   6.781 -0.1185 -0.4755  0.1467
  129OSM    C2F13914   4.316   3.118   6.709 -0.0683  0.8100 -0.6020
  129OSM    H2F13915   4.415   3.121   6.761 -0.6464  0.0616  0.5796
  129OSM    H2G13916   4.265   3.211   6.741  0.9350  1.0428  0.4068
  129OSM    C3F13917   4.324   3.098   6.557 -0.3495  0.1692  0.8793
  129OSM    H3F13918   4.370   3.002   6.524  1.2019  1.0497  0.3264
  129OSM    H3G13919   4.401   3.173   6.529 -1.8278  1.0291 -1.0655
  129OSM    C4F13920   4.191   3.124   6.481  0.3144  0.1574 -0.1127
  129OSM    H4F13921   4.154   3.221   6.520  0.5271  0.1048  0.2172
  129OSM    H4G13922   4.119   3.045   6.512 -0.4887  0.6075 -0.7641
  129OSM    C5F13923   4.211   3.113   6.327  0.4631 -0.0805 -0.6135
  129OSM    H5F13924   4.251   3.011   6.308  0.9291 -0.0293  0.0767
  129OSM    H5G13925   4.295   3.178   6.296 -0.0242  0.7305 -0.2729
  129OSM    C6F13926   4.072   3.142   6.265 -0.0818 -0.0759 -0.3685
  129OSM    H6F13927   4.066   3.252   6.257 -0.0631 -0.0059  0.4919
  129OSM    H6G13928   3.993   3.100   6.331  0.2261  1.8545  1.3061
  129OSM    C7F13929   4.057   3.083   6.120 -0.0088 -0.3550  0.1305
  129OSM    H7F13930   3.956   3.088   6.075  0.4369 -1.1861 -0.9822
  129OSM    H7G13931   4.079   2.974   6.121  0.3437 -0.3333 -1.8090
  129OSM    C8F13932   4.139   3.142   6.007  0.1745  0.3054 -0.2270
  129OSM    H8F13933   4.155   3.060   5.934  0.2158 -0.0957  0.2311
  129OSM    H8G13934   4.235   3.171   6.054 -0.7114  1.8174  0.7522
  129OSM    C9F13935   4.077   3.268   5.939 -1.1971 -0.1024  0.3228
  129OSM    H9F13936   4.058   3.352   6.007  2.6332  1.0529  0.2237
  129OSM   C10F13937   4.055   3.290   5.806  0.5846  0.6022 -0.7372
  129OSM   H10F13938   3.993   3.375   5.774  0.0110 -0.0566 -1.4130
  129OSM   C11F13939   4.102   3.203   5.695 -0.9302  0.7168 -0.1932
  129OSM   H11F13940   4.046   3.235   5.605 -2.3462 -1.6550 -0.2468
  129OSM   H11G13941   4.075   3.098   5.719 -0.9043  1.1531  1.9145
  129OSM   C12F13942   4.252   3.212   5.662  0.0868  0.0427 -1.1010
  129OSM   H12F13943   4.316   3.196   5.751 -1.3046  0.0209 -0.0836
  129OSM   H12G13944   4.282   3.314   5.630  0.3523 -0.8031 -3.8286
  129OSM   C13F13945   4.306   3.124   5.550  0.2037  0.5756 -0.3486
  129OSM   H13F13946   4.269   3.019   5.550  1.3390  0.1514 -0.9952
  129OSM   H13G13947   4.416   3.107   5.561  0.4677 -0.8860 -3.9930
  129OSM   C14F13948   4.294   3.175   5.407 -0.0410 -0.5134 -0.1823
  129OSM   H14F13949   4.344   3.274   5.406 -0.7403 -0.1539 -0.2600
  129OSM   H14G13950   4.189   3.194   5.376 -0.3258  0.8450  1.4641
  129OSM   C15F13951   4.353   3.073   5.311 -0.2343  0.3283 -1.1453
  129OSM   H15F13952   4.305   2.974   5.326  0.5740  0.3055  1.6838
  129OSM   H15G13953   4.460   3.050   5.329 -1.0043 -3.4830 -0.6827
  129OSM   C16F13954   4.336   3.117   5.169 -0.1366  0.5290  0.1693
  129OSM   H16F13955   4.354   3.227   5.162 -0.7311  0.5043 -3.1103
  129OSM   H16G13956   4.228   3.094   5.151  0.6444 -3.6228 -0.0727
  129OSM   C17F13957   4.419   3.036   5.076 -0.0516 -0.0247 -0.3078
  129OSM   H17F13958   4.523   3.028   5.113 -0.5696  0.8859  1.4136
  129OSM   H17G13959   4.427   3.085   4.976  1.2824 -1.4134 -0.9229
  129OSM   C18F13960   4.357   2.900   5.054 -0.0586  0.8482 -0.3249
  129OSM   H18F13961   4.264   2.895   4.994 -0.7665 -0.4288  0.8228
  129OSM   H18G13962   4.341   2.849   5.151 -0.5258 -0.1145 -0.8970
  129OSM   H18H13963   4.429   2.839   4.996 -0.4368  0.4627 -0.3926
  130OSM      N13964   3.947   3.413   7.378 -0.0335 -0.2568  0.2425
  130OSM    C1513965   3.969   3.327   7.506 -0.5999 -0.6845 -0.8596
  130OSM   H15A13966   4.063   3.275   7.516  0.4702  1.2377 -0.4911
  130OSM   H15B13967   3.889   3.257   7.524 -1.0208 -0.2654 -1.0585
  130OSM   H15C13968   3.975   3.393   7.591  2.4541 -0.3645 -1.2187
  130OSM    C1413969   3.820   3.489   7.413 -0.2827 -0.3163 -0.6845
  130OSM   H14A13970   3.839   3.557   7.495  1.5037  0.7149 -1.8891
  130OSM   H14B13971   3.744   3.415   7.436  0.9984 -1.2418  0.7914
  130OSM   H14C13972   3.793   3.544   7.324  0.9019  0.0860 -0.8169
  130OSM    C1313973   4.053   3.514   7.349 -0.1172  0.1784 -1.3016
  130OSM   H13A13974   4.025   3.572   7.262 -0.5373  0.0901 -1.2277
  130OSM   H13B13975   4.142   3.457   7.328 -1.6084 -1.6422 -3.0597
  130OSM   H13C13976   4.071   3.570   7.440  1.8327 -1.0466 -0.8628
  130OSM    C1213977   3.933   3.316   7.259  0.2719 -0.9072 -0.3821
  130OSM   H12A13978   3.871   3.231   7.285 -3.0376  1.7122  1.0718
  130OSM   H12B13979   4.028   3.273   7.232  0.5855  0.0278 -0.8216
  130OSM    C1113980   3.888   3.379   7.128 -1.0087  0.4815  0.0184
  130OSM   H11A13981   3.900   3.309   7.042  1.2173 -0.2946  0.8835
  130OSM   H11B13982   3.955   3.463   7.101  1.1780 -1.0376  0.4309
  130OSM      P13983   3.626   3.340   7.117  0.1548  0.0766 -0.5214
  130OSM    O1313984   3.628   3.224   7.208  0.2216 -0.6652 -0.2009
  130OSM    O1413985   3.510   3.432   7.126  0.1245 -0.4049  0.3012
  130OSM    O1113986   3.652   3.297   6.971  0.0414 -0.8963  0.0934
  130OSM    O1213987   3.759   3.427   7.144  0.7397 -0.3960  0.4073
  130OSM    C1S13988   3.657   3.399   6.868 -0.6408 -0.1097  0.2540
  130OSM    H1S13989   3.763   3.428   6.853 -0.0274 -3.1490 -2.1600
  130OSM    H1T13990   3.608   3.493   6.903  0.1718  0.9110 -1.2157
  130OSM     NF13991   3.601   3.474   6.645  0.2075  0.3964  0.3349
  130OSM    HNF13992   3.537   3.550   6.637 -0.9931 -0.5416  0.6891
  130OSM    C2S13993   3.583   3.373   6.741  0.8213  0.3570  0.2178
  130OSM    H2S13994   3.610   3.277   6.692 -0.6138  0.6309 -1.1673
  130OSM    C3S13995   3.426   3.348   6.778 -0.0756 -0.0194 -0.5285
  130OSM    H3S13996   3.391   3.441   6.828 -0.5851 -0.8308  0.6806
  130OSM     O313997   3.401   3.246   6.874 -0.0962  0.1163  0.7813
  130OSM    HO313998   3.487   3.242   6.916  0.4090  1.1025 -0.1114
  130OSM    C4S13999   3.347   3.331   6.656 -0.1375  0.5133 -0.8531
  130OSM    H4S14000   3.345   3.426   6.600  1.8324  1.3615  0.4321
  130OSM    C5S14001   3.311   3.217   6.599 -0.5624  1.1908  0.8214
  130OSM    H5S14002   3.322   3.128   6.663 -1.2237 -0.5134 -1.3230
  130OSM    C6S14003   3.238   3.199   6.464 -0.0559 -0.2808 -0.1765
  130OSM    H6S14004   3.163   3.118   6.457 -3.0842  2.1818  1.1797
  130OSM    H6T14005   3.310   3.176   6.382  0.8556  0.8270  0.2820
  130OSM    C7S14006   3.150   3.317   6.412  0.2628 -0.9419  0.2147
  130OSM    H7S14007   3.212   3.405   6.386  0.9950 -1.7102 -0.7331
  130OSM    H7T14008   3.092   3.355   6.499  1.1516  2.4428 -0.5196
  130OSM    C8S14009   3.057   3.265   6.297  0.7395 -0.1613 -0.0155
  130OSM    H8S14010   3.010   3.176   6.343 -1.9803  1.9272  1.5232
  130OSM    H8T14011   3.118   3.242   6.207  1.6710 -1.7576  0.9797
  130OSM    C9S14012   2.941   3.362   6.268 -0.1041 -0.3575  0.7429
  130OSM    H9S14013   2.976   3.457   6.223 -1.2471 -0.2919 -0.0594
  130OSM    H9T14014   2.894   3.385   6.367  0.2434 -0.3408  0.9045
  130OSM   C10S14015   2.830   3.295   6.183  0.2674 -0.1175  0.5036
  130OSM   H10S14016   2.742   3.363   6.175  1.1437  0.8522 -2.0087
  130OSM   H10T14017   2.792   3.205   6.235 -1.6493  0.0644 -0.4942
  130OSM   C11S14018   2.873   3.252   6.045  0.5660 -0.1202  0.0520
  130OSM   H11S14019   2.786   3.203   5.997 -0.9828  3.7410 -1.5478
  130OSM   H11T14020   2.959   3.182   6.050 -0.2999 -1.1904  0.0403
  130OSM   C12S14021   2.912   3.373   5.957  0.1046  0.7161 -0.3173
  130OSM   H12S14022   2.994   3.431   6.003  0.8286 -1.6063  1.5012
  130OSM   H12T14023   2.830   3.445   5.936  0.3380  0.8166 -0.9038
  130OSM   C13S14024   2.950   3.306   5.822 -0.8628 -0.1865  0.0226
  130OSM   H13S14025   2.873   3.227   5.804 -1.6432  0.3601  0.8914
  130OSM   H13T14026   3.037   3.243   5.852 -2.5002 -1.0946  3.3194
  130OSM   C14S14027   2.969   3.406   5.708 -0.4447 -0.5337 -0.2416
  130OSM   H14S14028   3.026   3.494   5.746 -0.6701 -0.1610 -0.7425
  130OSM   H14T14029   2.869   3.452   5.689  0.3139  1.0616 -0.6004
  130OSM   C15S14030   3.027   3.358   5.578  0.1716  0.4011  0.1725
  130OSM   H15S14031   2.950   3.296   5.527  0.7380  0.4927 -0.8120
  130OSM   H15T14032   3.122   3.301   5.589 -0.4836 -0.6065  0.8161
  130OSM   C16S14033   3.055   3.477   5.486 -0.4899 -0.1734  0.2703
  130OSM   H16S14034   3.136   3.532   5.538 -2.4612  2.1247  1.0444
  130OSM   H16T14035   2.971   3.544   5.458  0.5249  0.2087 -2.1536
  130OSM   C17S14036   3.115   3.437   5.347 -0.1226  0.0739  0.8681
  130OSM   H17S14037   3.027   3.394   5.294  0.0587 -0.1166  0.7190
  130OSM   H17T14038   3.195   3.360   5.362 -0.4372 -0.4510 -0.0417
  130OSM   C18S14039   3.174   3.560   5.268  0.4123  0.5020 -0.4135
  130OSM   H18S14040   3.101   3.644   5.277 -1.4875 -1.1061 -0.2120
  130OSM   H18T14041   3.203   3.537   5.163 -1.0927 -0.0705 -0.7201
  130OSM   H18U14042   3.269   3.582   5.321  0.4182 -0.1684 -0.1450
  130OSM    C1F14043   3.725   3.479   6.590  0.1353  0.5373  0.3889
  130OSM     OF14044   3.806   3.393   6.605 -0.0568  0.1226 -0.2327
  130OSM    C2F14045   3.752   3.608   6.514  0.2016 -0.8171  0.3979
  130OSM    H2F14046   3.742   3.697   6.580 -1.4091 -0.5048 -0.2328
  130OSM    H2G14047   3.679   3.615   6.430  0.6694 -1.6112 -0.0891
  130OSM    C3F14048   3.895   3.613   6.446  0.1175 -0.4962 -0.4088
  130OSM    H3F14049   3.908   3.532   6.371  0.6194  0.2813 -1.1818
  130OSM    H3G14050   3.972   3.604   6.525 -1.7410 -1.5111  1.3780
  130OSM    C4F14051   3.938   3.747   6.378  0.2334  0.3732 -0.0540
  130OSM    H4F14052   4.047   3.733   6.359 -0.1179 -1.0686 -1.2251
  130OSM    H4G14053   3.908   3.830   6.446 -2.1900  0.9600 -1.7111
  130OSM    C5F14054   3.866   3.760   6.245  0.0611 -0.3987  0.7768
  130OSM    H5F14055   3.918   3.852   6.210 -1.5068  0.0001 -0.6284
  130OSM    H5G14056   3.762   3.791   6.265  0.0447  0.5157 -0.5523
  130OSM    C6F14057   3.884   3.656   6.133 -0.5385  0.0771  0.5716
  130OSM    H6F14058   3.847   3.706   6.041  0.3266  2.0813  1.2554
  130OSM    H6G14059   3.828   3.564   6.159 -1.0636  0.5790  1.2515
  130OSM    C7F14060   4.032   3.617   6.104 -0.0119  0.2988  0.0327
  130OSM    H7F14061   4.052   3.522   6.159  0.5043 -1.3687 -2.8004
  130OSM    H7G14062   4.097   3.699   6.140 -1.0784  1.1639  0.0424
  130OSM    C8F14063   4.047   3.600   5.948 -0.5122  0.0193 -0.7834
  130OSM    H8F14064   3.965   3.541   5.902 -1.6726  0.0511  1.1475
  130OSM    H8G14065   4.142   3.543   5.938 -0.5836 -0.3745  0.5911
  130OSM    C9F14066   4.062   3.740   5.888 -0.8561 -0.3063  0.3352
  130OSM    H9F14067   4.132   3.809   5.936  0.4259 -1.8725  0.7826
  130OSM   C10F14068   3.997   3.778   5.775  0.5650 -0.1630  0.5985
  130OSM   H10F14069   4.004   3.883   5.744  1.6638 -0.7236 -1.1607
  130OSM   C11F14070   3.906   3.698   5.690 -0.0819  0.0739 -0.1764
  130OSM   H11F14071   3.807   3.748   5.683 -0.4896 -0.6678  0.1031
  130OSM   H11G14072   3.886   3.595   5.726  0.2356 -0.3786 -1.2438
  130OSM   C12F14073   3.956   3.684   5.544 -0.4076 -0.3993 -0.5776
  130OSM   H12F14074   4.067   3.692   5.536 -0.3632 -0.5306 -0.1350
  130OSM   H12G14075   3.924   3.772   5.485  0.1710  1.0662  1.1900
  130OSM   C13F14076   3.904   3.557   5.481 -0.0487  0.0000 -0.1444
  130OSM   H13F14077   3.794   3.563   5.464  0.0847 -2.3349 -2.3714
  130OSM   H13G14078   3.907   3.474   5.554 -0.7030 -1.0505 -1.2772
  130OSM   C14F14079   3.970   3.534   5.350 -0.9380  0.5037 -0.1073
  130OSM   H14F14080   3.962   3.625   5.286 -0.3442  1.5129  1.1984
  130OSM   H14G14081   3.925   3.448   5.296  1.4649 -0.1125 -1.2615
  130OSM   C15F14082   4.120   3.493   5.367  0.2291  0.2169 -0.5527
  130OSM   H15F14083   4.124   3.401   5.429  1.4079  1.0169  0.6117
  130OSM   H15G14084   4.186   3.567   5.417 -0.3568  0.9143 -0.7865
  130OSM   C16F14085   4.192   3.470   5.232  0.2483  0.3338  0.0501
  130OSM   H16F14086   4.154   3.379   5.180 -1.6984  1.1998 -0.1052
  130OSM   H16G14087   4.293   3.460   5.278 -1.2197 -1.0063  3.2828
  130OSM   C17F14088   4.189   3.592   5.148 -0.5462  0.2099  0.7896
  130OSM   H17F14089   4.199   3.685   5.207  0.3533  1.2428 -0.9149
  130OSM   H17G14090   4.098   3.594   5.085 -1.2341  0.0018  1.7544
  130OSM   C18F14091   4.310   3.572   5.045 -0.5721  0.0953 -0.4361
  130OSM   H18F14092   4.408   3.582   5.096 -1.5658  2.7292  1.1936
  130OSM   H18G14093   4.303   3.648   4.964 -0.6892 -0.6298 -1.1099
  130OSM   H18H14094   4.295   3.473   4.997 -1.4749 -1.3533  2.5945
  131OSM      N14095   2.365   4.978   7.225 -0.1300 -0.0692 -0.8279
  131OSM    C1514096   2.399   4.867   7.322  0.3290 -0.2381 -0.0352
  131OSM   H15A14097   2.333   4.858   7.407 -0.0884 -1.5878 -0.4830
  131OSM   H15B14098   2.503   4.870   7.351  0.2794 -1.0829  0.2627
  131OSM   H15C14099   2.397   4.774   7.268  0.3035 -1.4206  1.9295
  131OSM    C1414100   2.488   4.979   7.132  0.4703  0.6886  0.2071
  131OSM   H14A14101   2.500   4.875   7.103  2.7891  1.2050 -0.9273
  131OSM   H14B14102   2.585   4.986   7.180  1.8443  0.2932 -2.3302
  131OSM   H14C14103   2.478   5.040   7.044 -1.3585 -0.0029 -0.1089
  131OSM    C1314104   2.250   4.929   7.141 -0.6451 -0.1865  0.1113
  131OSM   H13A14105   2.168   4.880   7.191 -1.3859 -1.5094 -2.2463
  131OSM   H13B14106   2.276   4.855   7.068 -1.2421  0.0018 -0.2992
  131OSM   H13C14107   2.216   5.011   7.079 -0.7847  0.1230  0.5841
  131OSM    C1214108   2.353   5.110   7.294 -0.0595  0.2080 -0.4163
  131OSM   H12A14109   2.425   5.128   7.372 -0.2663 -1.0731  0.1046
  131OSM   H12B14110   2.262   5.110   7.352  0.7404  0.1016  0.8837
  131OSM    C1114111   2.357   5.246   7.222  0.4557  0.1714  0.2117
  131OSM   H11A14112   2.455   5.276   7.182  0.2020  3.9590  1.9722
  131OSM   H11B14113   2.335   5.325   7.297 -2.0999  0.4761 -0.7567
  131OSM      P14114   2.114   5.284   7.144  0.1169 -0.1765 -0.6727
  131OSM    O1314115   2.035   5.175   7.079 -0.1334 -0.7144  0.4810
  131OSM    O1414116   2.098   5.293   7.292  0.5181 -0.3622  0.3462
  131OSM    O1114117   2.091   5.429   7.081  0.1193  0.2973  0.0786
  131OSM    O1214118   2.264   5.251   7.110 -0.3773 -0.5512 -0.3470
  131OSM    C1S14119   2.127   5.438   6.940 -0.0597 -0.4432 -1.0439
  131OSM    H1S14120   2.214   5.373   6.915 -0.2051 -0.6239 -1.0771
  131OSM    H1T14121   2.162   5.540   6.911  4.1101 -1.8045 -1.5289
  131OSM     NF14122   2.045   5.415   6.700 -0.0177 -0.3619  0.7785
  131OSM    HNF14123   2.012   5.498   6.656  0.1538 -0.2981  0.7728
  131OSM    C2S14124   2.005   5.405   6.843 -0.2497  0.3617  0.8621
  131OSM    H2S14125   1.985   5.298   6.864 -0.2295  0.1008 -0.4116
  131OSM    C3S14126   1.881   5.489   6.889 -0.2889 -0.3348  0.4020
  131OSM    H3S14127   1.902   5.595   6.863 -1.4128  0.0302  0.9067
  131OSM     O314128   1.854   5.505   7.028  0.2501  0.1233 -0.2097
  131OSM    HO314129   1.927   5.484   7.087 -1.5626 -0.9042  1.8261
  131OSM    C4S14130   1.762   5.445   6.803 -0.6932 -0.2395 -0.2695
  131OSM    H4S14131   1.756   5.489   6.702  1.1701  0.1195 -0.2529
  131OSM    C5S14132   1.659   5.366   6.836  0.3284  0.4155 -0.0462
  131OSM    H5S14133   1.651   5.334   6.940  0.8822  2.3866  0.6482
  131OSM    C6S14134   1.548   5.326   6.746 -0.0575 -1.0130  0.1921
  131OSM    H6S14135   1.454   5.366   6.790  0.2539  0.1908 -0.1934
  131OSM    H6T14136   1.538   5.215   6.741  1.0181 -1.0520 -2.3755
  131OSM    C7S14137   1.556   5.376   6.600  0.3998  0.7671  0.5265
  131OSM    H7S14138   1.656   5.351   6.558 -0.2472 -1.0844 -0.0324
  131OSM    H7T14139   1.533   5.485   6.606 -1.1326  0.4039  1.9677
  131OSM    C8S14140   1.449   5.304   6.518 -0.0267 -0.5026 -0.7422
  131OSM    H8S14141   1.350   5.332   6.560  1.0058 -0.6033  2.0077
  131OSM    H8T14142   1.471   5.195   6.530 -1.1303 -0.8641 -1.7702
  131OSM    C9S14143   1.467   5.332   6.369 -0.3595 -0.1294  0.5531
  131OSM    H9S14144   1.575   5.314   6.348 -0.0615 -1.5068  2.9634
  131OSM    H9T14145   1.448   5.438   6.342 -1.0813 -0.1620  0.9088
  131OSM   C10S14146   1.386   5.249   6.276  0.2547  0.5768 -0.0372
  131OSM   H10S14147   1.276   5.257   6.292  0.0467  1.2859 -1.6332
  131OSM   H10T14148   1.410   5.141   6.277  1.2395  0.7289 -2.3177
  131OSM   C11S14149   1.423   5.299   6.137  0.2683 -0.4164 -0.0566
  131OSM   H11S14150   1.531   5.285   6.114 -0.4259 -0.1965 -4.2141
  131OSM   H11T14151   1.404   5.408   6.136 -0.2253 -0.5060 -0.6208
  131OSM   C12S14152   1.356   5.233   6.016  0.2094 -0.5996 -0.4176
  131OSM   H12S14153   1.256   5.282   6.007  0.3289 -0.1197  0.7412
  131OSM   H12T14154   1.336   5.125   6.026 -1.6945 -0.4153 -1.5809
  131OSM   C13S14155   1.450   5.248   5.893 -0.2183 -0.6350 -0.3821
  131OSM   H13S14156   1.542   5.185   5.901  0.9484  1.0434  0.0577
  131OSM   H13T14157   1.488   5.352   5.889 -1.7485 -0.0194  0.5041
  131OSM   C14S14158   1.375   5.198   5.766  1.1288 -0.4847  0.1792
  131OSM   H14S14159   1.286   5.263   5.750  2.0201  0.9862  0.9451
  131OSM   H14T14160   1.337   5.098   5.794 -0.3141  0.0502  0.2788
  131OSM   C15S14161   1.444   5.200   5.634  0.1889  0.1372 -0.5120
  131OSM   H15S14162   1.537   5.140   5.633  1.5163  2.0987 -0.6204
  131OSM   H15T14163   1.473   5.307   5.622  1.4048  0.1951  2.1968
  131OSM   C16S14164   1.353   5.152   5.522 -0.7091  0.0045 -0.2887
  131OSM   H16S14165   1.263   5.217   5.531 -1.9943 -1.8290  0.8174
  131OSM   H16T14166   1.326   5.047   5.547 -0.1619 -0.6214 -2.1691
  131OSM   C17S14167   1.412   5.164   5.389  0.5253 -0.0970  0.4281
  131OSM   H17S14168   1.509   5.111   5.375  0.3902 -0.5695  1.2045
  131OSM   H17T14169   1.428   5.273   5.378 -3.1534  0.4880 -0.1213
  131OSM   C18S14170   1.315   5.131   5.275  0.1391 -0.0918 -0.4531
  131OSM   H18S14171   1.361   5.150   5.176  0.7659 -0.9239 -0.3297
  131OSM   H18T14172   1.219   5.185   5.285  0.8540  1.3900 -1.3296
  131OSM   H18U14173   1.305   5.020   5.266  0.5661  0.0178 -2.8944
  131OSM    C1F14174   2.141   5.334   6.652 -0.0106 -0.1952 -0.5947
  131OSM     OF14175   2.192   5.240   6.711 -0.0586  0.6144  0.2631
  131OSM    C2F14176   2.175   5.369   6.503 -0.8388 -1.2441 -0.5503
  131OSM    H2F14177   2.209   5.475   6.503 -1.1177 -1.1509 -0.2845
  131OSM    H2G14178   2.084   5.355   6.442 -1.0599 -0.2976 -0.4573
  131OSM    C3F14179   2.290   5.289   6.445  0.0385 -0.1789  0.4439
  131OSM    H3F14180   2.273   5.182   6.468 -1.9306 -0.2951 -1.2940
  131OSM    H3G14181   2.379   5.329   6.499  0.5943  2.6943 -2.2895
  131OSM    C4F14182   2.307   5.320   6.294  0.3723  0.3628 -0.0054
  131OSM    H4F14183   2.320   5.430   6.283  0.6343  0.2875 -0.4718
  131OSM    H4G14184   2.210   5.289   6.250 -1.2216  2.4624  1.7879
  131OSM    C5F14185   2.431   5.243   6.232  0.8428 -0.6507 -0.4863
  131OSM    H5F14186   2.426   5.134   6.254 -1.0616 -0.5423 -0.2577
  131OSM    H5G14187   2.516   5.292   6.286 -0.6533  2.7680 -0.9680
  131OSM    C6F14188   2.445   5.260   6.080 -0.6102 -0.7804  0.3495
  131OSM    H6F14189   2.549   5.225   6.062 -0.5209 -1.2192  1.6575
  131OSM    H6G14190   2.447   5.371   6.072  0.9577 -0.6903  1.4418
  131OSM    C7F14191   2.336   5.205   5.989 -0.3701 -0.6814 -0.2822
  131OSM    H7F14192   2.244   5.262   6.016  0.3109  0.3035  0.0219
  131OSM    H7G14193   2.319   5.098   6.016 -0.3600 -0.2612  1.5440
  131OSM    C8F14194   2.361   5.222   5.837  0.2351  0.5822 -0.1877
  131OSM    H8F14195   2.369   5.327   5.804  0.4101  0.1729 -1.5249
  131OSM    H8G14196   2.280   5.175   5.776  1.6036 -0.5453 -1.2075
  131OSM    C9F14197   2.483   5.141   5.793 -0.5395 -0.1316  0.3901
  131OSM    H9F14198   2.484   5.033   5.816  0.0786 -1.0267 -3.1136
  131OSM   C10F14199   2.584   5.183   5.709  0.5937  0.3811  0.5894
  131OSM   H10F14200   2.652   5.105   5.673  0.3504 -0.1124  1.1820
  131OSM   C11F14201   2.596   5.315   5.634  0.3755  0.8464  0.4705
  131OSM   H11F14202   2.702   5.348   5.634  0.8455 -0.5755  1.1570
  131OSM   H11G14203   2.549   5.404   5.681 -1.0736  0.9837 -1.1502
  131OSM   C12F14204   2.556   5.302   5.484  0.1746 -0.3480 -0.0433
  131OSM   H12F14205   2.601   5.216   5.430 -1.3167  0.6847 -3.2243
  131OSM   H12G14206   2.591   5.397   5.438  0.8176 -0.3939  0.3437
  131OSM   C13F14207   2.411   5.291   5.474  0.0853 -0.1519 -0.6844
  131OSM   H13F14208   2.366   5.348   5.558  0.3317 -1.5921  0.4647
  131OSM   H13G14209   2.361   5.194   5.495  0.4342 -0.3848 -0.9221
  131OSM   C14F14210   2.351   5.324   5.333 -0.3883 -0.1924  0.5782
  131OSM   H14F14211   2.368   5.430   5.305  2.3172 -0.5834  0.4088
  131OSM   H14G14212   2.240   5.322   5.335 -0.5296  1.5521 -1.7830
  131OSM   C15F14213   2.403   5.234   5.222  0.3761  0.0836 -0.3105
  131OSM   H15F14214   2.388   5.128   5.252  1.2839 -0.6352 -2.2586
  131OSM   H15G14215   2.514   5.230   5.218  0.3557  0.6949 -1.7708
  131OSM   C16F14216   2.343   5.254   5.082 -0.2350 -0.0092 -0.0775
  131OSM   H16F14217   2.401   5.177   5.026 -0.8753 -1.2948  0.9872
  131OSM   H16G14218   2.359   5.359   5.050  0.4070  1.0333  3.3013
  131OSM   C17F14219   2.193   5.227   5.079  0.2837 -0.7506  0.6782
  131OSM   H17F14220   2.165   5.151   5.154  2.7424  1.0665  3.6687
  131OSM   H17G14221   2.158   5.176   4.986  1.8039 -0.6363  0.0039
  131OSM   C18F14222   2.123   5.363   5.088  1.5475 -0.0722 -0.1268
  131OSM   H18F14223   2.140   5.417   4.993 -0.3926 -0.4978 -0.7541
  131OSM   H18G14224   2.143   5.430   5.174  0.8737  0.0507 -0.0647
  131OSM   H18H14225   2.013   5.345   5.093  1.7124 -1.0784  0.2040
  132OSM      N14226   6.945   2.849   7.190 -0.5574 -0.6381  0.6193
  132OSM    C1514227   6.927   2.748   7.303 -0.6457  0.0816 -0.8294
  132OSM   H15A14228   6.853   2.677   7.270 -0.8885  0.3547 -0.8805
  132OSM   H15B14229   6.902   2.789   7.400 -0.1064 -1.9384  0.2106
  132OSM   H15C14230   7.014   2.689   7.326  0.2012  1.1884 -1.1112
  132OSM    C1414231   6.806   2.890   7.134  0.2431  0.1835 -0.3152
  132OSM   H14A14232   6.729   2.884   7.209  0.1838 -0.0152 -0.3928
  132OSM   H14B14233   6.779   2.817   7.060  0.5419 -1.0566  0.7620
  132OSM   H14C14234   6.800   2.993   7.101 -1.3608 -0.4170 -2.0410
  132OSM    C1314235   7.011   2.970   7.252 -0.0282  0.3863  0.1300
  132OSM   H13A14236   6.938   3.011   7.320  0.0072 -0.9727  1.0374
  132OSM   H13B14237   7.032   3.045   7.177 -1.9501  0.3717 -0.4885
  132OSM   H13C14238   7.100   2.939   7.304 -1.7042  0.6500  3.4007
  132OSM    C1214239   7.044   2.802   7.087  0.0180  0.0214 -0.3544
  132OSM   H12A14240   7.130   2.760   7.136  0.5714  3.5892  2.0237
  132OSM   H12B14241   7.085   2.886   7.035 -1.1681  0.1918 -1.0571
  132OSM    C1114242   7.004   2.692   6.981  0.2246 -0.3469  0.3873
  132OSM   H11A14243   7.073   2.659   6.900  0.2014  3.0042 -1.1481
  132OSM   H11B14244   6.930   2.745   6.918 -1.0822 -1.7397  0.6982
  132OSM      P14245   7.018   2.451   7.093 -0.4697 -0.1061  0.1056
  132OSM    O1314246   7.140   2.491   7.170 -0.0496 -0.0357 -0.5426
  132OSM    O1414247   6.924   2.357   7.147 -0.1129  0.3514  0.3525
  132OSM    O1114248   7.073   2.399   6.960 -0.0849  0.0528  0.1319
  132OSM    O1214249   6.941   2.576   7.042  0.2863 -0.3068  0.4438
  132OSM    C1S14250   6.988   2.314   6.879 -0.4354 -0.0612 -0.1694
  132OSM    H1S14251   6.882   2.347   6.881  0.0131  1.4191  1.2116
  132OSM    H1T14252   7.002   2.205   6.900 -0.4227 -0.9823 -4.1287
  132OSM     NF14253   6.928   2.268   6.629 -0.0051 -0.2000 -0.1175
  132OSM    HNF14254   6.956   2.197   6.565  0.5410 -0.5444  0.5028
  132OSM    C2S14255   7.025   2.321   6.723  0.8009  0.2124  0.1661
  132OSM    H2S14256   7.034   2.431   6.706 -2.0233  0.1117 -2.9052
  132OSM    C3S14257   7.173   2.268   6.689 -0.1369  0.3304  0.2351
  132OSM    H3S14258   7.154   2.159   6.673 -0.7165  0.6715 -1.5610
  132OSM     O314259   7.274   2.283   6.791  0.5354  0.0792 -0.2657
  132OSM    HO314260   7.234   2.328   6.866  1.4565  3.6654 -1.6991
  132OSM    C4S14261   7.210   2.321   6.554 -0.0010  0.2818  0.3141
  132OSM    H4S14262   7.169   2.265   6.469 -1.4401  1.3794  0.2380
  132OSM    C5S14263   7.254   2.447   6.535  0.6826  0.2874 -0.3694
  132OSM    H5S14264   7.266   2.517   6.619  3.2558 -0.2112 -0.2290
  132OSM    C6S14265   7.256   2.515   6.402 -0.0120 -0.5014 -0.6118
  132OSM    H6S14266   7.271   2.452   6.312 -1.8139 -1.1271 -0.5153
  132OSM    H6T14267   7.340   2.586   6.417  0.0431 -0.6178 -0.3642
  132OSM    C7S14268   7.134   2.607   6.380 -0.4696 -0.1592 -0.2641
  132OSM    H7S14269   7.159   2.682   6.301  0.5440 -0.8650 -0.6311
  132OSM    H7T14270   7.097   2.668   6.465 -0.8426 -1.2916  0.4159
  132OSM    C8S14271   7.009   2.523   6.323 -1.0046 -0.3201 -0.0468
  132OSM    H8S14272   6.922   2.585   6.353 -0.9846 -0.6312  0.7050
  132OSM    H8T14273   7.006   2.423   6.372  0.1391 -1.6714 -2.5416
  132OSM    C9S14274   6.999   2.484   6.176  0.2485 -0.6298  0.4722
  132OSM    H9S14275   7.065   2.398   6.152  0.4690 -0.4187  0.3192
  132OSM    H9T14276   7.038   2.561   6.107  0.8182 -1.1951  0.1521
  132OSM   C10S14277   6.862   2.434   6.131  0.1695 -0.1034  0.0964
  132OSM   H10S14278   6.790   2.515   6.155  0.2634 -0.0026  0.0319
  132OSM   H10T14279   6.825   2.344   6.186 -1.8669  0.6205 -0.0082
  132OSM   C11S14280   6.857   2.413   5.976 -0.6989 -0.1545 -0.2174
  132OSM   H11S14281   6.939   2.341   5.955 -1.5258 -2.2898  2.9861
  132OSM   H11T14282   6.881   2.512   5.932 -0.0862 -0.5170 -0.7171
  132OSM   C12S14283   6.718   2.346   5.936  0.5728  0.0105 -0.1027
  132OSM   H12S14284   6.634   2.409   5.971  2.0124  1.9586  0.0330
  132OSM   H12T14285   6.715   2.254   5.998 -0.2620  0.3996  0.4408
  132OSM   C13S14286   6.714   2.317   5.786 -0.2260  0.3632 -0.2620
  132OSM   H13S14287   6.817   2.293   5.754 -0.6816 -3.6449  0.7960
  132OSM   H13T14288   6.681   2.403   5.723  1.6560  0.2463 -1.4817
  132OSM   C14S14289   6.628   2.193   5.747  0.2792  0.4948 -0.6265
  132OSM   H14S14290   6.544   2.187   5.819 -1.6508  0.3056 -2.7973
  132OSM   H14T14291   6.694   2.106   5.767 -0.2555  0.0727 -0.6822
  132OSM   C15S14292   6.568   2.187   5.610 -0.1775  0.1868  0.0276
  132OSM   H15S14293   6.553   2.084   5.572 -1.3278  0.7656 -1.1180
  132OSM   H15T14294   6.644   2.232   5.542  1.1391  0.2561  1.4739
  132OSM   C16S14295   6.432   2.257   5.603 -0.8893  0.4654 -0.2421
  132OSM   H16S14296   6.437   2.357   5.653  0.8962 -0.8640  2.4907
  132OSM   H16T14297   6.368   2.194   5.669 -0.2769  1.8006  1.7192
  132OSM   C17S14298   6.375   2.250   5.460 -0.3803  0.1795 -0.1747
  132OSM   H17S14299   6.355   2.145   5.432  1.2574 -0.5027  1.0730
  132OSM   H17T14300   6.450   2.278   5.384 -2.3184  1.0677 -1.8697
  132OSM   C18S14301   6.251   2.337   5.439  0.8009  0.3721 -0.8092
  132OSM   H18S14302   6.182   2.304   5.519  0.7520 -0.6440 -1.2507
  132OSM   H18T14303   6.206   2.327   5.338  0.9254 -0.8628 -0.7640
  132OSM   H18U14304   6.275   2.446   5.445  0.2174  0.5094 -0.9684
  132OSM    C1F14305   6.807   2.321   6.617 -0.2705 -0.1615  0.5169
  132OSM     OF14306   6.779   2.420   6.681  0.2394 -0.1599 -0.8442
  132OSM    C2F14307   6.711   2.266   6.515  0.3449 -0.3231 -0.5161
  132OSM    H2F14308   6.671   2.169   6.553 -1.0033 -0.1416 -1.4057
  132OSM    H2G14309   6.765   2.226   6.427  1.1188 -2.1639  0.7269
  132OSM    C3F14310   6.586   2.348   6.484  0.2512  0.7172 -0.2782
  132OSM    H3F14311   6.625   2.447   6.452 -0.1368  0.7917 -0.5248
  132OSM    H3G14312   6.523   2.369   6.573 -0.4619 -0.6636 -0.4310
  132OSM    C4F14313   6.500   2.294   6.371 -0.5312 -0.5806 -0.4104
  132OSM    H4F14314   6.412   2.241   6.412 -1.3363 -0.2537 -1.6631
  132OSM    H4G14315   6.570   2.218   6.330  1.1756  0.9794 -0.5595
  132OSM    C5F14316   6.463   2.405   6.267 -0.7295 -0.4465  0.0063
  132OSM    H5F14317   6.558   2.452   6.233 -1.1120  0.1350 -0.2910
  132OSM    H5G14318   6.411   2.486   6.323 -1.5827 -0.6753 -0.4347
  132OSM    C6F14319   6.378   2.378   6.141  0.8587  0.3522 -0.0104
  132OSM    H6F14320   6.300   2.309   6.180 -0.3998  1.8951  0.2966
  132OSM    H6G14321   6.440   2.327   6.064  1.6423  1.0186  0.1686
  132OSM    C7F14322   6.318   2.502   6.081 -0.4941  0.3160  0.3985
  132OSM    H7F14323   6.404   2.572   6.080 -0.8437  0.7878  1.3321
  132OSM    H7G14324   6.231   2.544   6.137 -1.2375 -1.1450  0.3952
  132OSM    C8F14325   6.271   2.475   5.931 -1.0333 -0.6219 -0.1864
  132OSM    H8F14326   6.364   2.436   5.884 -0.5638 -0.1761  0.3592
  132OSM    H8G14327   6.258   2.568   5.871  0.7262 -1.6041 -2.2158
  132OSM    C9F14328   6.158   2.379   5.918  0.9104  0.5801 -0.2865
  132OSM    H9F14329   6.158   2.287   5.978 -2.7319  0.2471 -0.5620
  132OSM   C10F14330   6.047   2.396   5.838 -0.6915  0.4761 -0.3668
  132OSM   H10F14331   5.971   2.318   5.844  0.3792 -0.6088 -0.5459
  132OSM   C11F14332   6.008   2.509   5.748  0.1806 -0.2288  0.4085
  132OSM   H11F14333   6.091   2.567   5.703  0.6757 -0.0312  1.5411
  132OSM   H11G14334   5.954   2.591   5.799 -0.6219 -0.7140  0.3552
  132OSM   C12F14335   5.910   2.473   5.638  0.2189  0.3516 -0.3141
  132OSM   H12F14336   5.917   2.367   5.608  0.7629 -0.0907  1.2761
  132OSM   H12G14337   5.943   2.525   5.545  0.7298  2.8436  1.1635
  132OSM   C13F14338   5.765   2.519   5.677 -0.5498 -0.0379 -0.4707
  132OSM   H13F14339   5.761   2.629   5.665  2.2245  0.3125  0.9006
  132OSM   H13G14340   5.760   2.497   5.786  1.0161  1.3404 -0.0851
  132OSM   C14F14341   5.647   2.458   5.599  0.0756  0.4666 -0.5921
  132OSM   H14F14342   5.664   2.348   5.586  1.3119  0.4766  0.7142
  132OSM   H14G14343   5.644   2.498   5.495 -0.6582 -0.2225 -0.8551
  132OSM   C15F14344   5.514   2.478   5.674  0.4003  0.1369  0.1694
  132OSM   H15F14345   5.509   2.582   5.712 -0.8985  0.2636 -0.3062
  132OSM   H15G14346   5.511   2.417   5.767  0.2188 -0.7958 -0.4417
  132OSM   C16F14347   5.394   2.452   5.588  0.0628  0.2989 -0.3750
  132OSM   H16F14348   5.392   2.484   5.481  1.7577 -1.8208 -1.1256
  132OSM   H16G14349   5.315   2.509   5.641 -1.9562 -2.5747 -0.0952
  132OSM   C17F14350   5.359   2.304   5.582  0.5247 -0.2752 -0.9395
  132OSM   H17F14351   5.324   2.260   5.678  0.0426  0.8589 -0.5714
  132OSM   H17G14352   5.452   2.251   5.551  0.1027 -0.2665 -2.2436
  132OSM   C18F14353   5.244   2.273   5.487 -0.2051  0.3293  0.1065
  132OSM   H18F14354   5.232   2.163   5.491  0.3501  0.2719  0.2333
  132OSM   H18G14355   5.265   2.314   5.386 -0.7886  0.9598  0.2330
  132OSM   H18H14356   5.152   2.326   5.520 -0.4032  1.4362 -2.0583
  133OSM      N14357   3.054   0.155   7.261 -0.9358  0.1204 -0.4342
  133OSM    C1514358   3.050   0.047   7.355 -0.1344  0.4960 -0.0237
  133OSM   H15A14359   2.981  -0.032   7.330  0.4810 -0.5029  1.3028
  133OSM   H15B14360   3.037   0.081   7.457  0.1981  1.0677 -0.1667
  133OSM   H15C14361   3.144  -0.006   7.355  0.4548  1.4875 -1.3721
  133OSM    C1414362   3.108   0.269   7.339 -0.4199 -0.6762 -0.4427
  133OSM   H14A14363   3.211   0.246   7.364 -0.0222 -0.3604 -1.6974
  133OSM   H14B14364   3.053   0.300   7.426  2.3950  1.4007  0.7645
  133OSM   H14C14365   3.107   0.353   7.271  0.9920 -0.8061 -0.6621
  133OSM    C1314366   3.145   0.126   7.144  0.4611  0.1585 -0.5161
  133OSM   H13A14367   3.121   0.040   7.083 -1.4545 -0.0523  0.4469
  133OSM   H13B14368   3.247   0.117   7.179 -0.0955  1.6493  1.7027
  133OSM   H13C14369   3.154   0.207   7.073  1.9401 -1.4127 -2.2393
  133OSM    C1214370   2.910   0.183   7.221  0.3885  0.0336 -0.2386
  133OSM   H12A14371   2.844   0.207   7.304 -0.3066  1.8549 -1.2445
  133OSM   H12B14372   2.867   0.103   7.163  3.0105 -1.8864  0.3215
  133OSM    C1114373   2.890   0.315   7.131  0.5070  0.6267 -0.0648
  133OSM   H11A14374   2.791   0.300   7.084  0.1164 -0.5999  1.0957
  133OSM   H11B14375   2.956   0.296   7.043 -1.0979 -3.9412 -0.5886
  133OSM      P14376   2.784   0.488   7.279  0.0539 -0.1279  0.0811
  133OSM    O1314377   2.739   0.369   7.359 -0.0633 -0.0101 -0.0795
  133OSM    O1414378   2.825   0.609   7.348 -0.5019  0.3716  0.1675
  133OSM    O1114379   2.678   0.520   7.166  0.4365  0.2786 -0.5019
  133OSM    O1214380   2.913   0.440   7.197  0.1983 -0.1866 -0.2571
  133OSM    C1S14381   2.729   0.608   7.058  0.3319  0.5493 -0.0946
  133OSM    H1S14382   2.763   0.548   6.971 -1.9878  0.4980 -1.0265
  133OSM    H1T14383   2.808   0.678   7.091 -0.2552  1.2138 -0.0939
  133OSM     NF14384   2.649   0.772   6.886 -0.5307 -0.4673  1.2096
  133OSM    HNF14385   2.629   0.870   6.892 -3.4933 -0.8279 -0.5567
  133OSM    C2S14386   2.610   0.689   6.999 -0.0372  0.1626  0.4015
  133OSM    H2S14387   2.537   0.617   6.957 -0.5323  1.4042 -0.9761
  133OSM    C3S14388   2.530   0.768   7.102  0.0363  0.5600 -0.0728
  133OSM    H3S14389   2.586   0.863   7.115  0.8691  0.0456  0.1744
  133OSM     O314390   2.517   0.711   7.232 -0.2645 -0.1618  0.1180
  133OSM    HO314391   2.558   0.625   7.220 -2.6070 -1.3880  0.3114
  133OSM    C4S14392   2.404   0.820   7.052  0.8753  0.1179  0.2476
  133OSM    H4S14393   2.395   0.927   7.029 -1.4860  0.1467  0.9525
  133OSM    C5S14394   2.292   0.743   7.039 -0.0442  0.5337  0.3019
  133OSM    H5S14395   2.291   0.637   7.065  0.7988  1.2817  3.9948
  133OSM    C6S14396   2.164   0.789   6.991 -0.6716  0.7581 -0.4180
  133OSM    H6S14397   2.160   0.900   6.986 -1.3559  0.7255 -0.6164
  133OSM    H6T14398   2.082   0.743   7.049  0.1701 -0.9292 -0.4872
  133OSM    C7S14399   2.145   0.718   6.854 -0.4063  0.2160 -0.1553
  133OSM    H7S14400   2.127   0.611   6.875 -0.5602  0.1058 -0.8404
  133OSM    H7T14401   2.235   0.733   6.790  0.2678  0.8352  0.9144
  133OSM    C8S14402   2.026   0.771   6.779  0.1608 -0.6527 -0.8568
  133OSM    H8S14403   2.006   0.880   6.779 -0.2869 -0.7323 -0.9795
  133OSM    H8T14404   1.940   0.740   6.841 -0.2385  1.1647 -0.4486
  133OSM    C9S14405   2.034   0.714   6.632  0.3861  0.0387  0.0367
  133OSM    H9S14406   2.017   0.605   6.638 -2.7817  0.5163  1.9019
  133OSM    H9T14407   2.127   0.741   6.576 -1.4638  1.2198 -2.7030
  133OSM   C10S14408   1.925   0.768   6.537 -0.0765 -0.2630 -0.6015
  133OSM   H10S14409   1.957   0.869   6.502 -3.7870  0.7730 -1.4559
  133OSM   H10T14410   1.826   0.782   6.586  0.4530  1.8625 -0.0502
  133OSM   C11S14411   1.901   0.668   6.422 -0.8475  0.1035 -0.2079
  133OSM   H11S14412   1.807   0.690   6.367 -0.5473  2.3831  0.0992
  133OSM   H11T14413   1.902   0.564   6.460  0.2658  0.4669  0.7953
  133OSM   C12S14414   2.012   0.687   6.312  0.1910  0.6718 -0.1977
  133OSM   H12S14415   2.000   0.600   6.245 -0.9584  0.1353  0.6646
  133OSM   H12T14416   2.113   0.687   6.358  0.2078  0.4765 -0.2327
  133OSM   C13S14417   2.001   0.806   6.219 -0.0724  0.1277  0.6468
  133OSM   H13S14418   2.015   0.896   6.282 -0.8158  0.0864  0.8834
  133OSM   H13T14419   1.900   0.822   6.175  0.6290  1.7739 -0.4359
  133OSM   C14S14420   2.107   0.806   6.107  1.6037  0.2294  0.1150
  133OSM   H14S14421   2.098   0.709   6.054 -0.9234  0.8994 -0.8086
  133OSM   H14T14422   2.206   0.809   6.158  0.2775  1.8778  2.8555
  133OSM   C15S14423   2.087   0.932   6.015 -0.1057  0.9059  0.4574
  133OSM   H15S14424   2.101   1.025   6.075 -1.5280  0.7340  1.1128
  133OSM   H15T14425   1.986   0.940   5.970  0.3774  0.9936 -0.6485
  133OSM   C16S14426   2.196   0.920   5.902  0.0231 -0.1800 -0.5000
  133OSM   H16S14427   2.188   0.825   5.846  0.7665 -1.2190  1.0708
  133OSM   H16T14428   2.295   0.910   5.953 -1.1387 -0.6782  1.8140
  133OSM   C17S14429   2.199   1.041   5.801 -0.5319 -0.1804 -0.2892
  133OSM   H17S14430   2.229   1.129   5.862 -0.1595 -1.1788  1.0194
  133OSM   H17T14431   2.096   1.069   5.771 -0.4103  0.9479  0.3174
  133OSM   C18S14432   2.282   1.006   5.682 -0.2889 -0.5494  0.2466
  133OSM   H18S14433   2.235   0.947   5.601  2.0610 -1.0266 -0.8656
  133OSM   H18T14434   2.372   0.948   5.712  0.2635 -0.3772 -1.0163
  133OSM   H18U14435   2.319   1.097   5.630  0.5893  0.7383  2.9233
  133OSM    C1F14436   2.684   0.717   6.766 -0.4592 -0.3257 -0.7526
  133OSM     OF14437   2.666   0.597   6.746  0.0513 -0.3898 -0.4599
  133OSM    C2F14438   2.739   0.810   6.654 -0.2817  0.4219  0.3319
  133OSM    H2F14439   2.836   0.846   6.693 -1.0794  1.7020  1.2203
  133OSM    H2G14440   2.681   0.904   6.659  0.5313  0.8706  1.6453
  133OSM    C3F14441   2.753   0.746   6.511 -0.5250  0.5040  0.5217
  133OSM    H3F14442   2.657   0.717   6.462  0.1115 -1.2246  0.2422
  133OSM    H3G14443   2.804   0.648   6.519  1.1175  1.3687  1.0218
  133OSM    C4F14444   2.850   0.834   6.420  0.4127  0.1105 -0.1477
  133OSM    H4F14445   2.936   0.864   6.483  1.3182 -1.7233 -0.4418
  133OSM    H4G14446   2.796   0.927   6.392 -1.1072 -0.9318 -0.8103
  133OSM    C5F14447   2.888   0.764   6.285 -0.0311 -0.3079 -0.3185
  133OSM    H5F14448   2.795   0.735   6.232 -0.0403  0.2108 -0.5960
  133OSM    H5G14449   2.937   0.667   6.303 -1.5033 -0.9239  0.5611
  133OSM    C6F14450   2.978   0.840   6.186  0.0383  0.1946 -1.1163
  133OSM    H6F14451   3.077   0.876   6.222 -1.1362  2.5933 -0.0703
  133OSM    H6G14452   2.922   0.929   6.152  2.1134  1.4025 -1.5496
  133OSM    C7F14453   3.007   0.752   6.065 -0.3148  0.2279  0.0521
  133OSM    H7F14454   2.914   0.704   6.028 -1.5883  1.4794  1.4779
  133OSM    H7G14455   3.072   0.668   6.099 -0.8396 -0.7752 -1.3630
  133OSM    C8F14456   3.089   0.825   5.952 -0.4683 -0.3460 -0.3451
  133OSM    H8F14457   3.197   0.816   5.974 -0.5047 -2.2435 -0.7731
  133OSM    H8G14458   3.063   0.933   5.949  0.0895 -0.1833  0.5611
  133OSM    C9F14459   3.066   0.776   5.815  0.0735  0.0450 -0.7931
  133OSM    H9F14460   2.957   0.764   5.807  0.0390  0.4408 -0.9543
  133OSM   C10F14461   3.150   0.737   5.715  1.4978  0.1170 -0.4835
  133OSM   H10F14462   3.097   0.693   5.630  1.1414 -0.6474  0.1227
  133OSM   C11F14463   3.301   0.746   5.708 -0.2209 -0.5482 -0.3893
  133OSM   H11F14464   3.335   0.646   5.672  1.0642 -0.7559  1.3091
  133OSM   H11G14465   3.354   0.758   5.804  1.3321 -4.5367 -0.5345
  133OSM   C12F14466   3.357   0.862   5.613 -0.6479 -0.1200 -0.1765
  133OSM   H12F14467   3.467   0.870   5.622 -0.4371 -0.6406 -1.9528
  133OSM   H12G14468   3.314   0.961   5.641 -2.4810  0.0825 -3.2690
  133OSM   C13F14469   3.318   0.845   5.463  0.0399 -0.1453 -0.4308
  133OSM   H13F14470   3.208   0.852   5.448  0.1229 -0.7271 -1.4373
  133OSM   H13G14471   3.355   0.744   5.437  2.7134  0.0364  2.1978
  133OSM   C14F14472   3.392   0.939   5.361 -0.4575  0.5134  0.7527
  133OSM   H14F14473   3.498   0.945   5.393  1.2825 -3.1116 -3.2431
  133OSM   H14G14474   3.358   1.044   5.368 -1.7917  0.1450  0.1958
  133OSM   C15F14475   3.383   0.882   5.217  0.0406  0.9813 -0.1790
  133OSM   H15F14476   3.280   0.888   5.176 -0.2949  3.4337  0.8379
  133OSM   H15G14477   3.422   0.779   5.231 -0.7058  0.9701  2.2268
  133OSM   C16F14478   3.486   0.956   5.129 -0.9232  0.2921  0.6659
  133OSM   H16F14479   3.589   0.958   5.170 -0.5178  1.9637 -0.2978
  133OSM   H16G14480   3.459   1.064   5.127 -1.3909  0.2269  2.0782
  133OSM   C17F14481   3.488   0.924   4.978 -0.4782  0.1418  0.0701
  133OSM   H17F14482   3.387   0.953   4.940 -0.4244 -0.5929 -0.6337
  133OSM   H17G14483   3.517   0.818   4.965  0.3391  0.3312  0.3260
  133OSM   C18F14484   3.590   1.007   4.895 -0.4550 -0.5804 -0.1683
  133OSM   H18F14485   3.560   1.114   4.898 -1.9036 -0.8625 -2.3977
  133OSM   H18G14486   3.588   0.990   4.785  0.3158  1.0301 -0.4602
  133OSM   H18H14487   3.687   0.988   4.947 -0.3785 -0.1724 -0.1588
  134OSM      N14488   1.596   6.391   7.087 -0.2728 -0.0530 -0.1739
  134OSM    C1514489   1.700   6.395   7.177 -0.5135 -0.4073  0.2879
  134OSM   H15A14490   1.795   6.420   7.134 -0.8573 -0.4038 -0.4944
  134OSM   H15B14491   1.702   6.305   7.237  1.4480 -0.2250  0.5479
  134OSM   H15C14492   1.678   6.471   7.251 -0.6663 -0.6091  0.4526
  134OSM    C1414493   1.561   6.525   7.040  0.4158 -0.8372  1.0464
  134OSM   H14A14494   1.536   6.591   7.122 -1.3033  0.4427 -0.4500
  134OSM   H14B14495   1.479   6.524   6.970  1.4251 -0.1571 -0.1899
  134OSM   H14C14496   1.640   6.572   6.984 -3.3215  0.7061 -3.5782
  134OSM    C1314497   1.632   6.312   6.958  0.2284 -0.3713  0.1733
  134OSM   H13A14498   1.716   6.341   6.897 -2.9277 -0.3437 -4.6466
  134OSM   H13B14499   1.553   6.323   6.886 -1.0375  0.4097  1.6150
  134OSM   H13C14500   1.653   6.209   6.984 -1.0180 -0.6210  0.2269
  134OSM    C1214501   1.476   6.327   7.145  0.1651  0.1284  0.1434
  134OSM   H12A14502   1.402   6.342   7.068 -0.0740 -1.5786 -0.0022
  134OSM   H12B14503   1.444   6.372   7.238 -1.5159 -0.4722 -0.1191
  134OSM    C1114504   1.486   6.179   7.187  0.2163 -0.8932  0.0469
  134OSM   H11A14505   1.542   6.176   7.283 -2.6575 -1.1159  1.8472
  134OSM   H11B14506   1.546   6.124   7.111  0.1239  0.0718 -0.7488
  134OSM      P14507   1.335   5.970   7.194 -0.2612 -0.0244 -0.0537
  134OSM    O1314508   1.458   5.893   7.228 -0.0260 -0.2336 -0.1192
  134OSM    O1414509   1.211   5.931   7.266  0.1213  0.3969  0.0653
  134OSM    O1114510   1.320   5.953   7.032 -0.3887 -0.0784  0.6048
  134OSM    O1214511   1.359   6.122   7.217 -0.8668 -0.0235  0.3230
  134OSM    C1S14512   1.188   5.975   6.976 -0.7999 -0.4021  0.1709
  134OSM    H1S14513   1.177   6.084   6.956 -1.0363 -0.4273  0.1581
  134OSM    H1T14514   1.109   5.940   7.046 -1.3041  0.4545  0.0433
  134OSM     NF14515   1.057   5.950   6.769 -0.1078 -0.1974  0.2607
  134OSM    HNF14516   0.990   5.876   6.761 -2.3749  1.2995  3.4005
  134OSM    C2S14517   1.174   5.902   6.833  0.0156  0.0280 -0.1622
  134OSM    H2S14518   1.252   5.941   6.764 -0.4628  0.5784 -0.4052
  134OSM    C3S14519   1.184   5.750   6.841 -0.2814 -0.0681  0.4365
  134OSM    H3S14520   1.099   5.713   6.901 -0.3011  0.8824  1.0113
  134OSM     O314521   1.306   5.713   6.902  0.0170  0.2222 -0.3563
  134OSM    HO314522   1.333   5.796   6.942  0.1878  2.5918 -4.7670
  134OSM    C4S14523   1.184   5.677   6.706  0.4594 -0.6007  0.5195
  134OSM    H4S14524   1.264   5.695   6.633 -3.1763  2.3363 -3.1907
  134OSM    C5S14525   1.092   5.582   6.669  0.1894  0.0268  0.3918
  134OSM    H5S14526   1.017   5.546   6.740  0.5435  1.7576  1.6985
  134OSM    C6S14527   1.079   5.504   6.538 -0.1008 -0.5534  0.5753
  134OSM    H6S14528   1.105   5.397   6.553  0.7243 -0.5481 -0.6942
  134OSM    H6T14529   1.150   5.537   6.459 -1.1652 -0.8041 -0.5160
  134OSM    C7S14530   0.941   5.529   6.476 -0.5517 -0.4103  0.4800
  134OSM    H7S14531   0.912   5.635   6.467  0.1270 -0.2390  0.2412
  134OSM    H7T14532   0.867   5.481   6.543 -0.9726 -1.0804 -0.4287
  134OSM    C8S14533   0.920   5.457   6.337  0.1436 -0.7437  0.3001
  134OSM    H8S14534   0.814   5.465   6.304  0.5282 -2.9038 -1.6845
  134OSM    H8T14535   0.933   5.350   6.361  0.1369 -1.0772 -1.0628
  134OSM    C9S14536   1.017   5.514   6.220  0.3189 -0.5331 -0.4866
  134OSM    H9S14537   1.117   5.470   6.236 -1.0776 -3.3275  1.2519
  134OSM    H9T14538   1.026   5.624   6.236  0.0069 -0.5247 -0.3362
  134OSM   C10S14539   0.969   5.488   6.081  0.4568 -0.2963  0.4860
  134OSM   H10S14540   0.866   5.528   6.073  0.8663  1.1427  1.8835
  134OSM   H10T14541   0.957   5.377   6.074 -2.9586  0.0594 -0.9116
  134OSM   C11S14542   1.067   5.547   5.971  0.6850  0.0510 -0.6613
  134OSM   H11S14543   1.173   5.519   5.991  0.5511 -2.1398 -2.5894
  134OSM   H11T14544   1.052   5.657   5.975 -5.7019 -0.4195 -1.0718
  134OSM   C12S14545   1.042   5.502   5.822  0.3972 -0.5289 -0.0201
  134OSM   H12S14546   0.941   5.534   5.789  0.7748 -0.6221 -1.3286
  134OSM   H12T14547   1.049   5.391   5.821 -0.7076 -0.6199  0.6899
  134OSM   C13S14548   1.137   5.568   5.726 -0.8481 -0.4668  0.2205
  134OSM   H13S14549   1.244   5.548   5.747 -0.4406  0.0770 -1.2073
  134OSM   H13T14550   1.123   5.678   5.719 -2.4163 -0.6835 -0.5268
  134OSM   C14S14551   1.109   5.523   5.579  0.0118 -0.0484  0.8417
  134OSM   H14S14552   1.001   5.533   5.553  0.4155 -1.1071 -1.5532
  134OSM   H14T14553   1.126   5.413   5.571  2.0200  0.2378  0.6641
  134OSM   C15S14554   1.188   5.602   5.469  0.7080  0.9262  0.4075
  134OSM   H15S14555   1.297   5.617   5.483  0.6279  2.1937 -0.2402
  134OSM   H15T14556   1.147   5.705   5.459  1.3089  1.1668  0.3919
  134OSM   C16S14557   1.167   5.529   5.336  0.0282  0.0780  0.5846
  134OSM   H16S14558   1.063   5.497   5.314  0.2495  0.1142 -0.6373
  134OSM   H16T14559   1.235   5.440   5.337  3.6640  2.5616 -1.1849
  134OSM   C17S14560   1.208   5.612   5.215 -0.6712 -0.0922  0.0671
  134OSM   H17S14561   1.309   5.656   5.230 -1.0299  1.1606 -0.9443
  134OSM   H17T14562   1.132   5.692   5.203 -1.6583 -0.9223  0.6229
  134OSM   C18S14563   1.217   5.520   5.094 -0.4323  0.5065  0.2135
  134OSM   H18S14564   1.296   5.444   5.112 -1.2698 -0.2362  0.8398
  134OSM   H18T14565   1.251   5.584   5.009 -0.8743  0.3868 -0.0572
  134OSM   H18U14566   1.121   5.481   5.055 -0.7683  2.8169 -1.5573
  134OSM    C1F14567   1.032   6.075   6.729 -0.2425  0.5486 -0.4690
  134OSM     OF14568   1.096   6.170   6.774  0.8775  0.2658  0.2431
  134OSM    C2F14569   0.921   6.087   6.635 -0.1214  0.1093  0.4384
  134OSM    H2F14570   0.834   6.122   6.694 -0.3247 -0.3550  0.4128
  134OSM    H2G14571   0.897   5.988   6.590 -0.5896 -0.6969  2.3599
  134OSM    C3F14572   0.935   6.193   6.519 -0.1256 -0.1291 -0.5952
  134OSM    H3F14573   0.948   6.289   6.575 -1.3649 -0.4517  0.2887
  134OSM    H3G14574   0.834   6.190   6.473 -0.4323 -0.7569  0.1008
  134OSM    C4F14575   1.038   6.163   6.407  0.1517 -0.5775 -0.2466
  134OSM    H4F14576   1.039   6.059   6.367  3.0109 -1.2738  1.3795
  134OSM    H4G14577   1.137   6.175   6.454  0.0830 -0.5882 -0.0982
  134OSM    C5F14578   1.023   6.266   6.291  0.2655  0.2678  0.2279
  134OSM    H5F14579   1.029   6.372   6.324  1.6177  1.4523 -3.3002
  134OSM    H5G14580   0.931   6.255   6.228  1.0465  0.1438 -0.9229
  134OSM    C6F14581   1.134   6.245   6.195 -0.9042  0.3629 -0.0292
  134OSM    H6F14582   1.110   6.161   6.126  2.4388  0.4356 -1.4657
  134OSM    H6G14583   1.225   6.214   6.250  0.0923  1.5331 -0.9735
  134OSM    C7F14584   1.180   6.363   6.113 -0.4640 -0.5845  0.2635
  134OSM    H7F14585   1.197   6.452   6.177  0.4709 -0.1314 -0.5820
  134OSM    H7G14586   1.104   6.398   6.040  0.5006 -0.9496 -0.9476
  134OSM    C8F14587   1.311   6.350   6.028  0.1155  0.9284 -0.0772
  134OSM    H8F14588   1.390   6.311   6.095  1.6982 -0.7908 -2.7361
  134OSM    H8G14589   1.329   6.456   5.999 -1.9403  1.5410  0.6601
  134OSM    C9F14590   1.292   6.252   5.913 -0.6786  0.3713  0.5518
  134OSM    H9F14591   1.292   6.147   5.946 -0.4612  0.2783  0.2586
  134OSM   C10F14592   1.276   6.276   5.782  0.4648  0.5767 -0.5835
  134OSM   H10F14593   1.274   6.187   5.719  3.8474 -0.9863  1.2282
  134OSM   C11F14594   1.282   6.417   5.717 -0.3664 -0.4271  0.0253
  134OSM   H11F14595   1.326   6.420   5.615  0.4117 -0.3395  0.3587
  134OSM   H11G14596   1.352   6.476   5.779  1.9871 -1.5137 -1.4598
  134OSM   C12F14597   1.153   6.489   5.706 -0.0879 -0.6419  0.4532
  134OSM   H12F14598   1.100   6.468   5.801  1.6040 -0.8997  1.3746
  134OSM   H12G14599   1.088   6.448   5.626 -0.9832  0.1702  0.7420
  134OSM   C13F14600   1.161   6.644   5.699 -0.3084 -0.7220  0.1485
  134OSM   H13F14601   1.066   6.681   5.655  0.2763  0.0184 -0.5262
  134OSM   H13G14602   1.248   6.671   5.634 -0.1573 -2.0031 -0.2133
  134OSM   C14F14603   1.194   6.712   5.838 -0.6310  0.1882  0.2928
  134OSM   H14F14604   1.296   6.672   5.855 -0.2087 -1.2624 -4.1264
  134OSM   H14G14605   1.125   6.682   5.919 -0.8402  1.3709  0.5732
  134OSM   C15F14606   1.208   6.863   5.831 -0.0782  0.2385  0.1620
  134OSM   H15F14607   1.116   6.896   5.777 -0.2414 -2.1696 -1.1927
  134OSM   H15G14608   1.288   6.898   5.763  0.0307  1.0512  0.6937
  134OSM   C16F14609   1.209   6.934   5.963 -0.0317 -0.5746  0.8361
  134OSM   H16F14610   1.306   6.931   6.016 -0.0595  0.8709  1.0282
  134OSM   H16G14611   1.138   6.888   6.035 -0.4023 -1.8932 -0.3297
  134OSM   C17F14612   1.178   7.087   5.940 -0.6758 -0.1326 -0.1996
  134OSM   H17F14613   1.069   7.094   5.919 -0.4463  1.4770 -0.9546
  134OSM   H17G14614   1.237   7.131   5.857  0.7072  0.7532  1.2164
  134OSM   C18F14615   1.215   7.176   6.062 -0.1175 -0.0473  0.3285
  134OSM   H18F14616   1.164   7.274   6.053  1.7322  1.0646  1.1429
  134OSM   H18G14617   1.323   7.194   6.084 -0.5302  3.3201  0.0958
  134OSM   H18H14618   1.179   7.134   6.159  2.3292 -0.0246  1.3260
  135OSM      N14619   2.075   6.734   7.016 -0.1898  0.2484 -0.1556
  135OSM    C1514620   2.074   6.732   7.172 -0.0519 -0.1024  0.4404
  135OSM   H15A14621   2.136   6.811   7.213 -0.4323  0.0933  0.6499
  135OSM   H15B14622   2.124   6.639   7.190  0.8146 -0.3166 -2.5991
  135OSM   H15C14623   1.975   6.727   7.217 -0.6778 -1.1584 -0.9598
  135OSM    C1414624   1.993   6.617   6.966 -0.4541 -0.1758 -0.2626
  135OSM   H14A14625   2.022   6.532   7.025  1.6507 -0.6395 -1.8696
  135OSM   H14B14626   2.024   6.595   6.866  0.0980  2.2778 -0.7049
  135OSM   H14C14627   1.887   6.636   6.957 -0.1364  1.4817 -1.0653
  135OSM    C1314628   2.006   6.853   6.967  1.1287 -0.0818 -0.4347
  135OSM   H13A14629   1.902   6.856   6.995  0.7623  1.5125 -1.7953
  135OSM   H13B14630   1.999   6.856   6.860  3.4331  3.7357 -0.6800
  135OSM   H13C14631   2.055   6.942   7.005  1.5530 -0.8379  0.8465
  135OSM    C1214632   2.217   6.723   6.963 -0.4402  0.0571 -0.8001
  135OSM   H12A14633   2.231   6.687   6.862  2.8705  1.0610 -0.7927
  135OSM   H12B14634   2.270   6.651   7.024  2.2948  2.4744 -0.1036
  135OSM    C1114635   2.297   6.852   6.972 -0.5853  0.0007  0.5599
  135OSM   H11A14636   2.256   6.926   6.901  1.9358 -0.3038 -1.3767
  135OSM   H11B14637   2.401   6.842   6.934 -0.4146  0.0114  1.0195
  135OSM      P14638   2.344   7.049   7.145 -0.5156  0.0197 -0.3100
  135OSM    O1314639   2.233   7.110   7.216 -0.1479 -0.3841  0.0506
  135OSM    O1414640   2.469   7.055   7.221 -0.1077  0.3410 -0.1637
  135OSM    O1114641   2.356   7.126   7.004 -0.6784  0.4207 -0.3488
  135OSM    O1214642   2.306   6.895   7.113 -0.7837 -0.1840  0.3445
  135OSM    C1S14643   2.475   7.202   6.989 -0.5682 -0.1410  0.4696
  135OSM    H1S14644   2.569   7.145   7.006  0.7887  1.8836  0.0748
  135OSM    H1T14645   2.484   7.294   7.050  1.8478 -0.0900  0.1065
  135OSM     NF14646   2.611   7.306   6.794  0.1933 -0.1166  0.4642
  135OSM    HNF14647   2.614   7.401   6.763 -0.2401 -0.4678 -0.7084
  135OSM    C2S14648   2.478   7.257   6.840 -0.3923 -0.0490 -0.3966
  135OSM    H2S14649   2.459   7.167   6.777  0.3665 -0.7234  0.3173
  135OSM    C3S14650   2.371   7.361   6.814  0.1102  0.3454 -0.3625
  135OSM    H3S14651   2.385   7.445   6.885 -0.8505  0.9183 -0.8212
  135OSM     O314652   2.235   7.318   6.831 -0.7317  0.1183 -0.0749
  135OSM    HO314653   2.232   7.233   6.877 -5.2730 -0.3494 -0.7075
  135OSM    C4S14654   2.374   7.416   6.671  0.4345 -0.5319  0.3792
  135OSM    H4S14655   2.391   7.336   6.598  0.0481  0.3151 -0.6605
  135OSM    C5S14656   2.375   7.545   6.624  0.2272 -0.9011  0.1955
  135OSM    H5S14657   2.386   7.628   6.696  0.2180 -0.2823 -0.4995
  135OSM    C6S14658   2.398   7.590   6.480 -0.0597  0.2007  0.4052
  135OSM    H6S14659   2.483   7.661   6.482  0.4805 -0.3748 -0.9080
  135OSM    H6T14660   2.320   7.658   6.439 -1.6100 -1.8578 -0.2679
  135OSM    C7S14661   2.428   7.483   6.371 -0.0301  0.0670 -0.4638
  135OSM    H7S14662   2.353   7.403   6.392  0.3204  0.7555  5.1050
  135OSM    H7T14663   2.519   7.422   6.393 -1.6320 -1.6982  1.8909
  135OSM    C8S14664   2.438   7.541   6.226 -0.0659 -0.0996 -0.5147
  135OSM    H8S14665   2.522   7.613   6.230 -1.2876  1.3139  2.1148
  135OSM    H8T14666   2.347   7.603   6.215  1.4889  2.0579 -2.1416
  135OSM    C9S14667   2.449   7.437   6.116  0.3306 -0.1494 -0.6448
  135OSM    H9S14668   2.354   7.380   6.114 -1.5346  2.7379 -0.3184
  135OSM    H9T14669   2.539   7.378   6.144 -0.6626 -1.4151  0.0043
  135OSM   C10S14670   2.463   7.508   5.985  0.3332 -0.6101 -0.2076
  135OSM   H10S14671   2.559   7.565   5.985 -0.5088  1.0261 -3.2615
  135OSM   H10T14672   2.389   7.590   5.971 -0.0116 -0.5929  1.5176
  135OSM   C11S14673   2.460   7.419   5.852 -0.0007  0.6768  0.2096
  135OSM   H11S14674   2.354   7.388   5.841 -0.3374  2.4378 -2.6082
  135OSM   H11T14675   2.513   7.321   5.857 -0.3437  0.4622 -0.2917
  135OSM   C12S14676   2.519   7.495   5.737 -0.2244 -0.4283  0.5012
  135OSM   H12S14677   2.613   7.544   5.768  0.3177 -1.3697  0.3798
  135OSM   H12T14678   2.448   7.580   5.726 -0.8679 -0.9675  0.4202
  135OSM   C13S14679   2.534   7.409   5.613 -0.1022 -0.4789 -0.0616
  135OSM   H13S14680   2.443   7.348   5.596 -0.3529 -0.3267  0.6671
  135OSM   H13T14681   2.631   7.356   5.609  0.5278  0.6996 -2.7860
  135OSM   C14S14682   2.545   7.504   5.490  0.3563 -0.0682  0.4656
  135OSM   H14S14683   2.639   7.564   5.492 -0.8796  1.9294  1.0548
  135OSM   H14T14684   2.462   7.577   5.487  1.2795  1.0569  1.3844
  135OSM   C15S14685   2.517   7.422   5.372 -0.0375 -0.5766 -0.4976
  135OSM   H15S14686   2.458   7.474   5.293 -1.3090  1.3775  1.6374
  135OSM   H15T14687   2.441   7.345   5.393  0.8341 -1.7690 -1.5467
  135OSM   C16S14688   2.648   7.366   5.319  0.5294 -0.1502  0.4686
  135OSM   H16S14689   2.697   7.310   5.402  0.5524 -1.5501 -0.4579
  135OSM   H16T14690   2.711   7.447   5.274 -2.0638  0.9456 -1.4715
  135OSM   C17S14691   2.613   7.265   5.220  0.1230 -0.6902  0.1407
  135OSM   H17S14692   2.543   7.183   5.248 -0.6973  0.5006  1.6999
  135OSM   H17T14693   2.710   7.222   5.186  0.8561  0.1763  1.1050
  135OSM   C18S14694   2.553   7.333   5.095 -0.0586  0.4620  0.1023
  135OSM   H18S14695   2.454   7.380   5.111 -0.4836  0.7142 -2.6390
  135OSM   H18T14696   2.554   7.255   5.015 -1.3536 -0.3856  0.8645
  135OSM   H18U14697   2.612   7.423   5.068 -1.9048  2.2577  1.7049
  135OSM    C1F14698   2.726   7.238   6.776 -0.9937 -0.1451 -0.2252
  135OSM     OF14699   2.739   7.124   6.818 -0.0856 -0.1310 -0.9349
  135OSM    C2F14700   2.841   7.299   6.692 -0.1362 -0.5131  1.0237
  135OSM    H2F14701   2.922   7.223   6.693  0.0638 -0.3217  0.0580
  135OSM    H2G14702   2.876   7.392   6.743 -1.9126  0.2428  0.9515
  135OSM    C3F14703   2.788   7.335   6.556  0.0169 -0.4482 -0.2432
  135OSM    H3F14704   2.737   7.434   6.556  0.8049  0.0185  1.6937
  135OSM    H3G14705   2.714   7.257   6.528 -1.6376  0.8724  0.2683
  135OSM    C4F14706   2.894   7.355   6.443 -0.9906 -0.0913 -0.3887
  135OSM    H4F14707   2.963   7.433   6.481 -2.5117  0.6356  0.9790
  135OSM    H4G14708   2.948   7.258   6.451 -0.2660  0.2559 -0.9239
  135OSM    C5F14709   2.833   7.378   6.302  0.4439 -0.1010  0.1178
  135OSM    H5F14710   2.785   7.478   6.294 -0.5663 -0.6192 -0.4250
  135OSM    H5G14711   2.754   7.303   6.282 -0.0895  0.3489  0.4815
  135OSM    C6F14712   2.926   7.363   6.179  0.6397 -0.9748 -0.4065
  135OSM    H6F14713   2.986   7.269   6.181  2.1103 -0.1756 -2.5240
  135OSM    H6G14714   3.003   7.442   6.186 -1.5872  1.2370  0.3012
  135OSM    C7F14715   2.859   7.367   6.043  0.0608 -0.5023 -0.7767
  135OSM    H7F14716   2.827   7.472   6.032  2.6894  0.2923 -1.7397
  135OSM    H7G14717   2.774   7.295   6.042  0.3098 -0.7989 -1.0015
  135OSM    C8F14718   2.945   7.318   5.921  0.8522 -0.8441 -0.0545
  135OSM    H8F14719   2.987   7.220   5.955  1.1897 -1.1781 -1.3889
  135OSM    H8G14720   3.037   7.380   5.912  0.4031 -0.4273 -2.5355
  135OSM    C9F14721   2.878   7.282   5.793  0.9527 -0.5125 -0.1391
  135OSM    H9F14722   2.777   7.239   5.805  0.5386  0.7784  1.3042
  135OSM   C10F14723   2.929   7.296   5.670 -0.1138  0.1700  0.0419
  135OSM   H10F14724   2.871   7.249   5.590 -1.5620  0.8259  0.6807
  135OSM   C11F14725   3.075   7.340   5.640  0.2686 -0.5586  0.1134
  135OSM   H11F14726   3.146   7.263   5.678  0.5710  0.0676  0.8399
  135OSM   H11G14727   3.100   7.436   5.688 -0.4774 -1.1739  1.7932
  135OSM   C12F14728   3.102   7.367   5.493 -0.4875 -0.8355  0.6232
  135OSM   H12F14729   3.040   7.453   5.463  1.8313  0.3088 -1.1951
  135OSM   H12G14730   3.095   7.276   5.429 -0.4134 -1.1516  1.0523
  135OSM   C13F14731   3.244   7.416   5.465  0.9949 -0.2287  0.8624
  135OSM   H13F14732   3.327   7.342   5.465 -0.8647 -2.4532 -0.2108
  135OSM   H13G14733   3.263   7.486   5.549  0.5453  0.0372  0.7453
  135OSM   C14F14734   3.241   7.491   5.327 -0.1308  0.3710  0.4727
  135OSM   H14F14735   3.341   7.538   5.317  0.0630 -0.2913 -0.9145
  135OSM   H14G14736   3.169   7.575   5.339  0.0107  0.5993 -0.2240
  135OSM   C15F14737   3.188   7.407   5.205 -0.9207 -0.1108 -0.4164
  135OSM   H15F14738   3.089   7.363   5.232  0.3813 -3.5132 -0.7496
  135OSM   H15G14739   3.259   7.322   5.200  0.1538  0.7561 -0.3161
  135OSM   C16F14740   3.166   7.480   5.077 -0.1009  0.2516  0.1128
  135OSM   H16F14741   3.265   7.499   5.031  0.2170 -1.0696  0.2095
  135OSM   H16G14742   3.116   7.576   5.102 -0.9680 -0.0197 -0.5486
  135OSM   C17F14743   3.086   7.405   4.977  0.3069  0.5439  0.0391
  135OSM   H17F14744   3.136   7.308   4.957 -0.7325 -0.0030  0.0054
  135OSM   H17G14745   3.086   7.453   4.877  0.8101  1.2679  0.3749
  135OSM   C18F14746   2.939   7.377   5.014  0.4365  0.0969 -0.0206
  135OSM   H18F14747   2.895   7.308   4.939 -1.3952  0.0502  1.0701
  135OSM   H18G14748   2.889   7.476   5.011  2.3334  1.1257  0.6325
  135OSM   H18H14749   2.928   7.331   5.114  1.4821 -2.0672 -0.8406
  136OSM      N14750   3.693   0.393   7.512 -0.6101  0.0472 -0.3030
  136OSM    C1514751   3.669   0.536   7.509  0.5907  0.1598 -0.2525
  136OSM   H15A14752   3.741   0.580   7.441  0.5140 -0.0198 -0.4524
  136OSM   H15B14753   3.691   0.581   7.604  0.3353  1.3239 -0.7284
  136OSM   H15C14754   3.566   0.560   7.488  0.3078  0.7435  1.6898
  136OSM    C1414755   3.824   0.370   7.583  0.2424  0.3851  0.1942
  136OSM   H14A14756   3.915   0.406   7.539 -0.3863 -0.0382 -1.5814
  136OSM   H14B14757   3.844   0.264   7.580 -0.6848  0.1990  0.0625
  136OSM   H14C14758   3.825   0.404   7.685 -0.8415 -1.2457  0.7948
  136OSM    C1314759   3.585   0.336   7.598  0.0002 -0.1843  0.0240
  136OSM   H13A14760   3.488   0.366   7.561  0.0570  0.6123  0.5000
  136OSM   H13B14761   3.601   0.375   7.697  1.2944  0.4331 -0.3973
  136OSM   H13C14762   3.583   0.229   7.586 -0.3615 -0.0401 -1.3253
  136OSM    C1214763   3.686   0.336   7.372 -0.0307 -0.2596  0.7822
  136OSM   H12A14764   3.749   0.401   7.313  0.2776 -0.3921  0.9607
  136OSM   H12B14765   3.590   0.357   7.329  0.6314 -1.9894 -1.8080
  136OSM    C1114766   3.720   0.192   7.360 -0.6234  0.7373  0.4316
  136OSM   H11A14767   3.817   0.177   7.412  0.4092  0.6656 -1.4222
  136OSM   H11B14768   3.736   0.177   7.251 -0.7134  1.9340  0.2430
  136OSM      P14769   3.498   0.065   7.349 -0.3748  0.7478  0.1854
  136OSM    O1314770   3.432  -0.037   7.437  0.4268  0.2347 -0.1115
  136OSM    O1414771   3.425   0.188   7.317  0.5604  0.5456 -0.2798
  136OSM    O1114772   3.543  -0.018   7.220 -0.0537  0.1102 -0.4539
  136OSM    O1214773   3.637   0.094   7.419  0.3632  0.1141 -0.2174
  136OSM    C1S14774   3.503  -0.010   7.084 -0.7033  0.6681  0.7309
  136OSM    H1S14775   3.474   0.090   7.045 -2.7153 -0.9046 -2.1993
  136OSM    H1T14776   3.413  -0.073   7.068  0.1465 -0.5711  0.7494
  136OSM     NF14777   3.596  -0.013   6.854  0.0911 -0.3277 -0.4906
  136OSM    HNF14778   3.535  -0.072   6.802  0.3150 -1.2214  0.2378
  136OSM    C2S14779   3.609  -0.065   6.988  0.1723 -0.5783  0.1636
  136OSM    H2S14780   3.707  -0.033   7.029 -0.0231 -2.6647  2.5220
  136OSM    C3S14781   3.619  -0.221   6.996 -0.3736  0.4040 -0.1494
  136OSM    H3S14782   3.529  -0.255   6.940  0.1214 -3.9237  1.3339
  136OSM     O314783   3.619  -0.258   7.133  0.0496 -0.0289  0.0799
  136OSM    HO314784   3.617  -0.175   7.180  2.5625  0.3134 -0.2686
  136OSM    C4S14785   3.734  -0.268   6.918 -0.0742  0.0171  0.0428
  136OSM    H4S14786   3.823  -0.203   6.909 -1.2839  1.5703 -1.2307
  136OSM    C5S14787   3.734  -0.369   6.829 -0.8307  0.2401  1.1928
  136OSM    H5S14788   3.646  -0.435   6.817  0.2938 -1.2134  0.6520
  136OSM    C6S14789   3.845  -0.412   6.740 -0.4587 -0.1931 -0.4855
  136OSM    H6S14790   3.935  -0.438   6.801 -0.1631  0.6934 -0.5309
  136OSM    H6T14791   3.863  -0.332   6.665 -1.4222  1.2543  0.7663
  136OSM    C7S14792   3.817  -0.551   6.662  0.0820  0.1732 -1.1978
  136OSM    H7S14793   3.814  -0.641   6.726  0.7601 -0.2446 -1.7395
  136OSM    H7T14794   3.904  -0.574   6.596  1.2125 -1.1217  0.6473
  136OSM    C8S14795   3.692  -0.543   6.578 -0.2856 -0.2706 -0.3307
  136OSM    H8S14796   3.604  -0.515   6.640  0.1849  0.6235 -0.0419
  136OSM    H8T14797   3.674  -0.642   6.532  0.8928  0.5212 -2.6388
  136OSM    C9S14798   3.707  -0.449   6.463 -0.1442  0.3441 -0.0463
  136OSM    H9S14799   3.807  -0.401   6.449 -0.8548  1.2181 -2.8263
  136OSM    H9T14800   3.626  -0.373   6.465 -1.1151 -0.6874  0.9145
  136OSM   C10S14801   3.681  -0.526   6.333  0.1269 -0.1590  0.6276
  136OSM   H10S14802   3.589  -0.588   6.335 -1.3197  1.7440 -1.4568
  136OSM   H10T14803   3.764  -0.594   6.308 -0.5838 -1.1692  0.9555
  136OSM   C11S14804   3.655  -0.430   6.215 -0.0939  0.8299 -0.0746
  136OSM   H11S14805   3.740  -0.359   6.209  0.9481 -0.4359 -0.8877
  136OSM   H11T14806   3.561  -0.371   6.222  1.1741  3.1378 -1.4200
  136OSM   C12S14807   3.662  -0.504   6.081  0.0216  0.3164 -0.4182
  136OSM   H12S14808   3.587  -0.586   6.079  2.5537 -2.1883  0.1224
  136OSM   H12T14809   3.756  -0.562   6.077  0.9842  1.8567 -1.3894
  136OSM   C13S14810   3.659  -0.413   5.960 -0.0194 -0.4846 -0.0113
  136OSM   H13S14811   3.734  -0.334   5.981 -0.8828  0.9012 -1.8617
  136OSM   H13T14812   3.559  -0.366   5.960 -0.8449 -2.1499 -0.2577
  136OSM   C14S14813   3.667  -0.485   5.823  0.0282 -0.0147 -0.6732
  136OSM   H14S14814   3.619  -0.585   5.826 -2.6051  1.1753  1.0984
  136OSM   H14T14815   3.775  -0.501   5.804 -0.1922 -2.1483 -0.3723
  136OSM   C15S14816   3.597  -0.405   5.705 -0.7471 -0.8303  0.0755
  136OSM   H15S14817   3.630  -0.299   5.701 -1.7262 -0.5275 -0.2149
  136OSM   H15T14818   3.490  -0.407   5.732 -0.7529 -0.3434  0.1007
  136OSM   C16S14819   3.635  -0.474   5.575 -0.7060  0.0765  0.7890
  136OSM   H16S14820   3.585  -0.573   5.572  1.1702 -0.9293  1.1426
  136OSM   H16T14821   3.743  -0.496   5.563 -1.0983 -1.1594 -0.7393
  136OSM   C17S14822   3.584  -0.389   5.457 -0.1507 -0.1222  0.3228
  136OSM   H17S14823   3.626  -0.419   5.359 -1.2340  0.4373 -0.3317
  136OSM   H17T14824   3.609  -0.283   5.476  2.6860 -0.3791 -1.4435
  136OSM   C18S14825   3.428  -0.397   5.444 -0.3561  0.0218  0.2165
  136OSM   H18S14826   3.395  -0.340   5.355  0.3173  1.9624  1.1643
  136OSM   H18T14827   3.378  -0.350   5.532 -1.2457 -0.0345 -0.2467
  136OSM   H18U14828   3.388  -0.501   5.445  0.1211 -0.1588  0.8078
  136OSM    C1F14829   3.627   0.110   6.816 -0.9124 -0.6213  0.0982
  136OSM     OF14830   3.649   0.202   6.899  0.5290 -0.3855 -0.0377
  136OSM    C2F14831   3.646   0.130   6.668  0.0681 -0.3283  0.0689
  136OSM    H2F14832   3.690   0.232   6.661  0.5876 -0.6490 -2.3391
  136OSM    H2G14833   3.552   0.133   6.609  1.8194 -2.4226 -3.1616
  136OSM    C3F14834   3.728   0.024   6.590  0.7530  0.6136 -0.0513
  136OSM    H3F14835   3.670  -0.070   6.584 -1.3889  1.8142  0.5952
  136OSM    H3G14836   3.811   0.002   6.661 -2.7599 -1.0825  3.9495
  136OSM    C4F14837   3.768   0.067   6.446 -0.4100 -0.6482  0.3715
  136OSM    H4F14838   3.821   0.163   6.456 -1.1837 -0.3688  2.0252
  136OSM    H4G14839   3.678   0.090   6.384  0.5017  0.2214 -0.6765
  136OSM    C5F14840   3.850  -0.052   6.380  0.2824 -0.1025 -0.1860
  136OSM    H5F14841   3.787  -0.144   6.373 -0.9322  0.8517 -3.4307
  136OSM    H5G14842   3.943  -0.070   6.439  0.7454 -0.4821 -1.0097
  136OSM    C6F14843   3.901  -0.016   6.242  0.6048  1.2355 -1.1310
  136OSM    H6F14844   3.964   0.075   6.256  1.6433  0.2656  1.1216
  136OSM    H6G14845   3.819  -0.010   6.168 -0.2282 -2.2519 -0.6275
  136OSM    C7F14846   3.995  -0.126   6.177  0.2856  0.2436 -0.8165
  136OSM    H7F14847   3.936  -0.217   6.155  0.1412  0.1141  0.0534
  136OSM    H7G14848   4.075  -0.145   6.252 -0.5886 -1.7907 -0.3371
  136OSM    C8F14849   4.065  -0.071   6.049 -0.3126 -0.2346 -0.0864
  136OSM    H8F14850   4.136   0.007   6.084  0.6989 -1.1614 -0.0238
  136OSM    H8G14851   3.986  -0.029   5.983  1.6790  1.6006 -1.4659
  136OSM    C9F14852   4.149  -0.185   5.992  0.4602 -0.2115  0.4758
  136OSM    H9F14853   4.222  -0.234   6.059  1.0253 -0.4714 -0.3167
  136OSM   C10F14854   4.125  -0.252   5.875  0.5100 -0.4543 -0.1521
  136OSM   H10F14855   4.198  -0.325   5.838 -0.3102 -0.1915 -2.4660
  136OSM   C11F14856   4.021  -0.211   5.780  0.7535  0.2452  0.9979
  136OSM   H11F14857   3.989  -0.106   5.794  0.1498 -0.0853  2.2331
  136OSM   H11G14858   3.933  -0.273   5.807  2.0669 -0.9688  2.8007
  136OSM   C12F14859   4.065  -0.247   5.642  0.7994 -0.1171  0.1964
  136OSM   H12F14860   4.082  -0.355   5.624  0.0720 -0.2149  0.0890
  136OSM   H12G14861   4.168  -0.206   5.629  1.4906 -2.2514 -1.7385
  136OSM   C13F14862   3.980  -0.187   5.527 -0.1513  0.1722 -0.2896
  136OSM   H13F14863   3.987  -0.077   5.539 -0.2041  0.0100  1.4697
  136OSM   H13G14864   3.878  -0.230   5.540 -0.0155 -0.2852 -0.7108
  136OSM   C14F14865   4.019  -0.230   5.383 -0.1675  0.2095 -0.3952
  136OSM   H14F14866   4.040  -0.339   5.382  0.7811  0.3919 -1.1689
  136OSM   H14G14867   4.113  -0.175   5.359  0.1392 -0.0452  0.2098
  136OSM   C15F14868   3.921  -0.205   5.259 -0.2734  0.0123 -0.1542
  136OSM   H15F14869   3.919  -0.094   5.269  2.5069  0.0354  1.0087
  136OSM   H15G14870   3.817  -0.236   5.281 -0.8403  1.4086 -0.6977
  136OSM   C16F14871   3.982  -0.257   5.131 -0.2774  0.2379  0.5505
  136OSM   H16F14872   3.992  -0.367   5.143 -2.1808 -0.1635 -1.0321
  136OSM   H16G14873   4.085  -0.215   5.121 -0.3310 -0.0631 -2.1066
  136OSM   C17F14874   3.902  -0.234   5.006  0.0891 -0.4396 -0.0510
  136OSM   H17F14875   3.859  -0.131   5.002  2.6064  0.7646  1.2324
  136OSM   H17G14876   3.815  -0.302   5.017 -0.4848  0.2355 -0.2770
  136OSM   C18F14877   3.976  -0.270   4.876 -0.3374 -0.2164  0.1853
  136OSM   H18F14878   4.026  -0.368   4.890 -1.1268 -0.9743 -1.9639
  136OSM   H18G14879   4.058  -0.197   4.860 -0.6170  0.6883  2.4504
  136OSM   H18H14880   3.908  -0.268   4.788  0.0209  0.2763 -0.0851
  137OSM      N14881   6.912   5.174   7.767 -0.0798  0.2301  0.3637
  137OSM    C1514882   6.795   5.113   7.833  0.3269  0.3232 -0.3886
  137OSM   H15A14883   6.703   5.162   7.805 -0.0836  0.4041  1.0443
  137OSM   H15B14884   6.801   5.112   7.941 -0.9288 -2.2503 -0.2663
  137OSM   H15C14885   6.769   5.014   7.797 -1.7737  0.9200 -0.6534
  137OSM    C1414886   6.906   5.324   7.785 -0.6896  0.4147  0.9624
  137OSM   H14A14887   6.818   5.369   7.740 -2.5348 -2.8309  1.0210
  137OSM   H14B14888   6.996   5.359   7.738 -0.7555 -0.2958  0.2895
  137OSM   H14C14889   6.900   5.341   7.892 -0.2769  1.5926  0.8128
  137OSM    C1314890   7.043   5.124   7.829 -0.1166 -0.1272  0.7988
  137OSM   H13A14891   7.061   5.025   7.789 -0.6539  1.2527 -3.3380
  137OSM   H13B14892   7.042   5.094   7.932 -0.5356 -1.8879  0.3139
  137OSM   H13C14893   7.127   5.188   7.808  0.2675 -0.1186  2.2459
  137OSM    C1214894   6.911   5.142   7.615 -0.0743  0.5865 -0.3606
  137OSM   H12A14895   6.949   5.043   7.597 -3.0988 -0.9173  0.9159
  137OSM   H12B14896   6.987   5.205   7.571  1.4108  1.5027  3.1559
  137OSM    C1114897   6.780   5.144   7.529  0.4548  0.1435 -0.0788
  137OSM   H11A14898   6.816   5.122   7.426  0.6598 -0.9640  0.2211
  137OSM   H11B14899   6.741   5.247   7.540  1.5550  0.8403 -2.1771
  137OSM      P14900   6.691   4.905   7.542 -0.0828  0.3222  0.4963
  137OSM    O1314901   6.832   4.851   7.560  0.4755 -0.0959  0.2860
  137OSM    O1414902   6.575   4.849   7.623 -0.1195  0.1539 -0.2303
  137OSM    O1114903   6.660   4.910   7.385 -0.4419 -0.6568  0.0610
  137OSM    O1214904   6.683   5.055   7.585 -0.4687 -0.6941  0.1550
  137OSM    C1S14905   6.571   4.997   7.317  0.4725  1.2472 -0.2828
  137OSM    H1S14906   6.592   5.101   7.351 -0.5441  1.9094 -1.6093
  137OSM    H1T14907   6.465   4.981   7.344  0.5094  0.3211 -0.6448
  137OSM     NF14908   6.487   5.062   7.098 -0.0221  0.0758 -0.5064
  137OSM    HNF14909   6.421   5.012   7.042 -0.8857  0.5352  0.0868
  137OSM    C2S14910   6.578   4.977   7.166 -0.8169  0.3227 -0.1920
  137OSM    H2S14911   6.678   5.007   7.126 -0.6970 -2.5748 -2.4334
  137OSM    C3S14912   6.561   4.832   7.114 -0.0368  0.5529 -0.0622
  137OSM    H3S14913   6.453   4.812   7.128  0.6769 -2.9721  1.7210
  137OSM     O314914   6.614   4.729   7.200 -0.5172 -0.2675  0.4931
  137OSM    HO314915   6.645   4.771   7.281  0.3640 -0.8030  0.4340
  137OSM    C4S14916   6.602   4.807   6.967  0.2172 -0.7213  0.1126
  137OSM    H4S14917   6.526   4.847   6.898  1.1485 -0.6967 -0.9268
  137OSM    C5S14918   6.714   4.749   6.929  0.5505 -0.2193  0.6197
  137OSM    H5S14919   6.774   4.708   7.012  1.3532 -0.4462 -0.0639
  137OSM    C6S14920   6.754   4.716   6.787  0.6576  0.0059  0.4445
  137OSM    H6S14921   6.750   4.607   6.763  0.5430  0.4612 -1.8942
  137OSM    H6T14922   6.861   4.743   6.779  1.0509 -1.4380  0.4364
  137OSM    C7S14923   6.676   4.785   6.673 -0.4593 -0.3271 -0.1876
  137OSM    H7S14924   6.677   4.893   6.698 -3.0507  0.1452 -1.7345
  137OSM    H7T14925   6.567   4.763   6.677 -0.7120  0.6686 -1.1858
  137OSM    C8S14926   6.731   4.781   6.530  0.1110 -0.7043  0.5959
  137OSM    H8S14927   6.841   4.801   6.532 -0.3519  2.1495  1.7584
  137OSM    H8T14928   6.685   4.860   6.468  1.7470 -1.0860 -1.2106
  137OSM    C9S14929   6.692   4.648   6.458  0.0500 -0.0560 -1.1573
  137OSM    H9S14930   6.594   4.610   6.495  1.0237 -2.5575 -0.9645
  137OSM    H9T14931   6.765   4.565   6.470  0.8249  0.8090  0.3613
  137OSM   C10S14932   6.684   4.663   6.308 -0.3497 -0.3503  0.0658
  137OSM   H10S14933   6.784   4.696   6.271 -0.7878  0.6422 -0.2677
  137OSM   H10T14934   6.609   4.741   6.284  0.4963  0.2008 -0.8404
  137OSM   C11S14935   6.624   4.543   6.234  0.2338  0.2246 -0.0862
  137OSM   H11S14936   6.522   4.518   6.270  0.1771  2.7168  1.7359
  137OSM   H11T14937   6.694   4.457   6.245  1.9323  1.7193  1.3163
  137OSM   C12S14938   6.606   4.570   6.082  0.4674  0.2629 -0.3007
  137OSM   H12S14939   6.710   4.593   6.050  1.1864 -0.0284  1.6368
  137OSM   H12T14940   6.547   4.663   6.070  2.9905  2.4236  2.3754
  137OSM   C13S14941   6.534   4.451   6.020  0.3062 -0.2199  0.4560
  137OSM   H13S14942   6.431   4.451   6.062 -0.7855 -1.2944 -1.9866
  137OSM   H13T14943   6.593   4.358   6.035  1.7729  0.8769  1.8935
  137OSM   C14S14944   6.512   4.482   5.875  0.0509  0.1903  0.7676
  137OSM   H14S14945   6.610   4.479   5.822 -0.9941  5.1774 -2.1240
  137OSM   H14T14946   6.488   4.587   5.845  0.1290  0.4013  1.4215
  137OSM   C15S14947   6.438   4.383   5.785  0.0080 -0.6802  0.3353
  137OSM   H15S14948   6.331   4.396   5.808 -0.4752 -0.8816 -1.6759
  137OSM   H15T14949   6.475   4.278   5.777  0.0541 -0.5446 -1.5760
  137OSM   C16S14950   6.448   4.435   5.636 -0.2493  0.0142 -0.8043
  137OSM   H16S14951   6.558   4.436   5.624  0.5233 -1.0333  4.2188
  137OSM   H16T14952   6.401   4.535   5.624 -0.3525 -0.2869 -3.6149
  137OSM   C17S14953   6.385   4.329   5.546  0.1396  0.1652  0.1571
  137OSM   H17S14954   6.276   4.352   5.554  0.5149  1.9756  0.5401
  137OSM   H17T14955   6.406   4.227   5.583 -0.4580 -0.6545 -1.6431
  137OSM   C18S14956   6.425   4.335   5.400  0.5995  0.4289 -0.3969
  137OSM   H18S14957   6.481   4.245   5.370 -0.3352 -1.0299  1.9469
  137OSM   H18T14958   6.502   4.413   5.379  2.7064 -1.6276 -0.6438
  137OSM   H18U14959   6.345   4.358   5.326  0.9679  0.0627 -0.9157
  137OSM    C1F14960   6.515   5.191   7.078  0.3239  0.2213  0.2353
  137OSM     OF14961   6.605   5.243   7.136 -0.2630  0.2109 -0.0356
  137OSM    C2F14962   6.432   5.257   6.978 -0.0238  0.1385 -0.0425
  137OSM    H2F14963   6.346   5.310   7.026  0.6682  0.5925  0.7122
  137OSM    H2G14964   6.386   5.186   6.905 -0.2850  1.9092 -1.6942
  137OSM    C3F14965   6.509   5.355   6.886 -0.4071  0.6784 -1.5533
  137OSM    H3F14966   6.581   5.401   6.956 -2.2222 -0.5891  1.3354
  137OSM    H3G14967   6.442   5.432   6.842 -1.5171 -0.4014 -1.8159
  137OSM    C4F14968   6.589   5.285   6.771 -0.3717 -0.3737 -0.2142
  137OSM    H4F14969   6.613   5.183   6.807  2.7223 -0.0067 -0.9683
  137OSM    H4G14970   6.685   5.337   6.752  0.1296 -0.9793  0.5902
  137OSM    C5F14971   6.516   5.273   6.627 -0.3659 -0.1735 -0.4409
  137OSM    H5F14972   6.516   5.377   6.588 -1.4770 -0.7665 -2.1490
  137OSM    H5G14973   6.411   5.236   6.629 -0.7060  0.7704  1.7421
  137OSM    C6F14974   6.597   5.193   6.520 -0.7801 -0.3047 -0.6756
  137OSM    H6F14975   6.650   5.111   6.573  0.7362  0.7544 -0.5026
  137OSM    H6G14976   6.678   5.265   6.501 -0.1370 -0.2072  1.9898
  137OSM    C7F14977   6.523   5.153   6.392 -0.1925 -0.0267  0.1126
  137OSM    H7F14978   6.485   5.239   6.334 -0.2273 -1.2333 -1.7507
  137OSM    H7G14979   6.434   5.090   6.409  0.2555 -1.3622 -2.0796
  137OSM    C8F14980   6.614   5.097   6.276  0.1593 -0.2517 -0.1051
  137OSM    H8F14981   6.687   5.020   6.308  0.3262 -0.5817 -1.2415
  137OSM    H8G14982   6.682   5.176   6.235  0.7491 -1.3494 -1.3052
  137OSM    C9F14983   6.525   5.026   6.175 -0.1213 -0.0172 -0.2667
  137OSM    H9F14984   6.490   4.929   6.211 -0.3529 -0.0652 -0.6186
  137OSM   C10F14985   6.505   5.057   6.048 -0.0030  0.4244  0.3818
  137OSM   H10F14986   6.447   4.989   5.985 -0.1934  0.8895  0.0486
  137OSM   C11F14987   6.560   5.167   5.965 -0.2999  0.3089  0.1604
  137OSM   H11F14988   6.629   5.237   6.017 -1.8794  1.6103  0.6125
  137OSM   H11G14989   6.481   5.240   5.935 -0.2368  0.4416  0.3160
  137OSM   C12F14990   6.632   5.113   5.839 -0.0462  0.2160  0.2792
  137OSM   H12F14991   6.708   5.038   5.871  1.4961  1.0300 -1.3171
  137OSM   H12G14992   6.680   5.199   5.788  1.1046 -0.9670 -0.6920
  137OSM   C13F14993   6.535   5.051   5.735  0.0378  0.1963 -0.3711
  137OSM   H13F14994   6.468   5.136   5.711  1.1638  1.4599  0.8278
  137OSM   H13G14995   6.476   4.970   5.784 -0.2455 -0.8574 -2.3583
  137OSM   C14F14996   6.605   5.007   5.609  0.0411  0.0075 -0.1626
  137OSM   H14F14997   6.696   4.958   5.648 -0.2712 -1.2299 -0.9224
  137OSM   H14G14998   6.626   5.091   5.539  1.1847 -0.0526  0.1010
  137OSM   C15F14999   6.518   4.905   5.548  0.0680  0.0534  0.3163
  137OSM   H15F15000   6.415   4.945   5.530  0.2287  1.6052  2.3963
  137OSM   H15G15001   6.501   4.813   5.608 -1.9089 -0.8029 -1.4461
  137OSM   C16F15002   6.570   4.863   5.411 -0.2206 -0.1407 -0.5933
  137OSM   H16F15003   6.680   4.849   5.419  0.0337  1.2991 -1.2894
  137OSM   H16G15004   6.562   4.945   5.337  0.6489  0.9883  0.5064
  137OSM   C17F15005   6.514   4.730   5.353  0.0015 -0.3256  0.3909
  137OSM   H17F15006   6.409   4.752   5.325 -0.2925 -2.5305 -0.4566
  137OSM   H17G15007   6.510   4.656   5.436  1.8428  2.8878  3.6391
  137OSM   C18F15008   6.581   4.673   5.232 -0.6167  0.1444  0.4423
  137OSM   H18F15009   6.542   4.574   5.199  1.1877  0.0294 -1.6220
  137OSM   H18G15010   6.687   4.658   5.263 -1.5469 -2.1141  2.9076
  137OSM   H18H15011   6.580   4.746   5.148 -0.5888 -0.2687  0.0807
  138OSM      N15012   1.448   2.415   7.708 -0.4761  0.3891  0.6601
  138OSM    C1515013   1.565   2.446   7.797  0.5147 -0.2139  0.2548
  138OSM   H15A15014   1.541   2.438   7.902  0.8783  1.7910  0.5417
  138OSM   H15B15015   1.594   2.546   7.769  2.1321 -1.1228 -1.4831
  138OSM   H15C15016   1.652   2.387   7.774  2.1444  2.2135 -0.2105
  138OSM    C1415017   1.377   2.294   7.758  0.3461 -0.0601  0.0981
  138OSM   H14A15018   1.438   2.206   7.746  0.8256  0.2582  0.1775
  138OSM   H14B15019   1.284   2.289   7.704  1.7954  0.5149 -2.6141
  138OSM   H14C15020   1.352   2.307   7.863  1.3341 -1.1408  0.4882
  138OSM    C1315021   1.353   2.532   7.720 -0.2905  0.2856  0.5709
  138OSM   H13A15022   1.332   2.552   7.824 -0.0075 -1.9261  1.1049
  138OSM   H13B15023   1.258   2.513   7.673  0.0122 -0.0187  0.0613
  138OSM   H13C15024   1.408   2.614   7.675  2.0442 -2.6739 -2.6024
  138OSM    C1215025   1.501   2.390   7.567 -0.1539  0.0196 -0.0874
  138OSM   H12A15026   1.539   2.289   7.561  1.5323  0.5460  1.1880
  138OSM   H12B15027   1.589   2.449   7.549  0.0811  0.0535  1.0987
  138OSM    C1115028   1.396   2.411   7.453  0.1842  0.3043  0.0008
  138OSM   H11A15029   1.444   2.390   7.355 -0.6225 -1.1700 -0.1232
  138OSM   H11B15030   1.362   2.516   7.462  1.2582  0.4902  3.1451
  138OSM      P15031   1.131   2.379   7.432 -0.1480 -0.4012 -0.3008
  138OSM    O1315032   1.062   2.269   7.357  1.0669  0.5192  0.3957
  138OSM    O1415033   1.065   2.418   7.562  0.7274  0.0232  0.5061
  138OSM    O1115034   1.149   2.495   7.327  0.0002 -0.7335  0.4451
  138OSM    O1215035   1.280   2.324   7.462  0.2080 -0.0352 -0.4688
  138OSM    C1S15036   1.225   2.472   7.206  0.5494 -0.4657 -0.3803
  138OSM    H1S15037   1.229   2.363   7.183  0.0849 -0.2971 -1.2942
  138OSM    H1T15038   1.331   2.504   7.215  1.0844 -1.6368 -1.9793
  138OSM     NF15039   1.254   2.511   6.975 -0.1407  0.0610 -0.4887
  138OSM    HNF15040   1.315   2.576   6.930 -2.2715  1.4967 -1.4364
  138OSM    C2S15041   1.169   2.551   7.084  0.6165  0.4465  0.9428
  138OSM    H2S15042   1.065   2.516   7.065  0.3839  0.1179  2.6071
  138OSM    C3S15043   1.155   2.700   7.119  1.0244  0.8638  0.1502
  138OSM    H3S15044   1.258   2.731   7.144  0.6919  2.0945  0.0559
  138OSM     O315045   1.086   2.734   7.236  0.3911  0.0179 -0.2777
  138OSM    HO315046   1.075   2.650   7.280  0.2789  0.1130 -0.1217
  138OSM    C4S15047   1.095   2.783   7.007 -0.1102  0.7689  0.1697
  138OSM    H4S15048   1.174   2.824   6.944  1.0361  0.6105  1.4577
  138OSM    C5S15049   0.975   2.828   6.977 -0.0403 -0.2910 -0.5772
  138OSM    H5S15050   0.887   2.812   7.041  0.1472  0.9150  0.0237
  138OSM    C6S15051   0.967   2.915   6.860  0.4188 -0.4460  0.2792
  138OSM    H6S15052   1.058   2.979   6.856 -0.2346  0.5397  0.8246
  138OSM    H6T15053   0.877   2.979   6.863 -0.0089 -0.9653 -0.7745
  138OSM    C7S15054   0.948   2.828   6.736 -0.0240 -0.3775 -0.0953
  138OSM    H7S15055   0.855   2.768   6.743 -1.2977  1.4818 -0.4290
  138OSM    H7T15056   1.035   2.759   6.726 -0.4784 -0.5946 -3.6549
  138OSM    C8S15057   0.925   2.910   6.609 -0.0993 -0.2264  0.0810
  138OSM    H8S15058   0.980   3.006   6.613  1.9857 -1.3889  0.8299
  138OSM    H8T15059   0.817   2.928   6.595 -0.3031 -1.2845  0.2174
  138OSM    C9S15060   0.975   2.830   6.484 -0.8339 -0.2842 -0.0706
  138OSM    H9S15061   0.916   2.736   6.477 -0.6052 -0.3756 -0.8207
  138OSM    H9T15062   1.080   2.800   6.507 -0.9718 -0.5280  0.2660
  138OSM   C10S15063   0.990   2.917   6.357  0.2990  0.7768 -0.1505
  138OSM   H10S15064   1.054   3.002   6.388 -0.4313  1.1258  0.4193
  138OSM   H10T15065   0.894   2.958   6.320  0.8041  1.3980 -0.8021
  138OSM   C11S15066   1.062   2.834   6.253  0.3916  0.2496  0.5376
  138OSM   H11S15067   0.998   2.751   6.216  0.2563 -0.1578  1.6621
  138OSM   H11T15068   1.157   2.785   6.281 -0.1004 -1.9991 -1.3228
  138OSM   C12S15069   1.087   2.922   6.134 -0.6461 -0.0004  0.2373
  138OSM   H12S15070   1.175   2.982   6.166 -1.4079 -0.5835  3.8993
  138OSM   H12T15071   1.012   3.004   6.129 -1.0356 -0.2654  1.3923
  138OSM   C13S15072   1.108   2.856   5.992 -0.9204 -0.2728 -0.4730
  138OSM   H13S15073   1.188   2.781   6.008  0.1607  0.9434  0.0473
  138OSM   H13T15074   1.136   2.927   5.912 -0.0304 -1.6845 -1.4491
  138OSM   C14S15075   0.976   2.791   5.943  0.2884 -0.9325  0.4990
  138OSM   H14S15076   0.900   2.871   5.962  1.0213  0.4413 -1.8925
  138OSM   H14T15077   0.953   2.691   5.986 -0.6307 -1.2156 -0.6035
  138OSM   C15S15078   0.969   2.773   5.788 -0.4421  0.6353  1.0381
  138OSM   H15S15079   1.034   2.851   5.742  1.8822 -0.9246  1.5035
  138OSM   H15T15080   0.867   2.769   5.744  0.2879 -2.0620 -0.7217
  138OSM   C16S15081   1.033   2.640   5.743 -0.5770  0.4485 -0.2507
  138OSM   H16S15082   1.140   2.634   5.772 -0.5608  0.1376 -0.3700
  138OSM   H16T15083   1.037   2.639   5.632 -1.1084  0.2432 -0.2702
  138OSM   C17S15084   0.968   2.511   5.796  0.0523 -0.4955 -0.2494
  138OSM   H17S15085   0.966   2.510   5.908 -0.9873 -1.4567 -0.2578
  138OSM   H17T15086   1.033   2.427   5.764  0.5791 -1.1129  2.2081
  138OSM   C18S15087   0.819   2.510   5.754 -0.3960 -0.2466  0.2991
  138OSM   H18S15088   0.750   2.578   5.810 -0.2352 -0.1097  0.3334
  138OSM   H18T15089   0.764   2.416   5.777 -1.7730  1.2207  3.7046
  138OSM   H18U15090   0.805   2.534   5.646  0.6025 -0.1506  0.1812
  138OSM    C1F15091   1.235   2.393   6.916  0.5802 -0.0116 -0.3280
  138OSM     OF15092   1.149   2.311   6.949  0.2595 -0.1462 -0.8015
  138OSM    C2F15093   1.341   2.366   6.808  0.3934  0.0151  0.3060
  138OSM    H2F15094   1.391   2.268   6.823 -0.7232 -0.5136  0.7609
  138OSM    H2G15095   1.424   2.439   6.815  0.2322  0.0993  1.8256
  138OSM    C3F15096   1.280   2.355   6.667  0.1125  0.1170 -0.8855
  138OSM    H3F15097   1.225   2.260   6.678 -0.0619  0.3196  0.2010
  138OSM    H3G15098   1.359   2.351   6.589 -1.1216 -0.9590 -2.1196
  138OSM    C4F15099   1.176   2.462   6.631  0.2913 -0.8396 -0.3988
  138OSM    H4F15100   1.232   2.558   6.624 -1.0233 -0.1274 -2.0402
  138OSM    H4G15101   1.108   2.482   6.716  2.5944  1.1750  1.1020
  138OSM    C5F15102   1.088   2.427   6.505 -0.1453 -0.0132 -0.5004
  138OSM    H5F15103   1.024   2.514   6.478  0.9386  1.5653  1.6814
  138OSM    H5G15104   1.015   2.348   6.531 -0.9273  0.7595 -0.2866
  138OSM    C6F15105   1.165   2.367   6.382  0.0113  0.9490 -0.3784
  138OSM    H6F15106   1.090   2.331   6.308  1.1884  0.9176 -1.5910
  138OSM    H6G15107   1.210   2.282   6.437  0.8061  2.4958  1.4635
  138OSM    C7F15108   1.275   2.457   6.321 -0.0141  0.0203  0.8810
  138OSM    H7F15109   1.353   2.466   6.400  0.6170 -2.3497  0.5912
  138OSM    H7G15110   1.236   2.561   6.312 -1.8131 -0.7272 -0.7672
  138OSM    C8F15111   1.343   2.402   6.195 -0.2661  0.0348 -0.5170
  138OSM    H8F15112   1.378   2.300   6.220  0.7683  0.9562  2.1253
  138OSM    H8G15113   1.425   2.477   6.200 -0.9487  0.9288 -1.9597
  138OSM    C9F15114   1.278   2.411   6.061 -0.2051  0.0131 -0.2233
  138OSM    H9F15115   1.181   2.361   6.047 -0.0930 -0.7349  1.4232
  138OSM   C10F15116   1.334   2.464   5.952 -0.5613 -0.5475 -0.6908
  138OSM   H10F15117   1.274   2.461   5.860 -2.7352  1.3011  0.5651
  138OSM   C11F15118   1.464   2.542   5.945 -0.4508 -0.1170  0.5414
  138OSM   H11F15119   1.547   2.468   5.936  2.4693  3.0155 -0.6587
  138OSM   H11G15120   1.496   2.591   6.039 -0.4981 -2.1386  1.6859
  138OSM   C12F15121   1.464   2.640   5.833 -0.0856  0.2505 -0.1063
  138OSM   H12F15122   1.551   2.710   5.828  0.6361 -0.5931  0.2702
  138OSM   H12G15123   1.381   2.714   5.840 -0.4772 -0.1027 -0.9695
  138OSM   C13F15124   1.461   2.580   5.693  0.8103  0.1143  0.1385
  138OSM   H13F15125   1.367   2.521   5.698 -0.1317  1.3612 -1.6807
  138OSM   H13G15126   1.548   2.513   5.687  1.9007  1.2202  2.2887
  138OSM   C14F15127   1.470   2.687   5.584  0.5576  0.2903  0.1351
  138OSM   H14F15128   1.496   2.634   5.490  1.1284 -0.4191  0.6815
  138OSM   H14G15129   1.550   2.761   5.607 -1.0327  2.9353 -2.1793
  138OSM   C15F15130   1.340   2.773   5.572  0.4601  0.2305  0.0185
  138OSM   H15F15131   1.345   2.832   5.666  0.8312  1.0521 -0.5017
  138OSM   H15G15132   1.245   2.717   5.561 -0.0841  0.9697  0.8581
  138OSM   C16F15133   1.357   2.878   5.463  0.0710 -0.5032 -0.4555
  138OSM   H16F15134   1.380   2.826   5.368  2.6211  0.5759 -0.5196
  138OSM   H16G15135   1.434   2.955   5.487 -3.2701  2.4835  1.8715
  138OSM   C17F15136   1.228   2.957   5.449 -0.5002 -0.3608  0.1170
  138OSM   H17F15137   1.196   2.998   5.547 -2.6756  0.5591 -0.9245
  138OSM   H17G15138   1.145   2.889   5.421 -1.9131  1.2093  0.3015
  138OSM   C18F15139   1.247   3.061   5.340  0.1954  1.1427  0.3947
  138OSM   H18F15140   1.273   3.017   5.241  0.7924 -0.8454  1.3872
  138OSM   H18G15141   1.328   3.130   5.371  1.3877 -0.4326  0.8746
  138OSM   H18H15142   1.153   3.120   5.336 -1.0755 -0.8449 -2.2608
  139OSM      N15143   5.133   0.917   7.220  0.1693  0.3413  0.0609
  139OSM    C1515144   5.037   0.868   7.323  0.5897  0.7077  0.1733
  139OSM   H15A15145   5.094   0.819   7.401  0.4676  2.1983  1.2453
  139OSM   H15B15146   4.964   0.800   7.282 -0.8342  1.1128  1.8972
  139OSM   H15C15147   4.968   0.944   7.358 -1.2511 -1.0169  0.5023
  139OSM    C1415148   5.251   0.984   7.282 -0.4886 -0.3745  0.7068
  139OSM   H14A15149   5.308   1.048   7.216 -1.3093  0.8430  1.1549
  139OSM   H14B15150   5.322   0.913   7.322  0.7156  0.0006 -0.6821
  139OSM   H14C15151   5.220   1.043   7.366 -0.4480 -2.3588  2.1695
  139OSM    C1315152   5.175   0.792   7.143 -0.0107  0.8805 -0.5540
  139OSM   H13A15153   5.247   0.822   7.069 -0.0531 -0.4450 -1.1773
  139OSM   H13B15154   5.088   0.743   7.100  0.4071  0.6648 -1.1721
  139OSM   H13C15155   5.223   0.721   7.209 -2.3166 -0.8045 -0.5615
  139OSM    C1215156   5.056   1.002   7.129  0.3458 -0.7347  0.4115
  139OSM   H12A15157   5.016   1.090   7.178  1.5806 -0.5428  1.1025
  139OSM   H12B15158   4.973   0.941   7.096  0.0522  0.8011 -1.9815
  139OSM    C1115159   5.132   1.048   6.997 -0.5521  0.0425  0.5025
  139OSM   H11A15160   5.053   1.107   6.945 -0.3900 -2.5037 -2.9797
  139OSM   H11B15161   5.148   0.965   6.925 -2.6293  1.3689 -1.6597
  139OSM      P15162   5.237   1.265   7.083  0.0251 -0.1435 -0.4054
  139OSM    O1315163   5.103   1.297   7.127 -0.2343  0.2502 -0.5212
  139OSM    O1415164   5.344   1.303   7.177  0.0749  0.2254  0.3155
  139OSM    O1115165   5.259   1.343   6.950 -0.3667  0.2244  0.1959
  139OSM    O1215166   5.250   1.124   7.034 -0.1880  0.5568 -0.2656
  139OSM    C1S15167   5.366   1.324   6.855  0.4174  0.2147 -0.0309
  139OSM    H1S15168   5.448   1.266   6.901  2.2045  2.4324 -0.2189
  139OSM    H1T15169   5.407   1.422   6.823  0.2414  0.0626 -0.7420
  139OSM     NF15170   5.442   1.234   6.633 -0.1596  0.1325 -0.6556
  139OSM    HNF15171   5.445   1.290   6.550  0.2046 -0.1129 -0.8102
  139OSM    C2S15172   5.327   1.247   6.721 -0.0639  0.1944 -0.3601
  139OSM    H2S15173   5.294   1.145   6.749  1.5272 -0.5195 -0.9658
  139OSM    C3S15174   5.203   1.318   6.648 -0.2622  0.3861 -0.0981
  139OSM    H3S15175   5.222   1.419   6.605 -1.1702 -0.2829 -2.1811
  139OSM     O315176   5.097   1.341   6.741  0.0346 -0.9201 -0.0196
  139OSM    HO315177   5.151   1.351   6.820  0.1353 -0.4732 -0.1425
  139OSM    C4S15178   5.155   1.231   6.535  1.1935 -0.3797  0.6476
  139OSM    H4S15179   5.120   1.131   6.564 -1.5862 -0.0004 -1.0228
  139OSM    C5S15180   5.162   1.265   6.405 -0.1618  0.3467  0.2251
  139OSM    H5S15181   5.213   1.357   6.373 -0.5472  0.6261  0.4040
  139OSM    C6S15182   5.123   1.184   6.282  0.1621 -0.2936  0.6244
  139OSM    H6S15183   5.065   1.246   6.209 -2.0338 -1.2832  1.4376
  139OSM    H6T15184   5.044   1.109   6.304 -0.8520 -0.6791 -3.4503
  139OSM    C7S15185   5.244   1.111   6.207  0.3338  0.6202 -0.1875
  139OSM    H7S15186   5.345   1.131   6.249  2.4684  0.7796 -4.7944
  139OSM    H7T15187   5.238   1.156   6.105 -1.2758 -0.7914 -0.7644
  139OSM    C8S15188   5.234   0.961   6.200  0.0249 -0.0387  0.0027
  139OSM    H8S15189   5.142   0.941   6.142 -1.0638 -0.4376  1.7704
  139OSM    H8T15190   5.221   0.930   6.306 -1.0866 -0.7596 -0.3292
  139OSM    C9S15191   5.351   0.893   6.126 -0.4321  0.1670  0.0537
  139OSM    H9S15192   5.329   0.784   6.137  0.9447  0.0241  2.0106
  139OSM    H9T15193   5.447   0.920   6.176  0.2600 -1.2595 -0.4299
  139OSM   C10S15194   5.371   0.919   5.979  0.3159  0.3309 -0.1496
  139OSM   H10S15195   5.403   1.025   5.978  2.0578 -0.1692  0.1513
  139OSM   H10T15196   5.273   0.906   5.928  0.4851  2.8002 -1.2358
  139OSM   C11S15197   5.489   0.845   5.912  0.3183  0.4388 -0.0547
  139OSM   H11S15198   5.463   0.739   5.932 -2.4548  0.9078 -0.6533
  139OSM   H11T15199   5.584   0.857   5.967  0.9330 -0.6924 -0.8236
  139OSM   C12S15200   5.538   0.875   5.770  0.8598  0.7263  0.1614
  139OSM   H12S15201   5.584   0.974   5.786 -0.9983  2.1478 -2.4152
  139OSM   H12T15202   5.462   0.898   5.692 -1.6694 -2.6865  1.3694
  139OSM   C13S15203   5.642   0.776   5.710  0.1980  0.8533 -0.7359
  139OSM   H13S15204   5.620   0.758   5.602 -1.0246  0.9644 -0.5167
  139OSM   H13T15205   5.615   0.675   5.748  0.7705 -0.5630 -3.7757
  139OSM   C14S15206   5.791   0.804   5.734 -0.2632 -0.0084 -0.2622
  139OSM   H14S15207   5.822   0.814   5.840 -1.5861 -2.8584  0.4865
  139OSM   H14T15208   5.817   0.900   5.684 -1.6449  0.4983 -0.0597
  139OSM   C15S15209   5.883   0.699   5.660  1.0793 -0.0598  0.1942
  139OSM   H15S15210   5.870   0.708   5.550 -1.0002  3.4141  0.5634
  139OSM   H15T15211   5.838   0.600   5.678  1.7271 -0.5311 -0.6715
  139OSM   C16S15212   6.030   0.695   5.715 -0.4033 -1.2020 -0.2546
  139OSM   H16S15213   6.041   0.657   5.818 -0.9557 -1.9639 -0.4690
  139OSM   H16T15214   6.059   0.802   5.702 -2.0047 -0.8495 -1.1622
  139OSM   C17S15215   6.133   0.630   5.622 -0.1245  0.0078 -0.6908
  139OSM   H17S15216   6.122   0.669   5.519  1.6893  0.3072 -0.8032
  139OSM   H17T15217   6.100   0.524   5.622 -1.7591  0.4302  1.9362
  139OSM   C18S15218   6.267   0.658   5.675 -0.2737 -0.4460  0.1779
  139OSM   H18S15219   6.344   0.627   5.601 -0.1923  1.4142 -0.5819
  139OSM   H18T15220   6.289   0.604   5.769  0.0307  0.7265  0.8005
  139OSM   H18U15221   6.282   0.767   5.691  2.4923 -0.9487  1.5881
  139OSM    C1F15222   5.539   1.149   6.663 -0.7701  0.1729 -0.1490
  139OSM     OF15223   5.529   1.069   6.753 -0.0506  0.2792  0.2119
  139OSM    C2F15224   5.663   1.149   6.587 -1.0821  0.0480  0.1548
  139OSM    H2F15225   5.746   1.178   6.655 -0.0804 -0.2794 -0.8932
  139OSM    H2G15226   5.654   1.226   6.507 -1.8492 -1.1170 -0.9339
  139OSM    C3F15227   5.704   1.012   6.530 -0.1885 -0.0286  0.0784
  139OSM    H3F15228   5.717   0.951   6.623  0.3480  0.7555  0.5267
  139OSM    H3G15229   5.806   1.010   6.487  0.2978 -0.6782  1.2088
  139OSM    C4F15230   5.607   0.927   6.445  0.8220  0.3363 -0.1358
  139OSM    H4F15231   5.597   0.973   6.344 -0.0714 -0.2674 -0.3354
  139OSM    H4G15232   5.503   0.922   6.482  1.3451  0.1806  1.3718
  139OSM    C5F15233   5.660   0.785   6.429 -0.2562 -0.1585  0.3315
  139OSM    H5F15234   5.640   0.730   6.523 -0.2537  0.1869  0.5363
  139OSM    H5G15235   5.770   0.785   6.411 -0.1450  0.6823  0.9514
  139OSM    C6F15236   5.603   0.715   6.302  0.1526 -0.5453 -0.3507
  139OSM    H6F15237   5.617   0.771   6.206  1.5753  0.7199  0.5381
  139OSM    H6G15238   5.494   0.725   6.319  0.3360 -0.3866  0.8275
  139OSM    C7F15239   5.643   0.572   6.292  0.2344 -0.0472  0.0689
  139OSM    H7F15240   5.618   0.534   6.394 -0.7909 -0.9858 -0.5103
  139OSM    H7G15241   5.753   0.557   6.299  0.4191  1.6139  1.1681
  139OSM    C8F15242   5.582   0.495   6.182 -0.0488  0.2658  0.3072
  139OSM    H8F15243   5.605   0.541   6.083 -0.1745 -0.7203 -0.1860
  139OSM    H8G15244   5.473   0.511   6.196 -0.1676 -0.7307  0.5389
  139OSM    C9F15245   5.603   0.343   6.181 -0.1149  0.5732  0.3550
  139OSM    H9F15246   5.568   0.279   6.263  0.6304 -2.0195 -1.2250
  139OSM   C10F15247   5.639   0.266   6.080  0.5449 -0.4135  0.3874
  139OSM   H10F15248   5.654   0.159   6.098 -2.2005 -1.7719 -4.0081
  139OSM   C11F15249   5.698   0.306   5.940 -0.1413  0.3838 -0.0774
  139OSM   H11F15250   5.691   0.414   5.914  1.1746  0.8303  1.2229
  139OSM   H11G15251   5.642   0.242   5.869 -0.5615 -0.7877  1.2537
  139OSM   C12F15252   5.837   0.256   5.908 -0.0757  1.3195  0.8367
  139OSM   H12F15253   5.858   0.257   5.799  1.8094 -2.0263  1.0458
  139OSM   H12G15254   5.851   0.150   5.938 -0.2721  1.6816  2.3110
  139OSM   C13F15255   5.950   0.341   5.978 -0.0235 -0.0468 -0.4402
  139OSM   H13F15256   5.921   0.350   6.085 -0.4919 -0.0992 -0.5604
  139OSM   H13G15257   5.951   0.450   5.954  2.8289 -0.0694 -0.8524
  139OSM   C14F15258   6.085   0.283   5.966 -0.6300  0.3596 -0.2006
  139OSM   H14F15259   6.108   0.260   5.860  3.5183 -0.1989  0.6657
  139OSM   H14G15260   6.087   0.183   6.013 -2.4035  1.3519  2.1908
  139OSM   C15F15261   6.209   0.367   6.001  0.8384 -0.7908  0.4859
  139OSM   H15F15262   6.208   0.462   5.944  0.0001 -0.3609  1.1959
  139OSM   H15G15263   6.300   0.314   5.966  1.9728  1.3626 -0.0152
  139OSM   C16F15264   6.214   0.395   6.155  0.5304  0.4730 -0.3982
  139OSM   H16F15265   6.176   0.300   6.198 -2.1213  0.9215 -1.5494
  139OSM   H16G15266   6.147   0.481   6.175 -2.6233 -2.1032  1.2588
  139OSM   C17F15267   6.357   0.415   6.202 -0.0375  0.8854 -1.0841
  139OSM   H17F15268   6.355   0.480   6.292 -0.9469 -1.9169  1.0741
  139OSM   H17G15269   6.409   0.469   6.121 -0.0588 -0.2655 -1.8880
  139OSM   C18F15270   6.421   0.279   6.241  0.3440  0.7292  0.4512
  139OSM   H18F15271   6.432   0.209   6.156  0.7578  3.0891 -1.5624
  139OSM   H18G15272   6.378   0.235   6.333 -1.2635 -0.3880 -0.7682
  139OSM   H18H15273   6.528   0.294   6.266  0.0629 -0.2471  2.3798
  140OSM      N15274   6.285   2.970   7.035  0.0846  0.4850  0.0845
  140OSM    C1515275   6.314   2.998   6.888  0.4281 -0.2129  0.1596
  140OSM   H15A15276   6.421   3.010   6.884  0.4467 -0.6180 -0.9499
  140OSM   H15B15277   6.261   3.087   6.856  1.3191 -0.5188 -2.4104
  140OSM   H15C15278   6.289   2.906   6.838  1.7338 -1.1932  1.2288
  140OSM    C1415279   6.152   2.905   7.060 -0.0886  0.7404  0.1693
  140OSM   H14A15280   6.136   2.891   7.166  1.5996 -2.8170  0.1228
  140OSM   H14B15281   6.147   2.806   7.015  1.5079  1.4400 -1.7370
  140OSM   H14C15282   6.074   2.972   7.027  1.1898  1.1744 -2.2335
  140OSM    C1315283   6.392   2.874   7.080  0.6860  0.2220  0.1255
  140OSM   H13A15284   6.387   2.861   7.188  1.2949  3.2233  0.5933
  140OSM   H13B15285   6.489   2.916   7.058  0.5258 -0.4727 -2.0646
  140OSM   H13C15286   6.392   2.770   7.050  1.7427 -0.6259  2.7766
  140OSM    C1215287   6.291   3.101   7.110 -0.3208 -0.0867  0.8304
  140OSM   H12A15288   6.209   3.158   7.069 -0.1866  0.9814  2.0149
  140OSM   H12B15289   6.386   3.149   7.089 -0.7676  0.5413  0.1836
  140OSM    C1115290   6.270   3.103   7.263  0.1879 -0.7513 -0.6933
  140OSM   H11A15291   6.311   3.199   7.301  1.1796 -0.9897 -1.1467
  140OSM   H11B15292   6.323   3.018   7.308 -0.9751 -0.6658  0.9364
  140OSM      P15293   6.029   3.210   7.284 -0.0849 -0.4735 -0.4497
  140OSM    O1315294   5.902   3.176   7.352 -0.8807 -0.0621 -0.1178
  140OSM    O1415295   6.101   3.335   7.337  0.3687 -0.6596 -0.3725
  140OSM    O1115296   6.006   3.224   7.128  0.0604 -0.3008 -0.3161
  140OSM    O1215297   6.130   3.090   7.293 -0.1628 -0.3856 -0.4162
  140OSM    C1S15298   5.930   3.329   7.070  0.1080 -0.3126 -0.6749
  140OSM    H1S15299   5.980   3.425   7.095 -0.7688  0.6232 -2.3685
  140OSM    H1T15300   5.833   3.340   7.124  1.7721  0.0295  2.4871
  140OSM     NF15301   5.856   3.445   6.865 -0.4366 -0.1397  0.6361
  140OSM    HNF15302   5.758   3.464   6.873 -0.5444 -0.7896  1.0050
  140OSM    C2S15303   5.897   3.317   6.918  0.1578  0.4458  0.5024
  140OSM    H2S15304   5.986   3.280   6.863 -0.6257 -0.4921 -0.1741
  140OSM    C3S15305   5.770   3.220   6.905  0.3211  0.5803 -0.0233
  140OSM    H3S15306   5.676   3.260   6.949 -0.7841 -0.1200 -1.6702
  140OSM     O315307   5.788   3.105   6.981 -0.3592  0.5106  0.1674
  140OSM    HO315308   5.860   3.129   7.040 -0.2422  0.5430  0.0115
  140OSM    C4S15309   5.732   3.190   6.756 -0.1114  0.2011  0.1502
  140OSM    H4S15310   5.710   3.280   6.697  1.6354 -0.4567 -1.6528
  140OSM    C5S15311   5.745   3.081   6.680 -1.0663 -0.0091  0.1460
  140OSM    H5S15312   5.781   2.988   6.726 -1.5524 -0.1323  0.2862
  140OSM    C6S15313   5.730   3.075   6.532  0.0334 -0.0895 -0.5409
  140OSM    H6S15314   5.822   3.035   6.484  1.8906  2.4051  0.6723
  140OSM    H6T15315   5.727   3.179   6.492  1.2429 -0.9257 -2.9949
  140OSM    C7S15316   5.615   3.001   6.467 -0.1305  0.1794 -0.4452
  140OSM    H7S15317   5.527   3.066   6.479 -1.0824 -1.1861  0.2751
  140OSM    H7T15318   5.584   2.907   6.517  1.5534 -0.3258 -0.2646
  140OSM    C8S15319   5.643   2.965   6.316 -0.3192  0.9594  0.0355
  140OSM    H8S15320   5.547   2.920   6.282 -0.5147  2.6496 -1.8423
  140OSM    H8T15321   5.726   2.892   6.317 -1.5486 -0.5016 -0.6676
  140OSM    C9S15322   5.683   3.081   6.215 -0.0537  0.3144 -0.4043
  140OSM    H9S15323   5.767   3.135   6.262 -0.0597  0.0562 -0.0976
  140OSM    H9T15324   5.594   3.140   6.183 -0.6643 -0.6107 -0.4517
  140OSM   C10S15325   5.735   3.027   6.082 -0.4758 -0.2521  0.0542
  140OSM   H10S15326   5.797   2.938   6.107 -0.8098 -0.6504 -0.5129
  140OSM   H10T15327   5.801   3.108   6.045 -1.5085  0.3902 -0.4200
  140OSM   C11S15328   5.628   2.995   5.977 -0.2572  0.2736 -0.0045
  140OSM   H11S15329   5.581   3.089   5.943  0.9011  0.7548 -0.3538
  140OSM   H11T15330   5.557   2.933   6.035 -1.0467  0.1379 -1.0810
  140OSM   C12S15331   5.688   2.919   5.861 -0.3972  0.0135 -0.0862
  140OSM   H12S15332   5.618   2.846   5.816  1.3385 -0.6529 -1.8377
  140OSM   H12T15333   5.758   2.851   5.914  0.4094  1.9966  1.5197
  140OSM   C13S15334   5.754   3.002   5.762  0.5435  0.1030  0.3980
  140OSM   H13S15335   5.846   3.040   5.811  2.1532  0.4732 -2.6317
  140OSM   H13T15336   5.700   3.090   5.722 -1.3027 -1.3109 -0.4101
  140OSM   C14S15337   5.795   2.928   5.634 -0.2155 -0.3764 -0.0108
  140OSM   H14S15338   5.859   2.849   5.678  1.8028  0.1012 -1.9272
  140OSM   H14T15339   5.870   2.991   5.580 -0.8317 -0.3068 -0.8052
  140OSM   C15S15340   5.683   2.885   5.540  0.1703  0.0970  0.1445
  140OSM   H15S15341   5.619   2.968   5.504 -1.0319 -0.9952 -0.3043
  140OSM   H15T15342   5.620   2.810   5.593 -1.4243  0.4119 -1.2388
  140OSM   C16S15343   5.732   2.826   5.412 -0.3329  0.5155  0.5984
  140OSM   H16S15344   5.822   2.763   5.429  1.4380  3.2243  2.1474
  140OSM   H16T15345   5.777   2.909   5.352  0.6434 -0.2954  0.1763
  140OSM   C17S15346   5.623   2.752   5.332 -0.4095  0.2271  0.4821
  140OSM   H17S15347   5.550   2.826   5.294  1.1162  1.2635 -0.5339
  140OSM   H17T15348   5.572   2.688   5.407 -0.0989 -1.1659 -0.4562
  140OSM   C18S15349   5.670   2.674   5.202 -0.3483  0.2269  0.1512
  140OSM   H18S15350   5.578   2.641   5.149 -2.6622  0.2328  3.8564
  140OSM   H18T15351   5.735   2.591   5.238  0.7568  0.5581 -0.9827
  140OSM   H18U15352   5.733   2.735   5.134  0.6620 -2.4898 -1.5592
  140OSM    C1F15353   5.936   3.550   6.841 -0.1624  0.0218  0.3647
  140OSM     OF15354   6.057   3.533   6.863 -0.2565  0.3304  0.3716
  140OSM    C2F15355   5.878   3.680   6.795  1.1608  0.0066  0.1354
  140OSM    H2F15356   5.928   3.717   6.702 -1.0452  1.2489 -0.6275
  140OSM    H2G15357   5.881   3.756   6.876 -2.9836 -0.5929  1.0345
  140OSM    C3F15358   5.729   3.671   6.746 -0.0156 -0.5809 -0.6346
  140OSM    H3F15359   5.683   3.772   6.736  1.4081  0.2601  0.6809
  140OSM    H3G15360   5.670   3.619   6.825  0.4313  3.1324  2.4791
  140OSM    C4F15361   5.720   3.606   6.616  0.8181  0.4844 -0.0309
  140OSM    H4F15362   5.763   3.504   6.617 -1.5927 -0.5868 -0.2497
  140OSM    H4G15363   5.780   3.667   6.544  0.9956  1.9389  1.2911
  140OSM    C5F15364   5.572   3.593   6.568 -0.9112  0.0473  0.2326
  140OSM    H5F15365   5.529   3.695   6.554  1.5749  0.7872 -3.8404
  140OSM    H5G15366   5.523   3.540   6.652  1.7006 -2.5610  0.2740
  140OSM    C6F15367   5.566   3.514   6.439 -0.0383 -0.2693  0.5523
  140OSM    H6F15368   5.643   3.435   6.427  0.6965  0.6612 -1.2593
  140OSM    H6G15369   5.589   3.586   6.358 -0.4778 -0.0677  0.5989
  140OSM    C7F15370   5.435   3.435   6.409  0.8324 -0.0874  0.5448
  140OSM    H7F15371   5.367   3.520   6.431  1.5605  0.0097  2.6262
  140OSM    H7G15372   5.422   3.357   6.488  0.6506  1.0091  1.6293
  140OSM    C8F15373   5.423   3.377   6.262  1.0454 -0.6750  0.2285
  140OSM    H8F15374   5.330   3.318   6.245  0.9502 -0.6100  0.5157
  140OSM    H8G15375   5.512   3.313   6.246  1.6476  0.5169 -1.4145
  140OSM    C9F15376   5.428   3.495   6.171  0.2432 -0.0951  0.2893
  140OSM    H9F15377   5.435   3.594   6.216  2.2283  0.0482 -0.2446
  140OSM   C10F15378   5.423   3.494   6.038  0.3845  1.1113  0.7087
  140OSM   H10F15379   5.422   3.580   5.970 -0.2639  0.9902  0.5567
  140OSM   C11F15380   5.413   3.368   5.952  0.1499  1.0115  0.5465
  140OSM   H11F15381   5.303   3.363   5.935  0.2054 -0.4442  0.4599
  140OSM   H11G15382   5.449   3.280   6.010  2.2426  1.6250  0.2639
  140OSM   C12F15383   5.491   3.381   5.813 -0.2695  0.7878  0.0410
  140OSM   H12F15384   5.482   3.285   5.757 -1.0427  0.6987  0.3078
  140OSM   H12G15385   5.600   3.403   5.819  0.9706 -4.2088  1.0012
  140OSM   C13F15386   5.425   3.481   5.726  0.3520 -0.2454  0.3379
  140OSM   H13F15387   5.436   3.585   5.765  1.9317  0.1833 -1.1410
  140OSM   H13G15388   5.320   3.444   5.717 -0.4973  1.9587  0.5973
  140OSM   C14F15389   5.494   3.491   5.586 -0.2649  0.6686  0.5728
  140OSM   H14F15390   5.477   3.401   5.523  1.1497  0.8163 -0.0468
  140OSM   H14G15391   5.603   3.481   5.602  0.0096 -1.2354 -1.9003
  140OSM   C15F15392   5.465   3.620   5.514  0.3856  0.2474 -0.2166
  140OSM   H15F15393   5.508   3.702   5.575  0.7545  0.1177 -0.2999
  140OSM   H15G15394   5.354   3.628   5.513 -0.0006 -2.9814  1.6761
  140OSM   C16F15395   5.510   3.614   5.365  0.7256  0.3181 -0.3498
  140OSM   H16F15396   5.501   3.710   5.310  1.3580  0.6972  0.1979
  140OSM   H16G15397   5.457   3.537   5.305 -1.2406  0.3298  1.2595
  140OSM   C17F15398   5.663   3.583   5.346 -0.1472  0.3696  0.3208
  140OSM   H17F15399   5.689   3.579   5.238 -1.1938 -0.1262  0.0730
  140OSM   H17G15400   5.687   3.481   5.382 -3.6313 -0.7237 -0.0743
  140OSM   C18F15401   5.748   3.700   5.405 -1.4110  0.1481  0.6174
  140OSM   H18F15402   5.776   3.683   5.512  1.1833 -0.5485 -0.0996
  140OSM   H18G15403   5.704   3.802   5.408  0.5285  1.0197  3.1188
  140OSM   H18H15404   5.841   3.695   5.345 -1.6437  2.5725 -0.0286
  141OSM      N15405   5.870   5.008   7.448  0.0032  0.6967 -0.6013
  141OSM    C1515406   5.894   5.009   7.307 -1.0228  0.2928  0.3805
  141OSM   H15A15407   5.885   5.109   7.267  1.6614 -0.2379 -1.8599
  141OSM   H15B15408   5.834   4.940   7.250 -0.4928  1.0194 -1.0936
  141OSM   H15C15409   5.996   4.980   7.286 -1.3243  0.0346 -0.7751
  141OSM    C1415410   5.727   5.049   7.480  0.0082 -0.0069 -0.5063
  141OSM   H14A15411   5.709   5.038   7.586  3.8206 -2.3082  0.0991
  141OSM   H14B15412   5.660   4.979   7.433 -1.3996 -0.4714  1.9969
  141OSM   H14C15413   5.704   5.153   7.463 -1.1529 -0.1428  0.1513
  141OSM    C1315414   5.902   4.874   7.493  0.2090 -0.9429  0.0642
  141OSM   H13A15415   5.832   4.801   7.455 -0.6765 -0.1587  0.1236
  141OSM   H13B15416   5.898   4.859   7.600  0.8449 -1.9954 -0.0532
  141OSM   H13C15417   5.992   4.833   7.451  0.8662  0.3218  0.1818
  141OSM    C1215418   5.962   5.106   7.518 -0.2115  0.1434  0.4260
  141OSM   H12A15419   6.068   5.097   7.494 -0.0235  1.0061  0.9028
  141OSM   H12B15420   5.983   5.081   7.621  3.0964  1.2605  0.1589
  141OSM    C1115421   5.930   5.254   7.514  0.1543 -0.1608  0.0047
  141OSM   H11A15422   6.011   5.309   7.565  0.3632  1.9949 -2.4803
  141OSM   H11B15423   5.840   5.268   7.577  0.0586 -0.3321 -0.0916
  141OSM      P15424   6.009   5.378   7.301  0.2335  0.5253 -0.6712
  141OSM    O1315425   6.000   5.515   7.357  0.1699 -0.0038 -0.3301
  141OSM    O1415426   6.137   5.308   7.302  0.5038 -0.0004 -0.7825
  141OSM    O1115427   5.942   5.373   7.159  0.1866  1.0962 -0.2452
  141OSM    O1215428   5.901   5.304   7.388  0.5429  0.2318 -0.0390
  141OSM    C1S15429   6.014   5.392   7.042 -1.0296  0.5311 -0.2422
  141OSM    H1S15430   6.092   5.313   7.036  0.1449  1.4987  1.5089
  141OSM    H1T15431   6.067   5.489   7.054  1.7341 -1.1455  2.7324
  141OSM     NF15432   5.999   5.487   6.812 -0.1275  0.0657 -0.5293
  141OSM    HNF15433   5.970   5.582   6.804  1.5746  0.5162 -2.2971
  141OSM    C2S15434   5.930   5.401   6.910  0.8980  0.5375 -0.4669
  141OSM    H2S15435   5.921   5.296   6.874  0.3915  0.3207  0.2506
  141OSM    C3S15436   5.780   5.443   6.948 -0.7398 -0.2724  0.2108
  141OSM    H3S15437   5.783   5.536   7.008 -1.8236 -1.5815  2.4424
  141OSM     O315438   5.709   5.347   7.033  0.5020 -0.5597  0.3233
  141OSM    HO315439   5.778   5.321   7.095 -0.0488  1.1374  1.7241
  141OSM    C4S15440   5.698   5.476   6.821  0.5817 -0.3032 -0.3595
  141OSM    H4S15441   5.684   5.582   6.799 -0.4557 -0.3039  0.2464
  141OSM    C5S15442   5.651   5.390   6.723 -0.1054 -0.3502 -0.3975
  141OSM    H5S15443   5.654   5.282   6.743 -0.1065 -0.2414  0.2144
  141OSM    C6S15444   5.587   5.429   6.594 -0.1034  0.2763  0.1769
  141OSM    H6S15445   5.593   5.538   6.574  0.8521 -0.0720 -1.5441
  141OSM    H6T15446   5.481   5.398   6.582 -0.2363  1.1146 -0.9519
  141OSM    C7S15447   5.670   5.364   6.479 -0.0010  0.0978 -0.5606
  141OSM    H7S15448   5.664   5.254   6.491 -1.6083  0.1632 -0.4688
  141OSM    H7T15449   5.778   5.387   6.488 -0.1477  0.9531 -0.8535
  141OSM    C8S15450   5.615   5.382   6.341 -0.4297  0.0573 -0.3646
  141OSM    H8S15451   5.599   5.483   6.299  0.4909  0.8922  1.2214
  141OSM    H8T15452   5.520   5.323   6.344 -0.5271 -0.1826 -3.9186
  141OSM    C9S15453   5.694   5.306   6.226  0.3393  0.0591 -0.3326
  141OSM    H9S15454   5.666   5.199   6.239  1.0479 -0.1537 -0.5388
  141OSM    H9T15455   5.801   5.324   6.247 -0.0861 -0.5844  2.9653
  141OSM   C10S15456   5.641   5.345   6.090  0.2624 -1.1459  0.5349
  141OSM   H10S15457   5.631   5.456   6.094  1.4866 -0.9457 -0.9467
  141OSM   H10T15458   5.545   5.291   6.075 -0.1998 -0.3567  0.5900
  141OSM   C11S15459   5.744   5.312   5.981  1.1056  0.8380  0.5170
  141OSM   H11S15460   5.766   5.204   5.992 -1.2478  0.2737  0.1334
  141OSM   H11T15461   5.834   5.377   5.984  1.1705  1.0110 -2.1198
  141OSM   C12S15462   5.686   5.327   5.834  1.1463 -0.0286 -0.0841
  141OSM   H12S15463   5.675   5.436   5.813  3.8617  0.2085 -0.6959
  141OSM   H12T15464   5.589   5.275   5.826  0.5281  0.9930  0.5917
  141OSM   C13S15465   5.785   5.268   5.730  0.5177 -0.4409 -0.1649
  141OSM   H13S15466   5.774   5.158   5.743  2.0033 -0.3757  2.3788
  141OSM   H13T15467   5.885   5.293   5.772 -0.0296 -1.6145  2.0266
  141OSM   C14S15468   5.758   5.306   5.586 -0.4042  0.4730  0.3685
  141OSM   H14S15469   5.771   5.417   5.588  0.0881  0.5486 -2.5191
  141OSM   H14T15470   5.652   5.281   5.563 -1.3868  2.2914  2.4884
  141OSM   C15S15471   5.855   5.241   5.483  0.0654  0.2998 -0.6075
  141OSM   H15S15472   5.824   5.272   5.380 -0.3356 -0.6472 -0.7819
  141OSM   H15T15473   5.839   5.132   5.491 -0.9939  0.5166  0.6258
  141OSM   C16S15474   6.005   5.268   5.514  0.3964 -0.1188 -0.1167
  141OSM   H16S15475   6.040   5.232   5.613  2.8522  1.0092 -0.5154
  141OSM   H16T15476   6.004   5.378   5.526 -3.1106  0.1972 -1.9714
  141OSM   C17S15477   6.096   5.235   5.398 -0.7420  0.2536 -0.2002
  141OSM   H17S15478   6.182   5.303   5.419 -0.4409 -0.6316  1.7186
  141OSM   H17T15479   6.054   5.260   5.299 -1.0784 -2.0208 -0.6849
  141OSM   C18S15480   6.149   5.094   5.390 -0.4625  1.1382 -0.3799
  141OSM   H18S15481   6.247   5.069   5.437 -2.0422 -1.7314  1.7670
  141OSM   H18T15482   6.154   5.062   5.284  1.2948 -0.0908  0.0256
  141OSM   H18U15483   6.078   5.026   5.444 -0.8509  1.6604 -0.2230
  141OSM    C1F15484   6.109   5.446   6.761 -0.5793  0.2591  0.6566
  141OSM     OF15485   6.138   5.325   6.768  0.4090 -0.2287 -0.2294
  141OSM    C2F15486   6.192   5.537   6.674 -0.1862  0.0955 -0.1023
  141OSM    H2F15487   6.292   5.543   6.722  0.7823 -2.2133 -1.6166
  141OSM    H2G15488   6.150   5.639   6.686 -0.4133  0.1792 -1.4684
  141OSM    C3F15489   6.210   5.501   6.521 -0.4393  0.3822 -0.2239
  141OSM    H3F15490   6.111   5.504   6.471 -0.0780 -1.9249 -1.1747
  141OSM    H3G15491   6.248   5.397   6.522 -1.5086 -0.0633 -1.9819
  141OSM    C4F15492   6.317   5.588   6.453  0.0788  0.0577  0.4068
  141OSM    H4F15493   6.404   5.595   6.522  0.1979 -0.1561  0.2802
  141OSM    H4G15494   6.274   5.683   6.415  3.8640  1.2923 -1.3279
  141OSM    C5F15495   6.354   5.517   6.322  1.0121  0.4222  0.4022
  141OSM    H5F15496   6.388   5.416   6.354  0.3618 -0.5239 -1.7109
  141OSM    H5G15497   6.441   5.572   6.277 -0.5880  1.3429 -1.7543
  141OSM    C6F15498   6.238   5.520   6.218  0.7066 -0.0946  0.0266
  141OSM    H6F15499   6.216   5.628   6.202 -0.0320 -0.3276 -0.6220
  141OSM    H6G15500   6.149   5.467   6.258  0.4064  1.0610  0.9756
  141OSM    C7F15501   6.277   5.462   6.084  0.0500 -0.1897  0.3428
  141OSM    H7F15502   6.279   5.352   6.100 -0.8099 -0.3142 -0.3333
  141OSM    H7G15503   6.379   5.501   6.063 -0.1397  2.5051  3.6258
  141OSM    C8F15504   6.182   5.483   5.968  0.7643 -0.0441 -0.3069
  141OSM    H8F15505   6.184   5.592   5.946  2.4740 -0.4493 -2.5510
  141OSM    H8G15506   6.080   5.446   5.991  0.7767  1.1630  2.0410
  141OSM    C9F15507   6.227   5.401   5.851 -0.0012 -0.3112 -0.2740
  141OSM    H9F15508   6.230   5.292   5.860 -1.2668 -0.3623 -0.3226
  141OSM   C10F15509   6.260   5.457   5.727 -0.5409 -0.3203 -0.3986
  141OSM   H10F15510   6.276   5.385   5.645 -0.8498  2.0725 -2.6693
  141OSM   C11F15511   6.248   5.609   5.693  0.0471  0.1620  0.5387
  141OSM   H11F15512   6.308   5.659   5.772  0.6388 -0.8152  0.7310
  141OSM   H11G15513   6.142   5.633   5.718  0.1756 -1.4157  2.8877
  141OSM   C12F15514   6.296   5.646   5.558 -0.1898  0.1162 -0.6622
  141OSM   H12F15515   6.260   5.573   5.483  0.0155 -0.3615 -0.3019
  141OSM   H12G15516   6.407   5.640   5.556 -0.1937 -2.3426  1.1091
  141OSM   C13F15517   6.259   5.790   5.521  0.2778  0.4053  0.2507
  141OSM   H13F15518   6.295   5.858   5.601 -2.8875  0.7260  1.5348
  141OSM   H13G15519   6.149   5.796   5.519  0.2092 -0.0407  1.5390
  141OSM   C14F15520   6.320   5.826   5.388 -0.0657  0.5313  1.0114
  141OSM   H14F15521   6.261   5.772   5.311  0.4989  1.7774 -0.3411
  141OSM   H14G15522   6.422   5.783   5.379 -0.7227 -0.7651 -0.9114
  141OSM   C15F15523   6.328   5.974   5.359 -0.6204 -0.4173 -0.5525
  141OSM   H15F15524   6.222   6.004   5.345 -0.9143 -0.9176  0.5035
  141OSM   H15G15525   6.382   5.990   5.263  0.4875 -2.2250 -0.2784
  141OSM   C16F15526   6.386   6.056   5.472  0.2319 -0.3924 -0.1614
  141OSM   H16F15527   6.476   6.013   5.521  0.7287  1.8716  1.0468
  141OSM   H16G15528   6.310   6.069   5.553  1.2796 -2.0359  1.1546
  141OSM   C17F15529   6.421   6.201   5.425  0.3564  0.3117 -0.0768
  141OSM   H17F15530   6.350   6.238   5.347  0.0740  2.4638  1.1256
  141OSM   H17G15531   6.516   6.223   5.372 -1.1208  2.9007 -1.9408
  141OSM   C18F15532   6.417   6.307   5.533 -0.2667 -0.1341 -0.1926
  141OSM   H18F15533   6.475   6.282   5.625 -2.2280  0.7712  1.3746
  141OSM   H18G15534   6.312   6.332   5.558 -1.3611 -1.4508 -3.0824
  141OSM   H18H15535   6.456   6.404   5.495  0.3716  0.8745  2.7720
  142OSM      N15536   4.338   4.722   7.608  0.4374 -0.8282  0.9426
  142OSM    C1515537   4.202   4.761   7.643  0.1584 -0.2610  0.5043
  142OSM   H15A15538   4.161   4.854   7.607  0.3106  0.4075  1.9807
  142OSM   H15B15539   4.193   4.767   7.750  2.2132 -2.0365  0.8539
  142OSM   H15C15540   4.139   4.680   7.609  2.2337 -1.0761 -1.6655
  142OSM    C1415541   4.439   4.835   7.626 -0.2816 -0.9142  0.0794
  142OSM   H14A15542   4.422   4.927   7.572  1.4317  0.3471  1.5427
  142OSM   H14B15543   4.539   4.802   7.605 -1.1249 -2.2970 -2.1327
  142OSM   H14C15544   4.432   4.858   7.732 -1.5618 -0.6748 -0.0387
  142OSM    C1315545   4.382   4.608   7.693  0.1941  0.2640  0.8118
  142OSM   H13A15546   4.312   4.526   7.696 -0.1664  0.6133  2.2431
  142OSM   H13B15547   4.401   4.637   7.795  1.3419  0.8376  0.4610
  142OSM   H13C15548   4.479   4.575   7.658  0.3428  0.9297  0.5750
  142OSM    C1215549   4.343   4.670   7.463 -0.3817  0.0239 -0.7304
  142OSM   H12A15550   4.446   4.662   7.431 -0.1185 -0.2819  0.1822
  142OSM   H12B15551   4.299   4.748   7.401 -1.5105  1.0704  1.2684
  142OSM    C1115552   4.267   4.535   7.433  0.2705  0.4268  0.2460
  142OSM   H11A15553   4.313   4.449   7.487 -0.0932  1.5106  2.3769
  142OSM   H11B15554   4.274   4.509   7.325 -2.3730 -2.6113  0.6481
  142OSM      P15555   4.016   4.598   7.383 -0.2119 -0.2743 -0.0424
  142OSM    O1315556   3.889   4.535   7.415 -0.3518 -0.0757 -0.3105
  142OSM    O1415557   4.013   4.745   7.394 -0.0145 -0.1042  0.0193
  142OSM    O1115558   4.061   4.550   7.246  0.1906  0.5268  0.3840
  142OSM    O1215559   4.128   4.539   7.469 -0.0948 -0.1861  0.3113
  142OSM    C1S15560   4.055   4.638   7.133  0.3545 -0.0077  0.6096
  142OSM    H1S15561   4.135   4.715   7.131 -1.9799  2.5530 -0.3266
  142OSM    H1T15562   3.963   4.700   7.134  0.2689 -0.0593  3.5030
  142OSM     NF15563   4.025   4.659   6.884 -0.2764  0.3357 -0.4464
  142OSM    HNF15564   3.929   4.660   6.857 -0.1622 -3.3712 -1.5556
  142OSM    C2S15565   4.047   4.563   6.994 -0.4093  0.0454  0.0009
  142OSM    H2S15566   4.149   4.525   6.972 -0.6465 -0.0918 -0.9242
  142OSM    C3S15567   3.965   4.426   6.992 -0.2940 -0.2824  0.3999
  142OSM    H3S15568   3.855   4.445   6.989 -0.0940  0.7989 -1.6870
  142OSM     O315569   3.979   4.342   7.108 -0.1775  0.3903  0.2554
  142OSM    HO315570   4.037   4.399   7.159  1.3354 -1.1655  0.3834
  142OSM    C4S15571   3.990   4.345   6.866 -0.6005  0.4224 -0.1247
  142OSM    H4S15572   3.913   4.356   6.788  0.8062  0.4117 -1.5427
  142OSM    C5S15573   4.092   4.254   6.845  0.7154  0.3363  0.6954
  142OSM    H5S15574   4.152   4.228   6.934 -2.5725 -3.2085  2.1478
  142OSM    C6S15575   4.096   4.159   6.726  0.0184 -0.4288  0.7201
  142OSM    H6S15576   4.008   4.167   6.659  2.5005 -0.1319 -2.8120
  142OSM    H6T15577   4.098   4.053   6.756 -2.6982 -0.3883  1.2537
  142OSM    C7S15578   4.205   4.203   6.633 -0.2038  0.2851 -0.3129
  142OSM    H7S15579   4.296   4.215   6.696  1.0797  0.7546 -2.1608
  142OSM    H7T15580   4.172   4.302   6.597 -0.6250  0.1960 -0.1778
  142OSM    C8S15581   4.235   4.124   6.506  0.1757 -0.1051 -0.0505
  142OSM    H8S15582   4.266   4.021   6.536  2.0759 -0.3142 -2.4307
  142OSM    H8T15583   4.319   4.170   6.450 -0.1199 -2.2417 -2.4202
  142OSM    C9S15584   4.121   4.113   6.410  0.5076 -0.7739  0.6816
  142OSM    H9S15585   4.058   4.200   6.438  0.7299 -1.1658  2.4805
  142OSM    H9T15586   4.052   4.031   6.439  0.1491 -0.5084  0.5856
  142OSM   C10S15587   4.148   4.095   6.256  0.3277 -0.4346 -0.2198
  142OSM   H10S15588   4.188   4.189   6.211  0.1516 -0.1114  0.2939
  142OSM   H10T15589   4.053   4.086   6.199  0.4368  0.6580 -0.6028
  142OSM   C11S15590   4.241   3.988   6.216  0.4072  0.0410  0.0147
  142OSM   H11S15591   4.204   3.885   6.232 -0.6377  0.3918 -0.0852
  142OSM   H11T15592   4.338   4.010   6.266  0.9042  2.6142 -1.8890
  142OSM   C12S15593   4.263   3.993   6.064  0.5502 -0.2822  0.2155
  142OSM   H12S15594   4.165   4.002   6.012  0.4284  1.1540  0.6358
  142OSM   H12T15595   4.317   3.900   6.036 -2.3832 -2.0955  0.1633
  142OSM   C13S15596   4.347   4.112   6.011  0.1873  0.1364 -0.9333
  142OSM   H13S15597   4.443   4.096   6.065 -1.1426 -0.2504  1.4522
  142OSM   H13T15598   4.297   4.210   6.032 -3.6429 -1.7995 -0.0261
  142OSM   C14S15599   4.382   4.104   5.864 -0.2965  0.5824  0.2429
  142OSM   H14S15600   4.408   3.999   5.835  0.6217  0.9125 -0.1715
  142OSM   H14T15601   4.465   4.173   5.838 -0.5594  0.7616 -0.1160
  142OSM   C15S15602   4.263   4.159   5.778 -0.3077  0.7415 -0.4337
  142OSM   H15S15603   4.244   4.266   5.801 -1.1819  0.3063  0.9729
  142OSM   H15T15604   4.181   4.092   5.812  0.5549  0.4781  1.2263
  142OSM   C16S15605   4.283   4.166   5.626  0.0021 -0.3147  0.3046
  142OSM   H16S15606   4.358   4.245   5.606 -2.2620  2.1434  0.9837
  142OSM   H16T15607   4.192   4.205   5.575 -0.3359 -0.5184  0.7387
  142OSM   C17S15608   4.316   4.033   5.552 -0.2210 -0.3381 -0.7160
  142OSM   H17S15609   4.234   3.959   5.558  0.3397 -0.8603  1.1329
  142OSM   H17T15610   4.392   3.973   5.606 -1.7822 -2.6593 -0.9778
  142OSM   C18S15611   4.348   4.057   5.405 -0.9110 -0.0007  0.5020
  142OSM   H18S15612   4.369   3.965   5.346 -0.0257 -0.3888  1.3967
  142OSM   H18T15613   4.444   4.112   5.395 -0.4494 -0.7715  0.6277
  142OSM   H18U15614   4.259   4.099   5.353  0.3619  2.9462  0.4988
  142OSM    C1F15615   4.105   4.753   6.830 -0.1356  0.5824 -0.6143
  142OSM     OF15616   4.216   4.775   6.883  0.5165  0.7822 -0.1798
  142OSM    C2F15617   4.055   4.841   6.723 -0.1430  0.2726  0.9531
  142OSM    H2F15618   4.079   4.946   6.753  2.2919 -1.3078  5.5738
  142OSM    H2G15619   3.946   4.824   6.713 -0.0066 -1.2142  1.8431
  142OSM    C3F15620   4.123   4.802   6.595 -0.1924 -0.1458  0.2328
  142OSM    H3F15621   4.101   4.695   6.574 -0.1914 -0.0105 -0.4646
  142OSM    H3G15622   4.231   4.824   6.606  0.0451 -0.4774 -1.2335
  142OSM    C4F15623   4.078   4.883   6.470  0.3654 -0.3658  0.3789
  142OSM    H4F15624   4.100   4.991   6.483  0.5025 -0.4479  0.8719
  142OSM    H4G15625   3.973   4.853   6.447  0.4730 -0.5635  0.1424
  142OSM    C5F15626   4.156   4.827   6.345 -0.2076  0.2237  0.2096
  142OSM    H5F15627   4.147   4.717   6.329  0.2391  0.0047  1.3687
  142OSM    H5G15628   4.266   4.843   6.346 -0.2898  0.8081  1.8718
  142OSM    C6F15629   4.116   4.921   6.227  0.1236  0.3152 -0.0739
  142OSM    H6F15630   4.153   5.021   6.259  3.2257 -0.2009 -1.6355
  142OSM    H6G15631   4.006   4.930   6.219  0.0081  0.0872  1.0481
  142OSM    C7F15632   4.182   4.873   6.095 -0.1547  0.1511  0.2416
  142OSM    H7F15633   4.152   4.767   6.079 -0.7678 -0.2058  3.2619
  142OSM    H7G15634   4.292   4.886   6.091  0.0679 -1.6977 -1.8050
  142OSM    C8F15635   4.133   4.944   5.968 -0.2549 -0.4011 -0.5085
  142OSM    H8F15636   4.031   4.909   5.939  0.1287  0.3050 -2.9630
  142OSM    H8G15637   4.195   4.916   5.880 -1.3998  0.3883 -1.6045
  142OSM    C9F15638   4.127   5.094   5.980 -0.1068 -1.0046 -0.1248
  142OSM    H9F15639   4.161   5.142   6.073  2.5735 -1.4338 -0.7941
  142OSM   C10F15640   4.083   5.171   5.878 -0.2198 -1.3741 -0.3948
  142OSM   H10F15641   4.087   5.279   5.901 -1.3765 -1.4497  0.2572
  142OSM   C11F15642   4.035   5.127   5.741  0.7537  0.3646  0.3111
  142OSM   H11F15643   3.993   5.025   5.754 -2.5264  1.6482  0.7326
  142OSM   H11G15644   4.120   5.131   5.670  1.5675 -1.6492  1.0732
  142OSM   C12F15645   3.914   5.196   5.671 -1.0685 -0.0940 -1.4813
  142OSM   H12F15646   3.831   5.215   5.743  0.6465 -0.6742  0.7603
  142OSM   H12G15647   3.867   5.127   5.598 -1.6103 -0.2044 -1.0409
  142OSM   C13F15648   3.952   5.325   5.597  0.0995 -0.4437  0.3286
  142OSM   H13F15649   4.006   5.388   5.671 -0.0085 -2.2949  2.0648
  142OSM   H13G15650   3.856   5.370   5.563 -0.6057 -2.5061 -0.5157
  142OSM   C14F15651   4.033   5.303   5.483 -0.5756 -0.0220  0.1371
  142OSM   H14F15652   3.992   5.219   5.424 -2.1007  0.5064  0.3993
  142OSM   H14G15653   4.136   5.278   5.517 -0.4421 -2.6407 -1.9181
  142OSM   C15F15654   4.044   5.422   5.391 -0.9887  0.3044 -0.0434
  142OSM   H15F15655   4.074   5.505   5.459 -0.3920  1.0586 -1.2060
  142OSM   H15G15656   3.945   5.433   5.342 -1.7635 -2.2439  0.7865
  142OSM   C16F15657   4.156   5.403   5.289  0.1798  0.1933  0.2291
  142OSM   H16F15658   4.149   5.311   5.227  0.2460 -1.8410  3.0106
  142OSM   H16G15659   4.250   5.394   5.347  0.4981 -0.9112 -0.4400
  142OSM   C17F15660   4.169   5.521   5.187 -0.6124  0.3625 -0.3043
  142OSM   H17F15661   4.271   5.513   5.146 -0.2958 -0.4626  0.6016
  142OSM   H17G15662   4.159   5.617   5.242  4.7424  0.1952  1.5508
  142OSM   C18F15663   4.074   5.511   5.069  0.4687  0.6988  0.0364
  142OSM   H18F15664   4.077   5.409   5.025  0.1157 -0.6528  2.8994
  142OSM   H18G15665   4.105   5.581   4.989  0.7006  0.7528  0.1716
  142OSM   H18H15666   3.966   5.531   5.085  0.1383  1.0270 -2.2404
  143OSM      N15667   5.938   1.173   7.081 -0.7860 -0.2190 -0.0425
  143OSM    C1515668   5.875   1.062   6.993 -0.3559 -0.4944  0.1648
  143OSM   H15A15669   5.937   0.974   6.993 -0.8807 -0.8912 -0.9263
  143OSM   H15B15670   5.849   1.086   6.890  1.4676  1.2072  0.0343
  143OSM   H15C15671   5.779   1.035   7.033 -0.7964  1.4386  0.5441
  143OSM    C1415672   5.968   1.103   7.216  0.3098  0.4427  0.8839
  143OSM   H14A15673   6.010   1.187   7.269  1.4145  0.6805 -0.3196
  143OSM   H14B15674   6.037   1.026   7.186 -1.2101 -0.2860 -0.9805
  143OSM   H14C15675   5.876   1.077   7.266  0.5291  0.9899  1.5831
  143OSM    C1315676   6.071   1.210   7.020 -0.2231 -0.1947  0.2549
  143OSM   H13A15677   6.098   1.302   7.068  0.5727 -0.8578  1.0995
  143OSM   H13B15678   6.077   1.220   6.912 -0.7140 -0.3963  0.2040
  143OSM   H13C15679   6.146   1.137   7.048 -1.0818 -0.5134  1.8001
  143OSM    C1215680   5.838   1.283   7.097  0.0068  0.3603 -0.4574
  143OSM   H12A15681   5.886   1.346   7.171  0.1660 -3.4564  3.0274
  143OSM   H12B15682   5.748   1.237   7.134  2.0011 -2.5873  1.1624
  143OSM    C1115683   5.815   1.370   6.969  0.6669  0.6267  0.1285
  143OSM   H11A15684   5.709   1.405   6.971  0.6662  0.5959  0.6295
  143OSM   H11B15685   5.819   1.305   6.879  1.6451 -1.0638  1.3416
  143OSM      P15686   5.882   1.612   6.904  0.0378 -0.3680 -0.0488
  143OSM    O1315687   5.747   1.648   6.952 -0.3423  0.0463 -0.1385
  143OSM    O1415688   5.991   1.706   6.940 -0.5197 -0.6377  0.1140
  143OSM    O1115689   5.874   1.586   6.748 -0.0672  0.0057  0.3238
  143OSM    O1215690   5.920   1.474   6.965  0.2866  0.6895 -0.0112
  143OSM    C1S15691   5.975   1.515   6.672 -0.2148  0.0298 -0.8688
  143OSM    H1S15692   5.995   1.416   6.718 -0.6875 -0.0007 -0.7230
  143OSM    H1T15693   6.073   1.566   6.683 -0.3868 -0.1374  2.4602
  143OSM     NF15694   6.039   1.412   6.442  0.3741 -0.4393 -0.6479
  143OSM    HNF15695   6.104   1.462   6.384  1.4708 -0.9865  0.0628
  143OSM    C2S15696   5.943   1.499   6.523  0.1872 -0.4092  0.0818
  143OSM    H2S15697   5.848   1.442   6.511 -0.5780  1.3241 -3.3694
  143OSM    C3S15698   5.925   1.639   6.458  0.3615 -0.1012  0.6759
  143OSM    H3S15699   6.018   1.700   6.462 -0.0142  0.4673  0.7436
  143OSM     O315700   5.837   1.726   6.535  0.4959 -0.5999 -0.1933
  143OSM    HO315701   5.830   1.681   6.619 -0.1524 -0.0467  0.0612
  143OSM    C4S15702   5.867   1.624   6.319  0.4611 -0.4409  0.0218
  143OSM    H4S15703   5.774   1.565   6.313 -0.9444  1.4052  2.1529
  143OSM    C5S15704   5.931   1.654   6.202 -0.4733  0.2495 -0.0315
  143OSM    H5S15705   6.035   1.688   6.204 -0.0350 -0.6855 -2.6661
  143OSM    C6S15706   5.882   1.625   6.063  0.2289  0.4493 -0.3779
  143OSM    H6S15707   5.918   1.530   6.018 -0.7521 -0.6604  1.0788
  143OSM    H6T15708   5.918   1.699   5.988  0.5850 -1.8685 -2.6473
  143OSM    C7S15709   5.724   1.628   6.051 -0.3303  0.1654 -0.1573
  143OSM    H7S15710   5.698   1.722   6.104  3.5138  1.0794  0.4439
  143OSM    H7T15711   5.680   1.536   6.097 -1.0769  0.4605 -0.2749
  143OSM    C8S15712   5.682   1.633   5.906  0.9154 -0.7601  0.0022
  143OSM    H8S15713   5.701   1.536   5.854  1.8555 -0.3588 -0.4233
  143OSM    H8T15714   5.729   1.713   5.845  0.8733 -1.0577 -0.4282
  143OSM    C9S15715   5.531   1.661   5.888 -0.3063  0.0608  0.7669
  143OSM    H9S15716   5.511   1.718   5.794 -1.5894  1.4321  1.8254
  143OSM    H9T15717   5.493   1.720   5.974  0.4832  0.9529  0.5221
  143OSM   C10S15718   5.450   1.532   5.877 -0.9642  0.7417 -0.5336
  143OSM   H10S15719   5.343   1.558   5.887 -1.3317 -0.7715 -0.2445
  143OSM   H10T15720   5.480   1.473   5.967  1.0074  0.4617 -1.3211
  143OSM   C11S15721   5.468   1.451   5.749 -0.4179  0.3635 -0.3091
  143OSM   H11S15722   5.566   1.400   5.761 -0.5048 -0.4563 -2.6889
  143OSM   H11T15723   5.475   1.521   5.663  1.5429 -0.6596 -1.0557
  143OSM   C12S15724   5.357   1.351   5.729  0.2194  0.5788 -0.3082
  143OSM   H12S15725   5.254   1.392   5.728 -1.4415 -2.9240  2.5449
  143OSM   H12T15726   5.349   1.300   5.828  0.3705  0.1394 -0.5227
  143OSM   C13S15727   5.390   1.236   5.627 -0.0631  0.1753 -0.4431
  143OSM   H13S15728   5.295   1.180   5.613  0.1814 -0.6096  0.8496
  143OSM   H13T15729   5.478   1.193   5.680 -0.6832  0.7783  1.1344
  143OSM   C14S15730   5.432   1.289   5.487  0.5015  0.2388 -0.5264
  143OSM   H14S15731   5.519   1.358   5.494  1.0502 -0.5265  0.4922
  143OSM   H14T15732   5.337   1.340   5.460 -1.0203 -2.0192  0.1935
  143OSM   C15S15733   5.457   1.173   5.393  0.4037 -0.3221 -0.2929
  143OSM   H15S15734   5.367   1.108   5.399 -0.9329  1.3652 -1.1223
  143OSM   H15T15735   5.537   1.104   5.426 -0.8176 -0.8354  1.8011
  143OSM   C16S15736   5.496   1.211   5.251 -0.2131 -0.1909  0.1200
  143OSM   H16S15737   5.513   1.120   5.191  1.5308  0.1591  0.0306
  143OSM   H16T15738   5.591   1.269   5.259  0.1852 -0.9364  1.0983
  143OSM   C17S15739   5.399   1.303   5.185 -0.1131 -0.0485  0.2442
  143OSM   H17S15740   5.385   1.395   5.246  0.8168  1.8579 -2.2348
  143OSM   H17T15741   5.297   1.261   5.172 -0.1357  0.1307 -0.1578
  143OSM   C18S15742   5.449   1.335   5.044  0.6737 -0.3111 -0.4267
  143OSM   H18S15743   5.547   1.385   5.057 -0.7032  2.8487 -1.2926
  143OSM   H18T15744   5.378   1.407   4.998  0.8339  0.8632  1.0779
  143OSM   H18U15745   5.452   1.246   4.977 -1.4202  0.5703 -1.8078
  143OSM    C1F15746   6.051   1.281   6.465 -0.1684  1.0212 -0.4218
  143OSM     OF15747   5.970   1.224   6.534 -0.3778 -0.4659  0.3778
  143OSM    C2F15748   6.157   1.207   6.398 -0.5617  0.8833 -0.1463
  143OSM    H2F15749   6.207   1.281   6.333  0.1692 -0.1573 -0.8019
  143OSM    H2G15750   6.112   1.131   6.331 -0.5320  0.9245 -0.2130
  143OSM    C3F15751   6.245   1.151   6.506  0.0885 -0.6220 -0.4318
  143OSM    H3F15752   6.186   1.087   6.575 -1.1585 -2.0049 -2.6934
  143OSM    H3G15753   6.293   1.233   6.565 -0.1917 -2.1971  2.1512
  143OSM    C4F15754   6.363   1.059   6.463 -0.0963  0.1955 -0.1566
  143OSM    H4F15755   6.330   1.007   6.371  2.7272  0.2667 -1.3069
  143OSM    H4G15756   6.391   0.987   6.543 -0.9309  1.8820  1.7470
  143OSM    C5F15757   6.499   1.127   6.438  0.5513 -0.4577  0.4596
  143OSM    H5F15758   6.550   1.158   6.532  0.0482  1.6103  0.1075
  143OSM    H5G15759   6.481   1.219   6.378  1.7121 -0.8711 -0.5539
  143OSM    C6F15760   6.608   1.037   6.356  0.4286  0.3535  0.0854
  143OSM    H6F15761   6.705   1.090   6.365  0.9859 -0.8274  1.5145
  143OSM    H6G15762   6.573   1.019   6.252  0.8213  2.6125 -0.4826
  143OSM    C7F15763   6.619   0.889   6.410 -0.0663  0.3174 -0.5582
  143OSM    H7F15764   6.525   0.837   6.381 -1.3769  1.9418  0.5832
  143OSM    H7G15765   6.631   0.900   6.520  0.6475  1.5310 -0.7351
  143OSM    C8F15766   6.743   0.807   6.356 -0.0744  0.0244 -0.3940
  143OSM    H8F15767   6.729   0.782   6.249 -1.4848 -0.2424 -0.1730
  143OSM    H8G15768   6.751   0.706   6.402 -0.9033 -0.0350 -0.3547
  143OSM    C9F15769   6.873   0.875   6.391  0.2023 -0.0239 -0.2904
  143OSM    H9F15770   6.863   0.920   6.491 -0.1613  0.5115 -0.5664
  143OSM   C10F15771   6.986   0.891   6.318 -0.6647 -0.5427  0.6248
  143OSM   H10F15772   7.078   0.929   6.364 -0.6349 -1.0214  0.9663
  143OSM   C11F15773   6.996   0.856   6.168  0.3663  0.2273 -0.4609
  143OSM   H11F15774   6.893   0.831   6.134 -0.8489  2.0877  1.5733
  143OSM   H11G15775   7.056   0.764   6.151  0.9636  0.4806  0.2065
  143OSM   C12F15776   7.038   0.975   6.080 -0.8378 -0.3875  0.0788
  143OSM   H12F15777   7.144   0.996   6.106 -0.6240  0.4600 -1.3334
  143OSM   H12G15778   6.977   1.064   6.107 -0.7407 -0.6512  1.1920
  143OSM   C13F15779   7.028   0.948   5.926 -0.3078 -0.3288  0.1794
  143OSM   H13F15780   7.080   0.854   5.897 -0.3676  0.5482 -3.1653
  143OSM   H13G15781   7.077   1.035   5.877 -0.5549 -1.5933 -2.4592
  143OSM   C14F15782   6.887   0.936   5.862 -0.7143 -0.3731  0.3060
  143OSM   H14F15783   6.833   1.033   5.870 -0.6463 -0.4001  1.1743
  143OSM   H14G15784   6.840   0.852   5.918 -0.9657 -0.4439 -0.0050
  143OSM   C15F15785   6.882   0.885   5.716  0.2055  0.4276 -0.4233
  143OSM   H15F15786   6.946   0.795   5.704 -0.3801  0.3241 -3.5282
  143OSM   H15G15787   6.903   0.966   5.643  1.1614  2.1130  1.5794
  143OSM   C16F15788   6.743   0.834   5.672  0.2908 -0.2209 -0.4902
  143OSM   H16F15789   6.669   0.917   5.670  0.8813  0.6637  3.8711
  143OSM   H16G15790   6.701   0.761   5.744  0.4786 -0.0454 -0.2023
  143OSM   C17F15791   6.759   0.766   5.534  0.5098  0.2830  0.1496
  143OSM   H17F15792   6.811   0.668   5.548  0.9130  0.2329 -1.5575
  143OSM   H17G15793   6.817   0.831   5.465  0.6017 -0.1457 -0.1843
  143OSM   C18F15794   6.620   0.729   5.478 -1.0435 -0.1234 -0.4536
  143OSM   H18F15795   6.629   0.694   5.372  1.2757  0.2461 -0.4354
  143OSM   H18G15796   6.560   0.823   5.486  0.3853  0.7028  1.0058
  143OSM   H18H15797   6.584   0.641   5.534  0.7899 -1.5143 -1.3616
  144OSM      N15798   6.852   6.225   7.251 -0.1029  0.4118  0.1769
  144OSM    C1515799   6.761   6.142   7.336 -0.1800 -0.3355 -0.1366
  144OSM   H15A15800   6.759   6.037   7.312  1.2580 -0.2854 -0.5615
  144OSM   H15B15801   6.670   6.199   7.352  0.7315  0.4346  3.1387
  144OSM   H15C15802   6.802   6.140   7.436  2.3192  1.0476 -1.0588
  144OSM    C1415803   6.836   6.367   7.295  0.0861  0.1850  0.2038
  144OSM   H14A15804   6.920   6.427   7.264 -0.4409  1.1316  0.5504
  144OSM   H14B15805   6.822   6.376   7.402  1.2691 -0.0946  0.4034
  144OSM   H14C15806   6.761   6.412   7.232  0.5626  1.4161  0.4848
  144OSM    C1315807   6.994   6.184   7.278  0.4417 -0.5869 -0.5444
  144OSM   H13A15808   7.011   6.204   7.383 -1.9490 -0.1138 -0.1811
  144OSM   H13B15809   7.073   6.229   7.220  0.1174  0.6259 -0.0664
  144OSM   H13C15810   7.010   6.080   7.256 -0.4110 -0.9654  0.5247
  144OSM    C1215811   6.816   6.217   7.101  0.3690 -0.2095 -0.4657
  144OSM   H12A15812   6.852   6.130   7.049  1.8132  1.4613 -2.4093
  144OSM   H12B15813   6.866   6.296   7.047  0.3588 -0.3101 -0.6222
  144OSM    C1115814   6.671   6.212   7.055 -0.4980  0.3486  0.1847
  144OSM   H11A15815   6.632   6.114   7.090  1.5041  0.4797  3.0749
  144OSM   H11B15816   6.672   6.211   6.944 -0.3086 -0.7014  0.1859
  144OSM      P15817   6.450   6.320   7.157 -0.1704  0.1480 -0.1879
  144OSM    O1315818   6.421   6.186   7.212 -0.0243 -0.5467 -0.0422
  144OSM    O1415819   6.415   6.428   7.258  0.6218  1.1190  0.0249
  144OSM    O1115820   6.359   6.336   7.026  0.2665 -0.2525  1.2324
  144OSM    O1215821   6.599   6.329   7.095  0.2657 -0.4470 -0.4689
  144OSM    C1S15822   6.378   6.255   6.910 -0.1552  0.0834  0.3130
  144OSM    H1S15823   6.436   6.162   6.933 -0.4420 -0.3498 -0.6890
  144OSM    H1T15824   6.423   6.311   6.825 -2.1675 -0.1667 -0.9658
  144OSM     NF15825   6.269   6.175   6.703 -0.1421 -0.1542  0.1730
  144OSM    HNF15826   6.225   6.232   6.634  0.3481  0.2331  0.1732
  144OSM    C2S15827   6.244   6.213   6.839 -0.0728  1.0190 -0.2874
  144OSM    H2S15828   6.215   6.119   6.891  0.7738  1.0901  0.3437
  144OSM    C3S15829   6.135   6.316   6.860  0.6430 -0.9216 -0.2738
  144OSM    H3S15830   6.154   6.419   6.824 -2.1017 -0.0445  0.5394
  144OSM     O315831   6.106   6.331   7.002  0.4469  0.3886  0.4344
  144OSM    HO315832   6.173   6.276   7.042  2.1154 -0.2277 -2.9000
  144OSM    C4S15833   6.010   6.274   6.788  0.4517 -0.0533  0.0006
  144OSM    H4S15834   5.961   6.188   6.836 -0.6620  1.7573  2.3338
  144OSM    C5S15835   5.953   6.336   6.688 -0.0667  0.1750 -0.3120
  144OSM    H5S15836   6.002   6.429   6.654  2.3293 -0.6765  0.6182
  144OSM    C6S15837   5.829   6.295   6.617  0.1736 -0.0025  0.6595
  144OSM    H6S15838   5.744   6.360   6.647  0.1779 -0.3901  1.5453
  144OSM    H6T15839   5.799   6.196   6.657 -1.0822  0.0341 -0.1431
  144OSM    C7S15840   5.842   6.284   6.461  0.5123 -0.2012  0.1364
  144OSM    H7S15841   5.926   6.215   6.439  0.9781  0.4187 -0.0909
  144OSM    H7T15842   5.876   6.380   6.415 -1.0388  0.8755  1.1300
  144OSM    C8S15843   5.721   6.253   6.373  0.8084  0.7434  0.5643
  144OSM    H8S15844   5.669   6.350   6.361 -1.9487 -0.8232 -1.3328
  144OSM    H8T15845   5.656   6.179   6.425  2.6393 -1.7419 -0.4716
  144OSM    C9S15846   5.756   6.208   6.227 -0.4162  0.3327 -0.0105
  144OSM    H9S15847   5.830   6.127   6.247 -0.9125  0.0614  0.7632
  144OSM    H9T15848   5.810   6.292   6.178  1.0871 -0.4684  0.2302
  144OSM   C10S15849   5.649   6.138   6.145  0.0283  0.0378 -0.2613
  144OSM   H10S15850   5.599   6.057   6.202 -4.2107  2.9469  0.6721
  144OSM   H10T15851   5.695   6.097   6.053  0.0881 -1.4419  0.4008
  144OSM   C11S15852   5.543   6.236   6.105 -0.0653  0.3800 -0.3941
  144OSM   H11S15853   5.514   6.302   6.189  0.7907 -0.2665  0.4296
  144OSM   H11T15854   5.451   6.178   6.083  1.9739 -2.8631 -1.0725
  144OSM   C12S15855   5.570   6.315   5.973  0.0117 -0.2172  0.4473
  144OSM   H12S15856   5.665   6.372   5.975 -1.0021  1.5090  1.4413
  144OSM   H12T15857   5.493   6.394   5.964  0.2262 -0.0139  0.3964
  144OSM   C13S15858   5.555   6.242   5.839  0.2628  0.2534 -0.7952
  144OSM   H13S15859   5.465   6.177   5.852  1.3261 -1.0662  0.2849
  144OSM   H13T15860   5.648   6.185   5.820 -0.4196 -1.4686  0.6441
  144OSM   C14S15861   5.540   6.323   5.710  0.2021  0.7642  0.2135
  144OSM   H14S15862   5.608   6.411   5.703  1.8826 -0.5491 -0.6442
  144OSM   H14T15863   5.438   6.366   5.723  0.9341  1.9976  2.3878
  144OSM   C15S15864   5.548   6.233   5.585  0.0362  0.8995 -0.4546
  144OSM   H15S15865   5.488   6.141   5.604 -0.9189  1.9801  2.2179
  144OSM   H15T15866   5.657   6.220   5.573  0.0149 -0.9568  0.9269
  144OSM   C16S15867   5.487   6.301   5.461 -0.5365 -0.0639  0.3512
  144OSM   H16S15868   5.525   6.258   5.366 -1.6787  0.7710 -0.5168
  144OSM   H16T15869   5.509   6.409   5.458 -0.3023 -0.0550 -3.9716
  144OSM   C17S15870   5.340   6.280   5.462  0.3587 -0.4059  0.4532
  144OSM   H17S15871   5.298   6.323   5.555  0.1008 -0.1635  0.2261
  144OSM   H17T15872   5.312   6.172   5.467 -0.4806 -0.1277  3.0062
  144OSM   C18S15873   5.272   6.344   5.345  0.4202  0.5345 -0.2831
  144OSM   H18S15874   5.319   6.310   5.250 -1.9711 -3.6074 -0.2180
  144OSM   H18T15875   5.276   6.455   5.347  0.3847  0.5939 -1.9101
  144OSM   H18U15876   5.168   6.307   5.334  1.2037 -1.3838 -1.8118
  144OSM    C1F15877   6.337   6.073   6.660 -0.5167  0.3875 -0.0563
  144OSM     OF15878   6.389   5.993   6.738  0.0410  0.2874  0.2431
  144OSM    C2F15879   6.351   6.061   6.514  0.2691  0.1703  0.0377
  144OSM    H2F15880   6.397   6.154   6.473  0.5587 -0.0123 -0.0564
  144OSM    H2G15881   6.249   6.061   6.470 -0.5038  0.3280  1.7577
  144OSM    C3F15882   6.433   5.941   6.469  0.2711 -0.9879 -0.4188
  144OSM    H3F15883   6.385   5.850   6.511  0.6258 -1.0382 -0.1150
  144OSM    H3G15884   6.533   5.943   6.518 -0.9066  1.8175  2.1720
  144OSM    C4F15885   6.457   5.938   6.319 -0.5577  0.2914 -0.2119
  144OSM    H4F15886   6.464   6.046   6.294 -1.4506  0.0782 -1.4751
  144OSM    H4G15887   6.369   5.905   6.261 -1.0100  0.8015  0.1809
  144OSM    C5F15888   6.583   5.864   6.270 -0.3584 -1.0555 -0.2114
  144OSM    H5F15889   6.567   5.755   6.278 -1.9423 -0.8973 -0.7992
  144OSM    H5G15890   6.669   5.889   6.335 -0.1287 -1.4049 -0.3809
  144OSM    C6F15891   6.619   5.908   6.126 -0.2364  0.0871 -0.0651
  144OSM    H6F15892   6.711   5.856   6.091 -1.3076 -1.8307 -0.1659
  144OSM    H6G15893   6.632   6.019   6.119 -0.0250  0.0800  0.2066
  144OSM    C7F15894   6.510   5.866   6.030 -0.7329 -0.3570 -0.3899
  144OSM    H7F15895   6.419   5.922   6.061 -1.2053  0.7014 -3.4009
  144OSM    H7G15896   6.484   5.759   6.042 -0.9042 -0.1667  1.1263
  144OSM    C8F15897   6.540   5.904   5.889  0.3036  0.0780  0.3177
  144OSM    H8F15898   6.459   5.862   5.826 -0.7070  2.5224 -0.1153
  144OSM    H8G15899   6.633   5.858   5.849  1.1206 -0.3456  2.5447
  144OSM    C9F15900   6.542   6.052   5.867 -0.1004 -0.5297 -0.6284
  144OSM    H9F15901   6.448   6.104   5.891 -0.8566 -1.4578 -1.4939
  144OSM   C10F15902   6.632   6.134   5.808 -0.2471  0.2760 -0.6392
  144OSM   H10F15903   6.605   6.240   5.799  2.2005  0.9995 -0.0452
  144OSM   C11F15904   6.758   6.093   5.745  0.6569 -0.9869 -0.1692
  144OSM   H11F15905   6.753   5.984   5.723 -0.5965 -0.9927  0.0389
  144OSM   H11G15906   6.838   6.103   5.821  0.8171  1.9534 -0.6319
  144OSM   C12F15907   6.796   6.175   5.624  1.1349  0.4928 -0.1619
  144OSM   H12F15908   6.715   6.171   5.548 -0.6865 -3.9649  1.6480
  144OSM   H12G15909   6.886   6.126   5.581  0.0112 -1.5830 -0.2742
  144OSM   C13F15910   6.849   6.314   5.649  0.0132 -0.3282  0.2781
  144OSM   H13F15911   6.926   6.305   5.728 -1.0763 -0.9825  1.2898
  144OSM   H13G15912   6.767   6.370   5.698 -0.3395 -0.6069  0.0133
  144OSM   C14F15913   6.918   6.391   5.533 -0.0341 -0.0995 -0.2198
  144OSM   H14F15914   6.990   6.326   5.479 -0.5154  0.6078 -1.7730
  144OSM   H14G15915   6.976   6.474   5.579  0.3663 -0.0107 -0.8643
  144OSM   C15F15916   6.814   6.444   5.429  0.3274 -0.4926  0.6832
  144OSM   H15F15917   6.762   6.356   5.385 -0.4361  0.8544 -1.2350
  144OSM   H15G15918   6.865   6.493   5.344 -0.3185 -1.0434 -0.0328
  144OSM   C16F15919   6.720   6.551   5.495 -0.5813 -0.2148  0.3191
  144OSM   H16F15920   6.782   6.616   5.561 -0.2399 -1.4049  1.2113
  144OSM   H16G15921   6.650   6.500   5.565  0.7970 -1.5114  0.8019
  144OSM   C17F15922   6.642   6.638   5.389  0.1870 -0.1964  0.3300
  144OSM   H17F15923   6.596   6.567   5.317 -0.0952  2.2140 -2.0327
  144OSM   H17G15924   6.709   6.703   5.329  2.9094 -1.4624  1.8052
  144OSM   C18F15925   6.546   6.727   5.453  0.4870  0.3757  0.1552
  144OSM   H18F15926   6.473   6.777   5.386 -1.6163 -1.4235  0.9581
  144OSM   H18G15927   6.588   6.806   5.519 -2.2746 -0.5851  3.3563
  144OSM   H18H15928   6.489   6.675   5.533  2.2968  1.5686  2.3425
  145OSM      N15929   0.733   6.300   7.208  1.2493 -0.3532 -0.1208
  145OSM    C1515930   0.672   6.170   7.229 -0.4127 -0.2501 -0.5965
  145OSM   H15A15931   0.619   6.138   7.141  1.0353  0.0651 -1.6204
  145OSM   H15B15932   0.594   6.163   7.304 -1.8591 -3.8129 -2.2400
  145OSM   H15C15933   0.751   6.099   7.246  1.7499  1.9887 -0.5945
  145OSM    C1415934   0.836   6.329   7.309  0.1683  0.0679  0.1623
  145OSM   H14A15935   0.801   6.325   7.411 -3.0551  0.4946 -0.7883
  145OSM   H14B15936   0.877   6.428   7.300  0.9438 -0.3408 -1.0809
  145OSM   H14C15937   0.924   6.268   7.293  0.0318  0.3338 -1.9572
  145OSM    C1315938   0.809   6.293   7.081  0.9876 -0.7713 -0.9434
  145OSM   H13A15939   0.866   6.384   7.073 -0.8902  0.8197  2.1710
  145OSM   H13B15940   0.735   6.292   7.002 -1.7393  1.8801  1.3455
  145OSM   H13C15941   0.873   6.206   7.075 -0.0971 -1.7885  1.3118
  145OSM    C1215942   0.611   6.396   7.198 -1.2930  0.1875  0.6896
  145OSM   H12A15943   0.648   6.497   7.214 -1.3941  0.7856 -2.2217
  145OSM   H12B15944   0.542   6.380   7.279 -1.6816  0.3435  0.3955
  145OSM    C1115945   0.525   6.397   7.071  0.4750  0.5136  0.4765
  145OSM   H11A15946   0.580   6.432   6.981 -0.3227 -0.3486 -0.3829
  145OSM   H11B15947   0.450   6.476   7.096  0.7247  1.4132 -1.4476
  145OSM      P15948   0.307   6.263   7.058 -0.0678 -0.3414 -0.3803
  145OSM    O1315949   0.254   6.136   7.006 -0.0162 -0.6527 -0.6978
  145OSM    O1415950   0.276   6.304   7.197  0.4484  0.1750 -0.4861
  145OSM    O1115951   0.243   6.381   6.968  0.7245 -1.4892  0.3380
  145OSM    O1215952   0.465   6.273   7.033 -0.3304  0.2352 -0.7186
  145OSM    C1S15953   0.295   6.399   6.831  0.2186  0.6349 -0.4457
  145OSM    H1S15954   0.404   6.380   6.819 -0.2352 -1.0802 -2.4337
  145OSM    H1T15955   0.278   6.502   6.794  1.1845  1.0300  0.1660
  145OSM     NF15956   0.258   6.316   6.602 -0.7941 -0.0735  0.1154
  145OSM    HNF15957   0.196   6.374   6.549 -0.2819  0.3761  0.0034
  145OSM    C2S15958   0.215   6.301   6.739  0.7265  0.9850 -0.1002
  145OSM    H2S15959   0.247   6.199   6.768 -0.4073  0.7931  0.5313
  145OSM    C3S15960   0.060   6.318   6.753  0.2933 -0.0232  0.1335
  145OSM    H3S15961   0.020   6.419   6.731  0.2187 -0.4282 -1.7057
  145OSM     O315962   0.002   6.294   6.884 -0.6303  0.1853  0.2897
  145OSM    HO315963   0.082   6.307   6.935  0.0671 -0.1029 -0.7035
  145OSM    C4S15964  -0.009   6.226   6.650  0.5498  0.2225  0.3781
  145OSM    H4S15965   0.027   6.126   6.678 -1.1310 -0.6610 -0.4635
  145OSM    C5S15966  -0.097   6.255   6.546 -0.4872 -0.5849  0.6402
  145OSM    H5S15967  -0.112   6.361   6.520  0.0546  0.3165  3.5503
  145OSM    C6S15968  -0.166   6.160   6.448  0.3534 -0.1932  0.2750
  145OSM    H6S15969  -0.273   6.187   6.434  0.6056  0.3229 -0.8077
  145OSM    H6T15970  -0.167   6.055   6.483 -0.6243  0.1825  1.4455
  145OSM    C7S15971  -0.109   6.156   6.304  0.1113 -0.2484  0.4537
  145OSM    H7S15972  -0.127   6.248   6.245  0.7907 -0.6108 -0.3408
  145OSM    H7T15973  -0.163   6.069   6.260 -1.8618  1.6143 -1.0005
  145OSM    C8S15974   0.040   6.108   6.316 -0.0357 -0.6034 -0.2397
  145OSM    H8S15975   0.057   6.028   6.391 -0.2593 -1.4786 -1.0976
  145OSM    H8T15976   0.101   6.196   6.344 -1.4423  0.2020  0.4159
  145OSM    C9S15977   0.091   6.040   6.188 -0.5487 -0.8539  0.0480
  145OSM    H9S15978   0.016   5.964   6.157 -0.8172 -1.1096  1.2332
  145OSM    H9T15979   0.187   5.987   6.208 -0.0761 -0.5415 -1.3384
  145OSM   C10S15980   0.124   6.145   6.084 -0.7847  0.5904  0.0957
  145OSM   H10S15981   0.207   6.209   6.120  1.0039 -1.6664  0.2258
  145OSM   H10T15982   0.041   6.215   6.063 -0.8339  0.0494 -1.6400
  145OSM   C11S15983   0.150   6.089   5.943  0.0174 -0.0212 -0.7820
  145OSM   H11S15984   0.055   6.074   5.888  0.9844  1.1385 -2.8974
  145OSM   H11T15985   0.209   5.994   5.948 -1.3003 -1.1245 -3.7277
  145OSM   C12S15986   0.236   6.187   5.858  0.0761  0.3363 -0.4598
  145OSM   H12S15987   0.339   6.194   5.899  0.4377 -1.0089 -1.0730
  145OSM   H12T15988   0.178   6.281   5.852  0.6671  0.6331 -1.7489
  145OSM   C13S15989   0.247   6.135   5.714 -0.5116  0.8866  0.0219
  145OSM   H13S15990   0.148   6.092   5.686 -0.8966  1.6687  0.1319
  145OSM   H13T15991   0.325   6.056   5.720  0.4241  1.7720 -0.2283
  145OSM   C14S15992   0.281   6.234   5.604 -0.1631 -0.0085  0.2735
  145OSM   H14S15993   0.383   6.276   5.621  0.3646 -1.3410  0.5048
  145OSM   H14T15994   0.210   6.320   5.610  0.3348  0.5638 -1.3309
  145OSM   C15S15995   0.263   6.173   5.461 -0.4872 -0.1051 -0.5101
  145OSM   H15S15996   0.228   6.260   5.402 -0.0380 -0.5657 -1.4804
  145OSM   H15T15997   0.173   6.111   5.479 -2.1454  1.5219 -2.6180
  145OSM   C16S15998   0.377   6.100   5.395 -0.0991 -0.0060  0.4397
  145OSM   H16S15999   0.387   6.004   5.451  1.6032  0.3741  0.8542
  145OSM   H16T16000   0.476   6.147   5.412  0.0876 -0.4487  0.6032
  145OSM   C17S16001   0.348   6.050   5.247 -0.5613 -0.0569  0.2413
  145OSM   H17S16002   0.250   5.997   5.248 -2.1729  2.5716 -1.6855
  145OSM   H17T16003   0.416   5.970   5.212  1.0807  1.1502  0.5742
  145OSM   C18S16004   0.338   6.153   5.134 -0.9172 -0.5655  0.6721
  145OSM   H18S16005   0.429   6.216   5.136 -0.6185 -0.9600 -0.0116
  145OSM   H18T16006   0.257   6.226   5.155 -0.0945 -0.0902  2.2885
  145OSM   H18U16007   0.318   6.112   5.032 -0.5253  2.4808 -0.7520
  145OSM    C1F16008   0.380   6.286   6.549  0.7457 -0.1213 -0.7931
  145OSM     OF16009   0.449   6.211   6.623 -0.2494 -0.3162  0.1613
  145OSM    C2F16010   0.414   6.344   6.415 -1.4797  0.5538 -0.4275
  145OSM    H2F16011   0.401   6.453   6.405  1.0847  0.7176 -4.0851
  145OSM    H2G16012   0.345   6.300   6.339  0.7311 -2.6398 -0.8028
  145OSM    C3F16013   0.558   6.311   6.372 -0.3842 -0.3127 -0.4555
  145OSM    H3F16014   0.580   6.202   6.368 -0.8452 -0.4746  0.8561
  145OSM    H3G16015   0.626   6.345   6.453 -1.3683  1.1942 -0.2228
  145OSM    C4F16016   0.587   6.372   6.240 -0.4691  0.4934  0.4052
  145OSM    H4F16017   0.684   6.426   6.232  0.2112 -0.7148  0.3039
  145OSM    H4G16018   0.524   6.463   6.227  0.3402  1.2670  1.6463
  145OSM    C5F16019   0.575   6.273   6.115  0.0727 -0.4159 -0.2417
  145OSM    H5F16020   0.470   6.239   6.099 -0.1720  0.3697 -0.3168
  145OSM    H5G16021   0.643   6.187   6.133 -1.4244 -1.5492  0.3132
  145OSM    C6F16022   0.610   6.345   5.981 -0.4762 -0.0239 -0.0796
  145OSM    H6F16023   0.577   6.451   5.988  2.4316  0.8985  0.8911
  145OSM    H6G16024   0.556   6.298   5.896  2.5085 -2.1291 -0.9744
  145OSM    C7F16025   0.759   6.341   5.949 -0.2449 -0.1671  0.4421
  145OSM    H7F16026   0.789   6.239   5.981 -0.7522 -0.3188  0.4338
  145OSM    H7G16027   0.804   6.419   6.014  0.5517  0.2919 -0.6341
  145OSM    C8F16028   0.794   6.362   5.796 -0.1742 -0.4648  0.7308
  145OSM    H8F16029   0.732   6.300   5.728  0.6812  1.3045 -1.8100
  145OSM    H8G16030   0.896   6.318   5.794 -0.3574 -1.0399  2.4494
  145OSM    C9F16031   0.795   6.509   5.759  0.2398 -0.5343  0.1592
  145OSM    H9F16032   0.836   6.582   5.830  0.4498 -0.6054  0.1131
  145OSM   C10F16033   0.736   6.558   5.644 -0.3792  0.0949  0.5217
  145OSM   H10F16034   0.742   6.666   5.626  0.0719 -0.3081 -2.0331
  145OSM   C11F16035   0.670   6.477   5.540  0.6416  0.1592 -0.2219
  145OSM   H11F16036   0.603   6.529   5.468  1.8669 -0.3229 -1.7615
  145OSM   H11G16037   0.613   6.402   5.599  0.6920  0.9311  0.8550
  145OSM   C12F16038   0.788   6.424   5.462  0.2552  0.6019  0.3361
  145OSM   H12F16039   0.842   6.359   5.534 -0.8018  1.6450  2.1544
  145OSM   H12G16040   0.857   6.497   5.415  1.1016 -0.4149 -0.0332
  145OSM   C13F16041   0.746   6.338   5.338  0.0246  0.0626  0.2908
  145OSM   H13F16042   0.674   6.256   5.360 -2.3537  1.6037 -1.2065
  145OSM   H13G16043   0.830   6.282   5.292 -2.1629 -2.1908 -1.2219
  145OSM   C14F16044   0.684   6.417   5.225  0.0423  0.6159  0.4803
  145OSM   H14F16045   0.716   6.523   5.217  3.5204 -0.3566  0.0392
  145OSM   H14G16046   0.573   6.423   5.236  0.2411  1.6776  2.3611
  145OSM   C15F16047   0.722   6.343   5.096 -0.1641 -0.1546 -0.5029
  145OSM   H15F16048   0.697   6.236   5.113 -3.3551  0.3660 -1.2298
  145OSM   H15G16049   0.831   6.359   5.089 -0.2188 -0.3504 -2.4366
  145OSM   C16F16050   0.657   6.396   4.966 -0.1541 -0.3448 -0.3879
  145OSM   H16F16051   0.678   6.504   4.954 -0.8730  0.6430  4.8100
  145OSM   H16G16052   0.546   6.391   4.970 -0.2416  1.0951 -0.4572
  145OSM   C17F16053   0.701   6.313   4.844 -0.2423  0.2369 -0.4860
  145OSM   H17F16054   0.681   6.208   4.875  0.8875 -0.2119 -1.2050
  145OSM   H17G16055   0.808   6.335   4.821 -0.3584 -1.1962 -2.6418
  145OSM   C18F16056   0.621   6.349   4.715 -0.2576  0.5741 -0.2848
  145OSM   H18F16057   0.638   6.262   4.648  0.6224  0.3942  0.1599
  145OSM   H18G16058   0.655   6.441   4.664 -0.4922  1.4044  0.9997
  145OSM   H18H16059   0.511   6.356   4.732 -0.3112 -3.8001  3.0355
  146OSM      N16060   4.297   5.430   7.285 -0.1683 -0.3487  0.0080
  146OSM    C1516061   4.200   5.352   7.200 -0.1216  0.5562  0.3231
  146OSM   H15A16062   4.245   5.267   7.150  0.8594  0.6290  1.0579
  146OSM   H15B16063   4.156   5.397   7.113  0.8668 -1.3108 -1.2189
  146OSM   H15C16064   4.118   5.311   7.258  0.9085 -0.8165  0.8718
  146OSM    C1416065   4.207   5.512   7.365  0.0063  0.1011 -0.8634
  146OSM   H14A16066   4.151   5.453   7.436  1.6930 -0.7722 -0.2059
  146OSM   H14B16067   4.142   5.582   7.314  0.0505  1.2711  0.6378
  146OSM   H14C16068   4.271   5.565   7.433 -0.5584 -1.6571  1.1297
  146OSM    C1316069   4.388   5.341   7.353  0.3625  0.6932  0.1606
  146OSM   H13A16070   4.453   5.391   7.425  0.4062  0.4332  0.3017
  146OSM   H13B16071   4.452   5.281   7.291 -1.4909 -2.1020  0.7795
  146OSM   H13C16072   4.334   5.261   7.402 -0.5376  2.3830  2.1016
  146OSM    C1216073   4.384   5.520   7.196 -0.4597  0.1902  0.5638
  146OSM   H12A16074   4.308   5.579   7.147 -0.0699  0.5647  0.4083
  146OSM   H12B16075   4.430   5.454   7.123 -0.4970 -0.6048  1.2421
  146OSM    C1116076   4.508   5.597   7.258 -0.0307  0.4354 -0.0896
  146OSM   H11A16077   4.559   5.661   7.182  0.7244  1.2124  1.0467
  146OSM   H11B16078   4.594   5.536   7.293  1.8628  3.0425  0.1819
  146OSM      P16079   4.418   5.828   7.372 -0.2925  0.8103 -0.4294
  146OSM    O1316080   4.289   5.833   7.440  0.5861  0.1552  0.0430
  146OSM    O1416081   4.524   5.905   7.441  0.4173  0.5038  0.1756
  146OSM    O1116082   4.400   5.862   7.216  0.0133 -0.4945  0.0058
  146OSM    O1216083   4.475   5.676   7.379  0.2031  0.3641  0.6439
  146OSM    C1S16084   4.498   5.960   7.163  0.0483  0.1912  0.3362
  146OSM    H1S16085   4.597   5.942   7.211 -0.0950 -1.8719 -0.0628
  146OSM    H1T16086   4.469   6.067   7.173  1.6815  0.5714  1.6840
  146OSM     NF16087   4.638   6.005   6.963  0.2691 -0.3718 -0.2390
  146OSM    HNF16088   4.618   6.084   6.905 -0.9611 -2.4216 -2.7781
  146OSM    C2S16089   4.514   5.941   7.006 -0.1976 -0.4136 -0.2306
  146OSM    H2S16090   4.543   5.835   6.994 -0.7209 -0.5824 -0.0208
  146OSM    C3S16091   4.385   5.980   6.927  0.2927 -0.1237 -0.7579
  146OSM    H3S16092   4.373   6.088   6.949 -2.7931 -0.9104  2.2308
  146OSM     O316093   4.269   5.923   6.990  0.1252 -0.0720 -0.2206
  146OSM    HO316094   4.292   5.913   7.082 -0.1832 -2.5722 -0.3341
  146OSM    C4S16095   4.400   5.948   6.782  0.0618 -0.8099  0.0424
  146OSM    H4S16096   4.446   6.034   6.729  0.1876 -0.1670  1.1634
  146OSM    C5S16097   4.350   5.844   6.702 -0.4336  0.4015 -0.4600
  146OSM    H5S16098   4.298   5.765   6.759  2.5656 -2.5883 -1.5077
  146OSM    C6S16099   4.341   5.836   6.553 -0.1766 -0.4634 -0.6447
  146OSM    H6S16100   4.238   5.852   6.514 -0.1021 -1.6756 -1.3878
  146OSM    H6T16101   4.377   5.736   6.524 -0.0065 -0.7275  0.4426
  146OSM    C7S16102   4.422   5.950   6.485  0.2534  0.7853 -0.3922
  146OSM    H7S16103   4.523   5.975   6.526  0.3456 -2.4266  1.6328
  146OSM    H7T16104   4.364   6.043   6.499 -3.2803 -0.8206 -2.8840
  146OSM    C8S16105   4.426   5.938   6.329  0.1048  0.3798  0.9585
  146OSM    H8S16106   4.471   5.837   6.314 -1.3532 -0.4386  1.8203
  146OSM    H8T16107   4.469   6.023   6.272 -2.2619  1.2710  0.4020
  146OSM    C9S16108   4.285   5.929   6.259 -0.7537 -0.1605  0.6375
  146OSM    H9S16109   4.241   6.029   6.241 -0.0115 -0.1011 -0.9968
  146OSM    H9T16110   4.215   5.885   6.333 -0.6817 -2.2216 -0.4461
  146OSM   C10S16111   4.264   5.834   6.135  0.1815 -0.2127 -0.4680
  146OSM   H10S16112   4.157   5.812   6.113  0.6469 -1.2893 -1.8155
  146OSM   H10T16113   4.338   5.751   6.141 -0.5254 -1.1231 -3.0922
  146OSM   C11S16114   4.310   5.897   6.003  0.0611 -0.6078  0.0891
  146OSM   H11S16115   4.404   5.951   6.024 -1.3317  2.2052 -0.3801
  146OSM   H11T16116   4.248   5.985   5.974  1.0753  0.0556 -0.1341
  146OSM   C12S16117   4.315   5.802   5.879 -0.7634  0.5763  0.1033
  146OSM   H12S16118   4.219   5.746   5.882  0.9229 -2.4576  2.7396
  146OSM   H12T16119   4.399   5.735   5.905 -1.7049 -0.5493  0.3365
  146OSM   C13S16120   4.343   5.868   5.748 -0.6031  0.2465  0.5558
  146OSM   H13S16121   4.423   5.945   5.747  0.1439 -0.5171 -0.9926
  146OSM   H13T16122   4.249   5.919   5.717  0.0591  0.2215 -1.6453
  146OSM   C14S16123   4.374   5.764   5.639 -0.3111 -0.4099 -0.0898
  146OSM   H14S16124   4.283   5.713   5.601  0.7098 -2.2192 -0.2261
  146OSM   H14T16125   4.463   5.701   5.662 -0.9715 -1.2103  0.3196
  146OSM   C15S16126   4.414   5.837   5.500  0.1345 -0.2020  0.2229
  146OSM   H15S16127   4.467   5.761   5.440 -2.4991 -1.5268 -0.5792
  146OSM   H15T16128   4.479   5.924   5.525  0.5771 -0.5460  0.2768
  146OSM   C16S16129   4.295   5.890   5.421  0.0434 -0.4724 -0.4400
  146OSM   H16S16130   4.233   5.954   5.486  0.3473 -0.1487 -0.4635
  146OSM   H16T16131   4.223   5.808   5.402  0.1461 -0.8055  0.5797
  146OSM   C17S16132   4.321   5.979   5.295 -0.4884  0.1182  0.0726
  146OSM   H17S16133   4.380   6.068   5.326  0.6813 -0.6953  0.2619
  146OSM   H17T16134   4.222   6.019   5.265 -0.6040  0.2128  0.5837
  146OSM   C18S16135   4.374   5.920   5.169 -0.4165  0.4034  0.2127
  146OSM   H18S16136   4.476   5.881   5.187  0.6376  3.0799  0.3702
  146OSM   H18T16137   4.374   5.982   5.077 -1.7187 -0.0115 -0.0949
  146OSM   H18U16138   4.309   5.835   5.136 -0.0936  0.6339 -1.0532
  146OSM    C1F16139   4.763   5.978   7.004 -0.4557  0.5736 -0.3377
  146OSM     OF16140   4.778   5.877   7.076  0.0916  0.0462 -0.7036
  146OSM    C2F16141   4.870   6.073   6.966 -0.8217 -0.1192  0.0288
  146OSM    H2F16142   4.961   6.012   6.951 -0.2921  0.5978  0.2846
  146OSM    H2G16143   4.897   6.147   7.045  1.8586  0.4290 -1.2929
  146OSM    C3F16144   4.852   6.166   6.845 -0.4502  0.1497  0.4938
  146OSM    H3F16145   4.931   6.243   6.844  0.2245 -0.5193 -1.5075
  146OSM    H3G16146   4.754   6.218   6.842 -0.2084  0.5569 -2.1868
  146OSM    C4F16147   4.879   6.092   6.712  0.1335 -0.6434  0.0567
  146OSM    H4F16148   4.983   6.052   6.705  0.7606  1.1770 -4.2351
  146OSM    H4G16149   4.883   6.164   6.627 -0.4701 -0.9293 -0.2128
  146OSM    C5F16150   4.782   5.985   6.672 -0.1686 -0.2345  0.6200
  146OSM    H5F16151   4.683   6.035   6.670  0.1336  0.3380 -0.8199
  146OSM    H5G16152   4.770   5.899   6.741  0.8949  1.1596  2.6457
  146OSM    C6F16153   4.817   5.923   6.533  0.7404  0.9209  0.4943
  146OSM    H6F16154   4.740   5.847   6.508  0.7219  0.8814  0.6736
  146OSM    H6G16155   4.909   5.862   6.544  0.9295  1.1153  0.0350
  146OSM    C7F16156   4.829   6.023   6.420  0.6829  0.3062  0.2529
  146OSM    H7F16157   4.911   6.093   6.446  0.0556  0.4601  1.9350
  146OSM    H7G16158   4.736   6.082   6.414  0.6483  0.2973  0.6494
  146OSM    C8F16159   4.852   5.961   6.284 -0.0145 -0.3635  0.5145
  146OSM    H8F16160   4.759   5.914   6.245  0.8088 -1.0067 -0.7301
  146OSM    H8G16161   4.932   5.886   6.300  1.6555  1.6766  2.4551
  146OSM    C9F16162   4.904   6.070   6.188 -0.3948  0.2946 -0.3637
  146OSM    H9F16163   4.949   6.157   6.237 -0.8745  0.3911 -0.0892
  146OSM   C10F16164   4.909   6.055   6.053 -0.2214  0.3665 -0.7148
  146OSM   H10F16165   4.929   6.144   5.992 -1.5600  1.1441 -0.0721
  146OSM   C11F16166   4.853   5.940   5.982 -0.7065  0.3534  0.1930
  146OSM   H11F16167   4.805   5.861   6.044 -0.5338  0.9509  1.1031
  146OSM   H11G16168   4.930   5.900   5.914 -1.9587 -0.2889 -0.8907
  146OSM   C12F16169   4.729   5.978   5.886 -0.4332 -0.1082 -0.1301
  146OSM   H12F16170   4.641   5.998   5.950 -2.0361 -1.3903 -1.8201
  146OSM   H12G16171   4.719   5.888   5.821 -0.8952  0.0901 -0.3415
  146OSM   C13F16172   4.767   6.099   5.794  0.3148 -0.3115  0.2640
  146OSM   H13F16173   4.859   6.090   5.733  0.8726  5.1414 -0.2677
  146OSM   H13G16174   4.778   6.191   5.855 -0.0199  0.5625 -0.9481
  146OSM   C14F16175   4.659   6.123   5.688  0.0522 -0.1883  0.8713
  146OSM   H14F16176   4.639   6.030   5.631  0.1669 -0.5396  1.3973
  146OSM   H14G16177   4.564   6.141   5.742 -0.3296  1.2810 -0.2246
  146OSM   C15F16178   4.675   6.243   5.598 -0.0417 -0.1175  0.5559
  146OSM   H15F16179   4.753   6.234   5.519 -1.4075  0.5179 -0.9328
  146OSM   H15G16180   4.703   6.330   5.661  0.3670 -0.0507  0.2869
  146OSM   C16F16181   4.545   6.294   5.523 -0.6757 -0.3358  0.8766
  146OSM   H16F16182   4.487   6.325   5.613  0.3178 -2.3479  2.2918
  146OSM   H16G16183   4.497   6.205   5.478  0.8777 -0.3287 -0.9166
  146OSM   C17F16184   4.562   6.406   5.424 -0.2410  0.1784  0.6418
  146OSM   H17F16185   4.631   6.368   5.345 -1.0556 -0.0492  0.0281
  146OSM   H17G16186   4.603   6.492   5.482  0.2659  0.3591  0.0363
  146OSM   C18F16187   4.433   6.457   5.354 -0.0421 -0.1077 -0.2766
  146OSM   H18F16188   4.345   6.463   5.421 -0.2722 -1.4898 -0.4294
  146OSM   H18G16189   4.405   6.378   5.282 -1.6512  0.1051  0.0848
  146OSM   H18H16190   4.458   6.554   5.306  1.9863  0.8079  2.3550
  147OSM      N16191   2.644   0.820   2.471  0.1402 -0.2535 -0.0083
  147OSM    C1516192   2.748   0.787   2.376  0.5600  0.5440  0.0296
  147OSM   H15A16193   2.727   0.831   2.279 -1.4339 -1.6748 -0.6643
  147OSM   H15B16194   2.740   0.681   2.353  1.1020  0.6389 -0.6105
  147OSM   H15C16195   2.846   0.815   2.411  1.1174  0.9900 -1.7935
  147OSM    C1416196   2.508   0.800   2.408 -0.0145  0.1607 -0.0466
  147OSM   H14A16197   2.486   0.867   2.326 -1.1021 -1.0136 -0.7554
  147OSM   H14B16198   2.427   0.801   2.479  1.3898  1.3097  1.6215
  147OSM   H14C16199   2.504   0.702   2.363  0.6761 -0.7273  1.7278
  147OSM    C1316200   2.656   0.738   2.590  0.5034  1.1479 -0.1960
  147OSM   H13A16201   2.758   0.734   2.627  0.4020 -0.5628 -0.0293
  147OSM   H13B16202   2.623   0.637   2.572 -2.7968  1.3745  3.4042
  147OSM   H13C16203   2.590   0.782   2.662 -1.4946 -1.6479 -0.1523
  147OSM    C1216204   2.641   0.966   2.515 -0.6669 -0.0889  0.2243
  147OSM   H12A16205   2.541   0.974   2.556 -1.3919 -0.0961 -1.4765
  147OSM   H12B16206   2.636   1.029   2.428 -3.1892 -0.7765 -0.1980
  147OSM    C1116207   2.757   1.010   2.614 -0.6094  0.3327 -0.4201
  147OSM   H11A16208   2.729   0.975   2.715 -0.0070 -1.8179 -0.9564
  147OSM   H11B16209   2.758   1.118   2.643  0.4394  0.0805  0.5847
  147OSM      P16210   3.004   1.060   2.527  0.4097 -0.2909  0.1642
  147OSM    O1316211   3.109   0.973   2.471  0.2165 -0.3714  0.6913
  147OSM    O1416212   2.943   1.165   2.440 -0.5222 -0.4052 -0.1325
  147OSM    O1116213   3.055   1.132   2.661  0.2758 -0.1882  0.3623
  147OSM    O1216214   2.886   0.956   2.572 -0.2694  0.3451  0.3450
  147OSM    C1S16215   3.059   1.069   2.788  0.7423  0.0650  0.5167
  147OSM    H1S16216   3.102   0.967   2.782  1.7189  0.5294 -1.5971
  147OSM    H1T16217   2.951   1.054   2.807  0.0485 -0.1972 -2.9263
  147OSM     NF16218   3.154   1.078   3.013  0.7264  0.0754 -0.0240
  147OSM    HNF16219   3.082   1.083   3.082  0.5317 -0.7538 -0.1584
  147OSM    C2S16220   3.137   1.159   2.895  0.1673  0.4675 -0.0655
  147OSM    H2S16221   3.238   1.183   2.857 -0.2607  0.1194 -1.4966
  147OSM    C3S16222   3.055   1.284   2.909  0.0680 -0.3490 -0.0692
  147OSM    H3S16223   2.951   1.265   2.943  0.6941 -0.4892  1.8848
  147OSM     O316224   3.037   1.351   2.788  0.3244  0.2419  0.2509
  147OSM    HO316225   3.043   1.276   2.729  1.6384  0.2016  0.4233
  147OSM    C4S16226   3.127   1.383   3.008  0.2463  0.3087 -0.4135
  147OSM    H4S16227   3.094   1.374   3.112  1.9395 -0.5823  0.0749
  147OSM    C5S16228   3.204   1.484   2.976  0.2655 -0.1880 -1.0729
  147OSM    H5S16229   3.215   1.515   2.871 -0.5820  1.1666 -0.7910
  147OSM    C6S16230   3.265   1.585   3.075  0.0127  0.3608  0.3460
  147OSM    H6S16231   3.213   1.680   3.050  1.4269  0.8705 -0.8007
  147OSM    H6T16232   3.370   1.611   3.050 -0.1933  0.0205 -0.9681
  147OSM    C7S16233   3.237   1.556   3.225  0.5703 -0.3528  0.6774
  147OSM    H7S16234   3.296   1.465   3.248 -0.0974 -1.1715 -0.7046
  147OSM    H7T16235   3.126   1.553   3.229  0.3933  3.0649  1.6343
  147OSM    C8S16236   3.292   1.666   3.312  0.4202 -0.1723  0.2094
  147OSM    H8S16237   3.241   1.760   3.282 -0.4202 -0.8675 -0.5993
  147OSM    H8T16238   3.400   1.681   3.289  0.1922  1.3865 -0.0165
  147OSM    C9S16239   3.268   1.641   3.461  0.7582 -1.2804  0.4721
  147OSM    H9S16240   3.328   1.549   3.481  2.2388 -0.7293 -1.1463
  147OSM    H9T16241   3.162   1.615   3.480  0.0382  2.0114  1.6331
  147OSM   C10S16242   3.309   1.746   3.566  0.1231  0.7876 -0.3497
  147OSM   H10S16243   3.273   1.848   3.539 -1.6079  0.0373 -1.0380
  147OSM   H10T16244   3.419   1.751   3.575  0.1243  0.2692 -0.0285
  147OSM   C11S16245   3.241   1.710   3.702  0.3044 -0.5671  1.1210
  147OSM   H11S16246   3.219   1.603   3.719 -0.6240 -0.1521  2.7095
  147OSM   H11T16247   3.145   1.765   3.707  1.6433  1.8916  1.1989
  147OSM   C12S16248   3.327   1.748   3.826  0.2599 -0.0423  0.6752
  147OSM   H12S16249   3.347   1.857   3.833 -2.0327  0.5298 -0.8175
  147OSM   H12T16250   3.418   1.684   3.819  1.3241  1.3314  1.3911
  147OSM   C13S16251   3.251   1.713   3.954 -0.6595  0.1210  0.4977
  147OSM   H13S16252   3.249   1.602   3.959  1.8593  0.0041  0.6068
  147OSM   H13T16253   3.153   1.760   3.935 -1.5993 -1.7988  0.3781
  147OSM   C14S16254   3.323   1.760   4.087 -1.4229 -0.3736 -0.2337
  147OSM   H14S16255   3.353   1.867   4.082  1.2658 -1.1200 -2.0224
  147OSM   H14T16256   3.417   1.704   4.106  0.9178  3.0026 -0.9469
  147OSM   C15S16257   3.224   1.752   4.209 -0.2768 -0.3375 -0.7227
  147OSM   H15S16258   3.150   1.669   4.202 -1.1398  0.4102 -0.6598
  147OSM   H15T16259   3.165   1.846   4.206 -1.0694 -0.5549  3.0800
  147OSM   C16S16260   3.308   1.741   4.332 -0.4910 -0.1519 -0.2757
  147OSM   H16S16261   3.363   1.837   4.337 -0.6923  0.1353 -2.4788
  147OSM   H16T16262   3.378   1.655   4.330 -0.2471  0.0661 -1.6285
  147OSM   C17S16263   3.221   1.714   4.460  0.9956  0.3689  0.0803
  147OSM   H17S16264   3.262   1.656   4.545 -0.3937 -0.3522  0.2752
  147OSM   H17T16265   3.150   1.639   4.421  1.9923 -0.9742  0.7543
  147OSM   C18S16266   3.134   1.841   4.490 -0.1163 -0.3249  0.4636
  147OSM   H18S16267   3.049   1.849   4.419  0.4862 -0.2156 -0.2602
  147OSM   H18T16268   3.191   1.937   4.491  1.6574 -1.2866 -0.7999
  147OSM   H18U16269   3.093   1.835   4.593  1.2918  2.0560  1.2563
  147OSM    C1F16270   3.248   0.980   3.022 -0.0032  0.0201 -0.4641
  147OSM     OF16271   3.328   0.964   2.932 -0.9607  0.5226 -0.1765
  147OSM    C2F16272   3.241   0.884   3.131 -0.2788  0.6335 -0.7475
  147OSM    H2F16273   3.307   0.797   3.113  1.9449  1.8398  1.1056
  147OSM    H2G16274   3.139   0.842   3.145 -0.3847  0.9270 -0.6213
  147OSM    C3F16275   3.286   0.950   3.265 -0.3409  0.3736 -0.0260
  147OSM    H3F16276   3.248   1.054   3.270  1.3675  1.0439 -0.6400
  147OSM    H3G16277   3.397   0.953   3.263 -0.2447 -1.7715 -0.6760
  147OSM    C4F16278   3.237   0.873   3.388  0.5733  0.4518  0.2011
  147OSM    H4F16279   3.272   0.767   3.382  0.5705  0.4944 -0.7535
  147OSM    H4G16280   3.126   0.881   3.396  0.5251 -0.5730  0.7418
  147OSM    C5F16281   3.291   0.941   3.515  0.4802 -0.2869 -1.0476
  147OSM    H5F16282   3.247   1.043   3.509  0.5037 -0.2234 -0.2823
  147OSM    H5G16283   3.400   0.962   3.512  0.2222  1.0982 -1.9913
  147OSM    C6F16284   3.247   0.876   3.647 -0.5830 -0.0446  0.1243
  147OSM    H6F16285   3.284   0.772   3.656 -1.8837 -0.3279  3.6364
  147OSM    H6G16286   3.136   0.870   3.635 -0.5921  0.2227  0.0636
  147OSM    C7F16287   3.283   0.949   3.775 -0.3461  0.0707 -0.2886
  147OSM    H7F16288   3.247   1.054   3.776 -1.3046 -0.1751 -2.5559
  147OSM    H7G16289   3.392   0.945   3.795 -0.0987 -0.1469 -1.6290
  147OSM    C8F16290   3.213   0.887   3.897  0.7051 -0.6080  0.2853
  147OSM    H8F16291   3.279   0.911   3.983  2.7661  0.1770 -1.4281
  147OSM    H8G16292   3.218   0.777   3.901 -2.7149 -1.0450 -2.5385
  147OSM    C9F16293   3.069   0.927   3.897  0.6867 -0.0496  0.0883
  147OSM    H9F16294   3.002   0.869   3.832  3.3061 -2.0864 -0.9660
  147OSM   C10F16295   3.020   1.046   3.934  0.5342  0.5944  0.2631
  147OSM   H10F16296   2.915   1.075   3.924 -0.6117 -2.0843  2.9502
  147OSM   C11F16297   3.090   1.154   4.016  0.7626 -0.4280 -0.6513
  147OSM   H11F16298   3.069   1.251   3.965  2.2986 -0.7712 -2.0228
  147OSM   H11G16299   3.200   1.145   4.010  0.9901  1.8415 -0.8825
  147OSM   C12F16300   3.027   1.158   4.156 -0.4597 -0.5313  0.0015
  147OSM   H12F16301   3.032   1.050   4.184  1.5421 -0.2088  1.0693
  147OSM   H12G16302   2.925   1.202   4.159  0.1719  1.2196 -2.2566
  147OSM   C13F16303   3.119   1.226   4.258  0.0661  0.4858 -0.4918
  147OSM   H13F16304   3.112   1.334   4.232 -1.9989  0.4457 -0.3169
  147OSM   H13G16305   3.223   1.190   4.252  0.6844  1.7450  1.5197
  147OSM   C14F16306   3.080   1.207   4.403  0.4943  0.4646 -0.0942
  147OSM   H14F16307   3.090   1.101   4.434 -0.4931  0.0594 -1.1195
  147OSM   H14G16308   2.981   1.248   4.434  0.4295 -0.9404  1.7606
  147OSM   C15F16309   3.175   1.294   4.493  0.6242  0.1787  0.1857
  147OSM   H15F16310   3.163   1.400   4.465  0.6071  0.6768  1.9543
  147OSM   H15G16311   3.274   1.258   4.456 -0.3023  0.6211 -3.0572
  147OSM   C16F16312   3.158   1.284   4.642 -0.1749  0.2373 -0.1305
  147OSM   H16F16313   3.242   1.333   4.697 -0.2366  1.2445 -0.9093
  147OSM   H16G16314   3.156   1.174   4.656  1.4365  0.2158  0.1436
  147OSM   C17F16315   3.031   1.349   4.697  0.3447 -0.0792 -0.1836
  147OSM   H17F16316   3.037   1.327   4.805  1.5771 -0.1352 -0.2547
  147OSM   H17G16317   2.937   1.307   4.654  0.1538 -0.5674  0.6859
  147OSM   C18F16318   3.030   1.503   4.684 -0.0641 -0.2766  0.0370
  147OSM   H18F16319   2.962   1.557   4.754  0.3276  1.6953 -1.0169
  147OSM   H18G16320   3.006   1.541   4.583 -0.2260  0.7331  0.4329
  147OSM   H18H16321   3.132   1.544   4.702  0.5181 -1.1813 -1.1341
  148OSM      N16322   1.621   1.907   2.763 -0.0230  0.1467  0.5766
  148OSM    C1516323   1.643   1.902   2.612 -0.4039  0.0614 -0.3088
  148OSM   H15A16324   1.557   1.864   2.559  2.4367 -4.4932 -2.2168
  148OSM   H15B16325   1.730   1.840   2.593 -0.5754 -1.3954  2.8572
  148OSM   H15C16326   1.665   2.000   2.573  1.2473 -0.5014 -0.8652
  148OSM    C1416327   1.608   1.767   2.819 -0.4222  0.0846 -0.4303
  148OSM   H14A16328   1.509   1.728   2.799  0.1073  0.0795 -3.5184
  148OSM   H14B16329   1.626   1.757   2.925  1.4166 -0.4956 -0.7672
  148OSM   H14C16330   1.684   1.696   2.789  1.9075  1.0376  2.6803
  148OSM    C1316331   1.741   1.960   2.833  0.4545  0.7315 -0.4114
  148OSM   H13A16332   1.828   1.910   2.794  0.7481  2.4793 -2.1370
  148OSM   H13B16333   1.737   1.941   2.939  1.4656  1.4365 -0.2361
  148OSM   H13C16334   1.751   2.066   2.817  1.7355  0.3861 -2.1461
  148OSM    C1216335   1.508   2.000   2.796  0.9242  0.1392  0.3260
  148OSM   H12A16336   1.422   1.966   2.740 -0.9670  1.9768  1.9034
  148OSM   H12B16337   1.533   2.099   2.763 -0.2639  1.7570  3.7215
  148OSM    C1116338   1.465   2.028   2.946 -0.5745  0.8216  0.5332
  148OSM   H11A16339   1.464   1.928   2.994 -2.9870 -0.5273 -2.0299
  148OSM   H11B16340   1.358   2.057   2.956 -0.8183  0.6083 -1.1927
  148OSM      P16341   1.545   2.267   3.025  0.3022  0.0304 -0.0503
  148OSM    O1316342   1.590   2.329   2.898 -0.1167 -0.2379  0.0453
  148OSM    O1416343   1.406   2.294   3.066 -0.6965 -0.0029 -0.4129
  148OSM    O1116344   1.647   2.293   3.147  0.0900 -0.2495  0.6921
  148OSM    O1216345   1.561   2.111   3.010  0.7102 -0.0402 -0.5418
  148OSM    C1S16346   1.741   2.401   3.130 -0.4475 -0.1754 -0.0127
  148OSM    H1S16347   1.690   2.497   3.108 -1.8233 -0.7140  0.7178
  148OSM    H1T16348   1.819   2.388   3.051  0.0422  0.0857  0.4204
  148OSM     NF16349   1.911   2.550   3.244 -0.3687 -0.3638  0.5382
  148OSM    HNF16350   2.008   2.529   3.235  0.4590  2.8586  0.6327
  148OSM    C2S16351   1.817   2.434   3.256  0.4023  0.5317 -0.7459
  148OSM    H2S16352   1.741   2.468   3.330 -0.0854 -0.2958 -0.8587
  148OSM    C3S16353   1.894   2.308   3.313  0.2442  0.9786  0.4630
  148OSM    H3S16354   1.992   2.290   3.263 -0.0374  1.4905 -0.2977
  148OSM     O316355   1.823   2.184   3.288  0.3385 -0.3359  0.7263
  148OSM    HO316356   1.741   2.217   3.252  0.8741 -0.6338 -0.8532
  148OSM    C4S16357   1.921   2.320   3.457 -0.4463  0.3747 -0.3437
  148OSM    H4S16358   1.824   2.314   3.507 -0.3256 -0.3488 -0.1748
  148OSM    C5S16359   2.033   2.334   3.526  0.0756 -0.1657  0.3524
  148OSM    H5S16360   2.130   2.351   3.478  0.2847  1.7920  1.3466
  148OSM    C6S16361   2.048   2.356   3.677  0.1025  0.4906 -0.0899
  148OSM    H6S16362   2.084   2.455   3.711 -1.0157  0.8493  0.1013
  148OSM    H6T16363   2.125   2.284   3.711  0.4950  0.2305 -1.4519
  148OSM    C7S16364   1.929   2.313   3.761  0.3585  0.0261  0.3832
  148OSM    H7S16365   1.918   2.202   3.759  1.1033 -0.0472  0.2657
  148OSM    H7T16366   1.827   2.350   3.737 -0.3014 -2.1028 -0.3587
  148OSM    C8S16367   1.954   2.336   3.909 -0.5462  0.6973 -0.0545
  148OSM    H8S16368   1.857   2.306   3.954 -1.4909  2.4606 -0.7822
  148OSM    H8T16369   1.960   2.443   3.939 -1.6139  0.4790  1.0109
  148OSM    C9S16370   2.069   2.250   3.975  1.2587 -0.3061  1.1354
  148OSM    H9S16371   2.158   2.266   3.910 -0.8851 -1.6205 -2.4291
  148OSM    H9T16372   2.025   2.149   3.960 -0.3998  0.0675  2.9856
  148OSM   C10S16373   2.095   2.287   4.119 -0.1181 -0.4162 -0.5238
  148OSM   H10S16374   2.119   2.195   4.177 -1.9279 -1.5813 -1.5077
  148OSM   H10T16375   1.997   2.322   4.157 -0.5425  0.4630 -2.3187
  148OSM   C11S16376   2.194   2.401   4.143  0.0905 -0.7866  0.3939
  148OSM   H11S16377   2.144   2.494   4.109 -4.6817 -2.4952  1.9600
  148OSM   H11T16378   2.282   2.379   4.077  0.0662  1.7411 -0.5791
  148OSM   C12S16379   2.241   2.411   4.287 -0.5643 -0.9381  0.2442
  148OSM   H12S16380   2.254   2.306   4.320 -1.5116 -0.8464  0.9617
  148OSM   H12T16381   2.161   2.441   4.359 -0.3627 -1.6927  0.7932
  148OSM   C13S16382   2.364   2.509   4.307  0.1397 -0.1739  0.3501
  148OSM   H13S16383   2.329   2.615   4.306  0.6983  0.0180 -1.2214
  148OSM   H13T16384   2.436   2.490   4.225 -2.8236 -0.5831 -2.3454
  148OSM   C14S16385   2.431   2.485   4.446  0.2689  0.7440  0.8719
  148OSM   H14S16386   2.525   2.431   4.423 -0.6341  0.2890 -2.1426
  148OSM   H14T16387   2.379   2.410   4.509  1.1342  1.3430  2.3433
  148OSM   C15S16388   2.451   2.615   4.521 -0.2863 -1.1121  0.2651
  148OSM   H15S16389   2.351   2.663   4.525 -0.6936 -1.9447  0.1595
  148OSM   H15T16390   2.516   2.672   4.451 -0.2537 -2.1131 -0.5543
  148OSM   C16S16391   2.519   2.588   4.655  0.4707 -0.4140  0.1963
  148OSM   H16S16392   2.614   2.532   4.640  2.4756  3.1768 -1.7692
  148OSM   H16T16393   2.447   2.534   4.719 -0.1045  1.4291  1.1855
  148OSM   C17S16394   2.563   2.715   4.727 -0.4111  0.0080 -0.5103
  148OSM   H17S16395   2.471   2.763   4.767  0.6168  1.2799  0.4141
  148OSM   H17T16396   2.599   2.796   4.659  0.7289 -1.1075 -1.2749
  148OSM   C18S16397   2.672   2.695   4.830 -0.1901  0.2105  0.4176
  148OSM   H18S16398   2.707   2.787   4.881  2.1980 -0.2320 -0.2774
  148OSM   H18T16399   2.758   2.644   4.780  0.5927  1.4959  0.3989
  148OSM   H18U16400   2.644   2.621   4.908 -0.9384 -0.0596 -0.0932
  148OSM    C1F16401   1.877   2.683   3.221 -0.1292  0.5234 -0.4223
  148OSM     OF16402   1.755   2.706   3.188 -0.2658 -0.2938 -0.2286
  148OSM    C2F16403   1.980   2.786   3.224 -0.1906  0.6221 -0.3577
  148OSM    H2F16404   1.982   2.843   3.128 -0.2150  1.2700  0.0243
  148OSM    H2G16405   2.079   2.749   3.257 -0.0247  2.1336  0.9183
  148OSM    C3F16406   1.955   2.895   3.329  0.4529  0.5872  0.3712
  148OSM    H3F16407   1.857   2.937   3.301  0.2635 -1.0953 -1.7519
  148OSM    H3G16408   2.036   2.970   3.319  3.1428 -2.3210 -2.4203
  148OSM    C4F16409   1.949   2.849   3.471  0.0650  0.0086 -0.4041
  148OSM    H4F16410   1.867   2.777   3.493  1.0116 -1.2232 -0.7753
  148OSM    H4G16411   1.922   2.932   3.539  2.0934 -0.2911  0.8509
  148OSM    C5F16412   2.079   2.784   3.522 -0.3742 -0.7997  0.0483
  148OSM    H5F16413   2.173   2.835   3.493 -1.2536  1.8550  1.5586
  148OSM    H5G16414   2.084   2.685   3.472 -0.0884 -0.6675 -0.1886
  148OSM    C6F16415   2.072   2.755   3.673  0.2035 -0.5013 -0.3987
  148OSM    H6F16416   2.126   2.661   3.698 -1.2386 -2.1198 -2.8463
  148OSM    H6G16417   1.965   2.742   3.700 -0.2996  0.2577 -1.9193
  148OSM    C7F16418   2.130   2.865   3.767  0.4699 -0.3787 -0.0972
  148OSM    H7F16419   2.083   2.965   3.750  0.8307 -0.5119 -2.0815
  148OSM    H7G16420   2.235   2.891   3.742  0.2122  0.3279 -0.4724
  148OSM    C8F16421   2.138   2.826   3.915  0.3992 -0.4070 -0.1330
  148OSM    H8F16422   2.217   2.885   3.965 -1.2093  1.5362  0.2303
  148OSM    H8G16423   2.175   2.723   3.935  2.4071 -0.0563 -1.6857
  148OSM    C9F16424   2.013   2.858   3.990 -0.4736 -0.1871 -0.3051
  148OSM    H9F16425   1.918   2.841   3.938  0.0047 -2.6388 -0.5308
  148OSM   C10F16426   2.003   2.876   4.121  0.4739  0.6513  0.4508
  148OSM   H10F16427   1.904   2.869   4.170  2.1346 -2.2862  3.8730
  148OSM   C11F16428   2.119   2.884   4.218 -0.4717 -0.3314 -0.4066
  148OSM   H11F16429   2.215   2.838   4.185  0.7456 -0.8440  3.3084
  148OSM   H11G16430   2.101   2.829   4.313  1.2696  1.6308  1.1681
  148OSM   C12F16431   2.148   3.034   4.258 -0.2526  0.1960  0.4877
  148OSM   H12F16432   2.061   3.057   4.323 -0.2521  0.1417  0.5079
  148OSM   H12G16433   2.145   3.096   4.166  1.7550  1.8815  1.4598
  148OSM   C13F16434   2.279   3.056   4.335 -0.2504  0.2642  0.8656
  148OSM   H13F16435   2.274   3.165   4.356 -0.2513  0.5614 -0.5502
  148OSM   H13G16436   2.360   3.035   4.262 -1.8445 -1.1076 -0.6173
  148OSM   C14F16437   2.294   2.972   4.457 -0.7052 -0.3202  0.2308
  148OSM   H14F16438   2.300   2.866   4.425  1.9944  0.3526 -1.9128
  148OSM   H14G16439   2.204   2.983   4.521 -1.0453 -0.8356 -0.1497
  148OSM   C15F16440   2.429   2.986   4.532  0.1894  0.0678  0.2355
  148OSM   H15F16441   2.514   2.933   4.484 -1.5224 -2.5951 -0.0662
  148OSM   H15G16442   2.420   2.924   4.624  1.9910  0.1090  0.4817
  148OSM   C16F16443   2.470   3.129   4.567 -0.3414 -0.2649 -0.5262
  148OSM   H16F16444   2.379   3.176   4.610 -0.5929 -0.4650 -0.8294
  148OSM   H16G16445   2.498   3.187   4.476 -1.5517  0.5797 -0.3913
  148OSM   C17F16446   2.587   3.122   4.668  0.1437 -0.4351  0.2393
  148OSM   H17F16447   2.677   3.071   4.629  0.8826  0.2514  1.0170
  148OSM   H17G16448   2.551   3.062   4.754  1.7385 -0.5318  0.8566
  148OSM   C18F16449   2.643   3.250   4.716  0.3746 -0.4074  0.3547
  148OSM   H18F16450   2.722   3.231   4.792 -0.0705 -1.8934  0.4633
  148OSM   H18G16451   2.566   3.321   4.755  0.8234  0.2722  0.0303
  148OSM   H18H16452   2.699   3.295   4.632 -1.1517  1.1792  0.1230
  149OSM      N16453   4.069   6.351   2.471 -0.3726  0.5421 -0.1581
  149OSM    C1516454   4.120   6.484   2.412  1.0745  0.5951 -0.2483
  149OSM   H15A16455   4.115   6.469   2.305 -1.8676 -3.4396  0.2388
  149OSM   H15B16456   4.221   6.496   2.448  1.1334  0.1885 -0.2733
  149OSM   H15C16457   4.046   6.555   2.445 -3.3487 -3.1412 -1.0748
  149OSM    C1416458   3.931   6.324   2.425  0.4268 -1.0343  0.4633
  149OSM   H14A16459   3.866   6.408   2.444  0.2825 -0.9073 -0.5364
  149OSM   H14B16460   3.880   6.242   2.474 -0.5700  0.6870  2.4257
  149OSM   H14C16461   3.926   6.308   2.318 -1.9493 -1.4692  0.5829
  149OSM    C1316462   4.153   6.245   2.417 -0.5605 -0.6141  0.2442
  149OSM   H13A16463   4.144   6.223   2.312  2.4363  1.0787 -0.4957
  149OSM   H13B16464   4.130   6.152   2.466 -2.9905 -0.3709 -0.2887
  149OSM   H13C16465   4.254   6.281   2.432 -0.5648 -0.7298  0.5447
  149OSM    C1216466   4.089   6.346   2.618  0.0503 -0.4260 -0.0310
  149OSM   H12A16467   4.190   6.373   2.644 -0.4874  1.9560 -0.1705
  149OSM   H12B16468   4.078   6.243   2.648 -1.5397  0.1227  1.4696
  149OSM    C1116469   3.995   6.443   2.695  0.2839  1.0384  0.7623
  149OSM   H11A16470   3.980   6.538   2.639  0.6430  0.7348  0.1406
  149OSM   H11B16471   4.057   6.462   2.785  1.9610 -1.5066  0.2461
  149OSM      P16472   3.878   6.260   2.838  0.1532  0.1174  0.2501
  149OSM    O1316473   3.761   6.168   2.830  0.1683  0.3435 -0.5224
  149OSM    O1416474   4.007   6.190   2.839 -0.2716  0.1660  0.2423
  149OSM    O1116475   3.849   6.332   2.979 -0.3655 -0.2314 -0.1789
  149OSM    O1216476   3.875   6.372   2.730 -0.3603  0.2710 -0.0130
  149OSM    C1S16477   3.767   6.452   2.988 -0.1515  0.0745 -0.7113
  149OSM    H1S16478   3.690   6.445   2.908  0.0817 -1.4350 -0.8284
  149OSM    H1T16479   3.819   6.545   2.955 -0.4826 -0.1337 -1.8697
  149OSM     NF16480   3.591   6.564   3.124  0.1396  0.1811  0.0582
  149OSM    HNF16481   3.628   6.657   3.124  0.8802 -0.0754  2.3357
  149OSM    C2S16482   3.690   6.463   3.125 -0.5845  0.6417  0.2564
  149OSM    H2S16483   3.642   6.365   3.144  0.2480  0.2439  0.3797
  149OSM    C3S16484   3.795   6.490   3.240 -0.8980 -0.3518  0.1597
  149OSM    H3S16485   3.818   6.599   3.233 -0.3480 -0.2863  2.2462
  149OSM     O316486   3.921   6.411   3.225  0.5496 -0.0560 -0.4154
  149OSM    HO316487   3.918   6.378   3.135  1.2330 -0.8083 -0.1747
  149OSM    C4S16488   3.722   6.476   3.369  0.4614 -0.6546 -1.0968
  149OSM    H4S16489   3.639   6.549   3.373 -0.5969 -1.7222 -2.6034
  149OSM    C5S16490   3.729   6.379   3.466  0.8626 -0.1204 -0.5573
  149OSM    H5S16491   3.805   6.300   3.456  3.3945  2.0315  0.5269
  149OSM    C6S16492   3.646   6.383   3.593  0.4896 -0.4568 -0.6031
  149OSM    H6S16493   3.714   6.404   3.678 -1.4511  0.5337  0.7729
  149OSM    H6T16494   3.598   6.287   3.619 -2.5702  1.2649  0.6296
  149OSM    C7S16495   3.542   6.498   3.604  0.4643 -0.0130  0.3317
  149OSM    H7S16496   3.471   6.487   3.520 -0.1708  3.4067  0.2901
  149OSM    H7T16497   3.593   6.597   3.598  0.4834 -0.0095  0.5455
  149OSM    C8S16498   3.458   6.488   3.737  0.3676 -0.8740  0.0488
  149OSM    H8S16499   3.404   6.391   3.741 -0.4813 -0.3674  1.4412
  149OSM    H8T16500   3.386   6.573   3.744  1.1176 -0.1438 -0.9456
  149OSM    C9S16501   3.536   6.481   3.867 -0.0150 -0.4215 -0.5530
  149OSM    H9S16502   3.584   6.580   3.880  0.4873 -0.6452 -0.6891
  149OSM    H9T16503   3.613   6.404   3.848  1.6813  0.2096  2.9301
  149OSM   C10S16504   3.446   6.436   3.984  0.0185 -0.1692 -0.2658
  149OSM   H10S16505   3.364   6.370   3.951  0.0434 -0.7322  0.7581
  149OSM   H10T16506   3.393   6.524   4.027  2.7529  1.0926  0.7824
  149OSM   C11S16507   3.530   6.388   4.095 -1.1203  0.0427 -0.0400
  149OSM   H11S16508   3.625   6.445   4.104 -0.9732 -0.2080  0.0007
  149OSM   H11T16509   3.563   6.286   4.065 -1.2713  0.6644 -2.5131
  149OSM   C12S16510   3.453   6.370   4.231  0.8464  0.0230 -0.5985
  149OSM   H12S16511   3.517   6.310   4.298  1.9505 -0.5524 -2.1050
  149OSM   H12T16512   3.360   6.312   4.214  0.6584  0.0701  0.2605
  149OSM   C13S16513   3.432   6.499   4.309  0.5254  0.4486  0.8384
  149OSM   H13S16514   3.397   6.588   4.252  0.8608  0.2472  0.3151
  149OSM   H13T16515   3.537   6.530   4.332  0.4855  1.1392  0.1367
  149OSM   C14S16516   3.358   6.491   4.438  0.2431  0.4541 -0.4365
  149OSM   H14S16517   3.317   6.389   4.457  1.1157  0.5650  2.4437
  149OSM   H14T16518   3.266   6.553   4.427 -0.8643 -1.3277 -2.0581
  149OSM   C15S16519   3.433   6.534   4.565  0.2036  0.4976  0.9305
  149OSM   H15S16520   3.468   6.637   4.538 -0.5285  0.1658 -1.5511
  149OSM   H15T16521   3.523   6.474   4.587  0.0854  1.0223  3.0532
  149OSM   C16S16522   3.346   6.544   4.691 -0.0788  0.2012  0.4911
  149OSM   H16S16523   3.321   6.441   4.724 -0.6887  1.3777  4.1837
  149OSM   H16T16524   3.259   6.599   4.651  0.1354  1.1187  1.2535
  149OSM   C17S16525   3.410   6.620   4.807 -0.3344  0.0832 -0.4017
  149OSM   H17S16526   3.454   6.717   4.774  1.1386 -0.1708  0.6877
  149OSM   H17T16527   3.490   6.566   4.863 -1.7946 -1.0425  0.6675
  149OSM   C18S16528   3.304   6.655   4.915 -0.5694  0.5871 -0.2919
  149OSM   H18S16529   3.352   6.730   4.982 -0.0061 -0.4738  0.5346
  149OSM   H18T16530   3.275   6.564   4.972 -0.0596  0.4654 -0.2183
  149OSM   H18U16531   3.215   6.695   4.863  0.7003  2.4518 -1.1584
  149OSM    C1F16532   3.481   6.552   3.050 -0.6308 -0.3461 -0.7824
  149OSM     OF16533   3.458   6.455   2.979 -0.4394 -0.6187  0.1070
  149OSM    C2F16534   3.381   6.658   3.063  1.1105 -0.6798 -0.1607
  149OSM    H2F16535   3.370   6.719   2.971 -0.7291  0.3050  0.6757
  149OSM    H2G16536   3.420   6.715   3.150 -1.0900  1.7344 -0.6619
  149OSM    C3F16537   3.242   6.601   3.101  0.0347  0.0894  0.1436
  149OSM    H3F16538   3.212   6.513   3.040 -2.0041  0.6870  0.2185
  149OSM    H3G16539   3.160   6.672   3.079  0.1300  0.2051  0.1619
  149OSM    C4F16540   3.239   6.560   3.250 -0.9435  0.7069 -0.5773
  149OSM    H4F16541   3.251   6.653   3.309 -2.5153  1.7062 -1.7540
  149OSM    H4G16542   3.322   6.491   3.279 -1.0499  1.5073  1.8820
  149OSM    C5F16543   3.094   6.503   3.288 -0.0900 -0.2563 -1.2245
  149OSM    H5F16544   3.055   6.444   3.202  0.9610  0.8101 -2.4886
  149OSM    H5G16545   3.029   6.592   3.290 -0.7959 -0.7817 -0.3160
  149OSM    C6F16546   3.091   6.413   3.410  0.7234 -0.3380 -0.4446
  149OSM    H6F16547   3.138   6.317   3.377  1.8420  0.4014 -1.0638
  149OSM    H6G16548   2.984   6.387   3.424  0.2192  1.3171 -0.9919
  149OSM    C7F16549   3.140   6.449   3.553  0.0860 -0.4081 -0.3184
  149OSM    H7F16550   3.112   6.549   3.591 -1.1396  0.0128 -2.2057
  149OSM    H7G16551   3.249   6.458   3.534 -0.0281  0.6560 -0.4913
  149OSM    C8F16552   3.103   6.348   3.661  0.5685 -0.7000 -0.0510
  149OSM    H8F16553   3.159   6.377   3.752 -1.3242 -0.8901  1.2189
  149OSM    H8G16554   3.147   6.252   3.629  1.3573 -0.4881  0.3937
  149OSM    C9F16555   2.955   6.331   3.678  0.0201  0.3320 -0.2809
  149OSM    H9F16556   2.906   6.268   3.602  0.8131 -0.5819 -0.0442
  149OSM   C10F16557   2.885   6.398   3.768 -0.0671  0.1519  0.4118
  149OSM   H10F16558   2.776   6.383   3.766 -0.4031  2.2674 -1.5336
  149OSM   C11F16559   2.944   6.476   3.885 -0.4685 -0.4975 -0.2843
  149OSM   H11F16560   2.887   6.569   3.903 -1.3965 -1.1976  0.5008
  149OSM   H11G16561   3.044   6.516   3.861  0.2139 -1.9786 -0.0511
  149OSM   C12F16562   2.945   6.392   4.014  0.1729  0.0305  0.6663
  149OSM   H12F16563   3.007   6.300   4.007 -0.4627 -0.4270  1.0165
  149OSM   H12G16564   2.841   6.364   4.040  0.3373 -0.3809  0.8878
  149OSM   C13F16565   2.997   6.470   4.139  0.0458 -0.5275 -0.0259
  149OSM   H13F16566   2.909   6.530   4.171 -0.1254 -0.2384 -1.0022
  149OSM   H13G16567   3.069   6.550   4.111 -0.8137  0.6263  0.9391
  149OSM   C14F16568   3.074   6.382   4.241  0.4828 -0.0241 -0.3458
  149OSM   H14F16569   3.126   6.438   4.322  2.6009  0.3826 -1.9123
  149OSM   H14G16570   3.159   6.331   4.191  0.4183 -1.3819  0.8679
  149OSM   C15F16571   2.992   6.276   4.313 -0.5280  0.0393 -0.0981
  149OSM   H15F16572   3.056   6.196   4.356 -3.9402 -2.7176  0.2892
  149OSM   H15G16573   2.931   6.226   4.235 -2.7519  0.5619  1.2024
  149OSM   C16F16574   2.898   6.336   4.424  0.7137  0.0671 -0.0091
  149OSM   H16F16575   2.830   6.251   4.446 -0.7475  1.2616  0.2621
  149OSM   H16G16576   2.834   6.420   4.391  3.3229  2.5861  0.8706
  149OSM   C17F16577   2.967   6.375   4.556  0.0333  0.1532  0.2810
  149OSM   H17F16578   2.879   6.389   4.622 -0.5543  1.3997 -0.7432
  149OSM   H17G16579   3.025   6.470   4.551  2.0243 -0.9412  1.2790
  149OSM   C18F16580   3.063   6.268   4.611 -0.0642 -0.2173 -0.1857
  149OSM   H18F16581   3.154   6.255   4.549 -0.3527  3.0104 -1.4388
  149OSM   H18G16582   3.008   6.171   4.614 -0.4588  0.0305  0.9668
  149OSM   H18H16583   3.090   6.295   4.715 -2.2985 -1.2788  0.7571
  150OSM      N16584   6.915   6.711   2.758 -0.0128  0.2791  0.4378
  150OSM    C1516585   7.034   6.640   2.723  0.1646 -0.7679 -0.5160
  150OSM   H15A16586   7.007   6.539   2.694  1.0255 -0.9901 -0.5685
  150OSM   H15B16587   7.108   6.646   2.802 -0.3598  0.8053 -0.1200
  150OSM   H15C16588   7.081   6.681   2.635  0.0091 -1.5134 -0.9552
  150OSM    C1416589   6.816   6.687   2.650 -0.9029  0.1161  0.3458
  150OSM   H14A16590   6.768   6.592   2.634 -0.7292  0.4068 -2.3439
  150OSM   H14B16591   6.865   6.708   2.556 -3.8164 -0.8682 -1.5194
  150OSM   H14C16592   6.734   6.755   2.665 -0.2171  0.8187  1.0061
  150OSM    C1316593   6.860   6.654   2.884  0.0055  0.2244  0.0773
  150OSM   H13A16594   6.762   6.695   2.899  0.1656  0.4767  0.4556
  150OSM   H13B16595   6.919   6.681   2.970 -0.8571  1.3289  0.3372
  150OSM   H13C16596   6.848   6.546   2.877 -0.0085  0.2609 -0.5201
  150OSM    C1216597   6.934   6.862   2.776  0.0449  0.0980 -0.2383
  150OSM   H12A16598   7.007   6.873   2.856 -0.3871 -1.1016  0.3435
  150OSM   H12B16599   6.835   6.893   2.806 -0.4381  0.8134 -2.4419
  150OSM    C1116600   6.980   6.945   2.647  0.3736 -0.1916 -0.2093
  150OSM   H11A16601   6.963   7.051   2.674 -0.0086 -0.3197  0.0689
  150OSM   H11B16602   6.911   6.926   2.562 -1.6747  1.4278  1.0093
  150OSM      P16603   7.242   6.970   2.686 -0.2377  0.2653 -0.1104
  150OSM    O1316604   7.350   6.875   2.659  0.4193  0.1178  0.1590
  150OSM    O1416605   7.277   7.111   2.657  0.1015 -0.4354  0.3807
  150OSM    O1116606   7.207   6.965   2.843 -0.2171 -0.5822 -0.3385
  150OSM    O1216607   7.115   6.923   2.602 -0.1949 -0.5599 -0.1329
  150OSM    C1S16608   7.295   6.999   2.944 -0.6278  0.1098 -0.1496
  150OSM    H1S16609   7.281   7.108   2.962 -1.5191 -0.4405  3.2048
  150OSM    H1T16610   7.400   6.989   2.911 -0.5673 -0.4197  0.1853
  150OSM     NF16611   7.372   6.988   3.174  0.4732  0.3925 -0.2637
  150OSM    HNF16612   7.461   6.947   3.196  0.0210 -0.2218  0.5045
  150OSM    C2S16613   7.290   6.912   3.073  0.3935  0.0279 -0.7971
  150OSM    H2S16614   7.185   6.905   3.107  0.2255  3.0671 -0.4143
  150OSM    C3S16615   7.339   6.760   3.056 -0.1102  0.3278  0.5046
  150OSM    H3S16616   7.444   6.743   3.024 -1.2005 -2.3234 -2.0780
  150OSM     O316617   7.250   6.701   2.956 -0.4580 -0.2458  0.2941
  150OSM    HO316618   7.211   6.775   2.909 -2.3619 -0.5131  1.3273
  150OSM    C4S16619   7.325   6.677   3.179 -0.4136 -0.2686  0.1340
  150OSM    H4S16620   7.224   6.637   3.199 -0.7154  1.6447  2.9638
  150OSM    C5S16621   7.426   6.633   3.257 -0.1439  0.2808  0.2826
  150OSM    H5S16622   7.525   6.670   3.228 -1.7524  3.9349 -1.1919
  150OSM    C6S16623   7.428   6.544   3.380 -0.3747 -0.1091  0.2567
  150OSM    H6S16624   7.536   6.519   3.393  0.0591  0.3383 -1.9868
  150OSM    H6T16625   7.365   6.455   3.360 -0.8864  0.8546 -3.1188
  150OSM    C7S16626   7.391   6.626   3.504  0.0093 -0.4443 -0.1162
  150OSM    H7S16627   7.296   6.673   3.470 -0.3290 -0.8882  0.2049
  150OSM    H7T16628   7.471   6.700   3.526  0.2605 -0.0348 -2.1827
  150OSM    C8S16629   7.379   6.532   3.625  0.2699 -0.1746 -0.7219
  150OSM    H8S16630   7.480   6.487   3.636  0.4794  0.8140  2.2463
  150OSM    H8T16631   7.315   6.447   3.594  1.5375 -0.9616 -1.2665
  150OSM    C9S16632   7.324   6.600   3.752 -0.3219  0.5625  0.2144
  150OSM    H9S16633   7.293   6.509   3.809 -0.4938  0.3268 -0.2513
  150OSM    H9T16634   7.222   6.645   3.745 -1.1077 -1.2439 -0.7382
  150OSM   C10S16635   7.430   6.686   3.833 -0.2053 -0.3302 -0.0038
  150OSM   H10S16636   7.458   6.777   3.776  0.6151 -0.8515 -0.4607
  150OSM   H10T16637   7.521   6.626   3.853 -0.1986 -0.3966 -0.2293
  150OSM   C11S16638   7.379   6.742   3.965 -0.1132 -0.1665  0.4236
  150OSM   H11S16639   7.282   6.792   3.944  0.8436  1.3650 -0.5806
  150OSM   H11T16640   7.455   6.819   3.990 -3.2300  3.1124  0.6227
  150OSM   C12S16641   7.383   6.631   4.071  0.2291  0.2605  0.1337
  150OSM   H12S16642   7.486   6.596   4.094  0.0398  0.7220  1.8975
  150OSM   H12T16643   7.349   6.531   4.036  1.5980 -0.9417  2.0114
  150OSM   C13S16644   7.307   6.667   4.195 -0.0193  0.2751 -0.6705
  150OSM   H13S16645   7.304   6.777   4.210 -0.0851  0.4007 -1.5410
  150OSM   H13T16646   7.356   6.626   4.285  1.3667  0.8173 -1.1531
  150OSM   C14S16647   7.167   6.614   4.194 -0.0054  0.2602  0.1005
  150OSM   H14S16648   7.148   6.509   4.165 -2.1393  0.7394 -0.4236
  150OSM   H14T16649   7.108   6.681   4.128  0.4670  0.4210 -0.1626
  150OSM   C15S16650   7.094   6.622   4.327 -0.6987 -0.1166  0.4509
  150OSM   H15S16651   7.116   6.715   4.384 -0.0730 -1.6489  2.8402
  150OSM   H15T16652   7.133   6.541   4.392  1.4106  0.1006 -0.4462
  150OSM   C16S16653   6.939   6.613   4.327 -0.6451  0.0535  0.3185
  150OSM   H16S16654   6.903   6.513   4.296 -1.7983  0.7686 -0.7248
  150OSM   H16T16655   6.907   6.691   4.255  2.0838 -0.4741 -1.6506
  150OSM   C17S16656   6.870   6.648   4.462 -0.3743  0.3029  0.3241
  150OSM   H17S16657   6.761   6.632   4.445  0.4399 -2.5141 -3.8340
  150OSM   H17T16658   6.880   6.753   4.495  3.1247 -0.4449  2.0262
  150OSM   C18S16659   6.900   6.559   4.586 -0.5472  0.0435  0.0042
  150OSM   H18S16660   6.845   6.598   4.675  0.8705  1.7966  0.1630
  150OSM   H18T16661   7.005   6.544   4.619 -0.8721 -0.7277  0.7304
  150OSM   H18U16662   6.859   6.456   4.582  0.1641 -0.3030  1.2210
  150OSM    C1F16663   7.344   7.104   3.227  0.2829 -0.1219 -0.4699
  150OSM     OF16664   7.256   7.179   3.181  0.5531 -0.2718  0.0976
  150OSM    C2F16665   7.430   7.142   3.340 -0.6984 -0.4470  0.2660
  150OSM    H2F16666   7.527   7.185   3.309 -0.6750 -0.6387  0.0663
  150OSM    H2G16667   7.454   7.054   3.403 -2.7190 -0.4251  1.1281
  150OSM    C3F16668   7.369   7.241   3.444  0.0614  0.5433 -1.0930
  150OSM    H3F16669   7.284   7.192   3.495 -0.6007  3.0294  0.3379
  150OSM    H3G16670   7.340   7.331   3.385 -1.0186  1.3934  0.6627
  150OSM    C4F16671   7.474   7.277   3.556 -0.2320 -0.8565 -0.1433
  150OSM    H4F16672   7.437   7.366   3.611  0.9015 -0.5007  0.0821
  150OSM    H4G16673   7.569   7.315   3.511  0.8508  0.4365  3.0074
  150OSM    C5F16674   7.534   7.166   3.649 -0.5066 -0.1464 -0.1345
  150OSM    H5F16675   7.602   7.093   3.601 -0.3797 -0.3524  0.3526
  150OSM    H5G16676   7.445   7.112   3.689 -1.5012  0.2690 -1.6906
  150OSM    C6F16677   7.608   7.234   3.773  0.6606 -0.0743  0.0700
  150OSM    H6F16678   7.533   7.299   3.824  0.1330  0.0219 -0.8076
  150OSM    H6G16679   7.689   7.295   3.728  0.9211 -0.9401 -0.6562
  150OSM    C7F16680   7.670   7.135   3.872 -0.3392 -1.1405 -0.6908
  150OSM    H7F16681   7.761   7.084   3.835  0.1078 -0.3554 -0.6894
  150OSM    H7G16682   7.587   7.063   3.891 -0.9146 -0.4130 -0.4202
  150OSM    C8F16683   7.722   7.208   4.001 -0.4062  0.0404  0.0744
  150OSM    H8F16684   7.807   7.269   3.962  0.5856 -0.8950  0.7138
  150OSM    H8G16685   7.764   7.137   4.075  1.8376  2.2685  1.1178
  150OSM    C9F16686   7.617   7.287   4.080 -0.3461  0.5960  0.7321
  150OSM    H9F16687   7.590   7.388   4.047 -0.3389  0.3864  0.0615
  150OSM   C10F16688   7.540   7.238   4.175 -0.2450 -0.2702 -0.4114
  150OSM   H10F16689   7.475   7.309   4.228 -0.0728  0.7899 -1.5967
  150OSM   C11F16690   7.539   7.103   4.247 -1.1825 -0.9695 -0.1792
  150OSM   H11F16691   7.624   7.036   4.224 -0.3846 -0.4149  1.0707
  150OSM   H11G16692   7.447   7.043   4.227 -1.7032 -0.2581  0.0248
  150OSM   C12F16693   7.546   7.117   4.405 -0.4217  0.3288  0.0474
  150OSM   H12F16694   7.638   7.174   4.430 -0.7559  0.0585  2.0677
  150OSM   H12G16695   7.560   7.022   4.459  2.7373  1.5619  1.6164
  150OSM   C13F16696   7.422   7.171   4.481 -0.3482 -0.2399  0.4092
  150OSM   H13F16697   7.343   7.093   4.487 -2.4040  1.5198 -1.7734
  150OSM   H13G16698   7.374   7.250   4.420 -1.0330  0.4750  1.8212
  150OSM   C14F16699   7.454   7.238   4.617  0.6535  0.3607 -0.5149
  150OSM   H14F16700   7.390   7.329   4.620  0.4157  0.2129 -1.0030
  150OSM   H14G16701   7.560   7.269   4.616  0.9744 -0.6487 -2.3498
  150OSM   C15F16702   7.429   7.152   4.743 -0.7238 -1.1013 -0.0151
  150OSM   H15F16703   7.481   7.054   4.746 -0.8095 -1.1650 -0.5268
  150OSM   H15G16704   7.321   7.125   4.742 -1.1042  0.1865  1.3930
  150OSM   C16F16705   7.472   7.226   4.872 -0.0868  0.4267 -0.7007
  150OSM   H16F16706   7.434   7.330   4.878 -0.7567  0.1483  0.1152
  150OSM   H16G16707   7.583   7.238   4.877 -0.1138  0.3642  1.8782
  150OSM   C17F16708   7.433   7.158   5.009 -0.6296  0.6789 -0.3577
  150OSM   H17F16709   7.477   7.057   5.022 -0.7876  0.6961  0.3748
  150OSM   H17G16710   7.322   7.145   5.010 -0.6232  0.5441  0.8859
  150OSM   C18F16711   7.477   7.236   5.129  0.6036 -0.4594  0.7017
  150OSM   H18F16712   7.453   7.193   5.229 -2.1575 -0.1605  0.2475
  150OSM   H18G16713   7.417   7.330   5.130  4.0209  1.8960  0.0885
  150OSM   H18H16714   7.587   7.243   5.137  0.7862 -0.1405 -1.4627
  151OSM      N16715   4.739   5.989   2.833  0.0350 -0.2315  0.0568
  151OSM    C1516716   4.671   5.863   2.879 -0.2019 -0.2856 -0.6151
  151OSM   H15A16717   4.575   5.885   2.922 -0.4312  1.8548 -2.0548
  151OSM   H15B16718   4.735   5.805   2.944 -0.5105  0.6353  0.5388
  151OSM   H15C16719   4.639   5.803   2.795 -1.7844 -0.2038 -0.1075
  151OSM    C1416720   4.777   6.065   2.961 -0.2185 -0.2339  0.3343
  151OSM   H14A16721   4.833   6.156   2.945 -1.0292  0.7087  2.5687
  151OSM   H14B16722   4.831   5.996   3.024  1.2623  0.9426  0.4308
  151OSM   H14C16723   4.693   6.094   3.021 -1.0164 -1.4221 -0.1780
  151OSM    C1316724   4.862   5.952   2.763  0.5448 -0.4555  0.1472
  151OSM   H13A16725   4.930   5.904   2.832  1.6213  2.5417  1.3789
  151OSM   H13B16726   4.903   6.041   2.716 -3.2918  0.6636 -1.4299
  151OSM   H13C16727   4.849   5.883   2.682 -2.3341  1.0844 -0.8312
  151OSM    C1216728   4.659   6.078   2.744  0.2270 -0.0476  0.6627
  151OSM   H12A16729   4.639   6.031   2.649  1.2009 -0.9369  0.8779
  151OSM   H12B16730   4.716   6.166   2.715  0.5972 -0.5160 -0.0845
  151OSM    C1116731   4.520   6.103   2.792 -0.3100 -0.2662 -0.2126
  151OSM   H11A16732   4.513   6.129   2.900 -1.6883 -3.7300  0.6540
  151OSM   H11B16733   4.465   6.007   2.783 -0.0376 -0.3599 -0.9991
  151OSM      P16734   4.478   6.353   2.735  0.0327  0.0148  0.0978
  151OSM    O1316735   4.620   6.374   2.710  0.0603  0.2576  0.6427
  151OSM    O1416736   4.381   6.431   2.659  0.0913  0.0379  0.2203
  151OSM    O1116737   4.444   6.369   2.889 -1.0319 -0.7600  0.4815
  151OSM    O1216738   4.464   6.199   2.705  0.5777 -0.2223 -0.1920
  151OSM    C1S16739   4.322   6.312   2.935  0.1016  0.1355 -0.0189
  151OSM    H1S16740   4.334   6.204   2.957 -0.6629 -0.0102 -0.2709
  151OSM    H1T16741   4.244   6.329   2.857  2.2439  0.6593 -2.1702
  151OSM     NF16742   4.203   6.324   3.146  0.3353  0.6087 -0.4385
  151OSM    HNF16743   4.105   6.346   3.151  0.5262  1.5846 -0.7636
  151OSM    C2S16744   4.277   6.399   3.059 -0.4165 -0.4323  0.0331
  151OSM    H2S16745   4.369   6.429   3.112 -0.8121 -0.0888  0.5319
  151OSM    C3S16746   4.230   6.541   3.019 -0.0308 -0.5860  0.1331
  151OSM    H3S16747   4.140   6.542   2.953  0.5280  2.0832 -0.7429
  151OSM     O316748   4.320   6.604   2.936 -0.0476 -0.1178  0.4785
  151OSM    HO316749   4.377   6.533   2.907 -1.1348 -1.0570  0.5896
  151OSM    C4S16750   4.202   6.617   3.142  0.0955  0.2761 -0.2708
  151OSM    H4S16751   4.112   6.579   3.192  0.3527  0.6763  0.5192
  151OSM    C5S16752   4.271   6.716   3.198  0.4229 -0.0179  0.5704
  151OSM    H5S16753   4.364   6.761   3.161  0.1744  1.4504  1.6434
  151OSM    C6S16754   4.225   6.790   3.319  0.2315 -0.3918 -0.1993
  151OSM    H6S16755   4.229   6.900   3.303 -0.0905 -0.3189  0.1991
  151OSM    H6T16756   4.284   6.762   3.408  0.3754  1.0882  0.1975
  151OSM    C7S16757   4.079   6.768   3.365  0.1956 -0.1088  0.2810
  151OSM    H7S16758   4.052   6.663   3.391 -3.2045 -0.0014 -2.1726
  151OSM    H7T16759   4.012   6.790   3.279 -0.6384  0.2358  0.9984
  151OSM    C8S16760   4.032   6.859   3.486  0.5676 -0.7215  0.2895
  151OSM    H8S16761   4.071   6.955   3.446  0.1038 -1.0150 -0.8995
  151OSM    H8T16762   4.090   6.850   3.581 -1.3360 -0.3856  1.5482
  151OSM    C9S16763   3.875   6.844   3.512 -0.6089 -0.2613  0.5699
  151OSM    H9S16764   3.854   6.736   3.524  0.3054 -0.6547 -1.1221
  151OSM    H9T16765   3.817   6.892   3.431 -2.0001 -0.1914  1.5782
  151OSM   C10S16766   3.836   6.935   3.644 -0.4396  0.2437  0.7709
  151OSM   H10S16767   3.732   6.974   3.644 -0.7526 -0.2473 -2.6933
  151OSM   H10T16768   3.909   7.019   3.633 -0.3388  0.2642  1.5322
  151OSM   C11S16769   3.858   6.854   3.771  0.3141  0.1893 -0.1705
  151OSM   H11S16770   3.966   6.828   3.779  1.2469  3.0929 -1.7711
  151OSM   H11T16771   3.782   6.774   3.761 -0.4926  0.5477  2.4784
  151OSM   C12S16772   3.830   6.922   3.894 -0.3374  0.5369 -0.7923
  151OSM   H12S16773   3.730   6.970   3.890 -0.1530  0.8810 -1.3755
  151OSM   H12T16774   3.916   6.991   3.910  1.0327 -0.9223 -1.4811
  151OSM   C13S16775   3.826   6.829   4.019  0.0718 -0.1688  0.5196
  151OSM   H13S16776   3.918   6.768   4.023  0.4646  0.3545 -0.3167
  151OSM   H13T16777   3.746   6.752   4.010  0.2850 -0.4147  0.7309
  151OSM   C14S16778   3.836   6.905   4.153  0.4758 -0.1692  0.5063
  151OSM   H14S16779   3.756   6.982   4.159  0.3448 -0.3934  2.7660
  151OSM   H14T16780   3.929   6.964   4.170 -0.1158  0.9260  0.0718
  151OSM   C15S16781   3.814   6.805   4.271 -0.4798 -0.0203 -0.3901
  151OSM   H15S16782   3.734   6.733   4.245 -1.3478 -0.0043  1.9794
  151OSM   H15T16783   3.785   6.859   4.364  2.4636  0.1589  0.5274
  151OSM   C16S16784   3.941   6.735   4.314  0.2868 -0.6239 -0.7901
  151OSM   H16S16785   4.026   6.804   4.301 -0.7853  0.9682  0.3366
  151OSM   H16T16786   3.960   6.651   4.243  2.1486 -0.3272 -0.6883
  151OSM   C17S16787   3.933   6.677   4.456  0.9996 -0.4201  0.1599
  151OSM   H17S16788   3.851   6.714   4.521  0.6039 -0.4181 -0.3332
  151OSM   H17T16789   4.027   6.709   4.506  0.9825  1.6014 -0.9975
  151OSM   C18S16790   3.925   6.523   4.451 -0.2216 -0.5653 -0.0682
  151OSM   H18S16791   4.027   6.485   4.429  0.4558  0.7252  0.7589
  151OSM   H18T16792   3.860   6.484   4.370  0.8771  1.1222 -1.8389
  151OSM   H18U16793   3.882   6.489   4.548 -0.8200  2.4720  0.8156
  151OSM    C1F16794   4.251   6.213   3.212 -0.1714  0.5633  0.0781
  151OSM     OF16795   4.377   6.195   3.207  0.6389  0.0822 -0.3795
  151OSM    C2F16796   4.160   6.120   3.289 -0.7295  0.1138 -0.2325
  151OSM    H2F16797   4.210   6.021   3.291  0.4184  0.6774  0.2066
  151OSM    H2G16798   4.059   6.106   3.245 -0.6476 -0.5079 -0.2210
  151OSM    C3F16799   4.144   6.151   3.445 -0.0895 -0.4115  0.6282
  151OSM    H3F16800   4.233   6.104   3.492 -0.4490 -1.1552  0.5891
  151OSM    H3G16801   4.057   6.087   3.473 -0.6085 -0.4089 -0.8787
  151OSM    C4F16802   4.132   6.293   3.487  0.0178 -0.3463 -0.3472
  151OSM    H4F16803   4.042   6.346   3.447  0.0664  0.4074  0.5010
  151OSM    H4G16804   4.209   6.351   3.433 -0.4071 -0.9180 -1.6004
  151OSM    C5F16805   4.126   6.325   3.638  0.1514 -0.0796  0.1691
  151OSM    H5F16806   4.229   6.307   3.675  0.5877 -1.2628 -1.5030
  151OSM    H5G16807   4.057   6.255   3.689  2.6015  1.3299  6.2604
  151OSM    C6F16808   4.087   6.468   3.664  0.5602  0.0038 -0.1679
  151OSM    H6F16809   3.996   6.501   3.611  0.0191 -1.2396 -0.0460
  151OSM    H6G16810   4.170   6.532   3.625 -0.4168 -0.2695 -2.9502
  151OSM    C7F16811   4.060   6.479   3.815 -0.0450 -0.1069 -0.4964
  151OSM    H7F16812   3.995   6.399   3.857  0.2764 -1.7037 -2.8401
  151OSM    H7G16813   4.007   6.573   3.841 -0.4993 -0.7645  1.0881
  151OSM    C8F16814   4.189   6.461   3.904 -0.3006  0.1213  0.1292
  151OSM    H8F16815   4.276   6.499   3.846 -0.4923 -0.7000 -0.7291
  151OSM    H8G16816   4.221   6.354   3.909 -1.6264 -0.5773 -3.3794
  151OSM    C9F16817   4.182   6.539   4.040  0.1968  0.4669  0.1508
  151OSM    H9F16818   4.166   6.647   4.025  0.3211  0.6807  1.4887
  151OSM   C10F16819   4.195   6.486   4.162  0.3680 -0.4519 -0.1928
  151OSM   H10F16820   4.195   6.556   4.247  1.7984 -2.3793  1.5209
  151OSM   C11F16821   4.201   6.336   4.203  0.4058 -0.6134  0.2280
  151OSM   H11F16822   4.196   6.272   4.112 -0.6547 -0.8830  0.4648
  151OSM   H11G16823   4.111   6.306   4.261  0.3568  1.5930  1.4048
  151OSM   C12F16824   4.325   6.294   4.281 -0.1647  0.1287 -0.4314
  151OSM   H12F16825   4.412   6.330   4.223  0.7378  0.4452  1.0799
  151OSM   H12G16826   4.313   6.183   4.286 -1.1609  0.1913 -0.9851
  151OSM   C13F16827   4.335   6.345   4.435  0.7157 -0.4864  0.7609
  151OSM   H13F16828   4.235   6.317   4.475  0.5594 -1.8108 -0.4705
  151OSM   H13G16829   4.353   6.454   4.441  0.2348 -0.3624  0.1679
  151OSM   C14F16830   4.434   6.253   4.507 -0.1457 -0.5678 -0.0530
  151OSM   H14F16831   4.534   6.249   4.457  0.2343 -0.6435  0.6955
  151OSM   H14G16832   4.383   6.155   4.509  0.6680 -1.0288 -0.8675
  151OSM   C15F16833   4.470   6.300   4.649 -0.1836  0.2718  0.1722
  151OSM   H15F16834   4.527   6.395   4.652  1.6426 -0.7406 -0.8138
  151OSM   H15G16835   4.531   6.213   4.680 -1.0803 -0.1490  0.7855
  151OSM   C16F16836   4.350   6.309   4.740  0.1061  0.7101  0.1531
  151OSM   H16F16837   4.297   6.212   4.755  0.6919  0.3989  0.2496
  151OSM   H16G16838   4.277   6.381   4.698 -0.2749  1.2709  1.7280
  151OSM   C17F16839   4.391   6.370   4.876 -0.0804 -0.0062  0.3485
  151OSM   H17F16840   4.461   6.456   4.870  0.9010 -0.8343 -0.1524
  151OSM   H17G16841   4.447   6.284   4.917  1.9782  0.7812 -0.7082
  151OSM   C18F16842   4.267   6.401   4.955  0.3547  0.0867 -0.7007
  151OSM   H18F16843   4.284   6.439   5.058 -1.5181  0.5016 -0.4966
  151OSM   H18G16844   4.198   6.314   4.967  2.3949 -1.3510  1.6562
  151OSM   H18H16845   4.216   6.485   4.903  3.1301  1.3027 -1.6018
  152OSM      N16846   3.216   1.503   2.418  0.0264  0.6284  0.5030
  152OSM    C1516847   3.093   1.512   2.324  0.0881  0.3311 -0.1915
  152OSM   H15A16848   3.087   1.613   2.285  2.4657  1.4346  1.9817
  152OSM   H15B16849   3.000   1.480   2.368 -0.0066  1.0155  0.1183
  152OSM   H15C16850   3.104   1.443   2.241 -0.7363 -1.0175  0.7910
  152OSM    C1416851   3.332   1.541   2.329  0.2991 -0.0264 -0.1499
  152OSM   H14A16852   3.324   1.472   2.246  1.2188 -2.2623  1.5257
  152OSM   H14B16853   3.429   1.525   2.374  2.6095  3.0699 -3.5000
  152OSM   H14C16854   3.341   1.644   2.297  0.9454 -0.6523 -2.1352
  152OSM    C1316855   3.208   1.601   2.529 -0.5178  0.0976  0.6757
  152OSM   H13A16856   3.304   1.615   2.577  0.2311 -0.3609 -0.6409
  152OSM   H13B16857   3.141   1.571   2.608 -0.1311 -0.0516  0.9500
  152OSM   H13C16858   3.171   1.690   2.481  0.9126  1.0789  1.3200
  152OSM    C1216859   3.223   1.364   2.459 -0.0705  0.1879 -0.0494
  152OSM   H12A16860   3.230   1.306   2.368  2.3436 -0.3012  0.3908
  152OSM   H12B16861   3.131   1.333   2.506  0.0617  1.2821  0.9610
  152OSM    C1116862   3.334   1.318   2.558  0.1478  0.2426 -0.1922
  152OSM   H11A16863   3.318   1.209   2.578 -3.7536  0.3706 -1.7564
  152OSM   H11B16864   3.315   1.372   2.653  0.0559 -0.4844  0.2133
  152OSM      P16865   3.592   1.265   2.480  0.7547 -0.0865 -0.1559
  152OSM    O1316866   3.554   1.152   2.401  0.1012 -0.0108  0.5628
  152OSM    O1416867   3.688   1.364   2.425 -0.0566 -0.6840  0.1503
  152OSM    O1116868   3.646   1.216   2.618  0.2321  0.7797 -0.2203
  152OSM    O1216869   3.468   1.351   2.522  0.2240 -0.2094 -0.4717
  152OSM    C1S16870   3.594   1.108   2.698  0.5691  0.1376 -0.8354
  152OSM    H1S16871   3.630   1.007   2.672  0.0112 -0.1940 -0.3338
  152OSM    H1T16872   3.484   1.105   2.690  0.5698  0.2188 -0.8902
  152OSM     NF16873   3.609   0.996   2.916  0.0455  0.2408 -0.3935
  152OSM    HNF16874   3.519   0.980   2.957  0.8875 -0.9344  1.0769
  152OSM    C2S16875   3.626   1.122   2.851 -0.0724  0.3135 -0.9392
  152OSM    H2S16876   3.735   1.137   2.865 -0.1429  0.5885 -0.6802
  152OSM    C3S16877   3.551   1.234   2.922  1.2628 -0.0399  0.6350
  152OSM    H3S16878   3.441   1.216   2.919  1.3341 -0.5299  0.9289
  152OSM     O316879   3.580   1.356   2.849 -0.0566 -0.3910  0.6526
  152OSM    HO316880   3.631   1.332   2.772  1.1634 -0.0861  1.3476
  152OSM    C4S16881   3.586   1.240   3.068  0.4199 -0.4603 -0.0544
  152OSM    H4S16882   3.682   1.291   3.086 -0.1375  0.1695  1.2438
  152OSM    C5S16883   3.514   1.193   3.172  0.4074  0.0780  1.1643
  152OSM    H5S16884   3.414   1.148   3.161  0.4155  0.3159 -0.0464
  152OSM    C6S16885   3.570   1.193   3.304  0.4965  0.7941 -0.0075
  152OSM    H6S16886   3.673   1.234   3.307  1.2579 -0.8813 -1.4355
  152OSM    H6T16887   3.571   1.092   3.350 -1.1044  0.5189 -0.4922
  152OSM    C7S16888   3.490   1.276   3.403  0.3933  0.6391  0.3387
  152OSM    H7S16889   3.388   1.232   3.410  0.8871 -0.3508  1.7665
  152OSM    H7T16890   3.478   1.379   3.363 -0.2199  0.2045 -0.6185
  152OSM    C8S16891   3.547   1.268   3.548 -0.4402  0.2740  0.5625
  152OSM    H8S16892   3.652   1.306   3.549 -0.3639  0.2523 -1.5639
  152OSM    H8T16893   3.547   1.160   3.573  2.7081  0.8918  4.0966
  152OSM    C9S16894   3.456   1.361   3.633  0.4385  0.4003  0.7956
  152OSM    H9S16895   3.356   1.347   3.587  0.4039 -2.4355  1.5810
  152OSM    H9T16896   3.491   1.466   3.622 -0.0406  0.3861 -1.4343
  152OSM   C10S16897   3.445   1.325   3.783  0.8492 -0.0836 -0.9793
  152OSM   H10S16898   3.403   1.224   3.805  1.9049 -0.1535  0.9916
  152OSM   H10T16899   3.374   1.396   3.831  2.0335 -0.1062  0.9173
  152OSM   C11S16900   3.579   1.333   3.855 -0.5219 -0.3873  0.0040
  152OSM   H11S16901   3.600   1.439   3.830  0.9516 -1.1883 -2.5861
  152OSM   H11T16902   3.655   1.265   3.811  1.2886  1.6818 -0.1968
  152OSM   C12S16903   3.582   1.293   4.000  0.0270  0.4526  0.3935
  152OSM   H12S16904   3.689   1.292   4.029  0.1285 -3.1422  0.4085
  152OSM   H12T16905   3.546   1.189   4.017 -2.0173  1.3237  1.8803
  152OSM   C13S16906   3.495   1.387   4.081 -0.4850  0.1054 -0.6327
  152OSM   H13S16907   3.391   1.382   4.041 -0.5919 -0.9023 -0.2581
  152OSM   H13T16908   3.529   1.493   4.072 -0.7265  0.5490  2.5233
  152OSM   C14S16909   3.478   1.355   4.233 -0.2175  0.0856 -0.1189
  152OSM   H14S16910   3.434   1.253   4.229 -0.3286  0.0738  1.0114
  152OSM   H14T16911   3.406   1.420   4.286 -0.0203 -0.9437  1.4982
  152OSM   C15S16912   3.616   1.355   4.292  0.3095  0.1703  0.1631
  152OSM   H15S16913   3.671   1.448   4.263 -0.8760  0.5073 -1.0777
  152OSM   H15T16914   3.675   1.271   4.249  1.1394  0.8629 -0.0987
  152OSM   C16S16915   3.604   1.342   4.444  0.2850  0.1154 -0.5815
  152OSM   H16S16916   3.553   1.246   4.464  2.8803 -1.5689 -1.5900
  152OSM   H16T16917   3.533   1.425   4.467 -0.2443 -0.6289  0.5757
  152OSM   C17S16918   3.731   1.342   4.529 -0.6146 -0.5367 -0.0555
  152OSM   H17S16919   3.703   1.333   4.636 -0.5321  0.6276  0.0713
  152OSM   H17T16920   3.771   1.445   4.517 -0.1932 -0.8576 -1.6288
  152OSM   C18S16921   3.823   1.224   4.494 -0.0559  0.4135 -0.8790
  152OSM   H18S16922   3.821   1.211   4.384  0.6948 -0.5435 -0.7950
  152OSM   H18T16923   3.775   1.134   4.539  0.8054  0.4740  0.1982
  152OSM   H18U16924   3.928   1.233   4.530 -0.1579 -3.1084  0.6935
  152OSM    C1F16925   3.688   0.887   2.892 -0.0363  0.5842  0.4074
  152OSM     OF16926   3.799   0.911   2.835  0.3377  0.0310  0.5438
  152OSM    C2F16927   3.649   0.749   2.931 -0.0643 -0.2681 -0.4472
  152OSM    H2F16928   3.688   0.681   2.851  2.5267  1.5349 -0.8456
  152OSM    H2G16929   3.539   0.741   2.940 -0.0666  0.0453 -0.1969
  152OSM    C3F16930   3.720   0.706   3.055 -0.4122  0.2766  0.1021
  152OSM    H3F16931   3.831   0.706   3.045 -0.4485  3.5977 -1.7599
  152OSM    H3G16932   3.687   0.601   3.067 -1.0336  0.2493 -1.6427
  152OSM    C4F16933   3.689   0.797   3.180  0.1056 -0.0957 -0.1431
  152OSM    H4F16934   3.582   0.791   3.208 -0.2869 -1.0013 -1.7039
  152OSM    H4G16935   3.718   0.901   3.154 -1.1431  0.2780 -0.1296
  152OSM    C5F16936   3.759   0.744   3.305 -0.1438 -0.6569 -0.9842
  152OSM    H5F16937   3.870   0.740   3.291  0.3620  1.8205  1.4902
  152OSM    H5G16938   3.718   0.645   3.336 -0.2501  0.1818  1.9367
  152OSM    C6F16939   3.729   0.834   3.428  0.1285  0.2025 -0.4270
  152OSM    H6F16940   3.620   0.852   3.434 -0.1365 -1.4495  0.1601
  152OSM    H6G16941   3.782   0.928   3.402  2.3025 -1.7530 -4.1201
  152OSM    C7F16942   3.808   0.784   3.551 -0.4975  0.4081 -0.1468
  152OSM    H7F16943   3.898   0.729   3.516  0.2070  1.7711 -0.6000
  152OSM    H7G16944   3.742   0.727   3.619  0.1018  0.0894  0.1777
  152OSM    C8F16945   3.859   0.899   3.635 -0.4770  0.5354  0.0588
  152OSM    H8F16946   3.763   0.941   3.674 -1.3495 -2.3944  1.4270
  152OSM    H8G16947   3.902   0.967   3.559 -3.0518 -1.0260 -3.0202
  152OSM    C9F16948   3.958   0.859   3.741  0.2767  0.0402 -0.1007
  152OSM    H9F16949   4.064   0.839   3.721 -0.2069 -3.3283  0.1987
  152OSM   C10F16950   3.925   0.878   3.868  0.7708 -0.3269  0.0414
  152OSM   H10F16951   4.001   0.867   3.947 -1.6902  0.2211  2.6479
  152OSM   C11F16952   3.780   0.918   3.923  0.5216  1.0637 -0.8576
  152OSM   H11F16953   3.704   0.868   3.860  1.2471  0.4131 -1.2368
  152OSM   H11G16954   3.769   1.027   3.944 -0.9460  0.5978  0.9104
  152OSM   C12F16955   3.770   0.861   4.065  0.6683 -0.8762  0.0813
  152OSM   H12F16956   3.850   0.902   4.130 -0.2476  0.7541  0.2263
  152OSM   H12G16957   3.777   0.750   4.059 -0.4186 -0.9384 -0.4437
  152OSM   C13F16958   3.630   0.905   4.116 -0.4782  0.2361  0.2395
  152OSM   H13F16959   3.548   0.855   4.062 -1.3253  1.3091  0.4942
  152OSM   H13G16960   3.624   1.014   4.094  2.8492  0.1841 -1.4593
  152OSM   C14F16961   3.599   0.868   4.265  0.1418 -0.1396 -0.0470
  152OSM   H14F16962   3.689   0.895   4.324  0.1873  0.7452 -0.5062
  152OSM   H14G16963   3.600   0.757   4.262  0.3675 -0.1717  0.9895
  152OSM   C15F16964   3.473   0.933   4.328  0.0372 -0.0168  0.5746
  152OSM   H15F16965   3.399   0.952   4.247  0.2249 -0.5426  0.2753
  152OSM   H15G16966   3.517   1.025   4.373  1.2428 -1.3919  2.3802
  152OSM   C16F16967   3.421   0.853   4.443 -0.0901 -0.5445 -0.1627
  152OSM   H16F16968   3.504   0.843   4.515  0.0948  0.6981 -0.1859
  152OSM   H16G16969   3.392   0.751   4.409  1.5894 -0.3725 -2.3170
  152OSM   C17F16970   3.298   0.923   4.508  0.3570 -0.0143 -0.3592
  152OSM   H17F16971   3.217   0.921   4.432  0.2646 -0.4589 -0.2520
  152OSM   H17G16972   3.328   1.028   4.528  0.1043  0.5914 -2.7839
  152OSM   C18F16973   3.239   0.873   4.635 -0.6261 -0.3600 -0.5064
  152OSM   H18F16974   3.156   0.932   4.680 -1.3886 -2.0733  0.4657
  152OSM   H18G16975   3.314   0.872   4.717 -1.1188  2.7872  0.0943
  152OSM   H18H16976   3.208   0.767   4.621  2.0104 -1.3392  0.4888
  153OSM      N16977   6.715   2.618   3.280 -0.3410 -0.1304 -0.6574
  153OSM    C1516978   6.841   2.606   3.202 -0.1841  0.1059  0.4155
  153OSM   H15A16979   6.828   2.528   3.128 -1.7700  0.7090  0.0330
  153OSM   H15B16980   6.916   2.565   3.269 -1.4989 -0.9241  1.2992
  153OSM   H15C16981   6.869   2.699   3.156  1.6509  0.8720  2.8261
  153OSM    C1416982   6.745   2.707   3.394  0.2319  0.6995  0.5935
  153OSM   H14A16983   6.779   2.801   3.353  1.3907  0.6830  1.4619
  153OSM   H14B16984   6.816   2.665   3.464  1.1172 -1.4437 -1.4706
  153OSM   H14C16985   6.654   2.729   3.448 -0.7405 -1.1718 -0.2061
  153OSM    C1316986   6.596   2.680   3.206  0.2907  0.0020  0.1613
  153OSM   H13A16987   6.576   2.620   3.118  0.9164 -1.8288  1.1995
  153OSM   H13B16988   6.622   2.782   3.184 -1.3113  0.3439 -0.3005
  153OSM   H13C16989   6.509   2.694   3.268  0.1569  1.7729 -0.3867
  153OSM    C1216990   6.673   2.484   3.341  0.7415  0.2571  0.1017
  153OSM   H12A16991   6.591   2.494   3.411  0.2099 -1.1758 -0.2700
  153OSM   H12B16992   6.754   2.440   3.398  0.2219 -1.5790 -0.5037
  153OSM    C1116993   6.626   2.382   3.235 -0.1756 -0.5631 -0.4844
  153OSM   H11A16994   6.538   2.430   3.187 -0.9254  0.7628  2.0223
  153OSM   H11B16995   6.581   2.292   3.282  0.5231 -0.5974  0.1412
  153OSM      P16996   6.804   2.222   3.142 -0.2448 -0.0557 -0.1971
  153OSM    O1316997   6.701   2.117   3.132  0.1537  0.5530 -0.1108
  153OSM    O1416998   6.923   2.216   3.054  0.2292 -0.1588  0.7589
  153OSM    O1116999   6.863   2.226   3.295 -0.1714  0.0814  0.2190
  153OSM    O1217000   6.721   2.354   3.137  0.1208 -0.8379  0.1945
  153OSM    C1S17001   6.978   2.298   3.325  0.5974 -0.2295  0.4708
  153OSM    H1S17002   6.966   2.408   3.312  1.1430 -0.3438 -1.2302
  153OSM    H1T17003   7.068   2.272   3.265  1.7145  1.9268  1.1140
  153OSM     NF17004   7.105   2.367   3.525 -0.2002 -0.2340 -0.6252
  153OSM    HNF17005   7.203   2.355   3.511  0.2875  0.8595  1.4585
  153OSM    C2S17006   7.010   2.272   3.475 -0.0035  0.1190  0.8778
  153OSM    H2S17007   6.919   2.269   3.538 -1.2803  1.7221 -0.7770
  153OSM    C3S17008   7.064   2.123   3.492 -0.1512 -1.0312 -0.0065
  153OSM    H3S17009   7.158   2.123   3.432 -0.4288 -1.3134 -0.4504
  153OSM     O317010   6.993   2.020   3.421 -0.5109 -0.6244  0.5185
  153OSM    HO317011   6.930   2.069   3.368  0.6189 -0.2131 -0.4843
  153OSM    C4S17012   7.102   2.085   3.627  0.0428  0.4136  0.4797
  153OSM    H4S17013   7.208   2.098   3.651 -0.6719  1.0346  3.6810
  153OSM    C5S17014   7.012   2.043   3.718 -0.0916  0.4747  0.5506
  153OSM    H5S17015   6.903   2.051   3.703  0.2416  2.1496 -1.3762
  153OSM    C6S17016   7.047   1.998   3.854  0.2300  0.3232 -0.1695
  153OSM    H6S17017   7.101   1.902   3.846 -2.0132 -1.0330  0.3410
  153OSM    H6T17018   6.959   1.975   3.918 -1.0780  1.1450 -1.6271
  153OSM    C7S17019   7.131   2.106   3.928 -0.1753  0.2396 -0.3610
  153OSM    H7S17020   7.071   2.198   3.941 -0.4947 -0.2072  1.5393
  153OSM    H7T17021   7.220   2.138   3.869  1.8732  3.1839  3.8198
  153OSM    C8S17022   7.195   2.065   4.066  0.5715  0.4608 -0.8332
  153OSM    H8S17023   7.274   2.137   4.097 -1.9003  1.4421  4.2504
  153OSM    H8T17024   7.239   1.967   4.038 -1.6786 -0.4194 -1.5693
  153OSM    C9S17025   7.086   2.048   4.172 -0.3893 -0.3818  0.5899
  153OSM    H9S17026   7.018   1.969   4.134 -0.6744 -0.7302  1.7735
  153OSM    H9T17027   7.037   2.147   4.173  1.8122  0.8252 -1.3975
  153OSM   C10S17028   7.138   2.031   4.311 -0.0108 -0.0067  0.0473
  153OSM   H10S17029   7.222   2.102   4.330 -1.0196  1.4143 -0.6401
  153OSM   H10T17030   7.181   1.929   4.326  0.4345  0.3268  1.1914
  153OSM   C11S17031   7.029   2.044   4.417  0.7574  0.2439 -0.2334
  153OSM   H11S17032   6.951   1.970   4.391  0.2697  0.7404 -0.1891
  153OSM   H11T17033   6.986   2.146   4.420 -0.5095 -0.3103  1.2854
  153OSM   C12S17034   7.084   1.989   4.553  0.1437 -0.3273 -0.1183
  153OSM   H12S17035   7.189   2.023   4.564  0.7442 -1.4301 -2.1300
  153OSM   H12T17036   7.102   1.880   4.547 -0.5007 -0.4961  0.7171
  153OSM   C13S17037   6.988   2.037   4.669 -0.1370 -0.8300 -0.2070
  153OSM   H13S17038   7.016   2.003   4.771  0.2858  0.2281  0.0404
  153OSM   H13T17039   6.891   1.990   4.641 -0.0343  0.9403 -4.0605
  153OSM   C14S17040   6.951   2.190   4.677  0.2952 -0.0351 -0.1804
  153OSM   H14S17041   6.856   2.216   4.625 -0.0525 -0.6437  0.1335
  153OSM   H14T17042   7.027   2.247   4.619 -1.0486  1.4316 -0.5677
  153OSM   C15S17043   6.955   2.258   4.817 -0.4691  0.6678  0.1974
  153OSM   H15S17044   6.878   2.204   4.876 -0.8261  1.7072  0.7151
  153OSM   H15T17045   6.929   2.365   4.805  0.5689  0.9778  0.5554
  153OSM   C16S17046   7.092   2.238   4.883 -0.6490 -0.4964 -0.4178
  153OSM   H16S17047   7.162   2.295   4.819  0.6941 -0.7420  0.7911
  153OSM   H16T17048   7.142   2.139   4.881  0.5805  0.0031  1.8542
  153OSM   C17S17049   7.096   2.285   5.025 -0.1600 -0.2678  0.4745
  153OSM   H17S17050   7.016   2.237   5.085 -0.9734  1.0608  0.4796
  153OSM   H17T17051   7.066   2.391   5.022  1.4978  0.2995  1.9220
  153OSM   C18S17052   7.228   2.267   5.099 -0.4663  0.9070 -0.5248
  153OSM   H18S17053   7.257   2.164   5.128 -1.5903  0.3756 -1.2221
  153OSM   H18T17054   7.220   2.325   5.193  1.7648  0.4663 -0.0101
  153OSM   H18U17055   7.301   2.321   5.036  0.5063  0.0963 -0.1274
  153OSM    C1F17056   7.078   2.496   3.543  0.1848  1.0921  0.0279
  153OSM     OF17057   6.967   2.539   3.550  0.7069 -0.3439 -0.2493
  153OSM    C2F17058   7.196   2.588   3.549  0.2353 -0.2842 -0.4289
  153OSM    H2F17059   7.271   2.555   3.475  0.3945 -2.1033  0.4793
  153OSM    H2G17060   7.249   2.576   3.646  0.2758  1.6515 -0.1714
  153OSM    C3F17061   7.153   2.734   3.508  0.1121 -0.2147 -0.5084
  153OSM    H3F17062   7.094   2.773   3.594 -3.4708 -2.0296 -1.9670
  153OSM    H3G17063   7.083   2.738   3.422  0.6387  0.3454 -0.9265
  153OSM    C4F17064   7.261   2.840   3.468 -0.0257  0.0704  0.0957
  153OSM    H4F17065   7.223   2.941   3.443  0.5283 -0.2048 -2.0894
  153OSM    H4G17066   7.307   2.799   3.376  1.7061 -1.7901  1.6862
  153OSM    C5F17067   7.370   2.848   3.574 -0.2304 -0.1634 -0.6079
  153OSM    H5F17068   7.447   2.917   3.535  0.4552 -1.9374 -2.5806
  153OSM    H5G17069   7.416   2.747   3.586  2.0332  0.9528  0.5464
  153OSM    C6F17070   7.313   2.916   3.695  0.0676 -0.2532  0.1324
  153OSM    H6F17071   7.216   2.873   3.730  0.3950 -0.4103  0.8777
  153OSM    H6G17072   7.281   3.020   3.674  1.8761  0.2915 -0.0447
  153OSM    C7F17073   7.413   2.907   3.812  0.1892 -0.0923 -0.0563
  153OSM    H7F17074   7.507   2.948   3.770  1.0004  0.9698  2.6068
  153OSM    H7G17075   7.439   2.802   3.839 -1.4964 -0.5798 -0.1577
  153OSM    C8F17076   7.372   2.980   3.944  0.3124 -0.0988 -0.0179
  153OSM    H8F17077   7.327   3.081   3.931 -0.5103 -0.4217  0.2876
  153OSM    H8G17078   7.467   2.994   4.001 -0.6237  0.2745  1.5227
  153OSM    C9F17079   7.273   2.899   4.032  0.0933 -0.2285  0.4494
  153OSM    H9F17080   7.182   2.871   3.976 -0.5260  0.3761  1.1249
  153OSM   C10F17081   7.276   2.878   4.161  0.5057  0.0778  0.5154
  153OSM   H10F17082   7.207   2.816   4.220  0.1565  0.5973  0.6548
  153OSM   C11F17083   7.384   2.930   4.254 -0.3807  0.5494  0.2536
  153OSM   H11F17084   7.483   2.883   4.238 -0.7859 -0.4931  0.7344
  153OSM   H11G17085   7.365   2.902   4.360  2.4774 -0.2423  0.6412
  153OSM   C12F17086   7.380   3.083   4.260 -0.5521  0.4326  0.7542
  153OSM   H12F17087   7.281   3.118   4.297  0.4010  2.8919  1.1787
  153OSM   H12G17088   7.404   3.122   4.158  0.5466 -0.8704  0.4768
  153OSM   C13F17089   7.475   3.135   4.365 -0.4345 -0.4613 -0.2166
  153OSM   H13F17090   7.472   3.245   4.378 -0.7452 -0.6299  1.3255
  153OSM   H13G17091   7.578   3.100   4.342 -0.3896  0.4301 -1.4576
  153OSM   C14F17092   7.467   3.088   4.514 -0.2588  0.4944  0.0888
  153OSM   H14F17093   7.558   3.127   4.564 -0.1716 -0.7402  0.9432
  153OSM   H14G17094   7.487   2.979   4.526 -1.5710  0.1675 -0.4291
  153OSM   C15F17095   7.337   3.152   4.582  0.1416  0.0693 -0.2460
  153OSM   H15F17096   7.251   3.091   4.546 -1.3890  0.1191  2.9980
  153OSM   H15G17097   7.324   3.256   4.543  1.9276  0.6953  0.7192
  153OSM   C16F17098   7.352   3.160   4.729 -0.0684 -0.3285 -0.0264
  153OSM   H16F17099   7.286   3.242   4.765  0.8111  2.1903 -3.6379
  153OSM   H16G17100   7.459   3.177   4.757 -0.2639  0.8318  0.0772
  153OSM   C17F17101   7.320   3.025   4.795 -0.5589 -0.1412  0.0619
  153OSM   H17F17102   7.400   2.950   4.774 -2.0835 -1.5317 -1.0737
  153OSM   H17G17103   7.225   2.985   4.752 -0.7808 -0.5360  0.9110
  153OSM   C18F17104   7.302   3.028   4.946 -0.3717 -0.2039 -0.0633
  153OSM   H18F17105   7.394   3.031   5.009 -0.7193 -0.3195  0.4657
  153OSM   H18G17106   7.252   2.937   4.985  0.9448 -0.6177  0.7253
  153OSM   H18H17107   7.237   3.107   4.990  1.1401 -0.1035  2.2257
  154OSM      N17108   0.661   5.755   2.382 -0.9614  0.2142 -0.0735
  154OSM    C1517109   0.751   5.873   2.361  0.0946  0.5184  0.4584
  154OSM   H15A17110   0.816   5.883   2.447  1.4740 -0.0215 -0.4925
  154OSM   H15B17111   0.695   5.966   2.357 -0.8180 -0.0528 -1.0067
  154OSM   H15C17112   0.809   5.863   2.271  1.4637 -0.4079  1.4232
  154OSM    C1417113   0.615   5.710   2.250  0.6476 -0.3290  0.4269
  154OSM   H14A17114   0.564   5.616   2.246 -0.7305  0.3713  0.9366
  154OSM   H14B17115   0.694   5.705   2.176  1.9743  0.1554  1.7526
  154OSM   H14C17116   0.537   5.776   2.216 -0.5936 -0.9483  1.9756
  154OSM    C1317117   0.739   5.640   2.446  0.0282  0.4256 -0.2038
  154OSM   H13A17118   0.804   5.681   2.522 -1.3447  1.6273  0.3736
  154OSM   H13B17119   0.807   5.594   2.377  0.3137  3.1646 -1.8915
  154OSM   H13C17120   0.676   5.559   2.480 -2.7568  2.3915 -0.3299
  154OSM    C1217121   0.543   5.798   2.475  0.0411  0.0028 -0.3298
  154OSM   H12A17122   0.481   5.710   2.489 -2.2809  1.7457  1.0933
  154OSM   H12B17123   0.482   5.864   2.415  2.3054 -0.3038 -3.1767
  154OSM    C1117124   0.572   5.849   2.615 -0.0224  0.6655 -0.7140
  154OSM   H11A17125   0.642   5.771   2.652 -0.2541  0.0944 -1.4560
  154OSM   H11B17126   0.484   5.843   2.683 -1.0265  1.8264 -1.8748
  154OSM      P17127   0.510   6.087   2.582 -0.1578  0.0591 -0.1234
  154OSM    O1317128   0.573   6.208   2.523 -0.2627  1.0650  0.4086
  154OSM    O1417129   0.401   6.028   2.498 -0.0431  0.7431  0.1303
  154OSM    O1117130   0.463   6.125   2.731 -0.2068 -0.1269  0.5689
  154OSM    O1217131   0.624   5.982   2.607 -0.8136 -0.4830 -0.2617
  154OSM    C1S17132   0.570   6.147   2.818 -0.0272 -0.5534 -0.0936
  154OSM    H1S17133   0.622   6.240   2.789 -2.1801  0.1831 -1.9187
  154OSM    H1T17134   0.650   6.070   2.826  0.8840  0.2012 -1.6168
  154OSM     NF17135   0.633   6.189   3.053  0.6533  0.5010 -0.5051
  154OSM    HNF17136   0.672   6.102   3.082  2.1409  1.3746  0.2495
  154OSM    C2S17137   0.524   6.167   2.963 -0.4248  0.9919 -1.0382
  154OSM    H2S17138   0.460   6.258   2.973  0.8040  1.6973  1.0719
  154OSM    C3S17139   0.432   6.050   3.020 -0.7160 -0.2000  0.3959
  154OSM    H3S17140   0.503   5.965   3.024 -1.3511 -0.7278  0.8815
  154OSM     O317141   0.329   6.016   2.932  0.5256  0.6162 -0.1089
  154OSM    HO317142   0.347   6.061   2.849  0.5593 -0.8970 -0.9628
  154OSM    C4S17143   0.372   6.091   3.148  0.3092 -0.2486 -0.2110
  154OSM    H4S17144   0.323   6.189   3.147  1.3116  0.3299  1.7527
  154OSM    C5S17145   0.390   6.024   3.261  0.0685 -0.2742 -0.7446
  154OSM    H5S17146   0.447   5.931   3.269  0.0767 -0.1984  0.2507
  154OSM    C6S17147   0.322   6.062   3.389 -0.0095  0.2659 -0.2314
  154OSM    H6S17148   0.265   5.974   3.425  0.8850 -0.1788  0.1137
  154OSM    H6T17149   0.273   6.162   3.386 -1.8718 -0.6475 -1.2205
  154OSM    C7S17150   0.429   6.085   3.495 -0.3872  0.0464 -0.1215
  154OSM    H7S17151   0.490   6.176   3.476  0.6902 -0.4529  0.8050
  154OSM    H7T17152   0.495   5.997   3.504 -0.7114 -0.2441 -0.5368
  154OSM    C8S17153   0.359   6.119   3.623  0.6898 -0.3509 -0.1095
  154OSM    H8S17154   0.316   6.026   3.667 -0.8348  1.1302  1.7471
  154OSM    H8T17155   0.286   6.202   3.607  0.3554 -0.7748 -0.8472
  154OSM    C9S17156   0.461   6.173   3.723 -0.1245  0.1116  0.5038
  154OSM    H9S17157   0.488   6.275   3.690  0.6049  0.3015  1.6463
  154OSM    H9T17158   0.560   6.122   3.717  0.2507  0.8246  0.5870
  154OSM   C10S17159   0.402   6.165   3.863  0.8650  0.7372  0.5514
  154OSM   H10S17160   0.400   6.057   3.888 -0.8919  0.1260 -1.8489
  154OSM   H10T17161   0.296   6.200   3.865  0.7633  0.4183  0.8054
  154OSM   C11S17162   0.496   6.250   3.952  0.1344 -0.4349 -0.1971
  154OSM   H11S17163   0.490   6.356   3.919 -0.2368 -0.8413 -1.4833
  154OSM   H11T17164   0.604   6.226   3.940  0.6069  0.3993  1.9651
  154OSM   C12S17165   0.477   6.236   4.100  0.0616  0.3420 -0.4393
  154OSM   H12S17166   0.540   6.303   4.162 -0.0077 -0.0463  0.0532
  154OSM   H12T17167   0.504   6.134   4.132 -0.4921  0.3562  0.0916
  154OSM   C13S17168   0.334   6.260   4.145 -0.6154 -0.0327 -0.1530
  154OSM   H13S17169   0.271   6.175   4.111  0.8974 -0.3103 -2.4537
  154OSM   H13T17170   0.285   6.350   4.104 -1.7087 -1.0692 -1.2061
  154OSM   C14S17171   0.324   6.278   4.297  0.3210 -0.3939  0.5656
  154OSM   H14S17172   0.226   6.326   4.314  0.2890 -0.3430  0.2475
  154OSM   H14T17173   0.399   6.351   4.334  0.4516 -0.3201  0.1633
  154OSM   C15S17174   0.342   6.146   4.376 -0.0298 -0.1311  0.1205
  154OSM   H15S17175   0.442   6.103   4.355  1.5232  2.5339  1.6048
  154OSM   H15T17176   0.257   6.083   4.340 -1.5415  0.8327  1.8320
  154OSM   C16S17177   0.312   6.165   4.532 -0.3146 -0.5134 -0.2531
  154OSM   H16S17178   0.211   6.210   4.543  0.7184  1.8619  0.2280
  154OSM   H16T17179   0.380   6.241   4.576 -0.3506  1.4013 -3.2200
  154OSM   C17S17180   0.324   6.024   4.599 -0.3375 -0.5978 -0.9178
  154OSM   H17S17181   0.419   5.985   4.559 -0.0302 -2.3400  1.2559
  154OSM   H17T17182   0.244   5.960   4.557  0.2978 -3.6948  2.1318
  154OSM   C18S17183   0.327   6.017   4.752  0.1487  0.3496 -0.2648
  154OSM   H18S17184   0.306   5.911   4.776  0.7928  0.2282 -0.2427
  154OSM   H18T17185   0.255   6.091   4.794 -0.8512  0.8489 -2.6689
  154OSM   H18U17186   0.428   6.054   4.777 -0.2583  0.7647  0.8750
  154OSM    C1F17187   0.700   6.302   3.038 -0.9938 -0.3405 -0.4367
  154OSM     OF17188   0.648   6.399   2.982 -0.2581  0.5646  0.4287
  154OSM    C2F17189   0.842   6.294   3.082  0.4669 -0.6431 -0.5658
  154OSM    H2F17190   0.900   6.259   2.993  0.2996 -3.3078  0.2842
  154OSM    H2G17191   0.846   6.220   3.165  0.7521  1.1902  1.1228
  154OSM    C3F17192   0.895   6.426   3.143  1.0877  0.2723  0.1201
  154OSM    H3F17193   0.910   6.500   3.061  0.0246 -0.6260 -0.9223
  154OSM    H3G17194   1.001   6.409   3.172  1.3436  0.6673 -0.5446
  154OSM    C4F17195   0.820   6.492   3.263 -0.5664 -0.0455 -0.4918
  154OSM    H4F17196   0.821   6.426   3.352  2.9956 -1.2011 -1.2186
  154OSM    H4G17197   0.717   6.525   3.234 -0.3674  0.3082 -0.8021
  154OSM    C5F17198   0.893   6.620   3.312  0.7802  0.2534 -0.5792
  154OSM    H5F17199   0.898   6.695   3.231 -0.8326  2.2835  1.0859
  154OSM    H5G17200   0.995   6.582   3.333  0.5852  0.2472  0.4011
  154OSM    C6F17201   0.829   6.696   3.424 -0.8698 -0.6121 -0.3541
  154OSM    H6F17202   0.728   6.726   3.390 -1.5356 -2.6625 -0.3039
  154OSM    H6G17203   0.901   6.780   3.438  0.2416 -1.3275 -1.4955
  154OSM    C7F17204   0.805   6.613   3.546 -0.5992 -0.1177  0.0858
  154OSM    H7F17205   0.903   6.563   3.561 -0.7725 -0.5273 -0.1123
  154OSM    H7G17206   0.735   6.528   3.532  1.5711 -1.8740 -0.7548
  154OSM    C8F17207   0.762   6.687   3.672 -0.3547 -0.3425  0.1874
  154OSM    H8F17208   0.725   6.614   3.748  0.6918  0.1412  1.1862
  154OSM    H8G17209   0.680   6.750   3.632  0.8061  0.7263 -0.5643
  154OSM    C9F17210   0.864   6.779   3.738 -0.2264  0.1787  0.3459
  154OSM    H9F17211   0.893   6.867   3.678 -0.1709 -0.7429 -1.0211
  154OSM   C10F17212   0.915   6.774   3.865  0.6151 -0.6132  0.0632
  154OSM   H10F17213   0.983   6.856   3.895  0.4109 -0.0228 -1.0379
  154OSM   C11F17214   0.884   6.679   3.979  0.1168 -0.6052  0.5524
  154OSM   H11F17215   0.982   6.644   4.017 -1.1184 -2.4374  2.3090
  154OSM   H11G17216   0.822   6.593   3.946 -0.4322 -0.0125 -0.0178
  154OSM   C12F17217   0.810   6.770   4.083 -0.3638  0.2154  0.2415
  154OSM   H12F17218   0.703   6.783   4.057 -0.6176  1.7328  1.8674
  154OSM   H12G17219   0.857   6.869   4.096  1.9871 -0.3258 -2.8842
  154OSM   C13F17220   0.808   6.694   4.211  0.5439  0.4831  0.0228
  154OSM   H13F17221   0.902   6.705   4.268 -1.2005  0.5111  3.1182
  154OSM   H13G17222   0.804   6.584   4.197 -0.4133  0.0580  2.9421
  154OSM   C14F17223   0.702   6.743   4.309  0.8278 -0.5581  0.9630
  154OSM   H14F17224   0.599   6.735   4.269  0.6891  1.4191  0.8038
  154OSM   H14G17225   0.720   6.852   4.320 -4.2085  0.7457 -0.8871
  154OSM   C15F17226   0.708   6.667   4.444  0.0044 -0.1790  0.6116
  154OSM   H15F17227   0.815   6.672   4.473  0.1984  1.4404 -0.2879
  154OSM   H15G17228   0.689   6.562   4.415  0.5581  0.3643 -1.9059
  154OSM   C16F17229   0.611   6.723   4.552 -0.2856 -0.4838 -0.1221
  154OSM   H16F17230   0.628   6.832   4.560  0.8737 -0.7627  1.8927
  154OSM   H16G17231   0.624   6.666   4.647 -2.0327 -0.9401 -0.1161
  154OSM   C17F17232   0.461   6.718   4.515  0.4747  0.1361 -0.9073
  154OSM   H17F17233   0.444   6.608   4.505 -0.6277  0.1213  0.6742
  154OSM   H17G17234   0.434   6.774   4.423 -0.1073 -0.3832 -1.0564
  154OSM   C18F17235   0.366   6.750   4.632 -0.1031  0.4835 -0.5079
  154OSM   H18F17236   0.378   6.853   4.671 -1.8652  1.1786 -1.6664
  154OSM   H18G17237   0.371   6.674   4.712  0.4104 -0.8610 -1.7683
  154OSM   H18H17238   0.264   6.761   4.590  0.1027  1.9602 -0.6902
  155OSM      N17239   2.027   5.087   2.221  0.0489  0.1348 -0.0537
  155OSM    C1517240   2.000   5.235   2.252  0.7815 -0.0026 -0.1901
  155OSM   H15A17241   2.011   5.260   2.357  1.7880  2.4749 -0.8168
  155OSM   H15B17242   1.905   5.268   2.213  0.9396  0.2673 -0.3414
  155OSM   H15C17243   2.078   5.284   2.196  1.6895 -0.0187  1.0144
  155OSM    C1417244   1.944   5.006   2.317 -0.3656 -0.1155 -0.6776
  155OSM   H14A17245   1.839   5.032   2.317 -0.0636  1.2597  0.3710
  155OSM   H14B17246   1.980   5.011   2.419  0.5384  3.2017 -1.0459
  155OSM   H14C17247   1.949   4.902   2.290 -2.7811 -0.0256 -1.7434
  155OSM    C1317248   1.978   5.061   2.081  0.2490  0.1421  0.2190
  155OSM   H13A17249   1.980   4.960   2.044 -3.3994 -0.6462  1.6949
  155OSM   H13B17250   2.029   5.112   2.001  0.1055 -1.5473 -0.9981
  155OSM   H13C17251   1.875   5.090   2.065 -0.4397 -0.9790  2.2097
  155OSM    C1217252   2.175   5.053   2.229  0.7641 -0.3031 -0.2619
  155OSM   H12A17253   2.201   5.074   2.332  1.4968  0.5590 -0.6067
  155OSM   H12B17254   2.224   5.127   2.166  0.6602  1.2774  1.4196
  155OSM    C1117255   2.219   4.910   2.194 -0.1859 -0.9493  0.2150
  155OSM   H11A17256   2.312   4.914   2.255  0.7278 -1.4056 -1.0911
  155OSM   H11B17257   2.241   4.910   2.085 -0.9202  1.8593 -0.0067
  155OSM      P17258   2.169   4.699   2.331 -0.4782 -0.2781 -0.1153
  155OSM    O1317259   2.048   4.622   2.377 -0.0335 -0.3242 -0.1792
  155OSM    O1417260   2.274   4.610   2.277 -0.0112 -0.5993  0.4642
  155OSM    O1117261   2.228   4.790   2.444 -0.4092  0.1848 -0.2384
  155OSM    O1217262   2.129   4.806   2.229  0.4110  0.3121 -0.0031
  155OSM    C1S17263   2.147   4.825   2.560  0.1777 -0.8441  0.4390
  155OSM    H1S17264   2.045   4.782   2.554  0.4934 -1.4162 -2.0588
  155OSM    H1T17265   2.135   4.936   2.563 -0.1158 -0.8132 -1.0394
  155OSM     NF17266   2.137   4.789   2.799  0.0046  0.2922 -0.0363
  155OSM    HNF17267   2.138   4.875   2.849  2.7077  0.3675 -0.0658
  155OSM    C2S17268   2.216   4.769   2.685  0.7519 -0.4736 -0.3319
  155OSM    H2S17269   2.218   4.659   2.671 -0.7467 -0.4496 -0.9672
  155OSM    C3S17270   2.363   4.828   2.689 -0.0871 -0.5605  0.6135
  155OSM    H3S17271   2.362   4.938   2.675  1.6938 -0.2154  2.7004
  155OSM     O317272   2.454   4.782   2.591 -0.2129  0.2150  0.3662
  155OSM    HO317273   2.395   4.749   2.522 -3.1447  2.1982  1.7434
  155OSM    C4S17274   2.432   4.794   2.821  0.1424 -0.3808  0.2493
  155OSM    H4S17275   2.459   4.688   2.837  0.3307 -0.3244  0.3079
  155OSM    C5S17276   2.465   4.885   2.912 -0.0565  0.5507 -0.2085
  155OSM    H5S17277   2.442   4.990   2.887 -1.9355  0.1671 -0.2942
  155OSM    C6S17278   2.513   4.865   3.054  0.0067 -0.7773 -0.2524
  155OSM    H6S17279   2.619   4.898   3.055  0.0763 -0.6343  3.4143
  155OSM    H6T17280   2.506   4.757   3.083  0.7874 -0.5600  0.8134
  155OSM    C7S17281   2.433   4.955   3.150  0.0716 -0.3266 -0.0788
  155OSM    H7S17282   2.455   4.922   3.254 -0.3649  2.6670  1.0741
  155OSM    H7T17283   2.322   4.941   3.151  0.2451 -1.8639  0.0453
  155OSM    C8S17284   2.465   5.106   3.137 -0.3100 -0.6560  0.3971
  155OSM    H8S17285   2.439   5.136   3.033 -0.1477 -2.2138 -0.1246
  155OSM    H8T17286   2.574   5.125   3.136 -0.7225  1.9477  0.2170
  155OSM    C9S17287   2.403   5.197   3.248  0.4306  0.3127 -0.2615
  155OSM    H9S17288   2.439   5.151   3.342 -0.1239  1.3300  0.4703
  155OSM    H9T17289   2.297   5.165   3.255  0.3477  0.8926  1.4093
  155OSM   C10S17290   2.440   5.346   3.238 -0.3887  0.2963 -0.1367
  155OSM   H10S17291   2.404   5.398   3.146  0.6676  1.2179 -0.0489
  155OSM   H10T17292   2.550   5.345   3.224 -0.2974 -0.2238  0.5682
  155OSM   C11S17293   2.388   5.428   3.361  0.1682  0.0772  0.2982
  155OSM   H11S17294   2.278   5.419   3.348  0.3194 -0.9332 -0.4769
  155OSM   H11T17295   2.419   5.534   3.350 -0.1098  0.3910  2.2161
  155OSM   C12S17296   2.427   5.382   3.501  0.4310 -0.2434 -0.2195
  155OSM   H12S17297   2.535   5.379   3.526  0.0345  0.5130  1.7252
  155OSM   H12T17298   2.380   5.281   3.507 -1.5168  0.7022  2.3269
  155OSM   C13S17299   2.349   5.460   3.613 -0.1450 -0.4153 -0.5230
  155OSM   H13S17300   2.241   5.452   3.588 -0.7589 -0.6182  1.9613
  155OSM   H13T17301   2.390   5.562   3.600  2.8762 -1.4027  0.3365
  155OSM   C14S17302   2.380   5.410   3.749 -0.2162  0.4321 -0.0504
  155OSM   H14S17303   2.490   5.406   3.765 -0.4307 -0.4598  1.3997
  155OSM   H14T17304   2.342   5.307   3.766  0.1431  0.5105  1.3410
  155OSM   C15S17305   2.311   5.488   3.861  0.4948  0.0301 -0.2278
  155OSM   H15S17306   2.201   5.488   3.850  0.1633  0.7916  2.4694
  155OSM   H15T17307   2.332   5.597   3.853 -1.6514  0.7424  2.5534
  155OSM   C16S17308   2.331   5.437   4.002  0.1007  0.0783 -0.2935
  155OSM   H16S17309   2.297   5.513   4.075  1.3174  0.7529 -0.4063
  155OSM   H16T17310   2.440   5.423   4.019 -0.1669 -3.2537 -0.5390
  155OSM   C17S17311   2.254   5.309   4.038 -0.3699  0.3181  0.7877
  155OSM   H17S17312   2.288   5.228   3.970 -1.8667  0.1468  0.2054
  155OSM   H17T17313   2.146   5.326   4.017 -0.6314  0.3279  2.0378
  155OSM   C18S17314   2.278   5.261   4.178  0.1167  0.1566 -0.4224
  155OSM   H18S17315   2.386   5.250   4.202 -0.0574  0.9076  0.7865
  155OSM   H18T17316   2.218   5.169   4.197  0.0004  0.4964  0.9407
  155OSM   H18U17317   2.240   5.338   4.248 -1.0195  2.1283 -3.0296
  155OSM    C1F17318   2.040   4.701   2.832  1.1277  0.0824  0.0414
  155OSM     OF17319   2.009   4.601   2.764  0.3354 -0.3019  0.0528
  155OSM    C2F17320   1.979   4.732   2.966 -0.7663  0.1189 -0.0667
  155OSM    H2F17321   1.923   4.639   2.991  1.3439 -0.9277  1.0983
  155OSM    H2G17322   1.909   4.817   2.956 -1.4607 -0.5327 -0.8438
  155OSM    C3F17323   2.078   4.772   3.080  0.2036 -0.5241  0.0875
  155OSM    H3F17324   2.116   4.873   3.055 -1.1141 -0.4615 -1.8572
  155OSM    H3G17325   2.166   4.704   3.085  1.3093  0.9167  1.2200
  155OSM    C4F17326   2.023   4.774   3.225 -0.6397 -0.6459 -0.8639
  155OSM    H4F17327   1.998   4.670   3.254  1.4566 -1.3219 -1.3093
  155OSM    H4G17328   1.933   4.838   3.208 -0.6015 -0.2905  0.2021
  155OSM    C5F17329   2.113   4.838   3.335 -0.0377  0.1870  0.1114
  155OSM    H5F17330   2.142   4.938   3.298  2.8093 -0.2400  0.9543
  155OSM    H5G17331   2.201   4.771   3.333 -0.0857  0.1113 -2.0703
  155OSM    C6F17332   2.034   4.834   3.466  0.0921 -0.9817 -0.0661
  155OSM    H6F17333   2.007   4.730   3.493 -0.2638 -0.8655  0.0331
  155OSM    H6G17334   1.941   4.891   3.443 -1.4218 -2.9571  0.8937
  155OSM    C7F17335   2.116   4.903   3.575 -0.0759 -0.0486  0.1541
  155OSM    H7F17336   2.135   5.009   3.547 -0.5347  0.5872  2.0817
  155OSM    H7G17337   2.212   4.851   3.595  0.9021  1.2616 -0.9401
  155OSM    C8F17338   2.036   4.901   3.707 -0.0619  0.2535 -0.1875
  155OSM    H8F17339   2.020   4.794   3.733  0.8762  0.4666  1.4074
  155OSM    H8G17340   1.931   4.935   3.696 -0.7858 -1.8663 -0.2829
  155OSM    C9F17341   2.108   4.969   3.822  0.1985  0.2598 -0.7752
  155OSM    H9F17342   2.214   4.946   3.839  0.9422  2.9122 -1.4828
  155OSM   C10F17343   2.052   5.053   3.914  0.0646 -0.2909  0.5904
  155OSM   H10F17344   2.121   5.100   3.986  0.3617 -0.7491  0.6117
  155OSM   C11F17345   1.911   5.108   3.926  0.1856  0.3109  0.8917
  155OSM   H11F17346   1.850   5.059   3.847 -1.9523  0.7821  2.1815
  155OSM   H11G17347   1.899   5.217   3.910 -0.2692 -0.1862 -3.1975
  155OSM   C12F17348   1.834   5.078   4.054 -0.5275  0.3064 -0.3447
  155OSM   H12F17349   1.859   4.971   4.073  3.1556  0.5029 -2.9860
  155OSM   H12G17350   1.726   5.061   4.035 -0.4594  1.4008 -1.8653
  155OSM   C13F17351   1.866   5.161   4.181 -0.1263 -0.0099  0.2353
  155OSM   H13F17352   1.822   5.262   4.163  0.3732 -0.1968 -2.3922
  155OSM   H13G17353   1.975   5.176   4.198  0.0498 -0.2960 -0.5796
  155OSM   C14F17354   1.807   5.100   4.311  0.0302  0.2619 -0.4908
  155OSM   H14F17355   1.702   5.068   4.296  0.9898 -2.1301 -2.8267
  155OSM   H14G17356   1.830   5.183   4.381  0.5644  3.5830 -4.2795
  155OSM   C15F17357   1.877   4.968   4.352  0.0293 -0.1688  0.3369
  155OSM   H15F17358   1.985   4.993   4.354 -0.4454  2.2125  2.9777
  155OSM   H15G17359   1.866   4.878   4.288 -0.6553  0.1933 -0.0720
  155OSM   C16F17360   1.840   4.912   4.490  0.0216  0.3610  0.2243
  155OSM   H16F17361   1.734   4.879   4.487  0.1862 -0.2900  1.2296
  155OSM   H16G17362   1.828   4.986   4.573  0.6371  1.3284 -0.5213
  155OSM   C17F17363   1.939   4.804   4.533  0.7188 -1.1641 -0.2894
  155OSM   H17F17364   2.035   4.859   4.541  0.3717  0.0078 -3.0399
  155OSM   H17G17365   1.949   4.723   4.458 -3.3768 -2.2053  0.0406
  155OSM   C18F17366   1.905   4.749   4.672  0.1536  0.0549  0.2966
  155OSM   H18F17367   1.873   4.830   4.741 -1.0099 -0.4208  0.3340
  155OSM   H18G17368   1.989   4.687   4.708 -1.6540 -2.6094  0.2102
  155OSM   H18H17369   1.823   4.675   4.671  1.5748 -1.5859  1.2394
  156OSM      N17370   5.664   1.860   3.373  0.7294 -0.3854 -0.6115
  156OSM    C1517371   5.755   1.891   3.258  0.3240 -0.2297 -0.3643
  156OSM   H15A17372   5.849   1.929   3.295 -0.1407  1.3683 -0.7348
  156OSM   H15B17373   5.718   1.965   3.189  0.0675 -0.5962 -0.6265
  156OSM   H15C17374   5.774   1.798   3.206  1.0227  0.1119 -0.7354
  156OSM    C1417375   5.552   1.768   3.323 -0.5933  0.5203 -0.1911
  156OSM   H14A17376   5.486   1.826   3.260 -0.9751  1.7934  1.3215
  156OSM   H14B17377   5.495   1.738   3.409  2.3978 -0.8919  1.4459
  156OSM   H14C17378   5.589   1.681   3.271 -1.2962  1.0895 -1.7055
  156OSM    C1317379   5.750   1.774   3.461  0.2481  0.1902 -0.2892
  156OSM   H13A17380   5.760   1.679   3.411 -2.8753  0.2916 -1.3478
  156OSM   H13B17381   5.689   1.742   3.544  0.5864 -0.8888 -0.4449
  156OSM   H13C17382   5.844   1.821   3.487  1.7457 -2.5932 -0.3317
  156OSM    C1217383   5.606   1.975   3.440 -0.3973 -0.2381  0.3484
  156OSM   H12A17384   5.550   1.933   3.522  1.5551 -2.0940  0.8428
  156OSM   H12B17385   5.525   2.010   3.378 -2.6459 -0.0615  3.1548
  156OSM    C1117386   5.696   2.085   3.508  0.5269 -0.1769  0.3793
  156OSM   H11A17387   5.762   2.038   3.584 -1.5989 -0.5192  2.1071
  156OSM   H11B17388   5.624   2.148   3.564 -2.2700 -1.7327 -1.2161
  156OSM      P17389   5.698   2.277   3.323 -0.1140 -0.3971 -0.3721
  156OSM    O1317390   5.801   2.372   3.269 -0.4127 -0.3672  0.3338
  156OSM    O1417391   5.609   2.209   3.226 -0.0679 -0.8800  0.0395
  156OSM    O1117392   5.614   2.361   3.425 -0.1331  0.5785 -0.0803
  156OSM    O1217393   5.765   2.166   3.414 -0.8686 -0.3857  0.1343
  156OSM    C1S17394   5.471   2.356   3.405 -0.1066  0.1645  0.2863
  156OSM    H1S17395   5.427   2.257   3.383 -1.2519 -0.0509  3.0645
  156OSM    H1T17396   5.442   2.418   3.318  0.6543  2.0521  1.3101
  156OSM     NF17397   5.260   2.370   3.528  0.1038 -0.4750  0.1177
  156OSM    HNF17398   5.186   2.433   3.506 -1.9394 -2.5690  0.6587
  156OSM    C2S17399   5.399   2.408   3.527 -0.1039 -0.4404 -0.5710
  156OSM    H2S17400   5.454   2.352   3.606  0.2753 -0.6910 -1.0089
  156OSM    C3S17401   5.422   2.559   3.545  0.5293  0.0090  0.1928
  156OSM    H3S17402   5.382   2.623   3.464 -2.0034 -0.4163  1.0420
  156OSM     O317403   5.558   2.586   3.560 -0.3218  0.1166 -0.4985
  156OSM    HO317404   5.610   2.513   3.525 -2.1442 -0.6223 -1.8401
  156OSM    C4S17405   5.350   2.602   3.677  0.4234 -0.0385  0.0340
  156OSM    H4S17406   5.395   2.555   3.766  1.6364  0.7060 -0.1681
  156OSM    C5S17407   5.240   2.675   3.680 -0.3164 -0.5096 -0.6630
  156OSM    H5S17408   5.204   2.708   3.582  1.2726 -2.0261 -1.8330
  156OSM    C6S17409   5.172   2.705   3.812 -0.1151  0.8508 -0.2144
  156OSM    H6S17410   5.207   2.648   3.901 -2.4821  0.4814  0.5401
  156OSM    H6T17411   5.070   2.663   3.799  0.4292 -0.3194 -0.8265
  156OSM    C7S17412   5.158   2.850   3.859 -0.3785 -1.0485  0.4913
  156OSM    H7S17413   5.109   2.916   3.784  1.8113 -0.7303 -0.7138
  156OSM    H7T17414   5.256   2.898   3.878 -0.4879 -0.6412  0.0529
  156OSM    C8S17415   5.096   2.863   3.998  1.0208  0.7419  0.3659
  156OSM    H8S17416   5.149   2.819   4.085 -1.2671  0.0943  1.5025
  156OSM    H8T17417   5.002   2.803   3.998  0.7914  1.0973  0.3914
  156OSM    C9S17418   5.046   3.003   4.030  0.4061  0.3725 -0.4223
  156OSM    H9S17419   4.945   3.007   3.983  0.6477 -0.0546 -0.9853
  156OSM    H9T17420   5.108   3.075   3.972  0.7225 -0.9920 -1.8227
  156OSM   C10S17421   5.027   3.041   4.177  0.4679 -0.2659  0.8702
  156OSM   H10S17422   5.121   3.020   4.233  0.8883 -1.1586 -0.1348
  156OSM   H10T17423   4.943   2.990   4.229 -1.0456  1.6946  0.4606
  156OSM   C11S17424   4.991   3.186   4.197  0.0895  0.3642  0.8299
  156OSM   H11S17425   4.899   3.208   4.139  1.7748  0.9803 -1.7979
  156OSM   H11T17426   5.069   3.255   4.159  0.4033 -0.5417 -0.2058
  156OSM   C12S17427   4.980   3.215   4.345 -0.3561  0.2469 -0.1010
  156OSM   H12S17428   4.946   3.321   4.355 -2.4424 -0.2844 -1.1664
  156OSM   H12T17429   5.083   3.211   4.387 -0.2841 -0.9784 -0.3598
  156OSM   C13S17430   4.889   3.133   4.438  0.3158 -0.1141 -0.2283
  156OSM   H13S17431   4.928   3.031   4.459 -0.6964 -0.5315 -0.3445
  156OSM   H13T17432   4.795   3.128   4.379  1.3749 -1.2669 -1.9042
  156OSM   C14S17433   4.863   3.206   4.566  1.0104  0.0813 -0.4315
  156OSM   H14S17434   4.845   3.314   4.549  0.0627 -0.1604 -1.0517
  156OSM   H14T17435   4.940   3.189   4.645 -1.1679 -0.9360  1.6217
  156OSM   C15S17436   4.740   3.144   4.636 -0.1758  0.1984 -0.5822
  156OSM   H15S17437   4.651   3.135   4.570 -0.7056 -1.3966  0.2845
  156OSM   H15T17438   4.719   3.202   4.728  0.6898 -1.3898  0.6813
  156OSM   C16S17439   4.769   3.003   4.697 -0.2781  0.0904 -0.7014
  156OSM   H16S17440   4.867   3.004   4.751 -0.2024  0.0524 -0.8371
  156OSM   H16T17441   4.798   2.940   4.610  0.7354  1.4716 -1.4226
  156OSM   C17S17442   4.648   2.957   4.784 -0.4202  0.5300 -0.0331
  156OSM   H17S17443   4.636   3.013   4.880  0.9906 -0.5441  0.8072
  156OSM   H17T17444   4.671   2.852   4.811 -0.3494  0.6859  0.5287
  156OSM   C18S17445   4.515   2.946   4.708  0.8157  0.1990  0.1223
  156OSM   H18S17446   4.528   2.890   4.613 -2.7171  0.8043 -0.8556
  156OSM   H18T17447   4.454   3.036   4.687 -0.3270 -0.3203  1.0561
  156OSM   H18U17448   4.443   2.887   4.770 -0.7486  1.4203 -0.4739
  156OSM    C1F17449   5.217   2.242   3.532  0.2339 -0.4509  0.1461
  156OSM     OF17450   5.296   2.153   3.552  0.4592  0.7480 -0.3784
  156OSM    C2F17451   5.069   2.221   3.507  0.0253 -0.8355  0.2288
  156OSM    H2F17452   5.067   2.180   3.403 -0.2696 -0.3641  0.0471
  156OSM    H2G17453   5.013   2.316   3.513  1.5009  0.1149 -0.3704
  156OSM    C3F17454   5.001   2.106   3.592  0.4971 -0.0734  0.0696
  156OSM    H3F17455   5.060   2.013   3.577 -0.0156 -0.5350  0.8350
  156OSM    H3G17456   4.901   2.089   3.548 -0.1114  3.1539 -0.0094
  156OSM    C4F17457   4.998   2.137   3.743 -0.4500 -0.6792 -0.5222
  156OSM    H4F17458   5.101   2.151   3.782 -2.5581  1.6651  5.3013
  156OSM    H4G17459   4.953   2.053   3.799 -1.9615  0.6459  0.3387
  156OSM    C5F17460   4.923   2.271   3.796  0.0748  0.2827  0.2662
  156OSM    H5F17461   4.818   2.272   3.758 -0.5550  0.9164  1.9002
  156OSM    H5G17462   4.984   2.353   3.753  0.1389 -0.2710 -0.7168
  156OSM    C6F17463   4.935   2.286   3.950  0.6444  0.5368  0.0173
  156OSM    H6F17464   5.042   2.270   3.977  1.0037  0.3621 -1.4084
  156OSM    H6G17465   4.884   2.205   4.005  1.6773  0.7693  1.3564
  156OSM    C7F17466   4.895   2.425   4.005  0.2035  0.0775 -0.3474
  156OSM    H7F17467   4.811   2.456   3.939  0.4669  1.4906 -0.0467
  156OSM    H7G17468   4.980   2.496   4.012 -1.2430  1.7720  1.2838
  156OSM    C8F17469   4.857   2.427   4.158 -0.1790 -0.8638  0.2475
  156OSM    H8F17470   4.953   2.402   4.209  0.2360  0.2512  0.0371
  156OSM    H8G17471   4.785   2.344   4.178 -1.3392  0.1995  0.5988
  156OSM    C9F17472   4.798   2.562   4.193 -0.3833 -0.1017  0.6218
  156OSM    H9F17473   4.710   2.603   4.142  0.5721  3.4211  1.5367
  156OSM   C10F17474   4.848   2.644   4.285  0.5021 -0.4305 -0.9205
  156OSM   H10F17475   4.787   2.733   4.304  1.7976 -0.0624  2.2417
  156OSM   C11F17476   4.967   2.620   4.379  0.6772  0.2550  0.1846
  156OSM   H11F17477   5.048   2.681   4.333  0.1337  1.0759  0.3098
  156OSM   H11G17478   5.020   2.522   4.375  0.6144  0.2351 -0.1217
  156OSM   C12F17479   4.959   2.643   4.529 -0.3849  0.8696 -0.0281
  156OSM   H12F17480   4.876   2.582   4.571  1.4209  0.1397  2.7334
  156OSM   H12G17481   4.935   2.748   4.554  0.0538  1.5597 -2.3028
  156OSM   C13F17482   5.086   2.592   4.608  0.3361 -0.6006 -0.0913
  156OSM   H13F17483   5.103   2.670   4.685 -0.4333  0.6034 -1.0878
  156OSM   H13G17484   5.166   2.613   4.534  0.0574  3.7215  0.5857
  156OSM   C14F17485   5.091   2.446   4.666 -0.4822  0.2151  0.1966
  156OSM   H14F17486   5.070   2.376   4.583 -0.1387  2.5853 -2.0079
  156OSM   H14G17487   5.017   2.432   4.748 -2.1669  0.0865 -1.2884
  156OSM   C15F17488   5.230   2.410   4.730 -0.5316  0.1392 -0.0916
  156OSM   H15F17489   5.313   2.406   4.657  1.2071 -1.7463  1.8685
  156OSM   H15G17490   5.219   2.308   4.772  0.5434 -0.2672 -0.7734
  156OSM   C16F17491   5.261   2.504   4.844 -0.1929 -0.2245  0.0845
  156OSM   H16F17492   5.164   2.529   4.892 -2.6782 -2.1823 -3.4250
  156OSM   H16G17493   5.306   2.589   4.788  1.2028 -1.1904 -0.3006
  156OSM   C17F17494   5.354   2.447   4.950  0.2661  0.0272  0.4239
  156OSM   H17F17495   5.380   2.530   5.019  0.2018  1.3338 -1.0686
  156OSM   H17G17496   5.449   2.402   4.913 -1.5585 -2.5165 -1.4928
  156OSM   C18F17497   5.287   2.349   5.044  0.4233 -0.2293 -0.3879
  156OSM   H18F17498   5.222   2.280   4.985 -2.2424  1.0825  0.8786
  156OSM   H18G17499   5.216   2.397   5.114 -1.8154 -1.5593 -1.6112
  156OSM   H18H17500   5.363   2.294   5.103 -0.3453  0.4087  1.2344
  157OSM      N17501   5.498   4.618   2.644  0.1612 -0.3180 -0.4966
  157OSM    C1517502   5.352   4.615   2.617 -0.3452  0.5533 -0.8007
  157OSM   H15A17503   5.342   4.532   2.548 -0.0863  1.2330 -1.6696
  157OSM   H15B17504   5.320   4.705   2.567  0.6808  0.0223 -2.5116
  157OSM   H15C17505   5.295   4.583   2.703  2.3219 -0.9607  0.5489
  157OSM    C1417506   5.557   4.484   2.681 -0.1859 -0.5340 -0.2558
  157OSM   H14A17507   5.520   4.448   2.776  1.4745  1.0627  1.0828
  157OSM   H14B17508   5.665   4.493   2.684 -0.1971 -0.5776  2.4022
  157OSM   H14C17509   5.535   4.399   2.618 -0.8181 -0.4051 -0.2140
  157OSM    C1317510   5.564   4.654   2.515  0.5234  0.9682  0.1107
  157OSM   H13A17511   5.526   4.595   2.434  2.5767 -0.6415  0.2372
  157OSM   H13B17512   5.668   4.626   2.506  0.8093  1.3646  1.7510
  157OSM   H13C17513   5.564   4.762   2.504  1.1462  1.4003  3.2808
  157OSM    C1217514   5.512   4.722   2.754  0.5411 -0.1100  0.4113
  157OSM   H12A17515   5.610   4.725   2.798  1.1280 -1.0792 -0.7914
  157OSM   H12B17516   5.450   4.694   2.838  0.0512  0.1999  0.1635
  157OSM    C1117517   5.478   4.866   2.705 -0.4311  0.2548 -0.0067
  157OSM   H11A17518   5.440   4.928   2.788 -0.4025  1.4608 -0.8730
  157OSM   H11B17519   5.383   4.869   2.646 -0.4131  0.0381 -0.0493
  157OSM      P17520   5.683   5.025   2.705  0.0322 -0.4568  0.1071
  157OSM    O1317521   5.793   5.056   2.611  0.2405 -0.5909  0.4627
  157OSM    O1417522   5.604   5.138   2.755 -0.4029 -0.6364  0.3928
  157OSM    O1117523   5.738   4.937   2.826 -0.7090 -0.2524  0.1333
  157OSM    O1217524   5.586   4.929   2.632  0.1369  0.0486  0.6232
  157OSM    C1S17525   5.673   4.925   2.956 -0.2275 -0.9184  0.4658
  157OSM    H1S17526   5.586   4.855   2.955 -1.8177  0.9589 -0.5477
  157OSM    H1T17527   5.640   5.024   2.993  0.2162 -1.0298  1.1574
  157OSM     NF17528   5.712   4.815   3.174  0.2162 -0.2247  0.7496
  157OSM    HNF17529   5.726   4.873   3.254  2.9449 -3.2923  2.7466
  157OSM    C2S17530   5.779   4.871   3.059  0.0994  0.2688  0.1875
  157OSM    H2S17531   5.819   4.782   3.005 -1.5649 -1.3262  1.4816
  157OSM    C3S17532   5.886   4.977   3.091 -0.1493  0.1732  0.1689
  157OSM    H3S17533   5.833   5.056   3.149 -1.2583  0.4866 -1.2123
  157OSM     O317534   5.946   5.036   2.973  0.1569 -0.4266 -0.3491
  157OSM    HO317535   5.882   5.020   2.903 -0.1980  3.3740 -1.1203
  157OSM    C4S17536   5.996   4.925   3.180  0.1272  0.2757 -0.5974
  157OSM    H4S17537   6.013   4.821   3.149 -1.1561  0.1900 -1.0804
  157OSM    C5S17538   6.065   4.988   3.282 -0.1049 -0.5940  0.2423
  157OSM    H5S17539   6.029   5.090   3.300 -1.9575 -1.0869 -0.4236
  157OSM    C6S17540   6.181   4.933   3.363  0.2243  0.3890 -0.2306
  157OSM    H6S17541   6.264   5.006   3.375  0.4645 -0.2072  2.1849
  157OSM    H6T17542   6.224   4.842   3.316  0.9479 -0.0063  1.1449
  157OSM    C7S17543   6.153   4.888   3.510 -0.0364  0.2957 -0.4364
  157OSM    H7S17544   6.240   4.828   3.543  0.6292  0.5908 -1.5727
  157OSM    H7T17545   6.069   4.816   3.504 -1.5931  1.7160  2.2424
  157OSM    C8S17546   6.133   5.002   3.617 -0.5902  0.1286  0.8471
  157OSM    H8S17547   6.031   4.996   3.660 -1.6308 -1.7836 -1.5849
  157OSM    H8T17548   6.132   5.094   3.555  1.3615 -1.0435 -1.1036
  157OSM    C9S17549   6.251   5.006   3.711  0.6591  0.2892  0.0361
  157OSM    H9S17550   6.347   5.016   3.655  0.0055 -1.1389 -1.4129
  157OSM    H9T17551   6.259   4.911   3.767 -0.1078  0.7427  0.9423
  157OSM   C10S17552   6.250   5.129   3.810  0.2151  0.6306  0.1601
  157OSM   H10S17553   6.210   5.222   3.764 -0.6481  0.3353  0.3000
  157OSM   H10T17554   6.356   5.142   3.841  0.4153 -0.2803 -0.0981
  157OSM   C11S17555   6.159   5.099   3.932 -0.5997  0.1942 -0.3870
  157OSM   H11S17556   6.192   5.001   3.972  1.6614  0.6469 -1.0223
  157OSM   H11T17557   6.052   5.095   3.903 -0.7959  0.9757  0.2151
  157OSM   C12S17558   6.163   5.208   4.038 -1.1723 -1.0221  1.3714
  157OSM   H12S17559   6.097   5.293   4.012 -0.4523 -0.9749 -0.5350
  157OSM   H12T17560   6.266   5.245   4.055 -1.9059  2.1722 -0.3282
  157OSM   C13S17561   6.132   5.160   4.176  0.1315 -0.1426 -0.4412
  157OSM   H13S17562   6.175   5.060   4.197 -1.4772 -0.6038  0.8700
  157OSM   H13T17563   6.025   5.132   4.172  0.0937 -0.0917  0.1432
  157OSM   C14S17564   6.171   5.260   4.286  0.0504  0.5628  0.7423
  157OSM   H14S17565   6.149   5.367   4.262 -0.1454  0.7368  1.6633
  157OSM   H14T17566   6.281   5.254   4.294  0.1733 -2.9709 -1.6534
  157OSM   C15S17567   6.101   5.235   4.420 -0.0406  0.3364  0.0283
  157OSM   H15S17568   6.096   5.127   4.444 -1.5810  0.2987 -0.3834
  157OSM   H15T17569   5.998   5.273   4.405  0.6759  1.9198 -1.2035
  157OSM   C16S17570   6.162   5.318   4.531  0.7863  0.0212 -0.0425
  157OSM   H16S17571   6.070   5.339   4.589  0.6086 -1.4700  0.2663
  157OSM   H16T17572   6.204   5.411   4.488  0.6174  0.2933  0.3766
  157OSM   C17S17573   6.261   5.233   4.620 -0.4092 -0.2813  0.7169
  157OSM   H17S17574   6.306   5.300   4.696 -0.7244 -0.2670  0.8927
  157OSM   H17T17575   6.342   5.186   4.561  0.3640  0.9319  0.7835
  157OSM   C18S17576   6.194   5.131   4.703  0.1775 -0.2108 -1.0856
  157OSM   H18S17577   6.142   5.059   4.636 -3.6220  0.1057  1.2424
  157OSM   H18T17578   6.113   5.174   4.766  0.5277 -0.2444 -0.6048
  157OSM   H18U17579   6.272   5.067   4.749  2.6054  1.5688 -2.4675
  157OSM    C1F17580   5.636   4.706   3.169 -0.1787  0.5714  0.1586
  157OSM     OF17581   5.648   4.628   3.072  0.0178  0.2328  0.1507
  157OSM    C2F17582   5.537   4.680   3.282  0.4982 -0.8228 -0.1727
  157OSM    H2F17583   5.485   4.584   3.262 -0.6425 -0.0613 -0.9756
  157OSM    H2G17584   5.470   4.768   3.290  0.9921 -0.6044  2.7088
  157OSM    C3F17585   5.615   4.675   3.418 -0.1376  0.1587 -0.9553
  157OSM    H3F17586   5.663   4.773   3.439  1.5576 -0.4153 -2.0260
  157OSM    H3G17587   5.702   4.608   3.406 -1.4115 -2.0630  1.3377
  157OSM    C4F17588   5.542   4.614   3.540  0.0464  0.2565 -0.1305
  157OSM    H4F17589   5.619   4.574   3.608  0.1562  0.7821  0.0560
  157OSM    H4G17590   5.478   4.530   3.505 -1.8854  1.7566 -0.4147
  157OSM    C5F17591   5.455   4.719   3.613 -0.4668  0.4233  0.5622
  157OSM    H5F17592   5.352   4.683   3.635 -1.5868  2.6813 -0.6669
  157OSM    H5G17593   5.452   4.805   3.543  0.8575 -0.0775 -0.1451
  157OSM    C6F17594   5.525   4.771   3.738  0.2305 -0.6436 -0.0247
  157OSM    H6F17595   5.470   4.861   3.773 -1.9945 -2.0797  0.3471
  157OSM    H6G17596   5.632   4.794   3.716  0.3025 -2.0261 -1.2377
  157OSM    C7F17597   5.516   4.676   3.864  0.1807  0.5286 -0.1845
  157OSM    H7F17598   5.596   4.599   3.854 -0.0210 -0.1633  2.7736
  157OSM    H7G17599   5.419   4.624   3.877  1.8502 -2.7415  0.0583
  157OSM    C8F17600   5.544   4.758   4.002  0.4829  0.2869 -0.4735
  157OSM    H8F17601   5.479   4.847   4.016  2.1931  1.2395  2.1987
  157OSM    H8G17602   5.644   4.803   3.983  0.4714 -0.3019 -2.0498
  157OSM    C9F17603   5.537   4.667   4.121  0.0068 -0.0265  0.3588
  157OSM    H9F17604   5.584   4.570   4.102 -2.0055 -1.2944  1.4972
  157OSM   C10F17605   5.462   4.687   4.236 -0.0774  0.3041  0.2875
  157OSM   H10F17606   5.459   4.605   4.310  1.2112  0.4042  0.4675
  157OSM   C11F17607   5.389   4.813   4.272 -0.2891 -0.7302  0.2286
  157OSM   H11F17608   5.283   4.785   4.287 -1.0139  0.0110 -2.7835
  157OSM   H11G17609   5.384   4.881   4.184 -0.5372 -0.4785  0.4368
  157OSM   C12F17610   5.417   4.882   4.409 -0.5427  0.4814 -0.0068
  157OSM   H12F17611   5.333   4.953   4.427 -0.8639 -0.3861  2.2470
  157OSM   H12G17612   5.519   4.925   4.401  1.0722 -2.9784  0.0491
  157OSM   C13F17613   5.423   4.790   4.523  0.0405  0.6536 -0.6021
  157OSM   H13F17614   5.508   4.718   4.516 -0.5280 -0.5292  2.8227
  157OSM   H13G17615   5.325   4.738   4.530 -1.3986  3.4205  1.7435
  157OSM   C14F17616   5.440   4.840   4.669  0.2625  0.2265 -0.0546
  157OSM   H14F17617   5.526   4.910   4.683  0.2143  0.1199  0.8545
  157OSM   H14G17618   5.475   4.754   4.731  1.2640 -0.2773 -1.2830
  157OSM   C15F17619   5.310   4.896   4.717  0.0498 -0.2053  0.4153
  157OSM   H15F17620   5.233   4.821   4.690  0.0598  0.0794 -0.4452
  157OSM   H15G17621   5.288   4.990   4.661  1.2702 -0.1544 -0.0150
  157OSM   C16F17622   5.323   4.935   4.862  0.5852  0.1134  0.3821
  157OSM   H16F17623   5.415   4.991   4.891  0.2583 -0.1565  2.0606
  157OSM   H16G17624   5.326   4.835   4.909 -0.6926 -0.5829 -0.9535
  157OSM   C17F17625   5.206   5.017   4.919  0.1927  0.6971 -0.0588
  157OSM   H17F17626   5.110   4.967   4.895 -0.3668  1.5109  0.4467
  157OSM   H17G17627   5.210   5.107   4.854  1.1426 -1.3917 -3.1434
  157OSM   C18F17628   5.211   5.054   5.064  0.1891 -0.0255 -0.2754
  157OSM   H18F17629   5.168   4.979   5.135 -1.8702  1.0241 -0.3422
  157OSM   H18G17630   5.162   5.150   5.091  1.2180 -0.2252  2.7138
  157OSM   H18H17631   5.316   5.075   5.095 -0.2740  2.3163 -0.1354
  158OSM      N17632   0.637   2.451   2.722  0.3561  0.3533  0.2878
  158OSM    C1517633   0.643   2.596   2.751 -0.0548  1.2435 -0.2058
  158OSM   H15A17634   0.620   2.625   2.853  0.2260  0.0245  0.2269
  158OSM   H15B17635   0.580   2.650   2.683 -0.5132 -0.0630 -0.8563
  158OSM   H15C17636   0.745   2.623   2.727  0.4005 -0.3380 -0.2226
  158OSM    C1417637   0.657   2.432   2.572 -0.9454 -0.0516  0.0539
  158OSM   H14A17638   0.732   2.499   2.532 -2.3584  2.6571  1.6224
  158OSM   H14B17639   0.575   2.441   2.502  0.8141  1.2417 -1.9317
  158OSM   H14C17640   0.702   2.335   2.558  3.0102  1.9500 -3.0391
  158OSM    C1317641   0.760   2.397   2.791  0.1026 -0.4054 -0.0318
  158OSM   H13A17642   0.783   2.298   2.758  0.4570 -0.1848 -0.4517
  158OSM   H13B17643   0.735   2.403   2.896 -1.2180  1.2156 -0.3873
  158OSM   H13C17644   0.850   2.453   2.769  0.8716 -1.5698  0.0629
  158OSM    C1217645   0.508   2.380   2.768  0.5201  0.1427 -0.6021
  158OSM   H12A17646   0.492   2.298   2.699  0.0602  1.6900 -2.4372
  158OSM   H12B17647   0.425   2.439   2.734  0.9691  1.5999  0.7527
  158OSM    C1117648   0.482   2.339   2.920 -0.8606  0.5224  0.0630
  158OSM   H11A17649   0.566   2.271   2.948 -1.7222 -0.6158 -0.0573
  158OSM   H11B17650   0.391   2.276   2.923 -1.3184  0.9295 -2.7537
  158OSM      P17651   0.540   2.464   3.143 -0.5920  0.0522 -0.2286
  158OSM    O1317652   0.593   2.599   3.158  0.2202 -0.1001  0.3534
  158OSM    O1417653   0.435   2.414   3.241 -0.1750  0.8289  0.1681
  158OSM    O1117654   0.660   2.363   3.139 -0.0936  0.4936 -0.3327
  158OSM    O1217655   0.469   2.452   2.999 -0.7724  0.5733 -0.3183
  158OSM    C1S17656   0.792   2.389   3.185 -0.5721  0.6162  0.7066
  158OSM    H1S17657   0.821   2.494   3.207  0.6485  0.2047  1.0963
  158OSM    H1T17658   0.864   2.352   3.109  2.4356  1.8815  2.7737
  158OSM     NF17659   0.940   2.341   3.373  0.2156 -0.1186  0.1838
  158OSM    HNF17660   1.030   2.309   3.344  0.4250  0.6171 -0.0063
  158OSM    C2S17661   0.825   2.297   3.306 -0.4350  0.4829 -0.4056
  158OSM    H2S17662   0.742   2.304   3.380  1.4571  3.7611  1.6387
  158OSM    C3S17663   0.820   2.142   3.262 -0.1716 -0.4293 -0.0537
  158OSM    H3S17664   0.896   2.144   3.181  2.2332  3.6271  1.9910
  158OSM     O317665   0.693   2.100   3.218  0.1021 -0.1986  0.5147
  158OSM    HO317666   0.651   2.173   3.171 -0.7129 -0.8408  0.2308
  158OSM    C4S17667   0.866   2.058   3.375 -0.3452  0.2208  0.5490
  158OSM    H4S17668   0.973   2.033   3.370  0.2227  1.6634  3.3065
  158OSM    C5S17669   0.799   2.015   3.480  0.0260  0.3180 -0.6304
  158OSM    H5S17670   0.690   2.029   3.480 -0.2386 -1.4752 -0.7053
  158OSM    C6S17671   0.847   1.936   3.600  0.4813  0.0039 -0.3879
  158OSM    H6S17672   0.797   1.839   3.621  0.7350 -0.1619 -0.5438
  158OSM    H6T17673   0.826   1.990   3.695  2.2743  1.4327 -0.7262
  158OSM    C7S17674   0.999   1.913   3.615 -0.3035  0.0639  0.3112
  158OSM    H7S17675   1.055   2.009   3.606 -0.6137  0.3321  1.1853
  158OSM    H7T17676   1.033   1.844   3.535  0.2962 -0.0579  0.6626
  158OSM    C8S17677   1.037   1.837   3.742  0.2921 -0.3396  0.1870
  158OSM    H8S17678   0.982   1.741   3.733 -3.5001  1.3668  2.4774
  158OSM    H8T17679   1.000   1.884   3.835 -0.7249 -1.0864  0.1804
  158OSM    C9S17680   1.191   1.807   3.744  0.3293 -0.4990  0.4237
  158OSM    H9S17681   1.246   1.903   3.735  0.9284 -0.6083  2.4046
  158OSM    H9T17682   1.199   1.753   3.647 -0.5990 -0.2323  0.1941
  158OSM   C10S17683   1.240   1.737   3.873 -0.2431 -0.1057 -0.2017
  158OSM   H10S17684   1.349   1.717   3.864 -0.1773 -0.0978  0.5502
  158OSM   H10T17685   1.192   1.638   3.889  0.7710 -0.3305  1.6894
  158OSM   C11S17686   1.215   1.826   4.000  0.3140  0.0099  1.0974
  158OSM   H11S17687   1.111   1.865   4.011 -0.0833 -1.0584  1.1913
  158OSM   H11T17688   1.274   1.920   4.016 -2.0703  1.6417  0.8503
  158OSM   C12S17689   1.253   1.734   4.123 -0.3307  0.5683 -0.4811
  158OSM   H12S17690   1.355   1.699   4.099 -0.2579 -0.2391  0.9491
  158OSM   H12T17691   1.187   1.645   4.117  0.2470  0.1437 -0.5689
  158OSM   C13S17692   1.240   1.809   4.261 -0.5751  0.0491 -0.1728
  158OSM   H13S17693   1.132   1.824   4.281 -1.1266 -0.6102 -2.4544
  158OSM   H13T17694   1.284   1.909   4.244 -0.1713  0.3434  2.1870
  158OSM   C14S17695   1.329   1.735   4.363  0.1728 -0.7432  0.4817
  158OSM   H14S17696   1.430   1.701   4.332  0.2659 -0.8424  0.8956
  158OSM   H14T17697   1.275   1.644   4.395  0.8732 -1.4966 -0.4161
  158OSM   C15S17698   1.361   1.824   4.482 -0.2742  0.3127  0.6194
  158OSM   H15S17699   1.431   1.757   4.535 -0.2158 -0.2411 -0.1346
  158OSM   H15T17700   1.263   1.843   4.532 -0.4683 -1.2478  0.8780
  158OSM   C16S17701   1.445   1.943   4.455  0.2498 -0.4338  0.0254
  158OSM   H16S17702   1.395   2.028   4.403  1.6544  1.8926  2.2034
  158OSM   H16T17703   1.517   1.910   4.377 -1.1963 -1.5421 -0.9056
  158OSM   C17S17704   1.525   2.000   4.572 -0.4645  0.1529 -0.1808
  158OSM   H17S17705   1.566   2.101   4.548 -0.4356 -0.0945 -1.2095
  158OSM   H17T17706   1.615   1.940   4.597 -0.5885  0.9090  2.3047
  158OSM   C18S17707   1.447   2.018   4.698 -0.7532 -0.4390  0.0690
  158OSM   H18S17708   1.345   2.062   4.689 -1.1271 -1.4414 -0.6574
  158OSM   H18T17709   1.511   2.075   4.769 -1.5534 -0.3391  0.7354
  158OSM   H18U17710   1.427   1.917   4.739 -0.0801 -0.1098  1.2757
  158OSM    C1F17711   0.929   2.447   3.458  0.1380  0.3945  0.4832
  158OSM     OF17712   0.825   2.487   3.506 -0.0439 -0.1204  0.4387
  158OSM    C2F17713   1.058   2.509   3.503  0.4588 -0.0593  0.1451
  158OSM    H2F17714   1.073   2.608   3.454 -0.2061 -1.4385 -3.1161
  158OSM    H2G17715   1.144   2.443   3.478  0.5002  0.7239 -2.0062
  158OSM    C3F17716   1.072   2.528   3.660 -0.4507  0.6688  0.2493
  158OSM    H3F17717   0.980   2.585   3.687 -1.2532 -1.1822  1.6982
  158OSM    H3G17718   1.152   2.600   3.687 -0.3493 -0.4276  3.2400
  158OSM    C4F17719   1.065   2.407   3.745  0.0409  0.5444  0.3062
  158OSM    H4F17720   1.164   2.356   3.737 -0.3349  0.1117 -2.4672
  158OSM    H4G17721   0.987   2.345   3.698 -1.3661  3.4898 -1.5293
  158OSM    C5F17722   1.025   2.455   3.884 -0.5592 -0.3108 -0.6933
  158OSM    H5F17723   0.926   2.504   3.879  0.3853  1.5795 -2.5542
  158OSM    H5G17724   1.106   2.522   3.919 -0.8348 -1.2617  2.0183
  158OSM    C6F17725   1.037   2.334   3.978 -0.4666  0.6239  0.1917
  158OSM    H6F17726   1.145   2.308   3.989 -0.4574  0.4353 -0.3176
  158OSM    H6G17727   0.979   2.254   3.928  0.8100 -0.6466  0.6795
  158OSM    C7F17728   0.991   2.359   4.124  0.5406 -0.3428 -0.2286
  158OSM    H7F17729   0.880   2.355   4.126  0.5593 -0.7506  1.4006
  158OSM    H7G17730   1.014   2.462   4.156 -1.7187  0.2931 -0.4582
  158OSM    C8F17731   1.044   2.263   4.237  0.6497 -0.7010  0.2787
  158OSM    H8F17732   1.020   2.298   4.339  0.4842 -1.5577  0.5433
  158OSM    H8G17733   1.155   2.273   4.231  0.4461  1.7550 -0.6144
  158OSM    C9F17734   1.020   2.121   4.216  0.1465  0.3572 -0.1194
  158OSM    H9F17735   1.057   2.080   4.121 -0.5226 -3.0482  0.9478
  158OSM   C10F17736   0.940   2.046   4.293 -0.2959 -0.5991  0.5982
  158OSM   H10F17737   0.937   1.938   4.272 -1.6262 -0.7320  1.2989
  158OSM   C11F17738   0.871   2.085   4.422  0.5149 -0.0422  0.3006
  158OSM   H11F17739   0.777   2.025   4.430 -0.0813  0.5013 -1.9729
  158OSM   H11G17740   0.827   2.187   4.418 -2.1175 -1.1012  0.0782
  158OSM   C12F17741   0.953   2.068   4.554 -0.2613  0.0340 -0.0199
  158OSM   H12F17742   0.887   2.107   4.634 -0.9817  1.9947 -1.5060
  158OSM   H12G17743   1.050   2.123   4.560 -0.4485  0.5236 -1.2697
  158OSM   C13F17744   0.988   1.914   4.581  0.4357 -0.1098 -0.4589
  158OSM   H13F17745   1.047   1.918   4.675 -0.9841  1.7557  0.4016
  158OSM   H13G17746   1.060   1.873   4.507  2.5374 -0.9407  1.8983
  158OSM   C14F17747   0.862   1.838   4.604  0.7033  0.2489 -0.6709
  158OSM   H14F17748   0.794   1.829   4.516  1.5147  1.2238 -1.4148
  158OSM   H14G17749   0.802   1.894   4.679  2.5927  2.1144 -0.4537
  158OSM   C15F17750   0.890   1.692   4.646 -0.5439 -0.4515  0.4558
  158OSM   H15F17751   0.980   1.692   4.711 -0.6470  1.4168  0.6493
  158OSM   H15G17752   0.920   1.632   4.557 -0.1295 -1.7882  1.4580
  158OSM   C16F17753   0.766   1.616   4.697  0.5940 -0.4262 -0.2234
  158OSM   H16F17754   0.797   1.510   4.711  1.2659 -0.3993 -1.3770
  158OSM   H16G17755   0.679   1.630   4.630  1.1216 -3.5654 -1.7155
  158OSM   C17F17756   0.726   1.667   4.843  1.0602 -0.3851  0.5425
  158OSM   H17F17757   0.719   1.778   4.841  2.0064 -0.3131  0.7032
  158OSM   H17G17758   0.809   1.643   4.912  1.8187  2.1106  0.6189
  158OSM   C18F17759   0.592   1.615   4.894  0.2437 -0.1683 -0.1598
  158OSM   H18F17760   0.610   1.512   4.930  0.0999 -0.3520 -0.6064
  158OSM   H18G17761   0.525   1.623   4.806 -0.8326  0.6548  0.7093
  158OSM   H18H17762   0.551   1.677   4.976  1.6716  0.1603  0.3368
  159OSM      N17763   3.149   5.049   2.251  0.5532 -0.0573 -0.0504
  159OSM    C1517764   3.019   5.074   2.182 -0.0722  0.0242 -0.5926
  159OSM   H15A17765   2.982   5.170   2.212  0.1834  0.2935 -1.1185
  159OSM   H15B17766   2.951   4.999   2.220 -1.0041  1.0878 -0.1337
  159OSM   H15C17767   3.023   5.065   2.074  0.0188  0.4430 -0.6239
  159OSM    C1417768   3.218   4.931   2.195 -0.1497  0.7625  0.1821
  159OSM   H14A17769   3.259   4.960   2.099 -2.5865  1.8942 -0.6181
  159OSM   H14B17770   3.152   4.848   2.175  2.2453 -1.4732  1.0212
  159OSM   H14C17771   3.294   4.893   2.261 -0.9051  0.1101  0.7116
  159OSM    C1317772   3.225   5.169   2.225 -0.1093  0.0235  0.3927
  159OSM   H13A17773   3.170   5.257   2.256 -0.9092  0.0994 -1.1476
  159OSM   H13B17774   3.251   5.174   2.121 -0.0794 -1.5797  0.2959
  159OSM   H13C17775   3.317   5.174   2.282  1.1096 -2.3704 -1.1654
  159OSM    C1217776   3.128   5.029   2.403  0.1344  0.1143  0.2657
  159OSM   H12A17777   3.226   5.001   2.438  1.2963  1.7380 -1.4459
  159OSM   H12B17778   3.065   4.943   2.418 -2.0260  1.7817  1.2062
  159OSM    C1117779   3.066   5.143   2.492  0.5386 -0.1129  0.1127
  159OSM   H11A17780   3.054   5.106   2.597  0.2618 -3.6713 -1.0187
  159OSM   H11B17781   2.962   5.165   2.458  0.4866 -0.3821  0.0883
  159OSM      P17782   3.112   5.392   2.558 -0.0097 -0.3438 -0.1287
  159OSM    O1317783   3.223   5.483   2.524  0.8451  0.3447 -0.3183
  159OSM    O1417784   2.978   5.442   2.523 -0.6297 -0.0127  0.0856
  159OSM    O1117785   3.117   5.354   2.707  0.8614  0.0434 -0.1380
  159OSM    O1217786   3.145   5.258   2.478 -0.0056  0.2715  0.2302
  159OSM    C1S17787   3.236   5.298   2.763  0.7378  0.3335 -0.1118
  159OSM    H1S17788   3.330   5.352   2.736  0.3591  0.7358 -0.6623
  159OSM    H1T17789   3.241   5.193   2.729 -2.2068 -0.6560  2.1426
  159OSM     NF17790   3.339   5.246   2.983  0.8398 -0.1339  0.1926
  159OSM    HNF17791   3.353   5.156   3.024  1.7302  0.6910  1.7783
  159OSM    C2S17792   3.212   5.285   2.920 -0.4406  0.3875 -0.3050
  159OSM    H2S17793   3.189   5.385   2.963 -0.5282 -0.4785  1.7267
  159OSM    C3S17794   3.097   5.189   2.960  0.0911  0.3066 -0.7213
  159OSM    H3S17795   3.109   5.088   2.917 -1.6095 -0.1002 -0.3189
  159OSM     O317796   2.975   5.229   2.889  0.3031 -0.0901 -0.0676
  159OSM    HO317797   3.008   5.286   2.820  0.0595  1.3754  0.9689
  159OSM    C4S17798   3.072   5.169   3.116 -0.4894 -0.8154 -0.2832
  159OSM    H4S17799   3.090   5.068   3.155 -1.0507 -2.0170 -2.9430
  159OSM    C5S17800   3.026   5.265   3.205 -0.7475  0.6476  0.5790
  159OSM    H5S17801   3.013   5.369   3.171  1.0220  0.7080 -0.0256
  159OSM    C6S17802   3.021   5.239   3.353 -0.1633  0.7169  0.1943
  159OSM    H6S17803   2.925   5.188   3.377 -0.5014  0.2992 -1.8389
  159OSM    H6T17804   3.032   5.334   3.410 -0.8114  1.0537 -0.2273
  159OSM    C7S17805   3.138   5.146   3.401  0.2708 -0.2560 -0.8210
  159OSM    H7S17806   3.233   5.196   3.372  0.5543 -0.1540  0.2465
  159OSM    H7T17807   3.132   5.041   3.364  1.4907 -0.1259 -1.4495
  159OSM    C8S17808   3.144   5.135   3.560 -0.3190  0.0548  0.1388
  159OSM    H8S17809   3.040   5.130   3.600  0.0362 -0.3470  1.0532
  159OSM    H8T17810   3.198   5.219   3.608  0.2698 -1.6989  2.7695
  159OSM    C9S17811   3.207   5.006   3.598 -1.5606  0.1419 -0.3471
  159OSM    H9S17812   3.311   5.006   3.561 -0.3520  0.5955  2.6914
  159OSM    H9T17813   3.160   4.911   3.565 -1.6220 -0.0534  0.2886
  159OSM   C10S17814   3.208   4.986   3.751  0.3759  0.2084 -0.7777
  159OSM   H10S17815   3.268   4.897   3.780 -3.3392 -1.8256  1.4829
  159OSM   H10T17816   3.105   4.962   3.786  0.5410  1.5564  0.7811
  159OSM   C11S17817   3.257   5.103   3.847 -0.0103  0.0576 -0.2435
  159OSM   H11S17818   3.181   5.183   3.833  1.9484  1.9650 -0.5434
  159OSM   H11T17819   3.361   5.134   3.825 -0.2829  1.2932  0.1418
  159OSM   C12S17820   3.252   5.057   3.993  0.3984  0.2368 -0.4330
  159OSM   H12S17821   3.322   4.971   4.006  0.1202 -0.1810 -1.5728
  159OSM   H12T17822   3.155   5.009   4.019  0.8113 -0.0085  0.7151
  159OSM   C13S17823   3.292   5.157   4.100  0.1899 -0.2473 -0.5071
  159OSM   H13S17824   3.223   5.243   4.092 -0.0342 -0.4134 -0.3662
  159OSM   H13T17825   3.388   5.199   4.063 -0.4101  2.6059  0.8634
  159OSM   C14S17826   3.301   5.089   4.235  0.4956 -0.6406  1.1739
  159OSM   H14S17827   3.348   4.989   4.220  0.7443 -0.2272 -1.0575
  159OSM   H14T17828   3.199   5.067   4.272  0.8131 -1.3290  1.6720
  159OSM   C15S17829   3.370   5.162   4.345  0.1065  0.0223  0.1769
  159OSM   H15S17830   3.310   5.255   4.362  1.1168  0.4477  1.6380
  159OSM   H15T17831   3.472   5.185   4.307 -0.3825  2.9259  0.4040
  159OSM   C16S17832   3.367   5.082   4.479  0.0281  0.4334  0.1185
  159OSM   H16S17833   3.445   5.005   4.468  1.2006  1.6661 -0.4923
  159OSM   H16T17834   3.262   5.049   4.492 -0.6267  1.5596 -1.8104
  159OSM   C17S17835   3.401   5.158   4.607  0.2854 -0.1438  0.5813
  159OSM   H17S17836   3.407   5.072   4.676  2.2551 -3.1010 -2.9140
  159OSM   H17T17837   3.308   5.216   4.627  0.9486  0.6754  1.3762
  159OSM   C18S17838   3.524   5.238   4.609  0.3541  0.9443 -0.2981
  159OSM   H18S17839   3.555   5.284   4.705  0.6665 -0.7060  0.4183
  159OSM   H18T17840   3.514   5.322   4.536 -0.5465  1.2880  0.2105
  159OSM   H18U17841   3.609   5.174   4.576 -0.2120 -0.7247  1.3175
  159OSM    C1F17842   3.453   5.326   2.980  0.0674  0.1338 -0.5240
  159OSM     OF17843   3.446   5.438   2.926 -0.4503  0.0373  0.2690
  159OSM    C2F17844   3.583   5.271   3.035 -0.2692  0.3467  0.1897
  159OSM    H2F17845   3.634   5.210   2.959 -1.8222  1.1684 -1.5979
  159OSM    H2G17846   3.558   5.203   3.120  2.3877 -1.1590 -0.1241
  159OSM    C3F17847   3.665   5.391   3.101  0.1499  0.5103  0.0034
  159OSM    H3F17848   3.702   5.469   3.032 -1.8410 -0.1333 -1.9207
  159OSM    H3G17849   3.754   5.345   3.150 -1.5721 -3.0039  0.1774
  159OSM    C4F17850   3.589   5.459   3.212  0.1741  0.3297  0.2182
  159OSM    H4F17851   3.502   5.506   3.161  0.1212  0.1994  0.1871
  159OSM    H4G17852   3.634   5.553   3.250 -0.2294 -0.2421  2.1771
  159OSM    C5F17853   3.570   5.373   3.339  0.5901 -0.1078  0.1822
  159OSM    H5F17854   3.666   5.359   3.392 -1.0711  0.2019  3.4924
  159OSM    H5G17855   3.526   5.274   3.311  0.6669 -0.4015  1.0968
  159OSM    C6F17856   3.468   5.431   3.445 -0.2138  0.4881 -0.3817
  159OSM    H6F17857   3.363   5.426   3.407 -0.0566 -1.4978 -0.6560
  159OSM    H6G17858   3.500   5.536   3.463 -2.3906  1.2050 -0.3661
  159OSM    C7F17859   3.477   5.352   3.578 -0.2410  0.6565  0.2360
  159OSM    H7F17860   3.585   5.370   3.600 -0.8727  2.3059  2.4165
  159OSM    H7G17861   3.464   5.243   3.563 -1.3514  0.6746  0.9563
  159OSM    C8F17862   3.383   5.411   3.686 -0.6045 -0.1921 -0.2849
  159OSM    H8F17863   3.388   5.336   3.768  0.6801 -0.0176 -0.1917
  159OSM    H8G17864   3.279   5.399   3.649 -1.6555 -0.8181  2.5945
  159OSM    C9F17865   3.417   5.550   3.728 -0.0002  0.0476 -0.4549
  159OSM    H9F17866   3.400   5.632   3.656 -0.8485  1.2261  1.0169
  159OSM   C10F17867   3.492   5.575   3.838  0.1320  0.3452 -0.3503
  159OSM   H10F17868   3.514   5.677   3.873 -0.5717  1.1289 -2.0316
  159OSM   C11F17869   3.544   5.471   3.936  0.5094  0.0367  0.5955
  159OSM   H11F17870   3.638   5.428   3.895  0.4798 -0.0176  0.5841
  159OSM   H11G17871   3.480   5.381   3.949  3.7607 -2.3665  1.1831
  159OSM   C12F17872   3.581   5.530   4.066  1.0652 -0.7770  0.2097
  159OSM   H12F17873   3.501   5.597   4.106  0.7574  0.2622 -1.9946
  159OSM   H12G17874   3.673   5.589   4.050  0.6367 -0.6912 -2.4209
  159OSM   C13F17875   3.622   5.424   4.160 -0.1719 -0.1981 -0.1751
  159OSM   H13F17876   3.684   5.351   4.104 -0.4874 -0.5221 -0.1095
  159OSM   H13G17877   3.539   5.359   4.196  1.1579 -1.6202  0.4167
  159OSM   C14F17878   3.706   5.485   4.276  0.5325  0.1586 -0.1312
  159OSM   H14F17879   3.805   5.513   4.234  0.4973  2.0941  0.9331
  159OSM   H14G17880   3.727   5.398   4.341  1.0422  0.5458  0.2354
  159OSM   C15F17881   3.638   5.590   4.366  0.3704  0.1260  0.3093
  159OSM   H15F17882   3.529   5.568   4.366  0.1894  0.6218 -2.4124
  159OSM   H15G17883   3.662   5.686   4.315 -0.8668 -0.0806 -0.7228
  159OSM   C16F17884   3.681   5.596   4.508 -0.0327 -0.3896  0.0217
  159OSM   H16F17885   3.791   5.607   4.508  0.0921 -1.5042  0.9952
  159OSM   H16G17886   3.661   5.505   4.569 -1.1850  1.0939  2.0049
  159OSM   C17F17887   3.627   5.721   4.578 -0.1572  0.0703  0.7391
  159OSM   H17F17888   3.519   5.735   4.554  0.1445  0.8619 -0.2319
  159OSM   H17G17889   3.678   5.810   4.537 -0.0388  0.7589  2.3129
  159OSM   C18F17890   3.663   5.734   4.718  0.0611 -0.1607  0.5344
  159OSM   H18F17891   3.584   5.789   4.774  1.0890  3.5101 -1.3106
  159OSM   H18G17892   3.752   5.802   4.715 -0.2791  0.3842  1.9778
  159OSM   H18H17893   3.683   5.638   4.769  1.0655 -0.5923 -0.6129
  160OSM      N17894   2.788   6.087   2.283  0.2911  0.1488  0.5244
  160OSM    C1517895   2.805   6.048   2.137 -0.3324  0.1534 -0.1097
  160OSM   H15A17896   2.883   5.974   2.125 -0.7461 -0.6740  1.8847
  160OSM   H15B17897   2.835   6.138   2.085  0.9384 -1.2886 -2.0252
  160OSM   H15C17898   2.713   6.024   2.087 -1.0021  0.4195  0.9795
  160OSM    C1417899   2.920   6.127   2.339  0.0998 -0.4192 -0.4742
  160OSM   H14A17900   2.908   6.168   2.438 -1.7131 -0.4462 -0.6597
  160OSM   H14B17901   2.979   6.194   2.277 -0.8273  0.1175 -0.7928
  160OSM   H14C17902   2.983   6.046   2.373  0.2444 -0.5097 -0.9482
  160OSM    C1317903   2.694   6.203   2.289  0.2193  0.0502  0.3920
  160OSM   H13A17904   2.740   6.296   2.260 -0.0578  0.2576  0.6164
  160OSM   H13B17905   2.672   6.211   2.394  2.9159  1.1889  0.9640
  160OSM   H13C17906   2.611   6.175   2.227  0.5416 -3.7208  1.4002
  160OSM    C1217907   2.729   5.966   2.355 -0.7971  0.5255  0.0203
  160OSM   H12A17908   2.803   5.887   2.346 -0.6658  0.4461  1.5289
  160OSM   H12B17909   2.651   5.924   2.295 -0.2227  0.4706 -0.7002
  160OSM    C1117910   2.686   5.991   2.503  0.0425  0.2586 -0.4153
  160OSM   H11A17911   2.766   6.046   2.557  0.7869 -0.7133 -0.4954
  160OSM   H11B17912   2.675   5.896   2.561  0.7934 -1.7081 -3.2846
  160OSM      P17913   2.430   6.029   2.463  0.1066  0.2235 -0.5204
  160OSM    O1317914   2.342   6.137   2.424  0.4299  0.0145 -0.8164
  160OSM    O1417915   2.441   5.919   2.366  0.3585  0.3395 -1.0069
  160OSM    O1117916   2.368   5.965   2.589  0.2831  0.0646  0.3059
  160OSM    O1217917   2.573   6.075   2.507  0.1347 -0.0530  0.4546
  160OSM    C1S17918   2.438   5.981   2.715  0.2319 -0.4229  0.4401
  160OSM    H1S17919   2.448   6.088   2.741  0.5353  0.4223 -2.7402
  160OSM    H1T17920   2.534   5.927   2.723  1.4443  1.6320  0.2932
  160OSM     NF17921   2.435   5.931   2.955  0.3950 -0.1084 -0.0676
  160OSM    HNF17922   2.497   5.853   2.963 -0.8480 -1.0974  0.2236
  160OSM    C2S17923   2.352   5.925   2.838  0.1225 -0.3581  0.5674
  160OSM    H2S17924   2.268   5.998   2.835 -0.8164 -1.4430 -1.6309
  160OSM    C3S17925   2.288   5.788   2.808  0.2959 -0.2724 -0.1800
  160OSM    H3S17926   2.374   5.720   2.790  0.3973 -0.5041  1.0979
  160OSM     O317927   2.214   5.774   2.686 -0.1396 -0.5013  0.3406
  160OSM    HO317928   2.230   5.864   2.657  0.8765 -1.2814 -1.8152
  160OSM    C4S17929   2.211   5.749   2.928 -0.1958  0.0290 -0.1344
  160OSM    H4S17930   2.149   5.830   2.969  0.7474  1.9348 -2.2719
  160OSM    C5S17931   2.232   5.643   3.005 -0.3739  0.7396 -0.5194
  160OSM    H5S17932   2.313   5.571   2.990  0.4075  1.4275  0.3207
  160OSM    C6S17933   2.154   5.630   3.127 -0.3417 -0.4553 -0.1110
  160OSM    H6S17934   2.175   5.527   3.164  0.1532 -0.0901  0.6703
  160OSM    H6T17935   2.046   5.635   3.102  0.3194  0.8807 -3.0889
  160OSM    C7S17936   2.186   5.734   3.232 -0.1474 -0.8008  0.2371
  160OSM    H7S17937   2.168   5.837   3.195  2.0223 -0.3290  0.3545
  160OSM    H7T17938   2.295   5.727   3.253 -0.0875 -1.2023 -0.2000
  160OSM    C8S17939   2.115   5.717   3.363 -0.0049 -0.3955 -0.2243
  160OSM    H8S17940   2.114   5.612   3.400 -0.4500 -0.1365  0.5069
  160OSM    H8T17941   2.007   5.731   3.345 -0.0982 -1.0189 -0.1767
  160OSM    C9S17942   2.161   5.810   3.471  0.3445  0.4309 -0.3314
  160OSM    H9S17943   2.178   5.910   3.425  0.6469 -0.2283 -1.6961
  160OSM    H9T17944   2.256   5.760   3.502 -0.6879 -0.7388  1.1110
  160OSM   C10S17945   2.080   5.808   3.603 -0.6552 -0.5383  0.4744
  160OSM   H10S17946   2.045   5.707   3.631  0.6158 -1.6584 -1.7866
  160OSM   H10T17947   1.994   5.877   3.591 -0.4788 -0.6708 -2.0424
  160OSM   C11S17948   2.159   5.875   3.726  0.9289 -0.6011  0.1844
  160OSM   H11S17949   2.180   5.980   3.697  0.1810 -0.9677 -1.8379
  160OSM   H11T17950   2.251   5.815   3.741 -0.0105 -2.4431 -1.0637
  160OSM   C12S17951   2.064   5.885   3.851  0.5468  0.3969  0.3784
  160OSM   H12S17952   2.014   5.787   3.863  0.2261  0.7078  1.8088
  160OSM   H12T17953   1.977   5.950   3.829 -0.2180 -1.1033 -1.3126
  160OSM   C13S17954   2.123   5.936   3.981 -0.2406 -0.3711  0.3986
  160OSM   H13S17955   2.046   5.958   4.058 -1.4107 -0.1692 -0.7907
  160OSM   H13T17956   2.164   6.037   3.959 -2.4369  0.0656 -2.3153
  160OSM   C14S17957   2.227   5.841   4.040  0.1140  0.8569  0.5858
  160OSM   H14S17958   2.310   5.819   3.970 -0.5842 -0.1241  0.0433
  160OSM   H14T17959   2.184   5.740   4.054  1.3507  0.3896  1.1888
  160OSM   C15S17960   2.273   5.882   4.177  0.1122 -0.1902 -0.8930
  160OSM   H15S17961   2.186   5.911   4.239  2.0243  1.5105  1.1441
  160OSM   H15T17962   2.329   5.977   4.184  1.0690 -0.8436  1.1857
  160OSM   C16S17963   2.349   5.772   4.254 -0.5205 -0.3723  0.0598
  160OSM   H16S17964   2.432   5.723   4.198  0.0170 -0.8911  1.2911
  160OSM   H16T17965   2.271   5.694   4.260 -3.1318  1.4031 -4.8801
  160OSM   C17S17966   2.409   5.818   4.382 -0.4136 -0.2184 -0.6024
  160OSM   H17S17967   2.333   5.835   4.462 -0.9864 -3.0008 -0.4369
  160OSM   H17T17968   2.464   5.912   4.362 -0.4463  0.0494  0.4595
  160OSM   C18S17969   2.509   5.719   4.436  0.0216  0.5436 -0.2158
  160OSM   H18S17970   2.470   5.620   4.466 -0.7905  0.7433 -0.6043
  160OSM   H18T17971   2.569   5.754   4.523  1.1614 -0.8527 -0.4055
  160OSM   H18U17972   2.580   5.701   4.353  1.2043 -0.0276  0.8818
  160OSM    C1F17973   2.453   6.043   3.024 -0.0951  0.8167  0.9195
  160OSM     OF17974   2.416   6.150   2.981 -0.2610 -0.3184  0.2782
  160OSM    C2F17975   2.542   6.036   3.134  0.2396 -0.1127 -0.3263
  160OSM    H2F17976   2.580   6.136   3.164  1.4559 -0.6529 -0.0124
  160OSM    H2G17977   2.630   5.969   3.121 -0.5689 -0.9423 -1.7618
  160OSM    C3F17978   2.488   5.995   3.271  0.5442  0.5091 -0.3613
  160OSM    H3F17979   2.435   5.898   3.268  0.0938  0.7484 -0.2658
  160OSM    H3G17980   2.417   6.060   3.326 -1.0227  0.2445 -1.9723
  160OSM    C4F17981   2.596   5.969   3.379 -0.6660 -0.3601 -0.4059
  160OSM    H4F17982   2.642   6.066   3.407 -2.5568  0.2387  0.8885
  160OSM    H4G17983   2.675   5.897   3.350 -0.9695 -1.8563  2.1193
  160OSM    C5F17984   2.545   5.914   3.516  0.2632 -0.4608  0.0117
  160OSM    H5F17985   2.522   5.806   3.501 -1.1461 -0.3183  0.9456
  160OSM    H5G17986   2.472   5.977   3.571  0.0052 -0.6141 -0.1532
  160OSM    C6F17987   2.657   5.919   3.622  0.3105 -0.4865 -0.2730
  160OSM    H6F17988   2.698   6.022   3.628  2.1029 -1.2526  2.8152
  160OSM    H6G17989   2.735   5.841   3.602  1.2428  1.0048 -2.9229
  160OSM    C7F17990   2.601   5.901   3.766 -0.3785 -0.4218 -0.3940
  160OSM    H7F17991   2.525   5.821   3.751  2.6311 -3.4685 -0.6853
  160OSM    H7G17992   2.555   5.994   3.806  0.4102 -0.6503  1.0741
  160OSM    C8F17993   2.705   5.853   3.870  0.5957 -0.1702 -0.5871
  160OSM    H8F17994   2.801   5.909   3.869  0.4444  0.0916 -0.5782
  160OSM    H8G17995   2.735   5.749   3.846 -0.0085 -0.5007  0.0412
  160OSM    C9F17996   2.632   5.852   4.005  0.1274  0.1462 -0.0650
  160OSM    H9F17997   2.523   5.860   4.005 -0.0719 -1.9332  1.8250
  160OSM   C10F17998   2.697   5.882   4.113 -0.4914  0.0679 -0.3552
  160OSM   H10F17999   2.642   5.890   4.208 -1.6164 -0.4568 -0.9526
  160OSM   C11F18000   2.850   5.896   4.135  0.5723 -0.6487 -0.3316
  160OSM   H11F18001   2.873   6.005   4.130 -4.7443  0.7443 -0.6347
  160OSM   H11G18002   2.907   5.857   4.048  0.8933  1.2426 -1.0235
  160OSM   C12F18003   2.890   5.842   4.269  0.6181 -0.4964 -0.2634
  160OSM   H12F18004   3.001   5.838   4.264  0.6900  0.7902  0.1389
  160OSM   H12G18005   2.849   5.739   4.268  1.1315 -0.7243 -1.9611
  160OSM   C13F18006   2.843   5.917   4.393 -0.0143  0.2827 -0.0273
  160OSM   H13F18007   2.733   5.929   4.387  0.0528  0.6763 -0.5504
  160OSM   H13G18008   2.889   6.018   4.380  0.7906 -0.2068 -1.1443
  160OSM   C14F18009   2.889   5.862   4.525  0.1769  0.3014 -0.0260
  160OSM   H14F18010   2.997   5.890   4.529  0.6884 -1.3458 -1.1409
  160OSM   H14G18011   2.888   5.751   4.531  0.2596  0.3258  0.5010
  160OSM   C15F18012   2.809   5.908   4.650 -0.3657  0.2978 -0.0313
  160OSM   H15F18013   2.709   5.861   4.642  0.3687 -1.9771  2.5875
  160OSM   H15G18014   2.799   6.019   4.644  2.3644  0.6367  0.4823
  160OSM   C16F18015   2.880   5.853   4.780  0.5858  0.4165  0.3157
  160OSM   H16F18016   2.880   5.742   4.771 -1.5212  0.4232 -0.4140
  160OSM   H16G18017   2.827   5.899   4.866 -1.1720 -0.2582 -0.3474
  160OSM   C17F18018   3.032   5.892   4.791 -0.6976  0.1663  0.4032
  160OSM   H17F18019   3.034   6.002   4.782  2.8422  0.3506  1.9568
  160OSM   H17G18020   3.106   5.854   4.717  0.6278  0.4768  1.5449
  160OSM   C18F18021   3.095   5.853   4.924  0.0176  0.3167  0.2603
  160OSM   H18F18022   3.204   5.875   4.920  0.2971 -1.0024  0.1304
  160OSM   H18G18023   3.092   5.743   4.940 -0.8772 -0.2118 -2.8805
  160OSM   H18H18024   3.047   5.899   5.014 -0.0629  0.4706  0.1388
  161OSM      N18025   0.184   3.141   2.951 -0.3303 -0.6356  0.3386
  161OSM    C1518026   0.197   3.282   3.001 -0.2078 -0.2509 -0.6178
  161OSM   H15A18027   0.106   3.326   3.039  0.2332  0.0336  0.1296
  161OSM   H15B18028   0.236   3.343   2.921  1.6364 -0.1430  0.3136
  161OSM   H15C18029   0.273   3.299   3.074  0.5422 -3.6590 -0.4340
  161OSM    C1418030   0.064   3.140   2.857 -0.6227 -0.4586  0.1772
  161OSM   H14A18031  -0.024   3.162   2.916  1.4735  2.5533  2.4680
  161OSM   H14B18032   0.068   3.039   2.819 -2.6451 -1.4886  2.4227
  161OSM   H14C18033   0.075   3.213   2.778 -1.2032  0.1299  0.6291
  161OSM    C1318034   0.301   3.109   2.861 -0.0271 -0.5141 -0.8557
  161OSM   H13A18035   0.292   3.003   2.845 -1.6515 -0.8520  1.7294
  161OSM   H13B18036   0.392   3.147   2.907  0.4113  0.2981 -2.3188
  161OSM   H13C18037   0.299   3.174   2.774  1.4524  1.1458  0.2632
  161OSM    C1218038   0.184   3.045   3.066  0.6037  0.1707 -0.2379
  161OSM   H12A18039   0.269   3.077   3.124 -0.5682  5.1794 -0.8445
  161OSM   H12B18040   0.202   2.943   3.034  1.3880 -0.4972  2.1535
  161OSM    C1118041   0.057   3.041   3.151  0.8596  0.7396  0.1158
  161OSM   H11A18042   0.019   3.145   3.162 -1.7908  0.1304 -2.1972
  161OSM   H11B18043   0.090   2.991   3.244  2.2526  1.2672 -0.0675
  161OSM      P18044  -0.203   2.986   3.077  0.1720 -0.4046  0.5001
  161OSM    O1318045  -0.227   3.119   3.024 -0.3911 -0.4682  0.1432
  161OSM    O1418046  -0.274   2.878   3.002  0.4918 -0.3347  0.0194
  161OSM    O1118047  -0.242   2.978   3.233  0.3751 -0.0104  0.4292
  161OSM    O1218048  -0.048   2.957   3.090  0.0995 -0.0251  0.5408
  161OSM    C1S18049  -0.209   3.076   3.331 -0.6559 -0.2757  0.1579
  161OSM    H1S18050  -0.151   3.163   3.296 -0.4347  0.2203  1.7038
  161OSM    H1T18051  -0.138   3.026   3.400 -0.0037  0.1196 -0.2202
  161OSM     NF18052  -0.331   3.106   3.552 -0.1576  0.3942  0.5924
  161OSM    HNF18053  -0.395   3.033   3.575  1.7345 -2.3691 -2.0180
  161OSM    C2S18054  -0.333   3.144   3.411 -0.2973 -0.3545  0.5752
  161OSM    H2S18055  -0.312   3.253   3.407 -1.5712 -0.1362 -1.3180
  161OSM    C3S18056  -0.470   3.128   3.339 -0.0012  0.5897  0.1393
  161OSM    H3S18057  -0.480   3.019   3.321  4.1135  0.1099 -0.1913
  161OSM     O318058  -0.482   3.195   3.218  0.3059 -0.0145  0.3970
  161OSM    HO318059  -0.392   3.200   3.185  0.2677 -1.0993  0.0965
  161OSM    C4S18060  -0.578   3.192   3.432  0.3774 -0.5290  0.2053
  161OSM    H4S18061  -0.570   3.302   3.431  1.2235 -0.5755  0.9199
  161OSM    C5S18062  -0.678   3.125   3.504  0.4142  0.2511  0.1396
  161OSM    H5S18063  -0.679   3.017   3.523 -0.5614  0.2233  0.0042
  161OSM    C6S18064  -0.784   3.191   3.595  0.3438  0.0581 -0.7828
  161OSM    H6S18065  -0.814   3.115   3.670  2.2404 -2.3766 -2.3507
  161OSM    H6T18066  -0.874   3.201   3.532 -0.0409 -1.0043 -0.4247
  161OSM    C7S18067  -0.750   3.305   3.691 -0.0000 -0.5908  0.0700
  161OSM    H7S18068  -0.836   3.326   3.759 -1.2088 -1.9609 -0.9765
  161OSM    H7T18069  -0.735   3.402   3.640 -1.0339  0.7363  2.1127
  161OSM    C8S18070  -0.633   3.275   3.786 -0.9657 -0.0082 -0.0282
  161OSM    H8S18071  -0.625   3.365   3.851  1.2217 -1.8179  2.4216
  161OSM    H8T18072  -0.538   3.271   3.728 -0.4561 -1.8245  0.8474
  161OSM    C9S18073  -0.653   3.163   3.890  0.6885  0.2040  0.3277
  161OSM    H9S18074  -0.586   3.075   3.881  1.1371  0.6388 -0.8153
  161OSM    H9T18075  -0.751   3.114   3.872  0.2371  0.4410  2.0471
  161OSM   C10S18076  -0.631   3.207   4.031 -0.0730  0.3795 -0.8003
  161OSM   H10S18077  -0.716   3.271   4.062  0.0416 -0.9289  2.7137
  161OSM   H10T18078  -0.540   3.270   4.038 -0.2193  0.4010  2.5360
  161OSM   C11S18079  -0.634   3.088   4.129  0.0461 -0.7568  0.1792
  161OSM   H11S18080  -0.555   3.014   4.104 -0.4710 -1.3869  0.4016
  161OSM   H11T18081  -0.738   3.056   4.148 -1.0154  0.8371 -2.4357
  161OSM   C12S18082  -0.584   3.146   4.270 -0.2569 -0.9963 -0.1494
  161OSM   H12S18083  -0.506   3.225   4.268 -0.4571 -0.7992 -0.4050
  161OSM   H12T18084  -0.545   3.063   4.332  0.9614 -0.6902 -0.4840
  161OSM   C13S18085  -0.690   3.221   4.351  0.1982 -0.1722  0.1564
  161OSM   H13S18086  -0.783   3.160   4.343  0.2185  0.0758 -2.7087
  161OSM   H13T18087  -0.719   3.315   4.300 -0.7459 -0.3732  0.2857
  161OSM   C14S18088  -0.631   3.250   4.496 -0.2631  0.3183  0.7038
  161OSM   H14S18089  -0.525   3.282   4.487  0.1239 -1.4851 -2.5976
  161OSM   H14T18090  -0.619   3.151   4.544 -0.0942  0.6416  1.3302
  161OSM   C15S18091  -0.707   3.343   4.581  0.6807 -0.4846 -0.9855
  161OSM   H15S18092  -0.728   3.433   4.520  1.2118 -0.1471 -0.6789
  161OSM   H15T18093  -0.649   3.381   4.667  0.3713 -0.2464 -0.8840
  161OSM   C16S18094  -0.836   3.289   4.644  0.0551  0.2903  0.7236
  161OSM   H16S18095  -0.897   3.241   4.564  0.5282  1.4763 -0.3684
  161OSM   H16T18096  -0.892   3.377   4.682  0.4025 -0.4411  3.0739
  161OSM   C17S18097  -0.821   3.191   4.764 -0.3900 -0.8036 -0.6598
  161OSM   H17S18098  -0.745   3.244   4.825 -0.6864 -1.3820  0.2289
  161OSM   H17T18099  -0.785   3.095   4.720  1.4473 -0.9476  1.0326
  161OSM   C18S18100  -0.953   3.188   4.842  0.2956  0.3178  0.3338
  161OSM   H18S18101  -1.041   3.189   4.775 -1.0075 -0.4284  1.9743
  161OSM   H18T18102  -0.964   3.262   4.924  0.6571  0.6311  0.1026
  161OSM   H18U18103  -0.955   3.085   4.885 -1.0193 -0.9482 -2.4681
  161OSM    C1F18104  -0.230   3.123   3.635 -0.3348  0.6115 -1.0085
  161OSM     OF18105  -0.132   3.189   3.607 -0.1094 -0.0375  0.0467
  161OSM    C2F18106  -0.241   3.058   3.768 -0.5568  0.3094 -0.5335
  161OSM    H2F18107  -0.240   2.947   3.758 -0.5558 -0.1372  3.1028
  161OSM    H2G18108  -0.340   3.078   3.814 -0.4548 -1.4912  0.5589
  161OSM    C3F18109  -0.130   3.095   3.867  0.0417 -0.0478 -0.0450
  161OSM    H3F18110  -0.131   3.202   3.896  0.8190  0.0843 -0.5010
  161OSM    H3G18111  -0.034   3.072   3.816  0.5300 -1.2875  1.3618
  161OSM    C4F18112  -0.141   3.016   3.999 -0.5876 -0.2265 -0.6747
  161OSM    H4F18113  -0.106   2.912   3.982  0.6999 -0.0370  0.6152
  161OSM    H4G18114  -0.246   2.997   4.029 -0.1449 -1.2795  0.2637
  161OSM    C5F18115  -0.059   3.083   4.113  0.7118  0.1841 -0.0083
  161OSM    H5F18116   0.010   3.158   4.067 -0.5915 -0.1960 -2.7799
  161OSM    H5G18117  -0.005   3.006   4.172  0.9223  1.4755  1.5867
  161OSM    C6F18118  -0.152   3.157   4.218 -0.1150 -0.0903  0.2318
  161OSM    H6F18119  -0.083   3.154   4.306 -1.5909  0.6725  1.4526
  161OSM    H6G18120  -0.243   3.101   4.244 -0.6968 -1.1773 -3.5056
  161OSM    C7F18121  -0.159   3.306   4.190 -0.2172 -0.1811  0.8447
  161OSM    H7F18122  -0.257   3.330   4.144  0.7705 -1.3514 -2.1025
  161OSM    H7G18123  -0.097   3.330   4.101  0.1292 -1.9979  0.5429
  161OSM    C8F18124  -0.125   3.400   4.303 -0.2009  0.1231 -0.3217
  161OSM    H8F18125  -0.148   3.506   4.278 -1.8737 -0.3007 -0.7039
  161OSM    H8G18126  -0.015   3.386   4.318 -0.2704  0.1069  0.1975
  161OSM    C9F18127  -0.197   3.361   4.433 -0.3438  0.5764  1.4237
  161OSM    H9F18128  -0.305   3.374   4.416  0.0092  2.0430  0.0703
  161OSM   C10F18129  -0.152   3.312   4.552 -0.3783 -0.3276 -0.3604
  161OSM   H10F18130  -0.213   3.272   4.634  0.6309 -0.6524  0.2378
  161OSM   C11F18131  -0.004   3.295   4.588  1.0475 -0.4683  0.1604
  161OSM   H11F18132   0.058   3.283   4.496  0.7528 -1.4770  0.0761
  161OSM   H11G18133   0.001   3.198   4.642 -1.6430 -0.3414  0.7763
  161OSM   C12F18134   0.047   3.396   4.701  0.3702  0.3202 -0.3795
  161OSM   H12F18135  -0.019   3.486   4.706  0.3292  0.2753 -0.1148
  161OSM   H12G18136   0.147   3.433   4.672 -0.1936  2.7697  0.5163
  161OSM   C13F18137   0.047   3.331   4.837  0.1016  0.8584 -0.1543
  161OSM   H13F18138   0.101   3.236   4.821  1.0674  0.8027  2.8147
  161OSM   H13G18139  -0.055   3.292   4.858  0.4422 -2.0651 -3.1844
  161OSM   C14F18140   0.117   3.415   4.941  1.1142  0.3878 -0.0245
  161OSM   H14F18141   0.213   3.449   4.897  1.9173 -2.2208 -0.4414
  161OSM   H14G18142   0.146   3.342   5.020 -1.3977 -1.9087 -1.0345
  161OSM   C15F18143   0.023   3.533   4.986 -0.4165 -0.1788 -0.0097
  161OSM   H15F18144  -0.077   3.494   5.014 -0.3939 -0.1442  0.1216
  161OSM   H15G18145   0.002   3.592   4.894  3.1473 -0.4133 -1.1227
  161OSM   C16F18146   0.083   3.623   5.096  0.1098 -0.1979 -0.2099
  161OSM   H16F18147   0.135   3.570   5.179 -0.3414 -0.7268 -0.2606
  161OSM   H16G18148  -0.003   3.661   5.154 -0.2843 -1.5773  0.1480
  161OSM   C17F18149   0.163   3.748   5.042 -0.4175 -0.7452  0.1708
  161OSM   H17F18150   0.247   3.715   4.977 -0.5113  0.1853 -0.4450
  161OSM   H17G18151   0.187   3.816   5.127 -2.1887 -1.2209  1.0921
  161OSM   C18F18152   0.094   3.838   4.942  0.3849 -0.8625  0.3647
  161OSM   H18F18153   0.163   3.914   4.899 -0.0326 -0.1248  0.9796
  161OSM   H18G18154   0.009   3.899   4.977  2.5656  3.0912 -0.5655
  161OSM   H18H18155   0.056   3.780   4.855  0.2232 -0.9644  0.5035
  162OSM      N18156   1.457   5.694   2.502  0.0638  0.4990  0.0661
  162OSM    C1518157   1.451   5.659   2.648 -0.4948 -0.4016  0.1054
  162OSM   H15A18158   1.512   5.573   2.671  0.1756 -0.3185 -1.2808
  162OSM   H15B18159   1.357   5.634   2.695 -0.0549 -0.5626  0.9233
  162OSM   H15C18160   1.491   5.743   2.704 -0.7600 -0.0573 -0.2177
  162OSM    C1418161   1.386   5.574   2.444 -0.0379  0.1506  0.4872
  162OSM   H14A18162   1.446   5.486   2.465 -0.1277 -0.0262  0.0138
  162OSM   H14B18163   1.383   5.585   2.337  0.0577 -0.9883  0.3551
  162OSM   H14C18164   1.284   5.563   2.477  0.6420  2.9469  4.1050
  162OSM    C1318165   1.382   5.819   2.466 -0.2549 -0.2404  0.0604
  162OSM   H13A18166   1.441   5.900   2.506 -1.5147 -0.7355  3.1885
  162OSM   H13B18167   1.290   5.819   2.523  0.7851 -0.6625  1.8082
  162OSM   H13C18168   1.359   5.824   2.361  0.4861 -0.4158 -0.1189
  162OSM    C1218169   1.603   5.701   2.456 -0.3172 -0.2334  0.1933
  162OSM   H12A18170   1.639   5.784   2.515 -2.1813 -0.3602  1.6339
  162OSM   H12B18171   1.604   5.734   2.353  0.2449  1.2121  0.6336
  162OSM    C1118172   1.697   5.580   2.471 -0.3037  0.2364  0.4447
  162OSM   H11A18173   1.713   5.553   2.577 -1.7071 -1.5924  0.2428
  162OSM   H11B18174   1.793   5.614   2.426 -0.7601 -0.4784 -1.1696
  162OSM      P18175   1.692   5.319   2.421  0.1555 -0.0863  0.1395
  162OSM    O1318176   1.683   5.251   2.290  0.2307  0.5170 -0.0953
  162OSM    O1418177   1.821   5.316   2.501  0.5807  0.5119 -0.6762
  162OSM    O1118178   1.577   5.284   2.517  0.6852  0.1016  0.0899
  162OSM    O1218179   1.655   5.471   2.396 -0.7949 -0.0084 -0.5078
  162OSM    C1S18180   1.551   5.155   2.581 -0.7711 -0.3651 -0.2756
  162OSM    H1S18181   1.634   5.087   2.555  1.2897  1.7966  0.2913
  162OSM    H1T18182   1.453   5.122   2.540 -0.4666 -0.8946 -0.5875
  162OSM     NF18183   1.550   5.039   2.789  0.3612  0.4253 -0.5563
  162OSM    HNF18184   1.462   4.993   2.799  1.2804 -1.0770  1.1710
  162OSM    C2S18185   1.552   5.175   2.737 -0.0635  0.1490  0.3795
  162OSM    H2S18186   1.649   5.224   2.761 -1.1834  2.0997  1.1144
  162OSM    C3S18187   1.433   5.260   2.788  0.3100 -0.0377  0.7306
  162OSM    H3S18188   1.336   5.214   2.759  1.2418 -1.1584 -0.7662
  162OSM     O318189   1.420   5.391   2.731  0.0692  0.2119  0.7998
  162OSM    HO318190   1.478   5.395   2.654 -1.1318  3.0302 -0.1064
  162OSM    C4S18191   1.428   5.266   2.935 -0.7893 -0.7953  0.6061
  162OSM    H4S18192   1.349   5.201   2.975 -2.5298  1.9459  1.8887
  162OSM    C5S18193   1.502   5.338   3.017 -1.0461 -0.3197  0.4413
  162OSM    H5S18194   1.573   5.409   2.972  1.4455 -3.0233 -0.2020
  162OSM    C6S18195   1.494   5.349   3.162  0.4387  0.2450 -0.8788
  162OSM    H6S18196   1.441   5.443   3.190 -0.2319 -0.3347 -0.1579
  162OSM    H6T18197   1.596   5.348   3.206 -0.5854 -0.1556  1.6389
  162OSM    C7S18198   1.408   5.243   3.228  0.4177 -0.3793 -0.2467
  162OSM    H7S18199   1.464   5.149   3.212  4.0403  1.5584 -0.1479
  162OSM    H7T18200   1.305   5.246   3.185  0.8668  1.3635 -1.3385
  162OSM    C8S18201   1.385   5.280   3.371  0.0578 -0.2092  0.3134
  162OSM    H8S18202   1.348   5.384   3.387 -0.0311 -0.1117 -0.4858
  162OSM    H8T18203   1.487   5.267   3.414  0.7200 -1.3898 -1.4955
  162OSM    C9S18204   1.288   5.183   3.436  0.0410 -0.1679  0.5004
  162OSM    H9S18205   1.324   5.078   3.440  0.2225 -0.3255 -2.8591
  162OSM    H9T18206   1.192   5.183   3.380 -0.8685 -0.2604  1.9962
  162OSM   C10S18207   1.257   5.232   3.569 -0.2528  0.2946 -0.1007
  162OSM   H10S18208   1.162   5.185   3.600 -1.4320  2.5460 -0.0718
  162OSM   H10T18209   1.213   5.334   3.572  0.7650  0.7923 -1.0883
  162OSM   C11S18210   1.372   5.214   3.675 -0.2663 -0.7116 -0.2082
  162OSM   H11S18211   1.457   5.274   3.633 -1.1787 -0.5689 -1.9448
  162OSM   H11T18212   1.399   5.107   3.673 -1.7021 -1.1049  0.3743
  162OSM   C12S18213   1.340   5.273   3.819 -0.2666  0.8132 -0.2101
  162OSM   H12S18214   1.243   5.234   3.857  0.2133  0.5550  0.7672
  162OSM   H12T18215   1.326   5.383   3.818 -0.3318  0.8553  1.7818
  162OSM   C13S18216   1.453   5.246   3.919  0.2708  0.1054 -0.7553
  162OSM   H13S18217   1.551   5.282   3.880  0.8079 -2.4048 -1.9527
  162OSM   H13T18218   1.462   5.136   3.931 -1.5361 -0.0991 -0.9871
  162OSM   C14S18219   1.419   5.279   4.069  0.3937 -0.4750  0.1342
  162OSM   H14S18220   1.324   5.226   4.093 -0.7749  0.8694 -1.3174
  162OSM   H14T18221   1.407   5.388   4.081  2.2409 -0.2408  0.1450
  162OSM   C15S18222   1.527   5.241   4.160 -0.2413  0.1276 -0.2438
  162OSM   H15S18223   1.619   5.285   4.118  0.4696 -1.2638 -0.2077
  162OSM   H15T18224   1.541   5.131   4.171 -3.2367 -0.3745 -0.6038
  162OSM   C16S18225   1.501   5.294   4.310 -0.4046  0.7122  0.0895
  162OSM   H16S18226   1.451   5.393   4.311 -1.5233  0.1562  1.1271
  162OSM   H16T18227   1.605   5.299   4.350  0.6939 -0.0093 -2.4529
  162OSM   C17S18228   1.410   5.207   4.394  0.3078  0.3319 -0.3955
  162OSM   H17S18229   1.445   5.102   4.382 -1.5637 -0.6347  1.7797
  162OSM   H17T18230   1.308   5.209   4.350  0.0335 -1.2844  0.1059
  162OSM   C18S18231   1.398   5.237   4.547 -0.2780 -0.3441  0.5068
  162OSM   H18S18232   1.311   5.184   4.591 -0.6331  0.3988  0.7113
  162OSM   H18T18233   1.389   5.345   4.573  1.9240 -0.2693  1.1742
  162OSM   H18U18234   1.485   5.194   4.602  0.7496 -2.1693 -2.3341
  162OSM    C1F18235   1.653   4.958   2.794  0.3462 -0.1809  0.4361
  162OSM     OF18236   1.769   4.992   2.771  0.0400 -0.1365  0.0191
  162OSM    C2F18237   1.621   4.816   2.813 -0.3847 -0.5152 -1.0756
  162OSM    H2F18238   1.717   4.761   2.824 -0.6781 -0.9999 -0.9031
  162OSM    H2G18239   1.568   4.776   2.724 -1.2169 -1.0021 -0.3892
  162OSM    C3F18240   1.549   4.803   2.950  0.1304  0.5162 -0.3672
  162OSM    H3F18241   1.521   4.696   2.957  0.7061  0.3596 -0.4488
  162OSM    H3G18242   1.451   4.852   2.967  0.8165  1.9634 -0.4050
  162OSM    C4F18243   1.643   4.838   3.068 -0.0309  0.2126 -0.1793
  162OSM    H4F18244   1.685   4.940   3.065  1.7776 -0.1024  4.6999
  162OSM    H4G18245   1.721   4.761   3.052 -1.7198 -1.4067 -0.9953
  162OSM    C5F18246   1.580   4.813   3.207 -0.0928 -0.0005 -0.3241
  162OSM    H5F18247   1.563   4.704   3.222  0.6735 -0.0169  0.5016
  162OSM    H5G18248   1.487   4.874   3.206 -1.5537 -1.9410 -4.2345
  162OSM    C6F18249   1.670   4.863   3.330 -0.1779 -0.2567  0.3528
  162OSM    H6F18250   1.701   4.969   3.319  1.1108 -0.6384  0.1077
  162OSM    H6G18251   1.757   4.796   3.347 -0.8675 -1.2941 -0.1517
  162OSM    C7F18252   1.598   4.863   3.461 -0.0148  0.5394  0.2633
  162OSM    H7F18253   1.546   4.765   3.467  1.0253 -0.0317  0.1424
  162OSM    H7G18254   1.520   4.943   3.463  0.1105  0.6600  0.3306
  162OSM    C8F18255   1.684   4.890   3.583 -0.0033 -0.3321 -0.2342
  162OSM    H8F18256   1.620   4.947   3.654  0.5662 -0.4807  0.4142
  162OSM    H8G18257   1.765   4.960   3.552  0.7971 -1.1228  0.0110
  162OSM    C9F18258   1.739   4.762   3.646 -0.4837 -0.1080 -0.3349
  162OSM    H9F18259   1.775   4.692   3.569  0.7971 -0.0957  0.2100
  162OSM   C10F18260   1.736   4.716   3.774  0.4647  0.1781  0.1542
  162OSM   H10F18261   1.772   4.614   3.799  0.9606 -0.0163 -1.2538
  162OSM   C11F18262   1.701   4.782   3.908 -0.3549  0.3687 -0.1813
  162OSM   H11F18263   1.669   4.888   3.894 -0.5191  0.5891  1.6428
  162OSM   H11G18264   1.797   4.786   3.963 -0.5542  0.4246  0.1667
  162OSM   C12F18265   1.607   4.701   4.002  0.4982  0.1930 -0.0433
  162OSM   H12F18266   1.655   4.607   4.036  0.5915  0.5416  0.8265
  162OSM   H12G18267   1.510   4.669   3.957  1.1207 -2.3314  0.2358
  162OSM   C13F18268   1.571   4.778   4.133 -0.3584  0.6675  0.7363
  162OSM   H13F18269   1.516   4.870   4.103  0.6615  0.2309 -2.9760
  162OSM   H13G18270   1.674   4.806   4.166  0.0309  0.5854 -0.3562
  162OSM   C14F18271   1.496   4.695   4.237 -0.3377 -0.3638  0.6621
  162OSM   H14F18272   1.548   4.597   4.237 -0.1104 -0.3066 -1.5366
  162OSM   H14G18273   1.397   4.672   4.192  0.4989 -0.0971 -1.4441
  162OSM   C15F18274   1.504   4.758   4.378  0.3232 -0.1870 -0.4150
  162OSM   H15F18275   1.454   4.857   4.371 -1.4536 -0.8216  1.8571
  162OSM   H15G18276   1.611   4.768   4.407  0.2354 -0.4248 -0.0036
  162OSM   C16F18277   1.434   4.679   4.489 -0.0635 -0.1501  0.3313
  162OSM   H16F18278   1.484   4.579   4.489 -0.5392 -0.3990 -0.5809
  162OSM   H16G18279   1.327   4.657   4.467 -0.3587  1.3166  0.2044
  162OSM   C17F18280   1.443   4.743   4.626 -0.1944  0.3188  0.2611
  162OSM   H17F18281   1.401   4.846   4.633 -0.0693  0.3510  0.5429
  162OSM   H17G18282   1.550   4.769   4.639 -0.6229  1.8453  0.9837
  162OSM   C18F18283   1.384   4.663   4.745  0.7867 -0.3519 -0.2389
  162OSM   H18F18284   1.375   4.731   4.833  0.4465  0.3885 -0.8260
  162OSM   H18G18285   1.448   4.573   4.752  0.2273 -0.8388 -1.1440
  162OSM   H18H18286   1.285   4.618   4.722  0.5872 -0.5387  0.9072
  163OSM      N18287   5.224   3.859   2.609 -0.1213 -0.0939  0.2721
  163OSM    C1518288   5.366   3.849   2.572  0.5515 -0.4999 -0.3151
  163OSM   H15A18289   5.410   3.769   2.630 -2.6794 -0.3984  2.5519
  163OSM   H15B18290   5.414   3.945   2.580 -1.1543  0.2401  2.2120
  163OSM   H15C18291   5.384   3.826   2.468  3.8065 -3.0006  0.6382
  163OSM    C1418292   5.175   3.996   2.553 -0.3860 -1.3968  0.2596
  163OSM   H14A18293   5.232   4.083   2.583 -0.9847 -1.1503  0.7007
  163OSM   H14B18294   5.070   4.010   2.573 -0.1877  0.1289  0.3501
  163OSM   H14C18295   5.180   4.021   2.448  1.7380  1.5151  0.9006
  163OSM    C1318296   5.135   3.752   2.541 -0.0881  0.3838 -0.2043
  163OSM   H13A18297   5.155   3.749   2.435 -1.0022 -1.1080 -0.3487
  163OSM   H13B18298   5.031   3.772   2.563 -0.3502  1.7432 -2.3501
  163OSM   H13C18299   5.161   3.659   2.589 -0.4700  2.0275  3.5767
  163OSM    C1218300   5.185   3.860   2.754  0.2885  0.2462 -0.0971
  163OSM   H12A18301   5.077   3.868   2.751  0.0478 -1.9457  0.6540
  163OSM   H12B18302   5.230   3.948   2.797 -0.2242  0.7181 -0.4998
  163OSM    C1118303   5.225   3.732   2.827 -0.0871 -0.3400 -0.0204
  163OSM   H11A18304   5.176   3.645   2.777 -0.2103 -0.2586 -0.0414
  163OSM   H11B18305   5.183   3.743   2.929  3.1614  0.8721  1.2888
  163OSM      P18306   5.469   3.765   2.942  0.2368 -0.2557 -0.2912
  163OSM    O1318307   5.602   3.704   2.916 -0.5345 -0.0983 -0.3336
  163OSM    O1418308   5.476   3.910   2.953 -0.3832  0.3112 -0.0686
  163OSM    O1118309   5.406   3.717   3.080 -0.4660  0.3368 -0.2057
  163OSM    O1218310   5.362   3.713   2.832 -0.0115  0.0580 -0.1576
  163OSM    C1S18311   5.490   3.737   3.197 -0.3880  0.3180 -0.3970
  163OSM    H1S18312   5.554   3.826   3.186  0.9880 -0.4371  1.1555
  163OSM    H1T18313   5.556   3.650   3.219  0.4232  0.6509 -1.4657
  163OSM     NF18314   5.488   3.820   3.437  0.1919  0.1044 -0.3914
  163OSM    HNF18315   5.502   3.761   3.516 -0.0827  2.4224  1.5045
  163OSM    C2S18316   5.406   3.780   3.328  0.6808  0.2886  0.7843
  163OSM    H2S18317   5.338   3.866   3.309 -1.2414 -1.2990  0.0760
  163OSM    C3S18318   5.308   3.661   3.371 -0.2014 -0.4054 -0.3403
  163OSM    H3S18319   5.374   3.576   3.402 -0.5365 -1.0752 -1.4196
  163OSM     O318320   5.231   3.604   3.261 -0.3399 -0.5292 -0.0483
  163OSM    HO318321   5.278   3.650   3.191 -1.9482  1.6792  0.2129
  163OSM    C4S18322   5.230   3.700   3.495 -0.0815 -0.7793  0.1391
  163OSM    H4S18323   5.269   3.663   3.591 -1.4506 -1.3210  0.5113
  163OSM    C5S18324   5.110   3.766   3.491  0.1840  0.0541 -0.4968
  163OSM    H5S18325   5.073   3.805   3.395 -0.5830  0.8392  0.0972
  163OSM    C6S18326   5.037   3.807   3.612  0.2132  0.3333  0.2309
  163OSM    H6S18327   4.928   3.809   3.592  0.1432  0.8065  0.6389
  163OSM    H6T18328   5.056   3.915   3.633 -0.9413  0.1340  2.5893
  163OSM    C7S18329   5.064   3.730   3.742 -0.1316  0.2189 -0.3484
  163OSM    H7S18330   5.173   3.742   3.763 -0.5007 -0.7797  2.6672
  163OSM    H7T18331   5.053   3.620   3.731 -3.4903  0.3970  0.1944
  163OSM    C8S18332   5.000   3.790   3.868 -0.0071  0.3969  0.8363
  163OSM    H8S18333   4.897   3.749   3.860 -0.0530  0.5126  0.8247
  163OSM    H8T18334   4.993   3.901   3.875  0.6557  0.5746 -0.8270
  163OSM    C9S18335   5.060   3.727   3.991  0.0985  0.6164  0.2275
  163OSM    H9S18336   5.166   3.751   4.013  0.8556 -1.1974 -1.1494
  163OSM    H9T18337   5.046   3.617   3.988  2.6189  0.2440 -1.4850
  163OSM   C10S18338   4.966   3.754   4.112  0.4834  0.0325  0.1486
  163OSM   H10S18339   4.860   3.724   4.098  0.3678 -1.8701  3.9581
  163OSM   H10T18340   4.971   3.861   4.143 -1.8360  0.0596  0.5938
  163OSM   C11S18341   5.011   3.675   4.237  0.1049 -0.1437  0.1232
  163OSM   H11S18342   5.111   3.707   4.273 -0.9622  2.0374  1.3390
  163OSM   H11T18343   5.018   3.569   4.206 -4.3868 -0.1587 -1.6743
  163OSM   C12S18344   4.908   3.678   4.349 -0.1903 -0.0252  0.4289
  163OSM   H12S18345   4.945   3.621   4.437  1.7512  2.3244  1.2403
  163OSM   H12T18346   4.812   3.631   4.317 -1.6061  3.1580 -0.3306
  163OSM   C13S18347   4.885   3.824   4.393 -0.7993  0.1804  0.3931
  163OSM   H13S18348   4.829   3.877   4.312  0.3785 -0.4696 -0.8856
  163OSM   H13T18349   4.980   3.880   4.403 -0.6443 -0.2733  1.5613
  163OSM   C14S18350   4.808   3.847   4.519 -0.6936  0.2562 -0.2035
  163OSM   H14S18351   4.847   3.776   4.594  1.1917  1.7179  0.2860
  163OSM   H14T18352   4.699   3.830   4.511 -0.8586  0.1388  1.8046
  163OSM   C15S18353   4.846   3.988   4.569  0.2589  0.5043  0.3111
  163OSM   H15S18354   4.851   4.064   4.487 -2.8530  1.1246  0.5870
  163OSM   H15T18355   4.948   3.982   4.614  0.1298 -0.7399  0.4496
  163OSM   C16S18356   4.747   4.045   4.671  0.6316 -0.2628 -0.8191
  163OSM   H16S18357   4.743   3.981   4.762  1.3350 -0.3091 -0.8130
  163OSM   H16T18358   4.649   4.041   4.620  0.2971 -3.8655 -0.1586
  163OSM   C17S18359   4.772   4.187   4.723  0.0038  0.1828  0.4076
  163OSM   H17S18360   4.752   4.264   4.646 -2.4163  1.9311  2.6295
  163OSM   H17T18361   4.880   4.206   4.743  0.0078  1.2018 -0.5069
  163OSM   C18S18362   4.698   4.219   4.853  0.8319 -0.1756 -0.5318
  163OSM   H18S18363   4.732   4.157   4.938  0.1108 -1.9606 -1.4941
  163OSM   H18T18364   4.594   4.190   4.825  0.9109 -1.0856  0.0823
  163OSM   H18U18365   4.702   4.327   4.880 -0.7402  0.1043 -1.3126
  163OSM    C1F18366   5.557   3.933   3.439 -0.3431 -0.2657  0.5984
  163OSM     OF18367   5.547   4.007   3.344  0.0531 -0.7055  0.6908
  163OSM    C2F18368   5.641   3.970   3.560 -0.0753  0.6282  0.6175
  163OSM    H2F18369   5.735   3.918   3.534 -0.4953  0.1713 -0.0000
  163OSM    H2G18370   5.599   3.912   3.645  0.1453 -3.2149 -1.6711
  163OSM    C3F18371   5.659   4.124   3.581  0.2605  0.0541 -0.8374
  163OSM    H3F18372   5.558   4.163   3.603 -0.7699 -1.6057 -2.3614
  163OSM    H3G18373   5.680   4.168   3.481  2.1137  0.3145 -0.3711
  163OSM    C4F18374   5.763   4.177   3.688 -0.0859  0.7220 -0.2894
  163OSM    H4F18375   5.735   4.284   3.701 -2.0677  0.2795 -0.6262
  163OSM    H4G18376   5.862   4.150   3.646  0.5583  0.2454  1.4286
  163OSM    C5F18377   5.754   4.113   3.832  0.1428 -0.0376  0.1841
  163OSM    H5F18378   5.769   4.004   3.820  2.3843  0.2156  0.2600
  163OSM    H5G18379   5.656   4.154   3.866  0.3963  1.8116 -1.1251
  163OSM    C6F18380   5.861   4.162   3.925  0.3545 -0.0202  1.1455
  163OSM    H6F18381   5.957   4.168   3.870  0.2214  2.9730  1.0604
  163OSM    H6G18382   5.869   4.101   4.017 -1.0155 -0.5442  0.9529
  163OSM    C7F18383   5.850   4.307   3.983 -0.1935  0.0398  0.0417
  163OSM    H7F18384   5.839   4.372   3.893  0.9634 -2.2687 -1.8850
  163OSM    H7G18385   5.939   4.324   4.047 -0.9890 -1.6840  1.7074
  163OSM    C8F18386   5.716   4.321   4.059 -0.4088 -0.1039 -0.0106
  163OSM    H8F18387   5.630   4.302   3.992 -0.5517  0.2682  0.0657
  163OSM    H8G18388   5.708   4.430   4.080  1.3174  0.3410 -1.4164
  163OSM    C9F18389   5.697   4.244   4.186 -1.0477  0.4109 -0.6425
  163OSM    H9F18390   5.629   4.159   4.167 -2.3452  1.4090 -0.6333
  163OSM   C10F18391   5.744   4.276   4.312 -0.3443  0.6230 -0.1988
  163OSM   H10F18392   5.708   4.207   4.389  0.0200  0.8629  0.1870
  163OSM   C11F18393   5.817   4.406   4.349  0.2506  0.1504  0.1018
  163OSM   H11F18394   5.833   4.461   4.253  0.2252 -1.0348 -0.6002
  163OSM   H11G18395   5.921   4.388   4.385  0.3269 -2.1110 -1.0741
  163OSM   C12F18396   5.736   4.498   4.450  0.0989  0.2133 -1.1197
  163OSM   H12F18397   5.631   4.507   4.417 -0.9126  0.6760  1.9408
  163OSM   H12G18398   5.780   4.600   4.451  4.1297 -1.2934  1.1943
  163OSM   C13F18399   5.728   4.438   4.593 -0.1325 -0.6898  0.2580
  163OSM   H13F18400   5.832   4.422   4.630 -0.7015 -0.1868  2.1818
  163OSM   H13G18401   5.679   4.338   4.586 -1.4488  0.0234 -1.4056
  163OSM   C14F18402   5.658   4.534   4.695 -0.7207  0.1763  0.2797
  163OSM   H14F18403   5.552   4.537   4.664 -0.6996 -0.1069  0.1724
  163OSM   H14G18404   5.708   4.632   4.681 -1.6808  0.4004 -2.0130
  163OSM   C15F18405   5.674   4.492   4.838 -0.1662  0.2084  0.1282
  163OSM   H15F18406   5.784   4.474   4.838 -0.1925  0.0376 -0.2184
  163OSM   H15G18407   5.621   4.397   4.861 -0.7583  0.6509  0.6131
  163OSM   C16F18408   5.645   4.597   4.937  0.4052 -0.2361  0.9533
  163OSM   H16F18409   5.536   4.613   4.952  0.3459 -1.0203  1.3805
  163OSM   H16G18410   5.682   4.696   4.902  0.2452  0.2090  1.9929
  163OSM   C17F18411   5.718   4.570   5.077  0.2512  0.5477  0.9512
  163OSM   H17F18412   5.713   4.659   5.143  1.0767  1.0391  0.3757
  163OSM   H17G18413   5.820   4.532   5.057 -0.6583 -0.4852 -2.5313
  163OSM   C18F18414   5.629   4.459   5.140  0.4647 -0.6568  0.1711
  163OSM   H18F18415   5.640   4.445   5.249 -1.6220 -0.9436  0.3724
  163OSM   H18G18416   5.654   4.358   5.101  2.1248 -1.7638  3.7446
  163OSM   H18H18417   5.520   4.478   5.130  0.4198 -1.2586 -0.5768
  164OSM      N18418   1.217   5.066   2.115  0.0317 -0.0645  0.2842
  164OSM    C1518419   1.220   4.962   2.007  0.2620 -0.3838  0.3962
  164OSM   H15A18420   1.224   4.859   2.038  0.2665 -1.3853 -2.6158
  164OSM   H15B18421   1.310   4.976   1.950 -0.4749  3.4595 -0.0606
  164OSM   H15C18422   1.134   4.971   1.942  0.5861  0.7618  0.1067
  164OSM    C1418423   1.351   5.072   2.181  0.1234 -0.5194  0.3344
  164OSM   H14A18424   1.385   4.970   2.185 -1.9785 -1.3519 -0.9363
  164OSM   H14B18425   1.337   5.108   2.282 -2.2743 -0.1769 -0.0448
  164OSM   H14C18426   1.422   5.132   2.125  0.7159 -1.8453 -0.3678
  164OSM    C1318427   1.194   5.199   2.037 -0.5082  0.4262 -0.4806
  164OSM   H13A18428   1.186   5.280   2.108  1.2743 -1.4865  2.0663
  164OSM   H13B18429   1.100   5.198   1.984 -0.3924  0.8829 -0.7020
  164OSM   H13C18430   1.275   5.228   1.972  1.4455  1.7038  2.3159
  164OSM    C1218431   1.104   5.044   2.212 -0.3628 -0.2441  0.2823
  164OSM   H12A18432   1.110   4.945   2.255  1.3923 -0.3211 -0.0457
  164OSM   H12B18433   1.015   5.052   2.152 -1.3887 -2.7755  1.3081
  164OSM    C1118434   1.093   5.137   2.330  0.0505  0.4571  0.5280
  164OSM   H11A18435   1.167   5.114   2.410  2.1092 -2.5348 -1.9824
  164OSM   H11B18436   1.001   5.108   2.384  0.5337  0.7733  1.5481
  164OSM      P18437   0.966   5.360   2.312 -0.7862 -0.0767  0.0429
  164OSM    O1318438   1.006   5.501   2.314  0.3999 -0.4952 -0.0207
  164OSM    O1418439   0.881   5.322   2.199 -0.1719 -0.0225 -0.1021
  164OSM    O1118440   0.889   5.313   2.448  0.6004 -0.0366 -0.0444
  164OSM    O1218441   1.090   5.270   2.299 -0.0302 -0.7157  0.1037
  164OSM    C1S18442   0.966   5.312   2.568 -0.3099  0.2132 -0.1282
  164OSM    H1S18443   1.020   5.409   2.570 -3.2030  1.9668 -1.0537
  164OSM    H1T18444   1.035   5.225   2.558 -2.0497 -0.9644 -3.8390
  164OSM     NF18445   0.952   5.349   2.812  0.7047  0.1977 -0.1412
  164OSM    HNF18446   0.969   5.271   2.872 -0.0952 -1.9401 -2.5281
  164OSM    C2S18447   0.876   5.324   2.693  0.2849 -0.0139 -0.6893
  164OSM    H2S18448   0.819   5.418   2.676  0.1967 -0.3700 -2.4950
  164OSM    C3S18449   0.772   5.211   2.696  0.2022  0.1654 -0.8089
  164OSM    H3S18450   0.817   5.115   2.662  1.6691  0.5541 -0.0731
  164OSM     O318451   0.660   5.231   2.608  0.2776  0.1308  0.4446
  164OSM    HO318452   0.685   5.307   2.554  0.9313  0.2115  0.8551
  164OSM    C4S18453   0.719   5.184   2.839  0.6522  0.2121 -0.3642
  164OSM    H4S18454   0.693   5.269   2.904 -0.6820 -1.6745  1.7127
  164OSM    C5S18455   0.699   5.065   2.894  0.4648 -0.0990 -0.4938
  164OSM    H5S18456   0.725   4.977   2.835  1.2047  0.1902 -0.6035
  164OSM    C6S18457   0.654   5.033   3.038  0.0098 -0.5951  0.3831
  164OSM    H6S18458   0.737   4.969   3.076  1.3169 -0.3434 -1.8733
  164OSM    H6T18459   0.562   4.973   3.054 -0.1737  0.4013  4.0393
  164OSM    C7S18460   0.651   5.155   3.132 -0.0495 -1.0366 -0.2182
  164OSM    H7S18461   0.559   5.211   3.103 -0.5453 -0.9348  1.4063
  164OSM    H7T18462   0.743   5.216   3.127  0.6774 -1.9459  1.3969
  164OSM    C8S18463   0.621   5.117   3.276 -0.0581  0.2531 -0.5991
  164OSM    H8S18464   0.542   5.043   3.254 -0.0646  0.6334 -1.9121
  164OSM    H8T18465   0.566   5.198   3.329  0.5352 -0.4047  1.0919
  164OSM    C9S18466   0.737   5.066   3.358  0.8414  0.6614 -0.2903
  164OSM    H9S18467   0.805   5.154   3.368 -1.0468  2.0596  1.0513
  164OSM    H9T18468   0.790   4.988   3.299  0.1888 -0.3509  0.4263
  164OSM   C10S18469   0.689   5.005   3.492 -0.0804  0.2800  0.3141
  164OSM   H10S18470   0.617   4.924   3.466 -1.6560  1.4878  0.6977
  164OSM   H10T18471   0.633   5.087   3.542  0.0498  0.9178 -0.5476
  164OSM   C11S18472   0.810   4.945   3.561  0.0913 -0.4662  0.3456
  164OSM   H11S18473   0.864   4.881   3.488  0.2739 -1.1371  1.0604
  164OSM   H11T18474   0.777   4.875   3.641 -2.9857  0.1759 -0.2253
  164OSM   C12S18475   0.905   5.046   3.623  0.2048 -0.6244  0.0333
  164OSM   H12S18476   0.938   5.119   3.547  2.2199 -3.5726 -2.1848
  164OSM   H12T18477   1.004   5.000   3.645 -0.2759 -0.9809  1.5622
  164OSM   C13S18478   0.838   5.113   3.746  0.3539 -0.4057  0.2501
  164OSM   H13S18479   0.825   5.025   3.813  3.4857 -1.4812 -0.3654
  164OSM   H13T18480   0.746   5.170   3.720 -0.3670 -0.8994  1.6366
  164OSM   C14S18481   0.948   5.198   3.817 -0.6023  0.2814  0.0888
  164OSM   H14S18482   0.981   5.287   3.758 -0.0473  0.9597  1.3843
  164OSM   H14T18483   1.032   5.127   3.830 -1.0793  0.0835  2.4265
  164OSM   C15S18484   0.912   5.257   3.958 -0.2877 -0.6775  0.6645
  164OSM   H15S18485   1.003   5.298   4.006  0.7500 -2.3571  0.2092
  164OSM   H15T18486   0.880   5.164   4.011  1.9990 -2.7922 -1.4001
  164OSM   C16S18487   0.802   5.364   3.953 -0.0953  0.6311  0.3903
  164OSM   H16S18488   0.731   5.340   3.871  1.0791  1.2965 -0.8769
  164OSM   H16T18489   0.856   5.455   3.918  0.1401 -0.0803 -1.2136
  164OSM   C17S18490   0.746   5.407   4.090  0.1694 -0.4367 -0.3325
  164OSM   H17S18491   0.651   5.458   4.067  0.6827  0.0355 -1.4984
  164OSM   H17T18492   0.811   5.487   4.132  0.9374 -0.6568 -1.0640
  164OSM   C18S18493   0.741   5.286   4.183  0.2628 -0.3202 -0.1526
  164OSM   H18S18494   0.698   5.202   4.125 -1.2408  2.1603 -2.8805
  164OSM   H18T18495   0.671   5.304   4.268 -1.2000  0.1186 -1.4077
  164OSM   H18U18496   0.839   5.255   4.225 -0.2013  1.2492  2.3246
  164OSM    C1F18497   1.029   5.462   2.839  0.5869 -0.1166  0.3125
  164OSM     OF18498   1.036   5.551   2.755 -0.5435  0.2525 -0.3846
  164OSM    C2F18499   1.109   5.458   2.973  0.3753  0.8856  0.3126
  164OSM    H2F18500   1.214   5.428   2.950  0.0882  0.1833 -0.1331
  164OSM    H2G18501   1.059   5.377   3.030  0.6116  1.4311  1.3033
  164OSM    C3F18502   1.108   5.591   3.052  0.2882 -0.0507 -0.1819
  164OSM    H3F18503   1.008   5.638   3.044 -0.4715 -1.5225  0.2444
  164OSM    H3G18504   1.181   5.657   3.001  0.3462  0.5489  0.6471
  164OSM    C4F18505   1.150   5.568   3.194  0.2234  0.7793 -0.1014
  164OSM    H4F18506   1.234   5.496   3.208 -1.6056 -1.3158  0.7366
  164OSM    H4G18507   1.063   5.520   3.243 -0.4970 -0.1385 -2.1648
  164OSM    C5F18508   1.180   5.698   3.269 -0.3167 -0.4857  0.8313
  164OSM    H5F18509   1.088   5.760   3.280  0.5633  0.3933  4.8062
  164OSM    H5G18510   1.243   5.762   3.204 -1.1734 -1.0397 -0.5969
  164OSM    C6F18511   1.251   5.687   3.409  0.1339 -0.8890 -0.1547
  164OSM    H6F18512   1.287   5.787   3.441 -0.6550 -1.0381  1.2849
  164OSM    H6G18513   1.337   5.618   3.396 -2.2825 -3.8923 -1.2472
  164OSM    C7F18514   1.154   5.631   3.510 -0.7244 -0.0910  1.1634
  164OSM    H7F18515   1.144   5.523   3.486 -2.0748  0.3747 -0.5765
  164OSM    H7G18516   1.052   5.671   3.493 -0.4836  0.4195  0.9020
  164OSM    C8F18517   1.204   5.641   3.656 -0.6576 -0.3313  0.0952
  164OSM    H8F18518   1.307   5.599   3.666 -1.4682 -2.3275  0.4689
  164OSM    H8G18519   1.136   5.578   3.717 -1.2209 -0.4198 -0.6191
  164OSM    C9F18520   1.203   5.782   3.705  0.1218 -0.1638  0.0363
  164OSM    H9F18521   1.242   5.854   3.631 -1.9512  1.0961  0.0876
  164OSM   C10F18522   1.147   5.835   3.815  0.6197 -0.5080 -0.8816
  164OSM   H10F18523   1.147   5.943   3.833 -0.5799 -0.5197 -0.7024
  164OSM   C11F18524   1.080   5.759   3.920 -0.0054  0.0181 -0.0861
  164OSM   H11F18525   1.018   5.683   3.867 -1.3961  1.4318 -0.5474
  164OSM   H11G18526   1.005   5.827   3.966 -0.5426 -0.3747 -0.3707
  164OSM   C12F18527   1.178   5.682   4.025  0.2400  0.3352  0.1082
  164OSM   H12F18528   1.248   5.761   4.061  0.6665  0.2271 -0.4709
  164OSM   H12G18529   1.246   5.611   3.973 -0.1396  0.9093 -1.2170
  164OSM   C13F18530   1.104   5.620   4.142  0.0850 -0.1022 -0.0535
  164OSM   H13F18531   1.030   5.547   4.102 -1.3206  1.1907  0.0914
  164OSM   H13G18532   1.045   5.700   4.192 -1.8259 -1.2377 -0.4230
  164OSM   C14F18533   1.193   5.550   4.248  0.5937  0.2273  0.2875
  164OSM   H14F18534   1.284   5.614   4.253  0.1396  1.0095 -1.1379
  164OSM   H14G18535   1.213   5.455   4.194  1.5673 -0.7006  2.1759
  164OSM   C15F18536   1.133   5.508   4.386  0.0504  0.4886  0.2883
  164OSM   H15F18537   1.205   5.442   4.438 -1.1043 -0.1791  1.0974
  164OSM   H15G18538   1.042   5.449   4.360  0.0416 -0.3947  2.1903
  164OSM   C16F18539   1.094   5.608   4.495  0.7900  0.0980 -0.5347
  164OSM   H16F18540   1.023   5.548   4.556 -1.4382  2.2412 -0.8444
  164OSM   H16G18541   1.034   5.690   4.448 -0.0082 -0.4551 -0.5087
  164OSM   C17F18542   1.214   5.678   4.563  0.6836  0.0779 -0.8126
  164OSM   H17F18543   1.270   5.721   4.478  0.0256  0.6044 -0.9867
  164OSM   H17G18544   1.281   5.603   4.611  0.3992  1.2816  1.5981
  164OSM   C18F18545   1.167   5.793   4.659  0.2053  0.6108  0.6860
  164OSM   H18F18546   1.136   5.755   4.759 -1.5806  1.4128  0.4720
  164OSM   H18G18547   1.089   5.861   4.621 -0.8336 -0.8149  0.1862
  164OSM   H18H18548   1.265   5.842   4.678 -0.0968  1.0962  1.0311
  165SAPS     N18549   4.373   1.375   6.857  0.5145  0.4111 -0.4499
  165SAPS   HN118550   4.465   1.421   6.867  0.9931 -0.0459 -2.3886
  165SAPS   HN218551   4.390   1.298   6.790 -0.2022  0.8174 -1.1311
  165SAPS   HN318552   4.302   1.432   6.806 -1.0201 -1.0066  0.0076
  165SAPS   C1218553   4.320   1.331   6.986 -1.3660  0.6012 -0.1839
  165SAPS  H12A18554   4.380   1.251   7.029  0.2204  1.5242 -0.5911
  165SAPS   C1318555   4.323   1.436   7.097  0.1723  0.5305 -0.7352
  165SAPS  O13A18556   4.378   1.546   7.082  0.2145 -0.3314 -0.5941
  165SAPS  O13B18557   4.298   1.387   7.207  0.1147 -0.0740  0.0153
  165SAPS   C1118558   4.174   1.276   6.960 -0.0967  0.1391  0.0000
  165SAPS  H11A18559   4.116   1.367   6.934  0.2600  0.6053  0.7819
  165SAPS  H11B18560   4.137   1.247   7.061 -0.1324 -1.5654 -0.4739
  165SAPS     P18561   4.032   1.151   6.787 -0.2504 -0.2056  0.7395
  165SAPS   O1318562   3.984   1.009   6.813 -0.4864  0.2950 -0.1383
  165SAPS   O1418563   3.933   1.263   6.808  0.0026  0.0464 -0.1573
  165SAPS   O1218564   4.166   1.173   6.860  0.1630 -0.0773  0.4873
  165SAPS   O1118565   4.080   1.165   6.641 -0.2068 -0.3452 -0.2763
  165SAPS    C118566   4.105   1.069   6.543 -0.1382  1.1536  0.3261
  165SAPS    HA18567   4.028   0.991   6.562 -1.0506  1.6362 -1.1592
  165SAPS    HB18568   4.091   1.119   6.444  0.2278  1.7941  0.5951
  165SAPS    C218569   4.245   1.003   6.547 -0.8232  0.1906 -0.1755
  165SAPS    HS18570   4.264   0.995   6.656 -0.7549  0.4012 -0.1719
  165SAPS   O2118571   4.345   1.073   6.476  0.1646  0.2539 -0.7924
  165SAPS   C2118572   4.419   1.159   6.545  0.2084 -0.1182 -0.7214
  165SAPS   O2218573   4.400   1.193   6.663 -0.2302  0.6066  0.2255
  165SAPS   C2218574   4.538   1.205   6.455  0.3231 -0.5206  0.0785
  165SAPS   H2R18575   4.562   1.119   6.389  1.6427  0.9894 -1.4819
  165SAPS   H2S18576   4.501   1.282   6.384  1.1324  0.0908  0.3169
  165SAPS    C318577   4.223   0.851   6.492  0.1614  0.2993 -0.8555
  165SAPS    HX18578   4.124   0.812   6.526  0.5655 -0.6833 -0.7769
  165SAPS    HY18579   4.304   0.789   6.535 -0.2039  2.4143  3.4562
  165SAPS   O3118580   4.226   0.845   6.350 -0.1804 -0.3313 -0.2368
  165SAPS   C3118581   4.347   0.846   6.292 -0.3812  0.1942  0.1772
  165SAPS   O3218582   4.451   0.831   6.353 -0.1103 -0.7898 -0.4443
  165SAPS   C3218583   4.337   0.851   6.142 -0.4806 -0.8392 -0.0310
  165SAPS   H2X18584   4.239   0.899   6.123  0.1004 -0.5667 -2.6656
  165SAPS   H2Y18585   4.350   0.750   6.099  2.5513  0.1855 -1.8136
  165SAPS   C2318586   4.673   1.261   6.520 -0.6890  0.0609  0.1064
  165SAPS   H3R18587   4.687   1.196   6.609 -1.1233  0.6945  0.6450
  165SAPS   H3S18588   4.664   1.363   6.564 -0.1513 -0.9192  2.6914
  165SAPS   C2418589   4.798   1.245   6.429  0.6847 -0.3289  0.1236
  165SAPS   H4R18590   4.798   1.138   6.401 -0.0434 -0.7748  1.7021
  165SAPS   H4S18591   4.899   1.260   6.474  0.7531 -0.5632  0.0471
  165SAPS   C2518592   4.771   1.339   6.315  0.6221 -0.2637 -0.3862
  165SAPS   H5R18593   4.753   1.445   6.340  0.6616 -0.2715 -0.3245
  165SAPS   C2618594   4.753   1.308   6.184  0.2793 -0.0229 -0.7818
  165SAPS   H6R18595   4.737   1.386   6.108  1.2960  0.5834 -0.3930
  165SAPS   C2718596   4.770   1.170   6.132 -0.2864 -0.0689  0.0668
  165SAPS   H7R18597   4.667   1.148   6.096  0.8060 -0.0347 -3.3817
  165SAPS   H7S18598   4.789   1.096   6.213 -0.8114  0.3532  0.5937
  165SAPS   C2818599   4.872   1.144   6.024 -0.0434 -0.0282  0.1972
  165SAPS   H8R18600   4.971   1.124   6.068 -0.4694 -1.1835  0.6493
  165SAPS   C2918601   4.869   1.155   5.892 -0.7723  0.4324 -0.2051
  165SAPS   H9R18602   4.969   1.137   5.850 -0.9193  1.6776 -1.1314
  165SAPS  C21018603   4.758   1.176   5.798  0.5773 -0.7665 -0.0233
  165SAPS  H10R18604   4.675   1.233   5.845  1.4719 -0.5079  1.3171
  165SAPS  H10S18605   4.728   1.074   5.764 -0.3061 -0.5207 -0.0073
  165SAPS  C21118606   4.813   1.253   5.684  0.7378  0.6916  0.5650
  165SAPS  H11R18607   4.791   1.360   5.695 -0.1427  0.5184  0.5179
  165SAPS  C21218608   4.887   1.197   5.585  0.9857 -0.3142 -0.9367
  165SAPS  H12R18609   4.933   1.257   5.505 -0.5434  0.3553 -1.3613
  165SAPS  C21318610   4.927   1.056   5.572  0.1257  0.5085  0.3865
  165SAPS  H13R18611   4.839   1.012   5.520 -0.8436  1.7481  0.9282
  165SAPS  H13S18612   4.943   1.008   5.670 -0.4958 -0.5539 -0.0229
  165SAPS  C21418613   5.054   1.045   5.483  0.5800 -0.0159  0.0949
  165SAPS  H14R18614   5.145   1.021   5.540  1.8870  1.5877 -1.2200
  165SAPS  C21518615   5.071   1.061   5.349  0.2527  0.5953  0.3518
  165SAPS  H15R18616   5.167   1.034   5.303  0.2979  0.3219  0.6033
  165SAPS  C21618617   4.950   1.079   5.258  0.4246 -0.3824  0.3095
  165SAPS  H16R18618   4.853   1.103   5.308 -1.1875 -2.1342 -1.7569
  165SAPS  H16S18619   4.923   0.985   5.205 -1.2722  0.6742 -0.7968
  165SAPS  C21718620   4.972   1.189   5.152  0.0027  0.1425  0.6662
  165SAPS  H17R18621   4.882   1.198   5.088  0.7710 -2.4295 -0.9407
  165SAPS  H17S18622   5.048   1.153   5.080 -1.1838  2.5733 -2.0112
  165SAPS  C21818623   5.003   1.327   5.209 -0.2228 -0.9160  0.8022
  165SAPS  H18R18624   5.097   1.334   5.267  1.2119 -1.7460 -1.3055
  165SAPS  H18S18625   4.922   1.376   5.267  0.9316  2.2936 -0.0754
  165SAPS  C21918626   5.021   1.426   5.082 -1.4516  0.3387 -0.3478
  165SAPS  H19R18627   5.089   1.391   5.002  1.6183  3.2491  0.7447
  165SAPS  H19S18628   5.075   1.510   5.130  0.5869 -0.5467 -0.9701
  165SAPS  C22018629   4.902   1.476   5.005 -0.1729 -0.4718 -0.2211
  165SAPS  H20R18630   4.824   1.516   5.073  1.8547  0.1801  1.8814
  165SAPS  H20S18631   4.854   1.393   4.949  0.1947 -0.1473 -1.0450
  165SAPS  H20T18632   4.947   1.553   4.938  0.3255 -0.8030 -0.2724
  165SAPS   C3318633   4.437   0.948   6.066  0.0749  0.2390  0.0335
  165SAPS   H3X18634   4.542   0.919   6.087  0.2067  1.9722  2.1626
  165SAPS   H3Y18635   4.438   1.047   6.116  1.0146 -0.7452  2.0992
  165SAPS   C3418636   4.420   0.959   5.915 -0.1481 -0.2182  1.0495
  165SAPS   H4X18637   4.492   1.036   5.879 -1.8004  1.1923  0.6462
  165SAPS   H4Y18638   4.317   0.997   5.897  0.7213  1.1719 -1.6221
  165SAPS   C3518639   4.434   0.833   5.837  0.1338  0.4869 -0.1574
  165SAPS   H5X18640   4.337   0.779   5.831 -0.5266  1.5566  0.4832
  165SAPS   H5Y18641   4.512   0.782   5.897  0.5011  0.6709 -0.4731
  165SAPS   C3618642   4.473   0.853   5.687 -1.2742 -0.0312  0.0712
  165SAPS   H6X18643   4.562   0.917   5.672 -1.0594 -0.6853 -1.6710
  165SAPS   H6Y18644   4.397   0.909   5.630 -0.0571  0.6870 -0.8743
  165SAPS   C3718645   4.498   0.710   5.629 -0.2942 -0.7656  0.5363
  165SAPS   H7X18646   4.417   0.641   5.659 -0.4364 -0.9681 -0.2935
  165SAPS   H7Y18647   4.589   0.660   5.668  0.1998  0.5958  1.1972
  165SAPS   C3818648   4.508   0.713   5.467 -0.2255 -0.8808 -0.3139
  165SAPS   H8X18649   4.594   0.781   5.450 -1.8391  1.3013 -0.0654
  165SAPS   H8Y18650   4.418   0.754   5.418  0.0654 -0.2198 -0.3012
  165SAPS   C3918651   4.527   0.568   5.423  0.4182 -0.3139 -0.1593
  165SAPS   H9X18652   4.430   0.516   5.433  0.5232 -1.0847 -2.4443
  165SAPS   H9Y18653   4.598   0.519   5.494 -1.2590  0.8469  2.4574
  165SAPS  C31018654   4.567   0.555   5.275  0.1766 -0.0521  0.0678
  165SAPS  H10X18655   4.660   0.615   5.260 -1.0104  1.2077 -3.0349
  165SAPS  H10Y18656   4.493   0.599   5.205 -1.3118 -3.1659 -0.4894
  165SAPS  C31118657   4.606   0.409   5.238 -0.0281 -0.2870  0.0343
  165SAPS  H11X18658   4.514   0.361   5.276  0.8367 -0.8498  1.5218
  165SAPS  H11Y18659   4.693   0.368   5.295 -0.7611  0.3460  1.6757
  165SAPS  C31218660   4.637   0.397   5.094  0.9663  0.4932  0.4076
  165SAPS  H12X18661   4.743   0.417   5.066  0.7946  1.0623  0.1492
  165SAPS  H12Y18662   4.576   0.476   5.044 -1.1463 -0.3914  1.4566
  165SAPS  C31318663   4.595   0.256   5.030  0.2792 -0.1261  0.1155
  165SAPS  H13X18664   4.492   0.231   5.060  0.5660  0.2146  1.4547
  165SAPS  H13Y18665   4.665   0.176   5.062 -3.4191 -3.0569  1.6214
  165SAPS  C31418666   4.585   0.259   4.872  0.1483  0.2178 -0.1853
  165SAPS  H14X18667   4.515   0.343   4.854  1.1006  1.4324  1.5437
  165SAPS  H14Y18668   4.525   0.168   4.848 -1.1638  1.0445 -0.1631
  165SAPS  C31518669   4.712   0.255   4.789  0.2881 -0.0259 -0.2685
  165SAPS  H15X18670   4.766   0.170   4.836  0.2369  1.2454  2.2393
  165SAPS  H15Y18671   4.767   0.345   4.824 -0.4540  0.0721  0.6654
  165SAPS  C31618672   4.693   0.227   4.641 -0.2055 -0.4664 -0.3072
  165SAPS  H16X18673   4.628   0.304   4.594 -1.5709 -1.2387  0.2436
  165SAPS  H16Y18674   4.641   0.130   4.622  0.1649 -0.8591  0.6229
  165SAPS  C31718675   4.817   0.215   4.553 -0.0751 -0.2977 -0.3897
  165SAPS  H17X18676   4.891   0.142   4.593  0.4244 -0.0449 -0.8469
  165SAPS  H17Y18677   4.863   0.316   4.542 -1.3051  0.1000 -2.2563
  165SAPS  C31818678   4.776   0.152   4.419  0.4113 -0.0149 -0.2331
  165SAPS  H18X18679   4.755   0.043   4.416 -1.1968  0.2833 -1.6370
  165SAPS  H18Y18680   4.848   0.178   4.338  0.2277  0.4822 -0.2368
  165SAPS  H18Z18681   4.675   0.191   4.394  0.4513  0.4388  0.2908
  166SAPS     N18682   0.310   0.073   7.465  0.2569  0.3865  0.1483
  166SAPS   HN118683   0.291   0.129   7.550  0.1919 -0.5165  0.7407
  166SAPS   HN218684   0.355   0.133   7.393  0.7479  0.2643  0.3424
  166SAPS   HN318685   0.216   0.046   7.429 -0.7213  1.0724  2.0665
  166SAPS   C1218686   0.391  -0.053   7.489 -0.3043  0.2865 -0.3109
  166SAPS  H12A18687   0.478  -0.024   7.547 -0.6064  0.0056  0.2933
  166SAPS   C1318688   0.332  -0.172   7.559 -0.0439  0.6061 -0.1831
  166SAPS  O13A18689   0.214  -0.174   7.602  0.7148  0.3226 -0.1473
  166SAPS  O13B18690   0.406  -0.273   7.592  0.0740 -0.9141 -0.0504
  166SAPS   C1118691   0.436  -0.108   7.351 -0.0762  0.4537  0.0805
  166SAPS  H11A18692   0.344  -0.142   7.298 -0.5332 -0.0443  1.1521
  166SAPS  H11B18693   0.493  -0.201   7.371 -1.3391 -0.5185 -0.6729
  166SAPS     P18694   0.646  -0.011   7.234  0.1894  0.3975  0.3517
  166SAPS   O1318695   0.685   0.112   7.170  0.2526 -0.0563 -0.1858
  166SAPS   O1418696   0.736  -0.044   7.345 -0.0321 -0.4770 -0.3486
  166SAPS   O1218697   0.500  -0.003   7.282 -0.7530  0.5008 -0.7437
  166SAPS   O1118698   0.644  -0.136   7.127 -1.0581 -0.0974 -0.3209
  166SAPS    C118699   0.544  -0.143   7.012 -0.3223 -0.1636  0.0296
  166SAPS    HA18700   0.495  -0.243   7.012  1.0459 -0.8592 -0.7541
  166SAPS    HB18701   0.467  -0.063   7.022 -1.3424 -1.0111 -0.7132
  166SAPS    C218702   0.603  -0.117   6.875  0.4455 -0.2679 -0.9274
  166SAPS    HS18703   0.532  -0.069   6.805  0.5571 -0.8173 -1.4216
  166SAPS   O2118704   0.649  -0.242   6.821  0.0150  0.3268  0.1205
  166SAPS   C2118705   0.546  -0.311   6.763 -0.0160  0.7250 -0.3055
  166SAPS   O2218706   0.429  -0.290   6.782  0.1980 -0.2963  0.2035
  166SAPS   C2218707   0.593  -0.439   6.693  0.0205  0.0038  0.3822
  166SAPS   H2R18708   0.617  -0.518   6.768 -0.2730  0.1102  0.5898
  166SAPS   H2S18709   0.508  -0.480   6.634 -0.4507  1.1663  0.2417
  166SAPS    C318710   0.720  -0.016   6.876 -0.1967 -0.7253  0.2290
  166SAPS    HX18711   0.780  -0.061   6.958 -0.3366 -1.7971 -0.2394
  166SAPS    HY18712   0.680   0.085   6.900 -1.3843 -1.3067  0.7977
  166SAPS   O3118713   0.782  -0.015   6.747 -1.0069  0.5200  0.1735
  166SAPS   C3118714   0.918  -0.029   6.744 -0.5301 -1.0062  0.4549
  166SAPS   O3218715   0.991  -0.054   6.837  0.0450 -0.0631 -0.0043
  166SAPS   C3218716   0.951  -0.028   6.599 -0.0872  0.1072 -0.0117
  166SAPS   H2X18717   0.876   0.018   6.531 -0.9358 -0.6080  0.4338
  166SAPS   H2Y18718   0.974  -0.132   6.566 -0.4229 -0.3079  1.0430
  166SAPS   C2318719   0.729  -0.425   6.609  0.0274 -0.1598 -0.7332
  166SAPS   H3R18720   0.738  -0.522   6.555 -0.7262 -0.0451 -1.0750
  166SAPS   H3S18721   0.810  -0.416   6.685  0.3985 -0.4389 -1.0943
  166SAPS   C2418722   0.728  -0.311   6.506 -0.0054  0.5947 -0.6310
  166SAPS   H4R18723   0.824  -0.309   6.450  1.2683  3.0579  1.4416
  166SAPS   H4S18724   0.715  -0.217   6.563 -0.6576 -0.1089  0.4123
  166SAPS   C2518725   0.625  -0.302   6.397  0.1696  0.6096 -0.3104
  166SAPS   H5R18726   0.522  -0.317   6.435  0.2452  2.1956  0.5926
  166SAPS   C2618727   0.633  -0.275   6.270  0.5111 -0.2956 -0.2766
  166SAPS   H6R18728   0.537  -0.272   6.216  0.2086 -0.6407  0.2350
  166SAPS   C2718729   0.759  -0.250   6.184 -0.1665 -0.7618  0.0340
  166SAPS   H7R18730   0.741  -0.285   6.080 -1.5028  1.3997 -0.5259
  166SAPS   H7S18731   0.840  -0.316   6.220 -0.8885 -1.5474  0.2491
  166SAPS   C2818732   0.823  -0.110   6.187 -0.2627  0.1227  0.2014
  166SAPS   H8R18733   0.841  -0.061   6.284  1.0591  1.3114 -0.6015
  166SAPS   C2918734   0.852  -0.036   6.081 -0.0356  0.8845  0.3499
  166SAPS   H9R18735   0.900   0.063   6.090  1.8398  0.0778 -0.2148
  166SAPS  C21018736   0.825  -0.086   5.931 -0.2771  0.3437 -0.3085
  166SAPS  H10R18737   0.848  -0.193   5.914 -2.3802  0.0697 -1.8936
  166SAPS  H10S18738   0.902  -0.036   5.868  0.2661  0.3571  0.3641
  166SAPS  C21118739   0.681  -0.077   5.881  0.5180 -0.3770  0.4045
  166SAPS  H11R18740   0.611  -0.108   5.959  0.0570  1.3154  0.6853
  166SAPS  C21218741   0.649  -0.064   5.750  0.4287 -0.5789 -0.1905
  166SAPS  H12R18742   0.542  -0.072   5.723 -0.0209  1.0325  0.9780
  166SAPS  C21318743   0.745  -0.040   5.643  0.1094  0.7644  0.2475
  166SAPS  H13R18744   0.845  -0.085   5.659  0.1816  0.5373 -0.7526
  166SAPS  H13S18745   0.760   0.070   5.635 -0.1607  0.8353  0.7080
  166SAPS  C21418746   0.696  -0.089   5.508 -0.3578  0.1578 -0.5082
  166SAPS  H14R18747   0.631  -0.178   5.509  1.6595 -1.3808  0.4768
  166SAPS  C21518748   0.734  -0.041   5.387 -0.5749  0.1952 -0.3600
  166SAPS  H15R18749   0.707  -0.093   5.295 -2.1005 -0.6371  0.5085
  166SAPS  C21618750   0.850   0.058   5.373 -0.5731  0.1191 -0.4272
  166SAPS  H16R18751   0.846   0.144   5.442  1.1166  0.2462 -0.4509
  166SAPS  H16S18752   0.835   0.110   5.276 -0.4355  1.3692  0.2125
  166SAPS  C21718753   0.987  -0.014   5.389  0.0525 -0.2302  0.3722
  166SAPS  H17R18754   1.010  -0.076   5.299  0.5289  0.2161  0.1791
  166SAPS  H17S18755   0.986  -0.084   5.475  2.7458 -0.8166  0.0004
  166SAPS  C21818756   1.106   0.079   5.403 -0.1051  0.5218  0.2166
  166SAPS  H18R18757   1.103   0.144   5.313 -0.5041  1.1014  0.6360
  166SAPS  H18S18758   1.203   0.026   5.391  0.4531  1.3829  0.7292
  166SAPS  C21918759   1.113   0.159   5.534 -0.0142  0.3676 -0.0549
  166SAPS  H19R18760   1.130   0.091   5.620 -2.0681  0.6474  0.6298
  166SAPS  H19S18761   1.013   0.206   5.547  0.2578  0.9100  0.0635
  166SAPS  C22018762   1.230   0.264   5.542 -0.1628  0.2757 -0.9685
  166SAPS  H20R18763   1.329   0.215   5.548 -0.7332 -0.9659 -1.3543
  166SAPS  H20S18764   1.219   0.325   5.634 -1.7465 -1.0101 -0.2425
  166SAPS  H20T18765   1.236   0.345   5.467  1.0279  2.7005  1.5678
  166SAPS   C3318766   1.075   0.047   6.572 -0.8646 -0.2072 -0.8779
  166SAPS   H3X18767   1.101   0.042   6.464  0.5578  0.0796 -0.5719
  166SAPS   H3Y18768   1.158  -0.004   6.625  0.0028  1.1247 -0.9065
  166SAPS   C3418769   1.069   0.197   6.606  0.4451  0.2501 -0.2292
  166SAPS   H4X18770   1.168   0.247   6.613  1.1145 -1.0079 -0.3308
  166SAPS   H4Y18771   1.030   0.212   6.709 -1.1149  1.1978 -0.9338
  166SAPS   C3518772   0.967   0.274   6.516 -0.4444 -0.0791  0.1736
  166SAPS   H5X18773   0.964   0.377   6.559  0.3357  0.0618 -0.0912
  166SAPS   H5Y18774   0.870   0.223   6.531 -1.9301  2.1747 -1.0756
  166SAPS   C3618775   0.998   0.291   6.369  0.0917  0.1805  0.7352
  166SAPS   H6X18776   1.006   0.199   6.307  0.3016  1.6596 -1.5699
  166SAPS   H6Y18777   1.092   0.347   6.351 -0.3390  0.0703 -2.5161
  166SAPS   C3718778   0.891   0.368   6.299 -0.0459 -0.2742  0.1596
  166SAPS   H7X18779   0.881   0.470   6.341 -1.5058 -0.4824  0.3533
  166SAPS   H7Y18780   0.792   0.319   6.302 -0.1608 -0.3881 -2.7188
  166SAPS   C3818781   0.927   0.380   6.144  0.0600 -0.1526 -0.3798
  166SAPS   H8X18782   0.934   0.280   6.096  0.6851 -0.6810  0.7799
  166SAPS   H8Y18783   1.033   0.415   6.145  0.4632 -1.3327  0.7131
  166SAPS   C3918784   0.849   0.490   6.076  0.3102  0.2369 -0.3540
  166SAPS   H9X18785   0.854   0.588   6.129 -4.3553  0.4852  0.0366
  166SAPS   H9Y18786   0.741   0.467   6.088  0.8557 -2.3286  0.3243
  166SAPS  C31018787   0.884   0.521   5.930  0.3462 -0.4532  0.7189
  166SAPS  H10X18788   0.991   0.492   5.923  1.2547  2.8504 -1.2759
  166SAPS  H10Y18789   0.890   0.631   5.921 -2.7999 -0.2925 -0.7050
  166SAPS  C31118790   0.808   0.449   5.823 -0.2708  0.5184  0.3078
  166SAPS  H11X18791   0.698   0.442   5.838  0.0060  0.6044  2.8690
  166SAPS  H11Y18792   0.849   0.347   5.834 -0.5170  0.4846  0.9319
  166SAPS  C31218793   0.852   0.508   5.692  0.3261  0.6340 -0.3621
  166SAPS  H12X18794   0.959   0.482   5.683  0.7376  0.3009  3.6994
  166SAPS  H12Y18795   0.855   0.618   5.706  0.7381  0.3811  1.8387
  166SAPS  C31318796   0.771   0.462   5.568 -0.9730  0.2064 -0.2238
  166SAPS  H13X18797   0.663   0.470   5.595 -1.4578 -1.8572 -1.3571
  166SAPS  H13Y18798   0.785   0.355   5.539 -0.3721  0.4891 -1.0090
  166SAPS  C31418799   0.818   0.539   5.444  0.5725 -0.9490 -0.2557
  166SAPS  H14X18800   0.780   0.495   5.349 -1.5369  3.0622 -1.4983
  166SAPS  H14Y18801   0.929   0.544   5.439  0.5571  0.1774  0.2638
  166SAPS  C31518802   0.764   0.676   5.454  0.1389 -0.5064 -0.7402
  166SAPS  H15X18803   0.739   0.702   5.559  2.3477 -0.5075 -0.1676
  166SAPS  H15Y18804   0.661   0.668   5.411  0.0985  1.7910 -1.2015
  166SAPS  C31618805   0.850   0.782   5.389 -0.4359 -0.1248  0.0616
  166SAPS  H16X18806   0.791   0.875   5.374  0.3904  0.3222 -0.5122
  166SAPS  H16Y18807   0.883   0.748   5.289  1.2515  1.4701  0.0221
  166SAPS  C31718808   0.974   0.824   5.458 -0.1294 -0.0604  0.5504
  166SAPS  H17X18809   1.038   0.737   5.482 -0.0594 -0.4098 -0.7939
  166SAPS  H17Y18810   0.947   0.881   5.549 -1.1559  1.6680 -0.7499
  166SAPS  C31818811   1.074   0.914   5.380 -0.9637  0.3259  0.0108
  166SAPS  H18X18812   1.032   1.013   5.352  1.2253  0.6567 -2.6465
  166SAPS  H18Y18813   1.102   0.867   5.283 -0.9181  0.1611  0.1036
  166SAPS  H18Z18814   1.156   0.947   5.446 -2.6561  1.8018  1.4638
  167SAPS     N18815   6.695   2.546   6.915 -0.2385 -0.0981  0.4196
  167SAPS   HN118816   6.720   2.475   6.844 -2.2116 -0.4449  0.0322
  167SAPS   HN218817   6.662   2.631   6.864 -0.4772 -0.0250  0.6921
  167SAPS   HN318818   6.773   2.567   6.981  1.6911 -3.1984 -0.7005
  167SAPS   C1218819   6.579   2.483   6.994  0.1206  0.4618 -0.3201
  167SAPS  H12A18820   6.618   2.388   7.027  1.5150  0.8642 -0.7198
  167SAPS   C1318821   6.532   2.564   7.118  0.4478  0.6331 -0.0033
  167SAPS  O13A18822   6.595   2.669   7.150  0.4870 -0.2670 -0.2403
  167SAPS  O13B18823   6.438   2.518   7.193 -0.1438 -0.4141 -0.1731
  167SAPS   C1118824   6.460   2.455   6.900  0.5232 -0.4565  0.1973
  167SAPS  H11A18825   6.390   2.383   6.948 -1.7435  0.6005 -1.3675
  167SAPS  H11B18826   6.498   2.392   6.817 -1.0552 -3.3368  1.5045
  167SAPS     P18827   6.238   2.565   6.829 -0.5582 -0.5631 -0.0618
  167SAPS   O1318828   6.173   2.510   6.952  0.4381  0.2090  0.0404
  167SAPS   O1418829   6.176   2.696   6.795 -0.7702  0.1887  0.0220
  167SAPS   O1218830   6.391   2.576   6.862 -0.0507  0.0852  0.5647
  167SAPS   O1118831   6.233   2.468   6.708  0.0227  0.0548 -0.0419
  167SAPS    C118832   6.227   2.505   6.570  0.0595  0.7038  0.2406
  167SAPS    HA18833   6.279   2.599   6.540  1.0236 -0.4668 -2.0056
  167SAPS    HB18834   6.277   2.434   6.500 -0.6873  2.0882 -1.8202
  167SAPS    C218835   6.080   2.524   6.527 -0.7055  0.0887 -0.1340
  167SAPS    HS18836   6.029   2.597   6.594  0.2699  0.6516  0.0060
  167SAPS   O2118837   6.016   2.391   6.524 -0.3230 -0.2841  0.8040
  167SAPS   C2118838   5.884   2.389   6.528 -0.4187 -0.6132 -0.6952
  167SAPS   O2218839   5.826   2.497   6.543  0.4192  0.5790 -0.1136
  167SAPS   C2218840   5.824   2.251   6.532 -0.1670 -0.0086  0.1389
  167SAPS   H2R18841   5.909   2.183   6.556 -1.6984 -2.2205 -0.4496
  167SAPS   H2S18842   5.754   2.259   6.618  0.5582  5.0482  0.5442
  167SAPS    C318843   6.076   2.568   6.379  0.1535  0.5185  0.8853
  167SAPS    HX18844   5.967   2.571   6.356  0.6764 -0.0712 -2.0401
  167SAPS    HY18845   6.128   2.492   6.317  2.1091  1.2726  1.5560
  167SAPS   O3118846   6.143   2.699   6.353 -0.1350 -0.1146 -0.1322
  167SAPS   C3118847   6.066   2.809   6.367 -0.2501 -0.5304 -0.5165
  167SAPS   O3218848   5.948   2.804   6.401  0.2697 -0.4871  0.6586
  167SAPS   C3218849   6.151   2.933   6.348 -0.2653 -0.5895 -0.8364
  167SAPS   H2X18850   6.257   2.897   6.350  0.3627  1.1919  0.5112
  167SAPS   H2Y18851   6.133   3.004   6.431 -1.3145 -1.4129 -0.3390
  167SAPS   C2318852   5.746   2.213   6.401  0.4000 -0.3484 -0.3587
  167SAPS   H3R18853   5.817   2.195   6.318  2.2096 -0.5324  1.1553
  167SAPS   H3S18854   5.684   2.302   6.378  1.6753  0.6160 -0.1375
  167SAPS   C2418855   5.664   2.082   6.419  0.0172 -0.0510  0.1329
  167SAPS   H4R18856   5.734   2.004   6.456  3.0706  2.3608 -0.1681
  167SAPS   H4S18857   5.636   2.059   6.314 -2.8394  3.1758 -0.0034
  167SAPS   C2518858   5.545   2.111   6.512  0.3993  0.0380 -0.8386
  167SAPS   H5R18859   5.574   2.130   6.616 -0.6307  1.8085 -0.8447
  167SAPS   C2618860   5.414   2.113   6.478  0.9587 -0.5266  0.4273
  167SAPS   H6R18861   5.340   2.131   6.557  0.1838 -1.7909  0.0358
  167SAPS   C2718862   5.357   2.077   6.345  0.5585  0.4348  0.0982
  167SAPS   H7R18863   5.353   1.971   6.312 -0.5692  1.5549 -4.0009
  167SAPS   H7S18864   5.411   2.132   6.265  1.2175 -1.8062 -1.1030
  167SAPS   C2818865   5.208   2.107   6.341 -0.2209 -0.0328 -0.6471
  167SAPS   H8R18866   5.156   2.092   6.437 -1.1915 -1.0972 -1.3087
  167SAPS   C2918867   5.139   2.158   6.230 -1.2489  0.4169  0.0831
  167SAPS   H9R18868   5.030   2.165   6.237 -1.6570 -3.3906 -0.0655
  167SAPS  C21018869   5.184   2.175   6.085 -0.8717 -0.0407 -0.7351
  167SAPS  H10R18870   5.094   2.160   6.021  0.2196  1.3326 -2.6858
  167SAPS  H10S18871   5.262   2.100   6.062 -1.3262 -0.3774 -1.2133
  167SAPS  C21118872   5.250   2.310   6.069 -0.4600  0.4764  0.4129
  167SAPS  H11R18873   5.338   2.322   6.133 -1.8745  0.4348  2.4959
  167SAPS  C21218874   5.213   2.408   5.983  0.3167  0.2970  1.0186
  167SAPS  H12R18875   5.264   2.506   5.979 -1.1412  1.0340 -2.2994
  167SAPS  C21318876   5.104   2.401   5.875  0.2009  0.5216 -0.6469
  167SAPS  H13R18877   5.075   2.294   5.869  3.7188 -0.8151  2.3413
  167SAPS  H13S18878   5.147   2.429   5.777  1.4608 -0.2884 -0.3509
  167SAPS  C21418879   4.977   2.481   5.920 -0.1566 -0.4118  0.4897
  167SAPS  H14R18880   4.921   2.432   6.001 -0.2921  0.5629  0.9947
  167SAPS  C21518881   4.940   2.600   5.877 -0.7406 -0.4898  0.2704
  167SAPS  H15R18882   4.852   2.654   5.915  0.1725 -0.3852  2.3897
  167SAPS  C21618883   5.012   2.673   5.763 -1.0226  0.4482 -0.1102
  167SAPS  H16R18884   5.064   2.614   5.684 -0.7334 -0.2131  0.5667
  167SAPS  H16S18885   5.086   2.748   5.799 -0.4213 -0.1570 -0.0427
  167SAPS  C21718886   4.909   2.752   5.684  0.2806  0.2320  0.6431
  167SAPS  H17R18887   4.961   2.819   5.612 -1.3001 -0.7327 -1.5292
  167SAPS  H17S18888   4.843   2.819   5.744 -2.3239 -0.9628 -0.7278
  167SAPS  C21818889   4.812   2.668   5.604  0.0402  0.0291  0.1631
  167SAPS  H18R18890   4.753   2.598   5.667  1.4310 -1.0169  0.3604
  167SAPS  H18S18891   4.869   2.592   5.546  0.0430  0.3961 -0.3263
  167SAPS  C21918892   4.732   2.760   5.513  0.0864  0.0532  0.6716
  167SAPS  H19R18893   4.793   2.817   5.440  0.4204 -1.4924 -0.3164
  167SAPS  H19S18894   4.679   2.835   5.575  1.4779  2.3368 -0.7778
  167SAPS  C22018895   4.625   2.679   5.430  0.0293 -0.5002 -0.3904
  167SAPS  H20R18896   4.644   2.660   5.323 -1.6456  0.5961 -0.9275
  167SAPS  H20S18897   4.533   2.742   5.423  0.2822 -0.2064 -1.1711
  167SAPS  H20T18898   4.597   2.588   5.487  0.9081 -1.0075 -0.7547
  167SAPS   C3318899   6.126   2.996   6.208 -0.0003 -0.4167 -0.4867
  167SAPS   H3X18900   6.204   3.073   6.189 -1.0689  1.0363  0.7403
  167SAPS   H3Y18901   6.027   3.046   6.215  0.6238  0.5752  2.7249
  167SAPS   C3418902   6.109   2.890   6.097 -0.2541 -0.1650 -0.5113
  167SAPS   H4X18903   6.009   2.841   6.095 -0.0791 -0.5642  0.2555
  167SAPS   H4Y18904   6.188   2.814   6.115  1.4525  2.0815  2.2271
  167SAPS   C3518905   6.141   2.960   5.966  0.0698 -0.2618  1.2528
  167SAPS   H5X18906   6.247   2.991   5.965 -0.2485  1.1468 -1.9101
  167SAPS   H5Y18907   6.084   3.055   5.958  3.6621  2.4376  4.3829
  167SAPS   C3618908   6.121   2.867   5.846 -0.3907  0.0038  0.5860
  167SAPS   H6X18909   6.012   2.865   5.825 -0.1461  1.4500 -1.1238
  167SAPS   H6Y18910   6.167   2.769   5.870  1.1703  0.3185 -0.9327
  167SAPS   C3718911   6.194   2.917   5.725 -0.1206  0.2523  0.3972
  167SAPS   H7X18912   6.298   2.951   5.744 -0.3032  0.2171  1.5320
  167SAPS   H7Y18913   6.141   3.010   5.694 -2.0729 -0.8588  0.2655
  167SAPS   C3818914   6.199   2.825   5.603  0.4569 -0.7388  0.2390
  167SAPS   H8X18915   6.096   2.785   5.597  1.3646 -3.1105 -0.7090
  167SAPS   H8Y18916   6.267   2.737   5.614 -0.1179 -1.0367  1.6269
  167SAPS   C3918917   6.234   2.904   5.479 -1.0045  0.5900 -0.2099
  167SAPS   H9X18918   6.313   2.979   5.503 -1.0402  0.9255 -1.1245
  167SAPS   H9Y18919   6.149   2.967   5.446 -1.1193 -0.5482 -2.2205
  167SAPS  C31018920   6.266   2.808   5.356  0.4951  0.1808  0.2973
  167SAPS  H10X18921   6.303   2.714   5.402  1.0398  0.3469  0.2076
  167SAPS  H10Y18922   6.350   2.848   5.296  0.8514  0.1110  0.7423
  167SAPS  C31118923   6.141   2.784   5.267  0.5062  0.8667  0.2094
  167SAPS  H11X18924   6.111   2.876   5.213 -0.0761  0.8799  0.5497
  167SAPS  H11Y18925   6.056   2.747   5.328  1.4295  0.4727  1.3131
  167SAPS  C31218926   6.183   2.676   5.165  0.1898  0.0357 -0.3028
  167SAPS  H12X18927   6.221   2.590   5.224 -1.2083 -0.6858 -0.4103
  167SAPS  H12Y18928   6.273   2.705   5.107  0.9479  2.0387  1.7137
  167SAPS  C31318929   6.058   2.652   5.089  0.5073 -0.3701  0.3975
  167SAPS  H13X18930   6.012   2.751   5.069  0.2051 -0.4353  0.7676
  167SAPS  H13Y18931   5.995   2.592   5.158  0.9772 -0.7603  0.4937
  167SAPS  C31418932   6.078   2.575   4.962 -0.2705  0.1779  0.5460
  167SAPS  H14X18933   6.179   2.584   4.916 -0.7927 -0.3642 -0.7459
  167SAPS  H14Y18934   6.002   2.609   4.888 -0.6845 -0.4516  0.6725
  167SAPS  C31518935   6.066   2.422   4.983 -0.0819  0.0609  0.0962
  167SAPS  H15X18936   5.962   2.396   5.012  0.9243 -0.6120  3.5107
  167SAPS  H15Y18937   6.135   2.407   5.068  1.1958  2.6414 -0.3726
  167SAPS  C31618938   6.106   2.348   4.855 -0.3800  0.2738  1.1585
  167SAPS  H16X18939   6.216   2.364   4.847 -0.2281 -1.0062  0.3611
  167SAPS  H16Y18940   6.065   2.396   4.763 -0.8725 -1.6619  0.3240
  167SAPS  C31718941   6.068   2.197   4.857 -0.6107 -0.6773 -0.0168
  167SAPS  H17X18942   5.958   2.192   4.877 -0.5015  1.6783  1.5578
  167SAPS  H17Y18943   6.110   2.149   4.948 -0.7807  0.2872  0.5934
  167SAPS  C31818944   6.096   2.110   4.733 -0.1469  0.3118 -0.4470
  167SAPS  H18X18945   6.015   2.111   4.656 -1.3213  1.1598  0.7416
  167SAPS  H18Y18946   6.095   2.007   4.773  0.4553  0.6243  0.4118
  167SAPS  H18Z18947   6.198   2.129   4.694 -0.1430  1.9049  0.2356
  168SAPS     N18948   1.421   1.898   7.558  0.0595  0.7087 -0.3763
  168SAPS   HN118949   1.471   1.926   7.645  1.2547  0.1448 -0.8623
  168SAPS   HN218950   1.502   1.863   7.502 -0.6839 -0.3696 -0.8218
  168SAPS   HN318951   1.369   1.978   7.516 -1.5950 -0.3441 -0.4140
  168SAPS   C1218952   1.338   1.780   7.575  0.8277  0.4936 -0.7544
  168SAPS  H12A18953   1.402   1.695   7.555 -0.8609 -0.9481 -0.3765
  168SAPS   C1318954   1.283   1.761   7.720 -0.1782  0.0628 -1.0450
  168SAPS  O13A18955   1.309   1.855   7.803 -0.8808 -0.0011  0.1505
  168SAPS  O13B18956   1.206   1.668   7.758  0.5192  0.1557 -0.5757
  168SAPS   C1118957   1.223   1.770   7.470  0.0377  0.9439 -0.1655
  168SAPS  H11A18958   1.162   1.863   7.462  2.1046  2.3625 -0.3609
  168SAPS  H11B18959   1.168   1.679   7.500  0.5763  0.8182  0.4675
  168SAPS     P18960   1.182   1.741   7.220  0.0072  0.1264 -0.3222
  168SAPS   O1318961   1.078   1.640   7.252  0.3893  0.5128 -0.4724
  168SAPS   O1418962   1.139   1.879   7.193 -0.2861 -0.1844 -0.0684
  168SAPS   O1218963   1.282   1.738   7.345 -0.0939  0.9059 -0.0496
  168SAPS   O1118964   1.284   1.695   7.102 -0.6543 -0.2754  0.0822
  168SAPS    C118965   1.388   1.780   7.054  0.0345  0.0168  0.6868
  168SAPS    HA18966   1.377   1.775   6.944 -1.1151 -1.0881  0.8423
  168SAPS    HB18967   1.368   1.884   7.089  1.4417  0.7852 -0.6541
  168SAPS    C218968   1.529   1.732   7.097  0.2774 -0.1013  0.1556
  168SAPS    HS18969   1.527   1.730   7.208  0.3384 -2.2779  0.1634
  168SAPS   O2118970   1.619   1.828   7.040 -0.9177  0.2019  0.5502
  168SAPS   C2118971   1.746   1.821   7.089  0.6016  0.5162 -0.3214
  168SAPS   O2218972   1.780   1.737   7.171 -0.2761 -0.3404  0.5930
  168SAPS   C2218973   1.837   1.917   7.018 -0.1584 -0.9661 -0.1869
  168SAPS   H2R18974   1.820   2.020   7.054  2.4203 -0.9515  1.1750
  168SAPS   H2S18975   1.940   1.891   7.050  1.0025  1.7429 -1.4237
  168SAPS    C318976   1.553   1.587   7.044 -0.1782  0.9209  0.3423
  168SAPS    HX18977   1.473   1.527   7.092 -0.7322  1.0417 -0.4259
  168SAPS    HY18978   1.649   1.543   7.081  0.7839  1.5145 -1.3377
  168SAPS   O3118979   1.518   1.575   6.904  0.2972  0.5437 -0.1204
  168SAPS   C3118980   1.616   1.525   6.833  0.1181 -0.1662 -0.3009
  168SAPS   O3218981   1.723   1.481   6.873  0.3788  0.3726  0.6783
  168SAPS   C3218982   1.574   1.538   6.687 -0.3807 -0.1710  0.3311
  168SAPS   H2X18983   1.480   1.597   6.678 -2.0651 -2.7351 -0.0917
  168SAPS   H2Y18984   1.567   1.436   6.644  1.3289 -0.5414  0.8879
  168SAPS   C2318985   1.826   1.907   6.866 -0.3429  0.1129  0.4126
  168SAPS   H3R18986   1.745   1.963   6.815  0.1271  0.4889  0.0618
  168SAPS   H3S18987   1.822   1.799   6.838  1.8547  0.1050 -0.0488
  168SAPS   C2418988   1.960   1.969   6.805  0.6282  0.4781  1.0242
  168SAPS   H4R18989   1.978   2.064   6.859  2.0654  0.4132  0.6813
  168SAPS   H4S18990   1.928   2.005   6.704 -1.2089 -0.2347  1.3140
  168SAPS   C2518991   2.085   1.880   6.795  0.5166  0.3784  0.0732
  168SAPS   H5R18992   2.150   1.874   6.883 -0.6007 -0.7333  0.8772
  168SAPS   C2618993   2.118   1.792   6.699 -0.0365  0.0786  0.9854
  168SAPS   H6R18994   2.217   1.750   6.721  0.1371  0.1546  0.3729
  168SAPS   C2718995   2.050   1.762   6.566 -0.3574 -0.2332  0.0724
  168SAPS   H7R18996   2.062   1.850   6.500  0.9923 -0.0627  0.5238
  168SAPS   H7S18997   1.940   1.746   6.575 -0.4013 -0.7052 -1.1515
  168SAPS   C2818998   2.110   1.637   6.509  0.0695 -0.3287 -0.4577
  168SAPS   H8R18999   2.117   1.561   6.588  0.0940  1.5335  1.4574
  168SAPS   C2919000   2.164   1.619   6.382  0.3747  0.1671 -0.0702
  168SAPS   H9R19001   2.192   1.516   6.352 -2.0411 -0.7908  0.7495
  168SAPS  C21019002   2.154   1.715   6.269 -0.2918  0.6845  0.1034
  168SAPS  H10R19003   2.060   1.772   6.280 -0.5306 -0.0411  2.3312
  168SAPS  H10S19004   2.140   1.666   6.170  1.0059  0.0827  0.1934
  168SAPS  C21119005   2.264   1.813   6.271 -0.9594  0.8104  0.4769
  168SAPS  H11R19006   2.296   1.853   6.368 -1.8545 -2.3327  2.1928
  168SAPS  C21219007   2.326   1.845   6.158 -0.1635 -0.0135 -0.0722
  168SAPS  H12R19008   2.397   1.929   6.152 -0.4131  0.1920 -0.1376
  168SAPS  C21319009   2.284   1.807   6.013 -0.7692  0.1320 -0.6167
  168SAPS  H13R19010   2.177   1.777   6.016 -1.2374  1.7726  0.0436
  168SAPS  H13S19011   2.353   1.727   5.981  0.1775  0.0043  1.5535
  168SAPS  C21419012   2.291   1.920   5.910  0.6212  0.2692 -0.4407
  168SAPS  H14R19013   2.232   2.008   5.939  0.2422 -0.1649  0.1024
  168SAPS  C21519014   2.343   1.904   5.784  0.2261 -0.2700  0.0267
  168SAPS  H15R19015   2.354   1.995   5.723  2.1797 -1.9479 -2.3831
  168SAPS  C21619016   2.421   1.790   5.713 -0.2263  0.3618 -0.0593
  168SAPS  H16R19017   2.405   1.695   5.768  0.1727 -0.9937 -2.1788
  168SAPS  H16S19018   2.528   1.807   5.691 -0.1481 -0.7880 -0.6448
  168SAPS  C21719019   2.349   1.755   5.582 -0.4958  0.0159  0.5292
  168SAPS  H17R19020   2.239   1.735   5.586 -1.1667  3.0866  0.0713
  168SAPS  H17S19021   2.404   1.663   5.554  0.1590  0.6072 -0.1550
  168SAPS  C21819022   2.378   1.863   5.478 -0.0468 -0.0475 -0.3212
  168SAPS  H18R19023   2.484   1.853   5.449 -0.1167  0.3406 -0.7338
  168SAPS  H18S19024   2.356   1.968   5.508  1.5942  0.5578 -1.1278
  168SAPS  C21919025   2.305   1.843   5.347  0.1417  0.1216 -0.1541
  168SAPS  H19R19026   2.310   1.928   5.276  0.3193  1.4844  1.4244
  168SAPS  H19S19027   2.197   1.832   5.367  0.0331 -0.3876 -0.9854
  168SAPS  C22019028   2.357   1.719   5.274 -0.6512 -0.1743 -0.7639
  168SAPS  H20R19029   2.459   1.738   5.236 -0.2018  0.7491  0.8460
  168SAPS  H20S19030   2.295   1.701   5.183 -1.6926 -0.2088 -0.0614
  168SAPS  H20T19031   2.354   1.623   5.330  0.7137 -0.2600 -0.8122
  168SAPS   C3319032   1.682   1.603   6.595  0.6669 -0.1889 -0.3695
  168SAPS   H3X19033   1.782   1.557   6.606  0.9028  0.4725  0.3292
  168SAPS   H3Y19034   1.696   1.711   6.617 -0.8182 -0.4135  2.0834
  168SAPS   C3419035   1.639   1.580   6.447  0.4233 -0.5486  0.1825
  168SAPS   H4X19036   1.533   1.611   6.436 -0.0371 -1.5526  1.5031
  168SAPS   H4Y19037   1.640   1.470   6.429 -0.3229 -0.6951  0.9362
  168SAPS   C3519038   1.738   1.645   6.357 -0.3246 -0.4696  0.5720
  168SAPS   H5X19039   1.841   1.637   6.399 -0.9036 -1.8046  1.7914
  168SAPS   H5Y19040   1.723   1.754   6.342 -0.1556 -0.4267  0.7192
  168SAPS   C3619041   1.734   1.595   6.215  0.7760  0.4230 -0.2111
  168SAPS   H6X19042   1.769   1.490   6.206  2.2461  0.8008  0.8148
  168SAPS   H6Y19043   1.792   1.669   6.155 -0.7684  3.5180  1.8336
  168SAPS   C3719044   1.594   1.602   6.160 -0.4087  0.4107 -0.8972
  168SAPS   H7X19045   1.538   1.693   6.188  0.1502  0.8880 -1.2993
  168SAPS   H7Y19046   1.533   1.513   6.186 -0.1610  0.7805  1.1121
  168SAPS   C3819047   1.603   1.608   6.007 -0.2374 -0.3386  0.5850
  168SAPS   H8X19048   1.664   1.520   5.978 -1.8260 -1.9146  1.8334
  168SAPS   H8Y19049   1.651   1.705   5.979 -0.2672 -0.6662 -0.6638
  168SAPS   C3919050   1.466   1.606   5.932 -0.0863 -0.1712 -0.5364
  168SAPS   H9X19051   1.404   1.687   5.976  0.5758 -0.5701  1.2199
  168SAPS   H9Y19052   1.421   1.505   5.943 -0.1786 -0.5172 -3.3846
  168SAPS  C31019053   1.488   1.625   5.785 -0.8026 -0.0821  0.4718
  168SAPS  H10X19054   1.560   1.549   5.748 -0.9393 -0.5536  1.1476
  168SAPS  H10Y19055   1.523   1.729   5.768 -0.3282 -0.4822 -1.1796
  168SAPS  C31119056   1.356   1.603   5.705  0.3593  0.3539  0.1829
  168SAPS  H11X19057   1.269   1.667   5.730  0.3356  0.3595  0.0890
  168SAPS  H11Y19058   1.328   1.496   5.719  1.9895 -0.2855 -1.0991
  168SAPS  C31219059   1.385   1.646   5.558  0.0582  0.0243  0.1314
  168SAPS  H12X19060   1.431   1.556   5.513 -0.0237 -0.1436  0.3806
  168SAPS  H12Y19061   1.450   1.736   5.557 -0.5610  0.5084 -2.6316
  168SAPS  C31319062   1.267   1.689   5.478 -0.4509 -0.2087  0.0631
  168SAPS  H13X19063   1.208   1.756   5.545 -0.7765 -0.9257  0.5062
  168SAPS  H13Y19064   1.201   1.609   5.438  0.2537 -0.5156 -0.4938
  168SAPS  C31419065   1.304   1.775   5.350  0.3710  0.2085 -0.0209
  168SAPS  H14X19066   1.339   1.709   5.268 -1.1061 -0.9589  0.2563
  168SAPS  H14Y19067   1.385   1.848   5.374 -0.7651  1.2238  0.8385
  168SAPS  C31519068   1.187   1.859   5.288 -0.3820 -1.0556 -0.0098
  168SAPS  H15X19069   1.157   1.932   5.366 -0.3877  1.3838 -2.1631
  168SAPS  H15Y19070   1.096   1.798   5.272  0.5352 -2.1453 -1.2772
  168SAPS  C31619071   1.218   1.921   5.155 -0.1306 -0.3672 -0.4795
  168SAPS  H16X19072   1.259   1.852   5.077  3.5848  1.4557 -0.3467
  168SAPS  H16Y19073   1.298   1.999   5.157  0.1625 -0.6326 -1.2165
  168SAPS  C31719074   1.093   1.974   5.080 -0.2240  0.2370  0.6281
  168SAPS  H17X19075   1.042   2.055   5.137  0.9879  0.7661  0.9967
  168SAPS  H17Y19076   1.023   1.888   5.069 -0.9265  0.6908  1.4058
  168SAPS  C31819077   1.116   2.025   4.932 -0.2073  0.2324 -0.6345
  168SAPS  H18X19078   1.174   1.943   4.885  0.8386 -0.8964  2.3577
  168SAPS  H18Y19079   1.170   2.121   4.939 -1.6752  1.0482 -0.0706
  168SAPS  H18Z19080   1.019   2.045   4.882  0.8954  2.7755 -1.9267
  169SAPS     N19081   3.123   3.631   6.944 -0.4734  0.2356 -1.1855
  169SAPS   HN119082   3.157   3.615   6.847  1.1218  1.0135 -0.7777
  169SAPS   HN219083   3.179   3.577   7.012 -0.5581  2.4730  0.7734
  169SAPS   HN319084   3.022   3.611   6.955 -0.7377  2.1485  0.4583
  169SAPS   C1219085   3.151   3.777   6.979 -0.0909  0.0397  0.7979
  169SAPS  H12A19086   3.124   3.836   6.893 -1.1122 -1.9279 -0.3006
  169SAPS   C1319087   3.100   3.840   7.109  0.1785  0.8804 -0.2340
  169SAPS  O13A19088   3.019   3.782   7.195  0.2381 -0.0224 -0.0427
  169SAPS  O13B19089   3.117   3.964   7.114 -0.3688 -0.0531  0.5232
  169SAPS   C1119090   3.311   3.786   6.992  0.4708 -0.6543  0.5381
  169SAPS  H11A19091   3.354   3.740   7.083  2.9703 -0.8002 -0.6279
  169SAPS  H11B19092   3.337   3.893   7.004  0.1491 -0.7188  2.0693
  169SAPS     P19093   3.463   3.796   6.769  0.4894 -0.0802  0.0246
  169SAPS   O1319094   3.471   3.708   6.652  0.2142  0.0847 -0.7504
  169SAPS   O1419095   3.411   3.937   6.755 -0.2462  0.2260 -0.9230
  169SAPS   O1219096   3.372   3.727   6.877  0.1996  0.1850 -0.2190
  169SAPS   O1119097   3.604   3.796   6.844 -0.2940  0.2535  1.0038
  169SAPS    C119098   3.678   3.919   6.874 -0.1372 -0.2738  0.2639
  169SAPS    HA19099   3.616   4.011   6.877  0.4615  0.2471 -1.4996
  169SAPS    HB19100   3.712   3.929   6.979  0.0564  2.0434  0.0332
  169SAPS    C219101   3.801   3.944   6.782 -0.1341 -0.6192  0.1906
  169SAPS    HS19102   3.849   4.029   6.834  2.3061 -2.3319  0.9072
  169SAPS   O2119103   3.769   3.980   6.651  0.4744  0.5559 -0.3722
  169SAPS   C2119104   3.716   4.094   6.620  0.0220 -0.5080  0.1362
  169SAPS   O2219105   3.694   4.192   6.694 -0.0467 -0.0397  0.0781
  169SAPS   C2219106   3.684   4.095   6.473  1.1579 -0.3099  0.5458
  169SAPS   H2R19107   3.716   4.191   6.428 -1.5665  0.0877 -0.6974
  169SAPS   H2S19108   3.754   4.026   6.420  1.2137 -0.5636  0.9422
  169SAPS    C319109   3.895   3.823   6.799  0.5308  0.3039  0.5325
  169SAPS    HX19110   3.838   3.742   6.748 -0.2474  1.7374 -0.9619
  169SAPS    HY19111   3.895   3.798   6.907  0.6160  1.5510  0.8296
  169SAPS   O3119112   4.031   3.842   6.762  0.3859  0.5731 -0.1125
  169SAPS   C3119113   4.102   3.728   6.764  0.1503 -0.1433 -0.5626
  169SAPS   O3219114   4.055   3.622   6.802  0.2655  1.0485  0.4430
  169SAPS   C3219115   4.247   3.754   6.725 -0.2332 -0.1876  0.5950
  169SAPS   H2X19116   4.286   3.816   6.809 -1.6893 -0.1623  1.2738
  169SAPS   H2Y19117   4.248   3.822   6.638 -0.2192 -1.6324 -0.5643
  169SAPS   C2319118   3.531   4.075   6.434 -0.3076  0.0319 -0.3535
  169SAPS   H3R19119   3.472   4.145   6.498  0.6048 -1.1336  1.8762
  169SAPS   H3S19120   3.502   3.976   6.477 -0.0447  0.2412  0.3207
  169SAPS   C2419121   3.519   4.077   6.281  0.1204  0.0581  0.0869
  169SAPS   H4R19122   3.420   4.033   6.254  0.4375 -0.5881 -0.0470
  169SAPS   H4S19123   3.597   4.014   6.234 -0.4543 -0.1472 -0.6242
  169SAPS   C2519124   3.525   4.220   6.228 -0.2160 -0.0095 -0.9788
  169SAPS   H5R19125   3.443   4.286   6.257  0.7208  0.6318  0.3228
  169SAPS   C2619126   3.630   4.273   6.152  0.0116  0.0399 -0.0949
  169SAPS   H6R19127   3.623   4.377   6.117 -0.9471 -0.1202 -0.3989
  169SAPS   C2719128   3.746   4.194   6.105 -0.7472  0.1572  0.5052
  169SAPS   H7R19129   3.795   4.144   6.192 -3.2085  0.7319  2.3416
  169SAPS   H7S19130   3.824   4.268   6.077 -0.7488  0.4811  1.3244
  169SAPS   C2819131   3.728   4.085   6.002  0.0998  0.5301 -0.1220
  169SAPS   H8R19132   3.706   3.985   6.041 -1.1704 -0.4576 -3.0790
  169SAPS   C2919133   3.750   4.100   5.869 -0.3221 -0.1350 -0.6397
  169SAPS   H9R19134   3.751   4.011   5.805  1.5725  0.1457 -1.0727
  169SAPS  C21019135   3.791   4.236   5.806  0.7353  0.1658 -0.3980
  169SAPS  H10R19136   3.812   4.316   5.880  0.1663  0.2755 -0.3485
  169SAPS  H10S19137   3.696   4.265   5.755  1.6281 -0.7646 -2.7176
  169SAPS  C21119138   3.902   4.223   5.701 -0.1684 -0.1580 -0.2464
  169SAPS  H11R19139   4.004   4.208   5.738 -0.7113  0.5543  1.6503
  169SAPS  C21219140   3.892   4.213   5.567 -0.5314  0.0899 -0.0801
  169SAPS  H12R19141   3.975   4.185   5.500  0.0029  0.2051  0.5258
  169SAPS  C21319142   3.761   4.226   5.495 -0.2133  0.5433  0.0548
  169SAPS  H13R19143   3.709   4.322   5.516  0.3126  0.5091  1.6491
  169SAPS  H13S19144   3.688   4.145   5.519 -0.9958  0.7817 -1.4204
  169SAPS  C21419145   3.788   4.222   5.350  0.2070  0.1402 -0.1941
  169SAPS  H14R19146   3.791   4.120   5.311 -0.3892 -0.4008  1.1039
  169SAPS  C21519147   3.791   4.327   5.267  0.0995  0.3389  0.3190
  169SAPS  H15R19148   3.819   4.308   5.162 -1.1493  0.9544 -0.1389
  169SAPS  C21619149   3.788   4.474   5.303  0.4379 -0.1379 -0.1225
  169SAPS  H16R19150   3.764   4.505   5.407 -1.3528  1.1941 -0.8879
  169SAPS  H16S19151   3.723   4.522   5.227 -0.8074  1.6722  1.9496
  169SAPS  C21719152   3.928   4.539   5.291  0.5121  0.3274  0.2394
  169SAPS  H17R19153   4.006   4.477   5.340  0.9300  0.6513 -0.0063
  169SAPS  H17S19154   3.916   4.641   5.334 -2.7950  0.5222 -0.8152
  169SAPS  C21819155   3.968   4.565   5.140  0.8160  0.4437 -0.3560
  169SAPS  H18R19156   4.004   4.468   5.098  2.0561  0.7539 -0.0403
  169SAPS  H18S19157   4.055   4.633   5.145  1.8885 -0.9093  0.2271
  169SAPS  C21919158   3.861   4.636   5.053 -0.1095 -0.7249 -0.0017
  169SAPS  H19R19159   3.766   4.578   5.044  0.6985 -2.0941  0.0876
  169SAPS  H19S19160   3.905   4.648   4.952 -0.1444 -2.1281 -0.2041
  169SAPS  C22019161   3.831   4.784   5.096  0.7660  0.5000  0.1331
  169SAPS  H20R19162   3.768   4.782   5.187 -0.5071 -0.9252 -0.7322
  169SAPS  H20S19163   3.765   4.814   5.013  0.1384 -3.1686 -0.8993
  169SAPS  H20T19164   3.927   4.839   5.105  0.5372  1.1304 -1.0658
  169SAPS   C3319165   4.332   3.622   6.721  0.1908  0.2031 -0.0934
  169SAPS   H3X19166   4.319   3.560   6.812 -1.9549 -0.5368 -0.8479
  169SAPS   H3Y19167   4.438   3.655   6.720  0.6906 -1.1620  1.7774
  169SAPS   C3419168   4.311   3.536   6.594 -0.6842  0.5472 -0.0311
  169SAPS   H4X19169   4.201   3.527   6.583 -0.7554  1.7468 -0.4664
  169SAPS   H4Y19170   4.361   3.439   6.616 -1.2559 -0.1042 -1.4943
  169SAPS   C3519171   4.374   3.598   6.462  0.3771  0.0769  0.0901
  169SAPS   H5X19172   4.473   3.640   6.488 -0.4386  2.1997 -0.0012
  169SAPS   H5Y19173   4.315   3.688   6.433  2.8499  1.7853  0.1054
  169SAPS   C3619174   4.368   3.508   6.341  0.9406 -0.1593  0.3914
  169SAPS   H6X19175   4.262   3.500   6.310  0.8083  0.4566  0.6757
  169SAPS   H6Y19176   4.405   3.405   6.360 -1.7094 -0.8834  2.0925
  169SAPS   C3719177   4.426   3.579   6.217 -0.3892 -0.2746 -0.0043
  169SAPS   H7X19178   4.534   3.601   6.221 -0.3090 -0.4987 -0.8425
  169SAPS   H7Y19179   4.370   3.674   6.204  1.3776  1.0303  1.5063
  169SAPS   C3819180   4.412   3.486   6.094 -0.0648  0.1522  0.4839
  169SAPS   H8X19181   4.309   3.446   6.084 -0.2211  0.9130 -1.2916
  169SAPS   H8Y19182   4.466   3.390   6.113 -0.8884 -0.2248  0.9770
  169SAPS   C3919183   4.464   3.552   5.963  0.1624 -0.7309 -0.0472
  169SAPS   H9X19184   4.561   3.605   5.974  0.0395 -0.6135  0.5177
  169SAPS   H9Y19185   4.388   3.629   5.941 -0.7652 -1.1677  1.4300
  169SAPS  C31019186   4.472   3.453   5.850  0.1090 -0.3799 -0.1593
  169SAPS  H10X19187   4.395   3.375   5.868 -1.7964  0.6394 -3.2053
  169SAPS  H10Y19188   4.568   3.397   5.852 -0.1995 -0.9404 -0.7728
  169SAPS  C31119189   4.449   3.513   5.701  0.6463  0.1326 -0.6229
  169SAPS  H11X19190   4.355   3.573   5.691  0.3355 -0.0689  0.8706
  169SAPS  H11Y19191   4.457   3.434   5.624  1.2030 -1.9867  1.5177
  169SAPS  C31219192   4.564   3.611   5.657 -0.1322 -0.5196 -0.0011
  169SAPS  H12X19193   4.653   3.549   5.680 -0.0999  0.5573  3.3949
  169SAPS  H12Y19194   4.579   3.700   5.722 -1.2069 -0.6600  0.4641
  169SAPS  C31319195   4.531   3.653   5.511 -0.0687  0.4966 -0.0423
  169SAPS  H13X19196   4.432   3.701   5.501  0.9773  2.7943  0.1654
  169SAPS  H13Y19197   4.533   3.559   5.451 -1.9492  0.2383  0.2452
  169SAPS  C31419198   4.628   3.757   5.437 -0.2267  0.3893 -0.1128
  169SAPS  H14X19199   4.730   3.729   5.471 -1.7457 -4.5146  1.2814
  169SAPS  H14Y19200   4.606   3.857   5.481  1.0082 -0.5344  2.9097
  169SAPS  C31519201   4.614   3.741   5.287 -0.0512  1.0047 -0.0372
  169SAPS  H15X19202   4.507   3.719   5.267  0.2809  0.1588 -0.9566
  169SAPS  H15Y19203   4.664   3.645   5.261  0.3369  0.2392  3.1418
  169SAPS  C31619204   4.675   3.853   5.208 -0.4804 -0.0821  0.1132
  169SAPS  H16X19205   4.784   3.850   5.228 -1.1079 -0.5472  4.3655
  169SAPS  H16Y19206   4.637   3.948   5.252  0.2332  0.0517  0.4624
  169SAPS  C31719207   4.650   3.834   5.061  0.0112 -0.0424 -0.7266
  169SAPS  H17X19208   4.653   3.728   5.028  0.8378 -0.1145 -0.4532
  169SAPS  H17Y19209   4.727   3.889   5.002  0.1848 -1.3078 -1.7072
  169SAPS  C31819210   4.515   3.898   5.016 -0.1454  0.4987  0.0268
  169SAPS  H18X19211   4.500   4.006   5.036 -2.7239  0.0420  1.0112
  169SAPS  H18Y19212   4.430   3.841   5.059 -0.0685  1.2816  1.2737
  169SAPS  H18Z19213   4.513   3.900   4.905  5.3307  1.2216 -0.3545
  170SAPS     N19214   0.081   0.480   7.086 -0.2409  0.0516 -0.1835
  170SAPS   HN119215   0.131   0.494   7.176 -1.5882  0.0645  0.6006
  170SAPS   HN219216   0.126   0.535   7.011  5.1426  0.2712  2.6805
  170SAPS   HN319217  -0.019   0.509   7.097  0.2668  2.4426 -1.3355
  170SAPS   C1219218   0.085   0.335   7.058  0.9011 -0.3660 -0.6773
  170SAPS  H12A19219   0.181   0.289   7.071 -0.0408 -2.3510 -0.4389
  170SAPS   C1319220  -0.014   0.252   7.142  0.1087  0.3441  0.1710
  170SAPS  O13A19221  -0.088   0.315   7.227  0.2832 -0.3327 -0.2295
  170SAPS  O13B19222  -0.017   0.123   7.143  0.4445  0.0217 -0.0411
  170SAPS   C1119223   0.045   0.332   6.905 -0.1380  0.3591  0.2665
  170SAPS  H11A19224  -0.044   0.391   6.873  0.0459 -0.6802 -2.4413
  170SAPS  H11B19225   0.002   0.231   6.885 -3.5145  1.3520  1.8135
  170SAPS     P19226   0.185   0.486   6.750  0.0451  0.1920 -0.2625
  170SAPS   O1319227   0.151   0.589   6.852  0.3243  0.7581  0.3986
  170SAPS   O1419228   0.321   0.485   6.694 -0.8627 -0.1095 -0.4061
  170SAPS   O1219229   0.157   0.349   6.824  0.4501  0.3654 -0.5314
  170SAPS   O1119230   0.071   0.494   6.643 -0.4204  0.1492 -0.5803
  170SAPS    C119231   0.018   0.385   6.571 -0.7767  0.6092 -0.3937
  170SAPS    HA19232   0.016   0.294   6.635 -0.6677  1.5615  0.9910
  170SAPS    HB19233  -0.091   0.401   6.556 -0.7871  2.3338  1.1608
  170SAPS    C219234   0.090   0.358   6.441  0.2755 -0.1096 -0.2658
  170SAPS    HS19235   0.029   0.285   6.383  0.7319 -0.6504 -0.0753
  170SAPS   O2119236   0.225   0.316   6.452 -0.0269 -0.1642 -0.2094
  170SAPS   C2119237   0.248   0.186   6.481 -0.0721  0.8615  0.0811
  170SAPS   O2219238   0.162   0.111   6.518 -0.5743 -0.1608 -0.0310
  170SAPS   C2219239   0.401   0.153   6.480  0.3067 -0.2211  0.2398
  170SAPS   H2R19240   0.445   0.253   6.460 -2.5869  1.0020 -0.5209
  170SAPS   H2S19241   0.435   0.110   6.576  0.3958  0.4701  0.5259
  170SAPS    C319242   0.059   0.493   6.364 -0.1845  0.5303 -0.6753
  170SAPS    HX19243   0.137   0.565   6.399 -0.3807  0.4788 -0.1224
  170SAPS    HY19244  -0.033   0.541   6.402  0.1188  0.3018  0.3927
  170SAPS   O3119245   0.064   0.490   6.219  0.5257  0.1985  0.2260
  170SAPS   C3119246  -0.055   0.448   6.167  0.1588  0.1107  0.8309
  170SAPS   O3219247  -0.154   0.420   6.228  0.1103  0.7941  0.2281
  170SAPS   C3219248  -0.036   0.455   6.015 -0.3246 -0.3423 -0.4892
  170SAPS   H2X19249   0.026   0.370   5.977  2.1703  0.6189  1.2008
  170SAPS   H2Y19250   0.035   0.537   5.994  0.1456 -0.5368  0.3056
  170SAPS   C2319251   0.432   0.034   6.388  0.1907 -0.6484 -1.1137
  170SAPS   H3R19252   0.367  -0.048   6.426  0.8976 -0.1289  1.3733
  170SAPS   H3S19253   0.534  -0.004   6.411 -0.5182 -1.1442  1.5895
  170SAPS   C2419254   0.411   0.068   6.247 -0.2991  0.2412  0.8774
  170SAPS   H4R19255   0.305   0.102   6.247 -0.9109 -1.5750  1.3947
  170SAPS   H4S19256   0.406  -0.024   6.185  0.4249 -0.1312  1.3606
  170SAPS   C2519257   0.516   0.163   6.189 -0.3172 -0.0309  0.2947
  170SAPS   H5R19258   0.621   0.132   6.204 -0.9198 -1.9105  0.9489
  170SAPS   C2619259   0.482   0.269   6.116 -0.7916  0.1046 -0.2072
  170SAPS   H6R19260   0.569   0.323   6.075 -1.4385  0.9959 -0.4072
  170SAPS   C2719261   0.336   0.303   6.092 -0.2758 -0.0196  0.7835
  170SAPS   H7R19262   0.273   0.319   6.182 -1.3125  0.2753  0.0396
  170SAPS   H7S19263   0.292   0.218   6.035 -1.2370  1.3569 -0.6307
  170SAPS   C2819264   0.325   0.426   6.013  0.1904  0.1371  0.3844
  170SAPS   H8R19265   0.295   0.512   6.075  0.5395  0.4573  0.1158
  170SAPS   C2919266   0.321   0.450   5.879  0.3897 -0.1442 -1.1292
  170SAPS   H9R19267   0.298   0.554   5.852 -1.9376 -1.0888 -3.1653
  170SAPS  C21019268   0.330   0.351   5.769  0.6916  0.8393 -0.0621
  170SAPS  H10R19269   0.226   0.315   5.751  0.6777  0.3171  0.9556
  170SAPS  H10S19270   0.387   0.259   5.795  0.1188  0.5450  0.1751
  170SAPS  C21119271   0.389   0.413   5.646 -0.1610 -0.1097  0.3946
  170SAPS  H11R19272   0.493   0.385   5.621  0.0177 -0.3747  1.3928
  170SAPS  C21219273   0.328   0.491   5.557  0.5055 -0.2407  0.1798
  170SAPS  H12R19274   0.376   0.525   5.464 -1.7172  1.4302 -0.4421
  170SAPS  C21319275   0.184   0.531   5.561  0.4549  0.5255  0.4971
  170SAPS  H13R19276   0.135   0.530   5.661 -0.2893  0.6217  0.1355
  170SAPS  H13S19277   0.118   0.458   5.510 -0.6508 -0.1689  2.7824
  170SAPS  C21419278   0.163   0.670   5.497 -0.6148 -0.5156 -0.0822
  170SAPS  H14R19279   0.151   0.743   5.578 -0.0653 -1.7875  1.1782
  170SAPS  C21519280   0.162   0.705   5.370 -0.4269  0.3068 -0.1093
  170SAPS  H15R19281   0.159   0.812   5.344  0.5566  0.2276 -0.6048
  170SAPS  C21619282   0.173   0.608   5.255 -0.0970  0.0253 -0.3510
  170SAPS  H16R19283   0.172   0.501   5.286  0.0982  0.3929  0.9446
  170SAPS  H16S19284   0.264   0.628   5.195 -0.6395 -0.4423 -1.3593
  170SAPS  C21719285   0.053   0.631   5.161  0.0326 -1.0424  0.1754
  170SAPS  H17R19286   0.074   0.566   5.073  0.4692  0.0051 -0.5102
  170SAPS  H17S19287   0.047   0.737   5.129  0.6392 -0.8589  0.6543
  170SAPS  C21819288  -0.089   0.593   5.199 -0.0820 -0.0859 -0.0279
  170SAPS  H18R19289  -0.118   0.646   5.292  0.8349 -1.5565  1.1183
  170SAPS  H18S19290  -0.113   0.485   5.208 -0.2190 -0.0934 -0.4294
  170SAPS  C21919291  -0.172   0.645   5.078 -0.1714  0.2191  0.5543
  170SAPS  H19R19292  -0.262   0.580   5.068  0.1926 -0.2823  0.4730
  170SAPS  H19S19293  -0.120   0.640   4.980  0.0220 -0.9808  0.7057
  170SAPS  C22019294  -0.223   0.781   5.097 -0.0573 -0.0218 -0.3670
  170SAPS  H20R19295  -0.303   0.782   5.174 -0.1166 -2.6713 -0.2999
  170SAPS  H20S19296  -0.267   0.828   5.006 -2.7383 -1.6565 -0.0137
  170SAPS  H20T19297  -0.141   0.846   5.135 -0.9388  0.4486  0.8027
  170SAPS   C3319298  -0.166   0.471   5.934 -0.3536 -0.2927  0.5541
  170SAPS   H3X19299  -0.223   0.564   5.955 -0.8102 -0.5074  0.2949
  170SAPS   H3Y19300  -0.234   0.391   5.969  0.3495 -0.5081  1.4846
  170SAPS   C3419301  -0.148   0.432   5.787  0.1399  0.4866 -0.6878
  170SAPS   H4X19302  -0.086   0.339   5.787  1.4774  1.3071  1.3590
  170SAPS   H4Y19303  -0.086   0.510   5.736  0.3547 -0.7611 -2.4252
  170SAPS   C3519304  -0.280   0.417   5.702 -0.2494  0.5265 -0.3039
  170SAPS   H5X19305  -0.322   0.519   5.691 -0.2838  0.6311  0.6458
  170SAPS   H5Y19306  -0.358   0.361   5.759 -0.0393  1.2773  0.7640
  170SAPS   C3619307  -0.265   0.357   5.559 -0.3716  0.2936 -0.3611
  170SAPS   H6X19308  -0.177   0.406   5.510  0.7524 -2.4456 -1.2665
  170SAPS   H6Y19309  -0.341   0.403   5.492  1.8877 -1.3114 -4.3791
  170SAPS   C3719310  -0.261   0.205   5.550 -0.1848 -0.3466 -0.5303
  170SAPS   H7X19311  -0.330   0.151   5.618  0.3435 -2.0822 -1.3015
  170SAPS   H7Y19312  -0.161   0.166   5.577  0.3321  0.5543 -1.1040
  170SAPS   C3819313  -0.295   0.165   5.409  0.4618 -0.1187  0.5005
  170SAPS   H8X19314  -0.403   0.190   5.403  0.5354  0.2048  0.5481
  170SAPS   H8Y19315  -0.279   0.055   5.404 -1.2353 -0.3204 -2.2684
  170SAPS   C3919316  -0.226   0.243   5.295 -0.8987  0.4167  0.2237
  170SAPS   H9X19317  -0.118   0.218   5.301 -0.8344  0.8820  1.2421
  170SAPS   H9Y19318  -0.242   0.351   5.317 -1.8515  0.7022 -1.6835
  170SAPS  C31019319  -0.279   0.204   5.155 -0.2498 -0.6951 -0.0877
  170SAPS  H10X19320  -0.222   0.261   5.079 -0.7364  0.7285  0.5790
  170SAPS  H10Y19321  -0.387   0.230   5.144 -0.0955 -0.2044 -0.4801
  170SAPS  C31119322  -0.253   0.058   5.127 -0.2002 -0.6559  0.3797
  170SAPS  H11X19323  -0.337   0.007   5.179 -1.8398 -0.5298 -2.0175
  170SAPS  H11Y19324  -0.155   0.021   5.163  0.9207  1.0899 -0.7372
  170SAPS  C31219325  -0.262   0.032   4.978 -0.6983  0.7239  0.9122
  170SAPS  H12X19326  -0.245  -0.076   4.961 -0.3003  0.7492  1.1364
  170SAPS  H12Y19327  -0.177   0.090   4.934 -2.0249  3.1335  1.3495
  170SAPS  C31319328  -0.402   0.065   4.908 -0.3215  0.0881 -0.9214
  170SAPS  H13X19329  -0.409   0.012   4.810  0.1176 -0.7118 -0.5298
  170SAPS  H13Y19330  -0.419   0.174   4.891  0.1557  0.3591  0.2489
  170SAPS  C31419331  -0.524   0.010   4.983  0.1165 -0.0157 -0.1702
  170SAPS  H14X19332  -0.517   0.057   5.083  0.3071 -0.0157 -0.1844
  170SAPS  H14Y19333  -0.512  -0.100   4.993  0.0948  0.0706  0.9562
  170SAPS  C31519334  -0.658   0.050   4.925  1.0700  0.2200  0.7994
  170SAPS  H15X19335  -0.667  -0.001   4.827 -1.8210  0.8053  0.6575
  170SAPS  H15Y19336  -0.652   0.161   4.916  1.1821  0.1720  0.2566
  170SAPS  C31619337  -0.778  -0.002   5.012  0.7176 -0.4404  0.4997
  170SAPS  H16X19338  -0.790   0.053   5.108 -2.2697  1.2788 -0.7357
  170SAPS  H16Y19339  -0.775  -0.108   5.046  0.2443 -0.1660  1.4519
  170SAPS  C31719340  -0.907   0.010   4.933 -0.0067 -0.1650  0.0940
  170SAPS  H17X19341  -0.989  -0.040   4.988 -0.2168 -1.5937 -1.4385
  170SAPS  H17Y19342  -0.900  -0.032   4.831 -0.8728 -0.0985  0.0006
  170SAPS  C31819343  -0.943   0.159   4.922  0.0344  0.5895 -0.5683
  170SAPS  H18X19344  -0.860   0.219   4.879  0.8495 -0.8333 -1.0334
  170SAPS  H18Y19345  -0.970   0.205   5.020  0.8755 -0.6887  0.2935
  170SAPS  H18Z19346  -1.037   0.167   4.864  0.2305  1.7269 -0.7647
  171SAPS     N19347   5.185   1.882   7.302  0.0664 -0.1697  0.3893
  171SAPS   HN119348   5.259   1.954   7.313  0.1320  0.0358 -1.1519
  171SAPS   HN219349   5.190   1.810   7.376  0.4662 -0.8637 -0.3064
  171SAPS   HN319350   5.186   1.842   7.206 -0.0990 -2.8169  1.4116
  171SAPS   C1219351   5.064   1.967   7.324 -0.1744  0.3861 -0.0860
  171SAPS  H12A19352   5.021   1.925   7.413 -2.8773 -1.7978 -2.2276
  171SAPS   C1319353   5.091   2.121   7.325 -0.7310  0.4270 -0.2630
  171SAPS  O13A19354   5.212   2.154   7.327 -0.5167  0.1746  0.0530
  171SAPS  O13B19355   5.006   2.205   7.361 -0.2418 -0.0888  0.5712
  171SAPS   C1119356   4.960   1.943   7.215 -0.1650  0.5829 -0.5561
  171SAPS  H11A19357   5.001   1.971   7.116 -0.9810 -0.5039 -1.2141
  171SAPS  H11B19358   4.874   2.004   7.249 -1.4281 -1.3099 -0.2515
  171SAPS     P19359   4.800   1.754   7.167  0.1304  0.0433 -0.0763
  171SAPS   O1319360   4.797   1.605   7.177 -0.4586  1.0136 -0.9493
  171SAPS   O1419361   4.685   1.824   7.228 -0.3397  0.5752 -0.3666
  171SAPS   O1219362   4.930   1.797   7.222  0.1785  0.6863 -0.5497
  171SAPS   O1119363   4.826   1.789   7.010  0.8546 -0.2239 -0.3144
  171SAPS    C119364   4.904   1.706   6.924  0.7038 -0.1348  0.1166
  171SAPS    HA19365   5.008   1.744   6.938  0.7053  0.8879 -2.1719
  171SAPS    HB19366   4.904   1.597   6.945  1.1469  0.1834  1.8853
  171SAPS    C219367   4.858   1.718   6.773  0.5646 -0.3418  0.6063
  171SAPS    HS19368   4.872   1.818   6.726 -1.6870 -1.3446 -2.5260
  171SAPS   O2119369   4.720   1.690   6.764 -0.4666 -0.0027 -0.4611
  171SAPS   C2119370   4.652   1.738   6.661 -0.0575 -0.2227 -0.1918
  171SAPS   O2219371   4.692   1.798   6.566 -0.5487 -0.6877  0.5618
  171SAPS   C2219372   4.502   1.711   6.696 -0.8409  1.0650  0.0014
  171SAPS   H2R19373   4.505   1.614   6.750  0.8660  0.4743 -1.0714
  171SAPS   H2S19374   4.463   1.792   6.762  0.4077 -0.7611  3.2354
  171SAPS    C319375   4.918   1.599   6.701  0.3214 -0.3856  0.1828
  171SAPS    HX19376   4.866   1.504   6.725 -1.1711  0.2275 -0.5058
  171SAPS    HY19377   5.017   1.567   6.740  0.7366  0.7300  0.0915
  171SAPS   O3119378   4.922   1.622   6.556  0.9503  0.3204 -0.2801
  171SAPS   C3119379   5.029   1.690   6.511  0.4425  0.3367 -0.6075
  171SAPS   O3219380   5.123   1.719   6.580 -0.3125 -0.4859 -0.4154
  171SAPS   C3219381   5.008   1.723   6.364 -0.1653  0.4499  0.2303
  171SAPS   H2X19382   5.064   1.814   6.332 -0.6451  0.7902  0.3403
  171SAPS   H2Y19383   4.899   1.732   6.343 -0.6596 -0.3060  2.2542
  171SAPS   C2319384   4.429   1.688   6.566  0.3941  0.1830  0.1303
  171SAPS   H3R19385   4.422   1.777   6.501 -2.3377  0.4910  0.7322
  171SAPS   H3S19386   4.323   1.679   6.598  0.8611 -0.5100  1.5842
  171SAPS   C2419387   4.463   1.556   6.492  0.0534  0.3537  0.1344
  171SAPS   H4R19388   4.469   1.473   6.566  1.1329 -1.3807 -1.8067
  171SAPS   H4S19389   4.565   1.550   6.450 -0.5614 -0.1669 -1.3406
  171SAPS   C2519390   4.357   1.519   6.397  0.1676  0.3571 -0.8225
  171SAPS   H5R19391   4.275   1.457   6.434 -2.1531  2.0269 -2.8530
  171SAPS   C2619392   4.356   1.544   6.264  0.2540 -0.3510  0.0151
  171SAPS   H6R19393   4.279   1.501   6.198 -0.6643  0.2321  0.6772
  171SAPS   C2719394   4.471   1.608   6.195 -0.0959  0.1928  0.8558
  171SAPS   H7R19395   4.544   1.527   6.174 -0.2279  0.3508 -0.2747
  171SAPS   H7S19396   4.520   1.682   6.261  1.0467  1.5320 -1.3923
  171SAPS   C2819397   4.426   1.667   6.062  0.1399 -0.2874 -0.8662
  171SAPS   H8R19398   4.387   1.768   6.081  0.9404 -0.4868  2.5239
  171SAPS   C2919399   4.427   1.630   5.933 -0.4690 -0.4974  0.6879
  171SAPS   H9R19400   4.375   1.694   5.861  2.2863  0.6269 -0.4387
  171SAPS  C21019401   4.493   1.510   5.879  0.1788 -0.1786 -0.3092
  171SAPS  H10R19402   4.479   1.418   5.939 -1.7963 -2.6436 -4.1023
  171SAPS  H10S19403   4.604   1.517   5.880  0.1927 -0.4311  0.4324
  171SAPS  C21119404   4.460   1.469   5.740 -0.4086  1.2154 -0.2851
  171SAPS  H11R19405   4.376   1.399   5.733 -0.8543  1.7625 -0.5311
  171SAPS  C21219406   4.515   1.506   5.624  1.0448 -0.0376  0.3093
  171SAPS  H12R19407   4.468   1.460   5.536  0.1211 -1.0884  1.3121
  171SAPS  C21319408   4.624   1.612   5.604  0.0028 -0.3862 -0.0603
  171SAPS  H13R19409   4.676   1.604   5.702  1.4182 -1.6016 -0.8705
  171SAPS  H13S19410   4.583   1.712   5.580 -1.1145 -0.6741  0.5391
  171SAPS  C21419411   4.727   1.565   5.508 -0.0763  0.6203 -0.8100
  171SAPS  H14R19412   4.773   1.470   5.540  0.2816  1.3785  1.0930
  171SAPS  C21519413   4.780   1.636   5.407  1.0620  0.0139  0.3678
  171SAPS  H15R19414   4.864   1.590   5.353 -1.6858 -3.3001 -1.4907
  171SAPS  C21619415   4.736   1.776   5.374  0.0949 -0.5257  0.4427
  171SAPS  H16R19416   4.777   1.839   5.455  0.3803  0.9371 -0.7760
  171SAPS  H16S19417   4.626   1.784   5.357  0.4145  0.3133 -1.6357
  171SAPS  C21719418   4.781   1.823   5.233 -0.6475 -0.7473 -0.2613
  171SAPS  H17R19419   4.748   1.928   5.214 -1.5201 -0.8963  0.3712
  171SAPS  H17S19420   4.738   1.763   5.150  0.4054 -2.9018  0.6728
  171SAPS  C21819421   4.937   1.814   5.208  0.0202 -0.0039  0.0255
  171SAPS  H18R19422   4.967   1.721   5.156  0.5726 -1.2837  2.4938
  171SAPS  H18S19423   4.976   1.810   5.312  0.2045  0.3688 -0.0266
  171SAPS  C21919424   4.993   1.944   5.142  0.1319  0.3425 -0.3676
  171SAPS  H19R19425   5.102   1.966   5.149  0.0828  0.2354  0.8958
  171SAPS  H19S19426   4.942   2.037   5.175  3.2935  2.2968 -0.5201
  171SAPS  C22019427   4.981   1.950   4.992 -0.1318 -0.6417  0.1366
  171SAPS  H20R19428   4.876   1.944   4.958  0.9128 -2.0359 -3.2690
  171SAPS  H20S19429   5.043   1.875   4.937 -0.5466  0.5847 -2.1131
  171SAPS  H20T19430   5.020   2.041   4.942 -0.6176 -1.2882 -1.4698
  171SAPS   C3319431   5.054   1.594   6.279 -0.3322 -0.4968 -0.2462
  171SAPS   H3X19432   5.043   1.494   6.326 -1.6925 -0.1560  0.2068
  171SAPS   H3Y19433   5.161   1.609   6.257 -0.4685  1.3008  0.1511
  171SAPS   C3419434   4.987   1.573   6.140  0.8088 -0.0725  0.0609
  171SAPS   H4X19435   4.879   1.554   6.153  0.9591 -0.6313  0.5447
  171SAPS   H4Y19436   5.034   1.481   6.098  1.2612 -0.4422  1.3370
  171SAPS   C3519437   5.013   1.679   6.038  0.3177 -0.2157  0.0765
  171SAPS   H5X19438   5.120   1.683   6.009  0.3565 -2.1941 -0.2022
  171SAPS   H5Y19439   4.977   1.777   6.076 -0.0483  0.5448 -2.0828
  171SAPS   C3619440   4.939   1.658   5.902  0.4335 -0.2895  0.4911
  171SAPS   H6X19441   4.838   1.694   5.930  1.8256  2.7626  2.0684
  171SAPS   H6Y19442   4.948   1.553   5.866 -0.1837 -1.4669  3.4761
  171SAPS   C3719443   4.993   1.747   5.789  0.1153  0.5597  0.3515
  171SAPS   H7X19444   5.000   1.852   5.825  1.1166  0.7835 -0.4539
  171SAPS   H7Y19445   4.916   1.740   5.710  1.2387  0.2770 -0.7574
  171SAPS   C3819446   5.125   1.702   5.729 -0.0705 -0.2037  0.2335
  171SAPS   H8X19447   5.121   1.596   5.697 -1.4043 -0.6551  1.7421
  171SAPS   H8Y19448   5.196   1.715   5.813  2.6898  0.2084 -2.0210
  171SAPS   C3919449   5.164   1.774   5.597 -0.3739  0.8024 -0.1126
  171SAPS   H9X19450   5.215   1.870   5.619  0.7795 -0.1341  1.4476
  171SAPS   H9Y19451   5.078   1.815   5.539  0.8573  1.9561 -1.1741
  171SAPS  C31019452   5.249   1.693   5.500 -0.6850 -0.0100 -0.2226
  171SAPS  H10X19453   5.193   1.610   5.450  0.1440 -1.3680  1.0335
  171SAPS  H10Y19454   5.325   1.642   5.563 -1.0802  3.4704  3.4952
  171SAPS  C31119455   5.311   1.776   5.391 -1.3833 -0.3643  0.6632
  171SAPS  H11X19456   5.393   1.845   5.421  0.6206 -2.0842 -0.5857
  171SAPS  H11Y19457   5.229   1.838   5.348 -0.1761 -0.0509 -1.2918
  171SAPS  C31219458   5.373   1.687   5.285  0.7294 -0.0763 -0.6211
  171SAPS  H12X19459   5.306   1.601   5.265  0.7395  0.0526 -1.2508
  171SAPS  H12Y19460   5.460   1.640   5.336 -0.8033  1.3400  3.7094
  171SAPS  C31319461   5.383   1.769   5.153  0.0835  0.0912 -0.9169
  171SAPS  H13X19462   5.490   1.761   5.125  0.5602  0.8479  0.5943
  171SAPS  H13Y19463   5.356   1.874   5.176  2.1714  0.4219  0.2206
  171SAPS  C31419464   5.311   1.718   5.028 -0.2624  0.2117 -0.4013
  171SAPS  H14X19465   5.202   1.732   5.047 -0.5829 -0.9622 -1.2261
  171SAPS  H14Y19466   5.317   1.607   5.021  0.1385  0.2715 -0.9612
  171SAPS  C31519467   5.348   1.776   4.897  0.2719  0.7172 -0.8803
  171SAPS  H15X19468   5.456   1.778   4.873  0.8560 -2.8302  0.8506
  171SAPS  H15Y19469   5.307   1.878   4.910 -0.0777  0.2043  3.4096
  171SAPS  C31619470   5.284   1.694   4.783  0.8450  0.3799 -0.4661
  171SAPS  H16X19471   5.179   1.674   4.812  0.6228 -0.4736 -1.7685
  171SAPS  H16Y19472   5.332   1.593   4.783  0.1282 -0.0224  1.5601
  171SAPS  C31719473   5.292   1.748   4.643  0.0617  0.3654  0.8582
  171SAPS  H17X19474   5.394   1.791   4.632  0.9178 -2.0880 -2.5953
  171SAPS  H17Y19475   5.213   1.827   4.643  1.0424  1.3770  1.1959
  171SAPS  C31819476   5.273   1.649   4.524  0.4541  0.1586 -0.6954
  171SAPS  H18X19477   5.287   1.700   4.426  0.4597 -1.2545 -1.4597
  171SAPS  H18Y19478   5.171   1.607   4.514  0.2569 -0.0876  1.8304
  171SAPS  H18Z19479   5.353   1.572   4.533  1.7380  1.4176 -0.9875
  172SAPS     N19480   6.422   0.419   7.186  0.3624 -0.7542 -0.4903
  172SAPS   HN119481   6.484   0.352   7.237  1.2403  0.5755  0.2362
  172SAPS   HN219482   6.375   0.380   7.102 -1.1613 -0.6255  0.2638
  172SAPS   HN319483   6.482   0.493   7.144  0.2380 -0.4589 -0.1489
  172SAPS   C1219484   6.312   0.486   7.268  0.3250 -0.5770  0.1411
  172SAPS  H12A19485   6.268   0.406   7.326 -0.2381  1.4726  2.7162
  172SAPS   C1319486   6.355   0.582   7.373  0.0744  0.3871  0.3892
  172SAPS  O13A19487   6.471   0.634   7.374  0.4026 -0.8275  0.1198
  172SAPS  O13B19488   6.278   0.581   7.475  0.0451 -0.7256  0.1967
  172SAPS   C1119489   6.209   0.554   7.168 -0.1411  0.9943  0.0957
  172SAPS  H11A19490   6.131   0.608   7.225 -0.8598  2.0230 -1.7737
  172SAPS  H11B19491   6.148   0.475   7.118  2.3344 -0.4546 -0.8692
  172SAPS     P19492   6.168   0.749   6.995  0.0594 -0.4294 -0.1237
  172SAPS   O1319493   6.081   0.817   7.095  0.0563  0.0961 -0.7842
  172SAPS   O1419494   6.270   0.823   6.911  0.3865  0.1657 -0.4911
  172SAPS   O1219495   6.255   0.640   7.064 -0.2280 -0.0928 -0.9380
  172SAPS   O1119496   6.061   0.670   6.903 -0.2464 -0.0142  0.2989
  172SAPS    C119497   6.097   0.557   6.828 -0.2468 -0.2700  0.3982
  172SAPS    HA19498   6.156   0.489   6.893  0.1910  0.6731  1.0035
  172SAPS    HB19499   6.005   0.499   6.806 -1.0264  0.2587  2.0834
  172SAPS    C219500   6.181   0.581   6.699  0.1784 -0.2322 -0.1249
  172SAPS    HS19501   6.279   0.619   6.737  0.2701  0.2984 -0.8574
  172SAPS   O2119502   6.114   0.671   6.614 -0.0883 -0.1835  0.7078
  172SAPS   C2119503   6.180   0.719   6.497 -0.6218 -0.2677 -0.9633
  172SAPS   O2219504   6.298   0.706   6.475  0.1739  0.3273  0.1593
  172SAPS   C2219505   6.087   0.817   6.425 -0.2475  0.1962  0.0703
  172SAPS   H2R19506   5.994   0.831   6.484  0.2879 -2.7526  1.7921
  172SAPS   H2S19507   6.130   0.919   6.417 -0.4814  0.4013  1.2969
  172SAPS    C319508   6.219   0.448   6.632 -0.1265  0.5106  0.1420
  172SAPS    HX19509   6.253   0.379   6.712 -1.9964 -1.1312 -0.3895
  172SAPS    HY19510   6.301   0.466   6.558  0.8144 -1.0220  0.7574
  172SAPS   O3119511   6.095   0.394   6.577 -0.0123  0.3384 -0.0543
  172SAPS   C3119512   6.117   0.283   6.506  0.0456  0.1791  0.0769
  172SAPS   O3219513   6.222   0.216   6.500  0.4138 -0.2276  0.3834
  172SAPS   C3219514   5.975   0.246   6.454 -0.2939 -0.3312 -0.4070
  172SAPS   H2X19515   5.955   0.315   6.370 -2.5739 -0.4420 -0.0080
  172SAPS   H2Y19516   5.900   0.263   6.534  0.2333  2.9830 -0.5019
  172SAPS   C2319517   6.041   0.769   6.292 -0.1354  0.0763  0.5166
  172SAPS   H3R19518   5.932   0.790   6.283  0.1169  0.6108 -1.8629
  172SAPS   H3S19519   6.051   0.661   6.266  1.2757  0.1495  0.7110
  172SAPS   C2419520   6.100   0.855   6.178 -0.3213 -0.7369 -0.5908
  172SAPS   H4R19521   6.072   0.961   6.199  3.7630  0.1894  1.0333
  172SAPS   H4S19522   6.046   0.829   6.084  1.5285  1.2866 -2.3188
  172SAPS   C2519523   6.244   0.830   6.155  0.6188 -0.4341 -0.3692
  172SAPS   H5R19524   6.286   0.745   6.211  0.6045 -0.4582 -0.3957
  172SAPS   C2619525   6.327   0.912   6.091  0.1914  0.1771  0.0783
  172SAPS   H6R19526   6.433   0.882   6.094  0.1210 -0.0565  3.0793
  172SAPS   C2719527   6.284   1.040   6.025 -0.2519  0.4643  0.2581
  172SAPS   H7R19528   6.191   1.076   6.074  0.6959 -0.3509  2.8765
  172SAPS   H7S19529   6.265   1.026   5.917  3.5347 -0.9767 -0.3934
  172SAPS   C2819530   6.390   1.151   6.043  0.1987  0.5519  0.7500
  172SAPS   H8R19531   6.405   1.180   6.148  0.4138  1.3831  0.4981
  172SAPS   C2919532   6.473   1.187   5.947 -1.1092 -0.2443  0.0047
  172SAPS   H9R19533   6.533   1.274   5.977 -1.6466 -0.2047  1.0075
  172SAPS  C21019534   6.476   1.142   5.803 -0.2794 -0.5655  0.0534
  172SAPS  H10R19535   6.430   1.041   5.803 -0.4970 -0.4655 -0.6686
  172SAPS  H10S19536   6.582   1.131   5.770  0.0062  2.0784 -0.0728
  172SAPS  C21119537   6.400   1.246   5.714  0.6408  0.2031 -0.0822
  172SAPS  H11R19538   6.292   1.255   5.731  0.4946 -0.7718 -0.4801
  172SAPS  C21219539   6.445   1.314   5.610  0.5713  0.2621  0.2256
  172SAPS  H12R19540   6.382   1.379   5.548  0.2325 -0.8381 -0.6278
  172SAPS  C21319541   6.591   1.307   5.560  0.0446  0.8476  0.7179
  172SAPS  H13R19542   6.651   1.316   5.654 -0.5796  0.8726  1.1225
  172SAPS  H13S19543   6.609   1.398   5.499 -0.1812  2.2002  2.5615
  172SAPS  C21419544   6.622   1.180   5.492  0.7744 -0.0187  0.0751
  172SAPS  H14R19545   6.546   1.101   5.481 -0.1106  0.8033  0.1750
  172SAPS  C21519546   6.745   1.143   5.477 -1.1973  0.3657 -0.9089
  172SAPS  H15R19547   6.767   1.051   5.420 -0.1363 -0.0916  0.1967
  172SAPS  C21619548   6.871   1.224   5.497  0.3050 -0.5634 -0.2060
  172SAPS  H16R19549   6.921   1.175   5.583 -0.8460  0.4691  1.0932
  172SAPS  H16S19550   6.855   1.333   5.511  0.6532 -0.4948 -0.3433
  172SAPS  C21719551   6.975   1.225   5.380  0.2678  0.3015 -0.2403
  172SAPS  H17R19552   7.062   1.280   5.423  0.4729 -2.3324  3.1755
  172SAPS  H17S19553   6.932   1.285   5.298 -1.0962  0.0750  0.2794
  172SAPS  C21819554   7.039   1.086   5.344  0.8358  0.5299  0.4148
  172SAPS  H18R19555   6.952   1.022   5.320  1.5252  0.4786 -2.1657
  172SAPS  H18S19556   7.094   1.054   5.436  0.4113 -0.3429  0.3753
  172SAPS  C21919557   7.121   1.103   5.221 -0.2555 -0.7180  0.0757
  172SAPS  H19R19558   7.179   1.010   5.201 -1.0855 -1.1682 -0.3097
  172SAPS  H19S19559   7.185   1.192   5.233  1.1583 -1.5174 -1.1725
  172SAPS  C22019560   7.033   1.111   5.093 -0.4349 -0.2828  0.4338
  172SAPS  H20R19561   6.985   1.211   5.088 -0.1213 -0.1623 -0.1805
  172SAPS  H20S19562   6.947   1.040   5.093 -1.2162  0.6254  1.5015
  172SAPS  H20T19563   7.108   1.115   5.011  0.8877  1.4015  1.6598
  172SAPS   C3319564   5.950   0.100   6.414  0.1800  0.0932 -0.8537
  172SAPS   H3X19565   5.840   0.082   6.406 -0.1278  0.6763  1.4644
  172SAPS   H3Y19566   5.975   0.029   6.495  2.6106 -0.7050 -2.2228
  172SAPS   C3419567   6.024   0.044   6.287 -0.6838  0.7258  0.0809
  172SAPS   H4X19568   6.133   0.032   6.308 -0.4314  2.5236 -0.1049
  172SAPS   H4Y19569   6.022   0.125   6.212 -0.9611  0.6869  0.0450
  172SAPS   C3519570   5.959  -0.079   6.223 -0.2132  0.3004 -0.7598
  172SAPS   H5X19571   5.868  -0.125   6.268 -0.0341 -0.1207 -0.8310
  172SAPS   H5Y19572   6.036  -0.158   6.230  0.3214  0.3612 -4.2563
  172SAPS   C3619573   5.932  -0.073   6.076 -0.1165  0.8035 -0.1340
  172SAPS   H6X19574   6.008  -0.011   6.024 -0.6090  2.9622  1.5361
  172SAPS   H6Y19575   5.840  -0.010   6.070 -1.2768 -0.7612  0.7876
  172SAPS   C3719576   5.911  -0.210   6.017  0.2886  0.1205 -0.4859
  172SAPS   H7X19577   5.804  -0.239   6.029  0.2186  0.8302  0.7492
  172SAPS   H7Y19578   5.969  -0.288   6.070  0.7110  0.2389 -0.7737
  172SAPS   C3819579   5.945  -0.215   5.864 -0.1960 -0.1447 -0.4369
  172SAPS   H8X19580   6.049  -0.176   5.858 -0.3586  0.5607  0.8096
  172SAPS   H8Y19581   5.878  -0.145   5.809  1.3303  2.7320  1.1372
  172SAPS   C3919582   5.924  -0.353   5.814 -0.0091 -0.0396  0.1767
  172SAPS   H9X19583   5.816  -0.373   5.795 -0.3266  0.1730  1.6204
  172SAPS   H9Y19584   5.946  -0.427   5.893 -0.0510  0.3316  0.5372
  172SAPS  C31019585   6.005  -0.385   5.685 -1.3048  0.0034  0.1564
  172SAPS  H10X19586   5.957  -0.315   5.613 -0.7900  1.2967  1.0341
  172SAPS  H10Y19587   5.985  -0.490   5.656 -1.5948 -0.3059  1.4143
  172SAPS  C31119588   6.156  -0.362   5.697  0.3689 -0.2677 -0.4363
  172SAPS  H11X19589   6.174  -0.255   5.720  1.5742 -0.4741 -0.3238
  172SAPS  H11Y19590   6.206  -0.372   5.598  0.1990 -0.3954 -0.5098
  172SAPS  C31219591   6.224  -0.445   5.805  0.1926  0.8719 -0.3164
  172SAPS  H12X19592   6.228  -0.550   5.770 -1.4760  0.7496 -0.2186
  172SAPS  H12Y19593   6.166  -0.439   5.900  1.9432 -2.8423  1.1822
  172SAPS  C31319594   6.366  -0.390   5.836  0.2117 -0.1741 -0.4242
  172SAPS  H13X19595   6.363  -0.291   5.887 -0.5809 -0.2870 -0.2281
  172SAPS  H13Y19596   6.425  -0.378   5.743  0.5259 -2.6790 -0.6029
  172SAPS  C31419597   6.431  -0.493   5.924  0.8412 -0.8850 -0.0153
  172SAPS  H14X19598   6.437  -0.591   5.873 -1.6249 -0.4973 -1.1785
  172SAPS  H14Y19599   6.373  -0.513   6.017 -0.5396 -4.0734 -1.4360
  172SAPS  C31519600   6.563  -0.448   5.974  0.2168 -0.0791  0.6207
  172SAPS  H15X19601   6.554  -0.340   5.998  1.5725 -0.1408  1.4855
  172SAPS  H15Y19602   6.630  -0.462   5.886  0.1474 -1.3341  0.7582
  172SAPS  C31619603   6.599  -0.524   6.094 -0.6388  0.4599 -0.1507
  172SAPS  H16X19604   6.521  -0.512   6.172 -3.1794 -1.0762 -2.2775
  172SAPS  H16Y19605   6.610  -0.632   6.074  2.2302  0.4610  0.9164
  172SAPS  C31719606   6.733  -0.483   6.157  0.0150  0.4998 -0.7401
  172SAPS  H17X19607   6.739  -0.546   6.248  0.1202  1.5817  0.0167
  172SAPS  H17Y19608   6.736  -0.376   6.186  0.7308  0.4174 -0.4775
  172SAPS  C31819609   6.848  -0.528   6.068 -0.2569 -0.1153 -0.2202
  172SAPS  H18X19610   6.942  -0.526   6.127 -0.6785 -0.3743  0.4744
  172SAPS  H18Y19611   6.871  -0.472   5.974  2.7145 -2.1823 -0.8562
  172SAPS  H18Z19612   6.839  -0.635   6.038  1.0025 -0.2209 -0.2779
  173SAPS     N19613   2.945   3.903   2.659 -0.5439 -0.5433 -0.3285
  173SAPS   HN119614   2.909   3.982   2.600  0.1062 -1.4474 -1.9868
  173SAPS   HN219615   2.904   3.903   2.755  0.5810 -2.8627  0.2159
  173SAPS   HN319616   3.048   3.912   2.671 -0.8741  2.1074  1.4886
  173SAPS   C1219617   2.918   3.770   2.603  0.4356  0.0130  0.2482
  173SAPS  H12A19618   2.815   3.743   2.615  1.1315 -4.2146 -1.3787
  173SAPS   C1319619   2.948   3.765   2.450 -0.6747 -0.2563 -0.7660
  173SAPS  O13A19620   2.954   3.874   2.381  0.7200  0.4447 -0.4701
  173SAPS  O13B19621   2.911   3.655   2.398  0.5390  0.2800 -0.2021
  173SAPS   C1119622   3.014   3.674   2.675  0.8314 -0.1718 -0.4730
  173SAPS  H11A19623   3.009   3.570   2.635 -1.3227  0.4283 -1.9076
  173SAPS  H11B19624   2.982   3.663   2.781  0.4897  1.5133 -0.3728
  173SAPS     P19625   3.278   3.687   2.767  0.3904  0.1834  0.5943
  173SAPS   O1319626   3.336   3.553   2.736  0.1057  0.4681 -0.4785
  173SAPS   O1419627   3.370   3.801   2.768 -0.0987  0.1429 -0.2994
  173SAPS   O1219628   3.152   3.721   2.670  0.4474 -0.5516 -0.5618
  173SAPS   O1119629   3.200   3.682   2.908  0.4047  0.7385 -0.0481
  173SAPS    C119630   3.130   3.787   2.972  0.1468 -1.2653 -0.1167
  173SAPS    HA19631   3.085   3.861   2.903 -1.3902  0.0244  2.1227
  173SAPS    HB19632   3.036   3.754   3.022  0.9339  0.2668  2.5377
  173SAPS    C219633   3.222   3.869   3.070 -0.3273  0.2482 -0.4226
  173SAPS    HS19634   3.319   3.900   3.025  1.6267 -0.3997  2.9659
  173SAPS   O2119635   3.240   3.773   3.186 -0.3969  0.0424  0.3089
  173SAPS   C2119636   3.370   3.747   3.213  0.5033  0.0887 -0.0136
  173SAPS   O2219637   3.461   3.781   3.143 -0.6856  0.1252  0.0527
  173SAPS   C2219638   3.380   3.668   3.347  0.5499 -0.4320  0.5330
  173SAPS   H2R19639   3.275   3.644   3.373  0.3676  0.0142  0.2137
  173SAPS   H2S19640   3.439   3.574   3.335 -0.3598 -0.8198 -1.1151
  173SAPS    C319641   3.143   3.990   3.126  0.1636 -0.2407  0.3012
  173SAPS    HX19642   3.050   3.956   3.174 -0.1291  0.8335  0.5341
  173SAPS    HY19643   3.104   4.051   3.042 -0.2077 -1.0671 -0.1359
  173SAPS   O3119644   3.225   4.066   3.219  0.3520 -0.2152  0.9809
  173SAPS   C3119645   3.258   4.193   3.185 -0.6109 -0.0619 -0.4339
  173SAPS   O3219646   3.230   4.245   3.081 -0.8894 -0.0868 -0.1417
  173SAPS   C3219647   3.336   4.257   3.299 -0.9819 -0.2618  1.0147
  173SAPS   H2X19648   3.439   4.218   3.290 -0.5639  0.8260  0.9333
  173SAPS   H2Y19649   3.288   4.242   3.398  1.1196  1.3024  2.3585
  173SAPS   C2319650   3.431   3.760   3.458 -0.2541 -0.2689 -0.4766
  173SAPS   H3R19651   3.368   3.852   3.462 -0.9846 -0.7504 -0.5598
  173SAPS   H3S19652   3.535   3.790   3.436 -0.3141  0.4223  0.1199
  173SAPS   C2419653   3.433   3.698   3.599 -0.3401  0.0087  0.2331
  173SAPS   H4R19654   3.339   3.646   3.629 -0.0378 -0.8721 -0.3139
  173SAPS   H4S19655   3.451   3.778   3.674  1.6851  0.9814 -1.1985
  173SAPS   C2519656   3.530   3.579   3.623 -0.1209 -0.0287  0.2742
  173SAPS   H5R19657   3.504   3.495   3.557 -1.3541  0.1871  0.4467
  173SAPS   C2619658   3.619   3.552   3.724  0.0621 -0.6979  0.7700
  173SAPS   H6R19659   3.682   3.461   3.724  0.4682 -0.4817  2.9834
  173SAPS   C2719660   3.673   3.655   3.821  0.4056  0.4590 -0.7724
  173SAPS   H7R19661   3.641   3.626   3.924  1.3155  0.4303 -0.4889
  173SAPS   H7S19662   3.626   3.754   3.805  0.2351  0.9469  2.1084
  173SAPS   C2819663   3.822   3.663   3.799  0.0164  0.1652 -0.5785
  173SAPS   H8R19664   3.866   3.658   3.699 -1.7480  2.5804 -1.5816
  173SAPS   C2919665   3.904   3.679   3.912 -0.3467 -0.3839 -0.4710
  173SAPS   H9R19666   4.012   3.683   3.893 -0.1625  3.0274  0.5207
  173SAPS  C21019667   3.863   3.693   4.057  0.1063 -0.0625 -0.2461
  173SAPS  H10R19668   3.763   3.742   4.063  0.7101  1.2030 -0.3049
  173SAPS  H10S19669   3.930   3.771   4.097 -1.0684  1.2634 -0.7662
  173SAPS  C21119670   3.854   3.562   4.136  0.4288  0.0527 -0.0538
  173SAPS  H11R19671   3.823   3.471   4.083  0.3469  0.1346 -0.1479
  173SAPS  C21219672   3.863   3.553   4.268  0.0620 -0.2351  0.3358
  173SAPS  H12R19673   3.849   3.455   4.315 -3.7891 -1.4454 -2.7792
  173SAPS  C21319674   3.896   3.662   4.377 -0.1822  0.1464 -0.2770
  173SAPS  H13R19675   3.799   3.702   4.415 -0.7154 -3.0947  2.2104
  173SAPS  H13S19676   3.948   3.743   4.322  0.8547 -1.1835 -1.3273
  173SAPS  C21419677   3.975   3.632   4.501  0.1374  0.6846 -0.7599
  173SAPS  H14R19678   4.079   3.668   4.498  0.5738 -0.5480 -1.2494
  173SAPS  C21519679   3.947   3.547   4.603 -0.3532 -0.4717 -0.1230
  173SAPS  H15R19680   4.011   3.547   4.692  0.0984 -2.0307 -0.4236
  173SAPS  C21619681   3.817   3.467   4.617  0.2037  0.3949 -0.6249
  173SAPS  H16R19682   3.858   3.371   4.580  1.1766  0.0154  1.2834
  173SAPS  H16S19683   3.744   3.515   4.549 -0.0728  1.9010  0.6616
  173SAPS  C21719684   3.768   3.456   4.764  1.0320  0.1950 -0.4941
  173SAPS  H17R19685   3.848   3.416   4.829 -0.0991 -0.8584  0.2809
  173SAPS  H17S19686   3.683   3.385   4.758  0.6007  0.4752  1.6034
  173SAPS  C21819687   3.721   3.586   4.820  0.5020  0.8176 -0.4668
  173SAPS  H18R19688   3.634   3.621   4.760 -0.1306 -1.4083 -0.9296
  173SAPS  H18S19689   3.804   3.659   4.805  1.4805 -0.0105  0.7330
  173SAPS  C21919690   3.678   3.563   4.968  0.2690 -0.0923  0.4218
  173SAPS  H19R19691   3.772   3.547   5.025 -0.3094  2.6074  2.3374
  173SAPS  H19S19692   3.619   3.470   4.978 -0.9466  0.1510 -3.0403
  173SAPS  C22019693   3.589   3.677   5.040  0.7831 -0.6023 -0.5342
  173SAPS  H20R19694   3.585   3.659   5.150  2.1176  2.1084  0.0373
  173SAPS  H20S19695   3.483   3.675   5.006 -0.3831  1.7389  2.5006
  173SAPS  H20T19696   3.637   3.776   5.030 -0.0726  0.3244  3.1895
  173SAPS   C3319697   3.348   4.412   3.283 -0.7578 -0.1106  0.9484
  173SAPS   H3X19698   3.365   4.439   3.177 -0.8769 -0.9706  0.7009
  173SAPS   H3Y19699   3.445   4.438   3.332 -0.6128 -0.9213  1.1026
  173SAPS   C3419700   3.220   4.488   3.323  0.4521 -0.1334  0.5835
  173SAPS   H4X19701   3.127   4.441   3.285  0.2367 -0.7405  1.8247
  173SAPS   H4Y19702   3.232   4.592   3.285  0.7938 -0.3164  0.1828
  173SAPS   C3519703   3.207   4.509   3.474 -0.0628  0.5451 -0.1751
  173SAPS   H5X19704   3.303   4.553   3.508  0.4807 -0.6419 -0.1612
  173SAPS   H5Y19705   3.210   4.413   3.529  2.2862  1.2592  1.0554
  173SAPS   C3619706   3.083   4.595   3.516  0.1206  0.3870  0.3013
  173SAPS   H6X19707   2.983   4.563   3.480  0.0886  1.7957 -0.9747
  173SAPS   H6Y19708   3.097   4.698   3.477 -1.1347  0.6605  0.5101
  173SAPS   C3719709   3.083   4.607   3.669  0.4945 -0.1508  0.0458
  173SAPS   H7X19710   3.169   4.662   3.714  1.3535 -0.9936 -0.5298
  173SAPS   H7Y19711   3.075   4.506   3.714 -0.7281  0.5485  1.5177
  173SAPS   C3819712   2.947   4.676   3.713  0.0401  0.7026 -0.1293
  173SAPS   H8X19713   2.860   4.634   3.658 -0.3136  1.4300 -0.1432
  173SAPS   H8Y19714   2.945   4.784   3.686 -0.3711  0.3711 -1.4914
  173SAPS   C3919715   2.918   4.665   3.864  1.2652 -0.3035  0.4449
  173SAPS   H9X19716   2.868   4.569   3.887  1.3060 -0.7311 -1.1572
  173SAPS   H9Y19717   2.841   4.741   3.889  3.3440  2.1368 -0.1060
  173SAPS  C31019718   3.035   4.697   3.951 -0.2178  0.6821  0.7337
  173SAPS  H10X19719   3.062   4.802   3.930 -0.6642  0.5443 -0.5866
  173SAPS  H10Y19720   3.119   4.625   3.940  0.4703  1.6019 -0.1237
  173SAPS  C31119721   2.991   4.679   4.097  0.2767  1.3463  1.0152
  173SAPS  H11X19722   2.993   4.572   4.126 -0.2580  1.7452  2.6562
  173SAPS  H11Y19723   2.888   4.716   4.115 -0.1029  0.0948  1.5242
  173SAPS  C31219724   3.074   4.758   4.203 -0.3241  0.3069 -0.1223
  173SAPS  H12X19725   3.059   4.859   4.159  0.5969 -0.2833 -1.8953
  173SAPS  H12Y19726   3.181   4.726   4.197  0.1257  1.3360  1.6240
  173SAPS  C31319727   3.023   4.756   4.351 -0.3300 -0.3343  0.0871
  173SAPS  H13X19728   3.012   4.647   4.366 -0.9923 -0.5219 -1.5452
  173SAPS  H13Y19729   2.925   4.806   4.369  0.9307  1.6123  2.0892
  173SAPS  C31419730   3.126   4.818   4.437 -0.0770 -0.1178 -0.0181
  173SAPS  H14X19731   3.126   4.926   4.408  3.3626  0.7318  2.5336
  173SAPS  H14Y19732   3.230   4.787   4.413 -0.8004 -0.6118 -3.0240
  173SAPS  C31519733   3.081   4.818   4.586 -0.4920 -0.2300  0.1523
  173SAPS  H15X19734   2.971   4.816   4.573 -0.5047  0.4995  0.1050
  173SAPS  H15Y19735   3.138   4.905   4.628 -0.3524 -0.4955  0.5158
  173SAPS  C31619736   3.128   4.684   4.653 -0.6908  0.2163  0.6316
  173SAPS  H16X19737   3.239   4.682   4.655 -0.6413 -1.6647 -0.4748
  173SAPS  H16Y19738   3.091   4.598   4.592 -0.0137  1.4275 -1.6257
  173SAPS  C31719739   3.080   4.666   4.797 -0.7197  0.0034 -0.0641
  173SAPS  H17X19740   2.970   4.683   4.803 -0.9919 -1.0736 -1.4886
  173SAPS  H17Y19741   3.135   4.736   4.864  0.4938 -0.3292 -0.6778
  173SAPS  C31819742   3.122   4.524   4.851  0.2573 -0.3157  0.5753
  173SAPS  H18X19743   3.232   4.514   4.863  0.1540 -0.2894  1.6482
  173SAPS  H18Y19744   3.082   4.431   4.805 -0.2469 -0.9794  2.2971
  173SAPS  H18Z19745   3.078   4.514   4.952  0.0715  0.6859  0.6076
  174SAPS     N19746   2.435   0.097   2.446 -0.3252 -0.2980  0.6494
  174SAPS   HN119747   2.453   0.136   2.351 -1.3630  1.0469  0.9747
  174SAPS   HN219748   2.486   0.155   2.515  0.1324 -0.5046  0.4850
  174SAPS   HN319749   2.469  -0.001   2.456 -0.8203 -0.4248  1.1057
  174SAPS   C1219750   2.284   0.095   2.464  0.1578  0.0572 -0.6057
  174SAPS  H12A19751   2.248   0.167   2.392  1.7118 -1.3591 -2.9337
  174SAPS   C1319752   2.219  -0.041   2.435 -0.1324  0.0173  0.1786
  174SAPS  O13A19753   2.300  -0.127   2.381 -0.3004 -0.7548 -0.4830
  174SAPS  O13B19754   2.118  -0.082   2.489 -0.0756 -0.3782 -0.2562
  174SAPS   C1119755   2.257   0.128   2.606 -0.0632  0.1367 -0.2962
  174SAPS  H11A19756   2.311   0.058   2.674 -1.9943 -0.0240  1.1425
  174SAPS  H11B19757   2.152   0.100   2.629  0.7828 -1.9744  1.3842
  174SAPS     P19758   2.181   0.375   2.663  0.0435  0.0551 -0.1608
  174SAPS   O1319759   2.242   0.507   2.658  0.5945 -0.1469  0.3548
  174SAPS   O1419760   2.067   0.353   2.576 -0.0493 -0.6138  0.2032
  174SAPS   O1219761   2.295   0.264   2.637  0.3417 -0.0128 -0.0052
  174SAPS   O1119762   2.130   0.347   2.802 -0.3922 -0.2624  0.3835
  174SAPS    C119763   2.210   0.258   2.891  0.1535  0.2436 -0.0920
  174SAPS    HA19764   2.167   0.156   2.897  1.9342 -0.5627 -0.4088
  174SAPS    HB19765   2.320   0.264   2.876  0.2097  1.0768  0.5634
  174SAPS    C219766   2.209   0.318   3.037  0.8740 -0.1930 -0.0717
  174SAPS    HS19767   2.296   0.269   3.086  0.7750 -0.5093 -0.2071
  174SAPS   O2119768   2.086   0.288   3.107 -0.4319  0.6006  0.4655
  174SAPS   C2119769   2.079   0.158   3.144 -0.0866 -0.5430 -0.0629
  174SAPS   O2219770   2.162   0.072   3.121  0.0214  0.8421 -0.2376
  174SAPS   C2219771   1.958   0.136   3.237  0.0905  0.4420 -0.3738
  174SAPS   H2R19772   1.874   0.096   3.175 -1.5858  2.1422  0.7196
  174SAPS   H2S19773   1.989   0.059   3.311 -1.8174 -1.9172 -1.8563
  174SAPS    C319774   2.227   0.469   3.041 -0.9347  0.8628  0.0368
  174SAPS    HX19775   2.143   0.513   2.983 -2.2669  1.2023  2.1310
  174SAPS    HY19776   2.314   0.484   2.974  0.9481  0.3269  2.2384
  174SAPS   O3119777   2.235   0.521   3.176 -0.7177 -0.2983 -0.5535
  174SAPS   C3119778   2.296   0.646   3.177 -0.2365 -0.8053 -0.5778
  174SAPS   O3219779   2.346   0.694   3.076 -0.2346 -0.0938 -0.2409
  174SAPS   C3219780   2.287   0.724   3.309 -0.6180 -0.1208  0.1567
  174SAPS   H2X19781   2.273   0.828   3.275  0.3732  0.5507  1.6954
  174SAPS   H2Y19782   2.383   0.720   3.365  0.2826  1.9012 -1.1359
  174SAPS   C2319783   1.920   0.263   3.322  0.2087 -0.3846 -0.3169
  174SAPS   H3R19784   1.820   0.239   3.363 -0.6753  1.6091 -1.2182
  174SAPS   H3S19785   1.910   0.350   3.254 -0.1072 -0.8158 -0.8310
  174SAPS   C2419786   2.019   0.301   3.437  0.2803 -0.4343  0.6622
  174SAPS   H4R19787   2.063   0.395   3.396  0.2100 -0.3848  0.7008
  174SAPS   H4S19788   2.103   0.229   3.431 -1.4249 -2.4417  0.0717
  174SAPS   C2519789   1.976   0.341   3.577  0.3454  0.3282 -0.2536
  174SAPS   H5R19790   1.907   0.427   3.580  0.3860  0.3682 -0.4794
  174SAPS   C2619791   2.004   0.276   3.694  0.6250  0.7576  0.1049
  174SAPS   H6R19792   1.968   0.320   3.788  1.9019 -1.2817  1.6179
  174SAPS   C2719793   2.074   0.144   3.717  0.5351 -1.0031  0.3780
  174SAPS   H7R19794   2.112   0.135   3.821  1.0829  0.1334  0.2892
  174SAPS   H7S19795   2.169   0.148   3.659  0.3904  0.5349  0.2109
  174SAPS   C2819796   2.015   0.017   3.668  0.6674 -0.1411  0.0914
  174SAPS   H8R19797   1.954   0.018   3.576 -1.6845  0.8553  1.5933
  174SAPS   C2919798   2.049  -0.105   3.722 -0.4204 -0.1054  0.6206
  174SAPS   H9R19799   2.006  -0.193   3.672  0.8064 -0.1393 -0.4414
  174SAPS  C21019800   2.160  -0.135   3.817 -0.1197 -0.1731  0.3348
  174SAPS  H10R19801   2.117  -0.186   3.906  0.7815 -0.9160  0.3584
  174SAPS  H10S19802   2.219  -0.045   3.845 -0.4096  0.5892 -1.3749
  174SAPS  C21119803   2.255  -0.240   3.755 -0.3393  0.4942  0.5095
  174SAPS  H11R19804   2.235  -0.257   3.648  0.0577  1.9727  0.1772
  174SAPS  C21219805   2.345  -0.315   3.813 -0.2141  0.3104 -0.3982
  174SAPS  H12R19806   2.389  -0.402   3.764 -1.4102  0.2103 -1.3410
  174SAPS  C21319807   2.388  -0.299   3.954  0.7020  0.6555 -0.6476
  174SAPS  H13R19808   2.408  -0.192   3.976  2.2085  0.4862 -1.0826
  174SAPS  H13S19809   2.485  -0.353   3.961  0.2756 -0.0494 -0.1447
  174SAPS  C21419810   2.291  -0.350   4.058  0.0273  0.2344 -0.0211
  174SAPS  H14R19811   2.200  -0.396   4.018  0.3452 -1.7397  1.3485
  174SAPS  C21519812   2.319  -0.372   4.192 -0.5126 -0.3026  0.6450
  174SAPS  H15R19813   2.235  -0.379   4.263 -0.8974  0.2117  0.2482
  174SAPS  C21619814   2.452  -0.333   4.256  0.3208 -0.1794  0.3396
  174SAPS  H16R19815   2.497  -0.250   4.197  1.9644 -0.8137  0.6337
  174SAPS  H16S19816   2.523  -0.418   4.264  0.7869 -0.1170 -2.1585
  174SAPS  C21719817   2.433  -0.264   4.391 -0.9463 -0.7933  0.2933
  174SAPS  H17R19818   2.386  -0.164   4.377 -0.2880 -0.2973  1.4672
  174SAPS  H17S19819   2.529  -0.230   4.436 -3.5190  0.2266  5.8001
  174SAPS  C21819820   2.362  -0.353   4.495 -0.1113 -0.3259  0.3378
  174SAPS  H18R19821   2.440  -0.416   4.545  1.8300  0.5054 -1.4608
  174SAPS  H18S19822   2.285  -0.415   4.446  0.1351  0.5962 -1.2900
  174SAPS  C21919823   2.286  -0.262   4.596  0.3348  0.9310  0.6702
  174SAPS  H19R19824   2.214  -0.204   4.535  1.0003  0.2073 -0.8449
  174SAPS  H19S19825   2.346  -0.180   4.641 -0.8298  2.8144 -1.0620
  174SAPS  C22019826   2.207  -0.340   4.700  0.6301  0.2308 -0.0741
  174SAPS  H20R19827   2.187  -0.284   4.793  2.7001 -0.5900  0.9353
  174SAPS  H20S19828   2.279  -0.421   4.725  2.0779  1.1667 -1.0216
  174SAPS  H20T19829   2.113  -0.378   4.654  1.0597  0.6218 -1.3152
  174SAPS   C3319830   2.178   0.677   3.400  0.3748  0.0463  0.6370
  174SAPS   H3X19831   2.183   0.566   3.408  2.6153  0.0167 -0.3704
  174SAPS   H3Y19832   2.089   0.711   3.343  0.5440 -2.0691 -1.0008
  174SAPS   C3419833   2.189   0.716   3.548 -0.3961  0.9681  0.0232
  174SAPS   H4X19834   2.202   0.825   3.564  3.9013  0.8234 -1.2146
  174SAPS   H4Y19835   2.281   0.669   3.588 -0.6644  0.0142 -0.4442
  174SAPS   C3519836   2.085   0.646   3.632  0.4352  0.0395 -0.5509
  174SAPS   H5X19837   2.130   0.548   3.659  1.3878  0.9727  1.5219
  174SAPS   H5Y19838   1.988   0.634   3.579 -0.5942  0.0498  1.2318
  174SAPS   C3619839   2.067   0.709   3.773  0.5360 -0.6129 -0.7458
  174SAPS   H6X19840   1.966   0.680   3.809  0.2968  0.3347 -0.6371
  174SAPS   H6Y19841   2.074   0.820   3.767 -2.0795 -0.1839  1.7695
  174SAPS   C3719842   2.173   0.647   3.878 -0.1060  0.1695 -1.0277
  174SAPS   H7X19843   2.276   0.661   3.837 -0.1133  0.4743 -0.9402
  174SAPS   H7Y19844   2.160   0.537   3.887 -1.8118  0.5171  3.0105
  174SAPS   C3819845   2.143   0.713   4.017 -0.1725  0.9197  0.6306
  174SAPS   H8X19846   2.033   0.713   4.032 -0.3821 -0.4128 -0.6256
  174SAPS   H8Y19847   2.190   0.813   4.015  4.0751 -0.7855 -3.3437
  174SAPS   C3919848   2.207   0.640   4.135  1.1086  0.5464 -0.8458
  174SAPS   H9X19849   2.300   0.592   4.098  0.4228  0.5245 -2.6158
  174SAPS   H9Y19850   2.130   0.563   4.160  0.1978  1.7088  0.0486
  174SAPS  C31019851   2.228   0.738   4.255  0.0515 -0.2353 -0.3525
  174SAPS  H10X19852   2.141   0.806   4.265 -1.1818 -2.0371  2.1982
  174SAPS  H10Y19853   2.308   0.808   4.221 -1.1570  1.8405  0.8938
  174SAPS  C31119854   2.242   0.681   4.398  0.3891  0.5240  0.3243
  174SAPS  H11X19855   2.334   0.619   4.387  0.7272  1.0505  0.1179
  174SAPS  H11Y19856   2.158   0.611   4.415  1.1481 -0.7467 -0.9497
  174SAPS  C31219857   2.258   0.780   4.509 -0.1026 -0.9855  0.4111
  174SAPS  H12X19858   2.165   0.842   4.509  0.4439 -0.0881 -1.6609
  174SAPS  H12Y19859   2.337   0.856   4.489 -1.6549  1.4031  2.6799
  174SAPS  C31319860   2.266   0.725   4.657  0.2147 -0.0161 -0.6300
  174SAPS  H13X19861   2.345   0.648   4.666 -0.7000 -1.0340 -1.0708
  174SAPS  H13Y19862   2.172   0.668   4.672  0.4241  0.4281  3.1575
  174SAPS  C31419863   2.288   0.836   4.767  0.0004  0.6149 -0.1093
  174SAPS  H14X19864   2.347   0.923   4.730 -0.2529  0.7383 -0.2188
  174SAPS  H14Y19865   2.336   0.789   4.856 -0.9527  1.6803  1.0069
  174SAPS  C31519866   2.159   0.894   4.819  0.9818 -0.0200  0.3218
  174SAPS  H15X19867   2.110   0.942   4.732  3.1655  0.4443 -0.7038
  174SAPS  H15Y19868   2.190   0.972   4.892  0.2811 -0.8383  1.5446
  174SAPS  C31619869   2.064   0.785   4.873  0.1737 -0.2641 -0.1245
  174SAPS  H16X19870   2.124   0.707   4.925  0.7900  0.9542  1.0720
  174SAPS  H16Y19871   2.013   0.732   4.790  0.7062  1.8185 -1.8600
  174SAPS  C31719872   1.968   0.835   4.981 -0.0036  0.9499  0.0133
  174SAPS  H17X19873   2.037   0.843   5.068 -0.2039  1.4583  0.1284
  174SAPS  H17Y19874   1.891   0.758   5.003 -0.3000  1.6562  1.5743
  174SAPS  C31819875   1.896   0.960   4.947 -0.2831 -0.2994  0.3060
  174SAPS  H18X19876   1.967   1.044   4.929  0.6279 -1.3984 -1.5881
  174SAPS  H18Y19877   1.824   0.985   5.027 -0.6111 -1.6004  0.4455
  174SAPS  H18Z19878   1.848   0.948   4.847 -0.4647  0.6519  0.2684
  175SAPS     N19879   3.866   0.395   2.306 -0.1389  0.2440  0.0245
  175SAPS   HN119880   3.903   0.450   2.226  3.5629  1.0772  2.1112
  175SAPS   HN219881   3.806   0.467   2.352 -0.0694  1.3154 -1.4838
  175SAPS   HN319882   3.951   0.369   2.359  0.6866 -1.8590 -2.1316
  175SAPS   C1219883   3.798   0.273   2.266  0.0380  0.4074 -0.7573
  175SAPS  H12A19884   3.737   0.304   2.183 -2.3637 -1.5362  0.1472
  175SAPS   C1319885   3.885   0.158   2.216  0.0016 -0.3299 -0.3181
  175SAPS  O13A19886   4.008   0.181   2.197 -0.0135  0.0416 -0.6758
  175SAPS  O13B19887   3.834   0.051   2.168 -0.5644 -0.1732  0.0710
  175SAPS   C1119888   3.716   0.226   2.395 -0.1695  0.0323 -0.3871
  175SAPS  H11A19889   3.656   0.136   2.370  1.1654 -1.4970  1.5686
  175SAPS  H11B19890   3.648   0.311   2.416  0.4906  0.1471  1.5215
  175SAPS     P19891   3.757   0.128   2.620 -0.1017  0.1859  0.0751
  175SAPS   O1319892   3.720  -0.001   2.557  0.4353  0.0501  0.2469
  175SAPS   O1419893   3.856   0.117   2.725 -0.2873 -0.4286  0.5260
  175SAPS   O1219894   3.802   0.220   2.506  0.3021 -0.5944 -0.2290
  175SAPS   O1119895   3.628   0.197   2.669 -0.4143 -0.1485  0.4955
  175SAPS    C119896   3.620   0.344   2.683 -0.3440 -0.5198 -0.4049
  175SAPS    HA19897   3.710   0.406   2.665 -1.0332  0.3845 -0.7919
  175SAPS    HB19898   3.539   0.383   2.619  0.4785  0.7467 -0.7132
  175SAPS    C219899   3.572   0.380   2.831 -0.4184  0.1838  0.3108
  175SAPS    HS19900   3.563   0.491   2.824  0.7309  0.2183 -1.0772
  175SAPS   O2119901   3.658   0.338   2.935  0.0091  0.1513  0.3350
  175SAPS   C2119902   3.788   0.375   2.928  0.6932  0.0680 -0.2628
  175SAPS   O2219903   3.832   0.467   2.864  0.7235  0.0263 -0.3369
  175SAPS   C2219904   3.878   0.289   3.015 -0.6204 -0.7294 -0.5160
  175SAPS   H2R19905   3.815   0.214   3.067 -0.0170  0.1460  1.5954
  175SAPS   H2S19906   3.955   0.240   2.953 -2.0224 -2.2488 -1.1224
  175SAPS    C319907   3.425   0.323   2.851 -0.0176 -0.1122  0.3440
  175SAPS    HX19908   3.417   0.221   2.808  2.1003  0.4964 -1.6854
  175SAPS    HY19909   3.348   0.388   2.804 -1.3667 -1.3922  0.6859
  175SAPS   O3119910   3.385   0.314   2.989  0.3403 -0.3135 -0.4163
  175SAPS   C3119911   3.343   0.428   3.049 -0.1130  0.9810 -0.4694
  175SAPS   O3219912   3.329   0.536   2.998 -0.0146 -0.4089  0.5361
  175SAPS   C3219913   3.363   0.408   3.190  0.0148  0.4046 -0.1318
  175SAPS   H2X19914   3.469   0.404   3.223  0.3783 -0.2045 -1.3123
  175SAPS   H2Y19915   3.330   0.308   3.223  3.5256 -0.8021  0.2047
  175SAPS   C2319916   3.959   0.373   3.122  0.1123  0.4958 -0.2815
  175SAPS   H3R19917   3.993   0.471   3.082  0.1244  0.9034  0.7167
  175SAPS   H3S19918   4.051   0.317   3.147 -0.4338  0.6406  2.3340
  175SAPS   C2419919   3.879   0.400   3.245 -0.8516  0.1202  0.2110
  175SAPS   H4R19920   3.774   0.418   3.214 -0.5161 -2.8223 -3.2646
  175SAPS   H4S19921   3.900   0.492   3.303 -1.9731  1.1875 -1.0197
  175SAPS   C2519922   3.889   0.278   3.331  0.1953 -0.2850 -0.4984
  175SAPS   H5R19923   3.982   0.220   3.326 -0.0408 -0.7028 -0.0924
  175SAPS   C2619924   3.786   0.231   3.406 -0.7406 -0.2649 -0.9315
  175SAPS   H6R19925   3.790   0.136   3.461  1.3034 -0.6898 -1.7184
  175SAPS   C2719926   3.652   0.299   3.414 -0.3475 -0.0403  0.1647
  175SAPS   H7R19927   3.595   0.271   3.323 -0.6852  1.1302 -0.0093
  175SAPS   H7S19928   3.663   0.410   3.411  1.5420 -0.1870  0.4173
  175SAPS   C2819929   3.564   0.255   3.527 -0.4426 -0.3100 -0.3083
  175SAPS   H8R19930   3.503   0.168   3.497  0.2082 -0.5123 -1.0884
  175SAPS   C2919931   3.542   0.320   3.643 -0.7993 -0.1054  0.4168
  175SAPS   H9R19932   3.499   0.274   3.733 -2.3617  0.0729 -0.2241
  175SAPS  C21019933   3.626   0.441   3.673  0.6804 -0.2381 -0.2236
  175SAPS  H10R19934   3.629   0.504   3.582 -1.2975 -1.3669 -1.1375
  175SAPS  H10S19935   3.728   0.419   3.711 -0.1537 -3.6598  0.3323
  175SAPS  C21119936   3.559   0.532   3.773 -0.2274  0.0121 -0.3326
  175SAPS  H11R19937   3.490   0.594   3.714 -0.1361  1.4363  1.0222
  175SAPS  C21219938   3.556   0.517   3.910 -0.0249  0.0916  0.1206
  175SAPS  H12R19939   3.515   0.596   3.975 -0.5947 -0.7230  0.7578
  175SAPS  C21319940   3.622   0.408   3.992 -0.3328  0.0821 -0.2118
  175SAPS  H13R19941   3.670   0.328   3.932  0.9161 -0.2429  1.1549
  175SAPS  H13S19942   3.535   0.357   4.038  0.0636 -1.0615 -0.7048
  175SAPS  C21419943   3.722   0.463   4.098  0.4667 -0.1920 -0.4083
  175SAPS  H14R19944   3.806   0.515   4.050 -0.9337 -0.6218 -3.5428
  175SAPS  C21519945   3.686   0.482   4.230 -0.0706  0.2424  0.2759
  175SAPS  H15R19946   3.764   0.531   4.290  2.4207 -1.7660 -1.1498
  175SAPS  C21619947   3.556   0.436   4.294 -0.6867 -0.0911  0.2599
  175SAPS  H16R19948   3.476   0.424   4.218  0.4381 -0.8101 -0.8526
  175SAPS  H16S19949   3.532   0.508   4.375  2.5274  0.8018  0.5344
  175SAPS  C21719950   3.572   0.303   4.360  0.1101 -0.0711 -0.1234
  175SAPS  H17R19951   3.656   0.312   4.433 -0.8550 -1.2421  1.1845
  175SAPS  H17S19952   3.616   0.231   4.287  1.3414  3.7974 -3.5498
  175SAPS  C21819953   3.449   0.257   4.432 -0.1856 -0.4956  0.7116
  175SAPS  H18R19954   3.366   0.218   4.369 -0.0562 -0.8185  0.7412
  175SAPS  H18S19955   3.399   0.342   4.483  0.6068  0.5482 -0.2028
  175SAPS  C21919956   3.479   0.154   4.545  0.2704  0.7074 -0.3298
  175SAPS  H19R19957   3.538   0.205   4.624 -0.8744  1.3536  0.1277
  175SAPS  H19S19958   3.534   0.070   4.498 -0.5373  1.0568 -1.9685
  175SAPS  C22019959   3.350   0.087   4.587 -0.1763  0.4442  0.3368
  175SAPS  H20R19960   3.380  -0.001   4.648  2.0226  2.1421  1.8749
  175SAPS  H20S19961   3.284   0.038   4.513  0.4191 -2.5658  1.6657
  175SAPS  H20T19962   3.283   0.145   4.655 -0.5536 -2.7051  2.8664
  175SAPS   C3319963   3.291   0.519   3.264  0.1113 -0.0606 -0.2023
  175SAPS   H3X19964   3.196   0.539   3.210 -0.4498  1.4480  1.2496
  175SAPS   H3Y19965   3.343   0.617   3.251  4.6439 -2.0419  0.8747
  175SAPS   C3419966   3.251   0.492   3.408  0.1225  0.1067 -0.6210
  175SAPS   H4X19967   3.201   0.578   3.458 -0.0287  0.4613 -1.3653
  175SAPS   H4Y19968   3.343   0.464   3.463 -0.6905 -1.7412 -0.1448
  175SAPS   C3519969   3.154   0.377   3.416 -0.1168  0.4772  0.2936
  175SAPS   H5X19970   3.206   0.289   3.373 -1.7983 -0.4443  0.0717
  175SAPS   H5Y19971   3.069   0.390   3.345  3.0741 -1.4591 -4.3318
  175SAPS   C3619972   3.109   0.342   3.556  0.5615  0.4011  0.1540
  175SAPS   H6X19973   3.192   0.303   3.619 -0.5704  1.4334  2.4197
  175SAPS   H6Y19974   3.053   0.248   3.541  0.6571  0.4984 -0.8818
  175SAPS   C3719975   3.027   0.450   3.630  0.6324  0.0050  0.7353
  175SAPS   H7X19976   2.961   0.487   3.549  1.5640 -1.8278 -0.9314
  175SAPS   H7Y19977   3.091   0.535   3.664 -0.6643  2.9585 -3.3791
  175SAPS   C3819978   2.944   0.399   3.746  0.3188  0.5168  0.0525
  175SAPS   H8X19979   2.872   0.326   3.704  0.2512 -0.5115  1.8442
  175SAPS   H8Y19980   2.883   0.484   3.785  1.1547  0.8244  0.7237
  175SAPS   C3919981   3.019   0.339   3.870 -0.3013 -0.6307  1.3337
  175SAPS   H9X19982   3.066   0.242   3.842  1.7873  1.1045 -1.7683
  175SAPS   H9Y19983   2.935   0.323   3.942 -2.0351 -1.0773 -0.6782
  175SAPS  C31019984   3.129   0.424   3.928 -0.2480  0.1779 -0.1144
  175SAPS  H10X19985   3.190   0.460   3.843  0.5701 -1.0831 -0.0880
  175SAPS  H10Y19986   3.191   0.361   3.996 -1.9987 -0.9614  0.5027
  175SAPS  C31119987   3.076   0.525   4.027  0.4217 -0.3862 -0.3578
  175SAPS  H11X19988   3.015   0.593   3.964 -0.6547  0.9358  1.9583
  175SAPS  H11Y19989   3.163   0.577   4.073  0.4892  0.0088 -0.9207
  175SAPS  C31219990   3.009   0.472   4.155  0.0452 -0.2741 -0.2248
  175SAPS  H12X19991   3.051   0.376   4.192 -1.2637 -1.7299 -2.3243
  175SAPS  H12Y19992   2.908   0.429   4.137  0.0193 -0.5786  0.5881
  175SAPS  C31319993   2.981   0.581   4.260 -0.0273  0.2192 -0.5968
  175SAPS  H13X19994   2.889   0.638   4.236  0.1159  0.8085  0.2158
  175SAPS  H13Y19995   3.047   0.671   4.266 -1.6057  1.3194  1.2548
  175SAPS  C31419996   2.956   0.529   4.403  1.0435  0.1085  0.5606
  175SAPS  H14X19997   2.863   0.468   4.407 -0.2904  1.9877  0.1380
  175SAPS  H14Y19998   2.930   0.615   4.468 -1.9643  1.3632 -2.0122
  175SAPS  C31519999   3.073   0.445   4.457 -0.6043  0.0908 -0.4667
  175SAPS  H15X20000   3.156   0.511   4.489 -1.7981  0.7078  1.5946
  175SAPS  H15Y20001   3.123   0.380   4.383  0.2238  1.2274 -0.9216
  175SAPS  C31620002   3.046   0.345   4.571  0.5470  0.2127  0.4855
  175SAPS  H16X20003   2.981   0.395   4.647 -1.9002  1.7784 -2.4055
  175SAPS  H16Y20004   3.145   0.326   4.617  0.2254  2.0717  2.1158
  175SAPS  C31720005   2.966   0.213   4.529 -0.0756  0.2337  0.1482
  175SAPS  H17X20006   3.008   0.160   4.441 -1.4625  0.7605 -0.8578
  175SAPS  H17Y20007   2.863   0.249   4.509 -0.0771  1.5422  2.1443
  175SAPS  C31820008   2.957   0.116   4.645 -0.1470  0.7951 -0.3982
  175SAPS  H18X20009   3.053   0.114   4.703  0.0190 -1.0027 -0.6771
  175SAPS  H18Y20010   2.951   0.009   4.616 -0.3264  0.1688  1.7273
  175SAPS  H18Z20011   2.876   0.143   4.716 -0.7188 -2.0832  0.1600
  176SAPS     N20012   4.280   0.158   2.347 -0.1858 -0.0121  0.0271
  176SAPS   HN120013   4.352   0.107   2.293  0.2851 -0.2136  0.8314
  176SAPS   HN220014   4.250   0.099   2.427 -1.5564  1.6421  0.8147
  176SAPS   HN320015   4.188   0.177   2.301 -1.2575 -2.4505  0.9696
  176SAPS   C1220016   4.320   0.289   2.396  0.5354 -0.2250 -0.0502
  176SAPS  H12A20017   4.378   0.334   2.318  4.1301 -0.5260  2.2380
  176SAPS   C1320018   4.203   0.380   2.452  0.2373 -0.3315 -0.0483
  176SAPS  O13A20019   4.083   0.348   2.457 -0.0314  0.2598 -0.1080
  176SAPS  O13B20020   4.239   0.495   2.496 -0.6975  0.5787  0.2236
  176SAPS   C1120021   4.420   0.267   2.515 -0.1194 -0.2245 -0.2756
  176SAPS  H11A20022   4.357   0.234   2.600  0.3014  1.2319  0.6502
  176SAPS  H11B20023   4.469   0.360   2.553  0.4082 -1.1022  1.2914
  176SAPS     P20024   4.510   0.026   2.544  0.3862 -0.2357 -0.3370
  176SAPS   O1320025   4.371  -0.020   2.531 -0.1427  0.0611  0.4385
  176SAPS   O1420026   4.612  -0.059   2.484 -0.4726 -0.5386  0.3956
  176SAPS   O1220027   4.519   0.171   2.476  0.8508 -0.2212  0.3195
  176SAPS   O1120028   4.554   0.059   2.690 -0.1959 -0.4846  0.2586
  176SAPS    C120029   4.630   0.169   2.744 -0.1856  0.4476 -0.0985
  176SAPS    HA20030   4.687   0.215   2.661  3.1719 -2.7055  0.2073
  176SAPS    HB20031   4.563   0.239   2.798  2.3627  1.4300  2.0571
  176SAPS    C220032   4.737   0.109   2.842 -0.2857  0.5155 -0.2239
  176SAPS    HS20033   4.769   0.019   2.785  0.0307 -0.3515  1.2892
  176SAPS   O2120034   4.675   0.065   2.966  0.4641  0.6597 -0.1949
  176SAPS   C2120035   4.723  -0.040   3.027  0.1318 -0.0542 -0.0612
  176SAPS   O2220036   4.820  -0.104   2.993  0.0026  0.3352 -0.0624
  176SAPS   C2220037   4.656  -0.048   3.164 -0.2929 -0.2286 -0.5379
  176SAPS   H2R20038   4.605   0.049   3.181 -0.6990 -0.3503 -1.0295
  176SAPS   H2S20039   4.577  -0.126   3.163 -0.6569  0.1367 -0.6594
  176SAPS    C320040   4.857   0.204   2.870  0.5978 -0.3468 -0.7204
  176SAPS    HX20041   4.820   0.280   2.942  0.9176 -0.3725 -0.5256
  176SAPS    HY20042   4.889   0.261   2.780 -2.9195  5.3768  1.0880
  176SAPS   O3120043   4.963   0.142   2.944  0.1725  0.2268 -0.2056
  176SAPS   C3120044   5.070   0.100   2.874  0.2401 -0.3382 -0.3027
  176SAPS   O3220045   5.083   0.123   2.752  0.1293  0.5561 -0.1254
  176SAPS   C3220046   5.189   0.052   2.962 -0.2628  0.5150 -0.0062
  176SAPS   H2X20047   5.234   0.136   3.019  0.5964 -0.4164  0.7363
  176SAPS   H2Y20048   5.261  -0.000   2.897 -0.0954 -0.6552  1.0695
  176SAPS   C2320049   4.759  -0.084   3.279 -0.4128  0.0644  0.0619
  176SAPS   H3R20050   4.838  -0.007   3.296 -1.5627  0.7070  3.3100
  176SAPS   H3S20051   4.810  -0.180   3.256 -2.3668 -0.7484 -1.1347
  176SAPS   C2420052   4.691  -0.082   3.417 -0.7027  0.1628 -0.0224
  176SAPS   H4R20053   4.740  -0.159   3.480 -0.2876 -0.5977 -1.2444
  176SAPS   H4S20054   4.593  -0.131   3.397 -0.5961  0.3218 -0.9507
  176SAPS   C2520055   4.648   0.051   3.478 -0.3136  0.5711  0.3123
  176SAPS   H5R20056   4.648   0.135   3.408 -0.7383  1.0200  0.8348
  176SAPS   C2620057   4.598   0.068   3.600  0.4540  0.4029 -0.5644
  176SAPS   H6R20058   4.560   0.166   3.634 -1.2229 -0.5956  0.5710
  176SAPS   C2720059   4.592  -0.042   3.707  0.1925 -0.0445  0.1089
  176SAPS   H7R20060   4.600   0.008   3.806  2.0070  0.8175 -0.4362
  176SAPS   H7S20061   4.682  -0.106   3.712  1.7670  2.1095  3.9009
  176SAPS   C2820062   4.473  -0.130   3.694  0.5333  0.4040 -0.2779
  176SAPS   H8R20063   4.463  -0.160   3.589 -1.5273 -2.0088  0.5085
  176SAPS   C2920064   4.386  -0.172   3.792 -0.4724 -0.1240  0.3096
  176SAPS   H9R20065   4.289  -0.203   3.750  0.0567 -2.2823  0.5448
  176SAPS  C21020066   4.393  -0.140   3.938 -0.1723 -0.2726  0.0644
  176SAPS  H10R20067   4.466  -0.057   3.950 -0.8170  0.2220  0.6354
  176SAPS  H10S20068   4.458  -0.222   3.974  0.7192  0.7451  0.8353
  176SAPS  C21120069   4.268  -0.116   4.012 -0.1375  0.0592  0.6680
  176SAPS  H11R20070   4.175  -0.097   3.956  1.0238 -0.7477 -1.6604
  176SAPS  C21220071   4.268  -0.104   4.146 -0.0809  0.2537  0.0849
  176SAPS  H12R20072   4.170  -0.089   4.195 -1.2786  3.1883 -2.8658
  176SAPS  C21320073   4.381  -0.111   4.246 -0.3681 -0.4672 -0.2840
  176SAPS  H13R20074   4.479  -0.084   4.200 -1.4729  1.6485 -1.5960
  176SAPS  H13S20075   4.387  -0.217   4.277 -1.1961 -0.4332  0.0034
  176SAPS  C21420076   4.355  -0.004   4.348 -0.3822 -0.1889  0.0987
  176SAPS  H14R20077   4.340   0.100   4.318  1.5077 -0.0439 -0.4432
  176SAPS  C21520078   4.369  -0.027   4.483  0.7047 -0.1578  0.3865
  176SAPS  H15R20079   4.346   0.055   4.552 -1.0388 -0.0960 -0.2152
  176SAPS  C21620080   4.401  -0.160   4.548  0.1589 -0.2300 -0.1609
  176SAPS  H16R20081   4.511  -0.174   4.550 -0.0093 -1.6351  0.7135
  176SAPS  H16S20082   4.352  -0.237   4.485 -1.7638  0.1171  0.8276
  176SAPS  C21720083   4.342  -0.184   4.688 -0.1977 -0.2932 -0.6870
  176SAPS  H17R20084   4.340  -0.286   4.731 -1.8230  0.7025  1.8200
  176SAPS  H17S20085   4.236  -0.149   4.683  0.3112  1.2301 -1.3092
  176SAPS  C21820086   4.426  -0.103   4.790 -0.2828  0.1858  0.3572
  176SAPS  H18R20087   4.432   0.005   4.764  2.1373  0.1747  0.6644
  176SAPS  H18S20088   4.534  -0.127   4.782 -0.0355  1.8268 -2.1141
  176SAPS  C21920089   4.375  -0.106   4.932  0.2642 -0.4781  0.1172
  176SAPS  H19R20090   4.265  -0.098   4.917  0.1599 -0.5192  0.8260
  176SAPS  H19S20091   4.413  -0.015   4.983 -0.5677 -0.7753  1.3144
  176SAPS  C22020092   4.411  -0.238   5.000 -0.0398  0.4455 -0.1605
  176SAPS  H20R20093   4.486  -0.289   4.935  0.1573  0.5685 -0.0324
  176SAPS  H20S20094   4.327  -0.310   5.010  0.3967 -0.3682 -1.8735
  176SAPS  H20T20095   4.453  -0.211   5.099 -1.8142  1.5692  0.3169
  176SAPS   C3320096   5.149  -0.049   3.076  0.2665  0.1593 -0.2098
  176SAPS   H3X20097   5.097  -0.133   3.025  0.2088  0.4842 -0.6929
  176SAPS   H3Y20098   5.081  -0.005   3.152 -0.3061 -1.2288  0.1161
  176SAPS   C3420099   5.281  -0.110   3.145  0.4255  0.1153 -0.3139
  176SAPS   H4X20100   5.369  -0.057   3.102  0.0826  0.0212 -1.1605
  176SAPS   H4Y20101   5.304  -0.218   3.130 -1.5330 -0.2414 -1.0421
  176SAPS   C3520102   5.262  -0.100   3.301 -0.1076 -0.2303  0.8038
  176SAPS   H5X20103   5.251   0.004   3.339 -0.0666  0.1179 -0.1104
  176SAPS   H5Y20104   5.350  -0.148   3.350  0.7772 -0.1184 -0.6026
  176SAPS   C3620105   5.147  -0.185   3.352  0.5795  0.2728 -0.0294
  176SAPS   H6X20106   5.127  -0.260   3.272  2.2545 -1.3379  0.9837
  176SAPS   H6Y20107   5.059  -0.118   3.360  1.6234  2.2589 -3.1457
  176SAPS   C3720108   5.184  -0.259   3.478 -0.4092  0.0204 -1.0123
  176SAPS   H7X20109   5.188  -0.188   3.563  1.2682 -1.0993 -0.1085
  176SAPS   H7Y20110   5.285  -0.304   3.470 -0.9334 -1.5190  0.5565
  176SAPS   C3820111   5.095  -0.373   3.526 -0.1373 -0.1646 -0.0565
  176SAPS   H8X20112   5.084  -0.452   3.448 -2.1750 -0.1638  0.1685
  176SAPS   H8Y20113   4.991  -0.335   3.539 -0.4078 -1.2923  1.3635
  176SAPS   C3920114   5.130  -0.452   3.653  0.3311  0.0891  0.4384
  176SAPS   H9X20115   5.225  -0.506   3.635 -0.1376  0.0042 -2.0654
  176SAPS   H9Y20116   5.050  -0.528   3.670  1.5503 -0.9912  1.5095
  176SAPS  C31020117   5.152  -0.366   3.778  0.1500  0.2808  0.6159
  176SAPS  H10X20118   5.062  -0.304   3.803 -0.4683 -0.7383  0.9727
  176SAPS  H10Y20119   5.232  -0.294   3.750 -1.6100  1.5596 -1.4823
  176SAPS  C31120120   5.203  -0.435   3.903  0.0251  0.5453 -0.6821
  176SAPS  H11X20121   5.296  -0.495   3.893 -0.1028  0.5163 -1.8028
  176SAPS  H11Y20122   5.126  -0.505   3.942 -0.6945  1.7040  0.0612
  176SAPS  C31220123   5.240  -0.330   4.012  0.3759  0.3547  0.7242
  176SAPS  H12X20124   5.148  -0.279   4.050 -0.8969  0.1861 -1.8998
  176SAPS  H12Y20125   5.311  -0.256   3.971  0.3565 -0.7816 -1.5290
  176SAPS  C31320126   5.295  -0.392   4.142  0.0712  0.3217  0.1957
  176SAPS  H13X20127   5.363  -0.475   4.113 -0.4529 -0.2926  0.6880
  176SAPS  H13Y20128   5.213  -0.439   4.200  0.1304 -1.0296 -0.7517
  176SAPS  C31420129   5.373  -0.306   4.240  0.0175 -0.1560 -0.4738
  176SAPS  H14X20130   5.399  -0.213   4.184 -0.2419 -0.4699 -1.1196
  176SAPS  H14Y20131   5.463  -0.359   4.277 -0.1795  1.3061  2.4438
  176SAPS  C31520132   5.281  -0.271   4.359 -0.1333 -0.3687 -0.1432
  176SAPS  H15X20133   5.226  -0.357   4.403  1.7120 -0.9367  1.1880
  176SAPS  H15Y20134   5.217  -0.190   4.318  0.4835 -0.0939 -0.5768
  176SAPS  C31620135   5.361  -0.212   4.481 -0.1099 -0.1925  0.0878
  176SAPS  H16X20136   5.301  -0.144   4.544 -1.1461  0.3331 -1.4219
  176SAPS  H16Y20137   5.444  -0.154   4.435 -0.1505 -1.0313 -1.0905
  176SAPS  C31720138   5.410  -0.322   4.570  0.1536  1.2609  0.1989
  176SAPS  H17X20139   5.483  -0.378   4.508 -0.8537  1.5072 -1.2450
  176SAPS  H17Y20140   5.324  -0.388   4.594 -0.1369  2.5630  3.1359
  176SAPS  C31820141   5.510  -0.278   4.681 -0.4240  0.1456 -0.3379
  176SAPS  H18X20142   5.457  -0.219   4.759  0.7104  0.1998  0.4149
  176SAPS  H18Y20143   5.589  -0.205   4.651 -1.3309  2.7748  2.9814
  176SAPS  H18Z20144   5.554  -0.369   4.726  1.0673  1.0279  0.0700
  177SAPS     N20145   6.589   4.333   2.730 -0.4113  0.5584 -0.6077
  177SAPS   HN120146   6.506   4.271   2.719  0.9329 -1.4609  0.1458
  177SAPS   HN220147   6.569   4.413   2.794 -2.3893  0.3472 -0.8763
  177SAPS   HN320148   6.613   4.384   2.643  3.5806 -0.4815 -0.2877
  177SAPS   C1220149   6.705   4.255   2.780  0.4253  1.1300 -0.8084
  177SAPS  H12A20150   6.710   4.171   2.712  3.5235  0.4624  0.0663
  177SAPS   C1320151   6.841   4.321   2.746  0.4557  0.1948  0.0354
  177SAPS  O13A20152   6.848   4.407   2.653 -0.5381  0.1653  0.3888
  177SAPS  O13B20153   6.949   4.265   2.788 -0.1248 -0.1480 -0.0690
  177SAPS   C1120154   6.682   4.202   2.921 -0.2207  0.5524 -0.4581
  177SAPS  H11A20155   6.629   4.281   2.980 -1.2296 -0.0036 -0.5893
  177SAPS  H11B20156   6.774   4.173   2.976  0.4563  0.1367 -1.7651
  177SAPS     P20157   6.446   4.092   2.937  0.5932 -0.2848 -0.0623
  177SAPS   O1320158   6.380   4.181   2.841 -0.2137  0.0567 -0.8317
  177SAPS   O1420159   6.391   3.956   2.964  0.4529 -0.3021  0.3049
  177SAPS   O1220160   6.600   4.082   2.910 -0.5368 -0.7773  0.5445
  177SAPS   O1120161   6.443   4.171   3.075  0.3665 -0.2233 -0.5248
  177SAPS    C120162   6.508   4.111   3.193 -0.6270  0.1214  0.4943
  177SAPS    HA20163   6.463   4.013   3.218 -0.9994  0.4224  1.0293
  177SAPS    HB20164   6.612   4.088   3.164 -1.1500 -3.3679  0.9534
  177SAPS    C220165   6.505   4.196   3.320  0.7540 -0.6375 -0.5575
  177SAPS    HS20166   6.597   4.161   3.372 -0.6459 -4.1372 -0.1830
  177SAPS   O2120167   6.396   4.189   3.417  0.0328 -0.2544 -0.4138
  177SAPS   C2120168   6.392   4.069   3.479  0.3460  0.0874 -0.0849
  177SAPS   O2220169   6.478   3.986   3.470 -0.6039  0.3067 -0.0319
  177SAPS   C2220170   6.273   4.068   3.571  0.2146 -0.3912 -0.4660
  177SAPS   H2R20171   6.258   4.172   3.606 -1.0569 -0.9935  0.9131
  177SAPS   H2S20172   6.181   4.030   3.524 -1.1664  1.9309  0.2115
  177SAPS    C320173   6.527   4.343   3.288 -0.5653  0.1553 -0.1244
  177SAPS    HX20174   6.443   4.380   3.227 -0.3047  3.3459  1.2409
  177SAPS    HY20175   6.610   4.348   3.214  0.1292 -1.2094  0.5301
  177SAPS   O3120176   6.555   4.423   3.403 -0.3828 -0.4662 -0.7443
  177SAPS   C3120177   6.441   4.472   3.465  0.6592 -0.2113 -0.7044
  177SAPS   O3220178   6.337   4.482   3.401 -0.1578 -0.0055 -0.2140
  177SAPS   C3220179   6.461   4.514   3.609  0.5812  0.2337 -0.4342
  177SAPS   H2X20180   6.425   4.617   3.632 -1.6143 -0.6501  0.3790
  177SAPS   H2Y20181   6.571   4.514   3.623  0.4024  2.2367  1.7403
  177SAPS   C2320182   6.307   3.982   3.695 -0.3889  0.3229  0.0550
  177SAPS   H3R20183   6.401   4.017   3.744 -0.4905  0.6263  0.0309
  177SAPS   H3S20184   6.320   3.879   3.656 -2.0530  1.3237 -3.5018
  177SAPS   C2420185   6.194   3.981   3.803 -0.1785 -0.0083 -0.6850
  177SAPS   H4R20186   6.121   3.908   3.762 -0.8581 -0.0483  0.5207
  177SAPS   H4S20187   6.141   4.079   3.807  0.9539  0.6140  2.5489
  177SAPS   C2520188   6.255   3.931   3.939  0.6147  0.2883  0.4750
  177SAPS   H5R20189   6.287   3.826   3.929 -1.8106 -0.2876 -2.7676
  177SAPS   C2620190   6.254   4.002   4.056  0.0728 -0.2678 -0.1343
  177SAPS   H6R20191   6.317   3.972   4.141 -0.7310  3.0796  1.8633
  177SAPS   C2720192   6.208   4.151   4.074  0.1876  0.4117  0.1228
  177SAPS   H7R20193   6.110   4.149   4.125  0.3341 -0.3687  0.3795
  177SAPS   H7S20194   6.196   4.204   3.977 -0.5000 -0.5264 -0.3180
  177SAPS   C2820195   6.307   4.224   4.160 -0.4845 -0.3146  0.5343
  177SAPS   H8R20196   6.382   4.279   4.102 -1.1832 -0.0326 -0.1193
  177SAPS   C2920197   6.318   4.222   4.292 -0.3191 -1.0479 -0.3669
  177SAPS   H9R20198   6.400   4.279   4.338 -1.8489  1.0070 -0.0422
  177SAPS  C21020199   6.236   4.145   4.391  0.6299 -0.2117 -0.5680
  177SAPS  H10R20200   6.223   4.038   4.362  1.1679 -0.1766 -0.9385
  177SAPS  H10S20201   6.138   4.196   4.374  2.0334  3.4425  1.2793
  177SAPS  C21120202   6.281   4.138   4.537 -0.2193  0.2734 -0.0890
  177SAPS  H11R20203   6.384   4.118   4.572  0.8106  2.2211 -1.8258
  177SAPS  C21220204   6.195   4.139   4.645 -0.0925 -0.3573  0.4219
  177SAPS  H12R20205   6.244   4.128   4.743 -0.6469 -1.9406  0.5499
  177SAPS  C21320206   6.044   4.166   4.647  0.6602  0.0471  0.4371
  177SAPS  H13R20207   5.991   4.080   4.601  0.4870  0.2812  0.2002
  177SAPS  H13S20208   6.018   4.258   4.590 -0.8340 -0.4811  0.2162
  177SAPS  C21420209   6.001   4.187   4.796 -0.0040  0.3568 -0.0541
  177SAPS  H14R20210   6.073   4.248   4.853  2.0773 -1.7247 -0.3159
  177SAPS  C21520211   5.896   4.133   4.862 -0.2446 -0.2524  0.3697
  177SAPS  H15R20212   5.887   4.143   4.972 -0.5658 -0.0065  0.3234
  177SAPS  C21620213   5.793   4.039   4.805  0.1800 -0.6138  0.6940
  177SAPS  H16R20214   5.833   3.976   4.722  0.1111  0.3384 -0.0805
  177SAPS  H16S20215   5.715   4.092   4.747  1.2520 -0.4677 -0.6756
  177SAPS  C21720216   5.723   3.948   4.910  0.3459  0.3876 -1.0330
  177SAPS  H17R20217   5.793   3.879   4.962 -2.5576 -1.5157  0.6559
  177SAPS  H17S20218   5.650   3.887   4.853  0.2005 -1.6936  1.2056
  177SAPS  C21820219   5.643   4.020   5.021  0.3755 -0.1151  0.3593
  177SAPS  H18R20220   5.572   4.090   4.971  0.0915 -2.5477 -2.9520
  177SAPS  H18S20221   5.702   4.069   5.101 -1.1682 -1.3891  2.3745
  177SAPS  C21920222   5.573   3.920   5.113  0.4233  0.1651  0.2697
  177SAPS  H19R20223   5.644   3.851   5.163 -0.3744 -0.5552  0.4251
  177SAPS  H19S20224   5.521   3.856   5.038  0.4027 -0.3304  0.7051
  177SAPS  C22020225   5.478   3.980   5.222 -0.7400  0.1610 -0.2477
  177SAPS  H20R20226   5.438   3.893   5.278  1.6661  0.6344  2.4931
  177SAPS  H20S20227   5.405   4.041   5.165 -0.5401  1.1174  0.4818
  177SAPS  H20T20228   5.539   4.049   5.285 -0.2048 -3.1795  3.2163
  177SAPS   C3320229   6.393   4.418   3.719  0.5590  0.3016 -0.6075
  177SAPS   H3X20230   6.439   4.438   3.818  0.8791 -1.4794 -0.3634
  177SAPS   H3Y20231   6.430   4.318   3.691 -0.8749 -0.6004  0.5563
  177SAPS   C3420232   6.241   4.429   3.726 -0.3071  0.1128  0.0887
  177SAPS   H4X20233   6.212   4.354   3.802  0.5506  0.2173  0.5385
  177SAPS   H4Y20234   6.203   4.418   3.622  1.3813 -0.8789 -0.4590
  177SAPS   C3520235   6.188   4.564   3.781 -0.0538 -0.1298 -0.1020
  177SAPS   H5X20236   6.237   4.652   3.736  0.2622 -0.8812 -1.2772
  177SAPS   H5Y20237   6.223   4.558   3.886  1.5130 -0.4811 -0.6202
  177SAPS   C3620238   6.037   4.578   3.776  0.0073 -0.5167  0.1223
  177SAPS   H6X20239   5.994   4.485   3.819 -1.4918 -0.2190 -0.6466
  177SAPS   H6Y20240   5.992   4.580   3.674  0.9752 -0.7445 -0.3250
  177SAPS   C3720241   5.987   4.692   3.873  0.1251 -0.5616 -0.2741
  177SAPS   H7X20242   5.881   4.712   3.844  0.5768 -0.6881 -2.0877
  177SAPS   H7Y20243   6.043   4.783   3.844 -0.0081 -0.8749 -1.5678
  177SAPS   C3820244   5.996   4.665   4.027 -0.2891  0.0025 -0.3875
  177SAPS   H8X20245   6.100   4.628   4.040 -0.9826 -1.4582  1.5537
  177SAPS   H8Y20246   5.940   4.572   4.052  2.2431 -0.7489  3.2480
  177SAPS   C3920247   5.958   4.787   4.109 -0.1133  0.0520  0.4916
  177SAPS   H9X20248   5.851   4.805   4.087  0.2032  0.7021 -0.5525
  177SAPS   H9Y20249   6.019   4.876   4.087 -1.3621  0.5685 -1.0491
  177SAPS  C31020250   5.969   4.748   4.250 -0.0464  0.8827 -0.1140
  177SAPS  H10X20251   6.074   4.753   4.288  0.0788  1.7994 -0.5590
  177SAPS  H10Y20252   5.939   4.642   4.269 -0.6480  0.8226 -1.3759
  177SAPS  C31120253   5.880   4.852   4.327 -0.5539 -0.3018  0.3607
  177SAPS  H11X20254   5.771   4.832   4.326 -0.3249 -1.6828  0.8128
  177SAPS  H11Y20255   5.911   4.945   4.275 -0.2132 -0.2801  0.5972
  177SAPS  C31220256   5.918   4.862   4.475  0.3242 -0.2146  0.4283
  177SAPS  H12X20257   6.027   4.884   4.473  0.1533  0.6282 -0.1122
  177SAPS  H12Y20258   5.910   4.762   4.523  1.7088 -1.0508 -0.9884
  177SAPS  C31320259   5.844   4.965   4.561 -0.4126  0.3329  0.2006
  177SAPS  H13X20260   5.738   4.944   4.537 -0.4151 -1.0577  1.2782
  177SAPS  H13Y20261   5.878   5.065   4.528  0.2504 -0.7371 -2.6601
  177SAPS  C31420262   5.865   4.953   4.710 -0.5008 -0.3758 -0.4145
  177SAPS  H14X20263   5.975   4.963   4.725 -0.0178  0.7406 -3.9343
  177SAPS  H14Y20264   5.843   4.849   4.744 -0.9386 -0.7294 -1.7308
  177SAPS  C31520265   5.807   5.063   4.796 -0.0655 -0.4993  0.2527
  177SAPS  H15X20266   5.697   5.072   4.793  0.0284  1.3220  0.9522
  177SAPS  H15Y20267   5.836   5.161   4.752  0.1017 -0.7113 -0.1203
  177SAPS  C31620268   5.841   5.067   4.946 -0.5748  0.8984  0.4106
  177SAPS  H16X20269   5.807   5.153   5.008 -3.3516  0.7599 -0.8080
  177SAPS  H16Y20270   5.952   5.077   4.951 -0.0109 -2.7796 -1.1433
  177SAPS  C31720271   5.822   4.934   5.022 -0.0028  0.5474 -0.7271
  177SAPS  H17X20272   5.864   4.845   4.970 -1.4184 -1.6982  1.7335
  177SAPS  H17Y20273   5.715   4.911   5.039  0.2481 -0.2138 -0.1121
  177SAPS  C31820274   5.893   4.942   5.164  0.2989  0.0912  0.2600
  177SAPS  H18X20275   5.856   5.033   5.215 -0.4851  0.0323 -0.1885
  177SAPS  H18Y20276   6.003   4.954   5.171  0.1469  1.6642  0.2573
  177SAPS  H18Z20277   5.863   4.858   5.229  3.8986  0.8337  3.2373
  178SAPS     N20278   6.260   3.170   3.099  0.0053 -0.2311  0.6832
  178SAPS   HN120279   6.360   3.179   3.124 -0.5724  1.7704  2.5094
  178SAPS   HN220280   6.228   3.247   3.036 -0.2229 -0.7313  0.1744
  178SAPS   HN320281   6.200   3.173   3.183 -3.3873  0.7840 -1.5481
  178SAPS   C1220282   6.224   3.042   3.036  0.1203  0.0198  0.3741
  178SAPS  H12A20283   6.116   3.046   3.029 -0.0711 -1.4221  1.9161
  178SAPS   C1320284   6.276   3.015   2.891 -0.1974  0.0453 -0.0854
  178SAPS  O13A20285   6.368   3.086   2.839  0.4870 -0.1099 -0.8706
  178SAPS  O13B20286   6.228   2.924   2.823  0.6238  0.0678  0.6244
  178SAPS   C1120287   6.272   2.924   3.130 -0.2196  0.7824  0.1507
  178SAPS  H11A20288   6.381   2.942   3.140 -0.2351  0.5441  0.7779
  178SAPS  H11B20289   6.244   2.827   3.083 -0.8164  0.2152  1.6303
  178SAPS     P20290   6.222   2.794   3.356  0.2765  0.1535 -0.0410
  178SAPS   O1320291   6.142   2.689   3.286 -0.3748 -0.1432 -0.2481
  178SAPS   O1420292   6.364   2.760   3.391 -0.0219  0.8686 -0.3246
  178SAPS   O1220293   6.226   2.926   3.266  0.7792  0.0536  0.2758
  178SAPS   O1120294   6.131   2.843   3.488  0.0860  0.0899  0.4638
  178SAPS    C120295   6.021   2.767   3.539 -0.3364 -0.3012  0.0782
  178SAPS    HA20296   5.937   2.837   3.553  1.1977  1.4441  1.0003
  178SAPS    HB20297   6.001   2.672   3.485  1.7236 -0.2685 -0.8472
  178SAPS    C220298   6.051   2.719   3.684 -0.4280 -0.8928 -0.2760
  178SAPS    HS20299   6.147   2.662   3.691  0.7272  0.8192 -1.4183
  178SAPS   O2120300   5.937   2.657   3.734  0.4886  0.7355 -0.3442
  178SAPS   C2120301   5.945   2.520   3.724  0.0933 -0.0302  0.4543
  178SAPS   O2220302   6.032   2.463   3.662 -0.2580 -0.1022  0.4877
  178SAPS   C2220303   5.821   2.463   3.791 -0.3495 -0.7730 -0.1996
  178SAPS   H2R20304   5.840   2.460   3.900 -0.0738 -1.5421 -0.2673
  178SAPS   H2S20305   5.737   2.535   3.788 -0.2252  0.1526  5.9105
  178SAPS    C320306   6.094   2.852   3.763 -0.2749  0.4834 -0.3281
  178SAPS    HX20307   6.016   2.932   3.765  0.4972  1.3183  3.1354
  178SAPS    HY20308   6.186   2.889   3.714 -0.2070  0.8375  0.0639
  178SAPS   O3120309   6.111   2.811   3.902 -0.1440  0.1060  0.5560
  178SAPS   C3120310   6.242   2.769   3.930 -0.2028  0.0007 -0.1121
  178SAPS   O3220311   6.335   2.784   3.852 -0.3307  0.1114  0.4628
  178SAPS   C3220312   6.262   2.714   4.069 -0.2297 -0.6475  0.2163
  178SAPS   H2X20313   6.372   2.726   4.085 -0.0570  0.7910 -1.7099
  178SAPS   H2Y20314   6.233   2.607   4.064  0.3039 -0.8061  0.3863
  178SAPS   C2320315   5.788   2.316   3.766  0.6606 -0.2932 -0.3802
  178SAPS   H3R20316   5.875   2.258   3.804  0.7746 -0.1691 -0.4512
  178SAPS   H3S20317   5.773   2.290   3.659 -3.4185 -0.0703  0.0031
  178SAPS   C2420318   5.651   2.270   3.829 -0.2746  0.1198 -0.3332
  178SAPS   H4R20319   5.634   2.163   3.804  1.3583 -0.3256  0.3406
  178SAPS   H4S20320   5.574   2.321   3.767 -0.2848 -2.2171 -2.4027
  178SAPS   C2520321   5.632   2.282   3.976 -0.5211  0.0849  0.1472
  178SAPS   H5R20322   5.723   2.275   4.038 -0.7063  0.6967  0.4914
  178SAPS   C2620323   5.523   2.274   4.042  0.9855  0.5994 -0.9207
  178SAPS   H6R20324   5.527   2.286   4.151 -1.0384 -0.0997 -0.7324
  178SAPS   C2720325   5.382   2.268   3.987 -0.1805 -0.2487 -0.3114
  178SAPS   H7R20326   5.355   2.160   3.989 -0.9317 -0.0834 -1.0780
  178SAPS   H7S20327   5.373   2.322   3.891 -2.0526  1.5244  0.7694
  178SAPS   C2820328   5.293   2.345   4.081 -0.0459  0.3205  0.8853
  178SAPS   H8R20329   5.296   2.454   4.068  1.7607  0.1100 -0.8320
  178SAPS   C2920330   5.224   2.291   4.181  0.1175 -0.0786  0.0210
  178SAPS   H9R20331   5.170   2.366   4.241 -0.1378  1.8615 -2.4608
  178SAPS  C21020332   5.218   2.149   4.223 -0.4519  0.4539 -0.8507
  178SAPS  H10R20333   5.192   2.139   4.330  1.9093 -0.5733 -0.3268
  178SAPS  H10S20334   5.317   2.102   4.209 -0.9732 -0.8989 -0.1203
  178SAPS  C21120335   5.102   2.067   4.156 -0.8563 -0.8743  0.3794
  178SAPS  H11R20336   5.123   2.051   4.050 -0.4203 -1.3927  0.5390
  178SAPS  C21220337   4.986   2.029   4.210 -0.0086 -0.6166 -0.0127
  178SAPS  H12R20338   4.913   1.982   4.142 -0.1328 -0.1665 -0.1913
  178SAPS  C21320339   4.934   2.062   4.348  0.1834 -0.1431  0.3053
  178SAPS  H13R20340   4.965   2.168   4.364  0.5307 -0.0103 -1.1520
  178SAPS  H13S20341   4.999   2.013   4.424  0.6214  0.7295  0.5010
  178SAPS  C21420342   4.793   2.043   4.372 -0.0667  0.2191  0.6951
  178SAPS  H14R20343   4.746   1.966   4.309  0.4336 -0.3028  0.9561
  178SAPS  C21520344   4.721   2.127   4.452 -0.0769  1.4312 -0.9488
  178SAPS  H15R20345   4.617   2.103   4.480  0.7034 -1.9959 -0.5861
  178SAPS  C21620346   4.787   2.226   4.539 -0.0419 -0.3259  0.0641
  178SAPS  H16R20347   4.836   2.303   4.475 -1.0900  0.8773  0.6746
  178SAPS  H16S20348   4.867   2.178   4.598  2.6091  1.5211 -1.7725
  178SAPS  C21720349   4.700   2.307   4.645  0.6271 -0.6446  0.4437
  178SAPS  H17R20350   4.751   2.391   4.695 -1.1812  0.7089  0.1386
  178SAPS  H17S20351   4.659   2.235   4.718  0.5931 -1.0631  0.0187
  178SAPS  C21820352   4.593   2.384   4.571 -0.6482  0.4423  0.5438
  178SAPS  H18R20353   4.529   2.302   4.531  1.3087  0.2039 -2.4379
  178SAPS  H18S20354   4.641   2.448   4.494  0.2278 -0.9254 -0.0873
  178SAPS  C21920355   4.509   2.469   4.665  0.0570 -0.7227 -0.0154
  178SAPS  H19R20356   4.465   2.534   4.586  0.0555 -1.9347 -1.0367
  178SAPS  H19S20357   4.569   2.532   4.734 -0.0256 -0.7856  0.1135
  178SAPS  C22020358   4.395   2.399   4.722  0.3072 -1.2921 -0.5057
  178SAPS  H20R20359   4.433   2.318   4.788  2.2914 -0.2561 -0.2683
  178SAPS  H20S20360   4.335   2.358   4.638  0.0261  0.0931 -1.0053
  178SAPS  H20T20361   4.332   2.460   4.790  0.3009 -0.8562 -0.8969
  178SAPS   C3320362   6.181   2.774   4.188  0.1725 -0.4751  0.3669
  178SAPS   H3X20363   6.073   2.758   4.168  0.2679 -2.2677  1.1187
  178SAPS   H3Y20364   6.196   2.882   4.210  0.4751 -0.3224 -0.5539
  178SAPS   C3420365   6.225   2.702   4.313 -0.0284  0.2126  0.5146
  178SAPS   H4X20366   6.334   2.704   4.339  0.2874 -1.5966 -0.4804
  178SAPS   H4Y20367   6.194   2.595   4.302  0.3493  0.2532 -1.3043
  178SAPS   C3520368   6.155   2.751   4.444  0.3232  0.0821  0.5481
  178SAPS   H5X20369   6.205   2.847   4.472  0.4909 -0.0308  0.6425
  178SAPS   H5Y20370   6.185   2.677   4.522 -0.7840 -2.1331 -1.0454
  178SAPS   C3620371   6.005   2.755   4.437  0.9709 -0.1834 -0.3968
  178SAPS   H6X20372   5.955   2.665   4.397 -0.2712  0.4780 -0.3803
  178SAPS   H6Y20373   5.979   2.830   4.359 -0.4469  0.4246  0.6201
  178SAPS   C3720374   5.933   2.802   4.559 -0.1193 -0.2613 -0.1771
  178SAPS   H7X20375   5.961   2.909   4.566  0.9472 -0.0392 -4.6326
  178SAPS   H7Y20376   5.959   2.756   4.657  3.6106  0.3633 -0.7210
  178SAPS   C3820377   5.776   2.808   4.543 -0.8205 -0.4253 -0.2719
  178SAPS   H8X20378   5.718   2.714   4.545 -2.0273  0.0820 -3.6712
  178SAPS   H8Y20379   5.755   2.849   4.441 -0.8699  0.0001 -0.0947
  178SAPS   C3920380   5.704   2.906   4.640 -0.5394 -0.6844  0.5605
  178SAPS   H9X20381   5.598   2.922   4.611 -0.4038  0.0307  0.4444
  178SAPS   H9Y20382   5.767   2.997   4.652 -0.2302 -0.8095 -0.0775
  178SAPS  C31020383   5.721   2.857   4.786 -0.5023  0.2835 -0.1174
  178SAPS  H10X20384   5.828   2.846   4.813 -0.8772 -1.2504  0.8847
  178SAPS  H10Y20385   5.680   2.754   4.793  0.8702 -0.4785 -2.2685
  178SAPS  C31120386   5.639   2.948   4.880  0.4154 -0.0115 -0.2917
  178SAPS  H11X20387   5.628   3.051   4.841  0.9047 -0.6270 -2.1855
  178SAPS  H11Y20388   5.688   2.957   4.979  0.3375 -0.0238 -0.2519
  178SAPS  C31220389   5.502   2.886   4.906 -0.3490  0.2332 -0.7691
  178SAPS  H12X20390   5.515   2.782   4.942 -1.8069  0.7222  1.3887
  178SAPS  H12Y20391   5.437   2.877   4.817  0.3174 -2.0672 -1.0800
  178SAPS  C31320392   5.421   2.953   5.015  0.3132 -0.3047 -0.3164
  178SAPS  H13X20393   5.405   3.053   4.968 -1.4794 -0.9469 -1.1598
  178SAPS  H13Y20394   5.480   2.968   5.108  1.3314 -1.1638 -0.8027
  178SAPS  C31420395   5.284   2.901   5.057  0.4549  0.1133  0.0369
  178SAPS  H14X20396   5.238   2.862   4.964  2.3052 -1.6986 -0.1994
  178SAPS  H14Y20397   5.217   2.983   5.089  0.4571  0.1382 -0.0225
  178SAPS  C31520398   5.282   2.788   5.160  0.1392 -0.6077 -0.6934
  178SAPS  H15X20399   5.293   2.835   5.260 -0.2997  1.1180 -1.4293
  178SAPS  H15Y20400   5.370   2.720   5.153 -0.0153 -0.8024 -0.7668
  178SAPS  C31620401   5.150   2.700   5.153 -0.5718 -0.1100 -0.5466
  178SAPS  H16X20402   5.160   2.613   5.222 -0.3307  0.9171  0.7382
  178SAPS  H16Y20403   5.139   2.659   5.050  2.0566 -2.1987 -0.1150
  178SAPS  C31720404   5.019   2.783   5.186  0.7722 -0.0700 -0.4842
  178SAPS  H17X20405   4.930   2.718   5.187 -0.0426  0.8176 -3.6906
  178SAPS  H17Y20406   4.988   2.835   5.093 -1.4528  0.0563  0.2668
  178SAPS  C31820407   5.038   2.867   5.314  0.1725  0.2539  0.1384
  178SAPS  H18X20408   4.937   2.913   5.319  0.1210  0.0771  0.6934
  178SAPS  H18Y20409   5.109   2.951   5.299  1.1431 -0.4838  0.5503
  178SAPS  H18Z20410   5.057   2.808   5.406  0.2989  1.0929  0.6603
  179SAPS     N20411   3.760   2.113   2.391  0.0160 -0.5796  0.4960
  179SAPS   HN120412   3.787   2.181   2.318  0.2613 -0.5562  0.6061
  179SAPS   HN220413   3.753   2.019   2.347  0.7479 -0.9380  1.1220
  179SAPS   HN320414   3.669   2.135   2.436 -1.0120  0.4239 -1.9455
  179SAPS   C1220415   3.879   2.118   2.475 -0.0419 -0.4459  0.1907
  179SAPS  H12A20416   3.863   2.044   2.552 -1.2810  0.9772  1.3608
  179SAPS   C1320417   4.014   2.094   2.405 -0.2154  0.2814  0.7977
  179SAPS  O13A20418   4.016   2.060   2.282 -0.1271  0.2571  0.4310
  179SAPS  O13B20419   4.121   2.117   2.467 -0.3762 -0.0386 -0.4930
  179SAPS   C1120420   3.893   2.255   2.543  0.6078 -0.0829 -1.1007
  179SAPS  H11A20421   3.897   2.323   2.455  0.9309 -1.3542 -2.0849
  179SAPS  H11B20422   3.988   2.257   2.600 -0.6777 -1.0129  1.2298
  179SAPS     P20423   3.784   2.349   2.761 -0.5337 -0.0626 -0.0478
  179SAPS   O1320424   3.918   2.359   2.816  0.0432  0.3689 -0.1556
  179SAPS   O1420425   3.723   2.476   2.731  0.0735 -0.6147 -0.1108
  179SAPS   O1220426   3.784   2.283   2.625 -0.2458 -0.0895 -0.5039
  179SAPS   O1120427   3.700   2.264   2.866 -0.0254  0.4947  0.1544
  179SAPS    C120428   3.591   2.190   2.814 -0.3412  0.0998 -1.0275
  179SAPS    HA20429   3.498   2.250   2.822 -0.1148  0.2604  0.8227
  179SAPS    HB20430   3.594   2.161   2.707  1.4088  0.5302 -1.1159
  179SAPS    C220431   3.579   2.055   2.901 -0.6055  0.1729  0.3025
  179SAPS    HS20432   3.488   1.995   2.882 -0.7239  0.0641  1.1789
  179SAPS   O2120433   3.597   2.075   3.040  0.0682 -0.1183 -0.5707
  179SAPS   C2120434   3.490   2.093   3.118 -0.2813  0.3015  0.4603
  179SAPS   O2220435   3.372   2.070   3.084 -0.2666 -0.0736 -0.3728
  179SAPS   C2220436   3.536   2.146   3.258 -0.5863  0.0892 -0.1512
  179SAPS   H2R20437   3.645   2.133   3.274 -0.4064  2.1441  0.5348
  179SAPS   H2S20438   3.521   2.255   3.270 -1.1404 -0.1246  1.2785
  179SAPS    C320439   3.682   1.958   2.841 -0.3493 -0.2655 -0.6642
  179SAPS    HX20440   3.779   2.011   2.831  0.3504 -0.8150  2.3752
  179SAPS    HY20441   3.651   1.934   2.737 -0.9080 -0.7323 -0.3985
  179SAPS   O3120442   3.682   1.834   2.912  0.2214 -0.1821  0.0405
  179SAPS   C3120443   3.793   1.816   2.986  0.1391  0.4543 -0.4344
  179SAPS   O3220444   3.880   1.897   3.005  0.1325 -0.2429  0.2017
  179SAPS   C3220445   3.783   1.680   3.054  0.3303  0.3021  0.3588
  179SAPS   H2X20446   3.885   1.635   3.055  0.2590  0.1095 -0.5604
  179SAPS   H2Y20447   3.723   1.618   2.985 -0.1412 -0.2518  1.2392
  179SAPS   C2320448   3.467   2.104   3.386 -0.4114  0.6990  0.5658
  179SAPS   H3R20449   3.438   1.997   3.385  0.3376  0.4830 -0.7430
  179SAPS   H3S20450   3.377   2.165   3.408  0.8942  1.9899  2.6842
  179SAPS   C2420451   3.553   2.131   3.512  0.1692  0.8113  0.2895
  179SAPS   H4R20452   3.646   2.071   3.501 -0.4986 -0.6069  1.9382
  179SAPS   H4S20453   3.514   2.070   3.596  0.9344 -0.2858 -0.1317
  179SAPS   C2520454   3.580   2.271   3.545  0.1682  0.0580 -0.2100
  179SAPS   H5R20455   3.639   2.325   3.469 -1.1143  0.8431 -0.6647
  179SAPS   C2620456   3.567   2.341   3.664  0.1807 -0.2298  0.4447
  179SAPS   H6R20457   3.594   2.448   3.663 -1.5583  0.2285 -0.2940
  179SAPS   C2720458   3.530   2.283   3.800  0.2508 -0.3702 -0.0920
  179SAPS   H7R20459   3.559   2.356   3.879 -3.6669 -0.5464  1.7158
  179SAPS   H7S20460   3.604   2.205   3.828  1.9668  0.2070 -2.6487
  179SAPS   C2820461   3.394   2.233   3.808  0.5955  0.4113  0.2579
  179SAPS   H8R20462   3.360   2.170   3.724  0.4360 -0.0581  0.6699
  179SAPS   C2920463   3.313   2.249   3.913 -0.0154  0.0023  0.0810
  179SAPS   H9R20464   3.215   2.199   3.917  0.2219 -0.4696  0.0000
  179SAPS  C21020465   3.336   2.329   4.040  0.1130  0.2856  0.4277
  179SAPS  H10R20466   3.427   2.392   4.034 -0.6014  1.8374  3.7035
  179SAPS  H10S20467   3.372   2.254   4.114  0.4993 -0.3834 -0.4137
  179SAPS  C21120468   3.231   2.417   4.109  0.8596  0.4807  0.0382
  179SAPS  H11R20469   3.163   2.470   4.040  0.0767 -0.2027  0.2716
  179SAPS  C21220470   3.205   2.425   4.242  0.1860  0.1830 -0.2294
  179SAPS  H12R20471   3.124   2.490   4.278 -0.5398 -1.5446  1.3801
  179SAPS  C21320472   3.283   2.353   4.352  0.2905  0.1072 -0.3481
  179SAPS  H13R20473   3.381   2.404   4.355 -0.2570  1.3032 -1.6358
  179SAPS  H13S20474   3.305   2.247   4.326  0.1024 -0.2272  0.7732
  179SAPS  C21420475   3.223   2.363   4.486 -0.3279 -0.6642 -0.1749
  179SAPS  H14R20476   3.136   2.429   4.497 -0.7625 -1.2161 -0.2291
  179SAPS  C21520477   3.267   2.292   4.597  0.9565 -0.4323 -0.3263
  179SAPS  H15R20478   3.214   2.308   4.692  0.0235 -0.8051 -0.7723
  179SAPS  C21620479   3.386   2.199   4.599  0.6369 -0.4980 -0.5053
  179SAPS  H16R20480   3.369   2.119   4.524 -1.1731  0.8516 -1.6139
  179SAPS  H16S20481   3.392   2.149   4.698  1.7213  0.6458  0.0286
  179SAPS  C21720482   3.529   2.267   4.585  0.0807 -0.1036  0.1207
  179SAPS  H17R20483   3.529   2.340   4.501 -1.3879  0.0619  0.2264
  179SAPS  H17S20484   3.614   2.199   4.567  0.9186  1.0969 -0.5844
  179SAPS  C21820485   3.570   2.354   4.703  0.0812  0.3631  0.9489
  179SAPS  H18R20486   3.499   2.436   4.729  0.8003  1.3800 -0.2250
  179SAPS  H18S20487   3.659   2.409   4.668 -0.4378  0.6024 -0.0270
  179SAPS  C21920488   3.620   2.288   4.831  0.2356 -0.6305 -1.0390
  179SAPS  H19R20489   3.701   2.215   4.807  0.0467 -1.3702  0.4604
  179SAPS  H19S20490   3.536   2.234   4.878 -1.0005  1.6750 -0.4696
  179SAPS  C22020491   3.667   2.390   4.943  0.1523 -0.2728  0.0777
  179SAPS  H20R20492   3.589   2.460   4.979  1.0825  0.0364  1.6039
  179SAPS  H20S20493   3.738   2.463   4.900 -2.2250  0.6146 -2.7190
  179SAPS  H20T20494   3.705   2.336   5.032 -3.2313 -2.4526  0.3918
  179SAPS   C3320495   3.700   1.667   3.190 -0.1673 -0.4713  0.3815
  179SAPS   H3X20496   3.678   1.559   3.198 -2.0373 -0.0560  1.5298
  179SAPS   H3Y20497   3.602   1.718   3.194  0.3055  0.6761 -1.5559
  179SAPS   C3420498   3.781   1.726   3.308  0.1024 -0.0278 -0.0522
  179SAPS   H4X20499   3.804   1.834   3.317 -0.5527  0.1359 -0.3659
  179SAPS   H4Y20500   3.877   1.669   3.307  0.5270  0.6741  0.0656
  179SAPS   C3520501   3.712   1.685   3.439 -0.5048 -0.3307  0.2381
  179SAPS   H5X20502   3.696   1.575   3.443 -1.4883 -0.1395  2.0703
  179SAPS   H5Y20503   3.609   1.726   3.446 -0.8667 -1.1796  0.0101
  179SAPS   C3620504   3.794   1.731   3.565  0.2462 -0.1005 -0.1126
  179SAPS   H6X20505   3.810   1.841   3.561 -1.1005  0.1661  1.1164
  179SAPS   H6Y20506   3.884   1.665   3.573  0.1428 -0.1290  0.9392
  179SAPS   C3720507   3.722   1.692   3.696  0.1065  0.1095  0.6071
  179SAPS   H7X20508   3.702   1.584   3.704  1.8366 -0.1483  2.3021
  179SAPS   H7Y20509   3.624   1.744   3.698 -1.2468 -2.3431  0.6749
  179SAPS   C3820510   3.806   1.723   3.825  0.9358  0.0248  0.8944
  179SAPS   H8X20511   3.842   1.827   3.815 -0.2308  0.4257  0.6612
  179SAPS   H8Y20512   3.891   1.651   3.828 -0.8769 -2.2682  0.2145
  179SAPS   C3920513   3.725   1.715   3.952  0.1566  0.3579  0.6098
  179SAPS   H9X20514   3.672   1.619   3.969 -0.0337  0.3761  0.1401
  179SAPS   H9Y20515   3.640   1.786   3.952  0.4613  0.7626  2.0147
  179SAPS  C31020516   3.812   1.741   4.081  0.6665  0.5138 -0.5441
  179SAPS  H10X20517   3.852   1.843   4.070 -0.5000  1.1926  1.0356
  179SAPS  H10Y20518   3.897   1.670   4.090  1.1802  1.3043  1.5704
  179SAPS  C31120519   3.718   1.754   4.200 -0.4037 -0.2855 -0.1674
  179SAPS  H11X20520   3.658   1.662   4.217 -1.5344 -0.2794 -3.3404
  179SAPS  H11Y20521   3.631   1.820   4.178  0.8255  1.5320  0.2345
  179SAPS  C31220522   3.779   1.814   4.320  0.0695 -0.0546 -0.9081
  179SAPS  H12X20523   3.838   1.907   4.304 -0.7873  0.4887 -0.9915
  179SAPS  H12Y20524   3.844   1.733   4.359 -1.3592 -1.4125 -1.2604
  179SAPS  C31320525   3.671   1.839   4.421  0.4399  0.4564  0.6349
  179SAPS  H13X20526   3.617   1.746   4.449  1.1364  0.4490  2.0542
  179SAPS  H13Y20527   3.603   1.903   4.361  2.8414  0.0065 -2.8187
  179SAPS  C31420528   3.717   1.911   4.546 -1.3647  0.0258 -0.1216
  179SAPS  H14X20529   3.764   2.005   4.511  0.0087 -0.1149  1.2296
  179SAPS  H14Y20530   3.800   1.863   4.603 -0.2725  1.3846 -0.5224
  179SAPS  C31520531   3.612   1.940   4.655  1.0879 -0.1694 -0.1731
  179SAPS  H15X20532   3.514   1.946   4.603  0.7591 -2.5626  0.0609
  179SAPS  H15Y20533   3.633   2.044   4.688  0.4684  0.9585 -3.0579
  179SAPS  C31620534   3.614   1.842   4.780  0.2481 -0.6688  0.2344
  179SAPS  H16X20535   3.717   1.858   4.818  1.5529  1.4268 -3.6015
  179SAPS  H16Y20536   3.599   1.744   4.731  1.1625 -1.3575  1.2936
  179SAPS  C31720537   3.507   1.866   4.883 -0.1564  0.3972 -0.0912
  179SAPS  H17X20538   3.511   1.964   4.935 -2.1606  0.4618  0.0341
  179SAPS  H17Y20539   3.516   1.785   4.958 -3.0511  1.0229  1.0523
  179SAPS  C31820540   3.357   1.844   4.832  0.3828 -0.0233  0.7491
  179SAPS  H18X20541   3.290   1.839   4.921  0.6304  0.4836  0.9677
  179SAPS  H18Y20542   3.342   1.746   4.783  3.0931 -1.3690  2.3798
  179SAPS  H18Z20543   3.332   1.929   4.766  1.2101 -0.5832 -0.2994
  180SAPS     N20544   2.691   3.837   2.282  0.1423 -0.5382  0.7882
  180SAPS   HN120545   2.616   3.775   2.245 -1.1007  0.6293  1.2553
  180SAPS   HN220546   2.781   3.792   2.307  1.2098  1.6836  1.1239
  180SAPS   HN320547   2.649   3.880   2.367 -0.3337 -2.6749  1.7278
  180SAPS   C1220548   2.712   3.953   2.186  0.1136  1.2688  0.1642
  180SAPS  H12A20549   2.806   4.003   2.207 -0.7503  3.3810 -0.7155
  180SAPS   C1320550   2.716   3.903   2.038  0.7191 -0.4805  0.2833
  180SAPS  O13A20551   2.670   3.790   2.009 -0.3724 -0.1771  0.1271
  180SAPS  O13B20552   2.737   3.990   1.956 -0.5386 -0.5595 -0.1011
  180SAPS   C1120553   2.597   4.052   2.196  0.2468  0.1091  0.8320
  180SAPS  H11A20554   2.504   3.991   2.200  0.1771 -0.0302 -1.4707
  180SAPS  H11B20555   2.595   4.108   2.100  1.6529 -1.1270  0.0395
  180SAPS     P20556   2.675   4.272   2.313  0.1323 -0.0750 -0.0087
  180SAPS   O1320557   2.818   4.260   2.270  0.2406 -0.0952  0.0664
  180SAPS   O1420558   2.591   4.368   2.243 -0.4860  0.3009 -0.1170
  180SAPS   O1220559   2.596   4.139   2.316 -0.1051  0.2241 -0.5151
  180SAPS   O1120560   2.673   4.313   2.467 -0.0619 -0.2299 -0.0545
  180SAPS    C120561   2.685   4.445   2.515 -0.6540 -0.2583 -1.0351
  180SAPS    HA20562   2.792   4.478   2.516 -0.6418 -0.2729  0.9619
  180SAPS    HB20563   2.645   4.519   2.442  0.5302  0.0456 -1.4086
  180SAPS    C220564   2.617   4.463   2.648  0.4745  0.1137 -0.6517
  180SAPS    HS20565   2.624   4.573   2.661  1.8095 -0.0791  0.4844
  180SAPS   O2120566   2.693   4.389   2.751 -0.1277 -0.2861  0.1452
  180SAPS   C2120567   2.815   4.433   2.793  0.5763 -0.9180  0.6561
  180SAPS   O2220568   2.880   4.523   2.739  0.6432  0.1927 -0.0784
  180SAPS   C2220569   2.872   4.335   2.892  0.4743 -0.3027 -0.9615
  180SAPS   H2R20570   2.882   4.241   2.835 -1.9026 -0.9894 -0.3452
  180SAPS   H2S20571   2.970   4.369   2.933 -0.1323 -1.0011  1.2402
  180SAPS    C320572   2.469   4.418   2.648  0.0932  0.0512 -0.0932
  180SAPS    HX20573   2.468   4.308   2.630 -1.2305  0.2377 -1.2562
  180SAPS    HY20574   2.420   4.454   2.556 -1.1685 -1.2808  0.0307
  180SAPS   O3120575   2.396   4.462   2.765  0.8852  0.8140  0.6023
  180SAPS   C3120576   2.386   4.368   2.854  0.4886  0.0167 -0.1411
  180SAPS   O3220577   2.433   4.254   2.850 -0.3171 -0.2701  0.9101
  180SAPS   C3220578   2.293   4.406   2.972 -0.3488 -0.6706 -0.6089
  180SAPS   H2X20579   2.234   4.315   2.997 -1.3525 -0.4274 -1.9281
  180SAPS   H2Y20580   2.210   4.474   2.941 -1.9367 -1.7593  1.0362
  180SAPS   C2320581   2.787   4.308   3.022 -0.8393  0.2487  0.5837
  180SAPS   H3R20582   2.681   4.288   2.995 -0.6179 -1.6965  1.0444
  180SAPS   H3S20583   2.785   4.396   3.089  1.5859  0.7192  0.1502
  180SAPS   C2420584   2.844   4.177   3.094 -0.0777  0.3914  0.6360
  180SAPS   H4R20585   2.941   4.214   3.134 -0.6283  0.2161  2.1993
  180SAPS   H4S20586   2.866   4.097   3.020  1.1683  0.6130  0.7412
  180SAPS   C2520587   2.756   4.131   3.214  0.0617  0.6095 -0.9667
  180SAPS   H5R20588   2.693   4.045   3.187 -0.3395 -0.7866  3.5848
  180SAPS   C2620589   2.783   4.155   3.344 -0.0764 -0.2881 -0.2349
  180SAPS   H6R20590   2.711   4.112   3.416  1.5292 -2.3793  0.2017
  180SAPS   C2720591   2.886   4.246   3.405 -0.5596  0.2402 -0.7558
  180SAPS   H7R20592   2.850   4.349   3.427  0.9568  0.9025 -1.2283
  180SAPS   H7S20593   2.974   4.262   3.340 -0.1025 -0.0746 -0.2255
  180SAPS   C2820594   2.946   4.182   3.520  0.2678 -0.0404 -0.1231
  180SAPS   H8R20595   3.030   4.113   3.507  0.5525  0.5198 -1.4145
  180SAPS   C2920596   2.926   4.207   3.647 -0.0470  0.1198 -1.0324
  180SAPS   H9R20597   2.969   4.147   3.728 -2.2213 -0.9869 -0.6075
  180SAPS  C21020598   2.836   4.318   3.701  1.1356 -0.0219 -0.1110
  180SAPS  H10R20599   2.816   4.396   3.624 -0.8622 -2.0348 -1.7680
  180SAPS  H10S20600   2.885   4.373   3.785 -1.4246 -1.9870  2.8876
  180SAPS  C21120601   2.698   4.263   3.740  0.3502 -0.1870  0.5121
  180SAPS  H11R20602   2.641   4.233   3.651  0.9763  0.3849 -0.0944
  180SAPS  C21220603   2.650   4.252   3.862 -0.1873  0.2790 -0.1774
  180SAPS  H12R20604   2.547   4.217   3.878 -0.2734  0.8212  0.5026
  180SAPS  C21320605   2.721   4.294   3.989 -0.2896 -0.2001  0.0442
  180SAPS  H13R20606   2.696   4.402   3.989 -0.8192 -0.3052 -1.2737
  180SAPS  H13S20607   2.829   4.274   3.970 -0.0976  0.6017  0.2473
  180SAPS  C21420608   2.678   4.232   4.115  0.4302  0.4921 -0.5759
  180SAPS  H14R20609   2.576   4.246   4.153 -0.1102  0.8036 -2.0611
  180SAPS  C21520610   2.751   4.143   4.183 -0.9556  0.5776  0.5541
  180SAPS  H15R20611   2.705   4.107   4.276 -3.3447  0.3367 -0.6360
  180SAPS  C21620612   2.887   4.091   4.137 -0.1938  0.7963 -0.3110
  180SAPS  H16R20613   2.898   4.079   4.027 -2.2289 -0.1198 -0.4607
  180SAPS  H16S20614   2.899   3.986   4.173  1.8517  1.3530  0.7866
  180SAPS  C21720615   3.010   4.173   4.195 -0.1806 -0.1908  0.8288
  180SAPS  H17R20616   2.992   4.279   4.169  2.1743  0.1677  0.4637
  180SAPS  H17S20617   3.105   4.147   4.144 -1.1774 -1.1573 -0.6408
  180SAPS  C21820618   3.039   4.152   4.348  0.3206  1.5776  0.0071
  180SAPS  H18R20619   3.072   4.046   4.354  0.8092  1.4655 -2.9918
  180SAPS  H18S20620   2.948   4.158   4.411  1.1493  1.5290  1.2388
  180SAPS  C21920621   3.154   4.234   4.401 -0.3250  0.2863  0.2439
  180SAPS  H19R20622   3.114   4.338   4.402 -1.2961 -0.0818  0.6807
  180SAPS  H19S20623   3.228   4.226   4.318  2.0249  0.4106  2.2011
  180SAPS  C22020624   3.223   4.206   4.536  0.1682 -0.1623 -0.0270
  180SAPS  H20R20625   3.259   4.101   4.540 -3.2489 -1.5815 -1.7057
  180SAPS  H20S20626   3.307   4.274   4.561  1.4444 -1.3556 -0.8905
  180SAPS  H20T20627   3.144   4.217   4.613 -1.4141 -4.1651 -0.8120
  180SAPS   C3320628   2.361   4.466   3.094  0.1254 -0.2839 -0.5098
  180SAPS   H3X20629   2.292   4.536   3.146 -0.5446 -0.7207 -0.8052
  180SAPS   H3Y20630   2.449   4.524   3.059 -0.7510  1.9172  0.6805
  180SAPS   C3420631   2.398   4.366   3.204  0.1664 -0.0552 -0.0701
  180SAPS   H4X20632   2.462   4.283   3.166  1.0223 -0.1268  1.4444
  180SAPS   H4Y20633   2.308   4.331   3.257 -0.3329  1.1960 -0.0587
  180SAPS   C3520634   2.481   4.431   3.325  0.4235  0.1810 -0.6959
  180SAPS   H5X20635   2.566   4.466   3.263  1.9669  0.2068  1.3174
  180SAPS   H5Y20636   2.525   4.349   3.385  0.4173 -0.1795 -1.1818
  180SAPS   C3620637   2.411   4.533   3.404  0.3033  0.3857  0.3447
  180SAPS   H6X20638   2.312   4.521   3.454  0.1517  3.0412  0.8293
  180SAPS   H6Y20639   2.390   4.618   3.335  0.0398  1.0889  1.2829
  180SAPS   C3720640   2.511   4.592   3.504 -0.9694 -0.5825 -0.4160
  180SAPS   H7X20641   2.566   4.678   3.459  1.1169 -1.8814 -0.4840
  180SAPS   H7Y20642   2.597   4.524   3.524  0.3885  1.1370 -0.1181
  180SAPS   C3820643   2.455   4.640   3.638 -0.0163 -0.1533 -0.2691
  180SAPS   H8X20644   2.345   4.650   3.626 -0.1015  0.6564  1.0943
  180SAPS   H8Y20645   2.495   4.740   3.665 -0.8266  0.4916 -1.3636
  180SAPS   C3920646   2.478   4.533   3.745 -0.1428  0.5937 -0.4462
  180SAPS   H9X20647   2.586   4.533   3.773 -0.5707 -1.2145  1.4618
  180SAPS   H9Y20648   2.448   4.434   3.707  1.5073 -0.6909  1.3959
  180SAPS  C31020649   2.410   4.547   3.884 -0.1179 -0.1577  0.0018
  180SAPS  H10X20650   2.447   4.465   3.949  1.4323 -0.1578 -0.8223
  180SAPS  H10Y20651   2.301   4.527   3.887  0.2967 -2.6013  1.1271
  180SAPS  C31120652   2.440   4.677   3.937  0.4432 -0.1580 -0.4870
  180SAPS  H11X20653   2.375   4.755   3.894  2.9027  3.1228  1.3083
  180SAPS  H11Y20654   2.548   4.692   3.918  0.3366 -0.3310 -1.2419
  180SAPS  C31220655   2.424   4.698   4.090  0.0178 -0.6266  0.1680
  180SAPS  H12X20656   2.330   4.656   4.131 -0.2028  1.4943  2.0108
  180SAPS  H12Y20657   2.410   4.807   4.107  1.2485 -0.3236 -0.6205
  180SAPS  C31320658   2.544   4.645   4.166 -0.1522  0.1640 -0.7345
  180SAPS  H13X20659   2.632   4.702   4.129 -0.9651  1.1438 -1.2292
  180SAPS  H13Y20660   2.575   4.539   4.152 -0.4267 -0.6678  3.5071
  180SAPS  C31420661   2.527   4.645   4.320 -0.0162 -0.4121 -0.3554
  180SAPS  H14X20662   2.435   4.596   4.360  0.7374 -1.8554 -0.3065
  180SAPS  H14Y20663   2.537   4.750   4.355  0.5591 -0.1917 -1.1425
  180SAPS  C31520664   2.636   4.562   4.388 -0.4295  0.5303  0.0577
  180SAPS  H15X20665   2.733   4.581   4.337 -0.8399 -0.1913 -1.0368
  180SAPS  H15Y20666   2.616   4.453   4.380  1.0815  0.2601 -0.4866
  180SAPS  C31620667   2.654   4.599   4.539  0.0228  0.0972 -0.5204
  180SAPS  H16X20668   2.682   4.707   4.540  0.1582  0.0604 -0.3454
  180SAPS  H16Y20669   2.730   4.529   4.578 -0.9768 -1.3711 -1.1107
  180SAPS  C31720670   2.535   4.582   4.630  0.4008 -0.5080 -0.0596
  180SAPS  H17X20671   2.514   4.475   4.649 -1.8731 -0.3016 -1.0808
  180SAPS  H17Y20672   2.454   4.631   4.573  2.7377 -0.2335 -3.4464
  180SAPS  C31820673   2.569   4.648   4.764  0.0755 -0.2526  0.0271
  180SAPS  H18X20674   2.675   4.641   4.796  0.6211 -1.2352 -1.8820
  180SAPS  H18Y20675   2.508   4.611   4.849 -0.0460 -0.3022 -0.0816
  180SAPS  H18Z20676   2.554   4.758   4.753  1.5552  0.2283  2.2443
  181POPC     N20677   1.863   5.916   7.203 -0.5998 -0.1407 -0.4031
  181POPC   C1220678   1.849   5.852   7.068 -0.4786 -0.7292  0.8915
  181POPC  H12A20679   1.843   5.745   7.082  0.6211 -1.0240 -0.6737
  181POPC  H12B20680   1.938   5.879   7.014 -0.6350 -1.0423  0.4698
  181POPC   C1320681   1.761   5.869   7.303 -0.0238 -0.4042 -0.2387
  181POPC  H13A20682   1.757   5.935   7.388 -1.7497  0.4681 -0.9352
  181POPC  H13B20683   1.660   5.879   7.263  0.1658 -0.1281 -0.6634
  181POPC  H13C20684   1.771   5.763   7.321 -2.8058 -0.9844 -1.4826
  181POPC   C1420685   2.002   5.888   7.256 -0.2724  0.0741  0.7045
  181POPC  H14A20686   2.023   5.949   7.343  0.0116  0.9002  0.0689
  181POPC  H14B20687   2.008   5.783   7.281  2.1065 -0.5039 -1.8087
  181POPC  H14C20688   2.087   5.906   7.193  0.2886 -1.8539  0.8302
  181POPC   C1520689   1.854   6.066   7.194  0.0127  0.2363 -0.5149
  181POPC  H15A20690   1.917   6.105   7.115 -0.6312 -1.3557 -1.8705
  181POPC  H15B20691   1.868   6.106   7.293 -0.2120  0.0048 -0.3891
  181POPC  H15C20692   1.757   6.084   7.152  0.2968  1.7614 -0.5802
  181POPC   C1120693   1.740   5.901   6.973 -0.3299 -0.3424 -0.3017
  181POPC  H11A20694   1.644   5.898   7.030  0.6810 -1.2619  1.4104
  181POPC  H11B20695   1.735   5.832   6.886  1.9869 -1.9085  0.7279
  181POPC     P20696   1.863   6.075   6.822 -0.1169 -0.2679 -0.2445
  181POPC   O1320697   1.977   5.981   6.837 -0.7846  0.0934  0.0491
  181POPC   O1420698   1.902   6.211   6.847 -0.0972 -0.2962  0.2732
  181POPC   O1220699   1.757   6.033   6.930 -0.5984  0.0044 -0.9579
  181POPC   O1120700   1.787   6.052   6.687  0.2691  0.1098  0.6766
  181POPC    C120701   1.652   6.104   6.673  0.1925  0.1381 -1.2517
  181POPC    HA20702   1.649   6.207   6.717  0.3382 -0.2100 -0.3963
  181POPC    HB20703   1.580   6.046   6.735  0.9436  1.8164  1.4130
  181POPC    C220704   1.602   6.119   6.532  0.2359 -0.1826  0.1895
  181POPC    HS20705   1.512   6.182   6.547  1.1685  1.6484 -1.4789
  181POPC   O2120706   1.581   5.989   6.482 -0.1943 -0.1860  0.1632
  181POPC   C2120707   1.459   5.940   6.504 -0.2619  0.3382  0.0516
  181POPC   O2220708   1.366   6.000   6.554  0.6713 -0.0628 -0.3067
  181POPC   C2220709   1.459   5.799   6.446 -0.0985 -0.3674 -0.1124
  181POPC   H2R20710   1.495   5.725   6.520  1.2142 -1.7277 -2.0314
  181POPC   H2S20711   1.529   5.801   6.360 -0.7790 -0.2789 -0.6747
  181POPC    C320712   1.706   6.195   6.448  0.0981  1.0257  0.7735
  181POPC    HX20713   1.801   6.138   6.459 -0.1296  0.8193  1.7705
  181POPC    HY20714   1.732   6.293   6.494  1.2101  0.2007  1.9994
  181POPC   O3120715   1.669   6.226   6.305 -0.3661 -0.2211  0.8935
  181POPC   C3120716   1.705   6.130   6.218  0.2454  0.5129  0.3020
  181POPC   O3220717   1.770   6.033   6.254  0.2911  0.7968 -0.3507
  181POPC   C3220718   1.658   6.159   6.075  0.1992  0.3013 -0.6884
  181POPC   H2X20719   1.670   6.265   6.043 -2.0915  0.7083 -0.3344
  181POPC   H2Y20720   1.548   6.144   6.075 -0.0230  0.1862  4.6495
  181POPC   C2320721   1.326   5.773   6.377  0.1446  0.1932  0.0817
  181POPC   H3R20722   1.241   5.803   6.442  1.6517  1.4565  1.5910
  181POPC   H3S20723   1.302   5.667   6.358 -1.7472  0.8737 -1.7026
  181POPC   C2420724   1.314   5.849   6.240  0.3020 -0.5846  0.5198
  181POPC   H4R20725   1.346   5.955   6.250  3.6961 -1.5521  1.1585
  181POPC   H4S20726   1.206   5.841   6.216  0.3113 -0.8407  0.5597
  181POPC   C2520727   1.378   5.774   6.122 -0.0542 -0.3495  0.1910
  181POPC   H5R20728   1.360   5.665   6.135  2.0761 -0.9755 -1.5510
  181POPC   H5S20729   1.488   5.784   6.133 -0.0954 -1.2491  1.8657
  181POPC   C2620730   1.334   5.849   6.002  0.0716  0.5554  0.6349
  181POPC   H6R20731   1.347   5.958   6.018 -1.4156  0.9648 -0.6592
  181POPC   H6S20732   1.225   5.827   6.003  0.2334 -0.3402  2.3531
  181POPC   C2720733   1.396   5.798   5.882 -0.0525 -0.8083 -1.3144
  181POPC   H7R20734   1.372   5.691   5.865  0.6215 -1.0079 -1.0438
  181POPC   H7S20735   1.506   5.796   5.894 -0.2415  0.7403  1.6345
  181POPC   C2820736   1.360   5.880   5.760  0.2541 -0.4076 -0.6705
  181POPC   H8R20737   1.407   5.978   5.779 -0.3067 -0.0190 -1.2678
  181POPC   H8S20738   1.250   5.896   5.751  0.4682  0.7027 -1.4880
  181POPC   C2920739   1.409   5.813   5.637 -0.3349  0.0313 -0.0433
  181POPC   H9120740   1.477   5.730   5.659 -0.6565  0.4419  2.9877
  181POPC  C21020741   1.422   5.880   5.518 -0.1987 -0.0117 -0.0513
  181POPC  H10120742   1.455   5.822   5.430 -0.5016 -1.1607  0.5790
  181POPC  C21120743   1.352   6.014   5.492  0.1052  0.4795 -0.2303
  181POPC  H11R20744   1.423   6.098   5.508 -0.5406  0.6254  2.3098
  181POPC  H11S20745   1.277   6.030   5.573  0.6415  0.7598  0.2146
  181POPC  C21220746   1.287   6.013   5.354  0.5198  0.1189 -0.2538
  181POPC  H12R20747   1.230   5.917   5.349 -1.1089  0.7605  3.1536
  181POPC  H12S20748   1.359   6.020   5.270  1.4804 -0.2904  0.5188
  181POPC  C21320749   1.198   6.137   5.333 -0.9730 -0.1692 -0.0833
  181POPC  H13R20750   1.124   6.146   5.415  1.0142  0.7908  1.6814
  181POPC  H13S20751   1.148   6.140   5.234  1.2634 -3.0134 -1.4503
  181POPC  C21420752   1.275   6.270   5.335  0.3448  0.5241 -0.6644
  181POPC  H14R20753   1.350   6.282   5.255 -0.6756 -0.1693 -1.7680
  181POPC  H14S20754   1.313   6.285   5.438 -0.2800  0.7512 -0.4600
  181POPC  C21520755   1.168   6.383   5.306 -0.3236  0.0431 -0.6121
  181POPC  H15R20756   1.086   6.387   5.381 -1.4108 -0.2321 -1.7528
  181POPC  H15S20757   1.106   6.366   5.215 -0.6353 -0.5443 -0.3023
  181POPC  C21620758   1.238   6.515   5.294  0.5803 -0.4908  0.2924
  181POPC  H16R20759   1.288   6.519   5.195  0.0265  0.2636  0.0318
  181POPC  H16S20760   1.313   6.536   5.373  1.4492  0.5861 -0.7797
  181POPC  C21720761   1.135   6.631   5.298 -0.8267  0.1248  0.0488
  181POPC  H17R20762   1.194   6.725   5.308  3.7810 -2.6256  2.0626
  181POPC  H17S20763   1.077   6.601   5.388  0.7343 -1.5406  0.5596
  181POPC  C21820764   1.032   6.639   5.180  0.2007  0.3316  0.1157
  181POPC  H18R20765   1.088   6.664   5.088  2.2561 -2.9656  0.2885
  181POPC  H18S20766   0.951   6.711   5.204  0.0380  0.6243 -1.2238
  181POPC  H18T20767   0.980   6.542   5.165 -0.0318  0.2780  1.2241
  181POPC   C3320768   1.727   6.073   5.969 -0.0530 -0.2823  0.3112
  181POPC   H3X20769   1.661   5.985   5.951  0.3289 -0.6300  0.5935
  181POPC   H3Y20770   1.826   6.039   6.005  0.9027 -0.1969 -2.0538
  181POPC   C3420771   1.741   6.131   5.828  0.5419  0.2183  0.0166
  181POPC   H4X20772   1.797   6.227   5.834  0.6033  0.2782 -1.3333
  181POPC   H4Y20773   1.636   6.158   5.803 -0.7266 -1.8676  2.5662
  181POPC   C3520774   1.779   6.030   5.725  0.0458  0.3069 -0.1386
  181POPC   H5X20775   1.732   5.935   5.758 -1.3657 -0.2207 -3.2513
  181POPC   H5Y20776   1.890   6.021   5.730  0.0177 -0.3328 -0.5907
  181POPC   C3620777   1.740   6.060   5.584 -0.5787 -0.1657 -0.0660
  181POPC   H6X20778   1.632   6.040   5.571 -0.3888 -0.9478 -0.5638
  181POPC   H6Y20779   1.789   5.985   5.518  3.5817  2.7211 -0.6227
  181POPC   C3720780   1.770   6.205   5.534 -0.2660  1.0586  0.8072
  181POPC   H7X20781   1.879   6.223   5.523  0.2608 -2.8084 -2.9792
  181POPC   H7Y20782   1.706   6.268   5.600 -2.3021 -0.0194 -0.0753
  181POPC   C3820783   1.708   6.215   5.400  0.0092 -0.4655  0.3229
  181POPC   H8X20784   1.600   6.193   5.408  0.3096 -3.0900 -1.5269
  181POPC   H8Y20785   1.755   6.139   5.333  0.9048 -0.1815  0.6159
  181POPC   C3920786   1.728   6.345   5.320  0.5407 -0.3808 -0.2503
  181POPC   H9X20787   1.837   6.365   5.310  0.3521  0.1525 -1.4356
  181POPC   H9Y20788   1.692   6.422   5.391  1.1571 -1.9339  1.8378
  181POPC  C31020789   1.640   6.356   5.199 -0.2000  0.9094  0.1949
  181POPC  H10X20790   1.535   6.329   5.223  0.0874 -1.7589 -1.1778
  181POPC  H10Y20791   1.683   6.287   5.123  0.5539  0.0560  1.3575
  181POPC  C31120792   1.643   6.486   5.118 -0.0826 -1.2211 -0.6532
  181POPC  H11X20793   1.597   6.563   5.183  1.1967  0.6561 -1.8683
  181POPC  H11Y20794   1.572   6.482   5.032 -1.8413  2.4058  0.4445
  181POPC  C31220795   1.781   6.538   5.075  0.3177 -0.3887 -0.3893
  181POPC  H12X20796   1.836   6.461   5.018  2.6568  1.6651 -1.1019
  181POPC  H12Y20797   1.837   6.562   5.167 -0.0673  1.9185 -0.6892
  181POPC  C31320798   1.782   6.677   5.016  0.3404  0.1588  0.5723
  181POPC  H13X20799   1.744   6.756   5.084 -0.7752 -1.0664  1.4071
  181POPC  H13Y20800   1.712   6.681   4.930  0.7155 -3.1942 -0.0155
  181POPC  C31420801   1.925   6.725   4.989 -0.8364 -0.0772 -0.1347
  181POPC  H14X20802   1.983   6.660   4.919  0.2434  2.1408 -1.4334
  181POPC  H14Y20803   1.974   6.739   5.087 -0.0207  1.2675 -0.6995
  181POPC  C31520804   1.909   6.861   4.914  0.3999 -0.6721 -0.5440
  181POPC  H15X20805   2.003   6.920   4.922  0.0649  0.0325 -1.6127
  181POPC  H15Y20806   1.829   6.917   4.967 -0.0427 -1.8966  0.1241
  181POPC  C31620807   1.893   6.853   4.760  0.2064  0.1670  0.4452
  181POPC  H16X20808   1.837   6.764   4.724  2.1261 -0.1583 -2.0560
  181POPC  H16Y20809   1.991   6.840   4.710 -0.3291  0.5098 -0.7208
  181POPC  H16Z20810   1.850   6.952   4.733 -0.8224  0.0946  1.7059
  182POPC     N20811   4.862   2.906   7.252  0.3651  0.3514 -0.0655
  182POPC   C1220812   4.932   3.031   7.200  0.2920  0.0280  0.4215
  182POPC  H12A20813   5.035   3.007   7.175 -0.2526 -0.9114 -1.0493
  182POPC  H12B20814   4.944   3.096   7.286 -0.4034  1.2384 -0.3765
  182POPC   C1320815   4.728   2.932   7.313  0.0052 -0.5905 -0.8899
  182POPC  H13A20816   4.682   2.853   7.370  0.0050 -0.3278 -0.5244
  182POPC  H13B20817   4.732   3.020   7.375 -1.9854 -0.1299 -1.3328
  182POPC  H13C20818   4.659   2.942   7.230  0.4679 -1.9814 -1.4906
  182POPC   C1420819   4.847   2.807   7.147  0.0234 -0.3929  0.0732
  182POPC  H14A20820   4.787   2.723   7.180 -1.1594  0.3828 -0.0309
  182POPC  H14B20821   4.803   2.843   7.055 -1.1545 -2.2299 -0.1325
  182POPC  H14C20822   4.944   2.764   7.128 -0.0676 -0.2529 -0.7180
  182POPC   C1520823   4.947   2.849   7.364  0.1679 -0.1213  0.1183
  182POPC  H15A20824   4.903   2.760   7.408  1.6758  0.1269  2.2763
  182POPC  H15B20825   4.955   2.913   7.451 -1.7679  0.4531 -0.0616
  182POPC  H15C20826   5.046   2.827   7.330  0.3849  1.0584 -0.0562
  182POPC   C1120827   4.866   3.106   7.085 -0.8694  0.1355 -0.6247
  182POPC  H11A20828   4.824   3.035   7.010 -0.6477 -0.3633 -0.2840
  182POPC  H11B20829   4.940   3.167   7.029 -0.5955 -0.4493 -0.9150
  182POPC     P20830   4.789   3.320   7.197 -0.0765 -0.2055 -0.3315
  182POPC   O1320831   4.915   3.309   7.270 -0.1155 -0.1441  0.6061
  182POPC   O1420832   4.668   3.363   7.280 -0.4989  0.0284 -0.6260
  182POPC   O1220833   4.757   3.183   7.136 -0.1288  0.4561 -0.4111
  182POPC   O1120834   4.808   3.423   7.078  0.0513  0.4915 -0.7119
  182POPC    C120835   4.760   3.558   7.077 -0.2914 -0.2284  0.1950
  182POPC    HA20836   4.824   3.616   7.007 -2.0366  0.6640 -0.7336
  182POPC    HB20837   4.772   3.601   7.179  0.8860 -0.1212  0.0280
  182POPC    C220838   4.615   3.578   7.032  0.0586 -0.4164  0.2446
  182POPC    HS20839   4.559   3.515   7.105 -2.4976  0.2134 -1.0725
  182POPC   O2120840   4.618   3.531   6.897  0.1621  0.2822 -0.0415
  182POPC   C2120841   4.556   3.417   6.864  0.5650  0.6448  0.4765
  182POPC   O2220842   4.475   3.360   6.936 -0.0163  0.5290 -0.1512
  182POPC   C2220843   4.613   3.370   6.733 -0.0642 -0.7230  0.5338
  182POPC   H2R20844   4.647   3.454   6.669 -0.4968 -2.2073 -1.7997
  182POPC   H2S20845   4.528   3.322   6.679  0.4144 -1.8114  0.7145
  182POPC    C320846   4.569   3.726   7.039 -0.2769  0.2156  0.3612
  182POPC    HX20847   4.562   3.763   7.144  2.2008  0.4654  0.5136
  182POPC    HY20848   4.478   3.726   6.976 -0.6532 -1.3388  0.8647
  182POPC   O3120849   4.674   3.792   6.971  0.3295 -0.3680  0.1132
  182POPC   C3120850   4.644   3.891   6.885 -0.2604  0.0075  0.5865
  182POPC   O3220851   4.534   3.934   6.862  0.2792 -0.5081  0.1419
  182POPC   C3220852   4.770   3.928   6.806 -0.0735  0.2056  0.3857
  182POPC   H2X20853   4.836   3.849   6.766  0.1643  0.3451  0.4989
  182POPC   H2Y20854   4.835   3.974   6.884 -1.9532 -0.8647  2.6847
  182POPC   C2320855   4.737   3.274   6.754 -0.1205 -0.8031 -0.3607
  182POPC   H3R20856   4.733   3.210   6.845 -0.6670  0.4050  0.4947
  182POPC   H3S20857   4.818   3.346   6.778 -0.3774 -0.5994 -0.0923
  182POPC   C2420858   4.772   3.178   6.642  0.1293  0.2027 -0.0729
  182POPC   H4R20859   4.677   3.125   6.620 -0.3943  0.4799  1.3792
  182POPC   H4S20860   4.840   3.101   6.684  2.0571  1.6387 -0.4422
  182POPC   C2520861   4.826   3.248   6.512 -0.3079 -0.1321  0.0159
  182POPC   H5R20862   4.748   3.311   6.464  0.5585  2.4703  1.8531
  182POPC   H5S20863   4.857   3.164   6.446 -0.8176 -1.4624  1.4070
  182POPC   C2620864   4.945   3.342   6.540 -1.3336  0.0081 -0.3448
  182POPC   H6R20865   5.014   3.285   6.605  0.5391  2.4543 -0.0578
  182POPC   H6S20866   4.902   3.430   6.592 -1.3311 -1.0350  1.4871
  182POPC   C2720867   5.016   3.396   6.417  0.4647  0.0403 -1.0080
  182POPC   H7R20868   5.011   3.323   6.333  0.6027 -1.1061 -0.0621
  182POPC   H7S20869   5.117   3.421   6.456 -0.8628  1.3465  1.8196
  182POPC   C2820870   4.940   3.520   6.361  0.8946 -0.0632 -0.0994
  182POPC   H8R20871   4.915   3.596   6.439  0.1973  0.2613 -0.6282
  182POPC   H8S20872   4.839   3.492   6.323  0.7170  0.9568 -0.3940
  182POPC   C2920873   5.032   3.583   6.258 -0.0393 -0.8591 -0.0363
  182POPC   H9120874   5.130   3.620   6.294 -1.3924  4.2304 -0.8078
  182POPC  C21020875   5.011   3.600   6.126 -0.1212 -0.8448 -0.5475
  182POPC  H10120876   5.087   3.647   6.063 -0.2341  0.0407 -0.0460
  182POPC  C21120877   4.888   3.570   6.054  0.1799 -0.5250  0.7654
  182POPC  H11R20878   4.819   3.656   6.062  1.4016  0.3846  1.9436
  182POPC  H11S20879   4.832   3.490   6.107 -0.0640 -0.7604  0.1571
  182POPC  C21220880   4.923   3.513   5.907  0.0447 -0.1556  0.2045
  182POPC  H12R20881   4.828   3.488   5.856 -0.0486 -0.4978  0.5448
  182POPC  H12S20882   4.989   3.425   5.923  0.3598  0.1292  0.4919
  182POPC  C21320883   4.987   3.613   5.811 -0.3839  0.4403 -0.8925
  182POPC  H13R20884   5.088   3.633   5.854 -1.0648  1.8244  0.1498
  182POPC  H13S20885   4.933   3.710   5.809  1.4140  1.4936 -2.1868
  182POPC  C21420886   5.000   3.555   5.675 -0.0306 -0.0101  0.4952
  182POPC  H14R20887   4.900   3.515   5.647 -0.0132 -2.3538  3.2891
  182POPC  H14S20888   5.067   3.466   5.676  0.8747  0.6504  1.7390
  182POPC  C21520889   5.041   3.660   5.569  0.2218  0.0030  0.0839
  182POPC  H15R20890   5.133   3.697   5.619  1.4947 -3.0682  0.1875
  182POPC  H15S20891   4.964   3.740   5.575 -1.9539 -1.9344 -0.6172
  182POPC  C21620892   5.076   3.618   5.428  0.2816  0.4387  0.1240
  182POPC  H16R20893   4.995   3.555   5.386 -0.3970  0.5555  1.2118
  182POPC  H16S20894   5.174   3.566   5.422  0.3610  0.6464 -0.4082
  182POPC  C21720895   5.088   3.738   5.339  0.5463  0.0292  0.8239
  182POPC  H17R20896   5.151   3.818   5.384  2.6212 -0.4973 -0.9645
  182POPC  H17S20897   4.984   3.777   5.330  0.8912  0.7718 -0.0827
  182POPC  C21820898   5.150   3.705   5.205  0.1457 -0.2479  0.1121
  182POPC  H18R20899   5.257   3.681   5.225 -0.3529 -1.9494  0.9165
  182POPC  H18S20900   5.142   3.792   5.136  1.0577  0.2564  0.6104
  182POPC  H18T20901   5.092   3.623   5.159  2.1386 -0.8498 -1.5002
  182POPC   C3320902   4.720   4.018   6.684 -0.4463 -0.1749  0.7461
  182POPC   H3X20903   4.810   4.061   6.635 -2.1287  1.0949 -1.4377
  182POPC   H3Y20904   4.655   4.102   6.716 -0.0500  0.2600  0.4201
  182POPC   C3420905   4.656   3.933   6.576  0.3756  0.1589  0.1471
  182POPC   H4X20906   4.571   3.873   6.617  0.4996 -0.9779 -1.1645
  182POPC   H4Y20907   4.725   3.858   6.532  1.0882  1.0451 -0.2690
  182POPC   C3520908   4.604   4.014   6.452  0.0284 -0.1003  0.3765
  182POPC   H5X20909   4.581   4.113   6.496  0.5030 -0.0032  0.4151
  182POPC   H5Y20910   4.510   3.975   6.407 -0.2150  2.6993 -1.8469
  182POPC   C3620911   4.703   4.052   6.335 -0.6347 -0.2055 -0.7042
  182POPC   H6X20912   4.792   4.094   6.388 -0.5330 -1.6260  0.3212
  182POPC   H6Y20913   4.664   4.132   6.270 -1.9413  0.7672  1.2008
  182POPC   C3720914   4.746   3.933   6.256  0.2297 -0.1531 -0.2325
  182POPC   H7X20915   4.654   3.873   6.239 -0.4619  1.1898 -1.4128
  182POPC   H7Y20916   4.822   3.885   6.321  1.1547  1.7611  0.1859
  182POPC   C3820917   4.809   3.972   6.126  0.3545 -0.0145  0.3333
  182POPC   H8X20918   4.889   3.901   6.095  1.1726  0.8301  0.4968
  182POPC   H8Y20919   4.858   4.070   6.143  0.0017  0.2867 -0.3223
  182POPC   C3920920   4.712   3.964   6.008 -0.5300 -0.3460 -0.6219
  182POPC   H9X20921   4.633   4.041   6.020  0.4667  0.6481 -0.2021
  182POPC   H9Y20922   4.670   3.862   6.001 -0.1711 -0.5734  0.3278
  182POPC  C31020923   4.799   3.996   5.879 -0.0352 -0.0788 -0.1787
  182POPC  H10X20924   4.852   3.900   5.859 -1.1394 -0.9455  0.8597
  182POPC  H10Y20925   4.876   4.071   5.907  1.8581 -2.4252  1.3006
  182POPC  C31120926   4.717   4.046   5.765 -0.1720 -0.5280 -0.0081
  182POPC  H11X20927   4.663   4.138   5.797 -1.5731 -0.7770 -1.5228
  182POPC  H11Y20928   4.634   3.974   5.745 -0.7226  0.2039 -0.4349
  182POPC  C31220929   4.802   4.084   5.645 -0.7184  0.5683  0.6676
  182POPC  H12X20930   4.859   3.994   5.615 -1.2395  0.4168  0.1171
  182POPC  H12Y20931   4.867   4.172   5.668 -0.7826  1.2851 -1.6111
  182POPC  C31320932   4.713   4.122   5.525 -0.2356  0.3773 -0.1348
  182POPC  H13X20933   4.653   4.207   5.565 -0.4408  0.0399  0.2891
  182POPC  H13Y20934   4.638   4.043   5.500 -0.4053  0.4076  0.2738
  182POPC  C31420935   4.781   4.174   5.397 -0.1485  0.0481 -0.7331
  182POPC  H14X20936   4.825   4.275   5.405  1.7508 -0.6404 -1.6734
  182POPC  H14Y20937   4.703   4.195   5.320 -1.6653  0.5958  0.8939
  182POPC  C31520938   4.894   4.079   5.356 -0.4419 -0.5941 -0.2886
  182POPC  H15X20939   4.858   3.975   5.344  1.5820 -1.3418 -0.3018
  182POPC  H15Y20940   4.976   4.080   5.432 -1.2311  0.7388  0.5851
  182POPC  C31620941   4.964   4.124   5.228  0.2377  0.1820  0.3387
  182POPC  H16X20942   5.017   4.218   5.253 -2.0175  1.2805  1.3225
  182POPC  H16Y20943   4.884   4.132   5.151 -0.3164  1.0340  0.9869
  182POPC  H16Z20944   5.037   4.044   5.205 -0.3888 -1.1118  2.5728
  183POPC     N20945   1.157   1.332   6.886  0.0877 -0.0711  0.8236
  183POPC   C1220946   1.126   1.221   6.983 -0.7772 -0.3171  0.4678
  183POPC  H12A20947   1.062   1.265   7.058 -0.2724  0.1244  0.6415
  183POPC  H12B20948   1.220   1.196   7.031 -0.3945 -0.4661 -0.3418
  183POPC   C1320949   1.033   1.407   6.839  0.3510  0.6226 -0.4910
  183POPC  H13A20950   1.003   1.468   6.923 -0.0030  1.5612 -1.2831
  183POPC  H13B20951   1.044   1.486   6.767  2.2083  0.3117 -0.5872
  183POPC  H13C20952   0.955   1.337   6.813  1.4064 -1.5141  1.6701
  183POPC   C1420953   1.251   1.429   6.961 -0.5359 -0.0874  0.2709
  183POPC  H14A20954   1.347   1.381   6.961  1.2867  3.1743  2.3317
  183POPC  H14B20955   1.259   1.521   6.906 -1.9864  2.4641  3.8745
  183POPC  H14C20956   1.219   1.438   7.064 -3.2316 -0.0213 -0.4869
  183POPC   C1520957   1.221   1.279   6.764 -0.0435 -0.5535 -0.0519
  183POPC  H15A20958   1.300   1.209   6.787  0.5172  0.1807  0.3036
  183POPC  H15B20959   1.260   1.359   6.703 -0.8700  0.1339  0.2996
  183POPC  H15C20960   1.144   1.227   6.710 -0.1437 -2.3375  1.7113
  183POPC   C1120961   1.055   1.093   6.933  0.3711  0.4269  0.4016
  183POPC  H11A20962   1.029   1.027   7.019  0.5209 -0.1247  0.0286
  183POPC  H11B20963   1.128   1.036   6.872 -1.6681  0.2778 -2.0326
  183POPC     P20964   0.888   1.018   6.763 -0.0778  0.1437 -0.6030
  183POPC   O1320965   0.844   0.908   6.845 -0.2234  0.2442 -0.4738
  183POPC   O1420966   0.986   0.985   6.658 -0.0875 -0.2493 -0.4234
  183POPC   O1220967   0.945   1.128   6.852 -0.0478 -0.1500 -0.0319
  183POPC   O1120968   0.759   1.070   6.690  0.2790 -0.5704  0.4887
  183POPC    C120969   0.789   1.175   6.594 -0.1772 -0.2335 -0.1453
  183POPC    HA20970   0.798   1.124   6.496 -0.6325 -1.7760  0.5684
  183POPC    HB20971   0.870   1.245   6.623 -0.1191  0.7159 -2.4139
  183POPC    C220972   0.673   1.276   6.606 -0.4311  0.0798  0.6925
  183POPC    HS20973   0.629   1.268   6.707 -0.2372 -1.4131  0.6740
  183POPC   O2120974   0.573   1.238   6.509  0.6436  0.1238 -0.4815
  183POPC   C2120975   0.456   1.309   6.516 -0.7630  0.1436  0.4681
  183POPC   O2220976   0.426   1.386   6.604  0.9468  0.0163  0.1171
  183POPC   C2220977   0.363   1.259   6.405  0.7036 -0.5289 -0.5288
  183POPC   H2R20978   0.271   1.321   6.405 -0.4891 -2.2527 -0.4383
  183POPC   H2S20979   0.331   1.156   6.429 -0.4148  0.0208  0.4899
  183POPC    C320980   0.730   1.418   6.587  0.4969 -0.2789  0.6574
  183POPC    HX20981   0.808   1.456   6.655  0.4591  1.0542 -0.0029
  183POPC    HY20982   0.645   1.487   6.609  0.3254 -0.9456  2.2315
  183POPC   O3120983   0.765   1.447   6.452  0.8181  0.0037  0.1973
  183POPC   C3120984   0.893   1.453   6.427  0.5427  0.5795 -0.6183
  183POPC   O3220985   0.981   1.468   6.504 -0.2392  0.5704  0.4838
  183POPC   C3220986   0.918   1.429   6.275  0.2461  0.4615 -0.5570
  183POPC   H2X20987   0.829   1.469   6.223  0.6011  0.2464 -1.3321
  183POPC   H2Y20988   0.913   1.319   6.259 -1.5964  0.3633  0.4347
  183POPC   C2320989   0.435   1.279   6.268  0.2624 -0.1271  0.6399
  183POPC   H3R20990   0.376   1.242   6.181  0.6413 -0.9171  0.7017
  183POPC   H3S20991   0.528   1.217   6.266 -0.5449 -1.3630 -0.3689
  183POPC   C2420992   0.472   1.426   6.230  0.2181  0.3014 -0.0140
  183POPC   H4R20993   0.554   1.463   6.296 -0.5255  2.1992 -0.0903
  183POPC   H4S20994   0.386   1.497   6.227  0.4088  0.5735  0.5832
  183POPC   C2520995   0.535   1.440   6.093  0.2583  0.2649  0.4451
  183POPC   H5R20996   0.467   1.400   6.015  1.1286  0.3700 -0.3936
  183POPC   H5S20997   0.630   1.383   6.083  0.5360  1.0152 -1.6333
  183POPC   C2620998   0.563   1.582   6.048 -0.2518  0.7271 -0.4779
  183POPC   H6R20999   0.614   1.641   6.128 -0.0129 -0.4549  0.2615
  183POPC   H6S21000   0.470   1.633   6.016 -1.2643 -0.6007  0.2131
  183POPC   C2721001   0.658   1.584   5.927 -0.0918 -0.4899 -0.1217
  183POPC   H7R21002   0.602   1.526   5.851 -4.2942  0.0952  2.2001
  183POPC   H7S21003   0.753   1.535   5.956 -0.9819 -2.5149 -0.4718
  183POPC   C2821004   0.670   1.717   5.857  0.1055  0.2051  0.0085
  183POPC   H8R21005   0.736   1.787   5.912  3.4894  0.1011 -3.4690
  183POPC   H8S21006   0.566   1.755   5.853  0.1657  0.3921 -3.9124
  183POPC   C2921007   0.731   1.725   5.717 -0.8269 -0.2890 -0.0563
  183POPC   H9121008   0.661   1.685   5.642 -0.7481 -0.0983 -0.2348
  183POPC  C21021009   0.846   1.787   5.678  0.6203  0.4088  0.2849
  183POPC  H10121010   0.878   1.789   5.573  0.2467  1.1696  0.1835
  183POPC  C21121011   0.966   1.833   5.768  0.2860 -0.0720 -0.8112
  183POPC  H11R21012   1.062   1.779   5.750  1.6631  1.2203  2.0782
  183POPC  H11S21013   0.941   1.825   5.875 -0.4697  0.5424 -0.9329
  183POPC  C21221014   1.003   1.983   5.755  0.0259  0.3822 -0.0474
  183POPC  H12R21015   1.071   2.017   5.835 -1.7793  0.5468  1.4832
  183POPC  H12S21016   0.911   2.043   5.771 -0.9390 -1.3965  1.4327
  183POPC  C21321017   1.066   2.031   5.625  0.3958 -0.3942 -0.0012
  183POPC  H13R21018   1.017   1.981   5.539  1.6270 -1.8060  0.0750
  183POPC  H13S21019   1.174   2.004   5.624  0.5239  0.0181  0.9731
  183POPC  C21421020   1.060   2.184   5.620 -0.5887 -0.6652  1.3340
  183POPC  H14R21021   1.117   2.232   5.703  1.0035  0.1445 -0.1582
  183POPC  H14S21022   0.956   2.221   5.630 -0.5203 -0.3536  0.9663
  183POPC  C21521023   1.116   2.240   5.478 -0.4903  0.2661  0.3038
  183POPC  H15R21024   1.059   2.191   5.395  0.8799  0.0066 -0.5112
  183POPC  H15S21025   1.225   2.224   5.464  0.1886  2.0588  2.8274
  183POPC  C21621026   1.095   2.390   5.469  0.5423  0.4483 -0.0532
  183POPC  H16R21027   1.144   2.440   5.555  2.0999 -0.2467 -0.5102
  183POPC  H16S21028   0.986   2.406   5.486  0.2425  0.8304 -2.1419
  183POPC  C21721029   1.132   2.429   5.331  0.0941  0.6388  0.3210
  183POPC  H17R21030   1.093   2.353   5.260  1.0746  0.8597 -0.4696
  183POPC  H17S21031   1.240   2.409   5.316 -0.4127 -1.1138 -1.4753
  183POPC  C21821032   1.105   2.580   5.285  0.0775  0.4483 -0.7860
  183POPC  H18R21033   1.144   2.602   5.183  0.1386 -0.1669 -0.8970
  183POPC  H18S21034   1.159   2.652   5.351  0.1642  0.7046 -1.1323
  183POPC  H18T21035   0.996   2.601   5.290  0.0186  0.0437 -0.2502
  183POPC   C3321036   1.046   1.489   6.218  0.1082 -0.1803  0.5219
  183POPC   H3X21037   1.135   1.426   6.235  0.2945 -0.2818 -0.6805
  183POPC   H3Y21038   1.077   1.580   6.273  1.3050  1.1486 -2.1514
  183POPC   C3421039   1.045   1.525   6.065  0.7310  0.0552 -0.2491
  183POPC   H4X21040   1.146   1.563   6.038  0.7108 -0.5074 -1.1773
  183POPC   H4Y21041   0.970   1.606   6.051  0.4399 -0.2910 -0.7415
  183POPC   C3521042   1.000   1.410   5.977  0.2442  0.8009  0.3587
  183POPC   H5X21043   0.905   1.361   6.008  1.1125  0.2342  2.3058
  183POPC   H5Y21044   1.080   1.333   5.969 -0.0793  0.4124  0.7959
  183POPC   C3621045   1.007   1.464   5.835  0.0050 -0.4669 -0.3978
  183POPC   H6X21046   1.108   1.504   5.815 -0.2683  2.4775  2.9383
  183POPC   H6Y21047   0.935   1.549   5.830 -2.8463 -2.7100 -0.4130
  183POPC   C3721048   0.964   1.365   5.725 -0.3471  0.4202  0.3573
  183POPC   H7X21049   0.853   1.363   5.717 -0.4577  1.9604  1.1508
  183POPC   H7Y21050   0.990   1.260   5.751 -1.2680 -0.5284 -2.2848
  183POPC   C3821051   1.022   1.418   5.591 -0.8232  0.2445 -1.2202
  183POPC   H8X21052   1.128   1.389   5.575 -0.4754  1.9405 -2.2449
  183POPC   H8Y21053   1.007   1.528   5.595 -2.1933  0.0571 -0.6602
  183POPC   C3921054   0.936   1.357   5.478  0.7628  0.1565 -0.2544
  183POPC   H9X21055   0.827   1.375   5.488  0.4132 -2.0624  0.6640
  183POPC   H9Y21056   0.944   1.246   5.479  0.3920  0.1171 -1.0117
  183POPC  C31021057   0.986   1.396   5.337  0.0304 -0.2560  0.4254
  183POPC  H10X21058   0.943   1.324   5.265  2.1300 -1.4661  0.3106
  183POPC  H10Y21059   1.093   1.377   5.316 -0.4297 -0.7098 -1.7371
  183POPC  C31121060   0.940   1.542   5.288 -0.4603  0.4902 -0.3204
  183POPC  H11X21061   1.009   1.610   5.344 -0.6406  0.1677  0.3073
  183POPC  H11Y21062   0.840   1.560   5.333  0.2474  0.7246  1.2531
  183POPC  C31221063   0.959   1.560   5.139 -0.1460 -0.1144  0.3897
  183POPC  H12X21064   0.920   1.658   5.104  0.4627 -0.5978 -1.7897
  183POPC  H12Y21065   0.892   1.483   5.094 -0.5675  0.8724 -0.7138
  183POPC  C31321066   1.106   1.543   5.090  0.0515 -0.4592 -0.1913
  183POPC  H13X21067   1.154   1.451   5.129  1.6416  0.7326  0.7636
  183POPC  H13Y21068   1.167   1.629   5.123 -0.6415 -0.3126  0.7573
  183POPC  C31421069   1.111   1.557   4.933 -0.1464 -0.3384 -0.6671
  183POPC  H14X21070   1.072   1.659   4.915  0.7732  0.0421 -0.5642
  183POPC  H14Y21071   1.034   1.489   4.889 -0.3298 -1.8272  1.7463
  183POPC  C31521072   1.247   1.541   4.873 -0.0908 -0.0988  0.1315
  183POPC  H15X21073   1.285   1.437   4.878 -3.3063 -1.3896 -0.2341
  183POPC  H15Y21074   1.323   1.605   4.924 -1.0800 -0.8091  2.6156
  183POPC  C31621075   1.245   1.585   4.728  0.7213  0.1447  0.4856
  183POPC  H16X21076   1.154   1.551   4.675 -0.0942  1.5224  0.9516
  183POPC  H16Y21077   1.333   1.546   4.672 -0.4213  0.4174 -1.5715
  183POPC  H16Z21078   1.256   1.695   4.716 -1.0106  0.2772 -0.1584
  184POPC     N21079   1.838   3.119   7.448  0.2251 -0.3982 -0.2927
  184POPC   C1221080   1.959   3.028   7.421  0.1570 -0.5163 -0.0228
  184POPC  H12A21081   2.046   3.091   7.406 -0.6088  0.5902  0.0927
  184POPC  H12B21082   1.938   2.982   7.325  0.7522  0.7604 -0.7969
  184POPC   C1321083   1.712   3.039   7.445  0.5123 -0.4820  0.2390
  184POPC  H13A21084   1.633   3.107   7.474  0.8641 -0.0457  0.1950
  184POPC  H13B21085   1.682   2.994   7.352  1.6659 -0.7930  0.0122
  184POPC  H13C21086   1.713   2.962   7.520  1.4505  0.3413  1.1070
  184POPC   C1421087   1.857   3.178   7.582 -0.0102  0.1962 -0.3321
  184POPC  H14A21088   1.946   3.239   7.580 -0.9451  1.7641  1.7183
  184POPC  H14B21089   1.774   3.243   7.609 -1.0823 -0.5843 -1.6032
  184POPC  H14C21090   1.876   3.102   7.656  2.1680  0.2087 -0.8300
  184POPC   C1521091   1.836   3.233   7.352 -0.4155 -0.7045 -0.8655
  184POPC  H15A21092   1.820   3.197   7.252 -1.0011 -0.6301 -0.8012
  184POPC  H15B21093   1.933   3.282   7.348 -1.5712  1.8694  0.1566
  184POPC  H15C21094   1.765   3.311   7.377  2.6327  1.9907  0.2305
  184POPC   C1121095   1.994   2.920   7.529  0.3424  0.0713  0.0966
  184POPC  H11A21096   2.018   2.976   7.622  1.1912 -1.4524  0.8429
  184POPC  H11B21097   2.089   2.872   7.495  0.2840  0.3436 -0.4708
  184POPC     P21098   1.866   2.706   7.483 -0.4319  0.0376  0.1684
  184POPC   O1321099   1.738   2.638   7.526  0.6114  0.6853 -0.1738
  184POPC   O1421100   1.982   2.617   7.498 -0.0642 -0.0093 -0.3816
  184POPC   O1221101   1.888   2.834   7.566  0.0358  0.2402 -0.3417
  184POPC   O1121102   1.872   2.756   7.333 -0.0377  0.1376 -0.0085
  184POPC    C121103   1.748   2.779   7.258 -0.3428  0.2052 -0.7893
  184POPC    HA21104   1.762   2.859   7.182 -1.2080  1.4893  0.3610
  184POPC    HB21105   1.663   2.801   7.325  0.6436 -0.3714  0.6979
  184POPC    C221106   1.700   2.652   7.173 -0.3302 -0.0470 -0.2967
  184POPC    HS21107   1.673   2.577   7.251 -1.8243  0.1262 -0.6116
  184POPC   O2121108   1.802   2.605   7.083 -0.2609  0.1041 -0.4050
  184POPC   C2121109   1.769   2.504   7.009  0.0594  0.0603  0.6908
  184POPC   O2221110   1.674   2.430   7.030  0.2833 -0.2353 -0.4033
  184POPC   C2221111   1.882   2.475   6.904 -0.4304  0.0296  0.4355
  184POPC   H2R21112   1.942   2.384   6.927 -1.3009 -0.2238  1.8456
  184POPC   H2S21113   1.948   2.564   6.912 -0.7302  0.2831  0.1009
  184POPC    C321114   1.577   2.692   7.097 -0.1951  0.5817  0.4079
  184POPC    HX21115   1.521   2.758   7.168  1.4346  2.3565  0.1209
  184POPC    HY21116   1.506   2.612   7.069  1.6798 -0.9343 -0.2023
  184POPC   O3121117   1.607   2.787   6.989 -0.2788  0.7191 -0.2837
  184POPC   C3121118   1.527   2.776   6.882 -1.0417 -0.2161  0.7306
  184POPC   O3221119   1.436   2.699   6.868  0.1635  0.1495 -0.2466
  184POPC   C3221120   1.561   2.898   6.797  0.8799 -0.3116  0.3659
  184POPC   H2X21121   1.663   2.940   6.814  0.1783  2.1619 -0.9452
  184POPC   H2Y21122   1.491   2.982   6.819  0.7601 -0.3658  0.1922
  184POPC   C2321123   1.827   2.474   6.756  0.4685 -0.5200  0.2943
  184POPC   H3R21124   1.923   2.475   6.700  0.3730  4.2513 -0.2030
  184POPC   H3S21125   1.779   2.573   6.736 -0.1034 -0.2662  2.6163
  184POPC   C2421126   1.736   2.359   6.724  0.5309 -0.6192 -0.7578
  184POPC   H4R21127   1.640   2.372   6.779  0.2695  1.1123 -1.5429
  184POPC   H4S21128   1.788   2.268   6.760  0.2163 -0.7490 -0.6299
  184POPC   C2521129   1.694   2.338   6.582  0.2650  0.9781 -0.7232
  184POPC   H5R21130   1.609   2.407   6.563 -0.7561  0.5137  1.6991
  184POPC   H5S21131   1.655   2.235   6.572 -0.6969  1.1595  0.7390
  184POPC   C2621132   1.807   2.358   6.481 -0.2311  0.2734 -0.0749
  184POPC   H6R21133   1.881   2.278   6.503 -0.9854 -0.2071  0.8334
  184POPC   H6S21134   1.858   2.456   6.489  1.7911 -0.7370 -0.0574
  184POPC   C2721135   1.770   2.355   6.330  0.0270 -0.2280 -0.9268
  184POPC   H7R21136   1.864   2.376   6.276  0.1556  1.9123  0.0479
  184POPC   H7S21137   1.699   2.440   6.324 -1.0661 -0.9635  0.7024
  184POPC   C2821138   1.698   2.239   6.273 -0.3406  0.5673 -0.6133
  184POPC   H8R21139   1.688   2.258   6.164  0.6689  1.3364 -0.5863
  184POPC   H8S21140   1.593   2.222   6.304  0.0897 -0.3728  0.3995
  184POPC   C2921141   1.780   2.108   6.298 -0.2671  0.4406 -0.2401
  184POPC   H9121142   1.794   2.085   6.404 -1.5367 -2.1524 -0.5539
  184POPC  C21021143   1.819   2.014   6.205  0.0844 -0.3268 -0.5517
  184POPC  H10121144   1.873   1.933   6.256 -1.0547 -0.2821  0.7792
  184POPC  C21121145   1.814   2.013   6.058 -0.2739  0.3424  0.5875
  184POPC  H11R21146   1.832   2.115   6.018 -1.2146  0.8481  1.4197
  184POPC  H11S21147   1.713   1.984   6.021 -0.0054  0.4445 -0.2408
  184POPC  C21221148   1.920   1.902   6.007 -0.3955 -0.4254 -0.2823
  184POPC  H12R21149   1.888   1.802   6.045 -1.4286  0.3656  0.9859
  184POPC  H12S21150   2.013   1.939   6.057  0.6087  1.0985 -3.0482
  184POPC  C21321151   1.941   1.919   5.856 -0.2616 -0.1273 -0.2594
  184POPC  H13R21152   2.033   1.865   5.823 -0.2495  0.9547 -2.1822
  184POPC  H13S21153   1.962   2.022   5.819  2.8174 -1.2873 -2.2035
  184POPC  C21421154   1.828   1.851   5.777  0.5749  0.5564  0.2580
  184POPC  H14R21155   1.726   1.885   5.806 -0.3112 -0.4559 -1.5078
  184POPC  H14S21156   1.809   1.746   5.805 -1.3209  1.0117  0.8420
  184POPC  C21521157   1.852   1.865   5.628  0.1806 -0.6571  0.0729
  184POPC  H15R21158   1.958   1.852   5.597  0.0757  0.0245 -0.5755
  184POPC  H15S21159   1.819   1.963   5.588  0.8948 -0.7862 -0.8601
  184POPC  C21621160   1.758   1.776   5.542 -0.2407  0.1511 -0.2720
  184POPC  H16R21161   1.660   1.830   5.543  0.8702  2.2891 -1.2091
  184POPC  H16S21162   1.737   1.675   5.584 -1.7640  0.9728  1.0657
  184POPC  C21721163   1.814   1.760   5.400  0.4294  0.1128  0.1398
  184POPC  H17R21164   1.730   1.718   5.340  2.1223 -1.9678 -0.9062
  184POPC  H17S21165   1.893   1.681   5.396  1.2611  0.9500 -0.2738
  184POPC  C21821166   1.864   1.884   5.325  0.8352 -0.3418 -0.1940
  184POPC  H18R21167   1.964   1.915   5.363  2.2257 -2.5325 -1.8253
  184POPC  H18S21168   1.788   1.963   5.343 -0.6152 -1.8576  0.5153
  184POPC  H18T21169   1.867   1.868   5.215 -3.3176  1.7147 -0.8381
  184POPC   C3321170   1.552   2.864   6.648  0.0170  0.0935  0.8128
  184POPC   H3X21171   1.599   2.769   6.616 -3.5787 -1.7144  0.3470
  184POPC   H3Y21172   1.608   2.945   6.596  3.3667 -2.0115  0.8806
  184POPC   C3421173   1.413   2.866   6.581  0.4835  0.2003 -0.1388
  184POPC   H4X21174   1.356   2.958   6.606  1.1441  0.6284 -0.1969
  184POPC   H4Y21175   1.353   2.781   6.621 -0.2139  1.5210  1.7902
  184POPC   C3521176   1.420   2.831   6.435 -0.0987 -0.3676  0.5276
  184POPC   H5X21177   1.316   2.829   6.396 -0.3019  2.3344  0.7164
  184POPC   H5Y21178   1.493   2.748   6.424  1.8475  1.3564 -0.4088
  184POPC   C3621179   1.488   2.937   6.339 -0.1481  0.5538  0.2403
  184POPC   H6X21180   1.580   2.982   6.381 -0.0556  2.8828 -2.2083
  184POPC   H6Y21181   1.417   3.018   6.311  0.5700  0.4152 -2.2227
  184POPC   C3721182   1.521   2.878   6.202 -0.6417 -0.1242  0.4432
  184POPC   H7X21183   1.429   2.831   6.160 -0.2832 -1.3966  1.0278
  184POPC   H7Y21184   1.606   2.807   6.212  0.9176  1.5961 -0.1091
  184POPC   C3821185   1.573   2.983   6.111  0.0824 -0.6662 -0.6428
  184POPC   H8X21186   1.642   2.938   6.037  1.4330  0.5796 -0.1951
  184POPC   H8Y21187   1.627   3.067   6.160 -1.1461  0.8728 -1.8187
  184POPC   C3921188   1.474   3.038   6.007 -0.5446 -0.4293 -0.3366
  184POPC   H9X21189   1.392   3.083   6.067 -0.8131 -2.0689  0.5829
  184POPC   H9Y21190   1.434   2.943   5.966  1.9679 -2.6885  1.9771
  184POPC  C31021191   1.533   3.136   5.908  0.0560 -0.3078 -0.2346
  184POPC  H10X21192   1.626   3.097   5.860  0.6563  0.8174 -0.0178
  184POPC  H10Y21193   1.576   3.223   5.963 -0.7416 -1.0999  1.7247
  184POPC  C31121194   1.426   3.171   5.800 -0.8529 -0.2535  0.2055
  184POPC  H11X21195   1.373   3.260   5.841 -2.3598 -0.5297 -1.0360
  184POPC  H11Y21196   1.351   3.088   5.798 -0.1015 -0.9235 -0.9527
  184POPC  C31221197   1.490   3.202   5.663  0.2143  0.1867  0.6481
  184POPC  H12X21198   1.416   3.233   5.586  0.5016 -1.1436 -0.1977
  184POPC  H12Y21199   1.543   3.112   5.625 -0.8358 -0.4698  0.6967
  184POPC  C31321200   1.596   3.312   5.657  1.0051  0.2928  0.1787
  184POPC  H13X21201   1.691   3.293   5.711  2.3662  1.8990 -1.4831
  184POPC  H13Y21202   1.544   3.398   5.703  0.3951 -0.9839  1.9801
  184POPC  C31421203   1.635   3.340   5.509 -0.0488  0.4374  0.5465
  184POPC  H14X21204   1.547   3.382   5.455  0.6313  3.2200  1.4410
  184POPC  H14Y21205   1.680   3.243   5.477  0.7551 -0.2501  3.4946
  184POPC  C31521206   1.741   3.452   5.495  0.3987  0.1538 -0.9456
  184POPC  H15X21207   1.800   3.438   5.401 -0.5077  3.4567 -2.1213
  184POPC  H15Y21208   1.815   3.439   5.576 -0.9181 -4.7628 -0.1749
  184POPC  C31621209   1.686   3.596   5.490  0.1759  0.7869  0.2457
  184POPC  H16X21210   1.607   3.609   5.413 -1.1858 -2.0014  1.0786
  184POPC  H16Y21211   1.779   3.656   5.475  1.0261 -0.6185 -0.2866
  184POPC  H16Z21212   1.638   3.627   5.585  1.1195  1.5852  0.4815
  185POPC     N21213   1.737   0.319   2.847  0.0811  0.1284 -0.1317
  185POPC   C1221214   1.657   0.217   2.918  0.3314 -0.5093 -0.6742
  185POPC  H12A21215   1.569   0.265   2.958  0.1443 -1.1392 -0.3053
  185POPC  H12B21216   1.723   0.176   2.993  1.1440  0.5180 -0.8036
  185POPC   C1321217   1.773   0.414   2.956 -0.2270 -1.1211  0.3765
  185POPC  H13A21218   1.683   0.456   2.996 -0.3651 -0.4476 -0.6107
  185POPC  H13B21219   1.837   0.366   3.029  1.8942 -0.3021 -0.8324
  185POPC  H13C21220   1.832   0.498   2.923 -2.3513  0.0521 -0.6195
  185POPC   C1421221   1.846   0.250   2.784 -0.3676 -0.4373 -0.4630
  185POPC  H14A21222   1.809   0.168   2.724 -3.2559 -0.3468  1.0244
  185POPC  H14B21223   1.911   0.312   2.724  0.3966  0.6664  1.4322
  185POPC  H14C21224   1.910   0.210   2.861 -1.0177  1.8160  1.3253
  185POPC   C1521225   1.661   0.392   2.743 -0.1858 -0.3512  0.4040
  185POPC  H15A21226   1.634   0.325   2.663 -1.7938  0.2435  0.4228
  185POPC  H15B21227   1.730   0.465   2.701  1.3457 -0.6219  2.3300
  185POPC  H15C21228   1.566   0.434   2.773 -1.2759  0.0435 -3.1271
  185POPC   C1121229   1.599   0.101   2.818 -0.2017 -0.2512  0.1279
  185POPC  H11A21230   1.561   0.026   2.891  0.8669 -1.5060 -0.5799
  185POPC  H11B21231   1.675   0.047   2.758  0.4836  0.2135  0.5628
  185POPC     P21232   1.350   0.186   2.806 -0.2621  0.0805 -0.0483
  185POPC   O1321233   1.285   0.063   2.849 -0.2597  0.0402 -0.0640
  185POPC   O1421234   1.271   0.269   2.707 -0.3410  0.4035 -0.3985
  185POPC   O1221235   1.497   0.156   2.745  0.3277  0.4717 -0.8849
  185POPC   O1121236   1.382   0.267   2.930  0.2880 -0.0090  0.1355
  185POPC    C121237   1.314   0.394   2.951 -0.1639 -0.3967  0.8113
  185POPC    HA21238   1.203   0.380   2.944 -0.1282  0.3091 -2.9324
  185POPC    HB21239   1.330   0.469   2.871 -1.3829  0.0107  0.9253
  185POPC    C221240   1.328   0.455   3.095  0.1303  0.1008 -0.6680
  185POPC    HS21241   1.424   0.504   3.118  0.4948 -0.2219 -1.4705
  185POPC   O2121242   1.313   0.353   3.189 -0.1543  0.0184  0.1380
  185POPC   C2121243   1.423   0.296   3.222  0.0916 -0.2970 -0.3033
  185POPC   O2221244   1.539   0.322   3.193 -0.1119 -0.1058  0.3223
  185POPC   C2221245   1.396   0.188   3.326  0.2444 -0.6309  0.2501
  185POPC   H2R21246   1.362   0.099   3.269  2.1689 -1.3174  0.1146
  185POPC   H2S21247   1.334   0.233   3.406  1.4923 -0.7572  1.3126
  185POPC    C321248   1.211   0.559   3.110 -0.9285 -0.2472  0.3075
  185POPC    HX21249   1.125   0.490   3.096 -0.9007 -0.1157 -0.5705
  185POPC    HY21250   1.214   0.637   3.030  0.0278 -0.2335  0.3462
  185POPC   O3121251   1.192   0.616   3.244 -0.2651 -0.3226  0.1530
  185POPC   C3121252   1.248   0.737   3.256  0.3070  0.0715  0.6209
  185POPC   O3221253   1.330   0.784   3.181 -0.2163  0.0188  0.5754
  185POPC   C3221254   1.202   0.806   3.383  0.3841 -0.4199  0.8218
  185POPC   H2X21255   1.172   0.730   3.458  1.9027  0.3560  2.2666
  185POPC   H2Y21256   1.109   0.863   3.359 -0.8086 -2.9740 -1.1180
  185POPC   C2321257   1.524   0.146   3.386 -1.2088  0.5998 -0.1680
  185POPC   H3R21258   1.592   0.223   3.429 -1.1401  1.0852 -1.1149
  185POPC   H3S21259   1.578   0.087   3.309 -1.1500  0.7371 -0.2312
  185POPC   C2421260   1.506   0.042   3.495 -0.4284 -0.5521 -0.8656
  185POPC   H4R21261   1.436  -0.039   3.464 -0.1852 -1.3042  0.4271
  185POPC   H4S21262   1.454   0.112   3.564 -0.6632 -0.5615 -1.0323
  185POPC   C2521263   1.641  -0.030   3.549  0.5134 -1.1339  0.7177
  185POPC   H5R21264   1.728   0.036   3.529  1.1212 -2.3968 -1.0043
  185POPC   H5S21265   1.651  -0.116   3.480 -0.7197 -1.2555  0.6648
  185POPC   C2621266   1.648  -0.064   3.697 -0.3057 -0.2494  0.1766
  185POPC   H6R21267   1.742  -0.117   3.724 -0.1779  0.4748  1.1856
  185POPC   H6S21268   1.558  -0.125   3.717 -0.9251  0.2980 -0.8270
  185POPC   C2721269   1.643   0.067   3.779 -0.5279 -0.3390 -0.0416
  185POPC   H7R21270   1.554   0.128   3.750  0.2530  0.4961 -0.7069
  185POPC   H7S21271   1.727   0.132   3.748 -1.5855  1.0843 -0.0751
  185POPC   C2821272   1.644   0.042   3.929  0.0255 -0.3115  0.6426
  185POPC   H8R21273   1.550  -0.011   3.957 -0.5705  0.1379 -0.4728
  185POPC   H8S21274   1.640   0.144   3.972 -0.8940 -0.8856  2.0258
  185POPC   C2921275   1.763  -0.036   3.975  0.2400  0.3372 -0.0878
  185POPC   H9121276   1.850   0.001   3.919 -0.9428  1.6995 -1.1154
  185POPC  C21021277   1.762  -0.145   4.062 -0.3152  0.0989  0.4394
  185POPC  H10121278   1.851  -0.207   4.080 -0.6068 -0.5678 -0.3242
  185POPC  C21121279   1.647  -0.227   4.116 -0.0231  0.1526  0.2509
  185POPC  H11R21280   1.686  -0.310   4.178  4.0233  1.6139 -0.0451
  185POPC  H11S21281   1.585  -0.252   4.027  1.8559  4.9012 -2.8115
  185POPC  C21221282   1.547  -0.149   4.215  0.1962 -0.5147  0.4381
  185POPC  H12R21283   1.476  -0.222   4.261  1.0883 -2.4054 -1.0151
  185POPC  H12S21284   1.504  -0.064   4.157  1.7708  0.5392  0.7642
  185POPC  C21321285   1.621  -0.078   4.327  0.3428  0.1244 -0.3187
  185POPC  H13R21286   1.698  -0.013   4.280  0.1743  1.1015  0.7048
  185POPC  H13S21287   1.684  -0.155   4.375 -0.2878 -1.5690 -2.0492
  185POPC  C21421288   1.529   0.018   4.404  0.7585  0.2149 -0.4656
  185POPC  H14R21289   1.471  -0.045   4.476  0.0109  0.8250 -0.5277
  185POPC  H14S21290   1.456   0.050   4.327 -0.5552 -0.4608  0.4562
  185POPC  C21521291   1.614   0.133   4.466 -0.6094  0.4388 -0.9065
  185POPC  H15R21292   1.680   0.189   4.396 -0.9929 -0.0759 -1.6976
  185POPC  H15S21293   1.674   0.091   4.549  0.8774  1.9290 -1.1627
  185POPC  C21621294   1.521   0.247   4.508 -0.2853 -0.5801  0.1408
  185POPC  H16R21295   1.472   0.281   4.414  1.4321 -1.9216 -1.3312
  185POPC  H16S21296   1.591   0.332   4.526 -2.0930  1.0341 -0.1757
  185POPC  C21721297   1.423   0.231   4.619  0.6633 -0.1975 -0.9115
  185POPC  H17R21298   1.467   0.165   4.697  0.0701  0.4414 -0.0224
  185POPC  H17S21299   1.322   0.187   4.600  0.7252 -1.9867  2.0924
  185POPC  C21821300   1.393   0.364   4.685  0.0638  0.0896 -0.3100
  185POPC  H18R21301   1.485   0.410   4.725  0.7365 -0.6286 -1.0090
  185POPC  H18S21302   1.323   0.358   4.772  1.6545  1.6552  1.1458
  185POPC  H18T21303   1.348   0.427   4.606  0.6381  0.4878 -0.3196
  185POPC   C3321304   1.317   0.895   3.442  0.4753  0.1940  0.4997
  185POPC   H3X21305   1.326   0.981   3.371  0.1969 -1.5778 -1.8006
  185POPC   H3Y21306   1.411   0.839   3.424  0.5985  0.4207  0.4258
  185POPC   C3421307   1.302   0.947   3.583 -0.0042 -0.0274 -0.3155
  185POPC   H4X21308   1.201   0.993   3.586 -0.3790 -0.8496  0.0372
  185POPC   H4Y21309   1.377   1.025   3.606  0.2532  0.5417 -2.8617
  185POPC   C3521310   1.315   0.836   3.689 -0.0312 -0.3962  0.4948
  185POPC   H5X21311   1.420   0.799   3.684  0.1322  0.2310 -1.3331
  185POPC   H5Y21312   1.236   0.759   3.682 -0.1501 -0.3140  0.8978
  185POPC   C3621313   1.306   0.904   3.830  0.4086 -0.9061  0.2518
  185POPC   H6X21314   1.199   0.923   3.854  0.4240 -0.7988  0.2364
  185POPC   H6Y21315   1.356   1.003   3.829 -3.4953  1.2756 -0.2157
  185POPC   C3721316   1.359   0.814   3.937  0.4734  0.5675 -0.0229
  185POPC   H7X21317   1.465   0.786   3.921 -0.0025 -1.5751  0.1396
  185POPC   H7Y21318   1.290   0.727   3.923  1.8210 -0.5664  0.1336
  185POPC   C3821319   1.327   0.867   4.072  0.4580  0.2911 -0.0857
  185POPC   H8X21320   1.221   0.898   4.078  0.2843 -0.5444  1.6531
  185POPC   H8Y21321   1.387   0.960   4.087  0.5413  0.3725 -0.8636
  185POPC   C3921322   1.368   0.771   4.189  0.5628 -0.3204  0.2388
  185POPC   H9X21323   1.477   0.752   4.184  0.3321 -1.5306 -1.3584
  185POPC   H9Y21324   1.319   0.672   4.173 -0.6344  0.2871  0.0582
  185POPC  C31021325   1.336   0.822   4.329 -0.3467 -0.0235  0.4631
  185POPC  H10X21326   1.229   0.842   4.351 -0.5811 -0.5102 -0.1942
  185POPC  H10Y21327   1.392   0.917   4.343 -0.0269 -0.1850  0.2899
  185POPC  C31121328   1.380   0.723   4.440  0.6526 -0.2369  0.2508
  185POPC  H11X21329   1.484   0.688   4.424  0.8956  1.2978 -1.8915
  185POPC  H11Y21330   1.305   0.642   4.431 -0.9488  1.1938  0.1010
  185POPC  C31221331   1.366   0.788   4.576 -0.8293  0.0245 -0.8559
  185POPC  H12X21332   1.259   0.817   4.578 -1.0365 -0.7442 -0.7105
  185POPC  H12Y21333   1.433   0.877   4.581  0.9479 -1.2829 -0.0265
  185POPC  C31321334   1.408   0.701   4.701 -0.8895  0.1788  0.5789
  185POPC  H13X21335   1.498   0.637   4.688 -0.8555  0.2360  0.5374
  185POPC  H13Y21336   1.332   0.623   4.722 -0.0214 -0.6810  0.6089
  185POPC  C31421337   1.435   0.795   4.819  0.0298 -0.1020  0.6139
  185POPC  H14X21338   1.367   0.883   4.818  0.8044  0.5098  0.9648
  185POPC  H14Y21339   1.536   0.841   4.825  0.3662 -0.5636 -0.9890
  185POPC  C31521340   1.407   0.711   4.949  0.5572  0.5828 -0.1064
  185POPC  H15X21341   1.485   0.633   4.949  1.1581  1.0734  2.5972
  185POPC  H15Y21342   1.310   0.658   4.937  1.0956 -1.2969  2.8624
  185POPC  C31621343   1.405   0.781   5.086  0.9715 -0.0975  0.7272
  185POPC  H16X21344   1.355   0.719   5.163 -0.7372 -0.5894 -0.6955
  185POPC  H16Y21345   1.355   0.880   5.077 -0.7566 -1.0655 -1.1761
  185POPC  H16Z21346   1.508   0.801   5.120  1.8401 -1.5312 -0.8947
  186POPC     N21347   4.709   2.903   2.634 -0.2650  0.1155 -0.8777
  186POPC   C1221348   4.564   2.898   2.693 -0.3965  0.1281  0.8566
  186POPC  H12A21349   4.523   2.998   2.695  1.5439  1.0584 -1.2905
  186POPC  H12B21350   4.560   2.858   2.794 -2.6614 -1.8369  0.0654
  186POPC   C1321351   4.779   3.009   2.706 -0.5258  0.1510 -0.8078
  186POPC  H13A21352   4.831   2.968   2.791 -0.8871  0.4836 -0.4222
  186POPC  H13B21353   4.860   3.052   2.649 -1.0153 -0.4799 -2.0164
  186POPC  H13C21354   4.720   3.094   2.737  0.3037 -0.1859  1.9429
  186POPC   C1421355   4.786   2.770   2.653  0.0385 -0.6587 -0.2434
  186POPC  H14A21356   4.733   2.688   2.607  0.2900 -0.9182 -0.0743
  186POPC  H14B21357   4.884   2.780   2.607  0.0864  0.6011  0.0817
  186POPC  H14C21358   4.798   2.753   2.759  0.9364 -0.5879 -0.3234
  186POPC   C1521359   4.696   2.946   2.493 -0.2394  0.4094  0.0672
  186POPC  H15A21360   4.791   2.953   2.442 -0.1589  2.4109  0.3799
  186POPC  H15B21361   4.653   3.045   2.491 -1.6444 -0.1639  0.8329
  186POPC  H15C21362   4.637   2.870   2.445  0.6204 -0.8571  0.9709
  186POPC   C1121363   4.467   2.809   2.612 -0.4203 -0.2351  0.0514
  186POPC  H11A21364   4.480   2.837   2.506 -0.5471  2.4945  0.6908
  186POPC  H11B21365   4.362   2.821   2.648 -0.8602  1.9368 -1.7512
  186POPC     P21366   4.464   2.586   2.756 -0.4123 -0.1207  0.3017
  186POPC   O1321367   4.551   2.467   2.756 -0.0240 -0.4490  0.1275
  186POPC   O1421368   4.319   2.563   2.738 -0.5214  0.2073  0.1523
  186POPC   O1221369   4.513   2.674   2.627  0.0219 -0.3119  0.7103
  186POPC   O1121370   4.503   2.678   2.877  0.2790  0.1165 -0.1644
  186POPC    C121371   4.537   2.611   2.999 -0.1573  0.3361  0.5438
  186POPC    HA21372   4.611   2.530   2.981  1.2085  1.1322  2.3157
  186POPC    HB21373   4.451   2.564   3.052 -0.0080  0.4872  0.9234
  186POPC    C221374   4.615   2.700   3.100  0.3195 -0.1676  0.0579
  186POPC    HS21375   4.649   2.635   3.184  2.1391  1.2891  0.5117
  186POPC   O2121376   4.530   2.807   3.141 -0.3939 -0.6275 -0.0458
  186POPC   C2121377   4.463   2.785   3.247  0.4594 -0.8907  0.9148
  186POPC   O2221378   4.451   2.675   3.303  0.0585 -0.0078  0.4136
  186POPC   C2221379   4.399   2.914   3.303 -0.1585  0.1186  0.4223
  186POPC   H2R21380   4.296   2.921   3.262  0.4226  0.7724 -0.9990
  186POPC   H2S21381   4.456   3.001   3.264  0.1991  0.6092  1.9628
  186POPC    C321382   4.740   2.760   3.040 -0.2488 -0.6792  0.7609
  186POPC    HX21383   4.722   2.819   2.948  0.4824 -2.8948 -0.8891
  186POPC    HY21384   4.804   2.676   3.007  2.7108  1.4420  0.6174
  186POPC   O3121385   4.819   2.833   3.137  0.1550  0.1358 -0.3611
  186POPC   C3121386   4.789   2.964   3.157  0.7742  1.1272 -0.5397
  186POPC   O3221387   4.725   3.033   3.079  0.3353  0.1854 -1.1502
  186POPC   C3221388   4.863   3.011   3.283  0.3883 -0.1560 -0.0937
  186POPC   H2X21389   4.946   3.079   3.254  1.1362 -1.3665 -0.9361
  186POPC   H2Y21390   4.910   2.920   3.328  0.5157 -1.1962 -2.1991
  186POPC   C2321391   4.382   2.921   3.458 -0.9898  0.2763 -0.0360
  186POPC   H3R21392   4.477   2.948   3.509  0.1002 -1.9818 -0.7536
  186POPC   H3S21393   4.363   2.824   3.508 -1.3028  0.4385  0.1643
  186POPC   C2421394   4.281   3.026   3.505  0.5122  0.2332 -0.1963
  186POPC   H4R21395   4.177   3.008   3.471  1.0041 -0.5527 -1.3830
  186POPC   H4S21396   4.309   3.130   3.479 -1.1213  0.1900 -2.4021
  186POPC   C2521397   4.270   3.033   3.658  0.3611 -0.3875  0.5547
  186POPC   H5R21398   4.178   3.093   3.674 -2.5592 -4.2454 -0.3534
  186POPC   H5S21399   4.356   3.082   3.708  1.4471 -1.4440 -0.2275
  186POPC   C2621400   4.245   2.912   3.728 -0.2330  0.8633 -0.2512
  186POPC   H6R21401   4.346   2.867   3.728 -1.0037 -0.9665  0.9509
  186POPC   H6S21402   4.175   2.845   3.673  0.4267 -1.5932  1.7359
  186POPC   C2721403   4.188   2.927   3.868  0.0686 -0.2112 -0.4286
  186POPC   H7R21404   4.087   2.972   3.862  0.1883 -0.0623 -1.5622
  186POPC   H7S21405   4.258   2.988   3.929 -0.0507  1.2384 -1.6943
  186POPC   C2821406   4.184   2.780   3.922 -0.1489 -0.3422 -0.6712
  186POPC   H8R21407   4.285   2.736   3.905 -0.2838 -0.9150 -0.0427
  186POPC   H8S21408   4.121   2.723   3.851 -1.3771 -0.9062  0.8240
  186POPC   C2921409   4.149   2.768   4.068  0.1271  0.7391 -0.1274
  186POPC   H9121410   4.221   2.810   4.139  1.7319 -1.6420 -0.2402
  186POPC  C21021411   4.033   2.709   4.106 -0.4938 -0.4970  0.4496
  186POPC  H10121412   4.017   2.713   4.214 -2.6337  0.6865  0.1411
  186POPC  C21121413   3.930   2.633   4.023 -0.6102  0.1822 -0.5160
  186POPC  H11R21414   3.908   2.537   4.074  0.7613 -0.0093 -0.2527
  186POPC  H11S21415   3.983   2.601   3.931  0.5616 -0.4698  0.3568
  186POPC  C21221416   3.799   2.699   4.009 -0.0065  0.3609 -0.4506
  186POPC  H12R21417   3.820   2.796   3.961 -1.0018  0.4772 -0.6797
  186POPC  H12S21418   3.749   2.701   4.108 -0.7154 -0.0522 -0.7893
  186POPC  C21321419   3.700   2.621   3.920 -0.3281 -0.4721 -0.1481
  186POPC  H13R21420   3.718   2.518   3.958  2.5680  0.0272  0.0533
  186POPC  H13S21421   3.727   2.625   3.813 -0.1837  2.2051 -0.0968
  186POPC  C21421422   3.553   2.661   3.949 -0.3358  0.2204  0.1755
  186POPC  H14R21423   3.535   2.669   4.058  0.0629  1.3708  0.1698
  186POPC  H14S21424   3.486   2.577   3.919 -0.8907 -0.5697  3.3118
  186POPC  C21521425   3.501   2.784   3.884 -0.1540  0.2927  0.0301
  186POPC  H15R21426   3.532   2.778   3.778  3.2874  0.7561  0.8801
  186POPC  H15S21427   3.543   2.878   3.926 -1.5080  0.0055  2.2039
  186POPC  C21621428   3.347   2.787   3.876 -0.0926  0.0060 -0.1430
  186POPC  H16R21429   3.306   2.706   3.811 -3.5016 -0.3983  2.2304
  186POPC  H16S21430   3.323   2.886   3.831 -1.3762 -0.6190 -0.9185
  186POPC  C21721431   3.261   2.769   4.013 -0.0885  0.2374  0.2615
  186POPC  H17R21432   3.271   2.663   4.045  0.2670  0.0808 -0.3556
  186POPC  H17S21433   3.161   2.793   3.973 -0.3576 -2.1177 -0.6567
  186POPC  C21821434   3.310   2.863   4.121 -0.3229  0.0021 -0.3442
  186POPC  H18R21435   3.338   2.961   4.076  1.9311 -1.4403 -2.3415
  186POPC  H18S21436   3.240   2.870   4.207  0.1723  2.0575 -0.0612
  186POPC  H18T21437   3.407   2.824   4.158 -1.6301 -1.6373  1.5598
  186POPC   C3321438   4.764   3.066   3.391  0.0707 -0.2189 -0.3834
  186POPC   H3X21439   4.719   2.983   3.450  1.9699 -0.6021  0.5876
  186POPC   H3Y21440   4.682   3.127   3.348 -0.6120  0.4927  1.8032
  186POPC   C3421441   4.837   3.152   3.496 -0.1041 -1.1093  0.0942
  186POPC   H4X21442   4.861   3.250   3.449 -0.6788  0.1054  2.1830
  186POPC   H4Y21443   4.932   3.106   3.530  1.0111 -0.2184 -1.6391
  186POPC   C3521444   4.738   3.188   3.613 -0.0698  0.1021 -0.0262
  186POPC   H5X21445   4.702   3.094   3.661  0.8688  0.4541  1.4277
  186POPC   H5Y21446   4.649   3.244   3.578 -0.1475  2.2320  3.1393
  186POPC   C3621447   4.808   3.277   3.720 -0.0765  0.0919  0.0129
  186POPC   H6X21448   4.883   3.352   3.687 -1.2852  0.7853 -1.2820
  186POPC   H6Y21449   4.860   3.204   3.786  0.5696 -0.1935 -0.7886
  186POPC   C3721450   4.720   3.359   3.806 -0.4472 -0.2387 -0.4098
  186POPC   H7X21451   4.624   3.311   3.832 -0.7600  0.1650 -0.8079
  186POPC   H7Y21452   4.697   3.461   3.769  1.9932  0.4124 -0.3441
  186POPC   C3821453   4.790   3.385   3.941  0.2734 -0.4789 -0.9667
  186POPC   H8X21454   4.869   3.462   3.924 -0.3796 -0.3285 -3.7517
  186POPC   H8Y21455   4.838   3.290   3.971  0.2402 -0.0426  0.5632
  186POPC   C3921456   4.697   3.442   4.051  0.3507  0.3377 -0.2343
  186POPC   H9X21457   4.641   3.530   4.011  2.0308  1.4022 -0.3238
  186POPC   H9Y21458   4.762   3.500   4.120  1.2644  0.1193 -0.8915
  186POPC  C31021459   4.618   3.344   4.130 -0.1163 -0.4587 -0.1313
  186POPC  H10X21460   4.689   3.275   4.179  0.6702  1.2955  1.3391
  186POPC  H10Y21461   4.543   3.289   4.069 -1.1722 -0.6768  1.2875
  186POPC  C31121462   4.556   3.430   4.248  1.1635  1.0198 -0.0008
  186POPC  H11X21463   4.468   3.474   4.197 -0.3220  0.5866  2.0545
  186POPC  H11Y21464   4.621   3.510   4.291  0.3774  1.9846 -0.5792
  186POPC  C31221465   4.495   3.335   4.357  0.1072  0.5619  0.0758
  186POPC  H12X21466   4.574   3.269   4.398 -0.0814 -0.7683 -1.6028
  186POPC  H12Y21467   4.413   3.277   4.310  1.7228 -0.3922 -1.6880
  186POPC  C31321468   4.451   3.423   4.476 -0.2551  0.3766 -0.2252
  186POPC  H13X21469   4.403   3.515   4.437  0.2971  0.6560 -0.2596
  186POPC  H13Y21470   4.545   3.448   4.529 -0.1651  0.0326 -0.2150
  186POPC  C31421471   4.358   3.365   4.582 -0.1704  0.5938  0.6642
  186POPC  H14X21472   4.310   3.453   4.630 -1.4177  0.7307 -0.7611
  186POPC  H14Y21473   4.424   3.307   4.651 -0.5749 -1.4887 -0.5958
  186POPC  C31521474   4.247   3.274   4.536  0.2142 -0.1363  0.2385
  186POPC  H15X21475   4.284   3.191   4.473 -2.6622  0.0419 -1.8778
  186POPC  H15Y21476   4.178   3.335   4.474  1.9420  0.5263 -1.1326
  186POPC  C31621477   4.156   3.220   4.650  0.1845 -0.3712 -0.3848
  186POPC  H16X21478   4.212   3.156   4.721 -1.4872 -0.1086  1.2341
  186POPC  H16Y21479   4.077   3.151   4.613  0.3677 -1.1262  0.5802
  186POPC  H16Z21480   4.122   3.304   4.713  0.2588 -0.1668 -0.6180
  187POPC     N21481   4.974   1.646   2.612 -0.2647 -0.3860  0.2983
  187POPC   C1221482   5.025   1.650   2.756 -0.0123  0.2356 -0.0464
  187POPC  H12A21483   4.957   1.709   2.816  1.7236  0.4772  1.7836
  187POPC  H12B21484   5.115   1.708   2.741  0.1648 -0.6017 -2.8339
  187POPC   C1321485   4.960   1.780   2.535  0.3697  0.1026  0.1446
  187POPC  H13A21486   4.935   1.773   2.430  1.7645 -0.0419 -0.1892
  187POPC  H13B21487   4.897   1.855   2.581  0.7370  0.7050 -0.3247
  187POPC  H13C21488   5.057   1.827   2.536  0.3510  0.2463 -1.4524
  187POPC   C1421489   5.063   1.552   2.526  0.5318 -0.4339  0.6063
  187POPC  H14A21490   5.170   1.566   2.524  0.7017 -1.3096 -2.9850
  187POPC  H14B21491   5.033   1.450   2.541 -2.5659  0.3319  0.3537
  187POPC  H14C21492   5.042   1.570   2.422 -0.2055  0.0762  0.8355
  187POPC   C1521493   4.839   1.587   2.614  0.2835 -0.0181 -0.0340
  187POPC  H15A21494   4.825   1.528   2.704  0.9547  0.8876  0.6845
  187POPC  H15B21495   4.823   1.531   2.523 -0.8010  0.3767 -0.1091
  187POPC  H15C21496   4.761   1.662   2.614 -0.0385 -0.3096  1.5677
  187POPC   C1121497   5.067   1.521   2.824  0.9032 -0.4274 -0.3591
  187POPC  H11A21498   5.113   1.549   2.922 -1.4990 -0.8704  0.9741
  187POPC  H11B21499   5.146   1.472   2.763  2.5718  1.8692 -0.1941
  187POPC     P21500   4.887   1.424   2.985  0.2442  0.4513 -0.2139
  187POPC   O1321501   4.969   1.349   3.080 -0.4305  0.1565  0.0252
  187POPC   O1421502   4.750   1.370   2.952 -0.1321  0.4110 -0.1082
  187POPC   O1221503   4.963   1.431   2.848 -0.0190 -0.2835  0.3082
  187POPC   O1121504   4.883   1.578   3.031 -0.7657  0.6785  0.4339
  187POPC    C121505   4.761   1.648   3.060  0.7122 -0.7422 -0.5679
  187POPC    HA21506   4.669   1.618   3.006 -0.6699  1.3230  0.4915
  187POPC    HB21507   4.782   1.747   3.013  0.6234  0.6936  2.2191
  187POPC    C221508   4.729   1.659   3.215 -0.8583 -0.1367  0.2449
  187POPC    HS21509   4.825   1.695   3.257 -0.8314 -0.5196  0.5191
  187POPC   O2121510   4.677   1.531   3.257 -0.3442 -0.6225 -0.0810
  187POPC   C2121511   4.738   1.483   3.366  0.6249 -1.1596  1.1784
  187POPC   O2221512   4.815   1.550   3.436  0.1350 -0.5085 -0.1956
  187POPC   C2221513   4.704   1.341   3.400  0.2216  0.4163 -0.1620
  187POPC   H2R21514   4.753   1.284   3.319 -0.1808 -0.0313 -0.0920
  187POPC   H2S21515   4.593   1.339   3.397  0.1001  1.7178  1.4165
  187POPC    C321516   4.625   1.767   3.248 -0.3223  0.4853  0.0243
  187POPC    HX21517   4.524   1.749   3.206  0.1503 -2.2803 -0.1360
  187POPC    HY21518   4.680   1.849   3.198  4.4692 -2.3968 -0.0344
  187POPC   O3121519   4.610   1.785   3.394 -0.0267  0.1918  0.3603
  187POPC   C3121520   4.719   1.840   3.446  1.0477 -0.0700 -0.4716
  187POPC   O3221521   4.806   1.898   3.392 -0.4384  0.3303 -0.0163
  187POPC   C3221522   4.716   1.814   3.598 -0.0733  0.3942  0.7764
  187POPC   H2X21523   4.823   1.801   3.624  0.3901  2.2665  0.0168
  187POPC   H2Y21524   4.661   1.722   3.626 -0.0894  1.2465  4.0403
  187POPC   C2321525   4.768   1.294   3.533 -0.1646 -0.0718 -0.1883
  187POPC   H3R21526   4.756   1.362   3.620  0.2416  1.8549 -1.5656
  187POPC   H3S21527   4.878   1.301   3.515 -0.1641 -0.1511 -0.2161
  187POPC   C2421528   4.727   1.149   3.573 -0.2369 -0.1696  0.7264
  187POPC   H4R21529   4.739   1.071   3.495  3.4762  0.7756  0.2014
  187POPC   H4S21530   4.618   1.139   3.593 -0.3305 -0.8866 -0.0764
  187POPC   C2521531   4.811   1.098   3.694 -0.1583 -0.3837  0.0443
  187POPC   H5R21532   4.748   1.033   3.759  2.0451 -2.7936 -0.1092
  187POPC   H5S21533   4.840   1.187   3.754  1.3056 -0.5024 -0.4500
  187POPC   C2621534   4.944   1.030   3.656  0.7447 -0.1063  0.4489
  187POPC   H6R21535   4.995   1.099   3.587 -0.0737  1.0517  0.9691
  187POPC   H6S21536   4.903   0.941   3.603  2.1633 -0.3529 -0.2651
  187POPC   C2721537   5.033   0.973   3.772  0.5743 -0.4627  0.5315
  187POPC   H7R21538   5.125   0.929   3.727  0.3932 -2.1905  1.7200
  187POPC   H7S21539   4.983   0.881   3.810  0.4314 -0.7585 -0.3449
  187POPC   C2821540   5.064   1.074   3.885  0.8398 -0.1164  0.8672
  187POPC   H8R21541   4.964   1.090   3.933  0.5593 -2.6831  1.2619
  187POPC   H8S21542   5.101   1.174   3.854 -2.2567  1.1560  0.7944
  187POPC   C2921543   5.153   1.007   3.994  0.4791  1.2020  0.4447
  187POPC   H9121544   5.095   0.938   4.056  0.7355  0.1266 -0.4798
  187POPC  C21021545   5.288   0.996   4.005 -0.7615 -0.8098  0.5344
  187POPC  H10121546   5.329   0.949   4.095  0.2556 -2.2337 -0.6281
  187POPC  C21121547   5.389   1.072   3.922  0.3095 -0.3027  0.0339
  187POPC  H11R21548   5.453   1.129   3.992 -1.5087 -1.5347  2.8740
  187POPC  H11S21549   5.343   1.147   3.853  1.5335  0.3255 -0.1303
  187POPC  C21221550   5.472   0.975   3.835 -0.0792 -0.5812  0.3493
  187POPC  H12R21551   5.542   1.032   3.771 -1.3875 -0.1538 -0.7497
  187POPC  H12S21552   5.404   0.922   3.765  0.6527  1.1549 -1.7770
  187POPC  C21321553   5.537   0.864   3.918 -0.1954  0.9213 -0.1415
  187POPC  H13R21554   5.587   0.797   3.845 -1.1919 -1.5776  1.3323
  187POPC  H13S21555   5.465   0.799   3.974  1.7445  0.1153  1.5372
  187POPC  C21421556   5.632   0.909   4.029  0.0262 -0.6099  0.3775
  187POPC  H14R21557   5.582   0.982   4.096 -0.5337  1.2125 -1.8906
  187POPC  H14S21558   5.708   0.969   3.975 -0.1278  2.0063  2.8191
  187POPC  C21521559   5.695   0.792   4.108 -0.0911 -0.4458 -0.2932
  187POPC  H15R21560   5.787   0.835   4.151 -2.1581  1.5767  2.4441
  187POPC  H15S21561   5.721   0.711   4.036  0.0409 -1.3806  0.7911
  187POPC  C21621562   5.603   0.736   4.217  0.0901 -0.2607 -0.3735
  187POPC  H16R21563   5.533   0.659   4.178  0.7232 -0.8453 -0.3708
  187POPC  H16S21564   5.559   0.815   4.281  0.5441  1.3777 -2.0062
  187POPC  C21721565   5.686   0.652   4.320  0.2154  0.6284 -0.6845
  187POPC  H17R21566   5.772   0.720   4.342 -0.9280  2.3819 -1.3915
  187POPC  H17S21567   5.713   0.557   4.271 -0.1264 -0.7025  1.5644
  187POPC  C21821568   5.625   0.599   4.449 -0.0835 -0.2487 -0.0195
  187POPC  H18R21569   5.547   0.670   4.485 -0.5528 -1.6132  1.7766
  187POPC  H18S21570   5.701   0.577   4.526 -0.5405  0.6310  0.7038
  187POPC  H18T21571   5.573   0.504   4.424  0.4588 -0.3728 -0.7112
  187POPC   C3321572   4.643   1.917   3.685 -0.0697  0.5163  0.5836
  187POPC   H3X21573   4.533   1.928   3.672 -0.0605  1.7035  1.3174
  187POPC   H3Y21574   4.692   2.017   3.679  0.6364  0.1594  0.2431
  187POPC   C3421575   4.659   1.881   3.831  0.3987 -0.1205  0.2838
  187POPC   H4X21576   4.766   1.882   3.860  0.3859  0.0212  0.3262
  187POPC   H4Y21577   4.617   1.778   3.834  0.5960 -0.1935  0.6406
  187POPC   C3521578   4.577   1.958   3.926  0.0766 -0.9594 -0.1862
  187POPC   H5X21579   4.467   1.954   3.910  0.0160  2.8358 -1.6680
  187POPC   H5Y21580   4.591   2.068   3.922  0.1404 -0.9686 -0.2281
  187POPC   C3621581   4.604   1.911   4.074  0.0147  0.8940 -0.2322
  187POPC   H6X21582   4.537   1.964   4.145 -1.1251 -2.4537  1.3927
  187POPC   H6Y21583   4.709   1.940   4.096 -0.1487  1.5154 -0.2529
  187POPC   C3721584   4.577   1.759   4.089 -0.6427  0.1475  0.5377
  187POPC   H7X21585   4.661   1.709   4.035 -2.0771 -0.1512 -1.5419
  187POPC   H7Y21586   4.492   1.731   4.023 -1.0657  0.0614  1.1128
  187POPC   C3821587   4.561   1.716   4.236  0.1965 -0.1791 -0.3315
  187POPC   H8X21588   4.480   1.782   4.274 -0.0322 -1.6776  2.0054
  187POPC   H8Y21589   4.659   1.744   4.279 -0.0896  0.0086  0.2085
  187POPC   C3921590   4.518   1.567   4.254 -0.1284  0.3771 -0.8553
  187POPC   H9X21591   4.551   1.517   4.161 -0.7265 -1.8348  0.0628
  187POPC   H9Y21592   4.409   1.547   4.259 -0.1741  0.7625  0.0901
  187POPC  C31021593   4.575   1.498   4.381 -0.2686 -0.3032 -0.0374
  187POPC  H10X21594   4.686   1.490   4.385 -0.1490  1.4516  1.8111
  187POPC  H10Y21595   4.542   1.393   4.369 -2.6037  0.5782 -2.3419
  187POPC  C31121596   4.505   1.543   4.505 -0.2142 -0.1905 -0.3374
  187POPC  H11X21597   4.467   1.456   4.562 -0.9822  0.1409 -0.3282
  187POPC  H11Y21598   4.415   1.602   4.477  0.7796  1.5091 -0.0969
  187POPC  C31221599   4.600   1.622   4.583 -0.8327 -0.1435 -0.5802
  187POPC  H12X21600   4.663   1.684   4.515 -2.0705  2.6100  0.6159
  187POPC  H12Y21601   4.662   1.558   4.649  0.1854  1.5316  0.1672
  187POPC  C31321602   4.526   1.722   4.686 -0.3639  0.6940 -0.5402
  187POPC  H13X21603   4.451   1.662   4.742 -0.6320  0.0119 -1.5877
  187POPC  H13Y21604   4.472   1.810   4.644  3.3401  3.3302 -0.2673
  187POPC  C31421605   4.629   1.781   4.777  0.1368 -0.0032 -0.4946
  187POPC  H14X21606   4.731   1.752   4.743  1.3037  1.6827  1.3473
  187POPC  H14Y21607   4.626   1.740   4.880 -0.2774 -0.1903 -0.5751
  187POPC  C31521608   4.634   1.940   4.779  0.0815  0.3850 -0.5839
  187POPC  H15X21609   4.635   1.979   4.675 -1.5578  0.9381 -0.4339
  187POPC  H15Y21610   4.733   1.981   4.808 -0.6167  1.6790  0.0661
  187POPC  C31621611   4.533   2.018   4.860  0.1979  0.9589 -0.2876
  187POPC  H16X21612   4.553   2.024   4.969 -1.1360  0.6698 -0.0021
  187POPC  H16Y21613   4.434   1.966   4.859 -0.2109  1.6845  0.7509
  187POPC  H16Z21614   4.521   2.123   4.826  0.9977  0.9512 -0.6145
  188POPC     N21615   4.258   4.201   2.782 -0.2238  0.5566  0.1217
  188POPC   C1221616   4.242   4.152   2.928  0.0621 -0.1048  0.1842
  188POPC  H12A21617   4.178   4.214   2.990 -1.3056 -1.0826 -0.2185
  188POPC  H12B21618   4.337   4.163   2.978 -0.3741 -1.2400  1.3201
  188POPC   C1321619   4.359   4.101   2.729 -0.1545 -1.0635 -0.2921
  188POPC  H13A21620   4.460   4.123   2.762 -0.3141  0.3014 -0.6411
  188POPC  H13B21621   4.348   4.002   2.771  0.0203 -1.6829 -1.6589
  188POPC  H13C21622   4.354   4.096   2.621  2.2959 -0.5802 -0.4887
  188POPC   C1421623   4.126   4.193   2.701  0.4794 -0.2763  0.0575
  188POPC  H14A21624   4.144   4.232   2.602  3.0643 -1.0303  0.1625
  188POPC  H14B21625   4.094   4.091   2.688 -0.8522  0.2354 -0.9653
  188POPC  H14C21626   4.052   4.247   2.758 -0.0608 -0.5787 -0.3513
  188POPC   C1521627   4.325   4.334   2.769  0.4959 -0.9460  0.4511
  188POPC  H15A21628   4.247   4.407   2.777  0.4994 -0.7299 -1.1060
  188POPC  H15B21629   4.382   4.334   2.677  1.6049 -2.6164  1.0711
  188POPC  H15C21630   4.390   4.352   2.853  1.8042  0.4088 -0.7820
  188POPC   C1121631   4.196   4.008   2.953 -1.1004 -0.0693 -0.6491
  188POPC  H11A21632   4.110   3.978   2.889 -0.7902 -2.6551  0.0167
  188POPC  H11B21633   4.157   3.997   3.057 -1.8161 -3.1025 -1.1357
  188POPC     P21634   4.278   3.767   2.942  0.3314 -0.2077  0.1818
  188POPC   O1321635   4.402   3.695   2.925 -0.4729 -0.8768 -0.3704
  188POPC   O1421636   4.172   3.736   2.837 -0.0578 -0.2220  0.0336
  188POPC   O1221637   4.306   3.917   2.942 -0.3462 -0.3638  0.0764
  188POPC   O1121638   4.216   3.725   3.082  0.0347  0.3389  0.3480
  188POPC    C121639   4.267   3.777   3.201 -0.1566  0.1536  0.4483
  188POPC    HA21640   4.292   3.885   3.189  2.8891 -0.4995  0.0293
  188POPC    HB21641   4.366   3.731   3.225  0.1672  1.7161  2.4167
  188POPC    C221642   4.167   3.766   3.321  0.6483  0.4075  0.1379
  188POPC    HS21643   4.206   3.833   3.400  1.9077 -1.0644  0.8188
  188POPC   O2121644   4.162   3.630   3.366  0.5543 -0.1461 -0.3353
  188POPC   C2121645   4.140   3.613   3.496 -0.5092 -0.7628  0.3944
  188POPC   O2221646   4.116   3.701   3.577  0.8013 -0.5860  0.4680
  188POPC   C2221647   4.140   3.463   3.520 -0.3484  0.3739 -0.1898
  188POPC   H2R21648   4.230   3.415   3.476 -0.2726  0.5309 -0.2091
  188POPC   H2S21649   4.053   3.421   3.467 -2.2861  0.2675  2.8083
  188POPC    C321650   4.029   3.817   3.286 -0.0700 -0.2329 -0.1322
  188POPC    HX21651   3.974   3.738   3.230  0.6517 -1.2681  0.5778
  188POPC    HY21652   4.019   3.898   3.211  1.7402 -1.7076 -2.0992
  188POPC   O3121653   3.950   3.837   3.402  0.2180  0.1222  0.1076
  188POPC   C3121654   3.957   3.957   3.458  0.3350 -0.4005  0.9033
  188POPC   O3221655   4.025   4.050   3.416 -0.1461  0.3009 -1.3335
  188POPC   C3221656   3.867   3.947   3.581 -0.5311  0.1657  0.4781
  188POPC   H2X21657   3.848   3.839   3.598 -1.2240 -0.0881 -1.6407
  188POPC   H2Y21658   3.769   3.992   3.554  0.2594 -0.5109 -4.4788
  188POPC   C2321659   4.128   3.418   3.666 -0.0083  0.0559  0.3590
  188POPC   H3R21660   4.095   3.312   3.679  1.8565 -0.6046  0.0069
  188POPC   H3S21661   4.058   3.486   3.719 -0.9641 -0.3923 -0.3042
  188POPC   C2421662   4.260   3.433   3.741 -0.6367  0.0094  0.4789
  188POPC   H4R21663   4.290   3.537   3.763  1.5945 -0.5664  0.4088
  188POPC   H4S21664   4.336   3.384   3.678 -2.9491 -0.8839 -1.7894
  188POPC   C2521665   4.266   3.351   3.878 -0.1590 -0.0770 -0.0135
  188POPC   H5R21666   4.362   3.382   3.924  0.1819  0.4011 -1.0034
  188POPC   H5S21667   4.262   3.243   3.850 -0.6004 -0.0867  0.0747
  188POPC   C2621668   4.161   3.399   3.973 -0.2242 -0.1944  0.2149
  188POPC   H6R21669   4.055   3.391   3.940 -1.8803  0.0733  4.7714
  188POPC   H6S21670   4.175   3.508   3.987  0.6720 -0.1324 -1.0032
  188POPC   C2721671   4.189   3.351   4.118 -0.0815 -0.0147 -0.0645
  188POPC   H7R21672   4.116   3.405   4.182 -1.3490 -2.0177  0.2674
  188POPC   H7S21673   4.294   3.368   4.150  0.5805 -0.6342 -1.7868
  188POPC   C2821674   4.154   3.198   4.134 -0.2283  0.1171 -0.6421
  188POPC   H8R21675   4.188   3.164   4.235  1.4458 -1.5264 -1.6920
  188POPC   H8S21676   4.217   3.137   4.065  0.4259 -0.4626  0.4327
  188POPC   C2921677   4.007   3.163   4.119 -0.2830  0.7546 -0.2639
  188POPC   H9121678   3.968   3.166   4.016 -0.8447  1.0979 -0.0485
  188POPC  C21021679   3.914   3.133   4.209  0.0175 -0.5219  0.2590
  188POPC  H10121680   3.810   3.117   4.176  0.6523  0.0411 -2.2567
  188POPC  C21121681   3.938   3.131   4.358  0.4928  0.3710  0.0757
  188POPC  H11R21682   3.917   3.231   4.401 -0.5467 -0.4777  1.6195
  188POPC  H11S21683   4.034   3.089   4.393  0.3027  1.1976  1.6902
  188POPC  C21221684   3.827   3.042   4.407 -0.3325 -0.3972  0.0634
  188POPC  H12R21685   3.726   3.068   4.366  0.0514 -3.6268 -3.5518
  188POPC  H12S21686   3.818   3.045   4.517 -1.7470 -2.5218  0.0776
  188POPC  C21321687   3.847   2.890   4.368 -0.8746  0.1240  0.1327
  188POPC  H13R21688   3.953   2.861   4.388 -0.9324  0.6025  1.1485
  188POPC  H13S21689   3.841   2.876   4.258  1.9402 -0.2786 -0.0637
  188POPC  C21421690   3.772   2.786   4.442  0.8805 -0.4488 -0.0694
  188POPC  H14R21691   3.765   2.821   4.547 -5.2904  1.5265 -0.7145
  188POPC  H14S21692   3.816   2.684   4.441  1.6799 -0.1037 -0.1470
  188POPC  C21521693   3.624   2.786   4.393  0.3824  0.1309 -0.0590
  188POPC  H15R21694   3.614   2.744   4.291 -0.4857 -0.6464  0.3267
  188POPC  H15S21695   3.582   2.888   4.404  1.7516  0.6192  0.9406
  188POPC  C21621696   3.539   2.683   4.480 -0.4698  0.3002 -0.9039
  188POPC  H16R21697   3.567   2.706   4.585  1.3663  1.3205 -1.5636
  188POPC  H16S21698   3.580   2.579   4.471  1.3285  0.9776 -0.9999
  188POPC  C21721699   3.392   2.689   4.455 -0.0920  0.2033  0.0730
  188POPC  H17R21700   3.337   2.602   4.498 -0.8248  1.2218  1.2642
  188POPC  H17S21701   3.389   2.680   4.344 -1.1414  2.3313 -0.1217
  188POPC  C21821702   3.313   2.815   4.499 -0.9580  0.5040 -0.1364
  188POPC  H18R21703   3.375   2.902   4.470  0.7828 -0.7066 -0.1676
  188POPC  H18S21704   3.305   2.804   4.609  1.8664 -0.4481  0.0634
  188POPC  H18T21705   3.216   2.816   4.446  0.0897  0.7279 -2.1330
  188POPC   C3321706   3.925   4.008   3.714  0.1100  0.0071 -0.2679
  188POPC   H3X21707   3.968   4.110   3.704 -0.1506  0.4570  2.5022
  188POPC   H3Y21708   3.997   3.937   3.759  1.6672 -0.3044 -2.9944
  188POPC   C3421709   3.814   4.028   3.820 -0.3314 -0.2811 -0.3401
  188POPC   H4X21710   3.740   3.945   3.810  0.0558 -0.3886 -3.2637
  188POPC   H4Y21711   3.767   4.127   3.802  2.4423  1.0983 -0.5368
  188POPC   C3521712   3.863   4.040   3.967 -0.0916  0.4615  0.0954
  188POPC   H5X21713   3.959   4.095   3.971 -0.0303  0.3197  0.5386
  188POPC   H5Y21714   3.881   3.935   3.999  0.8657  0.2780 -0.9839
  188POPC   C3621715   3.766   4.104   4.067  0.2544  0.2571  0.1656
  188POPC   H6X21716   3.664   4.062   4.049 -0.3680  0.7327  2.2800
  188POPC   H6Y21717   3.755   4.209   4.033 -0.0983 -0.2705 -1.4545
  188POPC   C3721718   3.807   4.080   4.220 -0.5564 -0.3548  0.4975
  188POPC   H7X21719   3.890   4.150   4.243 -0.2992 -0.2709 -0.6066
  188POPC   H7Y21720   3.848   3.976   4.223  3.0825  0.9162  0.0439
  188POPC   C3821721   3.696   4.111   4.319 -0.6153  0.2161 -0.0771
  188POPC   H8X21722   3.730   4.084   4.422 -2.1408  2.2053  1.0218
  188POPC   H8Y21723   3.597   4.068   4.295 -1.5849  1.9656  0.6495
  188POPC   C3921724   3.663   4.252   4.324  0.4077 -0.0999 -0.4099
  188POPC   H9X21725   3.651   4.300   4.224 -0.1980 -0.0017 -0.2908
  188POPC   H9Y21726   3.750   4.301   4.374 -0.8411  0.5532  1.1982
  188POPC  C31021727   3.533   4.282   4.397  0.7433 -0.5016 -0.6058
  188POPC  H10X21728   3.533   4.215   4.486  0.6284 -1.2173 -1.1358
  188POPC  H10Y21729   3.439   4.256   4.344  0.6301  0.5651 -0.9569
  188POPC  C31121730   3.513   4.434   4.430  0.7647  0.0356  0.0343
  188POPC  H11X21731   3.422   4.444   4.493 -0.6593 -0.0413 -1.9336
  188POPC  H11Y21732   3.472   4.478   4.336 -2.0832 -0.2309  1.0541
  188POPC  C31221733   3.629   4.514   4.491 -0.2836  0.7747  0.6870
  188POPC  H12X21734   3.702   4.545   4.413  1.8563  0.9541  2.6607
  188POPC  H12Y21735   3.684   4.452   4.565  1.3374  1.4417  0.0998
  188POPC  C31321736   3.590   4.641   4.565 -0.2053 -0.1525  0.0446
  188POPC  H13X21737   3.509   4.614   4.636 -2.0961  0.9980 -1.5440
  188POPC  H13Y21738   3.558   4.725   4.499  0.5897 -0.0984 -0.2797
  188POPC  C31421739   3.704   4.696   4.661 -0.6660  0.7249  0.0377
  188POPC  H14X21740   3.794   4.698   4.596 -0.6396  1.3575  0.0928
  188POPC  H14Y21741   3.723   4.623   4.743 -0.1665  0.3982 -0.3685
  188POPC  C31521742   3.666   4.823   4.740  0.0122  0.2409  0.5945
  188POPC  H15X21743   3.663   4.914   4.676 -1.7082  0.9267  1.5737
  188POPC  H15Y21744   3.744   4.840   4.818  0.4807 -0.3753  0.2678
  188POPC  C31621745   3.529   4.819   4.805  0.3250 -0.2494 -0.0872
  188POPC  H16X21746   3.509   4.913   4.860 -0.2947 -1.5875  2.1533
  188POPC  H16Y21747   3.507   4.753   4.892 -1.0675 -0.1120 -0.3015
  188POPC  H16Z21748   3.444   4.811   4.734  0.8642  3.2246 -1.2959
  189SAPI   C1221749   1.798   4.897   7.144 -0.1482  0.2911 -0.3171
  189SAPI    H221750   1.778   4.881   7.035 -0.9344 -0.4979 -0.0638
  189SAPI    O221751   1.943   4.909   7.158  0.2992  0.1963  0.1057
  189SAPI   HO221752   1.974   4.977   7.098 -3.1048  2.6191  0.7769
  189SAPI   C1321753   1.743   5.031   7.180  0.2684  0.7769 -0.4889
  189SAPI    H321754   1.634   5.026   7.164  0.3653 -0.3399 -0.9104
  189SAPI    O321755   1.781   5.141   7.094 -0.0775 -0.6848 -0.0150
  189SAPI   HO321756   1.871   5.173   7.108 -0.2399  0.0332 -0.6082
  189SAPI   C1421757   1.774   5.058   7.328 -0.5378  0.0822  0.3379
  189SAPI    H421758   1.879   5.093   7.330 -0.3905 -0.1178 -1.8564
  189SAPI    O421759   1.696   5.165   7.373 -0.1517  0.4165 -1.0847
  189SAPI   HO421760   1.730   5.241   7.325  0.3890  3.4258  3.4425
  189SAPI   C1521761   1.772   4.939   7.431  0.0918  0.0505  0.0744
  189SAPI    H521762   1.669   4.941   7.473 -0.5963 -1.8954 -1.3867
  189SAPI    O521763   1.872   4.963   7.530  0.0194  0.3060  0.2074
  189SAPI   HO521764   1.858   5.045   7.577 -0.3804 -0.0849  0.7822
  189SAPI   C1621765   1.777   4.798   7.369 -0.0634  0.1662 -0.2554
  189SAPI    H621766   1.882   4.769   7.390  0.0867  0.6991 -0.2531
  189SAPI    O621767   1.702   4.703   7.451 -0.1746 -0.1881  0.4123
  189SAPI   HO621768   1.734   4.617   7.424 -0.2581 -0.2861  0.6306
  189SAPI   C1121769   1.750   4.780   7.227 -0.5696 -0.1076  0.6610
  189SAPI    H121770   1.639   4.777   7.225 -0.5629 -0.3335  0.4965
  189SAPI     P21771   1.706   4.527   7.137 -0.1301 -0.0358  0.0170
  189SAPI   O1321772   1.585   4.581   7.064  0.4161 -0.6026 -0.1005
  189SAPI   O1421773   1.676   4.462   7.265 -0.8697  0.3286  0.5723
  189SAPI   O1221774   1.805   4.652   7.171  0.4556  0.2324  0.5428
  189SAPI   O1121775   1.780   4.425   7.045 -0.2081  0.3555 -0.3857
  189SAPI    C121776   1.907   4.440   6.986  0.2130  0.0646 -0.4113
  189SAPI    HA21777   1.974   4.514   7.036 -2.1787  0.5945  2.2879
  189SAPI    HB21778   1.959   4.342   7.002  0.7183  0.5877  1.3707
  189SAPI    C221779   1.875   4.457   6.833 -0.2119  0.2567  0.5423
  189SAPI    HS21780   1.957   4.407   6.778  0.4213  0.0062  1.6895
  189SAPI   O2121781   1.861   4.593   6.786  0.0020 -0.2517 -0.0475
  189SAPI   C2121782   1.972   4.654   6.767 -0.0768  0.8374 -1.0490
  189SAPI   O2221783   2.088   4.603   6.765 -0.0497 -0.3436  0.0370
  189SAPI   C2221784   1.942   4.799   6.718 -0.6404 -0.6592 -0.0109
  189SAPI   H2R21785   1.834   4.820   6.729 -0.1496  0.8159  3.1981
  189SAPI   H2S21786   1.984   4.873   6.790  0.7693  1.4286 -2.7433
  189SAPI    C321787   1.751   4.373   6.785 -0.0433  0.5416 -0.1488
  189SAPI    HX21788   1.669   4.439   6.822 -0.1191 -0.1063  0.8770
  189SAPI    HY21789   1.753   4.279   6.845  0.5026  1.1355  0.7883
  189SAPI   O3121790   1.760   4.340   6.649 -0.3542  1.0020 -0.0330
  189SAPI   C3121791   1.831   4.235   6.614  0.5968 -0.1489 -0.2163
  189SAPI   O3221792   1.889   4.156   6.691 -0.1653 -0.2721 -0.0674
  189SAPI   C3221793   1.826   4.224   6.463 -0.0991  0.5752 -0.2999
  189SAPI   H2X21794   1.718   4.212   6.442  0.1004 -3.2173  0.1337
  189SAPI   H2Y21795   1.886   4.138   6.425  0.2976  0.8778 -0.3669
  189SAPI   C2321796   1.990   4.820   6.574  0.2935 -0.9153 -0.7308
  189SAPI   H3R21797   1.921   4.767   6.506 -0.5633 -0.9494  0.1408
  189SAPI   H3S21798   2.087   4.772   6.547 -0.3816 -1.3686 -2.4353
  189SAPI   C2421799   2.005   4.966   6.527 -0.5471  0.6352  0.0981
  189SAPI   H4R21800   2.036   4.960   6.421  0.1386  3.6029  0.0456
  189SAPI   H4S21801   2.097   5.007   6.575 -0.4731 -1.1924  1.6164
  189SAPI   C2521802   1.890   5.060   6.534  0.6954 -0.3324  0.1515
  189SAPI   H5R21803   1.882   5.104   6.635  1.8495  1.4008 -0.4676
  189SAPI   C2621804   1.816   5.109   6.434  0.7876  0.8324 -0.1165
  189SAPI   H6R21805   1.724   5.166   6.454 -0.8162 -1.3083 -1.0220
  189SAPI   C2721806   1.820   5.076   6.289 -1.0907  0.8971  0.3083
  189SAPI   H7R21807   1.735   5.112   6.226 -3.1756 -2.2698  1.0695
  189SAPI   H7S21808   1.821   4.965   6.288 -0.8206  0.8853 -1.0201
  189SAPI   C2821809   1.956   5.122   6.232  0.4639 -0.2417  0.0794
  189SAPI   H8R21810   2.022   5.183   6.295  2.6760 -1.5855 -0.8084
  189SAPI   C2921811   1.992   5.102   6.102  0.4664  0.3909 -0.4043
  189SAPI   H9R21812   2.091   5.129   6.063  2.1702  0.6937  3.6319
  189SAPI  C21021813   1.904   5.014   6.020  0.1832  0.4716  0.9076
  189SAPI  H10R21814   1.839   4.947   6.080 -0.8113  1.3819  0.8887
  189SAPI  H10S21815   1.980   4.945   5.977 -0.4767 -0.5530  1.3444
  189SAPI  C21121816   1.826   5.098   5.930  0.2941  0.8125 -0.4148
  189SAPI  H11R21817   1.741   5.148   5.978 -0.9038  0.1149 -1.7139
  189SAPI  C21221818   1.819   5.106   5.796 -0.1533 -0.4456 -0.5414
  189SAPI  H12R21819   1.744   5.166   5.743 -1.6760 -3.3302 -1.8440
  189SAPI  C21321820   1.923   5.034   5.718  0.0799 -0.4485  1.7854
  189SAPI  H13R21821   2.014   5.008   5.778  1.6819  1.1600  0.1988
  189SAPI  H13S21822   1.974   5.101   5.646 -0.8759 -1.2084  0.3715
  189SAPI  C21421823   1.872   4.909   5.650  0.1516  0.8232  0.0565
  189SAPI  H14R21824   1.863   4.815   5.707 -1.3921  1.1768  0.4531
  189SAPI  C21521825   1.810   4.912   5.533  0.4941  0.8049 -1.1159
  189SAPI  H15R21826   1.769   4.825   5.482 -0.8027  0.8556 -0.2146
  189SAPI  C21621827   1.803   5.035   5.443  0.5432  0.0419 -0.4835
  189SAPI  H16R21828   1.812   5.131   5.499  0.9759 -0.6081  0.5988
  189SAPI  H16S21829   1.716   5.027   5.375  1.3166  1.1966 -1.6526
  189SAPI  C21721830   1.930   5.021   5.354 -0.2140 -0.5701 -0.2874
  189SAPI  H17R21831   2.023   4.987   5.405  1.6132  3.8799 -0.2500
  189SAPI  H17S21832   1.964   5.120   5.318 -1.5163  0.1060  0.2628
  189SAPI  C21821833   1.898   4.935   5.230  0.2784 -0.2749  0.1438
  189SAPI  H18R21834   1.845   4.849   5.275  1.4699 -0.0112  2.1600
  189SAPI  H18S21835   1.996   4.907   5.187  1.2906  1.1785  1.3991
  189SAPI  C21921836   1.818   5.019   5.136  0.0074  0.4703  0.3263
  189SAPI  H19R21837   1.880   5.111   5.126  0.6329  0.1277  0.9040
  189SAPI  H19S21838   1.720   5.046   5.182  1.0395  0.2113  2.8674
  189SAPI  C22021839   1.802   4.963   4.998 -0.3825  0.0989 -0.9195
  189SAPI  H20R21840   1.744   5.040   4.943 -0.1938  2.1302  1.5339
  189SAPI  H20S21841   1.742   4.870   4.996  0.1380 -0.4062  1.9608
  189SAPI  H20T21842   1.898   4.931   4.952 -0.5279  0.9120 -1.8182
  189SAPI   C3321843   1.865   4.353   6.389 -0.2407  0.7420 -0.3423
  189SAPI   H3X21844   1.969   4.378   6.419 -0.2030 -0.7590  0.9299
  189SAPI   H3Y21845   1.817   4.444   6.431 -3.1192 -0.6960 -0.2560
  189SAPI   C3421846   1.826   4.346   6.244  0.5418  0.2903 -0.2553
  189SAPI   H4X21847   1.720   4.326   6.220  0.2133  1.4672  0.1365
  189SAPI   H4Y21848   1.883   4.265   6.193 -0.9018 -0.3535 -0.9179
  189SAPI   C3521849   1.894   4.464   6.174  0.5127  0.0589 -0.4017
  189SAPI   H5X21850   2.000   4.477   6.202  0.5800  0.2677 -0.7514
  189SAPI   H5Y21851   1.844   4.557   6.208 -0.5348 -0.5310 -0.2767
  189SAPI   C3621852   1.892   4.471   6.020  0.8307  0.1023  0.6802
  189SAPI   H6X21853   1.797   4.436   5.975  1.1218  0.3921 -0.1953
  189SAPI   H6Y21854   1.974   4.404   5.986  0.3607 -0.4133  0.5491
  189SAPI   C3721855   1.922   4.614   5.964 -0.3797  0.2437  0.2654
  189SAPI   H7X21856   1.999   4.661   6.028 -0.8205  0.3530  0.7185
  189SAPI   H7Y21857   1.832   4.678   5.953 -0.6241  0.0173  0.9232
  189SAPI   C3821858   1.991   4.590   5.822  0.3208  0.6586  0.1319
  189SAPI   H8X21859   2.069   4.512   5.829 -1.6659 -1.5969 -1.4050
  189SAPI   H8Y21860   2.033   4.692   5.809  0.3392  0.8256  1.3983
  189SAPI   C3921861   1.884   4.549   5.718 -0.3620  0.7025 -0.1341
  189SAPI   H9X21862   1.797   4.619   5.725 -0.4493  0.5616  0.2170
  189SAPI   H9Y21863   1.846   4.449   5.749  1.7084  0.1014  0.6421
  189SAPI  C31021864   1.946   4.526   5.581 -0.0124 -0.6408  0.4908
  189SAPI  H10X21865   2.024   4.447   5.577  0.5618 -0.0202 -1.1291
  189SAPI  H10Y21866   2.009   4.617   5.571  0.5995 -1.2449 -1.6084
  189SAPI  C31121867   1.846   4.509   5.466  0.5179 -0.3061  0.4676
  189SAPI  H11X21868   1.756   4.573   5.460  0.8801  0.0462 -2.0067
  189SAPI  H11Y21869   1.809   4.404   5.475  0.9817 -0.3468  2.4516
  189SAPI  C31221870   1.902   4.506   5.325 -0.4485 -0.0261 -0.2560
  189SAPI  H12X21871   1.972   4.420   5.330  1.4383  1.5246  1.6363
  189SAPI  H12Y21872   1.962   4.600   5.321 -0.4483 -0.0209 -0.1240
  189SAPI  C31321873   1.792   4.504   5.224 -0.1901  0.0744  0.1556
  189SAPI  H13X21874   1.728   4.595   5.220 -0.0004  0.1634 -1.5297
  189SAPI  H13Y21875   1.719   4.422   5.240 -1.6194  1.1327 -0.5799
  189SAPI  C31421876   1.841   4.503   5.080 -0.2362 -0.2255  0.0511
  189SAPI  H14X21877   1.869   4.610   5.071 -0.7519 -0.2809 -3.2698
  189SAPI  H14Y21878   1.761   4.470   5.010 -1.0806  1.5464  0.1174
  189SAPI  C31521879   1.972   4.423   5.046 -1.1530 -0.4091 -0.1223
  189SAPI  H15X21880   1.957   4.314   5.060 -1.3520 -0.7861 -2.6708
  189SAPI  H15Y21881   2.060   4.464   5.099 -0.2818  1.2127 -2.6268
  189SAPI  C31621882   2.013   4.441   4.898 -0.0887 -0.4555 -0.3445
  189SAPI  H16X21883   2.034   4.548   4.875  0.9110 -0.2476  1.3770
  189SAPI  H16Y21884   1.938   4.401   4.826 -0.4124  1.7612 -1.3315
  189SAPI  C31721885   2.151   4.387   4.862  0.0493  0.6404 -0.1209
  189SAPI  H17X21886   2.160   4.277   4.855  1.4769  0.6516  1.0250
  189SAPI  H17Y21887   2.221   4.406   4.946 -0.9059  0.5011  0.7199
  189SAPI  C31821888   2.213   4.458   4.739 -0.0523 -0.0009 -0.0464
  189SAPI  H18X21889   2.227   4.567   4.757 -1.3662  0.0641  0.7338
  189SAPI  H18Y21890   2.140   4.437   4.657 -1.7982  1.6727  0.9777
  189SAPI  H18Z21891   2.306   4.403   4.715 -0.3564 -0.4914 -0.0996
  190SAPI   C1221892   0.641   2.468   7.473 -0.1795  0.4552 -0.3125
  190SAPI    H221893   0.587   2.524   7.551 -1.3301 -0.3599 -0.4883
  190SAPI    O221894   0.737   2.388   7.538 -0.0084  0.4237 -0.6309
  190SAPI   HO221895   0.808   2.451   7.551 -0.6994  1.4056 -1.4873
  190SAPI   C1321896   0.539   2.383   7.401 -0.2900  0.1451 -0.0627
  190SAPI    H321897   0.468   2.457   7.358 -1.8443 -0.1786  1.8223
  190SAPI    O321898   0.473   2.308   7.500  0.1329  0.5168  0.2693
  190SAPI   HO321899   0.531   2.253   7.554 -0.6233 -1.8648 -1.1978
  190SAPI   C1421900   0.603   2.291   7.295 -0.1136  1.1492  0.3497
  190SAPI    H421901   0.681   2.226   7.340 -1.4205 -2.8262 -2.5294
  190SAPI    O421902   0.513   2.196   7.238  0.6069 -1.0190  0.0654
  190SAPI   HO421903   0.563   2.120   7.210 -0.7811 -2.1120  0.4422
  190SAPI   C1521904   0.668   2.372   7.189 -0.5277 -0.1665 -0.1083
  190SAPI    H521905   0.590   2.421   7.127  0.7805  0.9208 -0.9695
  190SAPI    O521906   0.743   2.291   7.098  0.1448  0.0935 -0.2189
  190SAPI   HO521907   0.687   2.295   7.020 -1.1769  4.4806  0.6315
  190SAPI   C1621908   0.764   2.481   7.249  0.4555 -0.0563  0.5578
  190SAPI    H621909   0.849   2.422   7.289 -0.3276 -0.7799  1.2055
  190SAPI    O621910   0.811   2.569   7.152  0.4546  0.2243  0.6082
  190SAPI   HO621911   0.837   2.650   7.197  0.9648 -0.2863  1.2561
  190SAPI   C1121912   0.711   2.563   7.370 -0.1808 -0.0654 -0.2602
  190SAPI    H121913   0.632   2.629   7.329 -0.8821  0.3095  1.5826
  190SAPI     P21914   0.797   2.795   7.457 -0.0170 -0.2237  0.4737
  190SAPI   O1321915   0.910   2.842   7.536  0.3096 -0.6287 -0.2810
  190SAPI   O1421916   0.663   2.812   7.512  0.0810 -0.1321  0.3765
  190SAPI   O1221917   0.817   2.633   7.430 -0.2525  0.0215  0.3364
  190SAPI   O1121918   0.807   2.860   7.311  0.4650  0.0844  0.4202
  190SAPI    C121919   0.726   2.968   7.266 -0.0283  0.1140  0.7399
  190SAPI    HA21920   0.698   3.046   7.341 -3.5219 -0.2319 -0.0558
  190SAPI    HB21921   0.786   3.023   7.190 -1.1776 -1.2302 -1.2050
  190SAPI    C221922   0.601   2.930   7.180  0.2492  0.3882  0.1838
  190SAPI    HS21923   0.536   2.867   7.245  0.5466  0.2592  0.3592
  190SAPI   O2121924   0.640   2.851   7.059  0.5962  0.4446  0.2182
  190SAPI   C2121925   0.553   2.770   7.013  1.2061  0.1227 -0.2672
  190SAPI   O2221926   0.440   2.749   7.063  0.1465 -0.2910  0.3712
  190SAPI   C2221927   0.600   2.711   6.882  0.4257 -0.5143 -0.8129
  190SAPI   H2R21928   0.663   2.789   6.834  0.5007  0.5944  1.0101
  190SAPI   H2S21929   0.663   2.626   6.916 -0.0076 -0.7730 -0.6490
  190SAPI    C321930   0.527   3.059   7.139  0.7519 -0.3229 -0.2719
  190SAPI    HX21931   0.499   3.110   7.234  0.6265 -1.2146  0.1784
  190SAPI    HY21932   0.431   3.030   7.092  0.2584 -0.3528  0.7409
  190SAPI   O3121933   0.608   3.141   7.051  0.0660  0.3589  0.6509
  190SAPI   C3121934   0.553   3.183   6.943 -0.1091 -0.6619 -0.2516
  190SAPI   O3221935   0.435   3.180   6.918  0.2597  0.4654 -0.0696
  190SAPI   C3221936   0.649   3.259   6.850  0.0540  0.6445  0.0522
  190SAPI   H2X21937   0.754   3.243   6.881  0.3456  1.1182 -0.6776
  190SAPI   H2Y21938   0.622   3.367   6.863  0.6716  0.8789 -0.5677
  190SAPI   C2321939   0.486   2.666   6.786 -0.4877  0.6876  0.0028
  190SAPI   H3R21940   0.421   2.593   6.839  0.9351 -1.1740 -0.6844
  190SAPI   H3S21941   0.538   2.609   6.706  2.6599  0.8307  1.7738
  190SAPI   C2421942   0.410   2.783   6.727 -0.8427 -0.2797 -0.2186
  190SAPI   H4R21943   0.371   2.848   6.808 -0.6100 -0.0647 -0.2768
  190SAPI   H4S21944   0.323   2.741   6.674 -0.7366 -0.8853  0.0828
  190SAPI   C2521945   0.493   2.874   6.634 -0.2347 -0.2021  0.1229
  190SAPI   H5R21946   0.603   2.870   6.639 -0.0809 -0.0797 -2.1927
  190SAPI   C2621947   0.444   2.952   6.535 -0.3824  0.0555  0.4679
  190SAPI   H6R21948   0.513   3.008   6.470 -1.1362  1.1999  0.6369
  190SAPI   C2721949   0.294   2.958   6.514  0.2445  0.1880 -0.5818
  190SAPI   H7R21950   0.237   2.951   6.609  0.0056 -0.2427 -0.7528
  190SAPI   H7S21951   0.264   2.880   6.441 -1.1908  1.3004 -1.2366
  190SAPI   C2821952   0.252   3.090   6.452 -0.0070 -0.1112 -0.1173
  190SAPI   H8R21953   0.206   3.165   6.517 -2.1881  0.2156 -1.9172
  190SAPI   C2921954   0.266   3.127   6.322 -0.1830  0.3077 -0.2999
  190SAPI   H9R21955   0.229   3.228   6.298  1.5177  0.9861 -0.2034
  190SAPI  C21021956   0.342   3.052   6.209  0.9614 -0.0040 -0.3735
  190SAPI  H10R21957   0.336   2.943   6.226  2.6409  0.1689  1.7263
  190SAPI  H10S21958   0.448   3.071   6.237  0.4478 -1.1476  2.7216
  190SAPI  C21121959   0.285   3.094   6.072 -0.0817  0.0944  0.2318
  190SAPI  H11R21960   0.175   3.093   6.069 -0.1406 -0.9376 -4.0918
  190SAPI  C21221961   0.353   3.122   5.961  0.3589 -0.4955  0.9200
  190SAPI  H12R21962   0.297   3.154   5.871  0.3508  2.4900  1.8736
  190SAPI  C21321963   0.498   3.112   5.930  0.0341  0.5965 -0.1254
  190SAPI  H13R21964   0.560   3.133   6.019 -0.0092  1.3805 -0.2718
  190SAPI  H13S21965   0.522   3.192   5.857 -2.1265  2.0720  0.6760
  190SAPI  C21421966   0.535   2.978   5.879  0.8267  0.1133  0.1271
  190SAPI  H14R21967   0.558   2.901   5.954  1.4779  0.2191  0.0369
  190SAPI  C21521968   0.549   2.945   5.745 -0.1375 -0.3659  0.0052
  190SAPI  H15R21969   0.526   2.840   5.724 -1.4235  0.2779 -2.1225
  190SAPI  C21621970   0.540   3.047   5.635  0.0135  0.0345 -0.2874
  190SAPI  H16R21971   0.480   3.134   5.669  0.9119  0.2361  0.8731
  190SAPI  H16S21972   0.489   3.010   5.544  0.5882 -2.3405  0.2913
  190SAPI  C21721973   0.683   3.098   5.598  0.2085  1.0366  0.4374
  190SAPI  H17R21974   0.734   3.140   5.687 -1.0705 -1.0162  2.2229
  190SAPI  H17S21975   0.679   3.175   5.517  0.8496 -0.3935 -1.0155
  190SAPI  C21821976   0.767   2.977   5.537  0.3644  0.0862 -0.3135
  190SAPI  H18R21977   0.778   2.885   5.598  0.1471  0.9685  1.1026
  190SAPI  H18S21978   0.870   3.018   5.528 -0.6578  3.4016  1.4091
  190SAPI  C21921979   0.719   2.930   5.402  0.3234  0.7445  0.3713
  190SAPI  H19R21980   0.716   3.023   5.341  0.9642  0.3228 -0.3134
  190SAPI  H19S21981   0.618   2.885   5.408 -0.2443  1.9701  0.4371
  190SAPI  C22021982   0.820   2.837   5.329 -0.4007  0.6642 -0.6511
  190SAPI  H20R21983   0.794   2.733   5.358  1.6824  0.2278 -0.2008
  190SAPI  H20S21984   0.925   2.851   5.362 -0.9236  1.5427  0.7334
  190SAPI  H20T21985   0.811   2.845   5.219 -0.2606 -1.8994 -0.8948
  190SAPI   C3321986   0.642   3.225   6.703  0.9615 -0.3043  0.8295
  190SAPI   H3X21987   0.540   3.249   6.667  1.7779  0.5961 -1.0217
  190SAPI   H3Y21988   0.652   3.114   6.697  0.0830 -0.3275 -0.7616
  190SAPI   C3421989   0.747   3.279   6.610 -0.1761 -0.0501  0.4674
  190SAPI   H4X21990   0.839   3.225   6.642 -0.8840 -1.2201  0.5975
  190SAPI   H4Y21991   0.746   3.389   6.628  1.8429  0.4400 -1.9497
  190SAPI   C3521992   0.708   3.247   6.468  0.6435 -0.3636  0.4638
  190SAPI   H5X21993   0.609   3.294   6.454  0.9207 -0.3076 -1.7331
  190SAPI   H5Y21994   0.692   3.138   6.454  0.0244 -0.2652  0.3849
  190SAPI   C3621995   0.820   3.273   6.366 -0.1358 -0.0391  0.1646
  190SAPI   H6X21996   0.913   3.218   6.391 -0.0465 -0.6831 -1.4471
  190SAPI   H6Y21997   0.850   3.379   6.380  2.1250 -0.6520  0.3510
  190SAPI   C3721998   0.787   3.275   6.214  0.0984 -0.6678 -0.0414
  190SAPI   H7X21999   0.710   3.354   6.200 -0.0041 -0.7170  0.2439
  190SAPI   H7Y22000   0.755   3.172   6.187  1.5382 -0.5818 -2.3727
  190SAPI   C3822001   0.913   3.306   6.136 -0.0062 -0.3906  0.2099
  190SAPI   H8X22002   0.988   3.227   6.158  1.8098  0.7624 -1.6208
  190SAPI   H8Y22003   0.941   3.409   6.165 -3.1092  1.2308 -1.9752
  190SAPI   C3922004   0.881   3.301   5.991 -0.4036 -0.5486  0.9956
  190SAPI   H9X22005   0.789   3.362   5.975 -0.0511 -0.0627  0.8142
  190SAPI   H9Y22006   0.852   3.197   5.964 -0.8666 -0.4464  1.0860
  190SAPI  C31022007   0.997   3.356   5.908  0.1200  0.4374 -0.7895
  190SAPI  H10X22008   1.088   3.300   5.939 -0.4394 -0.9983 -1.6577
  190SAPI  H10Y22009   1.008   3.460   5.945 -3.4018  1.0358 -1.0598
  190SAPI  C31122010   0.977   3.340   5.757 -0.0765  0.6837 -0.3080
  190SAPI  H11X22011   0.877   3.381   5.730 -1.1084 -0.5487  1.4454
  190SAPI  H11Y22012   0.969   3.231   5.735 -1.0305  0.3021  1.7047
  190SAPI  C31222013   1.082   3.401   5.661 -0.2287  0.3142  0.1775
  190SAPI  H12X22014   1.178   3.347   5.678 -0.1258  1.0753  2.2445
  190SAPI  H12Y22015   1.102   3.508   5.680 -0.2726  0.9148 -2.7422
  190SAPI  C31322016   1.040   3.380   5.515  0.0589 -0.4719 -0.9058
  190SAPI  H13X22017   1.065   3.274   5.493  1.3679 -0.4358  0.2922
  190SAPI  H13Y22018   1.099   3.451   5.452  0.9329 -1.3894 -1.1439
  190SAPI  C31422019   0.905   3.435   5.471  0.2875  0.0163 -0.1118
  190SAPI  H14X22020   0.883   3.538   5.507  1.3570  0.3538 -0.3680
  190SAPI  H14Y22021   0.837   3.366   5.525 -0.1340  1.3923  1.1872
  190SAPI  C31522022   0.874   3.441   5.324 -0.7457 -0.0452  0.1484
  190SAPI  H15X22023   0.944   3.515   5.280 -1.4391  0.4352 -0.1828
  190SAPI  H15Y22024   0.771   3.479   5.308 -0.2022  1.2046 -0.5128
  190SAPI  C31622025   0.887   3.315   5.241  0.0431  0.1819 -0.1540
  190SAPI  H16X22026   0.836   3.230   5.291  1.8473 -1.2667 -0.6625
  190SAPI  H16Y22027   0.991   3.281   5.223  0.4505  1.5474 -0.5530
  190SAPI  C31722028   0.836   3.340   5.099  0.7640  0.4433  0.4662
  190SAPI  H17X22029   0.923   3.392   5.053  2.0105 -1.5863  0.3799
  190SAPI  H17Y22030   0.752   3.411   5.115  1.1166  0.7295  1.1315
  190SAPI  C31822031   0.805   3.205   5.027  0.3171 -0.1400  0.4254
  190SAPI  H18X22032   0.900   3.153   5.000 -0.9050 -2.3496  0.1571
  190SAPI  H18Y22033   0.742   3.223   4.937  1.6598  2.7790 -0.0442
  190SAPI  H18Z22034   0.735   3.148   5.092 -0.7628  1.0274  0.3327
  191SAPI   C1222035   1.879   6.188   2.608  0.3718  0.4707  0.1569
  191SAPI    H222036   1.875   6.188   2.719 -2.1972  0.2593  0.1402
  191SAPI    O222037   1.777   6.276   2.572  0.1022 -0.0734  0.0665
  191SAPI   HO222038   1.705   6.265   2.635  0.4715  0.5459  0.6112
  191SAPI   C1322039   2.008   6.222   2.555 -0.2709  0.5565  0.1255
  191SAPI    H322040   2.083   6.143   2.578 -1.5526 -0.2327  1.7881
  191SAPI    O322041   2.060   6.340   2.621  0.3894  0.3031 -0.7250
  191SAPI   HO322042   2.112   6.315   2.698 -0.2100  0.2227 -0.3388
  191SAPI   C1422043   2.004   6.235   2.403 -0.9148 -0.0955  0.7685
  191SAPI    H422044   1.932   6.315   2.375 -0.4861 -0.0765 -0.3111
  191SAPI    O422045   2.127   6.286   2.342 -0.1058  0.4011 -0.0191
  191SAPI   HO422046   2.195   6.222   2.367 -1.3183 -2.0217 -2.3303
  191SAPI   C1522047   1.947   6.110   2.335  0.2232  0.0668 -0.3363
  191SAPI    H522048   2.033   6.040   2.334 -0.4430 -0.7819 -1.4210
  191SAPI    O522049   1.909   6.123   2.200 -0.1030  0.0425 -0.6577
  191SAPI   HO522050   1.880   6.214   2.187  2.2801  1.1076  0.7342
  191SAPI   C1622051   1.846   6.031   2.414  0.1019  0.2049  1.3658
  191SAPI    H622052   1.746   6.067   2.383  0.8485  0.9300 -0.3006
  191SAPI    O622053   1.841   5.893   2.374 -0.5561 -0.3461 -0.5930
  191SAPI   HO622054   1.912   5.851   2.424 -1.0871  0.1221  0.6053
  191SAPI   C1122055   1.848   6.048   2.564  0.8771  0.3702  0.0346
  191SAPI    H122056   1.920   5.973   2.602  0.8127  0.6900  0.8127
  191SAPI     P22057   1.683   5.959   2.764  0.0138 -0.1688  0.0379
  191SAPI   O1322058   1.538   5.975   2.776 -0.0653  0.3974  0.3263
  191SAPI   O1422059   1.768   6.030   2.858  0.1478 -0.2528 -0.3560
  191SAPI   O1222060   1.717   6.010   2.613  0.5398 -0.5445 -0.9396
  191SAPI   O1122061   1.709   5.808   2.750 -0.0267 -0.9270  0.2805
  191SAPI    C122062   1.829   5.739   2.786 -0.1301  0.0194  0.1078
  191SAPI    HA22063   1.886   5.724   2.692 -2.2112 -0.5533 -1.1449
  191SAPI    HB22064   1.897   5.795   2.854 -0.3903  0.7032 -0.1850
  191SAPI    C222065   1.802   5.602   2.853  0.2877 -1.2609 -0.1434
  191SAPI    HS22066   1.704   5.558   2.826 -0.3589  0.6690 -1.1422
  191SAPI   O2122067   1.813   5.624   2.998  0.3890  0.3511  0.1738
  191SAPI   C2122068   1.708   5.675   3.056 -0.4540 -0.0417  0.7385
  191SAPI   O2222069   1.611   5.721   3.001 -0.2670 -0.4633 -0.2241
  191SAPI   C2222070   1.732   5.672   3.207  0.0043 -0.0452  0.2308
  191SAPI   H2R22071   1.731   5.566   3.240 -2.0551 -0.1598 -0.0589
  191SAPI   H2S22072   1.838   5.700   3.227  0.5369 -1.7608 -0.0049
  191SAPI    C322073   1.911   5.498   2.798  0.9012 -0.0357  0.0156
  191SAPI    HX22074   2.016   5.529   2.816  1.4786 -0.4629 -2.3151
  191SAPI    HY22075   1.899   5.489   2.688 -2.3568  1.6633  0.0985
  191SAPI   O3122076   1.875   5.372   2.853  0.2907 -0.0149  0.2699
  191SAPI   C3122077   1.956   5.318   2.941 -0.3982 -0.9348  0.2163
  191SAPI   O3222078   2.071   5.353   2.967 -0.3430 -0.5217 -0.0341
  191SAPI   C3222079   1.868   5.216   3.015 -0.2507  0.4134  0.3587
  191SAPI   H2X22080   1.860   5.127   2.950 -0.0574 -0.3234  1.3153
  191SAPI   H2Y22081   1.764   5.254   3.027 -0.2157  2.1419 -3.4498
  191SAPI   C2322082   1.638   5.777   3.270 -0.2311  0.0068  0.3277
  191SAPI   H3R22083   1.528   5.768   3.252 -0.7877  0.6352  2.9867
  191SAPI   H3S22084   1.664   5.874   3.221  0.3498 -0.7200 -0.8535
  191SAPI   C2422085   1.652   5.788   3.418  0.2849 -0.2094  0.3548
  191SAPI   H4R22086   1.758   5.775   3.449  0.0488  0.2850  1.4257
  191SAPI   H4S22087   1.594   5.706   3.464  0.3451 -0.4772 -0.0391
  191SAPI   C2522088   1.597   5.918   3.475  0.0671  0.5647 -0.6499
  191SAPI   H5R22089   1.582   6.002   3.406  1.5727  0.5837 -0.9773
  191SAPI   C2622090   1.579   5.948   3.604  0.9769 -0.1763 -0.0320
  191SAPI   H6R22091   1.539   6.047   3.632  0.1516 -1.2877  3.0771
  191SAPI   C2722092   1.607   5.855   3.714 -0.1902 -0.1206 -0.2159
  191SAPI   H7R22093   1.662   5.767   3.674  0.6908 -0.3812  1.4712
  191SAPI   H7S22094   1.511   5.818   3.755 -0.6866  1.3601 -0.0099
  191SAPI   C2822095   1.696   5.926   3.815 -0.1891  0.4642 -0.0170
  191SAPI   H8R22096   1.797   5.948   3.778 -0.7865  1.3879 -1.1796
  191SAPI   C2922097   1.660   5.953   3.939 -0.0141 -0.2286  0.1037
  191SAPI   H9R22098   1.736   6.015   3.989  1.9048 -0.2785 -2.5996
  191SAPI  C21022099   1.526   5.929   4.011 -0.2157 -0.3704  0.1909
  191SAPI  H10R22100   1.531   5.843   4.082  1.5753 -2.3058 -2.1322
  191SAPI  H10S22101   1.457   5.891   3.933  0.4542  0.0005 -0.5907
  191SAPI  C21122102   1.469   6.055   4.076 -0.3674  0.2608  0.1452
  191SAPI  H11R22103   1.461   6.141   4.007 -0.7522  0.4740  0.4506
  191SAPI  C21222104   1.437   6.079   4.204  0.1029 -0.4354 -0.3809
  191SAPI  H12R22105   1.391   6.177   4.226  1.4230 -0.0530  0.8463
  191SAPI  C21322106   1.424   5.983   4.321 -0.2076 -0.3757  0.5652
  191SAPI  H13R22107   1.409   5.881   4.280  0.8064 -0.5517  0.6012
  191SAPI  H13S22108   1.327   6.009   4.369 -0.7370 -0.2882 -0.5336
  191SAPI  C21422109   1.540   5.986   4.418 -0.2300 -0.3782  0.6593
  191SAPI  H14R22110   1.616   5.908   4.402  0.3781  0.2134  0.6041
  191SAPI  C21522111   1.556   6.077   4.512  0.1368 -0.3329 -0.2553
  191SAPI  H15R22112   1.636   6.057   4.585 -1.7349 -2.0480  1.4343
  191SAPI  C21622113   1.467   6.196   4.538  0.9853  0.2869  0.0560
  191SAPI  H16R22114   1.437   6.254   4.448  0.3905 -3.0392 -2.0234
  191SAPI  H16S22115   1.520   6.272   4.600 -1.7045  3.3538 -1.0905
  191SAPI  C21722116   1.348   6.150   4.621  0.3579  0.2079  0.3978
  191SAPI  H17R22117   1.295   6.064   4.575 -1.9720  1.9268 -0.3496
  191SAPI  H17S22118   1.268   6.225   4.599  0.3769 -0.1305 -0.8662
  191SAPI  C21822119   1.365   6.139   4.774 -0.0129 -0.3546 -0.2367
  191SAPI  H18R22120   1.450   6.076   4.807  1.5126  1.1345 -1.1510
  191SAPI  H18S22121   1.264   6.100   4.799  0.0113 -0.1666  0.1691
  191SAPI  C21922122   1.367   6.271   4.842 -0.2339  0.0345 -0.3356
  191SAPI  H19R22123   1.282   6.335   4.808 -0.5276  0.4277  1.0957
  191SAPI  H19S22124   1.460   6.327   4.818 -0.6184  0.3530 -1.1463
  191SAPI  C22022125   1.348   6.254   4.991 -0.6253  0.8701  1.1000
  191SAPI  H20R22126   1.425   6.182   5.027 -1.0246 -1.0902 -1.6702
  191SAPI  H20S22127   1.245   6.231   5.024 -0.6232  0.1281  0.6016
  191SAPI  H20T22128   1.364   6.353   5.040 -0.2700  0.9142  0.8951
  191SAPI   C3322129   1.932   5.174   3.151  0.0664 -0.1120  0.5195
  191SAPI   H3X22130   2.042   5.167   3.140  0.0562  0.4953 -0.0600
  191SAPI   H3Y22131   1.892   5.072   3.164  0.1625 -0.1416  0.5762
  191SAPI   C3422132   1.899   5.273   3.265 -0.1626  0.2046 -0.4867
  191SAPI   H4X22133   1.789   5.259   3.268  0.1374 -2.5741  0.4487
  191SAPI   H4Y22134   1.926   5.378   3.240 -1.6199  0.8222  0.4386
  191SAPI   C3522135   1.955   5.236   3.406  0.0726  0.3532  0.0738
  191SAPI   H5X22136   2.059   5.203   3.387  0.0607 -0.1704  0.8733
  191SAPI   H5Y22137   1.899   5.151   3.450 -0.2706 -0.7726 -2.3792
  191SAPI   C3622138   1.958   5.355   3.501  0.1626 -0.2490  0.3307
  191SAPI   H6X22139   2.013   5.441   3.458  0.8100  0.7988  3.0196
  191SAPI   H6Y22140   1.995   5.336   3.604 -3.4718  1.6331  2.1744
  191SAPI   C3722141   1.810   5.393   3.519  0.1282  0.0862  0.5615
  191SAPI   H7X22142   1.753   5.307   3.559 -1.6693  0.3717 -1.2004
  191SAPI   H7Y22143   1.759   5.422   3.424  0.0025  0.4506  0.7362
  191SAPI   C3822144   1.782   5.508   3.620  0.7567 -0.0863 -0.0870
  191SAPI   H8X22145   1.676   5.541   3.628  0.2776 -1.0460 -1.8610
  191SAPI   H8Y22146   1.843   5.591   3.580 -0.5127  0.2935 -1.3368
  191SAPI   C3922147   1.819   5.478   3.766  0.2864 -0.6809  0.1019
  191SAPI   H9X22148   1.929   5.462   3.773  0.1823 -1.3638  0.2490
  191SAPI   H9Y22149   1.774   5.381   3.794  0.4621 -1.8493 -3.1949
  191SAPI  C31022150   1.769   5.581   3.871  0.6413 -0.1705  0.0684
  191SAPI  H10X22151   1.658   5.592   3.870  0.6545 -0.0029  0.3120
  191SAPI  H10Y22152   1.807   5.682   3.844  2.0860 -0.8261 -0.4299
  191SAPI  C31122153   1.821   5.542   4.012  0.5466  0.1946 -0.1305
  191SAPI  H11X22154   1.930   5.545   4.035  0.6698  2.8588 -0.7895
  191SAPI  H11Y22155   1.787   5.436   4.021 -0.3105  0.4531 -0.2888
  191SAPI  C31222156   1.746   5.609   4.129 -0.2660  0.4912 -0.1816
  191SAPI  H12X22157   1.640   5.596   4.099 -0.2431 -0.6996  0.2071
  191SAPI  H12Y22158   1.780   5.715   4.127  2.8438 -0.3697  0.7055
  191SAPI  C31322159   1.775   5.558   4.275 -0.1376 -0.2500  0.0680
  191SAPI  H13X22160   1.878   5.587   4.307 -0.7608  2.2550  0.0589
  191SAPI  H13Y22161   1.746   5.454   4.297  1.3614 -0.3093  1.9406
  191SAPI  C31422162   1.688   5.644   4.373 -0.0401 -0.8420  0.4542
  191SAPI  H14X22163   1.582   5.614   4.359 -0.0117 -0.8569  0.2665
  191SAPI  H14Y22164   1.690   5.750   4.341 -0.2073 -0.8455  0.4311
  191SAPI  C31522165   1.712   5.638   4.528  0.5940  0.5948  0.0664
  191SAPI  H15X22166   1.633   5.700   4.575  1.7339  0.8147  1.8043
  191SAPI  H15Y22167   1.817   5.668   4.550  1.7319 -0.5451 -3.2548
  191SAPI  C31622168   1.694   5.496   4.586 -0.4916  0.1287 -0.2627
  191SAPI  H16X22169   1.637   5.426   4.522 -1.7783 -2.1464  3.0891
  191SAPI  H16Y22170   1.634   5.497   4.679 -0.5526 -0.3022 -0.2939
  191SAPI  C31722171   1.826   5.420   4.625  0.8337  0.2944 -0.3595
  191SAPI  H17X22172   1.907   5.431   4.550 -0.8389  1.4717 -2.0947
  191SAPI  H17Y22173   1.790   5.315   4.620 -0.8476  0.6061  2.8207
  191SAPI  C31822174   1.889   5.444   4.763 -0.4701  1.1822  0.1831
  191SAPI  H18X22175   1.941   5.542   4.760  1.5050  0.3152  2.5376
  191SAPI  H18Y22176   1.963   5.361   4.776  0.9874  2.3637 -0.3202
  191SAPI  H18Z22177   1.820   5.450   4.849 -0.9916  0.8600 -0.2077
  192SAPI   C1222178   0.844   3.018   2.878  0.2148 -0.4189  0.4473
  192SAPI    H222179   0.835   3.050   2.984  0.5844 -1.6070  0.8556
  192SAPI    O222180   0.791   2.885   2.867 -0.0220 -0.1102 -0.0124
  192SAPI   HO222181   0.851   2.832   2.921  1.0366  1.7028  0.6879
  192SAPI   C1322182   0.763   3.111   2.791  0.2373  0.1598  0.2020
  192SAPI    H322183   0.808   3.212   2.778 -0.7438  0.6582  0.5388
  192SAPI    O322184   0.631   3.125   2.825 -0.3506  0.1004  0.2764
  192SAPI   HO322185   0.607   3.039   2.860  2.3042 -0.1605  1.7484
  192SAPI   C1422186   0.768   3.055   2.650 -0.1172  0.7790  0.5742
  192SAPI    H422187   0.718   2.956   2.653  0.8998  0.2795  1.1441
  192SAPI    O422188   0.695   3.125   2.552 -0.0275  0.1726 -0.7115
  192SAPI   HO422189   0.607   3.143   2.589  0.1150  1.6664 -1.0104
  192SAPI   C1522190   0.908   3.029   2.601  0.4580 -0.6784  0.0553
  192SAPI    H522191   0.943   3.132   2.574 -1.3308 -0.0379  0.0524
  192SAPI    O522192   0.916   2.949   2.483 -0.2110 -0.9191 -0.0459
  192SAPI   HO522193   0.922   2.857   2.510 -1.7608 -1.7239 -2.1825
  192SAPI   C1622194   1.015   2.992   2.707  0.6360  0.1084  0.0065
  192SAPI    H622195   1.029   2.882   2.706  3.3643  0.3754 -0.1303
  192SAPI    O622196   1.150   3.032   2.670  0.4136  0.4840  0.3071
  192SAPI   HO622197   1.199   2.965   2.622  0.0805 -0.8589  1.7797
  192SAPI   C1122198   0.989   3.022   2.848 -0.2106 -0.3489 -0.4478
  192SAPI    H122199   1.019   3.128   2.864  0.3618 -0.5138 -0.3987
  192SAPI     P22200   1.168   2.976   3.049 -0.2394 -0.5658 -0.0111
  192SAPI   O1322201   1.255   3.081   2.991 -0.2365 -0.6946  0.2752
  192SAPI   O1422202   1.225   2.849   3.098  0.6806  0.2679 -0.1993
  192SAPI   O1222203   1.068   2.931   2.927 -0.5309 -0.6691 -0.3344
  192SAPI   O1122204   1.058   3.038   3.149  0.2052 -0.3834  0.0803
  192SAPI    C122205   1.072   3.171   3.187 -0.1696  0.0062 -0.5239
  192SAPI    HA22206   1.179   3.186   3.209 -0.2194 -2.7793  2.2525
  192SAPI    HB22207   1.035   3.246   3.113  0.4896  1.7684  0.8843
  192SAPI    C222208   0.987   3.204   3.315 -0.1813  0.4441 -0.2184
  192SAPI    HS22209   1.020   3.298   3.363  2.7619 -1.7003  2.3770
  192SAPI   O2122210   1.014   3.099   3.408  0.0462  0.2526 -0.4787
  192SAPI   C2122211   1.134   3.107   3.463 -0.2234  0.3164 -1.2386
  192SAPI   O2222212   1.209   3.203   3.456 -0.6060  0.0789  0.0696
  192SAPI   C2222213   1.181   2.968   3.521 -0.4719 -0.0892  0.2184
  192SAPI   H2R22214   1.099   2.894   3.526 -0.0087 -0.5477  2.2851
  192SAPI   H2S22215   1.271   2.938   3.463 -0.1770 -1.1356  1.1647
  192SAPI    C322216   0.841   3.223   3.286  0.3414 -0.6205  0.5637
  192SAPI    HX22217   0.801   3.135   3.232  0.8915  1.0479 -2.8333
  192SAPI    HY22218   0.846   3.309   3.216  1.9646  0.2661  1.6813
  192SAPI   O3122219   0.768   3.288   3.395  0.2569 -0.0289  0.1877
  192SAPI   C3122220   0.643   3.244   3.410 -0.1843  0.7210  0.4878
  192SAPI   O3222221   0.595   3.154   3.349 -0.0915  0.2550  0.4984
  192SAPI   C3222222   0.589   3.313   3.536 -0.5176  0.0175 -0.3885
  192SAPI   H2X22223   0.485   3.275   3.547 -0.1374 -1.3956 -1.3996
  192SAPI   H2Y22224   0.593   3.423   3.521 -1.3747  0.1705  0.4203
  192SAPI   C2322225   1.215   2.972   3.672  0.2719  1.3215  0.6378
  192SAPI   H3R22226   1.317   3.011   3.694  1.2057 -1.3506  1.4673
  192SAPI   H3S22227   1.221   2.864   3.697  0.5400  1.0974 -0.3495
  192SAPI   C2422228   1.103   3.033   3.756  0.2266 -0.2280  0.4879
  192SAPI   H4R22229   1.001   3.003   3.725 -0.0822 -0.3694  1.5925
  192SAPI   H4S22230   1.094   3.143   3.745 -3.9154  0.3792  5.6798
  192SAPI   C2522231   1.124   2.997   3.900 -1.0331  0.0987 -0.3017
  192SAPI   H5R22232   1.213   3.036   3.951  0.4228 -3.6239  0.3595
  192SAPI   C2622233   1.072   2.891   3.965  0.0524 -0.4321  0.5951
  192SAPI   H6R22234   1.105   2.883   4.070 -1.0066  1.4042  1.0988
  192SAPI   C2722235   0.975   2.789   3.911  0.5848 -0.7945 -0.0022
  192SAPI   H7R22236   1.001   2.697   3.967  2.1246  0.5096  1.5409
  192SAPI   H7S22237   1.008   2.772   3.806  1.9451 -0.4807  0.3604
  192SAPI   C2822238   0.829   2.820   3.920  0.6012  0.4871 -0.1781
  192SAPI   H8R22239   0.790   2.883   3.839  1.3446  1.8527  0.4818
  192SAPI   C2922240   0.759   2.808   4.037 -0.4727 -0.5839  0.0819
  192SAPI   H9R22241   0.659   2.854   4.035  0.2233  0.9836 -0.6878
  192SAPI  C21022242   0.812   2.751   4.166 -0.1283  0.1606  0.4558
  192SAPI  H10R22243   0.919   2.725   4.153 -0.5116 -1.1030 -0.4101
  192SAPI  H10S22244   0.765   2.653   4.190 -1.3770  0.4967 -0.5399
  192SAPI  C21122245   0.790   2.830   4.293 -0.2540 -0.4758  0.2077
  192SAPI  H11R22246   0.731   2.920   4.272  0.1433 -0.0384  0.9256
  192SAPI  C21222247   0.825   2.801   4.417  0.1314 -0.6752 -0.0756
  192SAPI  H12R22248   0.790   2.869   4.496 -0.4065  0.0201 -0.8906
  192SAPI  C21322249   0.920   2.691   4.447  0.1975  0.2986  0.4369
  192SAPI  H13R22250   0.971   2.730   4.539  1.6223  0.2912 -0.3232
  192SAPI  H13S22251   1.003   2.686   4.374  1.8101  0.0439  2.1960
  192SAPI  C21422252   0.869   2.550   4.450 -0.5912  0.1590 -0.2277
  192SAPI  H14R22253   0.854   2.515   4.347  1.3522 -1.2731 -0.0672
  192SAPI  C21522254   0.884   2.460   4.549  0.2795  0.4340  0.3709
  192SAPI  H15R22255   0.839   2.361   4.536  0.6762  0.3381 -0.3366
  192SAPI  C21622256   0.945   2.498   4.683 -0.1303 -0.4046 -0.2500
  192SAPI  H16R22257   1.025   2.576   4.677 -1.2795  0.7991 -0.3707
  192SAPI  H16S22258   0.989   2.408   4.730  0.6958  0.1845  0.1269
  192SAPI  C21722259   0.831   2.557   4.768  0.4991 -0.4315  0.1319
  192SAPI  H17R22260   0.753   2.480   4.784 -0.1374 -0.2093 -1.6990
  192SAPI  H17S22261   0.782   2.637   4.708  1.1654 -2.5435 -3.5801
  192SAPI  C21822262   0.872   2.649   4.883  0.5748  0.0210 -0.0709
  192SAPI  H18R22263   0.936   2.590   4.952  2.7350  1.8558 -0.4004
  192SAPI  H18S22264   0.776   2.679   4.930  1.1341 -0.7505  1.6585
  192SAPI  C21922265   0.948   2.776   4.842 -0.4943 -0.1581 -0.2720
  192SAPI  H19R22266   0.902   2.821   4.752  1.0345  0.8007 -0.6127
  192SAPI  H19S22267   1.051   2.748   4.811 -0.5418  0.6088 -1.1401
  192SAPI  C22022268   0.955   2.891   4.948 -0.5921 -0.2769 -0.1478
  192SAPI  H20R22269   1.012   2.978   4.908  0.3964 -1.5391 -1.5470
  192SAPI  H20S22270   1.012   2.864   5.040 -1.7674 -1.6313  0.1987
  192SAPI  H20T22271   0.852   2.917   4.981 -1.5291 -0.5991 -2.6553
  192SAPI   C3322272   0.675   3.269   3.654  0.1937 -0.1366 -0.0403
  192SAPI   H3X22273   0.770   3.324   3.668  0.4989 -0.8815  0.8805
  192SAPI   H3Y22274   0.704   3.162   3.640 -1.9438 -0.6085 -1.3457
  192SAPI   C3422275   0.599   3.276   3.787 -0.4372  0.0093  0.1874
  192SAPI   H4X22276   0.493   3.244   3.785 -0.2805 -0.5298  0.3564
  192SAPI   H4Y22277   0.589   3.380   3.825 -1.7370 -0.9216  2.6206
  192SAPI   C3522278   0.673   3.194   3.886  0.0116 -0.1386 -0.4520
  192SAPI   H5X22279   0.696   3.096   3.838 -1.6645  0.1709 -1.9933
  192SAPI   H5Y22280   0.608   3.184   3.975  0.2354 -3.7132 -0.5366
  192SAPI   C3622281   0.808   3.260   3.919  0.9629 -0.7844  0.2053
  192SAPI   H6X22282   0.789   3.368   3.938 -0.2739 -0.5379 -2.1664
  192SAPI   H6Y22283   0.871   3.248   3.828 -0.0494 -1.8912 -0.3711
  192SAPI   C3722284   0.869   3.211   4.049  0.8111  0.0682  0.2234
  192SAPI   H7X22285   0.974   3.247   4.057  0.5808  0.9722 -0.5689
  192SAPI   H7Y22286   0.852   3.102   4.041 -1.4118  0.4798 -1.9611
  192SAPI   C3822287   0.789   3.255   4.174  0.2121  0.3951  0.0303
  192SAPI   H8X22288   0.684   3.222   4.170  0.3360  0.1273 -1.0411
  192SAPI   H8Y22289   0.789   3.366   4.182  1.7046  0.6439 -2.4011
  192SAPI   C3922290   0.849   3.205   4.307 -0.3548 -0.5919  0.0218
  192SAPI   H9X22291   0.877   3.100   4.286  0.8342 -0.9733  3.0673
  192SAPI   H9Y22292   0.771   3.206   4.386 -0.9892 -0.0548 -0.5887
  192SAPI  C31022293   0.971   3.276   4.364  0.1455 -0.5878  0.5759
  192SAPI  H10X22294   0.950   3.369   4.422 -0.4785  0.6448 -1.5205
  192SAPI  H10Y22295   1.027   3.321   4.279 -0.1098  2.8906  2.0550
  192SAPI  C31122296   1.068   3.184   4.443  0.3750  0.7340 -0.6828
  192SAPI  H11X22297   1.116   3.115   4.371  0.9833 -0.2884  0.6604
  192SAPI  H11Y22298   1.002   3.131   4.515  1.2155 -0.1812 -0.5695
  192SAPI  C31222299   1.171   3.245   4.533  0.0598 -0.0637 -0.3143
  192SAPI  H12X22300   1.215   3.337   4.488  0.1176  0.4803  0.8283
  192SAPI  H12Y22301   1.260   3.178   4.529  0.2549 -0.0298  2.1235
  192SAPI  C31322302   1.134   3.266   4.678  0.6209 -0.2670  0.3955
  192SAPI  H13X22303   1.093   3.171   4.719 -0.6711  0.6317  1.2512
  192SAPI  H13Y22304   1.050   3.339   4.681  0.1521 -0.7014 -1.0733
  192SAPI  C31422305   1.256   3.304   4.763 -0.2229 -0.3298 -0.3823
  192SAPI  H14X22306   1.284   3.405   4.726  1.8637 -1.0023 -0.7436
  192SAPI  H14Y22307   1.344   3.245   4.730 -1.1901 -1.3610 -1.1703
  192SAPI  C31522308   1.235   3.301   4.917 -0.0497  0.1990 -0.3423
  192SAPI  H15X22309   1.197   3.197   4.931 -1.2860  0.4485 -1.6040
  192SAPI  H15Y22310   1.153   3.373   4.943  0.4766  0.1722  1.5543
  192SAPI  C31622311   1.360   3.331   5.010  0.8350 -0.4804 -0.0506
  192SAPI  H16X22312   1.451   3.284   4.966  0.3084 -0.5916 -1.0480
  192SAPI  H16Y22313   1.337   3.278   5.104  3.4905  0.5130  1.2688
  192SAPI  C31722314   1.380   3.478   5.052  0.3719 -0.2801  0.2781
  192SAPI  H17X22315   1.280   3.526   5.052  0.3402 -0.3366  1.2504
  192SAPI  H17Y22316   1.441   3.538   4.980  1.0398 -1.4382 -0.1558
  192SAPI  C31822317   1.453   3.477   5.190  0.1416 -0.1133 -0.0047
  192SAPI  H18X22318   1.552   3.425   5.191  1.1097  1.6416 -0.8392
  192SAPI  H18Y22319   1.388   3.439   5.272 -1.7328  0.3900 -1.2056
  192SAPI  H18Z22320   1.473   3.581   5.223  0.7955  0.5527 -2.3481
  193SOD    SOD22321   6.846   2.155   7.555 -0.2381  0.2729  0.1914
  194SOD    SOD22322   0.514   4.295   1.083  0.2224 -0.3951  0.5363
  195SOD    SOD22323   4.691   0.961   2.310  0.1642 -0.4538 -0.7018
  196SOD    SOD22324   0.257   2.837   8.268 -0.1187 -0.0147  0.3307
  197SOD    SOD22325   5.367   6.486   1.991 -0.8829 -0.1094 -0.0221
  198SOD    SOD22326   0.766   1.236   2.249 -0.4147  0.1964  0.1576
  199SOD    SOD22327   4.192   6.826   2.566 -0.5705  0.4707 -0.7048
  200SOD    SOD22328   0.517   5.611   8.371  0.0693  0.1356  0.1717
  201SOD    SOD22329   4.699   2.161   6.810 -0.5250 -0.0644  0.1609
  202SOD    SOD22330   4.540   5.336   2.219 -0.7255 -0.4197  0.0061
  203SOD    SOD22331   5.028   2.489   2.722 -0.1026  0.0051  0.1479
  204SOD    SOD22332   6.445   6.232   7.616  0.1701 -0.3438  0.3923
  205SOD    SOD22333   2.222   5.624   1.467 -0.2921 -0.2183  0.6193
  206SOD    SOD22334   4.536   2.447   1.132  0.5412 -0.0791 -0.2356
  207SOD    SOD22335   1.084   6.024   2.679 -0.4116 -0.0653 -0.1798
  208SOD    SOD22336   0.416   2.140   6.933 -0.3184 -0.2674 -0.2465
  209SOD    SOD22337   0.806   0.299   7.155 -0.2581 -0.4979  0.5064
  210SOD    SOD22338   4.138   2.451   2.792 -0.5063 -0.0712 -0.2343
  211SOD    SOD22339   6.862   4.081   0.186 -0.2624  0.4392 -0.0396
  212SOD    SOD22340   6.107   6.456   0.101  0.1187 -0.7519 -0.3055
  213SOD    SOD22341   2.952   2.709   0.841  0.0446  0.0204 -0.4109
  214SOD    SOD22342   3.186   6.688   8.004 -0.1477  0.0624 -0.4669
  215SOD    SOD22343   0.790   1.498   8.077  0.0038 -0.2960 -0.1397
  216SOD    SOD22344   3.661   2.709   2.758  0.4796  0.2665  0.2136
  217SOD    SOD22345   2.542   4.492   7.030 -0.3340  0.0668  0.0925
  218SOD    SOD22346   0.279   2.932   1.475  0.4693  0.6745  0.0942
  219SOD    SOD22347   1.137   4.316   8.227 -0.0246 -0.2166 -0.1220
  220SOD    SOD22348   2.951   3.940   7.934  0.2004 -0.2069  0.4233
  221SOD    SOD22349   4.855   2.432   0.526  0.0215  0.2043 -0.2498
  222SOD    SOD22350   6.830   6.835   8.131 -0.2573  0.2773  0.1347
  223SOD    SOD22351   0.392   3.720   2.315 -0.1131 -0.3088 -0.2203
  224SOD    SOD22352   2.384   3.994   1.311  0.8020  0.1239  0.0623
  225SOD    SOD22353   1.544   0.873   2.394  0.5077  0.1474  0.0349
  226SOD    SOD22354   1.670   2.567   1.103 -0.5193  0.2384 -0.1372
  227SOD    SOD22355   3.369   1.695   7.103 -0.3262 -0.0266 -0.0472
  228SOD    SOD22356   1.574   4.134   2.516 -0.7420  0.3288 -0.0076
  229SOD    SOD22357   2.400   1.091   8.037 -0.3168  0.1663 -0.3980
  230CLA    CLA22358   6.933   6.218   7.674 -0.0130 -0.1459 -0.0170
  231CLA    CLA22359   3.228   6.007   7.995  0.1289  0.0865 -0.1591
  232CLA    CLA22360   5.654   1.395   2.008 -0.0631 -0.3978  0.1775
  233CLA    CLA22361   6.662   5.499   0.955 -0.1926 -0.2807 -0.1840
  234CLA    CLA22362   4.093   4.635   2.337 -0.0957  0.2925 -0.3821
  235CLA    CLA22363   2.597   2.266   0.796 -0.1541  0.1458  0.2903
  236CLA    CLA22364   2.814   3.373   0.643 -0.0841 -0.0005  0.4220
  237CLA    CLA22365   5.138   3.822   1.289  0.2720 -0.1301 -0.1908
  238CLA    CLA22366   0.814   4.006   8.394  0.2487  0.0587 -0.1350
  239CLA    CLA22367   4.065   3.439   1.127 -0.2283 -0.4048 -0.0414
  240CLA    CLA22368   0.160   2.135   0.840 -0.1782  0.1603  0.1900
  241CLA    CLA22369   0.762   5.504   0.536 -0.0494 -0.5552 -0.0310
  242CLA    CLA22370   0.439   2.164   8.082  0.0713 -0.1880 -0.1112
  243CLA    CLA22371   3.134   1.099   0.563  0.1480  0.1297  0.5777
  244CLA    CLA22372   1.960   2.870   2.630 -0.3652 -0.0167  0.1006
  245CLA    CLA22373   4.260   5.936   0.476 -0.4399  0.1040 -0.1051
  246CLA    CLA22374   1.343   6.853   0.653  0.1138  0.3581  0.1402
  247TIP3   OH222375   6.336   0.480   8.281 -0.3807  0.0417  0.0581
  247TIP3    H122376   6.299   0.564   8.306 -0.3835 -0.2946  1.2254
  247TIP3    H222377   6.415   0.502   8.232 -0.6420  0.7266 -0.0571
  248TIP3   OH222378   3.054   3.295   8.332 -0.4434 -0.2453 -0.0088
  248TIP3    H122379   3.082   3.345   8.255  0.0381 -2.0818 -1.0962
  248TIP3    H222380   3.131   3.290   8.388 -0.5582  0.4008  0.2115
  249TIP3   OH222381   5.922   5.903   0.183 -0.1568 -0.2645  0.1485
  249TIP3    H122382   6.008   5.881   0.147 -0.5347 -0.3520 -0.7234
  249TIP3    H222383   5.941   5.942   0.268  0.7767  0.0993 -0.2159
  250TIP3   OH222384   6.013   5.541   2.095 -0.0009  0.1208 -0.1984
  250TIP3    H122385   6.099   5.523   2.133 -0.0264 -0.2910 -0.3348
  250TIP3    H222386   6.010   5.486   2.017 -0.4133  0.0886 -0.1575
  251TIP3   OH222387   6.736   6.580   7.775 -0.1002 -0.3176 -0.0237
  251TIP3    H122388   6.791   6.620   7.842 -0.7736  2.0062 -0.7602
  251TIP3    H222389   6.794   6.572   7.699 -0.4482  1.0703 -0.4520
  252TIP3   OH222390   6.693   4.116   7.603  0.6337  0.3879  0.2393
  252TIP3    H122391   6.632   4.150   7.538 -0.6192  1.2987  1.8056
  252TIP3    H222392   6.737   4.194   7.637  0.3762  0.0842  1.3104
  253TIP3   OH222393   3.418   3.709   1.092  0.4178  0.0379  0.4575
  253TIP3    H122394   3.477   3.634   1.104 -0.7641 -0.8493  0.9196
  253TIP3    H222395   3.387   3.729   1.180 -1.7745 -1.0456  0.0141
  254TIP3   OH222396   5.822   5.606   7.529 -0.3275 -0.1081 -0.3248
  254TIP3    H122397   5.791   5.687   7.489  0.3523 -0.1789 -1.0063
  254TIP3    H222398   5.884   5.570   7.466  0.8134 -0.1908  0.8048
  255TIP3   OH222399   5.287   1.327   2.297 -0.0116  0.3413 -0.2439
  255TIP3    H122400   5.369   1.352   2.341  0.2624  0.3121 -0.7191
  255TIP3    H222401   5.310   1.328   2.204  0.3072 -2.6861 -0.2851
  256TIP3   OH222402   4.101   1.343   0.722 -0.5991  0.0696  0.8836
  256TIP3    H122403   4.077   1.251   0.727 -0.9165  0.2256  2.5425
  256TIP3    H222404   4.060   1.373   0.640  2.7763 -2.0940 -1.9211
  257TIP3   OH222405   6.186   6.959   7.631 -0.1632  0.3212 -0.0949
  257TIP3    H122406   6.174   7.053   7.639 -0.2880  0.2132  1.2671
  257TIP3    H222407   6.227   6.947   7.545 -1.4357  1.4728 -0.9056
  258TIP3   OH222408   6.544   3.359   0.834 -0.3281  0.3267  0.4050
  258TIP3    H122409   6.622   3.370   0.780 -0.8479  0.6900 -0.3010
  258TIP3    H222410   6.472   3.387   0.777 -1.2041 -1.9410  0.2936
  259TIP3   OH222411   3.804   2.433   1.882 -0.4622  0.0030 -0.0720
  259TIP3    H122412   3.805   2.482   1.800 -0.1499 -0.7237 -0.5126
  259TIP3    H222413   3.713   2.403   1.891 -0.2325 -0.9897 -0.8234
  260TIP3   OH222414   0.487   0.499   8.355  0.3421 -0.4934 -0.1229
  260TIP3    H122415   0.513   0.541   8.273 -0.7531 -0.4949 -0.4800
  260TIP3    H222416   0.564   0.448   8.381  1.3392  0.9364 -0.1891
  261TIP3   OH222417   6.914   3.941   1.327 -0.0235  0.4075 -0.1518
  261TIP3    H122418   6.820   3.928   1.316 -0.6014  1.1670  2.9686
  261TIP3    H222419   6.951   3.853   1.327 -1.2145 -0.1477  1.7454
  262TIP3   OH222420   4.080   0.041   2.559 -0.0569 -0.4244  0.9113
  262TIP3    H122421   4.012   0.088   2.511 -0.6520 -2.7654 -0.7169
  262TIP3    H222422   4.078   0.078   2.647 -0.6526  2.3092 -0.1575
  263TIP3   OH222423   5.604   5.549   7.242  0.2969 -0.0161  0.3043
  263TIP3    H122424   5.629   5.583   7.156  0.1194  1.1682  0.7062
  263TIP3    H222425   5.613   5.624   7.301 -0.9199 -0.4413  1.0707
  264TIP3   OH222426   6.106   6.425   0.549 -0.5007 -0.4021 -0.0722
  264TIP3    H122427   6.192   6.403   0.514 -0.3926 -0.4782  0.2392
  264TIP3    H222428   6.053   6.347   0.533 -0.4074 -0.4960  0.0788
  265TIP3   OH222429   0.168   6.555   7.300 -0.5114  0.2238 -0.3802
  265TIP3    H122430   0.180   6.533   7.393 -1.7065 -1.4063 -0.5525
  265TIP3    H222431   0.204   6.480   7.253 -1.2943  0.3260 -1.1751
  266TIP3   OH222432   6.140   5.734   1.302 -0.1367  0.0761 -0.3869
  266TIP3    H122433   6.218   5.788   1.312  1.6648 -2.5867  0.8967
  266TIP3    H222434   6.098   5.768   1.223  0.2938  3.9053  0.8396
  267TIP3   OH222435   0.569   2.312   6.874  0.3164 -0.1680  0.3787
  267TIP3    H122436   0.486   2.358   6.863 -0.4358 -1.7386 -0.9675
  267TIP3    H222437   0.609   2.314   6.787  0.1457 -2.1878  0.2149
  268TIP3   OH222438   6.496   6.634   7.658  0.2038  0.0524  0.1253
  268TIP3    H122439   6.520   6.657   7.568 -1.3347 -0.8266 -0.5337
  268TIP3    H222440   6.574   6.590   7.692  1.0469  0.9734 -0.5324
  269TIP3   OH222441   0.306   6.381   7.831 -0.1825  0.3212 -0.0074
  269TIP3    H122442   0.327   6.289   7.813  0.8896  1.1801 -4.1157
  269TIP3    H222443   0.212   6.380   7.849  0.0137 -1.6628  1.3035
  270TIP3   OH222444   1.368   0.475   6.925  0.1303  0.0930  0.4234
  270TIP3    H122445   1.312   0.398   6.937 -0.5262  0.7583  2.0057
  270TIP3    H222446   1.378   0.510   7.014  0.0726  2.0586 -0.3067
  271TIP3   OH222447   4.978   4.304   1.099  0.5462 -0.1364 -0.0007
  271TIP3    H122448   4.970   4.281   1.191  1.7948  1.4219  0.5380
  271TIP3    H222449   4.998   4.222   1.055  0.7635 -0.7637  1.2301
  272TIP3   OH222450   3.592   0.805   8.361 -0.1033 -0.3213  0.1774
  272TIP3    H122451   3.596   0.854   8.443  0.7677 -0.3481  0.1549
  272TIP3    H222452   3.504   0.823   8.327 -1.7413 -2.7911  2.6127
  273TIP3   OH222453   1.726   6.475   0.972  0.4115  0.1907  0.6274
  273TIP3    H122454   1.702   6.552   0.921 -0.3337 -0.9950 -0.8988
  273TIP3    H222455   1.816   6.491   0.999  0.5872  1.1744 -0.4622
  274TIP3   OH222456   1.681   0.345   2.105 -0.2487 -0.3355 -0.3810
  274TIP3    H122457   1.750   0.280   2.119  0.7661  0.5870 -0.9126
  274TIP3    H222458   1.604   0.308   2.148  0.2774 -1.9115 -0.7300
  275TIP3   OH222459   1.358   1.370   1.456 -0.3130 -0.0698 -0.0834
  275TIP3    H122460   1.277   1.416   1.479 -0.1825 -0.3021  0.8837
  275TIP3    H222461   1.379   1.319   1.534  1.5228  1.0602  0.1965
  276TIP3   OH222462   5.364   5.441   7.766 -0.1121 -0.1601  0.2010
  276TIP3    H122463   5.286   5.497   7.766 -0.0783 -0.1113  0.5118
  276TIP3    H222464   5.434   5.499   7.738  0.5347  0.8453  3.4942
  277TIP3   OH222465   4.263   1.788   0.546 -0.5329  0.1805 -0.1037
  277TIP3    H122466   4.210   1.756   0.473 -0.8638 -1.8415  0.9448
  277TIP3    H222467   4.309   1.711   0.578 -0.4763  0.9649  1.8874
  278TIP3   OH222468   2.278   4.392   0.326 -0.3043  0.1048  0.2629
  278TIP3    H122469   2.313   4.457   0.386 -0.5320  0.9819 -0.5315
  278TIP3    H222470   2.190   4.424   0.305 -0.6446 -0.7672  0.3124
  279TIP3   OH222471   6.246   4.930   6.952  0.3036 -0.4451  0.0835
  279TIP3    H122472   6.204   4.888   7.027  0.0996  2.4249  1.7632
  279TIP3    H222473   6.173   4.970   6.904  0.6902  2.6785  1.7824
  280TIP3   OH222474   6.415   1.752   2.150 -0.1426 -0.3816 -0.2510
  280TIP3    H122475   6.456   1.835   2.125 -1.7600  0.7018  0.5757
  280TIP3    H222476   6.327   1.756   2.113  0.4109 -2.7518 -2.1571
  281TIP3   OH222477   6.760   1.976   1.565  0.1635  0.1834  0.1989
  281TIP3    H122478   6.827   2.044   1.560  0.1126  0.3196  1.2586
  281TIP3    H222479   6.695   2.011   1.626  0.0450 -0.7342  0.6191
  282TIP3   OH222480   1.195   0.880   8.384  0.3712 -0.5839 -0.4895
  282TIP3    H122481   1.189   0.785   8.375 -0.6326 -0.6816  0.9293
  282TIP3    H222482   1.177   0.913   8.296 -3.4700 -1.6182 -0.2751
  283TIP3   OH222483   0.866   1.570   0.905  0.4564  0.3036 -0.4182
  283TIP3    H122484   0.845   1.621   0.827 -0.2932  0.3602 -0.1796
  283TIP3    H222485   0.814   1.610   0.975  1.5961  0.6615  0.2518
  284TIP3   OH222486   3.937   2.949   2.287 -0.2529  0.0801 -0.0069
  284TIP3    H122487   4.023   2.937   2.327 -0.0842 -0.5313 -0.5411
  284TIP3    H222488   3.926   2.873   2.230  0.3657  1.8772 -2.7115
  285TIP3   OH222489   2.747   6.231   2.882 -0.1076 -0.0820 -0.4665
  285TIP3    H122490   2.705   6.299   2.934  2.3092  0.1884  1.3178
  285TIP3    H222491   2.785   6.171   2.947 -1.7019 -2.9261 -1.9591
  286TIP3   OH222492   5.946   1.993   0.491 -0.1587  0.7232 -0.3057
  286TIP3    H122493   5.866   1.956   0.454  0.3115  0.1935 -0.8028
  286TIP3    H222494   5.921   2.082   0.516 -0.9653  0.4875 -0.2405
  287TIP3   OH222495   2.198   5.482   7.754 -0.2605 -0.0569  0.3111
  287TIP3    H122496   2.272   5.431   7.723 -0.4785 -0.9849  1.2956
  287TIP3    H222497   2.233   5.570   7.767 -0.0299  0.2785 -2.0336
  288TIP3   OH222498   0.194   3.749   1.659  0.3408  0.4559  0.1652
  288TIP3    H122499   0.182   3.655   1.646  2.0980  0.2738 -0.3919
  288TIP3    H222500   0.288   3.759   1.676  0.2736  2.1609 -0.3149
  289TIP3   OH222501   4.825   1.290   0.278  0.3711  1.3574  0.3302
  289TIP3    H122502   4.860   1.221   0.335 -1.5319 -0.3575 -0.4536
  289TIP3    H222503   4.902   1.342   0.254  1.6247  0.5052  2.2551
  290TIP3   OH222504   1.638   1.648   7.937  0.3360 -0.0695  0.6962
  290TIP3    H122505   1.688   1.727   7.919  1.1531 -0.8258 -0.5471
  290TIP3    H222506   1.661   1.623   8.026  0.9106  0.4990  0.7071
  291TIP3   OH222507   4.534   1.150   2.310 -0.0403 -0.0900  1.0230
  291TIP3    H122508   4.509   1.240   2.288  0.2856 -0.3859 -0.7203
  291TIP3    H222509   4.452   1.108   2.335 -0.2190  0.6439  1.7138
  292TIP3   OH222510   2.622   3.466   0.385  0.2875  0.4712  0.3206
  292TIP3    H122511   2.617   3.467   0.480 -2.0399  0.6851  0.2511
  292TIP3    H222512   2.701   3.516   0.364  0.9263  0.2682  2.1292
  293TIP3   OH222513   1.098   4.636   0.184 -0.0755  0.3194  0.1051
  293TIP3    H122514   1.032   4.673   0.126  1.4655  2.0870 -0.6193
  293TIP3    H222515   1.176   4.627   0.129  1.5651  2.4277  1.9140
  294TIP3   OH222516   6.565   4.471   7.606  0.2991  0.3766 -0.0341
  294TIP3    H122517   6.629   4.453   7.674 -1.9315 -0.1636  2.0807
  294TIP3    H222518   6.492   4.412   7.625 -2.5865  3.6738  0.3126
  295TIP3   OH222519   4.449   3.526   0.785  0.3908 -0.5281 -0.6661
  295TIP3    H122520   4.532   3.559   0.818  0.1712 -0.6035 -0.0219
  295TIP3    H222521   4.388   3.538   0.858 -1.0491  2.7453 -2.2364
  296TIP3   OH222522   4.907   1.494   0.068 -0.1761 -0.3826  0.0702
  296TIP3    H122523   4.817   1.502   0.101  0.5497 -0.8013  2.3208
  296TIP3    H222524   4.919   1.571   0.013 -0.9238  1.4636  2.3338
  297TIP3   OH222525   5.946   1.668   7.830  0.6327 -0.2060 -0.0549
  297TIP3    H122526   5.925   1.659   7.922  1.2139  1.1622  0.2322
  297TIP3    H222527   6.009   1.597   7.813  0.3332 -0.6163  0.5292
  298TIP3   OH222528   6.372   0.830   7.552  0.5783  0.2917  0.3694
  298TIP3    H122529   6.375   0.746   7.507 -1.1347 -0.8730  2.2592
  298TIP3    H222530   6.302   0.878   7.508 -0.0568 -0.2416  0.7705
  299TIP3   OH222531   3.141   0.478   1.162  0.8018  0.1573  0.6196
  299TIP3    H122532   3.084   0.401   1.157  0.7421  0.2155  0.3801
  299TIP3    H222533   3.229   0.444   1.146  0.7369  0.1850  0.2032
  300TIP3   OH222534   3.194   4.021   2.677  0.1993  0.1699 -0.3482
  300TIP3    H122535   3.275   3.971   2.690 -0.0942 -0.5990 -1.3232
  300TIP3    H222536   3.216   4.110   2.706  1.1250 -0.2296  0.2198
  301TIP3   OH222537   3.046   6.631   7.809 -0.1693 -0.6258 -0.2028
  301TIP3    H122538   2.975   6.683   7.771 -0.8767 -1.1679  0.3485
  301TIP3    H222539   3.045   6.549   7.761 -0.4363 -0.9378  0.3217
  302TIP3   OH222540   2.237   2.035   1.928 -0.8427 -0.1273  0.2373
  302TIP3    H122541   2.212   2.031   2.020 -0.0947  0.3002  0.4669
  302TIP3    H222542   2.328   2.063   1.929 -1.3602  1.7891 -0.6858
  303TIP3   OH222543   5.688   3.552   1.066 -0.0751 -0.2576  0.0895
  303TIP3    H122544   5.684   3.626   1.127 -0.4631 -0.1360 -0.0794
  303TIP3    H222545   5.597   3.539   1.038  0.2605  0.6595 -1.5912
  304TIP3   OH222546   1.587   4.666   1.062  0.4022 -0.2708  0.3227
  304TIP3    H122547   1.552   4.625   0.983  0.9667 -0.7838  0.3331
  304TIP3    H222548   1.581   4.760   1.044 -0.5926 -0.3454  0.1658
  305TIP3   OH222549   6.866   4.509   1.294 -0.0094  0.9541 -0.9552
  305TIP3    H122550   6.936   4.517   1.229  1.1297  2.9342  0.4044
  305TIP3    H222551   6.902   4.548   1.374 -1.7200 -0.4617  0.6125
  306TIP3   OH222552   4.260   0.036   7.156  0.3087  0.1793 -0.1218
  306TIP3    H122553   4.340   0.006   7.113 -0.0288 -0.8222 -0.0891
  306TIP3    H222554   4.206  -0.043   7.162 -1.6071  1.2446 -2.1149
  307TIP3   OH222555   1.211   1.357   0.151  0.2689 -0.2185 -0.0147
  307TIP3    H122556   1.212   1.285   0.213 -0.1710 -0.3578 -0.1680
  307TIP3    H222557   1.303   1.379   0.139  0.5057 -1.5999 -0.9535
  308TIP3   OH222558   0.859   3.197   2.309 -0.5135 -0.1373 -0.4860
  308TIP3    H122559   0.839   3.155   2.393 -0.4758  1.3426  0.2858
  308TIP3    H222560   0.781   3.249   2.289 -1.0267 -1.3945 -2.0012
  309TIP3   OH222561   2.542   3.730   7.187 -0.1732  0.1727 -0.0407
  309TIP3    H122562   2.574   3.680   7.263  0.4747  0.5881 -0.0276
  309TIP3    H222563   2.545   3.667   7.115 -0.3242 -0.0910  0.1816
  310TIP3   OH222564   3.452   6.471   7.167 -0.1139  0.3008  0.6397
  310TIP3    H122565   3.436   6.383   7.134 -0.5938 -0.2026  2.1092
  310TIP3    H222566   3.537   6.496   7.130  0.7864 -1.4176  1.4337
  311TIP3   OH222567   4.683   4.847   1.406 -0.2014  0.4613 -0.3374
  311TIP3    H122568   4.684   4.777   1.471 -1.5003 -1.0382 -1.8252
  311TIP3    H222569   4.760   4.830   1.352 -0.4578  0.2065 -0.6325
  312TIP3   OH222570   4.293   0.058   1.808 -0.6449 -0.0697 -0.1867
  312TIP3    H122571   4.299   0.006   1.888 -0.8674  1.2839  0.7471
  312TIP3    H222572   4.203   0.090   1.808 -0.5082  0.3144 -0.7345
  313TIP3   OH222573   6.429   2.972   1.219  0.1495  0.1377 -0.4475
  313TIP3    H122574   6.344   2.979   1.263 -0.1231 -1.4205 -0.6444
  313TIP3    H222575   6.423   3.033   1.146  0.2549  2.0713  1.0743
  314TIP3   OH222576   5.740   5.742   0.900 -0.6640  0.7537  0.0226
  314TIP3    H122577   5.756   5.686   0.976  0.4358  0.9819 -0.0166
  314TIP3    H222578   5.772   5.691   0.826 -0.0092  1.2685 -0.0594
  315TIP3   OH222579   4.935   0.810   0.331  1.0377  0.0192  0.2254
  315TIP3    H122580   4.923   0.753   0.255  1.0010  1.0607 -0.5648
  315TIP3    H222581   4.869   0.781   0.394  0.8676 -0.6535 -0.2573
  316TIP3   OH222582   3.902   2.175   8.414 -0.1290  0.0132 -0.2525
  316TIP3    H122583   3.978   2.140   8.368 -0.2003  0.3238 -0.6183
  316TIP3    H222584   3.837   2.105   8.411  0.1526 -0.2710  0.1029
  317TIP3   OH222585   5.157   2.656   0.945 -0.5699 -0.7000  0.8136
  317TIP3    H122586   5.205   2.726   0.900 -0.8321 -0.2163  1.2643
  317TIP3    H222587   5.217   2.582   0.945 -0.7256 -0.8543 -0.6960
  318TIP3   OH222588   4.088   1.585   0.834 -0.3727  0.1143 -0.0178
  318TIP3    H122589   4.066   1.498   0.799 -3.6844 -0.4764  2.9255
  318TIP3    H222590   4.141   1.567   0.911 -1.5662  0.5521  0.9540
  319TIP3   OH222591   5.882   6.591   7.895 -1.0369  0.5490 -0.2675
  319TIP3    H122592   5.929   6.564   7.816  0.1021  2.1737 -0.1903
  319TIP3    H222593   5.795   6.554   7.885 -0.7460  0.2632 -2.0287
  320TIP3   OH222594   3.417   4.715   1.751 -0.6600 -0.2297 -0.3111
  320TIP3    H122595   3.482   4.782   1.771 -0.9765  0.0200 -0.1213
  320TIP3    H222596   3.388   4.681   1.836 -1.3329  0.1941 -0.3608
  321TIP3   OH222597   0.831   3.755   6.993 -0.3442 -0.1821  0.1027
  321TIP3    H122598   0.909   3.744   7.046  0.6379  1.1977 -0.9746
  321TIP3    H222599   0.861   3.739   6.903 -1.0624  1.2815 -0.4195
  322TIP3   OH222600   3.746   3.275   8.333 -0.2057 -0.1766  0.3452
  322TIP3    H122601   3.833   3.307   8.357 -0.6533  1.6081 -0.1768
  322TIP3    H222602   3.762   3.190   8.292  1.1306 -0.5120  1.4884
  323TIP3   OH222603   3.284   0.875   0.840 -0.7213  0.3395  0.1158
  323TIP3    H122604   3.323   0.847   0.758  0.2385  2.3778 -0.1852
  323TIP3    H222605   3.223   0.945   0.815 -1.5338 -0.0339  0.9973
  324TIP3   OH222606   6.845   4.309   0.092  0.1028 -1.0911  0.3880
  324TIP3    H122607   6.931   4.325   0.053  0.9835 -0.6344  2.3849
  324TIP3    H222608   6.814   4.396   0.116 -0.7282 -1.3056  0.1017
  325TIP3   OH222609   4.388   1.403   8.247  0.7237  0.2937 -0.4676
  325TIP3    H122610   4.312   1.350   8.270  0.9137  0.4110  0.4605
  325TIP3    H222611   4.431   1.422   8.331  1.9993 -0.1176 -0.9958
  326TIP3   OH222612   2.437   0.184   2.196  0.0385  0.0125 -0.1621
  326TIP3    H122613   2.429   0.256   2.134 -4.5148 -0.3017 -0.2982
  326TIP3    H222614   2.436   0.105   2.142  2.1885 -0.2727  0.1303
  327TIP3   OH222615   6.402   5.363   1.049  0.3661 -0.0381  0.2153
  327TIP3    H122616   6.494   5.388   1.037  0.8092 -1.9054 -0.6995
  327TIP3    H222617   6.394   5.280   1.003 -1.8149  0.0928  0.2560
  328TIP3   OH222618   6.017   3.455   7.641  0.1554 -0.1448 -0.1958
  328TIP3    H122619   6.015   3.489   7.730  0.6217 -1.7721  0.4923
  328TIP3    H222620   6.061   3.370   7.650 -2.6830 -1.8857 -1.4310
  329TIP3   OH222621   2.703   5.282   7.808 -0.1888  1.0915  0.0979
  329TIP3    H122622   2.780   5.336   7.789  0.1977  0.6257  0.2934
  329TIP3    H222623   2.635   5.315   7.749  0.2260  1.3725 -0.2341
  330TIP3   OH222624   0.418   2.827   2.713  0.1540  0.2949  0.1676
  330TIP3    H122625   0.385   2.741   2.739  0.1980  0.5079  0.9482
  330TIP3    H222626   0.390   2.837   2.622  0.0989 -0.5187  0.0906
  331TIP3   OH222627   5.881   1.663   1.985  0.2809 -0.2423 -0.8121
  331TIP3    H122628   5.830   1.739   2.013  1.7936  0.6908 -0.4686
  331TIP3    H222629   5.822   1.589   1.997 -2.1090  1.0580 -3.4050
  332TIP3   OH222630   1.930   6.587   2.697 -0.2105 -0.2281  0.5289
  332TIP3    H122631   1.979   6.569   2.777  1.4161  1.4991  0.0046
  332TIP3    H222632   1.957   6.518   2.637  1.0104  0.2074  0.5303
  333TIP3   OH222633   5.728   2.753   0.875  0.1849  0.1287 -0.7573
  333TIP3    H122634   5.770   2.759   0.961  1.2629  0.1935 -1.2680
  333TIP3    H222635   5.736   2.660   0.851 -2.8621 -0.5775  0.5083
  334TIP3   OH222636   6.110   2.912   0.164  0.8818  0.0539  0.6316
  334TIP3    H122637   6.024   2.889   0.130  1.0610 -1.4720  1.1496
  334TIP3    H222638   6.155   2.950   0.089 -0.2401  0.9175  0.3687
  335TIP3   OH222639   2.836   0.481   2.654 -0.2475 -0.4439 -0.5104
  335TIP3    H122640   2.751   0.458   2.691 -0.8804  0.1896 -1.5221
  335TIP3    H222641   2.878   0.397   2.635  0.7434 -0.8879  2.8948
  336TIP3   OH222642   4.387   2.358   8.355 -0.4046  0.4440 -0.0971
  336TIP3    H122643   4.432   2.310   8.425  2.1772  1.5954 -0.8694
  336TIP3    H222644   4.389   2.449   8.383 -2.4337  0.5440 -0.1311
  337TIP3   OH222645   6.170   4.150   8.255 -0.0960  0.5964 -0.4215
  337TIP3    H122646   6.143   4.068   8.214  0.9244  0.1710 -0.2661
  337TIP3    H222647   6.206   4.123   8.340 -0.0180  1.2391 -0.2460
  338TIP3   OH222648   3.793   4.591   0.773  0.2497 -0.1031  0.1723
  338TIP3    H122649   3.796   4.501   0.741 -0.1575 -0.1533  0.2592
  338TIP3    H222650   3.835   4.643   0.705  0.5011 -0.3620  0.1298
  339TIP3   OH222651   6.318   6.197   1.838 -0.7058  0.4579  0.0834
  339TIP3    H122652   6.362   6.257   1.777 -0.3645  0.1045 -0.0179
  339TIP3    H222653   6.238   6.244   1.863 -0.1214  1.2553  0.5213
  340TIP3   OH222654   6.305   5.977   1.322  0.3443  0.0979 -0.1699
  340TIP3    H122655   6.269   6.012   1.404 -0.5669 -0.0807 -0.4877
  340TIP3    H222656   6.348   6.051   1.281 -0.3197  0.5047 -0.1437
  341TIP3   OH222657   5.063   4.357   7.871 -0.0393 -0.0264  0.0802
  341TIP3    H122658   5.115   4.327   7.796  0.3572 -0.5779  0.5631
  341TIP3    H222659   5.127   4.397   7.930 -0.4067  0.7757 -0.0475
  342TIP3   OH222660   5.195   6.425   8.074 -0.2874  0.1526  0.4306
  342TIP3    H122661   5.207   6.330   8.072 -0.7549  0.0936 -1.0129
  342TIP3    H222662   5.218   6.451   8.163 -0.5171 -1.3611  0.9537
  343TIP3   OH222663   6.180   4.228   2.053  0.5968  0.7826 -0.0919
  343TIP3    H122664   6.253   4.288   2.042  1.0224  0.1550 -0.7179
  343TIP3    H222665   6.217   4.153   2.101  0.6242  0.0312 -1.2349
  344TIP3   OH222666   4.478   4.709   2.716 -0.1167  0.0843  0.0782
  344TIP3    H122667   4.444   4.795   2.691  0.9736  0.0886 -1.5569
  344TIP3    H222668   4.446   4.651   2.647  1.7200 -0.2210 -0.5470
  345TIP3   OH222669   5.861   5.154   8.239 -0.3179  0.2537 -0.1550
  345TIP3    H122670   5.955   5.173   8.245  0.1019 -0.4469 -2.8268
  345TIP3    H222671   5.831   5.147   8.330  1.9270  1.7540  0.7778
  346TIP3   OH222672   3.904   6.908   2.879  0.3855 -0.7457  0.1705
  346TIP3    H122673   3.879   6.972   2.813  0.6985 -1.1622 -0.3543
  346TIP3    H222674   3.997   6.890   2.862 -0.1072 -2.6289 -0.7912
  347TIP3   OH222675   0.763   0.653   6.865 -0.2387 -0.3024  0.5659
  347TIP3    H122676   0.810   0.735   6.848 -1.0355 -0.0510 -0.5311
  347TIP3    H222677   0.703   0.644   6.791 -1.5781 -0.8543  1.6715
  348TIP3   OH222678   0.636   2.095   1.182 -0.1429 -0.8880  0.1265
  348TIP3    H122679   0.639   2.133   1.094 -1.3103 -0.4060  0.2832
  348TIP3    H222680   0.577   2.020   1.173 -0.4160 -0.7244  0.5314
  349TIP3   OH222681   2.813   3.021   1.838  0.4362 -0.5571  0.1292
  349TIP3    H122682   2.891   3.065   1.805 -0.4129  0.4434 -0.6009
  349TIP3    H222683   2.776   2.976   1.761  0.5470 -1.4269  0.5720
  350TIP3   OH222684   3.583   5.621   1.527  0.6678  0.4371  0.3583
  350TIP3    H122685   3.554   5.696   1.579 -3.9378 -0.8701  0.1723
  350TIP3    H222686   3.563   5.544   1.581  1.4425 -0.7938 -1.0052
  351TIP3   OH222687   6.630   1.146   1.001 -0.3734 -0.2791 -0.7705
  351TIP3    H122688   6.640   1.239   1.017  0.0689 -0.3483 -0.6507
  351TIP3    H222689   6.685   1.103   1.066 -0.3066 -0.6153 -1.0451
  352TIP3   OH222690   6.419   6.311   0.205 -0.2068 -0.0226 -0.2995
  352TIP3    H122691   6.469   6.236   0.173 -2.3376 -1.1241 -1.2840
  352TIP3    H222692   6.482   6.363   0.255  1.8630 -1.3079 -1.4401
  353TIP3   OH222693   1.470   1.219   1.671 -0.3914  0.1213 -0.4961
  353TIP3    H122694   1.563   1.214   1.695 -0.8547 -0.6356  1.3238
  353TIP3    H222695   1.450   1.133   1.635 -0.1318  0.6845 -2.0792
  354TIP3   OH222696   4.152   1.557   8.134 -0.0795  0.3586 -0.0479
  354TIP3    H122697   4.162   1.609   8.214  1.1009 -1.0765  0.7978
  354TIP3    H222698   4.241   1.527   8.114 -0.8083 -2.1770  0.1218
  355TIP3   OH222699   4.019   2.157   0.601  0.0275 -0.0599 -0.1844
  355TIP3    H122700   4.104   2.202   0.606 -0.5213  1.0816 -0.7447
  355TIP3    H222701   3.956   2.223   0.631 -0.8294 -0.3703 -1.2828
  356TIP3   OH222702   2.933   6.040   7.928 -0.8539  0.1835 -0.2039
  356TIP3    H122703   2.922   6.118   7.981  0.3747  0.3330 -0.1412
  356TIP3    H222704   3.026   6.040   7.903 -1.1051 -0.5909 -1.2323
  357TIP3   OH222705   4.004   2.552   1.164 -0.0477 -0.6669  0.6795
  357TIP3    H122706   3.921   2.505   1.159 -1.3094  1.4338  0.7715
  357TIP3    H222707   3.997   2.606   1.243  1.4083 -0.4219  0.6839
  358TIP3   OH222708   4.333   1.890   7.718 -0.2681 -0.6672 -0.6206
  358TIP3    H122709   4.240   1.906   7.728 -0.0057 -0.7111  3.2326
  358TIP3    H222710   4.366   1.966   7.670 -2.0347  0.0523 -0.7520
  359TIP3   OH222711   2.747   1.240   0.473  0.0221  0.0961 -0.0958
  359TIP3    H122712   2.831   1.279   0.494  0.0249 -0.1761  0.4079
  359TIP3    H222713   2.748   1.155   0.518  1.2146 -1.8631 -3.4624
  360TIP3   OH222714   0.215   6.104   7.568 -0.0782  0.1371 -0.2012
  360TIP3    H122715   0.261   6.117   7.651  0.5271  1.8783 -0.7664
  360TIP3    H222716   0.124   6.126   7.587 -0.4071 -1.6470  0.5023
  361TIP3   OH222717   5.240   5.685   8.396 -0.6548 -0.3870 -0.3607
  361TIP3    H122718   5.315   5.717   8.347 -0.3077 -1.1015 -0.3033
  361TIP3    H222719   5.189   5.634   8.333 -1.7126  1.0262 -0.7050
  362TIP3   OH222720   4.703   2.002   0.411 -0.4829  0.0984  0.5571
  362TIP3    H122721   4.723   2.044   0.327  0.6283  1.3467  1.4127
  362TIP3    H222722   4.628   2.051   0.445  0.6576  1.2892  1.4401
  363TIP3   OH222723   3.731   1.008   6.972 -0.8579  0.5674  0.6425
  363TIP3    H122724   3.657   1.015   6.912 -0.7013 -0.1297  0.3631
  363TIP3    H222725   3.808   1.004   6.915 -0.7696 -0.9868  0.8459
  364TIP3   OH222726   2.450   0.285   1.230 -0.1144  0.0209  0.4335
  364TIP3    H122727   2.419   0.334   1.306 -2.1593  1.0593 -0.9902
  364TIP3    H222728   2.406   0.200   1.236 -0.1882  0.0615  0.4645
  365TIP3   OH222729   4.410   0.051   8.190 -0.1387  0.5569  0.3248
  365TIP3    H122730   4.327   0.051   8.142 -1.1195 -1.3943  1.8758
  365TIP3    H222731   4.392   0.101   8.269 -0.7666 -2.0442  1.9597
  366TIP3   OH222732   3.466   3.471   1.306 -0.0420 -0.0570 -0.3030
  366TIP3    H122733   3.525   3.437   1.374  0.5604 -0.2462 -0.8992
  366TIP3    H222734   3.508   3.445   1.224 -2.0413 -2.1375 -0.7840
  367TIP3   OH222735   6.694   5.604   8.359 -0.2713  0.1225  0.1162
  367TIP3    H122736   6.625   5.566   8.304 -1.3229  1.0585  0.7625
  367TIP3    H222737   6.733   5.672   8.304  0.5605 -0.7887 -0.4627
  368TIP3   OH222738   4.193   0.203   8.453  0.0483  0.5508 -0.6184
  368TIP3    H122739   4.250   0.266   8.409  1.1009  1.0077  1.2844
  368TIP3    H222740   4.124   0.256   8.493  1.7523  0.8235  2.2610
  369TIP3   OH222741   2.619   3.924   0.727  0.5669 -0.2054 -0.0931
  369TIP3    H122742   2.700   3.875   0.741 -0.4103 -1.5223  1.1631
  369TIP3    H222743   2.550   3.857   0.724 -0.7578  1.0312  1.1744
  370TIP3   OH222744   3.524   4.103   2.483 -0.3287 -0.2854 -0.6055
  370TIP3    H122745   3.452   4.062   2.434  0.5671 -1.6625 -0.7951
  370TIP3    H222746   3.504   4.085   2.575 -0.0477 -0.9956 -0.6771
  371TIP3   OH222747   1.332   0.551   7.191  0.5173  0.3352  0.2802
  371TIP3    H122748   1.352   0.613   7.260 -0.6108  0.0278  0.8955
  371TIP3    H222749   1.297   0.474   7.236 -1.4413  0.6030 -0.6737
  372TIP3   OH222750   6.097   6.495   7.662  0.4491 -0.6934 -0.0134
  372TIP3    H122751   6.057   6.579   7.638 -0.0197 -1.5640 -2.6028
  372TIP3    H222752   6.159   6.517   7.731  2.0934  2.2338 -2.2013
  373TIP3   OH222753   3.901   3.406   2.274  0.4725  0.1577 -0.5705
  373TIP3    H122754   3.825   3.463   2.262 -0.2819 -0.2478  1.8613
  373TIP3    H222755   3.873   3.321   2.239  0.0583  0.2050 -0.3660
  374TIP3   OH222756   4.408   0.485   1.757  0.0111  0.1454 -0.0312
  374TIP3    H122757   4.462   0.457   1.831  0.6811 -0.5623 -0.7629
  374TIP3    H222758   4.399   0.407   1.703  2.0687  1.2774 -2.2282
  375TIP3   OH222759   1.716   5.442   7.285  0.5095  0.5095  0.2552
  375TIP3    H122760   1.641   5.498   7.302 -1.2219 -1.8588  1.0568
  375TIP3    H222761   1.739   5.459   7.193 -1.6278  0.6702 -0.2972
  376TIP3   OH222762   0.937   4.343   1.058  0.7610 -0.7380  0.1562
  376TIP3    H122763   0.951   4.375   0.968  0.6426 -0.7665  0.1281
  376TIP3    H222764   0.845   4.320   1.061  0.3686  0.7966  0.7792
  377TIP3   OH222765   6.288   1.102   1.982 -0.0606 -0.7129 -0.6486
  377TIP3    H122766   6.374   1.059   1.983  0.3902  0.1404  0.9669
  377TIP3    H222767   6.281   1.140   1.895  1.3257 -0.5769 -0.7195
  378TIP3   OH222768   1.002   6.516   1.027 -0.0373  0.0153  0.0874
  378TIP3    H122769   1.064   6.567   1.078  2.1626 -2.9025  0.6346
  378TIP3    H222770   1.050   6.491   0.948 -0.9042 -1.3048 -0.0727
  379TIP3   OH222771   6.049   5.362   0.032 -0.1868 -1.1771 -0.0792
  379TIP3    H122772   6.021   5.444  -0.009 -0.3965 -0.7406  0.9029
  379TIP3    H222773   5.969   5.310   0.039 -0.3844 -0.7491  0.8920
  380TIP3   OH222774   3.268   5.491   1.976 -0.0228  0.8697  0.7597
  380TIP3    H122775   3.192   5.469   2.030 -0.4731  1.3684  0.3416
  380TIP3    H222776   3.302   5.406   1.947  0.7246  0.5372  2.4730
  381TIP3   OH222777   1.238   0.540   1.253  0.4515  0.3240 -0.0119
  381TIP3    H122778   1.315   0.539   1.196 -0.4712 -1.7702 -1.3418
  381TIP3    H222779   1.274   0.538   1.342  1.9106  2.7296 -0.4712
  382TIP3   OH222780   4.701   3.359   8.403 -0.9545  0.7533  0.2775
  382TIP3    H122781   4.687   3.390   8.314  2.7129 -0.9460 -1.0803
  382TIP3    H222782   4.646   3.281   8.410  0.2028 -0.2565 -1.2912
  383TIP3   OH222783   6.204   0.532   7.961  0.2883 -0.7002 -0.2846
  383TIP3    H122784   6.256   0.556   7.885 -3.0373 -0.8747 -2.8578
  383TIP3    H222785   6.136   0.600   7.967 -1.5962 -2.5072  0.3056
  384TIP3   OH222786   5.330   1.582   1.640  0.4620 -0.2605  0.4359
  384TIP3    H122787   5.331   1.586   1.735  1.9562 -0.0119  0.4289
  384TIP3    H222788   5.273   1.654   1.614  0.2427 -0.1782  1.1284
  385TIP3   OH222789   3.456   4.835   2.376  0.4051  0.3079  0.3582
  385TIP3    H122790   3.481   4.912   2.427 -0.7299 -0.3519  2.0302
  385TIP3    H222791   3.428   4.772   2.442 -0.6246 -0.8034 -1.0835
  386TIP3   OH222792   1.056   2.325   2.537 -0.2048  0.4216  0.2329
  386TIP3    H122793   1.100   2.410   2.530  0.5880 -0.0868 -1.3740
  386TIP3    H222794   1.101   2.280   2.608  1.1332  0.3666 -0.6145
  387TIP3   OH222795   5.676   2.266   7.448 -0.8270 -0.1811 -0.0179
  387TIP3    H122796   5.611   2.332   7.475  1.3201  1.6809  0.8846
  387TIP3    H222797   5.747   2.275   7.511  0.7395 -1.4898 -1.5040
  388TIP3   OH222798   5.241   3.304   0.840  0.7335  0.9337  0.3444
  388TIP3    H122799   5.212   3.229   0.892 -0.2705  0.8303 -0.3320
  388TIP3    H222800   5.336   3.307   0.852  0.9747 -1.2649 -0.6792
  389TIP3   OH222801   1.332   5.156   0.518  0.2225 -0.2066 -0.1793
  389TIP3    H122802   1.394   5.100   0.470 -1.7916 -1.2408 -1.7075
  389TIP3    H222803   1.300   5.218   0.452  0.6309  1.2443  0.9334
  390TIP3   OH222804   3.297   6.653   1.662 -0.2356  0.4107 -0.2800
  390TIP3    H122805   3.268   6.589   1.597  0.7744 -1.1822  0.7833
  390TIP3    H222806   3.386   6.628   1.683  0.1727  2.1507  0.2418
  391TIP3   OH222807   6.358   5.640   2.283 -0.7233 -0.6264 -0.0382
  391TIP3    H122808   6.407   5.707   2.331 -2.2187  1.0890 -0.7684
  391TIP3    H222809   6.384   5.557   2.323 -0.0813  0.5219  2.0648
  392TIP3   OH222810   4.538   5.844   0.390  0.4492  0.4747  0.2659
  392TIP3    H122811   4.459   5.888   0.421  0.8604  1.4770 -0.0555
  392TIP3    H222812   4.541   5.865   0.297  0.5517 -0.4293  0.0559
  393TIP3   OH222813   2.572   5.496   2.596 -0.7288 -0.3654  0.9749
  393TIP3    H122814   2.605   5.435   2.529  0.3049  0.2496  0.8998
  393TIP3    H222815   2.515   5.556   2.548 -0.6807 -0.4582  0.8008
  394TIP3   OH222816   1.120   6.041   0.512 -0.5055  0.4881 -0.7239
  394TIP3    H122817   1.132   5.980   0.585 -1.2555  0.0004 -0.9977
  394TIP3    H222818   1.087   5.987   0.440 -0.6740  1.1239 -1.1334
  395TIP3   OH222819   2.595   5.817   8.172 -0.1139  0.0572 -0.6971
  395TIP3    H122820   2.593   5.911   8.186 -0.3281  0.2766 -2.0593
  395TIP3    H222821   2.683   5.799   8.139 -0.5087  0.0154 -1.7825
  396TIP3   OH222822   4.561   6.374   2.417 -0.0197 -0.4574 -0.0165
  396TIP3    H122823   4.623   6.304   2.436 -2.4347 -2.0695  2.6001
  396TIP3    H222824   4.566   6.432   2.493 -1.6455 -0.6256  0.2610
  397TIP3   OH222825   2.576   6.286   2.651  0.2705 -0.0474 -0.5503
  397TIP3    H122826   2.656   6.280   2.703 -1.2191  1.6133  2.2427
  397TIP3    H222827   2.577   6.209   2.595  2.4052 -1.6784  1.5265
  398TIP3   OH222828   1.247   3.688   8.052 -0.0739 -0.5041  0.1192
  398TIP3    H122829   1.304   3.698   7.976 -0.5807  1.7835 -0.0124
  398TIP3    H222830   1.163   3.658   8.015  0.3013 -1.5542  0.0646
  399TIP3   OH222831   6.161   6.779   7.980 -0.7524 -0.4603  0.4511
  399TIP3    H122832   6.077   6.790   8.025  0.1057  1.1469  1.7390
  399TIP3    H222833   6.196   6.867   7.972  1.1825 -1.1790  0.6463
  400TIP3   OH222834   6.263   4.626   2.036  0.0628  0.2861  0.0420
  400TIP3    H122835   6.289   4.692   1.971 -1.5265 -0.5743 -1.5457
  400TIP3    H222836   6.181   4.658   2.072 -1.3132 -1.2584 -1.5363
  401TIP3   OH222837   2.640   2.161   1.096  0.3000 -0.3330  0.2085
  401TIP3    H122838   2.645   2.198   1.007  2.3718  0.1827  0.4876
  401TIP3    H222839   2.621   2.068   1.082  0.8487 -0.3119 -0.8056
  402TIP3   OH222840   1.154   5.139   8.441 -0.0896  0.2297  0.5115
  402TIP3    H122841   1.059   5.133   8.432  0.1181 -2.5248 -0.9550
  402TIP3    H222842   1.172   5.103   8.527 -0.2261 -3.2808 -0.7805
  403TIP3   OH222843   2.388   0.400   2.028  0.1895 -0.3973  0.1031
  403TIP3    H122844   2.329   0.382   1.954  0.0587 -0.4884  0.2298
  403TIP3    H222845   2.463   0.444   1.988 -0.0223 -0.1646 -0.0437
  404TIP3   OH222846   4.736   5.780   1.329 -0.1177 -0.6929  0.1806
  404TIP3    H122847   4.673   5.731   1.277  0.4310 -1.1255 -0.0727
  404TIP3    H222848   4.701   5.870   1.331 -0.4096 -0.7904 -0.4848
  405TIP3   OH222849   2.813   6.939   7.032  0.1283  0.1697 -0.2162
  405TIP3    H122850   2.857   6.865   6.991  0.6783 -0.6850  1.7559
  405TIP3    H222851   2.788   6.996   6.960  3.5696  0.2209 -1.5652
  406TIP3   OH222852   6.593   0.675   1.756  0.2057  0.3118  0.1221
  406TIP3    H122853   6.621   0.762   1.728 -0.4099  1.1103  1.8447
  406TIP3    H222854   6.656   0.650   1.824 -0.9979  0.4891  1.3519
  407TIP3   OH222855   0.881   4.242   1.863  0.5717  0.4602 -0.2238
  407TIP3    H122856   0.944   4.243   1.791  0.6923  1.3830 -0.1125
  407TIP3    H222857   0.808   4.190   1.830  1.8909 -1.7466  0.1077
  408TIP3   OH222858   5.894   4.382   8.056 -0.2192 -0.4214  0.0048
  408TIP3    H122859   5.881   4.289   8.040 -0.8072 -0.5234  1.0034
  408TIP3    H222860   5.985   4.399   8.031 -0.0639 -1.2963 -0.0260
  409TIP3   OH222861   5.657   6.907   8.292 -0.0727 -0.2585  0.8191
  409TIP3    H122862   5.723   6.926   8.225 -1.2029 -0.3737 -0.3732
  409TIP3    H222863   5.707   6.900   8.373  1.1199  2.0230  0.3944
  410TIP3   OH222864   3.056   4.375   0.707 -0.2656 -0.4591  0.1454
  410TIP3    H122865   3.019   4.451   0.663  2.5157  1.0906  0.2332
  410TIP3    H222866   3.107   4.411   0.779  1.9691 -2.2463 -0.4009
  411TIP3   OH222867   1.827   5.136   0.838  0.1220  0.7033  0.1027
  411TIP3    H122868   1.850   5.136   0.931 -1.5495 -1.1868  0.5886
  411TIP3    H222869   1.838   5.045   0.811  1.4672  1.3886 -1.8331
  412TIP3   OH222870   6.227   1.020   0.547 -0.2189 -0.1324  0.9057
  412TIP3    H122871   6.264   1.030   0.634  2.6025  1.4145 -0.3403
  412TIP3    H222872   6.194   0.930   0.545  0.8157 -0.6243  3.1273
  413TIP3   OH222873   6.302   2.062   8.399 -0.1659  0.0555 -0.4387
  413TIP3    H122874   6.235   2.033   8.460 -0.1460  1.7342  0.4475
  413TIP3    H222875   6.257   2.126   8.343  0.6199  1.0381  0.0272
  414TIP3   OH222876   3.605   6.012   3.061 -0.1183  0.1195 -0.2559
  414TIP3    H122877   3.652   6.084   3.019 -0.1169 -0.2644 -0.9214
  414TIP3    H222878   3.522   6.051   3.090  0.0066  0.4569 -0.3517
  415TIP3   OH222879   5.090   5.764   7.983  0.7193  0.2027  0.4463
  415TIP3    H122880   5.023   5.823   7.947 -0.7254 -0.2782  2.2041
  415TIP3    H222881   5.043   5.711   8.048  1.8613 -3.2139 -1.2974
  416TIP3   OH222882   5.947   6.428   1.252  0.0244  0.0363 -0.5742
  416TIP3    H122883   5.993   6.447   1.334  1.3061  0.6287 -1.4017
  416TIP3    H222884   5.929   6.514   1.213 -0.0742 -0.2546 -1.1864
  417TIP3   OH222885   6.000   3.827   1.818 -0.4339 -0.6988  0.3913
  417TIP3    H122886   6.032   3.864   1.900 -0.2264  0.2226 -0.0930
  417TIP3    H222887   5.947   3.897   1.779 -0.9232 -1.2932 -0.0331
  418TIP3   OH222888   4.016   5.288   8.165  0.0939  0.0527 -0.2483
  418TIP3    H122889   4.002   5.224   8.234  1.0065  0.3421  0.2167
  418TIP3    H222890   4.072   5.243   8.102 -0.4450 -0.0891 -0.6317
  419TIP3   OH222891   1.175   3.179   0.025  0.0686 -0.0278  0.3534
  419TIP3    H122892   1.176   3.263   0.070 -1.9266  0.0309  0.3886
  419TIP3    H222893   1.087   3.173  -0.013  1.2090 -0.6569 -2.4411
  420TIP3   OH222894   1.336   2.777   7.419  0.1369  0.0148 -0.4729
  420TIP3    H122895   1.325   2.855   7.366 -0.2990 -0.1702 -0.6568
  420TIP3    H222896   1.273   2.714   7.384 -1.0276  0.2903  1.0267
  421TIP3   OH222897   3.703   3.075   2.576 -0.0130 -0.1276 -0.9308
  421TIP3    H122898   3.699   3.167   2.550 -0.4804 -0.3230 -1.5906
  421TIP3    H222899   3.794   3.061   2.600 -0.1812  0.7945  0.3070
  422TIP3   OH222900   4.404   4.922   1.441  0.3451  0.6059 -0.0932
  422TIP3    H122901   4.364   4.844   1.402 -0.7064  0.8449  0.4546
  422TIP3    H222902   4.493   4.896   1.462  0.1713 -0.2761 -0.4186
  423TIP3   OH222903   0.406   6.644   1.552  0.1813  0.9283  0.1662
  423TIP3    H122904   0.393   6.579   1.483  0.2575  1.1391 -0.0481
  423TIP3    H222905   0.459   6.713   1.511 -1.8191  2.2766 -0.3450
  424TIP3   OH222906   5.617   5.078   1.381 -0.1759  0.1960 -0.0476
  424TIP3    H122907   5.533   5.057   1.422 -0.0075 -1.1841 -0.3615
  424TIP3    H222908   5.671   5.109   1.454 -1.0902  1.5763  0.0724
  425TIP3   OH222909   4.230   3.310   7.788 -0.3783 -0.7098  0.1605
  425TIP3    H122910   4.210   3.226   7.829  0.8344 -0.0719  2.2382
  425TIP3    H222911   4.168   3.372   7.827  0.7502 -0.0984  1.0581
  426TIP3   OH222912   2.786   4.928   1.870 -0.1532 -0.0549 -0.3219
  426TIP3    H122913   2.872   4.891   1.888  0.5748  2.1007  1.0341
  426TIP3    H222914   2.804   5.005   1.816 -0.9505  1.5097  1.5042
  427TIP3   OH222915   0.408   5.912   6.972  0.4447 -0.1495  0.0335
  427TIP3    H122916   0.394   5.903   7.066  0.4313  0.4329  0.0878
  427TIP3    H222917   0.372   5.998   6.950 -2.3491 -1.4966 -1.0594
  428TIP3   OH222918   5.426   1.864   6.713 -0.1406  0.3643  0.2741
  428TIP3    H122919   5.392   1.938   6.764  0.4004  0.2322  0.8346
  428TIP3    H222920   5.348   1.826   6.672 -0.4758  0.9917  0.3058
  429TIP3   OH222921   6.238   1.050   6.811  0.1310 -0.4651  0.1509
  429TIP3    H122922   6.253   0.960   6.838 -0.0939 -1.2071 -2.0809
  429TIP3    H222923   6.319   1.096   6.834 -0.1043 -0.9678  2.1696
  430TIP3   OH222924   6.095   0.336   1.007  0.1983 -0.0802 -0.4709
  430TIP3    H122925   6.177   0.385   1.000 -1.0883  2.5093  1.0855
  430TIP3    H222926   6.041   0.368   0.934 -0.2102 -0.1776 -0.2144
  431TIP3   OH222927   3.534   5.481   2.005  0.8484  0.0334 -0.4729
  431TIP3    H122928   3.442   5.455   2.003  0.5640  0.5124  2.3144
  431TIP3    H222929   3.582   5.398   2.001  0.4147 -0.1938 -2.6333
  432TIP3   OH222930   1.612   2.184   0.779  0.0252  0.1459 -0.4271
  432TIP3    H122931   1.613   2.272   0.740  0.4054  0.5952  0.5599
  432TIP3    H222932   1.699   2.148   0.760 -0.9081 -1.0213 -2.9505
  433TIP3   OH222933   4.399   4.469   0.959 -0.2520  0.1601  0.1632
  433TIP3    H122934   4.433   4.393   0.911  0.9566  0.4318  0.5635
  433TIP3    H222935   4.324   4.435   1.008 -0.2069 -0.5895 -0.2730
  434TIP3   OH222936   5.717   0.205   7.501  0.0360  0.5899  0.4931
  434TIP3    H122937   5.745   0.296   7.493 -1.0986  1.0122  0.9746
  434TIP3    H222938   5.715   0.172   7.412 -1.0290  1.5321  0.1363
  435TIP3   OH222939   4.669   4.027   2.855 -0.0171  0.3564 -0.4284
  435TIP3    H122940   4.737   3.976   2.811  0.7213  0.6959  0.2932
  435TIP3    H222941   4.627   3.965   2.915 -0.7387  0.0031 -1.2749
  436TIP3   OH222942   4.948   3.712   7.924 -0.1223  0.8363  1.1593
  436TIP3    H122943   4.899   3.784   7.884  0.9088  1.7030  1.4021
  436TIP3    H222944   4.881   3.648   7.948 -1.1257  1.8993  1.3118
  437TIP3   OH222945   4.908   6.765   0.522 -0.4063  0.3274  0.0504
  437TIP3    H122946   4.995   6.804   0.520 -0.4157  0.5343  2.0773
  437TIP3    H222947   4.922   6.674   0.497  0.8882 -0.3485  2.8365
  438TIP3   OH222948   3.510   2.716   2.533  0.5413 -0.7466 -0.3804
  438TIP3    H122949   3.501   2.793   2.476  1.4125 -0.0347  0.4162
  438TIP3    H222950   3.596   2.681   2.513  0.6013 -0.8533  0.0584
  439TIP3   OH222951   6.798   1.016   1.164 -0.1852 -0.8918  0.3613
  439TIP3    H122952   6.882   0.988   1.200 -0.0695 -0.6180  0.3060
  439TIP3    H222953   6.747   1.044   1.241 -0.3993 -1.5018  0.4467
  440TIP3   OH222954   5.933   1.942   7.059  0.5059 -0.3250 -0.2046
  440TIP3    H122955   5.939   1.851   7.030  2.1258 -0.3621  0.1498
  440TIP3    H222956   5.874   1.939   7.135  0.4970 -1.0600 -0.2329
  441TIP3   OH222957   2.755   0.988   8.303 -0.2083  0.2592  0.7918
  441TIP3    H122958   2.844   1.010   8.331  1.2234 -1.4593 -2.0043
  441TIP3    H222959   2.740   0.901   8.341  0.1335 -0.3096 -0.3412
  442TIP3   OH222960   4.212   6.295   8.342  0.9358 -0.0926  0.4209
  442TIP3    H122961   4.206   6.375   8.395  1.3456  2.3341 -2.8959
  442TIP3    H222962   4.260   6.234   8.398 -1.6612  0.8994  4.1495
  443TIP3   OH222963   1.057   5.840   1.133  0.0933 -0.0548  0.1334
  443TIP3    H122964   0.963   5.857   1.144  0.1767 -0.1739  1.0712
  443TIP3    H222965   1.062   5.747   1.112 -0.1200  0.3243 -1.7625
  444TIP3   OH222966   5.823   4.116   7.997 -0.2191  0.3411 -0.3020
  444TIP3    H122967   5.755   4.058   7.963 -0.1021 -0.4379  0.7415
  444TIP3    H222968   5.895   4.057   8.022  0.9761  1.1669 -1.6510
  445TIP3   OH222969   0.013   0.736   8.322  0.4232 -0.1506  0.0324
  445TIP3    H122970   0.089   0.793   8.307  0.5006 -0.3347 -0.2842
  445TIP3    H222971   0.026   0.663   8.261  2.0645 -2.2765  2.6970
  446TIP3   OH222972   4.670   0.122   8.282 -0.4324  0.4094  0.4580
  446TIP3    H122973   4.596   0.118   8.222  0.2587  1.8040 -0.5618
  446TIP3    H222974   4.649   0.059   8.351 -1.2290 -1.3513 -1.2777
  447TIP3   OH222975   4.742   3.078   0.072 -0.4941 -0.8477  0.2383
  447TIP3    H122976   4.758   2.985   0.084  2.1748 -0.6024 -0.8380
  447TIP3    H222977   4.669   3.082   0.011 -1.9960 -2.1579  1.8448
  448TIP3   OH222978   1.573   4.408   8.060 -0.7151 -0.0134 -0.4279
  448TIP3    H122979   1.644   4.443   8.006 -1.2950  0.5585 -0.8300
  448TIP3    H222980   1.546   4.481   8.115 -1.6273  0.0524 -0.9486
  449TIP3   OH222981   5.044   5.391   7.949 -0.3329  0.1756 -0.1951
  449TIP3    H122982   5.083   5.469   7.989  1.7118 -0.8072 -0.1876
  449TIP3    H222983   5.118   5.343   7.913 -1.7939 -0.5962 -2.3519
  450TIP3   OH222984   4.438   2.245   0.145  0.1879 -0.2021 -0.6815
  450TIP3    H122985   4.488   2.204   0.216 -0.1294 -2.4286 -1.6538
  450TIP3    H222986   4.347   2.229   0.168  0.0705 -2.7203 -2.4104
  451TIP3   OH222987   0.401   5.394   8.381  0.0195 -0.5961  0.2359
  451TIP3    H122988   0.371   5.345   8.304 -1.3597  1.2566 -0.4778
  451TIP3    H222989   0.339   5.370   8.450  0.7862 -1.6593  0.5685
  452TIP3   OH222990   1.514   3.385   7.705 -0.3020  0.5792 -0.1430
  452TIP3    H122991   1.431   3.433   7.695 -1.1721 -0.8866 -0.2342
  452TIP3    H222992   1.546   3.373   7.616  0.5253  1.9738 -0.0562
  453TIP3   OH222993   1.689   3.999   1.102  0.2099 -0.4704  0.1223
  453TIP3    H122994   1.709   3.967   1.190  0.9337 -1.1611 -0.2816
  453TIP3    H222995   1.770   4.042   1.073 -0.0088 -0.2868 -0.2290
  454TIP3   OH222996   4.292   3.251   8.249 -0.3761  0.3194  0.0645
  454TIP3    H122997   4.226   3.316   8.227 -0.6016  0.7281  1.8421
  454TIP3    H222998   4.249   3.167   8.232 -0.1056  0.5673 -2.1633
  455TIP3   OH222999   5.109   5.841   2.066  0.0466 -0.7546 -0.0252
  455TIP3    H123000   5.130   5.800   2.150  0.2689 -0.2166  0.1852
  455TIP3    H223001   5.083   5.930   2.088  1.2912 -0.2222 -0.6328
  456TIP3   OH223002   1.695   0.810   1.557 -0.0078 -0.5918 -0.2896
  456TIP3    H123003   1.668   0.761   1.635 -0.5280 -0.4695 -0.3944
  456TIP3    H223004   1.751   0.880   1.592 -0.3957 -0.4213 -0.0038
  457TIP3   OH223005   2.495   1.099   3.162  0.0602 -0.1664 -0.1092
  457TIP3    H123006   2.451   1.123   3.080 -0.1116  1.2134  0.3763
  457TIP3    H223007   2.481   1.173   3.220 -0.7547 -1.5902  1.5788
  458TIP3   OH223008   1.020   0.880   0.381  0.5058  0.2394  0.0827
  458TIP3    H123009   0.944   0.825   0.361  0.7471  0.4403 -1.5334
  458TIP3    H223010   1.055   0.904   0.295  1.3159  1.6514  0.7746
  459TIP3   OH223011   1.670   2.186   2.007 -0.1828 -0.6493 -0.0879
  459TIP3    H123012   1.763   2.163   1.999 -0.6914 -3.9984  1.6428
  459TIP3    H223013   1.659   2.212   2.099 -0.6781  1.7103 -0.7515
  460TIP3   OH223014   4.600   0.256   0.085 -0.1495  0.2930 -0.8852
  460TIP3    H123015   4.618   0.173   0.129  0.9570  0.3400 -1.2143
  460TIP3    H223016   4.565   0.312   0.155 -0.8825 -0.4197 -0.6566
  461TIP3   OH223017   2.968   4.615   0.810  0.1150 -0.0411 -0.3505
  461TIP3    H123018   2.924   4.585   0.889 -2.9830  1.6046 -1.2803
  461TIP3    H223019   3.061   4.616   0.833 -0.4851 -1.4762  2.5705
  462TIP3   OH223020   4.481   0.662   1.024 -0.0633  0.0567 -0.0376
  462TIP3    H123021   4.389   0.677   1.043  0.2745 -0.9505  3.1598
  462TIP3    H223022   4.483   0.578   0.977 -0.7632 -0.0030  0.0322
  463TIP3   OH223023   2.106   6.872   0.202  0.7753 -0.0652  0.8116
  463TIP3    H123024   2.077   6.868   0.293 -2.8708 -1.8035 -0.2351
  463TIP3    H223025   2.053   6.941   0.162  1.2718 -0.2982 -0.3055
  464TIP3   OH223026   1.864   6.974   2.949 -0.7492 -0.4734  0.1350
  464TIP3    H123027   1.955   6.944   2.956 -0.5395 -0.1066 -0.8846
  464TIP3    H223028   1.812   6.895   2.966 -0.2202 -1.0286 -0.7319
  465TIP3   OH223029   6.761   3.039   0.916 -0.0177 -0.4504 -0.0983
  465TIP3    H123030   6.738   3.106   0.981 -0.2062  1.0947 -1.6771
  465TIP3    H223031   6.676   3.006   0.885 -0.0647  1.0417 -1.7126
  466TIP3   OH223032   6.624   2.365   2.899  0.1205 -0.2840 -0.3338
  466TIP3    H123033   6.642   2.456   2.876  1.6063 -0.1526  1.1323
  466TIP3    H223034   6.641   2.360   2.993 -0.0659 -2.0380 -0.3567
  467TIP3   OH223035   5.238   2.653   0.332 -0.3002 -0.0992 -0.5980
  467TIP3    H123036   5.322   2.658   0.285 -0.6083 -1.3803 -1.3460
  467TIP3    H223037   5.192   2.733   0.308  1.1557  1.2109  0.7650
  468TIP3   OH223038   3.869   6.864   7.977 -0.3292 -0.7096  0.3408
  468TIP3    H123039   3.856   6.886   7.885 -1.6120 -0.1943  0.6347
  468TIP3    H223040   3.795   6.903   8.023 -0.3003 -1.9025  1.4631
  469TIP3   OH223041   3.502   0.039   2.958 -0.1732 -0.2032 -0.4510
  469TIP3    H123042   3.510   0.134   2.967 -0.7547 -0.2803  1.4789
  469TIP3    H223043   3.413   0.026   2.925  0.8602 -0.0306 -3.5883
  470TIP3   OH223044   3.553   5.293   2.316 -0.2186  0.3584  0.0821
  470TIP3    H123045   3.510   5.378   2.307 -3.1422 -1.0461 -0.2784
  470TIP3    H223046   3.509   5.251   2.390  0.5678 -1.1608 -0.2711
  471TIP3   OH223047   4.287   2.207   7.865  0.4556  0.4450  0.1584
  471TIP3    H123048   4.322   2.270   7.927 -0.5029 -0.1453  1.3413
  471TIP3    H223049   4.301   2.121   7.906 -3.2196  0.2097  1.2609
  472TIP3   OH223050   3.736   2.912   0.504 -0.2726  0.1874  0.2692
  472TIP3    H123051   3.817   2.860   0.502  1.6757  3.0307 -1.6022
  472TIP3    H223052   3.747   2.971   0.577 -0.8070  0.4052  0.1788
  473TIP3   OH223053   1.532   0.221   7.089  0.7931 -0.4038  0.0008
  473TIP3    H123054   1.550   0.310   7.059  2.0373 -0.9648 -0.9984
  473TIP3    H223055   1.618   0.179   7.089  0.3962 -1.2761  1.5995
  474TIP3   OH223056   3.939   5.515   2.306 -0.2773  0.0477  0.2912
  474TIP3    H123057   3.884   5.542   2.232 -0.7889 -0.4537  0.4809
  474TIP3    H223058   3.882   5.460   2.359  0.6163 -1.0841  0.1206
  475TIP3   OH223059   1.075   2.988   0.542 -0.2626 -0.6355  0.2072
  475TIP3    H123060   1.116   2.998   0.456  0.4206  0.3791  0.6207
  475TIP3    H223061   1.002   2.928   0.527 -2.3738  2.1251 -1.8559
  476TIP3   OH223062   3.353   2.203   1.515 -0.1114  0.4231 -0.4955
  476TIP3    H123063   3.377   2.194   1.423 -0.6384 -1.7675 -0.4824
  476TIP3    H223064   3.387   2.124   1.556 -0.6078  0.9676  1.0343
  477TIP3   OH223065   6.058   4.675   1.299  0.4374  0.1827 -0.0386
  477TIP3    H123066   6.134   4.665   1.357 -0.2282 -0.6338  0.7108
  477TIP3    H223067   5.985   4.637   1.348 -0.0987 -0.7151 -1.4888
  478TIP3   OH223068   5.678   0.404   1.046  0.1695  0.2899  0.1732
  478TIP3    H123069   5.665   0.447   0.961 -0.2582 -2.0728 -1.0408
  478TIP3    H223070   5.613   0.443   1.103 -0.0283  1.4107 -0.7872
  479TIP3   OH223071   6.016   4.130   0.062 -0.3924 -0.4046  0.4156
  479TIP3    H123072   6.093   4.073   0.058  0.0503  0.2219 -0.1299
  479TIP3    H223073   6.046   4.214   0.028 -1.3970 -0.2300 -0.0735
  480TIP3   OH223074   3.662   4.124   1.098  0.2638  0.7746  0.5372
  480TIP3    H123075   3.666   4.065   1.022  1.4472 -0.0463  1.1906
  480TIP3    H223076   3.569   4.132   1.118  0.0634 -1.2277  0.6653
  481TIP3   OH223077   0.586   2.076   0.450 -0.2860  0.2597  0.5043
  481TIP3    H123078   0.549   2.004   0.500  0.7640  0.4913  1.6765
  481TIP3    H223079   0.645   2.034   0.388 -0.4484  0.0532  0.4877
  482TIP3   OH223080   1.042   0.968   2.521 -0.0318  0.7409  0.0459
  482TIP3    H123081   1.081   0.992   2.437 -1.6612  2.2785 -0.3252
  482TIP3    H223082   1.114   0.977   2.584  1.4520 -1.2749 -1.2307
  483TIP3   OH223083   6.199   0.889   7.319 -0.0759  1.2141 -0.3493
  483TIP3    H123084   6.164   0.859   7.235 -1.2753  0.3261  0.4359
  483TIP3    H223085   6.293   0.894   7.305 -0.2796  1.4011 -1.8437
  484TIP3   OH223086   3.621   3.310   0.148 -0.4917  0.0557  0.3155
  484TIP3    H123087   3.674   3.254   0.204  0.9234  0.9845 -0.0515
  484TIP3    H223088   3.564   3.250   0.101 -0.9628 -0.8334  1.9296
  485TIP3   OH223089   5.032   6.855   7.414  0.4502 -0.3302  0.4827
  485TIP3    H123090   5.042   6.773   7.365  0.2836 -0.1346  0.1264
  485TIP3    H223091   5.121   6.889   7.421  0.2005  1.0202 -2.0378
  486TIP3   OH223092   6.085   3.578   1.930  0.3507  0.9402 -0.1205
  486TIP3    H123093   6.094   3.674   1.926  0.5892  0.9130 -0.2508
  486TIP3    H223094   6.115   3.556   2.018 -2.2275  1.2477  0.9212
  487TIP3   OH223095   5.201   6.651   2.610 -0.3494 -0.0937  0.0064
  487TIP3    H123096   5.119   6.604   2.621  0.7418 -2.2166 -0.5198
  487TIP3    H223097   5.266   6.584   2.592  1.1097  1.6892 -1.9104
  488TIP3   OH223098   2.350   0.938   2.760 -0.1910 -0.2174  0.0667
  488TIP3    H123099   2.369   0.857   2.808 -0.4106 -0.6929 -0.6394
  488TIP3    H223100   2.309   0.909   2.679 -0.3612  0.6124 -0.1526
  489TIP3   OH223101   6.188   4.266   1.616 -0.4205 -0.2218  0.0002
  489TIP3    H123102   6.225   4.231   1.697  2.5955  0.6683 -0.8505
  489TIP3    H223103   6.256   4.324   1.582 -1.4600 -0.7403 -3.3229
  490TIP3   OH223104   6.590   4.476   0.179 -0.1308  0.4318 -0.3455
  490TIP3    H123105   6.666   4.495   0.235  1.3670  1.7223 -2.6493
  490TIP3    H223106   6.528   4.547   0.197 -0.3175  0.0020  0.7387
  491TIP3   OH223107   3.043   6.884   7.986 -0.4360  0.3782  0.1842
  491TIP3    H123108   2.961   6.836   7.996 -1.1766  1.7870  1.2229
  491TIP3    H223109   3.026   6.948   7.917 -0.2570  0.7409  0.4686
  492TIP3   OH223110   3.939   4.066   0.044 -0.5428 -0.7917  0.0348
  492TIP3    H123111   3.956   4.141  -0.013 -1.0629 -0.0413  0.8311
  492TIP3    H223112   3.908   3.997  -0.015 -1.1790  0.0035 -0.5907
  493TIP3   OH223113   0.008   4.927   1.026 -0.3303  0.4532  0.3180
  493TIP3    H123114   0.052   4.925   1.111  1.7624 -1.4108 -0.7197
  493TIP3    H223115  -0.085   4.920   1.048 -0.0608  2.2351  2.4928
  494TIP3   OH223116   2.420   6.113   2.126 -0.1622  0.3405 -0.1033
  494TIP3    H123117   2.412   6.083   2.216  0.9828  1.4583  0.4132
  494TIP3    H223118   2.330   6.118   2.094 -0.5517 -0.5061  0.8175
  495TIP3   OH223119   2.069   2.130   2.446  0.4099 -0.0706  0.7381
  495TIP3    H123120   2.060   2.223   2.426  0.4933 -0.3160 -0.5176
  495TIP3    H223121   1.992   2.109   2.498 -0.9172  0.1915 -1.0160
  496TIP3   OH223122   3.363   3.810   7.488  0.0419  0.3435 -0.4121
  496TIP3    H123123   3.413   3.744   7.440 -0.8790 -1.9220  1.5343
  496TIP3    H223124   3.427   3.850   7.548 -0.0075 -1.1604  0.6972
  497TIP3   OH223125   5.431   1.572   2.573  0.6123  0.3860 -0.0974
  497TIP3    H123126   5.475   1.641   2.623 -0.2224  0.3588  0.6886
  497TIP3    H223127   5.416   1.502   2.637  1.3950 -0.5187 -0.8673
  498TIP3   OH223128   5.532   3.968   1.626 -0.2918  0.4021 -0.2353
  498TIP3    H123129   5.558   3.942   1.538  0.1364  0.6572 -0.1855
  498TIP3    H223130   5.438   3.985   1.619 -0.5421 -0.9053 -0.3252
  499TIP3   OH223131   6.158   5.813   0.069 -0.0362 -0.2845 -0.3833
  499TIP3    H123132   6.181   5.773  -0.015  1.0471  1.3847 -0.9151
  499TIP3    H223133   6.240   5.850   0.102 -1.2681  3.4385 -1.0138
  500TIP3   OH223134   1.338   5.336   0.026  0.1936 -0.9369 -0.3003
  500TIP3    H123135   1.248   5.353   0.056 -0.2011 -0.0069 -1.8789
  500TIP3    H223136   1.331   5.255  -0.024  0.3127 -1.0435 -0.1461
  501TIP3   OH223137   3.507   3.105   1.221  0.3048 -0.0365 -0.4040
  501TIP3    H123138   3.508   3.039   1.291 -1.1965 -0.4343 -0.7237
  501TIP3    H223139   3.422   3.148   1.231  0.8144  1.1010 -0.9001
  502TIP3   OH223140   4.630   1.466   6.892  0.3882 -0.6884 -0.2034
  502TIP3    H123141   4.691   1.392   6.893  0.4687 -0.6121  1.0563
  502TIP3    H223142   4.680   1.540   6.926 -0.5860 -0.7947  1.5829
  503TIP3   OH223143   6.801   6.957   2.255 -0.1210  0.1808  0.2963
  503TIP3    H123144   6.825   7.044   2.224 -0.9071 -0.0382 -1.0057
  503TIP3    H223145   6.840   6.897   2.190  2.6841 -0.6707  2.5335
  504TIP3   OH223146   0.947   6.108   1.852  0.6650 -0.3945  0.2770
  504TIP3    H123147   0.854   6.108   1.875  0.2854 -0.5314 -1.1467
  504TIP3    H223148   0.948   6.093   1.757  2.0944  0.6226  0.1006
  505TIP3   OH223149   1.863   2.529   0.462 -0.1798  0.5043  0.1500
  505TIP3    H123150   1.927   2.520   0.533 -1.5263  1.1250  1.4807
  505TIP3    H223151   1.910   2.579   0.394  0.6592  1.2169  1.2234
  506TIP3   OH223152   4.202   1.577   1.253 -0.3572 -0.2592  0.1548
  506TIP3    H123153   4.129   1.542   1.202  1.0497  0.0655 -2.2294
  506TIP3    H223154   4.231   1.654   1.204  1.3190 -0.1428  1.2468
  507TIP3   OH223155   1.895   6.534   1.710  0.0886  0.1963 -0.3379
  507TIP3    H123156   1.884   6.491   1.625  0.8686 -1.2949  0.2661
  507TIP3    H223157   1.914   6.462   1.771  2.1545  1.4597  0.6237
  508TIP3   OH223158   2.009   6.913   2.230 -0.1682 -0.2468 -0.2631
  508TIP3    H123159   2.052   6.921   2.315  0.7998 -0.9557 -0.6706
  508TIP3    H223160   1.944   6.844   2.243  0.6577 -1.0588 -0.3469
  509TIP3   OH223161   2.965   0.287   1.194  0.5186 -0.3438  0.2746
  509TIP3    H123162   2.899   0.281   1.124 -0.9607  1.0960  1.4740
  509TIP3    H223163   2.944   0.214   1.252 -0.5554  0.5416  1.0444
  510TIP3   OH223164   3.299   1.236   1.373 -0.2282  0.1190 -0.0838
  510TIP3    H123165   3.350   1.156   1.383  1.0145  0.9631  0.7754
  510TIP3    H223166   3.232   1.231   1.441  0.2267  0.0764  0.3655
  511TIP3   OH223167   5.262   0.021   7.499  0.3204  0.4683  0.0573
  511TIP3    H123168   5.345   0.053   7.535 -0.1017  0.0521  1.4293
  511TIP3    H223169   5.207   0.100   7.492  0.1390  0.4375  1.0722
  512TIP3   OH223170   4.288   4.142   3.354 -0.1171 -0.0459 -0.0740
  512TIP3    H123171   4.203   4.103   3.372 -0.6046  0.6808 -0.6989
  512TIP3    H223172   4.268   4.235   3.340 -0.1842 -0.5183 -5.7931
  513TIP3   OH223173   2.734   2.035   2.575 -0.1142 -0.3100 -0.1350
  513TIP3    H123174   2.681   2.063   2.650  2.2410  0.1576  1.4577
  513TIP3    H223175   2.711   1.942   2.563 -1.3808 -0.0854  0.3876
  514TIP3   OH223176   0.375   0.740   1.657  0.2975 -0.4428  0.2664
  514TIP3    H123177   0.453   0.697   1.622 -0.3868 -0.1018 -1.8507
  514TIP3    H223178   0.405   0.785   1.736  1.7200 -2.1378  0.7419
  515TIP3   OH223179   4.944   4.443   0.064 -0.3232 -0.1566 -0.5309
  515TIP3    H123180   5.007   4.400   0.006 -0.9449  0.3873 -1.6401
  515TIP3    H223181   4.967   4.412   0.152  0.6887 -0.9381 -1.0530
  516TIP3   OH223182   4.766   2.483   7.165 -0.7333 -0.3447 -0.8014
  516TIP3    H123183   4.816   2.405   7.140  0.6838  0.7673 -1.5659
  516TIP3    H223184   4.719   2.507   7.085  2.2493  2.0512 -2.0526
  517TIP3   OH223185   4.956   0.675   0.897  0.0872  0.0831  0.3035
  517TIP3    H123186   5.021   0.644   0.833  0.1065 -1.0681  0.8572
  517TIP3    H223187   5.004   0.675   0.980 -0.2946  0.3697  0.5228
  518TIP3   OH223188   1.794   1.185   0.919 -0.1082 -0.0461  0.5434
  518TIP3    H123189   1.702   1.163   0.932  0.4518 -2.1577  1.2638
  518TIP3    H223190   1.828   1.199   1.008  0.3997  0.1785  0.3199
  519TIP3   OH223191   0.687   1.729   3.130 -0.3234  0.4949 -0.4587
  519TIP3    H123192   0.633   1.807   3.132 -1.1429 -0.0540  1.4571
  519TIP3    H223193   0.684   1.695   3.220  0.3092 -1.5268 -1.1303
  520TIP3   OH223194   3.591   3.937   7.644 -0.6162  0.2350  0.1664
  520TIP3    H123195   3.565   4.023   7.611 -1.2998 -0.0956 -0.1754
  520TIP3    H223196   3.661   3.909   7.585 -0.6222  0.4178  0.0711
  521TIP3   OH223197   2.891   2.079   2.260 -0.3637  0.5111 -0.0584
  521TIP3    H123198   2.805   2.053   2.227 -2.0707  3.6321  1.4591
  521TIP3    H223199   2.907   2.020   2.334 -0.8057 -0.5583 -0.7863
  522TIP3   OH223200   6.692   5.900   2.858 -0.3376  0.2730  0.3937
  522TIP3    H123201   6.733   5.968   2.913 -0.5626 -0.5443  1.6109
  522TIP3    H223202   6.600   5.900   2.885 -0.3627 -0.4378  0.3180
  523TIP3   OH223203   2.327   0.538   1.724  0.2672  0.4505 -0.4446
  523TIP3    H123204   2.409   0.514   1.681 -0.9286 -1.6744 -1.6946
  523TIP3    H223205   2.287   0.455   1.748 -1.7580  1.4018 -0.2993
  524TIP3   OH223206   6.248   1.619   0.275  0.3574  0.1633 -0.2840
  524TIP3    H123207   6.222   1.697   0.324  3.4733 -0.2137  2.3363
  524TIP3    H223208   6.272   1.556   0.343  0.8118 -2.0105 -2.3388
  525TIP3   OH223209   2.787   3.251   8.004  0.0545 -0.3878  0.0570
  525TIP3    H123210   2.778   3.301   8.085  0.8652 -1.0144  0.5430
  525TIP3    H223211   2.805   3.318   7.937 -1.8574  0.2686  0.1260
  526TIP3   OH223212   5.702   6.457   0.875  0.1457 -0.0021  0.3574
  526TIP3    H123213   5.721   6.364   0.864  0.5078  0.1217 -0.1382
  526TIP3    H223214   5.717   6.495   0.788 -0.3579  0.4584  0.4665
  527TIP3   OH223215   2.786   2.516   7.680  0.8483  0.1979  0.0028
  527TIP3    H123216   2.792   2.460   7.758  0.5320  0.5509  0.2867
  527TIP3    H223217   2.856   2.485   7.623  0.6317 -0.5397  0.1232
  528TIP3   OH223218   3.267   3.807   8.217 -0.1839 -0.3529  0.4815
  528TIP3    H123219   3.350   3.854   8.226  0.0605 -0.7313  0.2886
  528TIP3    H223220   3.253   3.766   8.302 -0.7248  0.5844  0.8492
  529TIP3   OH223221   3.099   2.109   7.385  0.3608 -0.4327  0.1389
  529TIP3    H123222   3.102   2.201   7.410  1.2744 -0.8133  1.6176
  529TIP3    H223223   3.096   2.109   7.290 -0.0742  1.1213  0.1336
  530TIP3   OH223224   4.690   5.676   1.809 -0.4975  0.1086 -0.3908
  530TIP3    H123225   4.688   5.670   1.713 -1.6979 -0.1817 -0.3567
  530TIP3    H223226   4.776   5.714   1.828 -0.5154  0.8443 -1.6216
  531TIP3   OH223227   6.546   0.336   0.777  0.2679 -0.2472  0.4804
  531TIP3    H123228   6.512   0.423   0.796 -2.1449 -1.1895  0.9259
  531TIP3    H223229   6.574   0.302   0.862  1.3637  0.1148  0.2824
  532TIP3   OH223230   0.978   3.735   2.185  0.0139 -0.9299  0.1709
  532TIP3    H123231   1.034   3.692   2.249  0.2955 -1.2128 -0.2573
  532TIP3    H223232   1.006   3.699   2.101 -1.6660 -2.0658  0.0348
  533TIP3   OH223233   0.262   3.982   7.909  0.4157  0.3022 -0.0460
  533TIP3    H123234   0.357   3.992   7.914  0.3391  1.0508  0.0615
  533TIP3    H223235   0.248   3.932   7.828  0.9369 -0.5388  0.3738
  534TIP3   OH223236   4.895   6.674   1.796 -0.7491  0.6904 -0.5338
  534TIP3    H123237   4.924   6.697   1.884  1.6202  0.6374 -1.2195
  534TIP3    H223238   4.969   6.695   1.740 -2.6345  1.9370 -2.7470
  535TIP3   OH223239   3.436   5.314   0.504 -0.2646 -0.4168  0.4938
  535TIP3    H123240   3.427   5.404   0.535  0.1730 -0.1658 -0.0868
  535TIP3    H223241   3.435   5.322   0.408  1.9186 -0.7974  0.3996
  536TIP3   OH223242   6.636   0.293   8.189 -0.4369  0.4203  1.0991
  536TIP3    H123243   6.718   0.302   8.239  0.9207 -0.5078 -0.8219
  536TIP3    H223244   6.619   0.381   8.156  0.8114  0.2963  0.0509
  537TIP3   OH223245   1.058   3.795   7.151 -0.0179 -0.3996 -0.0716
  537TIP3    H123246   1.024   3.885   7.157  0.6203  0.0297 -2.0827
  537TIP3    H223247   1.150   3.802   7.174 -0.1486 -0.7107  0.5799
  538TIP3   OH223248   2.029   2.846   8.119 -0.4783  0.0346  0.0795
  538TIP3    H123249   2.009   2.884   8.033  0.2568 -0.3282 -0.2610
  538TIP3    H223250   2.108   2.794   8.104 -0.5573 -0.3313  0.8980
  539TIP3   OH223251   0.703   1.038   0.939  0.7392 -0.4480 -0.9070
  539TIP3    H123252   0.722   1.131   0.943  0.3437 -0.4007  0.4701
  539TIP3    H223253   0.784   0.995   0.967 -0.0772 -0.3485  1.9573
  540TIP3   OH223254   1.582   6.794   7.931 -0.3349 -0.4043  0.3656
  540TIP3    H123255   1.528   6.866   7.898 -0.4581 -0.1804  1.0547
  540TIP3    H223256   1.672   6.824   7.916 -0.3728 -1.0278 -1.3292
  541TIP3   OH223257   6.630   0.523   7.560  0.2857 -0.1026 -0.3425
  541TIP3    H123258   6.563   0.547   7.496 -1.9843 -1.2920  1.4484
  541TIP3    H223259   6.617   0.585   7.632  0.2758 -1.1008  0.5381
  542TIP3   OH223260   3.102   5.194   0.943  0.3754  0.4433  0.0934
  542TIP3    H123261   3.135   5.147   1.020 -0.5004  0.8696  0.7517
  542TIP3    H223262   3.055   5.269   0.980 -0.9244  0.1003 -0.8182
  543TIP3   OH223263   2.883   6.281   7.322  0.9123 -0.2514  0.0329
  543TIP3    H123264   2.923   6.205   7.364  2.8963  0.2936 -0.7283
  543TIP3    H223265   2.940   6.299   7.247 -0.8427  0.5846 -1.1656
  544TIP3   OH223266   4.173   3.339   0.745  0.3620 -0.2513 -0.0329
  544TIP3    H123267   4.245   3.346   0.808  0.1447  1.1112  0.1011
  544TIP3    H223268   4.212   3.368   0.662  0.0142  0.3578  0.0132
  545TIP3   OH223269   1.494   4.600   8.236 -0.3466 -0.1232 -0.4695
  545TIP3    H123270   1.470   4.692   8.251 -0.7158 -0.2507 -0.2700
  545TIP3    H223271   1.566   4.584   8.297 -1.4721 -0.4809  0.8325
  546TIP3   OH223272   2.423   2.958   7.447  0.1056  0.2900  0.2992
  546TIP3    H123273   2.399   3.019   7.378 -0.6833 -0.6636 -0.2997
  546TIP3    H223274   2.438   3.013   7.524  2.5572  1.5493 -0.9673
  547TIP3   OH223275   1.407   4.867   2.487 -0.4869 -0.0059  0.2041
  547TIP3    H123276   1.317   4.899   2.499 -0.3697 -0.1525  1.6067
  547TIP3    H223277   1.412   4.788   2.541  0.8713  0.7425  1.2075
  548TIP3   OH223278   5.738   3.208   2.285 -0.2850  0.0808 -0.7543
  548TIP3    H123279   5.667   3.158   2.325 -0.8464  1.7089  0.3939
  548TIP3    H223280   5.798   3.227   2.358 -0.5403  1.7947 -0.9444
  549TIP3   OH223281   4.187   6.439   1.224  0.6168 -0.2532  0.2182
  549TIP3    H123282   4.270   6.408   1.261  1.1638 -0.7757 -1.3256
  549TIP3    H223283   4.213   6.498   1.153 -0.3545  0.2705  0.2788
  550TIP3   OH223284   6.793   0.607   2.664  0.5231 -0.2108 -0.1594
  550TIP3    H123285   6.700   0.627   2.658  0.6937  0.5618 -0.2560
  550TIP3    H223286   6.797   0.531   2.723 -0.1382 -0.0511  0.0992
  551TIP3   OH223287   4.277   4.565   0.241 -0.3560  0.1402  0.1477
  551TIP3    H123288   4.274   4.659   0.259  0.2385 -0.0721  1.4698
  551TIP3    H223289   4.233   4.525   0.315 -1.0841 -0.6185 -0.6697
  552TIP3   OH223290   1.877   4.504   1.761  0.4845 -0.1988 -0.4403
  552TIP3    H123291   1.971   4.524   1.757  0.4494 -0.1013 -0.7863
  552TIP3    H223292   1.861   4.450   1.683 -0.0248  0.9491 -1.1498
  553TIP3   OH223293   0.274   0.751   0.711  0.4357  0.3539  0.3865
  553TIP3    H123294   0.218   0.691   0.661  1.3648 -1.6408  1.6279
  553TIP3    H223295   0.231   0.836   0.702 -0.5889 -0.3168 -1.9800
  554TIP3   OH223296   1.270   0.443   0.858 -0.3338 -0.4626 -0.3214
  554TIP3    H123297   1.271   0.403   0.771 -0.2790  2.0187 -1.5457
  554TIP3    H223298   1.362   0.460   0.878 -0.4545  0.6227 -0.6261
  555TIP3   OH223299   1.725   3.199   1.287 -0.2877  0.0918 -0.4775
  555TIP3    H123300   1.651   3.218   1.230  2.3584  2.9750 -3.3924
  555TIP3    H223301   1.728   3.271   1.349 -1.4222 -1.5100  1.5712
  556TIP3   OH223302   3.549   1.906   2.209 -0.4036 -0.3160 -0.2418
  556TIP3    H123303   3.616   1.850   2.248  1.8244  1.5602 -1.1260
  556TIP3    H223304   3.519   1.858   2.132  0.7080 -0.7409 -0.4232
  557TIP3   OH223305   3.773   5.520   1.131 -0.5576  0.2278 -0.4314
  557TIP3    H123306   3.697   5.496   1.184  0.1106  2.4261  1.7029
  557TIP3    H223307   3.749   5.496   1.042 -2.3396 -2.2706  0.6262
  558TIP3   OH223308   6.345   0.265   6.956  0.3491  0.5165  0.2600
  558TIP3    H123309   6.263   0.220   6.973  1.7704 -1.6832  1.8693
  558TIP3    H223310   6.399   0.201   6.910  2.4410  0.4474  2.6095
  559TIP3   OH223311   2.962   3.147   2.837 -0.1482  0.1869  0.0355
  559TIP3    H123312   3.016   3.226   2.842  0.6366 -0.3238 -0.2637
  559TIP3    H223313   2.973   3.116   2.747 -1.8358  0.6912 -0.3765
  560TIP3   OH223314   0.900   4.823   2.913 -0.3587  0.0835  0.6003
  560TIP3    H123315   0.917   4.729   2.909  1.6149  0.4466 -0.7453
  560TIP3    H223316   0.946   4.853   2.991  2.2209  0.4470 -0.9558
  561TIP3   OH223317   2.964   5.906   1.700  0.0099 -0.3923 -0.1687
  561TIP3    H123318   2.898   5.938   1.762 -1.4083 -1.2887 -1.1596
  561TIP3    H223319   3.019   5.847   1.752 -1.6879 -1.8194  0.1135
  562TIP3   OH223320   1.907   3.677   2.834 -0.5393  0.2144 -0.3457
  562TIP3    H123321   1.963   3.736   2.884 -2.0384  0.8423  0.6949
  562TIP3    H223322   1.909   3.595   2.883  0.4877 -0.1854 -1.0431
  563TIP3   OH223323   5.276   4.729   1.969  0.1204 -0.2270  0.0861
  563TIP3    H123324   5.322   4.717   2.052 -0.4553  2.1783  0.8565
  563TIP3    H223325   5.195   4.680   1.979  0.1907 -0.2026  0.8462
  564TIP3   OH223326   0.605   0.567   2.312 -0.5150  0.4835 -0.3642
  564TIP3    H123327   0.689   0.532   2.281 -1.7649 -0.6325 -2.7296
  564TIP3    H223328   0.591   0.524   2.397  1.3769  0.8941  0.2131
  565TIP3   OH223329   1.711   1.205   1.763 -0.3096 -0.1097 -0.0911
  565TIP3    H123330   1.765   1.129   1.785  1.2517  0.6659 -1.0391
  565TIP3    H223331   1.772   1.265   1.720 -1.6557  1.4049  0.0541
  566TIP3   OH223332   0.738   1.694   1.115 -0.2888 -0.0882 -0.1867
  566TIP3    H123333   0.645   1.674   1.115 -0.6897  1.5826 -0.9947
  566TIP3    H223334   0.750   1.753   1.190  0.0325  0.0307 -0.3294
  567TIP3   OH223335   1.475   3.701   1.351  0.3866  0.6616 -0.4597
  567TIP3    H123336   1.416   3.776   1.349  0.2214  0.6699  2.0022
  567TIP3    H223337   1.461   3.657   1.267 -1.4333  1.9202 -0.8748
  568TIP3   OH223338   6.423   5.232   2.253  0.3700 -0.5146 -0.0855
  568TIP3    H123339   6.371   5.223   2.333 -0.7927  0.5104 -0.6870
  568TIP3    H223340   6.382   5.172   2.191  0.0095  0.1512 -0.5027
  569TIP3   OH223341   0.978   0.680   2.827  0.3917  0.6746 -0.2064
  569TIP3    H123342   0.929   0.762   2.824 -0.4363  0.1879 -3.1480
  569TIP3    H223343   0.920   0.615   2.786  0.7806 -1.6012  2.5076
  570TIP3   OH223344   3.766   2.102   6.783  0.3629  0.2378 -0.3259
  570TIP3    H123345   3.854   2.102   6.821  0.2783  0.2636 -0.1274
  570TIP3    H223346   3.762   2.184   6.733  0.5387  0.1164 -0.5427
  571TIP3   OH223347   6.567   2.915   2.365  0.6381 -0.2728 -0.1653
  571TIP3    H123348   6.631   2.846   2.348  0.8645 -0.4336  1.2060
  571TIP3    H223349   6.540   2.901   2.456 -0.7829  0.2630 -0.4810
  572TIP3   OH223350   1.987   5.281   1.790  0.6263  0.3117  0.0394
  572TIP3    H123351   2.071   5.236   1.789  0.3273 -0.2731  0.2816
  572TIP3    H223352   1.950   5.266   1.703  0.0681 -0.8376  0.4448
  573TIP3   OH223353   2.201   5.615   7.236 -0.4946 -0.1959  0.0618
  573TIP3    H123354   2.143   5.567   7.178  0.3273 -0.4256 -0.5811
  573TIP3    H223355   2.256   5.668   7.178 -0.3533  0.3606  0.6843
  574TIP3   OH223356   4.660   1.706   0.486  0.0768  0.2818  0.0150
  574TIP3    H123357   4.645   1.699   0.580  1.4615  1.6608  0.3817
  574TIP3    H223358   4.712   1.785   0.476  2.0253 -1.0976 -1.6434
  575TIP3   OH223359   0.264   3.637   0.895  0.1547  0.2384  0.4083
  575TIP3    H123360   0.325   3.673   0.830  0.6200  1.7470  1.6214
  575TIP3    H223361   0.226   3.561   0.852  0.4929  1.1309 -1.6185
  576TIP3   OH223362   2.513   3.317   7.857 -0.2589  0.2657  0.4901
  576TIP3    H123363   2.516   3.383   7.788  0.2609  0.1736  0.4226
  576TIP3    H223364   2.525   3.365   7.938 -0.3713  0.3141  0.4775
  577TIP3   OH223365   2.710   4.997   8.363 -0.1248 -0.4880  0.4343
  577TIP3    H123366   2.657   5.040   8.430 -1.2283 -0.3096 -0.5137
  577TIP3    H223367   2.784   5.056   8.351 -0.0029 -0.4339  1.3513
  578TIP3   OH223368   0.437   0.316   2.789 -0.3104 -0.2199  0.9789
  578TIP3    H123369   0.372   0.258   2.749 -0.1470 -0.3409  0.8930
  578TIP3    H223370   0.493   0.258   2.840  1.2123 -0.4301 -0.8511
  579TIP3   OH223371   1.924   4.351   8.380 -0.1848 -0.6076 -0.2009
  579TIP3    H123372   1.951   4.329   8.291  0.6433  1.3394 -0.4809
  579TIP3    H223373   1.997   4.325   8.435 -0.6946 -1.8065 -0.0516
  580TIP3   OH223374   4.044   3.600   0.340  0.2589  0.2478 -0.3507
  580TIP3    H123375   4.019   3.573   0.252 -0.0088  1.7405 -0.7708
  580TIP3    H223376   3.962   3.605   0.388  0.3806 -0.3478 -0.0759
  581TIP3   OH223377   6.924   4.840   8.009 -0.1031 -0.1076  0.1759
  581TIP3    H123378   6.934   4.792   7.926  1.5516 -0.7914  0.7311
  581TIP3    H223379   7.011   4.875   8.027 -0.5147  0.2916  1.4806
  582TIP3   OH223380   2.490   2.417   2.240 -0.0008 -0.0976 -0.1240
  582TIP3    H123381   2.582   2.391   2.249  0.1987  0.1883 -1.1969
  582TIP3    H223382   2.455   2.414   2.329  0.2845 -2.9880 -0.0167
  583TIP3   OH223383   0.167   2.965   1.054  0.1667 -0.6107 -0.3345
  583TIP3    H123384   0.162   2.880   1.009 -1.1094 -0.8686  0.2722
  583TIP3    H223385   0.209   2.945   1.138 -0.6153 -0.7465  0.0308
  584TIP3   OH223386   0.148   6.031   2.225  0.4276 -0.0274 -0.3562
  584TIP3    H123387   0.096   6.010   2.148  0.0305  1.5902 -0.5499
  584TIP3    H223388   0.085   6.056   2.292  0.8158 -0.6933  0.2846
  585TIP3   OH223389   0.238   5.116   1.139 -0.5127  0.2814 -0.4661
  585TIP3    H123390   0.289   5.035   1.144 -2.2228 -1.0310 -2.6120
  585TIP3    H223391   0.300   5.181   1.106  0.1441 -0.9369 -1.7316
  586TIP3   OH223392   3.505   6.818   1.853 -0.7206 -0.0282  0.6119
  586TIP3    H123393   3.497   6.732   1.812  1.1250 -0.0410  0.1847
  586TIP3    H223394   3.544   6.799   1.939  1.0695  0.4449 -0.0519
  587TIP3   OH223395   2.029   6.866   1.857  0.5221  0.1070 -0.3492
  587TIP3    H123396   2.006   6.950   1.818  0.5971 -0.0117 -0.6525
  587TIP3    H223397   2.069   6.817   1.785 -0.2723 -0.4954 -0.4030
  588TIP3   OH223398   3.623   4.343   7.559  0.0693  0.3469 -0.3375
  588TIP3    H123399   3.557   4.284   7.523  0.5707  0.4964 -1.5724
  588TIP3    H223400   3.700   4.328   7.504  1.3733 -0.4857  1.6404
  589TIP3   OH223401   6.722   2.361   7.633  0.1481  0.0800 -0.1646
  589TIP3    H123402   6.646   2.375   7.576  0.7187  0.2176 -0.9182
  589TIP3    H223403   6.691   2.299   7.699 -0.5682 -0.0153 -0.5734
  590TIP3   OH223404   1.137   6.310   1.237  0.0808  0.3025 -0.0775
  590TIP3    H123405   1.126   6.235   1.179  1.9640 -0.1576  0.1084
  590TIP3    H223406   1.112   6.385   1.183 -3.5931 -0.4715  0.2626
  591TIP3   OH223407   6.491   3.578   2.228 -0.5578  0.1082  0.7305
  591TIP3    H123408   6.474   3.592   2.135  1.1810 -1.6456  0.0756
  591TIP3    H223409   6.587   3.572   2.234 -0.3830  2.7738  3.0834
  592TIP3   OH223410   6.542   6.796   2.750 -0.0167  0.3949  0.4615
  592TIP3    H123411   6.526   6.809   2.656 -0.4832  0.3998  0.5374
  592TIP3    H223412   6.507   6.875   2.791  1.0974  0.8569  0.5630
  593TIP3   OH223413   0.377   2.867   2.448 -0.0700  0.0299 -0.1075
  593TIP3    H123414   0.369   2.946   2.394  1.5568 -0.5761 -1.3250
  593TIP3    H223415   0.465   2.834   2.429 -1.1657 -2.8596 -0.7549
  594TIP3   OH223416   4.707   1.968   7.451 -0.1047 -0.2369 -0.0909
  594TIP3    H123417   4.678   1.896   7.394 -0.0451 -1.3067  1.1827
  594TIP3    H223418   4.783   1.933   7.497 -0.4769  0.3989  1.0465
  595TIP3   OH223419   2.231   6.227   8.348 -0.2462  0.1999 -0.1136
  595TIP3    H123420   2.253   6.218   8.255  0.5380 -3.0738  0.2509
  595TIP3    H223421   2.297   6.288   8.383 -1.8946  3.2804 -1.9952
  596TIP3   OH223422   6.942   4.675   1.489  0.5463 -0.4944 -0.1044
  596TIP3    H123423   6.924   4.663   1.582  1.1490  3.5345  0.7232
  596TIP3    H223424   6.919   4.767   1.472 -0.1295 -1.2244 -4.1273
  597TIP3   OH223425   2.329   4.395   7.439 -0.1703  0.8090  0.2620
  597TIP3    H123426   2.398   4.330   7.457 -0.3754  0.2627 -0.8144
  597TIP3    H223427   2.286   4.408   7.523  0.9588  0.8179  0.8611
  598TIP3   OH223428   5.731   6.182   7.557 -0.3209 -0.2726 -0.5727
  598TIP3    H123429   5.697   6.265   7.525 -0.9757 -0.7321 -1.1063
  598TIP3    H223430   5.659   6.120   7.545 -1.0391 -0.2713  2.8357
  599TIP3   OH223431   0.255   0.842   1.443  0.0215  0.2075  0.2491
  599TIP3    H123432   0.297   0.802   1.519 -0.4489 -2.5512 -0.8072
  599TIP3    H223433   0.327   0.880   1.393  0.5602  0.3938  1.1505
  600TIP3   OH223434   6.879   5.266   1.792 -0.0728  0.1336  0.1821
  600TIP3    H123435   6.788   5.258   1.762 -0.3154 -0.6451  1.0896
  600TIP3    H223436   6.927   5.295   1.714 -0.8490 -0.9279 -0.7184
  601TIP3   OH223437   2.801   6.459   0.996 -0.5389 -0.4657  0.0553
  601TIP3    H123438   2.878   6.407   1.020  0.6651  1.2538  0.1856
  601TIP3    H223439   2.747   6.461   1.075 -0.0196 -0.5566  0.4186
  602TIP3   OH223440   6.990   5.535   8.289  0.2840 -0.2934 -0.6726
  602TIP3    H123441   6.993   5.631   8.287  0.1763 -0.2987 -1.1111
  602TIP3    H223442   6.958   5.514   8.377  1.0642  0.0529 -0.2886
  603TIP3   OH223443   5.008   0.432   7.699  0.6207  0.0482 -0.2870
  603TIP3    H123444   5.083   0.401   7.750 -0.4500 -0.2006  1.1986
  603TIP3    H223445   5.027   0.524   7.683  0.7363  0.2684  1.0338
  604TIP3   OH223446   6.850   5.486   1.182 -0.4389 -0.2612 -0.2607
  604TIP3    H123447   6.917   5.555   1.175 -0.7193  0.1945  1.1400
  604TIP3    H223448   6.810   5.483   1.095 -1.5136  2.5168  0.0115
  605TIP3   OH223449   6.105   0.428   2.755 -0.1725  0.1964 -0.1344
  605TIP3    H123450   6.033   0.364   2.761  0.3963 -0.9426 -3.3732
  605TIP3    H223451   6.183   0.378   2.779 -0.0754  0.5283  0.2419
  606TIP3   OH223452   3.861   1.347   1.997 -0.5714 -0.1385 -0.0765
  606TIP3    H123453   3.857   1.317   1.906 -0.0999 -0.5591  0.0354
  606TIP3    H223454   3.847   1.441   1.992  0.6766  0.0255 -0.7074
  607TIP3   OH223455   5.249   5.225   0.786  0.2934 -0.0605 -0.3899
  607TIP3    H123456   5.199   5.222   0.867  1.4836 -0.2558  0.3671
  607TIP3    H223457   5.266   5.319   0.772 -0.8068  0.0652 -1.0088
  608TIP3   OH223458   2.777   1.708   8.371 -0.4592 -0.0955  0.2936
  608TIP3    H123459   2.807   1.618   8.363 -0.0220  0.0951 -0.2314
  608TIP3    H223460   2.694   1.710   8.324 -1.3963 -0.6509  1.8442
  609TIP3   OH223461   6.923   0.325   1.216  0.5619 -0.1337 -0.4439
  609TIP3    H123462   6.965   0.403   1.253 -0.0762  0.9754 -1.9698
  609TIP3    H223463   6.925   0.261   1.288  1.5330  1.1055  0.6958
  610TIP3   OH223464   1.814   1.449   3.123  0.1575 -0.6944  0.1029
  610TIP3    H123465   1.782   1.405   3.202  0.0555  0.3694  0.6727
  610TIP3    H223466   1.750   1.518   3.107  1.2144  0.3431  0.2364
  611TIP3   OH223467   4.105   4.971   7.346  0.0770 -0.0075  0.2264
  611TIP3    H123468   4.065   4.889   7.375 -1.7246  0.9026  0.4399
  611TIP3    H223469   4.090   4.972   7.252  2.5746 -1.1751 -0.2665
  612TIP3   OH223470   3.486   1.583   2.712  0.3595 -0.0142  0.0100
  612TIP3    H123471   3.541   1.643   2.763 -0.5450  0.8226  0.0429
  612TIP3    H223472   3.493   1.500   2.758  2.4292 -0.2374 -0.5997
  613TIP3   OH223473   0.880   3.151   8.444  0.2795 -0.4838  0.1248
  613TIP3    H123474   0.868   3.093   8.519  0.3628  2.0448  2.2395
  613TIP3    H223475   0.791   3.164   8.410 -0.1023  0.2483  1.3498
  614TIP3   OH223476   6.407   5.681   2.845 -0.1819  0.8036 -0.6426
  614TIP3    H123477   6.408   5.684   2.940  1.1267 -0.8384 -0.5673
  614TIP3    H223478   6.349   5.607   2.824  0.2685  0.5686 -1.0820
  615TIP3   OH223479   1.452   4.639   1.302  0.7035  0.1492  0.8505
  615TIP3    H123480   1.512   4.572   1.336  0.4585 -0.4582  0.1097
  615TIP3    H223481   1.477   4.649   1.211  0.1673  0.4458  0.7346
  616TIP3   OH223482   1.133   2.697   0.872 -0.1286 -0.6915  0.0002
  616TIP3    H123483   1.143   2.775   0.818  1.1834 -0.4911  0.4974
  616TIP3    H223484   1.104   2.732   0.957  1.4621 -0.5923  0.5461
  617TIP3   OH223485   3.607   5.682   0.396  0.3743 -0.3264  0.3132
  617TIP3    H123486   3.645   5.759   0.437 -0.2279 -1.1444  2.5379
  617TIP3    H223487   3.664   5.665   0.320  0.9354  1.8293  0.1837
  618TIP3   OH223488   5.787   2.193   0.560 -0.2685 -0.0168  0.1172
  618TIP3    H123489   5.770   2.210   0.652 -2.8510  1.2786 -0.4916
  618TIP3    H223490   5.796   2.281   0.521 -0.2727 -0.5052 -1.0313
  619TIP3   OH223491   3.032   2.571   0.202  0.3352  0.2606  0.3601
  619TIP3    H123492   3.112   2.545   0.158 -1.6337 -2.1633 -2.0681
  619TIP3    H223493   2.989   2.631   0.141 -0.2614  0.6208  1.1114
  620TIP3   OH223494   6.015   2.660   8.062 -0.5189 -0.0116  0.0103
  620TIP3    H123495   6.094   2.606   8.055 -0.5755 -0.3594  1.6587
  620TIP3    H223496   5.943   2.602   8.035 -0.4203 -0.2973  0.3619
  621TIP3   OH223497   1.154   2.287   3.197 -0.4155  0.4936  0.0486
  621TIP3    H123498   1.167   2.381   3.211 -0.3921  0.8164 -1.9425
  621TIP3    H223499   1.230   2.259   3.147  0.5826 -1.0671  2.2501
  622TIP3   OH223500   6.532   2.024   7.103 -0.2131 -0.0344 -0.2015
  622TIP3    H123501   6.618   2.065   7.103 -0.1723 -0.1060  0.2650
  622TIP3    H223502   6.471   2.095   7.122 -0.4575  0.3620 -2.2771
  623TIP3   OH223503   0.696   3.859   7.213  0.5033 -0.6915 -0.5018
  623TIP3    H123504   0.740   3.826   7.135  1.8575  0.9889 -0.5084
  623TIP3    H223505   0.690   3.954   7.200 -1.5026 -0.6300  0.3511
  624TIP3   OH223506   6.660   4.660   0.977 -0.6227  0.4656  0.1161
  624TIP3    H123507   6.567   4.641   0.991 -0.4140 -0.9575 -0.2917
  624TIP3    H223508   6.690   4.692   1.062 -0.8031 -2.1211  1.2658
  625TIP3   OH223509   5.658   3.871   2.379  0.0043 -0.0149  0.7843
  625TIP3    H123510   5.664   3.835   2.468  1.5870  0.4352  0.9093
  625TIP3    H223511   5.744   3.851   2.340 -1.2167 -1.6598 -1.2566
  626TIP3   OH223512   0.258   1.650   7.759 -0.2826 -0.0083  0.4447
  626TIP3    H123513   0.201   1.609   7.824  0.0898  0.7875  1.2989
  626TIP3    H223514   0.234   1.743   7.762  1.6607  0.5157  1.5225
  627TIP3   OH223515   4.251   3.618   0.951  0.0200  0.4756 -0.2411
  627TIP3    H123516   4.211   3.562   1.017  0.5447 -0.5954 -0.8137
  627TIP3    H223517   4.283   3.694   1.000  0.3080 -0.2520  0.7062
  628TIP3   OH223518   4.881   4.165   2.613 -0.4716  0.4162  0.0192
  628TIP3    H123519   4.825   4.219   2.669 -1.6672 -0.0437 -0.6804
  628TIP3    H223520   4.819   4.112   2.562  0.5630  0.8143 -1.7266
  629TIP3   OH223521   2.282   1.713   8.216 -0.2461 -0.3904 -0.4841
  629TIP3    H123522   2.219   1.753   8.157 -1.0423 -1.6594 -0.5254
  629TIP3    H223523   2.232   1.694   8.295  0.3915 -0.2914 -0.0454
  630TIP3   OH223524   3.986   5.993   0.951 -0.0593 -0.3051 -0.1547
  630TIP3    H123525   4.073   5.963   0.924  0.2229  1.4172 -1.3108
  630TIP3    H223526   3.980   5.969   1.044  3.2059  2.8169  1.0715
  631TIP3   OH223527   0.078   4.050   2.651  0.2436  0.0620 -0.5263
  631TIP3    H123528   0.029   4.123   2.688  0.4483 -0.3297  0.5670
  631TIP3    H223529   0.052   3.974   2.703  1.5678 -0.2541 -0.2794
  632TIP3   OH223530   6.114   6.057   7.361 -0.5691  0.0992  0.2436
  632TIP3    H123531   6.189   6.060   7.421 -0.8360 -1.2732  0.6930
  632TIP3    H223532   6.152   6.067   7.274  0.2253 -1.0605  0.4310
  633TIP3   OH223533   5.421   4.685   8.071 -0.5751  0.3723  0.0453
  633TIP3    H123534   5.450   4.594   8.074 -1.4748  0.0431 -0.7597
  633TIP3    H223535   5.437   4.718   8.159  0.1407 -0.4366  0.2351
  634TIP3   OH223536   0.202   1.718   2.803  0.5044 -0.5512 -0.1556
  634TIP3    H123537   0.235   1.685   2.887 -0.9467 -0.5632  0.4270
  634TIP3    H223538   0.227   1.810   2.803 -0.2784 -0.3260  0.7121
  635TIP3   OH223539   3.046   5.134   7.729  0.0525 -0.7502 -0.0693
  635TIP3    H123540   3.019   5.226   7.730  0.3045 -0.6747  0.0347
  635TIP3    H223541   3.137   5.136   7.698 -0.0376 -0.9920 -0.3566
  636TIP3   OH223542   1.334   1.156   0.314  0.4007  0.2236 -0.1427
  636TIP3    H123543   1.272   1.091   0.280  1.1269 -0.0806 -0.9320
  636TIP3    H223544   1.285   1.203   0.381 -1.1403  0.8950 -1.6417
  637TIP3   OH223545   0.068   0.716   0.120 -0.3772  1.0527  0.2392
  637TIP3    H123546   0.035   0.752   0.038  0.5187  1.2820 -0.0286
  637TIP3    H223547  -0.010   0.709   0.176 -0.9904  0.8891 -0.6190
  638TIP3   OH223548   0.063   3.558   2.807  0.2349  0.4899  0.1074
  638TIP3    H123549   0.024   3.549   2.894  0.2264 -0.3472  0.0338
  638TIP3    H223550   0.156   3.575   2.823  0.4486 -0.7262  0.3033
  639TIP3   OH223551   5.025   1.724   1.407 -0.0017  0.3094  0.9659
  639TIP3    H123552   5.097   1.780   1.436  0.1838  0.3740  0.3855
  639TIP3    H223553   5.067   1.647   1.370 -0.2018  0.5561  0.1850
  640TIP3   OH223554   1.606   1.058   1.437  0.4080 -0.2117 -1.0791
  640TIP3    H123555   1.630   0.976   1.481 -1.7665 -0.2876  0.1081
  640TIP3    H223556   1.550   1.030   1.364 -0.2440  0.1797 -0.7407
  641TIP3   OH223557   0.755   1.686   0.271 -0.1097 -0.6395  0.3745
  641TIP3    H123558   0.831   1.631   0.252  1.2525  0.4862  2.3238
  641TIP3    H223559   0.683   1.624   0.284  0.9468 -1.8389  0.6339
  642TIP3   OH223560   1.557   1.208   0.040 -0.3662 -0.5453 -0.3104
  642TIP3    H123561   1.558   1.138  -0.025  0.3632 -2.2343  1.4153
  642TIP3    H223562   1.560   1.162   0.124  0.9819  1.5701  0.8817
  643TIP3   OH223563   3.836   4.349   2.395  0.1044 -0.1066 -0.2340
  643TIP3    H123564   3.833   4.261   2.358 -0.1645 -0.7585  1.2850
  643TIP3    H223565   3.756   4.391   2.363 -0.3504 -0.8046 -0.0428
  644TIP3   OH223566   4.629   4.618   1.015 -0.1833  0.3547 -0.1003
  644TIP3    H123567   4.539   4.588   0.998 -0.7668  1.9022  0.0888
  644TIP3    H223568   4.619   4.709   1.042  1.6170  1.1860 -1.9898
  645TIP3   OH223569   3.557   5.840   1.704 -0.2401 -0.7872 -0.2120
  645TIP3    H123570   3.592   5.907   1.645  0.9081 -0.3636  0.8886
  645TIP3    H223571   3.475   5.876   1.737  0.1566 -0.0989  0.0354
  646TIP3   OH223572   0.127   2.576   2.316  0.3836  0.7394  0.0312
  646TIP3    H123573   0.159   2.640   2.252 -1.5775  1.3307 -0.4439
  646TIP3    H223574   0.078   2.629   2.380  3.5329  0.3754  3.0185
  647TIP3   OH223575   6.651   5.667   0.498  0.6077 -0.8517 -0.4809
  647TIP3    H123576   6.682   5.756   0.485  0.3301 -0.2234  2.3453
  647TIP3    H223577   6.585   5.675   0.567  0.3080 -3.2090 -0.4101
  648TIP3   OH223578   0.693   6.833   7.571 -0.3056  0.2746  0.1264
  648TIP3    H123579   0.722   6.870   7.487  0.5767  2.1781  1.1949
  648TIP3    H223580   0.726   6.743   7.571 -1.6886 -0.3035 -2.1978
  649TIP3   OH223581   1.979   4.748   2.025 -0.0685 -0.2090 -0.0128
  649TIP3    H123582   2.027   4.766   2.106  1.3310 -0.0725 -0.8500
  649TIP3    H223583   2.040   4.770   1.955 -1.1569 -0.5903 -1.1216
  650TIP3   OH223584   1.562   0.451   0.099  0.0651  0.0636  0.2296
  650TIP3    H123585   1.581   0.357   0.095  2.3704  0.5174 -0.9535
  650TIP3    H223586   1.566   0.472   0.192 -1.5123 -1.1556  0.6223
  651TIP3   OH223587   3.160   0.839   1.346  0.4132 -0.0225 -0.1367
  651TIP3    H123588   3.100   0.776   1.386 -1.2903  0.9949 -0.9340
  651TIP3    H223589   3.171   0.808   1.256  2.0780 -0.8395  0.3111
  652TIP3   OH223590   4.365   6.947   7.857  0.1514  0.2444 -0.0687
  652TIP3    H123591   4.302   7.017   7.874 -0.6322 -0.4157 -0.1751
  652TIP3    H223592   4.332   6.904   7.777 -1.0931 -2.1159  1.5944
  653TIP3   OH223593   5.879   1.992   7.341 -0.0504 -0.5715 -0.6469
  653TIP3    H123594   5.941   1.919   7.336  0.2676 -0.3641  0.0299
  653TIP3    H223595   5.793   1.951   7.340  0.0779 -0.8459 -1.8914
  654TIP3   OH223596   0.377   5.150   7.760 -0.0275 -0.0226  0.1253
  654TIP3    H123597   0.460   5.104   7.744  1.9199  3.2342  0.0249
  654TIP3    H223598   0.346   5.174   7.673 -0.8457 -0.7604  0.1986
  655TIP3   OH223599   0.553   5.870   1.043  0.8489 -0.0739 -0.3988
  655TIP3    H123600   0.483   5.808   1.022  1.4217 -0.6363 -0.6931
  655TIP3    H223601   0.587   5.898   0.958  2.1863 -1.2125 -0.2776
  656TIP3   OH223602   0.051   0.157   2.188 -0.0440  0.5501 -0.4361
  656TIP3    H123603   0.086   0.242   2.162  1.4435 -0.2514 -1.1951
  656TIP3    H223604   0.089   0.095   2.126  0.0501 -0.8555  0.9564
  657TIP3   OH223605   1.275   5.630   0.841 -0.0832 -0.1516  0.0245
  657TIP3    H123606   1.246   5.555   0.790 -0.1555 -0.5403  0.6358
  657TIP3    H223607   1.366   5.644   0.813 -0.7436  0.9392 -1.7333
  658TIP3   OH223608   3.395   5.310   0.231 -0.0287 -0.0421 -0.2348
  658TIP3    H123609   3.322   5.248   0.228  0.3850 -0.5086 -0.7791
  658TIP3    H223610   3.362   5.389   0.189 -0.6013  0.1664  0.5719
  659TIP3   OH223611   1.658   3.666   2.266 -0.5671 -0.0006 -0.1299
  659TIP3    H123612   1.626   3.628   2.348 -0.9039  0.1329 -0.1951
  659TIP3    H223613   1.670   3.591   2.208  0.3517 -0.1632  0.2660
  660TIP3   OH223614   6.683   0.087   6.833  0.3396 -0.0914  0.0962
  660TIP3    H123615   6.595   0.049   6.834  1.2948 -2.5254 -0.4400
  660TIP3    H223616   6.716   0.066   6.746  2.0515 -0.7450  0.8741
  661TIP3   OH223617   1.557   1.682   8.342 -0.2870  0.0706 -0.1415
  661TIP3    H123618   1.497   1.647   8.407  0.3107  0.2303  0.5089
  661TIP3    H223619   1.576   1.608   8.284 -0.1767 -0.2925  0.3572
  662TIP3   OH223620   1.599   3.477   1.955  0.0012  0.3946  0.2934
  662TIP3    H123621   1.680   3.526   1.956 -0.4563  1.1798 -0.2175
  662TIP3    H223622   1.598   3.430   2.038  0.7307  0.7823  0.5249
  663TIP3   OH223623   0.352   2.422   1.884  0.3560 -0.4479  0.3148
  663TIP3    H123624   0.433   2.471   1.871  0.1761  0.3952  2.0560
  663TIP3    H223625   0.333   2.432   1.978 -0.1762 -3.1000  0.5837
  664TIP3   OH223626   4.918   4.495   7.588 -0.2156  0.3507  0.1477
  664TIP3    H123627   4.895   4.440   7.513 -1.1460  0.0058  0.6660
  664TIP3    H223628   4.958   4.435   7.651 -0.4497  0.4243  0.3690
  665TIP3   OH223629   2.651   1.132   7.152  0.3873 -0.2042  0.3475
  665TIP3    H123630   2.589   1.190   7.195  0.1678  0.6765 -1.1050
  665TIP3    H223631   2.734   1.181   7.151  0.5405 -0.4574  0.2954
  666TIP3   OH223632   0.793   6.962   1.856  0.5347  0.3552 -0.0802
  666TIP3    H123633   0.762   7.043   1.898 -0.0886  0.2262 -0.2797
  666TIP3    H223634   0.837   6.914   1.927  2.1235  1.4666 -0.2687
  667TIP3   OH223635   5.056   2.436   1.784 -0.0845  0.3986  0.3805
  667TIP3    H123636   5.146   2.404   1.788 -0.2377 -0.5980 -2.0640
  667TIP3    H223637   5.056   2.514   1.839  2.9075  1.7782 -1.2931
  668TIP3   OH223638   6.372   2.636   0.963  0.0021 -0.0109  0.0147
  668TIP3    H123639   6.384   2.548   0.999  0.0667  1.1007  2.9772
  668TIP3    H223640   6.458   2.677   0.967 -0.1928  0.4808 -0.5367
  669TIP3   OH223641   3.127   5.841   0.664  0.1803  0.0121  0.3564
  669TIP3    H123642   3.176   5.918   0.692  1.9331 -1.3521  1.1779
  669TIP3    H223643   3.079   5.871   0.587  0.5445  2.0093  0.8451
  670TIP3   OH223644   5.354   5.940   1.522  0.7020 -0.1029 -0.8475
  670TIP3    H123645   5.340   5.861   1.574  0.3305  0.5352  0.0442
  670TIP3    H223646   5.446   5.935   1.496  0.4035 -1.3794 -1.7711
  671TIP3   OH223647   4.302   4.172   0.962  0.7919  0.0804  0.1343
  671TIP3    H123648   4.372   4.194   0.901  1.5416 -1.8181  0.2642
  671TIP3    H223649   4.246   4.111   0.914  0.2029  0.2066  0.6411
  672TIP3   OH223650   3.759   0.053   1.918  0.2171  0.1320  0.0298
  672TIP3    H123651   3.717   0.139   1.916  1.7272  0.9055  0.1671
  672TIP3    H223652   3.792   0.045   2.007  0.9028 -0.1842 -0.2511
  673TIP3   OH223653   6.674   1.425   7.697 -0.1459  0.1575 -0.2273
  673TIP3    H123654   6.670   1.330   7.686 -0.3459 -0.0127  1.1824
  673TIP3    H223655   6.765   1.447   7.677  0.3203 -0.5656  0.9970
  674TIP3   OH223656   2.509   0.426   8.006  0.0317  0.1448  0.0392
  674TIP3    H123657   2.439   0.448   7.946  0.4147 -0.2322 -0.5507
  674TIP3    H223658   2.566   0.366   7.957 -0.9602 -2.2039  1.5636
  675TIP3   OH223659   0.987   1.114   3.139  0.3441  0.0672  0.0207
  675TIP3    H123660   1.006   1.028   3.101  0.6781  1.1013 -2.3693
  675TIP3    H223661   0.970   1.170   3.063 -1.9826  1.6558  1.5563
  676TIP3   OH223662   4.675   2.206   8.237 -0.3120 -0.0338 -0.5282
  676TIP3    H123663   4.762   2.222   8.201  0.4866  0.8811  1.5807
  676TIP3    H223664   4.615   2.222   8.165  1.2539 -0.5605 -2.0040
  677TIP3   OH223665   0.947   6.533   1.996 -0.0936 -0.3530 -0.0440
  677TIP3    H123666   0.900   6.617   1.995 -0.9974 -0.8304  0.3820
  677TIP3    H223667   0.933   6.499   2.085 -0.3790 -1.2862 -0.4265
  678TIP3   OH223668   1.675   1.099   2.760  0.1313 -0.4997 -0.2708
  678TIP3    H123669   1.684   1.087   2.854 -1.9230  0.4032  0.0857
  678TIP3    H223670   1.746   1.159   2.736  1.0745 -1.2554  0.5596
  679TIP3   OH223671   4.031   5.722   0.364 -0.1465 -0.1705 -0.2079
  679TIP3    H123672   3.975   5.800   0.356 -1.1290 -0.6143  1.8412
  679TIP3    H223673   4.118   5.757   0.382 -0.4674  0.4720  0.1395
  680TIP3   OH223674   2.012   2.195   0.866 -0.6636  0.3499 -0.7708
  680TIP3    H123675   2.074   2.257   0.905  0.4110 -0.4244 -1.2194
  680TIP3    H223676   1.965   2.158   0.941  0.4137 -0.1106 -0.3076
  681TIP3   OH223677   3.597   3.864   0.933  0.5038  0.0859  0.1774
  681TIP3    H123678   3.525   3.826   0.981  0.2241  0.4902  0.0830
  681TIP3    H223679   3.617   3.800   0.864 -1.4987  1.0997 -1.4576
  682TIP3   OH223680   3.579   4.480   7.986  0.1263 -0.2707  0.6314
  682TIP3    H123681   3.657   4.516   8.029  1.0420 -0.7886 -0.5355
  682TIP3    H223682   3.569   4.393   8.023 -0.6479  0.2463  1.6797
  683TIP3   OH223683   2.473   5.559   0.755  0.2797  0.4414 -0.5236
  683TIP3    H123684   2.397   5.505   0.776  0.5866  0.5011  0.8592
  683TIP3    H223685   2.459   5.587   0.664 -0.7691 -0.4758 -0.6592
  684TIP3   OH223686   5.293   5.845   1.100  0.3848  0.6878  1.2225
  684TIP3    H123687   5.226   5.912   1.100 -1.4465 -1.0378  1.5937
  684TIP3    H223688   5.267   5.785   1.170  1.2142 -1.0557  0.1177
  685TIP3   OH223689   6.486   1.963   2.791 -0.7528  0.0002 -0.2852
  685TIP3    H123690   6.556   1.971   2.855 -0.3437  0.2645 -0.7579
  685TIP3    H223691   6.432   1.891   2.824 -0.6756  0.2739  0.4693
  686TIP3   OH223692   1.788   3.122   8.014  0.3788  0.2270  0.1935
  686TIP3    H123693   1.710   3.169   7.984  1.4505  2.4607  0.6332
  686TIP3    H223694   1.792   3.142   8.108  1.6738  0.5119  0.0962
  687TIP3   OH223695   0.528   1.564   0.675 -0.2450  0.0685  0.2693
  687TIP3    H123696   0.512   1.480   0.717  1.0932 -0.2933  0.0808
  687TIP3    H223697   0.613   1.555   0.634 -1.7907  0.1051 -3.2812
  688TIP3   OH223698   5.271   0.203   0.237 -0.4252 -0.8170 -0.3144
  688TIP3    H123699   5.281   0.112   0.210 -0.8561 -1.3319  1.1666
  688TIP3    H223700   5.203   0.238   0.179 -0.3034 -1.4520 -0.8520
  689TIP3   OH223701   2.677   3.741   0.164  0.1918  0.6386  0.0704
  689TIP3    H123702   2.701   3.762   0.074 -0.9194 -1.5324 -0.7848
  689TIP3    H223703   2.755   3.700   0.200  0.3642  0.7631 -0.1545
  690TIP3   OH223704   5.408   1.550   0.703 -0.2461 -0.0373  0.1398
  690TIP3    H123705   5.357   1.558   0.784  0.0108 -0.8320  0.3918
  690TIP3    H223706   5.343   1.555   0.633 -0.5075  0.3417  0.4037
  691TIP3   OH223707   3.488   1.716   6.883  0.6506  0.1308 -0.5029
  691TIP3    H123708   3.580   1.742   6.877  0.1391  2.1376 -0.1555
  691TIP3    H223709   3.439   1.797   6.868 -1.0433 -0.5871  0.8460
  692TIP3   OH223710   4.898   6.851   2.540  0.1591 -0.3275 -0.3198
  692TIP3    H123711   4.931   6.938   2.516 -1.1783  0.1563 -0.4976
  692TIP3    H223712   4.807   6.852   2.513  0.8918 -3.0332 -3.5281
  693TIP3   OH223713   3.177   5.132   0.526 -0.4393 -0.0238  0.3581
  693TIP3    H123714   3.143   5.217   0.498 -1.6820 -0.4552  0.4998
  693TIP3    H223715   3.124   5.068   0.479  2.5174 -0.8184 -2.2272
  694TIP3   OH223716   2.019   4.407   1.368 -0.3145  0.1297 -0.3969
  694TIP3    H123717   1.969   4.472   1.319 -0.7178 -1.4157 -2.1581
  694TIP3    H223718   1.954   4.365   1.425 -0.7962 -0.9562 -1.6993
  695TIP3   OH223719   2.463   1.561   1.718  0.5319  0.1804  0.5320
  695TIP3    H123720   2.379   1.516   1.706 -0.2039  0.7926  2.7597
  695TIP3    H223721   2.466   1.580   1.812  2.1482  2.1624  0.1507
  696TIP3   OH223722   2.104   5.979   8.150 -0.2814 -1.0341 -0.3855
  696TIP3    H123723   2.045   6.008   8.219  1.0091  0.5664  0.1271
  696TIP3    H223724   2.162   5.916   8.193  0.8901  0.3904  0.2115
  697TIP3   OH223725   5.747   1.967   8.412  0.0177  0.1555 -0.3310
  697TIP3    H123726   5.795   1.900   8.461 -1.7323 -0.1328  1.0928
  697TIP3    H223727   5.805   1.989   8.339  0.9821 -2.3702 -0.4421
  698TIP3   OH223728   1.411   3.217   0.845  0.3089 -0.1208 -0.1310
  698TIP3    H123729   1.407   3.135   0.797  0.4997 -0.1313 -0.1268
  698TIP3    H223730   1.501   3.247   0.836  0.2926 -0.0154  0.0407
  699TIP3   OH223731   6.471   1.001   2.190 -0.8705 -0.4017  0.6811
  699TIP3    H123732   6.537   1.015   2.258  0.6044 -0.9759 -0.5799
  699TIP3    H223733   6.412   0.936   2.227 -0.9508  0.3491  1.9563
  700TIP3   OH223734   5.790   6.036   2.182 -0.4850  0.4883  0.2241
  700TIP3    H123735   5.780   6.070   2.093 -0.1068  0.1231  0.0349
  700TIP3    H223736   5.838   5.953   2.170  2.8294  2.1199  0.9876
  701TIP3   OH223737   0.311   2.431   2.156 -0.0283 -0.2301  0.1019
  701TIP3    H123738   0.252   2.480   2.213 -0.6568  1.2097 -1.6906
  701TIP3    H223739   0.395   2.431   2.201 -0.3817  1.2517  0.8038
  702TIP3   OH223740   1.690   0.693   2.440 -0.5795 -0.5246  0.5542
  702TIP3    H123741   1.760   0.707   2.376 -0.3433 -0.4250  0.8348
  702TIP3    H223742   1.704   0.604   2.472  0.4893  0.0927  1.9020
  703TIP3   OH223743   6.505   4.051   2.588  0.5382 -0.1629 -0.2592
  703TIP3    H123744   6.427   4.005   2.558 -0.2767  1.5442 -0.8912
  703TIP3    H223745   6.576   3.986   2.582 -0.4539 -1.1609 -1.5880
  704TIP3   OH223746   6.683   6.975   7.903  0.2844 -0.6664 -0.5131
  704TIP3    H123747   6.743   6.959   7.830  0.7137 -0.9709 -0.1025
  704TIP3    H223748   6.596   6.959   7.867  0.5568 -1.8852 -0.6874
  705TIP3   OH223749   4.405   6.654   7.736 -0.4924  0.7578 -0.1310
  705TIP3    H123750   4.327   6.641   7.682  0.3733  2.6460 -1.9657
  705TIP3    H223751   4.478   6.631   7.679  0.3848  0.5351  1.0438
  706TIP3   OH223752   6.739   4.983   1.129 -0.1170 -0.5193 -0.0326
  706TIP3    H123753   6.700   5.040   1.195 -1.2573 -0.6736 -0.5648
  706TIP3    H223754   6.724   4.895   1.163  0.0024 -0.5738 -0.1209
  707TIP3   OH223755   2.640   6.473   7.442  0.4643  0.6946  0.3364
  707TIP3    H123756   2.733   6.491   7.423  0.9461 -1.4673  0.3827
  707TIP3    H223757   2.637   6.463   7.537 -0.3193  3.0799  0.6189
  708TIP3   OH223758   3.971   4.150   2.120 -0.3474  0.2431 -0.2088
  708TIP3    H123759   4.023   4.230   2.123  0.0470 -0.0195 -0.0356
  708TIP3    H223760   3.976   4.114   2.209 -1.1705  0.4354 -0.0721
  709TIP3   OH223761   1.075   5.923   2.467 -0.8283  0.0873  0.2416
  709TIP3    H123762   1.040   5.839   2.497  0.0887 -0.5228 -0.3621
  709TIP3    H223763   1.079   5.915   2.372 -1.0028  0.9311  0.1557
  710TIP3   OH223764   5.012   5.884   0.419  0.0088 -0.1694  0.2103
  710TIP3    H123765   5.083   5.942   0.448  0.2808  0.3822 -1.4358
  710TIP3    H223766   4.932   5.934   0.435  0.1142 -0.0826  0.4726
  711TIP3   OH223767   4.486   2.563   0.272  0.2175  0.0735 -0.0369
  711TIP3    H123768   4.544   2.639   0.279  3.1037 -2.0012  0.3535
  711TIP3    H223769   4.510   2.522   0.189 -0.1327 -1.2490  0.4939
  712TIP3   OH223770   0.204   1.215   0.508  0.0582 -0.1448 -0.3288
  712TIP3    H123771   0.132   1.240   0.566  0.5295  0.1103  0.1647
  712TIP3    H223772   0.242   1.137   0.549  0.4913  0.1278 -0.1926
  713TIP3   OH223773   5.846   6.940   7.756  0.6838  0.3932 -0.4485
  713TIP3    H123774   5.761   6.949   7.712  0.2131 -0.8039  0.1452
  713TIP3    H223775   5.904   7.000   7.710 -0.6231  1.6784 -0.5129
  714TIP3   OH223776   3.440   1.603   1.799  0.1327  0.2216 -0.3290
  714TIP3    H123777   3.439   1.633   1.708  0.6578  3.4635  0.6012
  714TIP3    H223778   3.353   1.625   1.832  0.4001  0.3566  0.2927
  715TIP3   OH223779   3.019   3.464   1.079  0.6104  0.4246  0.1196
  715TIP3    H123780   3.101   3.420   1.057 -0.4828 -1.4153 -0.4645
  715TIP3    H223781   2.989   3.420   1.159  0.4508  1.4810  0.6666
  716TIP3   OH223782   2.294   0.135   7.500 -0.3715  0.4179 -0.1046
  716TIP3    H123783   2.379   0.172   7.481 -0.7758  1.1154 -0.5937
  716TIP3    H223784   2.249   0.133   7.415 -0.0243 -2.1242 -0.3144
  717TIP3   OH223785   5.697   5.253   8.056 -0.4515 -0.1127 -0.2512
  717TIP3    H123786   5.734   5.311   7.989 -1.3753  1.9850  0.9449
  717TIP3    H223787   5.770   5.235   8.115 -0.5422  1.3689  0.3489
  718TIP3   OH223788   3.405   2.087   7.402  0.2881 -0.8986 -0.2781
  718TIP3    H123789   3.468   2.104   7.332 -1.6816 -0.8380 -2.1384
  718TIP3    H223790   3.322   2.071   7.356 -1.2964  0.0533  2.0719
  719TIP3   OH223791   3.910   5.437   2.872 -0.0702  0.1231 -0.3037
  719TIP3    H123792   3.953   5.421   2.956  0.6540  1.3612 -0.4060
  719TIP3    H223793   3.880   5.351   2.843 -0.7152 -0.2776  1.4167
  720TIP3   OH223794   3.998   0.508   0.702  0.4045  1.0313 -0.0896
  720TIP3    H123795   3.968   0.475   0.786 -0.4362 -0.7324 -1.0268
  720TIP3    H223796   4.026   0.430   0.654 -0.4406  1.7893 -1.9322
  721TIP3   OH223797   3.046   4.118   2.359 -0.3215 -0.4562  0.1230
  721TIP3    H123798   2.982   4.173   2.314 -0.2498 -0.6559 -0.2191
  721TIP3    H223799   3.004   4.032   2.365 -0.6505 -0.2379  1.1226
  722TIP3   OH223800   5.339   4.729   0.265 -0.9243  0.3386  0.8010
  722TIP3    H123801   5.327   4.637   0.242  0.4115 -0.2835  2.4321
  722TIP3    H223802   5.278   4.744   0.337 -0.1263  0.3196  1.4870
  723TIP3   OH223803   2.210   3.700   7.081 -0.8768  0.4408 -0.0971
  723TIP3    H123804   2.270   3.755   7.031 -0.1944 -0.4955 -0.3319
  723TIP3    H223805   2.168   3.644   7.015 -0.1875 -0.5996  0.3258
  724TIP3   OH223806   6.268   5.669   7.116  0.3397 -0.3184 -0.4606
  724TIP3    H123807   6.315   5.717   7.048 -0.4710  1.2471  0.0505
  724TIP3    H223808   6.177   5.699   7.108  0.0649 -0.7978  0.7235
  725TIP3   OH223809   1.820   1.799   0.688  0.1715 -0.5951  0.7314
  725TIP3    H123810   1.761   1.728   0.713 -0.6772  0.6052  2.3475
  725TIP3    H223811   1.793   1.822   0.599 -2.6755  0.6451  1.7730
  726TIP3   OH223812   0.028   3.262   7.886  0.4073 -0.2323 -0.0953
  726TIP3    H123813  -0.020   3.285   7.806 -0.0351 -1.5470 -0.2275
  726TIP3    H223814  -0.032   3.287   7.957 -0.2807 -1.3811 -0.2489
  727TIP3   OH223815   4.623   5.848   7.689  0.4340  0.0281  0.5239
  727TIP3    H123816   4.590   5.887   7.608  0.7054  0.1061  0.4516
  727TIP3    H223817   4.629   5.755   7.670  1.2765  0.1462  0.1863
  728TIP3   OH223818   6.003   0.417   0.775 -0.2361  0.1442 -0.5551
  728TIP3    H123819   5.999   0.511   0.757  0.1131  0.3189  0.2294
  728TIP3    H223820   5.914   0.386   0.759 -0.6929  0.8611  0.4745
  729TIP3   OH223821   3.131   2.278   3.305 -0.2570 -0.5164 -0.2352
  729TIP3    H123822   3.211   2.320   3.272 -0.1006  0.1490  0.9239
  729TIP3    H223823   3.154   2.185   3.310 -0.0699 -0.5422 -1.3252
  730TIP3   OH223824   0.358   2.458   7.702  0.5133 -0.0368  0.0605
  730TIP3    H123825   0.290   2.484   7.640 -0.5274  0.7006  1.4526
  730TIP3    H223826   0.409   2.392   7.655 -0.5581  0.1006 -1.3759
  731TIP3   OH223827   3.848   0.763   1.420 -0.4468  0.1826  0.3733
  731TIP3    H123828   3.857   0.815   1.500  1.2556 -0.8068  0.8812
  731TIP3    H223829   3.754   0.754   1.407 -0.7594  0.6831  2.0480
  732TIP3   OH223830   2.361   6.507   1.727 -0.1067  0.7116 -0.4922
  732TIP3    H123831   2.329   6.417   1.738 -1.7512  1.2734 -0.4836
  732TIP3    H223832   2.407   6.505   1.642  2.2771 -0.7475  0.7131
  733TIP3   OH223833   5.852   5.724   8.275 -0.6447  0.1789  0.3935
  733TIP3    H123834   5.889   5.704   8.189  2.2648 -1.9047  1.9551
  733TIP3    H223835   5.869   5.817   8.288 -0.9559  0.4815 -1.1650
  734TIP3   OH223836   4.797   2.317   0.303  0.1895  0.1410 -0.6363
  734TIP3    H123837   4.833   2.350   0.221  1.4005 -0.4369 -0.3690
  734TIP3    H223838   4.861   2.251   0.332 -1.3405 -1.3046 -0.3744
  735TIP3   OH223839   1.378   4.014   0.544  0.5053  0.0745  0.0189
  735TIP3    H123840   1.423   3.974   0.470  0.6158 -0.3254  0.2977
  735TIP3    H223841   1.449   4.045   0.601  0.4701 -1.5055  0.9766
  736TIP3   OH223842   4.620   5.981   8.080  0.7450 -0.0830 -0.1266
  736TIP3    H123843   4.654   5.913   8.137 -0.1321  0.6322  1.2860
  736TIP3    H223844   4.525   5.974   8.086  0.6353  0.4722 -0.9443
  737TIP3   OH223845   6.544   3.929   7.455  0.0345  0.1409  0.4572
  737TIP3    H123846   6.582   3.993   7.515  0.6424  1.2023 -1.0001
  737TIP3    H223847   6.459   3.908   7.493  0.9107 -0.2001  2.3464
  738TIP3   OH223848   1.556   3.032   1.749 -0.2339 -0.3028  0.0749
  738TIP3    H123849   1.492   3.059   1.815  0.6653  1.7503  0.1643
  738TIP3    H223850   1.573   3.111   1.698 -0.1987 -1.6135 -2.0580
  739TIP3   OH223851   6.409   2.246   2.780  0.0703  0.3274 -0.4062
  739TIP3    H123852   6.474   2.300   2.825  0.6297  0.9366 -1.8612
  739TIP3    H223853   6.428   2.156   2.808  0.6618  0.6410  0.2326
  740TIP3   OH223854   1.885   5.455   0.784 -0.1801 -0.1575  0.2114
  740TIP3    H123855   1.812   5.400   0.813 -0.7302  0.8468  0.7684
  740TIP3    H223856   1.961   5.397   0.788 -0.9449 -1.2556 -0.4932
  741TIP3   OH223857   1.845   6.415   0.688  0.6960 -0.5218 -0.0152
  741TIP3    H123858   1.836   6.329   0.729  2.0386  0.3943  2.4229
  741TIP3    H223859   1.870   6.395   0.598 -0.7422 -2.6636 -0.0249
  742TIP3   OH223860   4.715   0.907   6.855 -0.0084 -0.4429  0.6779
  742TIP3    H123861   4.775   0.970   6.814  0.4794 -1.0506  0.4378
  742TIP3    H223862   4.661   0.875   6.782 -0.4699 -0.0717  0.8532
  743TIP3   OH223863   0.596   1.269   0.532  0.0079  0.4582  0.2539
  743TIP3    H123864   0.598   1.179   0.499  0.5732  1.5219 -3.0392
  743TIP3    H223865   0.588   1.260   0.627  0.8983 -3.0508  0.1364
  744TIP3   OH223866   4.417   1.654   7.565  0.4076  0.2938  0.1810
  744TIP3    H123867   4.398   1.738   7.607 -2.2764 -0.6008  0.9252
  744TIP3    H223868   4.411   1.672   7.472 -1.2322  0.7529  0.3433
  745TIP3   OH223869   6.624   5.131   1.314  0.4199  0.0048  0.5187
  745TIP3    H123870   6.597   5.222   1.323  0.9551  0.4405 -1.7102
  745TIP3    H223871   6.634   5.100   1.404  1.2780  2.4447  1.3459
  746TIP3   OH223872   6.564   1.670   0.840 -0.3572  0.0846  0.3295
  746TIP3    H123873   6.509   1.709   0.771  0.1021  0.7214  0.3154
  746TIP3    H223874   6.627   1.738   0.861 -0.0765 -0.3539  0.9187
  747TIP3   OH223875   0.964   3.001   8.190  0.6008 -0.1878  0.2913
  747TIP3    H123876   0.986   3.078   8.243 -2.3684  0.1660  1.2402
  747TIP3    H223877   0.910   3.037   8.119 -1.3173 -1.3862  1.0722
  748TIP3   OH223878   0.362   0.534   2.610 -0.1841  0.0566  0.0801
  748TIP3    H123879   0.379   0.464   2.673  1.4429 -0.8012 -1.2338
  748TIP3    H223880   0.323   0.489   2.535 -0.7312  0.8397 -0.1165
  749TIP3   OH223881   3.737   3.804   7.434 -0.6747  0.3978 -0.1288
  749TIP3    H123882   3.774   3.890   7.411 -0.2022 -0.0167 -1.0107
  749TIP3    H223883   3.800   3.767   7.495 -0.6048  0.4691 -0.1571
  750TIP3   OH223884   4.863   6.482   8.005 -0.2556  0.3397  0.2143
  750TIP3    H123885   4.785   6.511   7.957 -1.9617  0.2415  2.7291
  750TIP3    H223886   4.884   6.554   8.064  0.2376 -0.4610  1.0520
  751TIP3   OH223887   5.780   6.593   2.194  0.0636  0.1150  0.4702
  751TIP3    H123888   5.819   6.508   2.175 -0.8167  0.0532 -1.2687
  751TIP3    H223889   5.852   6.644   2.232  0.8629 -1.0868  0.6445
  752TIP3   OH223890   0.914   4.776   2.125  0.0338  0.0913 -0.1798
  752TIP3    H123891   0.879   4.861   2.099  1.3210  0.5309 -0.5219
  752TIP3    H223892   0.865   4.753   2.204 -1.8708  0.1053 -1.3006
  753TIP3   OH223893   3.529   3.004   3.030  0.1523  0.0380  0.6183
  753TIP3    H123894   3.519   2.953   2.950 -0.9844  0.0359  0.7459
  753TIP3    H223895   3.593   2.956   3.081  1.8538  0.7007 -0.7962
  754TIP3   OH223896   3.748   2.551   7.093 -0.3381 -0.0627 -0.2899
  754TIP3    H123897   3.838   2.579   7.110 -0.6103  0.7771 -0.1673
  754TIP3    H223898   3.700   2.577   7.172 -0.7482 -0.2252 -0.4867
  755TIP3   OH223899   1.481   3.075   1.160 -0.0350  0.1544 -0.0217
  755TIP3    H123900   1.457   3.000   1.106  1.0240 -1.1139  1.2072
  755TIP3    H223901   1.474   3.150   1.101  1.8873 -1.2545 -2.1928
  756TIP3   OH223902   4.787   2.141   3.280 -0.5585  0.0915  0.1616
  756TIP3    H123903   4.816   2.123   3.191  2.0705  1.1355  0.7301
  756TIP3    H223904   4.798   2.058   3.326 -0.1309  0.0431 -0.0282
  757TIP3   OH223905   4.868   5.263   7.815  0.1194 -0.2484  0.1177
  757TIP3    H123906   4.779   5.293   7.836  0.1922 -0.7255  1.1765
  757TIP3    H223907   4.923   5.300   7.883  0.7306 -0.0456 -0.4727
  758TIP3   OH223908   4.134   1.684   2.745 -0.1394 -0.7317  0.0356
  758TIP3    H123909   4.109   1.688   2.838 -1.6396 -1.1191 -0.3202
  758TIP3    H223910   4.208   1.744   2.738 -0.7842  0.2679  1.2549
  759TIP3   OH223911   3.757   5.746   1.882 -0.1350 -0.8290 -0.4415
  759TIP3    H123912   3.695   5.783   1.819  0.4037  1.1186  0.0752
  759TIP3    H223913   3.833   5.804   1.877  0.6908 -1.7747  0.6016
  760TIP3   OH223914   6.922   2.611   8.054  0.2728 -0.3011  0.0764
  760TIP3    H123915   6.827   2.609   8.038  0.3475 -0.6914 -0.3586
  760TIP3    H223916   6.957   2.667   7.985  0.3588 -0.1293  0.2569
  761TIP3   OH223917   5.232   0.559   7.375  0.4910  0.0188  0.1266
  761TIP3    H123918   5.271   0.486   7.424  1.0611 -0.7828 -1.4483
  761TIP3    H223919   5.243   0.535   7.284 -0.9837  1.2473 -0.4109
  762TIP3   OH223920   0.098   2.128   0.522  0.5539 -0.0527 -0.2400
  762TIP3    H123921   0.137   2.139   0.609  2.0961  1.4498 -1.0495
  762TIP3    H223922   0.141   2.051   0.486 -0.3862 -0.9203  0.4590
  763TIP3   OH223923   1.651   3.802   7.352 -0.5380  0.3466  0.3367
  763TIP3    H123924   1.606   3.732   7.400  0.1437 -1.6978 -1.8076
  763TIP3    H223925   1.587   3.831   7.287 -0.2814  0.5950  0.1947
  764TIP3   OH223926   1.808   6.454   6.755 -0.3310  0.5661  0.3224
  764TIP3    H123927   1.839   6.522   6.694 -0.6732  1.3269  0.9830
  764TIP3    H223928   1.878   6.388   6.754 -0.7104  0.1527 -1.5199
  765TIP3   OH223929   0.666   1.325   3.376  0.0754  0.1095 -0.7598
  765TIP3    H123930   0.608   1.270   3.323 -1.7542  0.0556  1.1451
  765TIP3    H223931   0.738   1.266   3.400 -0.1590 -0.4757 -1.4459
  766TIP3   OH223932   2.529   5.882   7.661  0.1289 -0.1285  1.1945
  766TIP3    H123933   2.435   5.890   7.676  0.1278 -0.8674  1.6339
  766TIP3    H223934   2.541   5.792   7.632  0.3273  0.7816 -1.9076
  767TIP3   OH223935   2.543   0.804   1.005 -0.2523 -0.5410 -0.1663
  767TIP3    H123936   2.582   0.891   1.002  0.4123 -0.8012  0.5573
  767TIP3    H223937   2.482   0.807   1.078  1.3390 -1.2790  1.2722
  768TIP3   OH223938   2.725   6.717   8.284 -0.6472 -0.2541  0.1670
  768TIP3    H123939   2.672   6.754   8.214  1.6885 -0.1970 -1.7206
  768TIP3    H223940   2.693   6.759   8.364 -1.5639  1.8572 -1.2335
  769TIP3   OH223941   6.005   6.760   7.609  0.3397 -0.3711  0.0823
  769TIP3    H123942   6.086   6.812   7.605 -0.3681  0.6798 -2.7025
  769TIP3    H223943   5.954   6.803   7.678  0.9938  0.7832 -0.1158
  770TIP3   OH223944   1.850   5.871   1.673  0.0839 -0.7923  0.1340
  770TIP3    H123945   1.867   5.911   1.758 -1.0276  0.5466 -0.2266
  770TIP3    H223946   1.932   5.827   1.649  1.0501  0.4902  0.9919
  771TIP3   OH223947   0.907   5.111   1.057  0.0524 -0.6385 -0.1146
  771TIP3    H123948   0.994   5.085   1.088 -1.0078 -2.2339  1.7100
  771TIP3    H223949   0.888   5.192   1.104  1.2393  0.7655 -1.9143
  772TIP3   OH223950   1.690   6.884   3.214  0.3022  0.1831  0.0455
  772TIP3    H123951   1.598   6.858   3.214  0.4966 -0.6150  1.4650
  772TIP3    H223952   1.726   6.847   3.134 -0.7243  0.9949 -0.8201
  773TIP3   OH223953   0.862   2.504   1.296  0.3800 -0.0842  0.2518
  773TIP3    H123954   0.942   2.454   1.280  1.1894  1.4884 -0.9724
  773TIP3    H223955   0.845   2.549   1.213 -2.2581 -0.9640  0.2165
  774TIP3   OH223956   1.606   1.197   7.530  0.5396 -0.0430 -0.0602
  774TIP3    H123957   1.692   1.171   7.496  1.0280 -0.4560  1.4379
  774TIP3    H223958   1.553   1.117   7.525  0.6236 -0.1142  0.1859
  775TIP3   OH223959   2.602   4.145   8.424  0.5247  0.0377 -0.4580
  775TIP3    H123960   2.542   4.187   8.486  1.2522  0.3455  0.0526
  775TIP3    H223961   2.668   4.211   8.406  1.2667 -0.6286 -0.2314
  776TIP3   OH223962   4.664   1.685   7.706 -0.0470  0.1210 -0.3753
  776TIP3    H123963   4.596   1.699   7.639 -0.7433 -0.7588  0.1306
  776TIP3    H223964   4.661   1.592   7.724  0.9333  0.1671  0.0710
  777TIP3   OH223965   2.521   3.160   1.770 -0.0303  0.0267  0.0186
  777TIP3    H123966   2.591   3.184   1.830 -0.3703  1.3219 -0.0760
  777TIP3    H223967   2.557   3.086   1.719  1.5070  1.0512 -0.4601
  778TIP3   OH223968   0.104   6.647   7.032 -0.3925  0.1206 -0.1407
  778TIP3    H123969   0.136   6.634   7.121  0.7104 -0.2926 -0.5719
  778TIP3    H223970   0.161   6.591   6.978 -0.5028  0.9897 -1.1967
  779TIP3   OH223971   1.151   3.023   0.280 -0.0789 -0.5189  0.0857
  779TIP3    H123972   1.087   3.092   0.265 -0.3009  0.1077  3.2471
  779TIP3    H223973   1.229   3.051   0.232 -0.6943  1.0480 -0.0503
  780TIP3   OH223974   1.484   5.630   8.041 -0.1497  0.4242 -0.9007
  780TIP3    H123975   1.573   5.662   8.025  0.1682 -1.0050 -2.2642
  780TIP3    H223976   1.439   5.643   7.957 -0.0783 -2.3259 -1.4462
  781TIP3   OH223977   2.766   1.051   0.680 -0.6980 -1.2583 -0.0589
  781TIP3    H123978   2.699   1.095   0.733  1.3466 -0.0665  1.7411
  781TIP3    H223979   2.738   0.960   0.676 -1.8544 -1.0169  1.5914
  782TIP3   OH223980   3.575   4.861   2.139 -0.1990 -0.1622 -0.2100
  782TIP3    H123981   3.536   4.847   2.225 -1.8485 -1.8164 -1.1352
  782TIP3    H223982   3.664   4.826   2.147 -0.6383 -1.1606  0.5909
  783TIP3   OH223983   5.731   2.833   7.012  0.2890 -0.5248 -0.8569
  783TIP3    H123984   5.657   2.825   6.951  0.3200 -1.1135 -0.8240
  783TIP3    H223985   5.759   2.924   7.004 -0.0592 -0.4550 -1.3157
  784TIP3   OH223986   4.243   5.959   1.912 -0.2760 -0.3914  0.1354
  784TIP3    H123987   4.288   5.884   1.873  1.3523 -0.1211  1.3884
  784TIP3    H223988   4.206   5.926   1.993 -0.1116 -0.0083  0.3703
  785TIP3   OH223989   3.234   6.299   8.141  0.2628 -0.1510  0.3309
  785TIP3    H123990   3.211   6.268   8.228  0.4361  1.4776  0.9836
  785TIP3    H223991   3.217   6.224   8.083  1.8234 -1.8662  1.9712
  786TIP3   OH223992   2.343   2.260   2.749  0.1832 -0.3395 -0.8326
  786TIP3    H123993   2.347   2.348   2.711  1.0874 -0.5127 -1.1637
  786TIP3    H223994   2.258   2.257   2.792  0.6440  1.1350  0.2717
  787TIP3   OH223995   0.295   3.317   1.279 -0.3277 -0.3947 -0.1846
  787TIP3    H123996   0.254   3.372   1.345 -0.8224  1.0868 -1.6626
  787TIP3    H223997   0.388   3.314   1.304 -0.3593  0.8347  0.1286
  788TIP3   OH223998   2.419   3.841   7.800  0.1148 -0.2958 -0.1818
  788TIP3    H123999   2.411   3.779   7.728 -0.9594 -1.0283  0.5316
  788TIP3    H224000   2.361   3.913   7.776  1.4893  0.5594 -1.0890
  789TIP3   OH224001   3.137   2.170   8.369  0.1512 -0.3222 -0.3649
  789TIP3    H124002   3.217   2.186   8.419 -0.4422  2.2289 -0.0792
  789TIP3    H224003   3.118   2.077   8.382  1.8166 -0.4602  1.4364
  790TIP3   OH224004   0.474   1.957   1.466 -0.2568  0.3836 -0.8732
  790TIP3    H124005   0.394   1.905   1.456  0.0842 -0.4462  0.4081
  790TIP3    H224006   0.450   2.044   1.434 -1.8605  0.3020 -0.0338
  791TIP3   OH224007   0.526   1.175   7.200  0.3298 -0.1117  0.3540
  791TIP3    H124008   0.618   1.168   7.175 -0.2829 -0.1466 -2.0889
  791TIP3    H224009   0.504   1.089   7.236  0.7369 -0.8239 -1.0313
  792TIP3   OH224010   4.824   2.893   7.771 -0.1224  0.5716 -0.6209
  792TIP3    H124011   4.790   2.805   7.787  0.9299  0.1443 -0.7163
  792TIP3    H224012   4.776   2.923   7.694 -2.6918  1.2870  1.1113
  793TIP3   OH224013   2.486   4.135   7.489  0.4982 -0.1838  0.3444
  793TIP3    H124014   2.424   4.081   7.538  0.6417  0.1882  0.9475
  793TIP3    H224015   2.484   4.100   7.400 -1.2154  0.3446  0.1313
  794TIP3   OH224016   4.107   6.656   0.329  0.2221  0.5508 -0.0316
  794TIP3    H124017   4.104   6.645   0.424  2.3816 -1.1893 -0.0911
  794TIP3    H224018   4.016   6.651   0.301 -0.3257 -0.4995  1.7951
  795TIP3   OH224019   2.765   2.343   7.913 -0.3144  0.6449  0.9293
  795TIP3    H124020   2.812   2.383   7.986  0.0178 -1.1088  1.7089
  795TIP3    H224021   2.675   2.377   7.921 -0.3014  0.4146  2.2098
  796TIP3   OH224022   6.502   5.861   1.673 -0.4397  0.4887 -0.1297
  796TIP3    H124023   6.513   5.812   1.591  0.6954  0.9773 -0.2880
  796TIP3    H224024   6.577   5.835   1.727 -1.4611 -0.2481  1.0026
  797TIP3   OH224025   1.565   1.218   8.121 -0.0140 -0.4814  0.3738
  797TIP3    H124026   1.656   1.239   8.142  0.2383  0.5433 -1.5777
  797TIP3    H224027   1.514   1.284   8.168  0.5558  1.9365 -2.1232
  798TIP3   OH224028   1.615   2.697   0.898  0.1486  0.5747  0.7310
  798TIP3    H124029   1.701   2.708   0.858  0.8227 -1.7610  1.3219
  798TIP3    H224030   1.559   2.663   0.828  0.4763 -0.4984  0.9696
  799TIP3   OH224031   1.580   4.174   1.498  0.0246  0.4798 -0.3472
  799TIP3    H124032   1.555   4.237   1.566  0.7991  0.7773 -0.3242
  799TIP3    H224033   1.499   4.157   1.451 -0.6179 -0.0284  0.8796
  800TIP3   OH224034   2.823   3.045   0.263  0.8074  0.3360 -0.2932
  800TIP3    H124035   2.768   3.071   0.337 -1.7563 -0.8435 -1.6485
  800TIP3    H224036   2.796   2.955   0.244  3.1350 -0.2363 -1.2004
  801TIP3   OH224037   6.085   1.505   7.187 -0.0894  0.0833  0.3847
  801TIP3    H124038   6.137   1.584   7.173  1.1323 -1.2400 -4.4399
  801TIP3    H224039   6.018   1.508   7.118 -0.9771 -2.3395  1.0470
  802TIP3   OH224040   1.803   4.398   1.995 -0.3041  0.3238 -0.1159
  802TIP3    H124041   1.892   4.375   2.022 -0.7369  0.4209  1.5015
  802TIP3    H224042   1.814   4.442   1.910  1.1563  0.1749 -0.0305
  803TIP3   OH224043   5.046   2.638   2.080 -0.1902 -0.1291  0.1706
  803TIP3    H124044   5.086   2.652   2.166 -0.3153  3.0655 -0.1668
  803TIP3    H224045   5.088   2.558   2.047  1.7536 -0.0187  2.1221
  804TIP3   OH224046   4.692   6.286   0.038 -0.6059 -0.4547 -0.1895
  804TIP3    H124047   4.757   6.347   0.074 -0.4512 -1.6017  1.5825
  804TIP3    H224048   4.744   6.224  -0.012 -0.7279  0.5924 -1.6845
  805TIP3   OH224049   5.319   5.442   1.147  0.4485  0.1865  0.1025
  805TIP3    H124050   5.402   5.468   1.107  0.7532  1.3977  1.4676
  805TIP3    H224051   5.343   5.375   1.211  0.6785  1.8286  1.8173
  806TIP3   OH224052   5.260   0.353   7.785 -0.4389  0.2686  0.3470
  806TIP3    H124053   5.353   0.373   7.777 -0.5216  0.8739  0.8276
  806TIP3    H224054   5.254   0.303   7.867 -0.6928  1.2734  0.9501
  807TIP3   OH224055   2.611   2.996   6.977  0.0418  0.7886  0.9585
  807TIP3    H124056   2.529   2.960   7.011  0.5278  0.1024  1.4354
  807TIP3    H224057   2.662   2.919   6.952  0.5903  1.2024  0.7939
  808TIP3   OH224058   5.509   0.590   0.613 -0.5138 -0.3351  0.5951
  808TIP3    H124059   5.480   0.681   0.617 -1.0797 -0.4808  0.0174
  808TIP3    H224060   5.466   0.555   0.535  0.1883 -0.9275  0.4699
  809TIP3   OH224061   6.981   4.416   0.491  0.1156 -0.4501 -0.3675
  809TIP3    H124062   6.903   4.468   0.471 -0.9595 -1.0288  1.9313
  809TIP3    H224063   7.053   4.479   0.490 -0.8943  0.7599  0.6194
  810TIP3   OH224064   0.472   0.878   6.736  0.0060 -0.0320  0.0613
  810TIP3    H124065   0.487   0.792   6.696  0.6055 -0.8156  1.8819
  810TIP3    H224066   0.543   0.932   6.703 -0.6204 -0.0713 -1.4438
  811TIP3   OH224067   6.833   0.706   1.389 -0.0808  0.2795  0.2704
  811TIP3    H124068   6.912   0.670   1.349  1.0792  1.6026  1.2910
  811TIP3    H224069   6.765   0.693   1.322  1.2407  0.1728 -1.1034
  812TIP3   OH224070   4.759   5.549   7.652  0.2583  0.0941 -0.1395
  812TIP3    H124071   4.802   5.478   7.604  0.5154  0.3224 -0.2485
  812TIP3    H224072   4.671   5.516   7.669 -0.1505  0.3647 -1.5851
  813TIP3   OH224073   6.135   2.629   0.283 -0.1742  0.7433  0.4466
  813TIP3    H124074   6.135   2.722   0.264 -0.3936  1.0388  1.7487
  813TIP3    H224075   6.227   2.602   0.276 -0.1083  1.0701  0.0992
  814TIP3   OH224076   3.657   4.853   0.616 -0.1166 -0.6967 -0.2607
  814TIP3    H124077   3.623   4.766   0.597 -1.7284 -0.0486 -0.4422
  814TIP3    H224078   3.604   4.912   0.563  1.1622  0.3838 -0.3832
  815TIP3   OH224079   1.173   2.664   2.654 -0.4218 -0.4172  0.4616
  815TIP3    H124080   1.212   2.670   2.741 -0.5841 -0.7491  0.5616
  815TIP3    H224081   1.215   2.733   2.603  1.6078 -1.8588  0.0581
  816TIP3   OH224082   6.710   3.130   1.914 -0.1155 -0.9048 -0.0727
  816TIP3    H124083   6.663   3.047   1.912 -0.0875 -0.9364  0.5443
  816TIP3    H224084   6.758   3.133   1.831  1.7632 -2.5894  0.8678
  817TIP3   OH224085   6.368   2.033   2.289 -0.2523 -0.0023  0.4013
  817TIP3    H124086   6.275   2.019   2.273  0.3783 -1.5316 -2.4250
  817TIP3    H224087   6.395   1.961   2.346 -0.2872 -1.1063 -0.9568
  818TIP3   OH224088   5.497   1.644   7.801  0.3823  0.2783 -0.3782
  818TIP3    H124089   5.511   1.596   7.719 -1.3220 -0.4274 -0.2979
  818TIP3    H224090   5.412   1.685   7.790  0.6362  1.1066  0.6214
  819TIP3   OH224091   3.793   2.759   1.421 -0.5755 -0.1051 -0.1524
  819TIP3    H124092   3.880   2.721   1.424 -0.7822 -0.5721 -0.0443
  819TIP3    H224093   3.807   2.852   1.439 -0.0218 -0.0410 -0.8821
  820TIP3   OH224094   2.324   0.439   2.301 -0.1972  0.1977  0.1644
  820TIP3    H124095   2.404   0.418   2.349  0.4228  0.6363 -0.6465
  820TIP3    H224096   2.330   0.390   2.220 -0.2583  1.0125 -0.3479
  821TIP3   OH224097   4.015   5.472   0.228 -0.4659 -0.2730 -0.1209
  821TIP3    H124098   4.052   5.527   0.298  2.6169 -0.7939 -1.2064
  821TIP3    H224099   4.008   5.385   0.267 -0.7577 -0.1429  0.1305
  822TIP3   OH224100   5.134   3.348   1.964 -0.4223  0.0845  0.1465
  822TIP3    H124101   5.164   3.363   1.875  0.1580  1.2832  0.5264
  822TIP3    H224102   5.211   3.365   2.019  0.2516 -3.8699  0.7242
  823TIP3   OH224103   4.467   3.938   1.845 -0.0301 -0.1706 -0.0358
  823TIP3    H124104   4.474   3.926   1.750  0.2814 -0.5141  0.0299
  823TIP3    H224105   4.552   3.908   1.879 -0.2604 -0.3505  0.3798
  824TIP3   OH224106   2.532   1.792   1.274 -0.1505 -0.0964 -0.4413
  824TIP3    H124107   2.541   1.750   1.359  1.4280  0.5413 -0.2710
  824TIP3    H224108   2.502   1.722   1.216 -0.4220 -0.7384  0.4529
  825TIP3   OH224109   6.618   1.873   3.056  0.4004  0.2688 -0.4216
  825TIP3    H124110   6.636   1.964   3.079  0.3112 -0.2771  2.0861
  825TIP3    H224111   6.705   1.833   3.048  0.4896 -0.0585  1.5572
  826TIP3   OH224112   3.141   3.830   2.195 -0.1062  0.5322 -0.0425
  826TIP3    H124113   3.082   3.851   2.268 -0.0611 -0.6238  0.3488
  826TIP3    H224114   3.094   3.859   2.117 -0.0797  1.9485  0.4469
  827TIP3   OH224115   0.188   4.836   8.209  0.5079  0.6291 -0.0312
  827TIP3    H124116   0.243   4.833   8.131  1.6737  0.0322  0.7875
  827TIP3    H224117   0.146   4.922   8.206  0.5918  0.6372 -1.2662
  828TIP3   OH224118   0.827   5.383   1.379  0.1550 -0.0532  0.3949
  828TIP3    H124119   0.782   5.462   1.408  0.0772  0.5908 -1.3267
  828TIP3    H224120   0.803   5.375   1.286  1.8639 -0.9098 -0.0147
  829TIP3   OH224121   1.468   2.113   1.344  0.3399  0.1181  0.1520
  829TIP3    H124122   1.526   2.178   1.384 -0.4710  0.3930  0.9023
  829TIP3    H224123   1.395   2.163   1.308  0.4616 -0.2447 -0.6163
  830TIP3   OH224124   3.062   4.550   2.474  0.0125 -0.0584  0.2017
  830TIP3    H124125   3.007   4.618   2.514 -0.8236  0.7098 -2.0845
  830TIP3    H224126   3.024   4.468   2.503 -2.4981  0.4469 -1.3761
  831TIP3   OH224127   2.894   5.536   6.807  0.3940 -0.1413  0.2586
  831TIP3    H124128   2.808   5.526   6.766 -0.0334  0.6759  0.9344
  831TIP3    H224129   2.879   5.522   6.900  0.2345  3.5290  0.9531
  832TIP3   OH224130   6.271   4.233   2.592 -0.1134 -0.2828 -0.6358
  832TIP3    H124131   6.287   4.211   2.683 -0.2683  0.3018 -0.4625
  832TIP3    H224132   6.251   4.149   2.550  2.1501 -0.8884 -0.6282
  833TIP3   OH224133   3.400   2.614   0.245  0.5105 -0.1281 -0.1357
  833TIP3    H124134   3.385   2.704   0.216  3.2771  0.0034 -1.4730
  833TIP3    H224135   3.465   2.622   0.315  1.1543 -1.0997 -0.6060
  834TIP3   OH224136   2.023   3.700   1.276  0.0057 -0.0181  0.3869
  834TIP3    H124137   2.043   3.782   1.231 -1.9840 -0.5181 -1.6105
  834TIP3    H224138   1.932   3.709   1.302  0.3604 -0.8209  1.9892
  835TIP3   OH224139   5.647   6.511   7.753  0.5221  0.2826 -0.2634
  835TIP3    H124140   5.646   6.607   7.746  0.1840  0.4093  1.1352
  835TIP3    H224141   5.642   6.480   7.663 -0.3358  1.5869 -0.6928
  836TIP3   OH224142   5.525   2.048   1.990 -0.0000  0.1558 -0.3201
  836TIP3    H124143   5.548   1.980   1.926  1.2838  0.3138 -0.0453
  836TIP3    H224144   5.458   2.007   2.045 -1.3193  0.0911 -1.8671
  837TIP3   OH224145   4.490   3.910   1.589 -0.2963  0.0889 -0.3986
  837TIP3    H124146   4.440   3.975   1.539  0.8327  0.7607 -0.6854
  837TIP3    H224147   4.514   3.844   1.524 -2.0317 -1.0099  0.0265
  838TIP3   OH224148   4.490   3.915   2.467 -0.6810 -0.1126  0.2455
  838TIP3    H124149   4.481   3.964   2.386  2.3314 -1.5914 -1.1553
  838TIP3    H224150   4.428   3.842   2.459 -0.9444  0.1780 -0.3714
  839TIP3   OH224151   1.120   2.258   1.658 -0.1729  0.4820 -0.1283
  839TIP3    H124152   1.115   2.280   1.565 -0.1245  0.8764 -0.0431
  839TIP3    H224153   1.115   2.343   1.702 -0.3624  0.2836  0.2354
  840TIP3   OH224154   3.102   4.018   0.641  0.0724  0.1516  0.4374
  840TIP3    H124155   3.055   4.070   0.706 -1.7154 -0.5049 -0.2655
  840TIP3    H224156   3.178   3.984   0.687 -0.1131  1.2674  1.6258
  841TIP3   OH224157   2.406   4.122   0.293  0.5814  0.0563 -0.2407
  841TIP3    H124158   2.459   4.191   0.253  0.9112 -0.5448 -0.8707
  841TIP3    H224159   2.455   4.096   0.371  0.2769  0.7687  0.2004
  842TIP3   OH224160   5.732   0.035   7.282  0.8099  0.2125  0.2342
  842TIP3    H124161   5.717  -0.038   7.222 -0.2751  0.6654 -0.0827
  842TIP3    H224162   5.743  -0.006   7.368 -1.4216 -0.3033  0.3574
  843TIP3   OH224163   2.093   2.218   2.835  0.2124 -0.1363  0.2744
  843TIP3    H124164   2.087   2.312   2.849  1.0418 -0.2854  1.9012
  843TIP3    H224165   2.046   2.180   2.908  1.1337 -0.9846  0.4527
  844TIP3   OH224166   5.515   4.082   2.267  0.1101 -0.2823 -0.2869
  844TIP3    H124167   5.518   4.150   2.334 -1.5268 -0.0930 -0.3626
  844TIP3    H224168   5.581   4.018   2.295  2.0663  1.5205 -0.4763
  845TIP3   OH224169   1.905   2.009   7.702  0.6928 -0.0667  0.9524
  845TIP3    H124170   1.932   2.100   7.710  0.1328  0.2319 -0.3679
  845TIP3    H224171   1.942   1.979   7.619  1.7681 -1.3919  1.8556
  846TIP3   OH224172   3.693   3.777   1.247 -0.0553  0.4525  0.4516
  846TIP3    H124173   3.744   3.744   1.174  0.6934  2.7463 -0.1593
  846TIP3    H224174   3.604   3.783   1.213 -0.4664 -1.8833  0.9543
  847TIP3   OH224175   4.278   2.578   0.501  0.6881 -0.4027  0.5229
  847TIP3    H124176   4.300   2.559   0.410 -1.3685  0.1073 -0.1578
  847TIP3    H224177   4.328   2.657   0.522  0.7671 -0.2047 -0.3747
  848TIP3   OH224178   6.206   1.639   0.799 -0.4482 -0.1516 -0.3719
  848TIP3    H124179   6.262   1.675   0.731 -1.4713  0.7287 -0.7869
  848TIP3    H224180   6.118   1.670   0.777 -0.9862 -0.8505  0.6771
  849TIP3   OH224181   5.684   0.689   7.677 -0.1417 -0.0491  1.0616
  849TIP3    H124182   5.698   0.734   7.594  0.4589 -0.1612  1.0991
  849TIP3    H224183   5.652   0.757   7.736 -1.9614 -0.2458  0.3703
  850TIP3   OH224184   2.664   3.717   7.827 -0.0456 -0.1364  0.1183
  850TIP3    H124185   2.744   3.759   7.795 -0.4956  1.3622  0.8426
  850TIP3    H224186   2.596   3.784   7.816 -1.4732 -1.7553 -1.5511
  851TIP3   OH224187   3.292   0.087   8.448  0.5418  0.5058 -0.2350
  851TIP3    H124188   3.350   0.156   8.416  1.5832  0.1542  0.8013
  851TIP3    H224189   3.349   0.029   8.499 -0.3340 -1.0118 -0.8906
  852TIP3   OH224190   5.965   3.440   0.430 -0.3679 -0.1663  0.3632
  852TIP3    H124191   5.910   3.366   0.407 -2.9166  0.9308  2.4952
  852TIP3    H224192   6.029   3.405   0.492 -0.0176 -1.0022 -0.4424
  853TIP3   OH224193   0.406   0.271   7.305  0.0455  0.2828 -0.0691
  853TIP3    H124194   0.379   0.352   7.261  0.5007  0.7784  0.5452
  853TIP3    H224195   0.465   0.228   7.243  0.7025  0.9853  0.0561
  854TIP3   OH224196   5.968   5.890   1.819  0.0811 -0.0901 -0.8782
  854TIP3    H124197   5.931   5.854   1.900  1.6585  1.2002  0.4971
  854TIP3    H224198   5.990   5.981   1.841  2.1150 -0.1908 -2.2035
  855TIP3   OH224199   6.455   6.862   7.792  0.3357 -0.0275  0.1665
  855TIP3    H124200   6.483   6.789   7.737  0.7620  0.7414 -0.6644
  855TIP3    H224201   6.373   6.892   7.753  0.5948  0.4663 -0.0126
  856TIP3   OH224202   2.427   6.393   2.435 -0.0007  0.2554 -0.6343
  856TIP3    H124203   2.486   6.400   2.510 -0.7464  1.4615 -0.1314
  856TIP3    H224204   2.404   6.300   2.431  1.0636 -0.0368 -0.1724
  857TIP3   OH224205   5.898   4.833   0.039  0.1934  0.4805  0.5595
  857TIP3    H124206   5.957   4.892   0.086  0.0417 -0.4145  1.9170
  857TIP3    H224207   5.810   4.856   0.071  0.3160 -2.0822  3.0283
  858TIP3   OH224208   6.227   5.321   0.539 -0.2940 -0.5215 -0.4529
  858TIP3    H124209   6.171   5.292   0.468 -0.2710  0.3031 -0.8230
  858TIP3    H224210   6.305   5.356   0.495 -0.0670 -0.4521 -0.0034
  859TIP3   OH224211   4.506   4.020   3.245  0.5417  0.0172  0.0208
  859TIP3    H124212   4.507   3.939   3.296 -0.1791 -0.7445 -1.1299
  859TIP3    H224213   4.436   4.072   3.284 -0.0702 -0.5996 -0.2426
  860TIP3   OH224214   1.551   5.049   1.863 -0.4753  0.1806 -0.0687
  860TIP3    H124215   1.579   5.055   1.954  1.2208  1.3582 -0.6079
  860TIP3    H224216   1.545   4.955   1.846  0.3746 -0.0760  0.9362
  861TIP3   OH224217   5.159   4.303   0.759  0.2899 -0.7605  0.6108
  861TIP3    H124218   5.131   4.387   0.795  0.0627  0.0890 -1.3994
  861TIP3    H224219   5.078   4.260   0.732  0.5622 -0.2635 -1.1133
  862TIP3   OH224220   2.867   4.077   0.341  0.0111  0.6383  0.3575
  862TIP3    H124221   2.949   4.031   0.359 -0.5694 -0.1016  1.1854
  862TIP3    H224222   2.802   4.007   0.333 -0.6171  1.2369  0.1131
  863TIP3   OH224223   2.679   1.169   1.172 -0.0424  0.1240 -0.2444
  863TIP3    H124224   2.681   1.254   1.216  1.7662  0.7107 -1.3395
  863TIP3    H224225   2.714   1.107   1.236  0.0714  0.4971  0.0540
  864TIP3   OH224226   5.522   3.105   2.424 -0.0857 -0.2472  0.4912
  864TIP3    H124227   5.537   3.022   2.378  0.7818 -1.7419  3.2483
  864TIP3    H224228   5.438   3.136   2.390 -1.4561 -3.3059  0.7338
  865TIP3   OH224229   4.533   3.357   1.364 -0.4844  0.6413 -0.5205
  865TIP3    H124230   4.575   3.366   1.279  2.0659 -0.5184  0.5066
  865TIP3    H224231   4.453   3.306   1.347 -1.3267  2.4998 -2.4920
  866TIP3   OH224232   0.084   5.876   7.409 -0.8632 -0.1696 -0.2543
  866TIP3    H124233   0.006   5.843   7.453 -1.9664 -0.1093 -2.0850
  866TIP3    H224234   0.100   5.962   7.448 -0.2712 -1.1545  1.7968
  867TIP3   OH224235   3.190   4.145   1.421  0.0938 -0.0527 -0.6671
  867TIP3    H124236   3.168   4.137   1.329 -1.1898 -0.8969 -0.3134
  867TIP3    H224237   3.232   4.062   1.444 -0.7809 -0.3944 -0.2154
  868TIP3   OH224238   4.087   2.719   1.362  0.2906  0.1577 -0.3177
  868TIP3    H124239   4.132   2.730   1.446 -0.4720  0.7700  0.0179
  868TIP3    H224240   4.141   2.767   1.300 -0.8252  2.4855  0.4079
  869TIP3   OH224241   0.525   0.275   6.736  0.0921 -0.0081  0.4036
  869TIP3    H124242   0.460   0.215   6.771  0.2595  0.0866  0.8799
  869TIP3    H224243   0.475   0.354   6.712 -0.3463 -0.7888 -1.4470
  870TIP3   OH224244   6.916   6.652   8.005  0.2511 -0.1683 -0.2565
  870TIP3    H124245   6.905   6.558   8.013  1.3574 -0.1721  2.6076
  870TIP3    H224246   7.003   6.662   7.966 -0.1040 -0.3225 -1.0915
  871TIP3   OH224247   2.377   6.673   7.239 -0.4068 -0.6607  0.1177
  871TIP3    H124248   2.337   6.739   7.182 -1.1401  0.0426  1.3845
  871TIP3    H224249   2.433   6.622   7.181 -1.3947 -0.2169 -1.3006
  872TIP3   OH224250   4.110   1.501   2.523 -0.3725 -0.1952  0.0460
  872TIP3    H124251   4.060   1.466   2.450 -0.4157 -0.0273 -0.0048
  872TIP3    H224252   4.047   1.508   2.595 -1.0129  2.2010 -0.6671
  873TIP3   OH224253   1.196   1.771   2.530  0.2451  0.3952 -1.0376
  873TIP3    H124254   1.217   1.786   2.623  0.2375 -0.3414 -0.9158
  873TIP3    H224255   1.127   1.834   2.511  1.3023  1.6196 -0.9593
  874TIP3   OH224256   0.135   0.841   7.337 -0.0568 -0.3852 -0.6800
  874TIP3    H124257   0.040   0.850   7.343 -0.0945 -0.7413 -0.7123
  874TIP3    H224258   0.149   0.758   7.291  0.2703 -0.6346 -0.1447
  875TIP3   OH224259   6.487   1.943   1.099  0.0019 -0.5245 -0.3232
  875TIP3    H124260   6.525   1.989   1.023 -0.2317  0.6819  0.2650
  875TIP3    H224261   6.558   1.941   1.163 -0.6552  1.1158  0.5174
  876TIP3   OH224262   1.011   6.518   7.692  0.0168  0.5311 -0.0591
  876TIP3    H124263   0.954   6.512   7.616 -0.2258  0.7117  0.1052
  876TIP3    H224264   1.098   6.536   7.656  0.1766 -0.7933 -0.3680
  877TIP3   OH224265   5.376   1.083   8.349  0.0003  0.0459  0.2374
  877TIP3    H124266   5.342   1.040   8.428  0.4175 -2.4852 -0.8702
  877TIP3    H224267   5.304   1.078   8.286  0.0346  1.0911  0.0997
  878TIP3   OH224268   0.025   0.711   0.903  0.6087 -0.0209  0.4592
  878TIP3    H124269   0.071   0.642   0.952  0.3315 -0.5091  0.0466
  878TIP3    H224270   0.052   0.792   0.945  2.9267 -0.1681 -0.5958
  879TIP3   OH224271   1.280   5.166   8.197 -0.1420 -0.0941 -0.1611
  879TIP3    H124272   1.291   5.261   8.187  1.0931 -0.1680  0.4470
  879TIP3    H224273   1.237   5.156   8.282 -1.1204 -0.0532 -0.6283
  880TIP3   OH224274   4.574   3.310   0.682 -0.2374  0.0402 -0.8462
  880TIP3    H124275   4.512   3.383   0.685 -2.0570 -1.4041  2.6514
  880TIP3    H224276   4.660   3.351   0.688 -1.0470  1.9516 -1.6341
  881TIP3   OH224277   0.979   0.439   7.573  0.0075  0.4008  0.0167
  881TIP3    H124278   1.071   0.429   7.596  0.4835  2.5799 -0.6896
  881TIP3    H224279   0.940   0.480   7.651 -0.5191 -0.9942  0.5182
  882TIP3   OH224280   1.847   5.688   0.596 -0.0643 -0.0109 -0.3294
  882TIP3    H124281   1.791   5.704   0.520 -1.0811  3.4225  0.9872
  882TIP3    H224282   1.812   5.607   0.634  0.6770 -2.0165 -3.5552
  883TIP3   OH224283   6.179   1.066   2.226 -0.3793  0.1655  0.0560
  883TIP3    H124284   6.236   1.085   2.152  1.3736  0.4771  1.4289
  883TIP3    H224285   6.133   0.986   2.200  2.1926 -1.3055 -0.3340
  884TIP3   OH224286   0.965   6.937   7.707  0.9276  0.0195 -0.0163
  884TIP3    H124287   0.956   6.978   7.792  1.5609 -0.9902  0.5504
  884TIP3    H224288   0.938   7.005   7.645  2.6219  1.5533  0.8183
  885TIP3   OH224289   2.578   3.079   8.307 -0.0587 -0.3884 -0.2377
  885TIP3    H124290   2.523   3.002   8.321 -0.7988  0.0335 -0.7559
  885TIP3    H224291   2.566   3.100   8.214  0.4839  0.0886 -0.2025
  886TIP3   OH224292   1.201   3.961   7.946 -0.1409 -0.2277 -0.5504
  886TIP3    H124293   1.238   3.952   8.034 -1.5192 -1.8279 -0.0944
  886TIP3    H224294   1.191   3.871   7.915 -0.2139  0.2963 -2.1385
  887TIP3   OH224295   2.848   5.483   0.314 -0.1781  0.3185  0.6982
  887TIP3    H124296   2.916   5.488   0.246 -0.3971  0.1403  0.4643
  887TIP3    H224297   2.875   5.411   0.370  0.5600  1.1217  1.4182
  888TIP3   OH224298   0.376   6.114   7.789  0.2786 -0.2137 -0.4287
  888TIP3    H124299   0.434   6.076   7.722  1.2616 -0.8977  0.7469
  888TIP3    H224300   0.434   6.129   7.864 -1.0274 -0.7230  0.7265
  889TIP3   OH224301   1.663   2.160   0.431 -0.5855 -0.2902  0.0052
  889TIP3    H124302   1.643   2.169   0.524 -0.9357 -2.8044  0.2608
  889TIP3    H224303   1.754   2.131   0.429 -0.0689  1.3204 -0.5544
  890TIP3   OH224304   0.873   3.655   7.300  0.1909 -0.0039  0.0588
  890TIP3    H124305   0.795   3.698   7.265  0.4768 -1.0280 -1.9869
  890TIP3    H224306   0.946   3.697   7.256  0.7386  0.1814  1.1169
  891TIP3   OH224307   2.760   4.042   7.984  0.0271  0.1898  0.1961
  891TIP3    H124308   2.714   4.010   8.061  0.6912  1.2202  1.0430
  891TIP3    H224309   2.718   4.126   7.964 -0.3980 -0.2377 -0.8205
  892TIP3   OH224310   0.875   2.770   8.310  0.6189 -0.7377 -0.5057
  892TIP3    H124311   0.792   2.772   8.357  1.1521 -0.7670  0.4706
  892TIP3    H224312   0.874   2.848   8.256 -0.6962 -1.5376 -1.6958
  893TIP3   OH224313   6.329   1.075   1.223  0.1172 -0.2101 -0.3764
  893TIP3    H124314   6.292   1.148   1.274 -0.1113  0.0055 -0.8480
  893TIP3    H224315   6.355   1.115   1.140  1.8541 -0.2574  0.1141
  894TIP3   OH224316   4.519   0.600   1.323  0.4534 -0.0836 -0.6367
  894TIP3    H124317   4.503   0.612   1.229 -1.0344 -0.9867 -0.5380
  894TIP3    H224318   4.602   0.553   1.328  0.1298 -0.7947 -1.5570
  895TIP3   OH224319   3.119   2.729   0.648  0.0516 -0.2244  0.2280
  895TIP3    H124320   3.183   2.661   0.627 -0.1203 -0.4257  0.3440
  895TIP3    H224321   3.171   2.807   0.665  0.1040  0.7719 -3.7227
  896TIP3   OH224322   2.168   2.939   6.926  0.8771 -0.0380  0.1211
  896TIP3    H124323   2.262   2.924   6.931  0.9283  0.0772 -0.4173
  896TIP3    H224324   2.135   2.916   7.013  1.2703 -0.9841  0.0287
  897TIP3   OH224325   5.848   3.385   8.239  0.6897  0.4485 -0.5698
  897TIP3    H124326   5.940   3.362   8.226  0.3061 -0.1320 -2.6388
  897TIP3    H224327   5.805   3.302   8.258  0.7031  0.8552  1.4542
  898TIP3   OH224328   4.741   2.389   6.754 -0.2338  0.0222  0.0121
  898TIP3    H124329   4.705   2.460   6.808 -0.4081 -0.1775  0.1564
  898TIP3    H224330   4.783   2.435   6.680  0.5561  0.3334  0.6368
  899TIP3   OH224331   0.456   0.020   2.171 -0.3030  0.3643 -0.1965
  899TIP3    H124332   0.546   0.049   2.189 -0.4161  0.7698 -0.2902
  899TIP3    H224333   0.457  -0.073   2.194  0.1939  0.3192 -0.3841
  900TIP3   OH224334   2.223   6.080   0.135 -0.2836 -0.0487 -0.0049
  900TIP3    H124335   2.248   6.141   0.065 -1.2370  1.3829  0.8677
  900TIP3    H224336   2.150   6.030   0.099  1.2594 -1.6101 -1.1696
  901TIP3   OH224337   2.085   1.330   1.328 -0.1618 -0.5358  0.4690
  901TIP3    H124338   2.022   1.394   1.361 -0.0961 -0.7580  1.0286
  901TIP3    H224339   2.129   1.375   1.256 -0.7789 -0.2891  0.2372
  902TIP3   OH224340   6.532   6.363   1.383  0.1926 -0.0759 -0.4679
  902TIP3    H124341   6.495   6.302   1.320  2.3001 -0.8192 -1.0814
  902TIP3    H224342   6.610   6.318   1.417  1.8210  2.1884 -0.9377
  903TIP3   OH224343   4.060   1.968   7.992  0.1154  0.6088 -0.4809
  903TIP3    H124344   4.046   1.952   7.899 -0.3045  1.0884 -0.5012
  903TIP3    H224345   4.150   1.939   8.007  0.2967  0.8236 -1.1051
  904TIP3   OH224346   0.462   0.234   2.438  0.0199 -0.5026  0.4234
  904TIP3    H124347   0.554   0.218   2.462  0.0428  0.1984  0.8463
  904TIP3    H224348   0.412   0.211   2.517 -0.1191 -0.4375  0.3548
  905TIP3   OH224349   0.520   4.600   2.490 -0.6556 -0.3906 -0.1673
  905TIP3    H124350   0.533   4.687   2.528 -1.1394 -0.6724  0.6655
  905TIP3    H224351   0.468   4.616   2.411  1.3982  0.3433 -1.4552
  906TIP3   OH224352   6.589   4.804   2.449  0.4005 -0.4800 -0.0450
  906TIP3    H124353   6.566   4.872   2.386  0.3679 -1.5136 -1.1661
  906TIP3    H224354   6.510   4.793   2.502  0.4573  0.4524  0.2523
  907TIP3   OH224355   6.075   1.914   6.787  0.4030 -0.0725  0.3145
  907TIP3    H124356   6.049   1.833   6.831  1.9961 -0.0256  1.4590
  907TIP3    H224357   6.116   1.885   6.706  0.6295 -0.3981  0.5417
  908TIP3   OH224358   4.882   4.175   0.110  0.4619 -0.5075  0.4288
  908TIP3    H124359   4.837   4.253   0.077  1.1038  0.2665  1.3499
  908TIP3    H224360   4.855   4.105   0.050 -1.5304  0.0356  0.6139
  909TIP3   OH224361   5.545   0.491   0.147  0.6037  0.0542  0.7185
  909TIP3    H124362   5.549   0.562   0.211  1.3132  1.4059 -0.7431
  909TIP3    H224363   5.456   0.493   0.113  1.1268  1.5896 -0.6956
  910TIP3   OH224364   4.093   0.708   1.621  0.3726  0.5599 -0.2798
  910TIP3    H124365   4.004   0.720   1.653  0.8900  2.2031  0.6617
  910TIP3    H224366   4.148   0.755   1.684  1.6831  1.7848 -2.2196
  911TIP3   OH224367   4.653   6.536   0.370  0.2863 -0.7924  0.7057
  911TIP3    H124368   4.740   6.496   0.365  1.6257  1.8889  0.6202
  911TIP3    H224369   4.662   6.605   0.435 -1.4846  0.2501 -0.0837
  912TIP3   OH224370   5.405   6.638   0.891  0.3898 -0.7883 -0.3291
  912TIP3    H124371   5.498   6.629   0.913 -0.0946 -0.6156  2.0592
  912TIP3    H224372   5.360   6.588   0.959 -1.3800  1.8374  0.5780
  913TIP3   OH224373   4.110   4.473   0.451 -0.0053  0.2229 -0.1494
  913TIP3    H124374   4.125   4.406   0.518  0.6447  1.6574  1.2076
  913TIP3    H224375   4.030   4.444   0.406  0.2900 -1.4693  0.3486
  914TIP3   OH224376   4.075   6.005   2.109 -0.1272 -0.4120  0.3206
  914TIP3    H124377   4.032   5.967   2.186  0.9214  1.4456  1.9138
  914TIP3    H224378   4.016   6.075   2.081  0.4729  0.2495  0.7063
  915TIP3   OH224379   0.225   3.799   2.448  1.0248  0.0256  0.7486
  915TIP3    H124380   0.210   3.892   2.468  1.8312  0.1750  0.7007
  915TIP3    H224381   0.154   3.753   2.492 -0.4029  0.7953 -0.6618
  916TIP3   OH224382   4.059   1.843   7.744 -0.4704 -0.2365 -0.6344
  916TIP3    H124383   4.000   1.822   7.672 -0.1091 -2.3422 -0.3562
  916TIP3    H224384   4.074   1.760   7.788 -2.2733  1.2293  3.1553
  917TIP3   OH224385   4.817   5.048   0.971  0.2247  0.5818  0.0296
  917TIP3    H124386   4.912   5.032   0.977  0.1611  0.4653  0.7510
  917TIP3    H224387   4.779   4.996   1.042 -0.3807  0.6565 -0.2316
  918TIP3   OH224388   4.178   1.821   7.267 -0.0276  0.1045 -0.0254
  918TIP3    H124389   4.111   1.752   7.272  0.1947 -0.3155 -2.0740
  918TIP3    H224390   4.261   1.774   7.262  0.2092  0.5421 -0.2451
  919TIP3   OH224391   6.409   6.699   7.244 -0.1833  0.0145  0.1984
  919TIP3    H124392   6.424   6.605   7.254 -0.4860 -0.1417 -0.7095
  919TIP3    H224393   6.404   6.712   7.149 -2.1721  0.6141  0.3464
  920TIP3   OH224394   0.409   0.012   1.623 -0.0666 -1.0804 -0.1502
  920TIP3    H124395   0.445   0.066   1.693 -2.2800 -0.0907  0.3051
  920TIP3    H224396   0.464  -0.066   1.622  1.6996  0.0857  0.8261
  921TIP3   OH224397   0.949   4.763   7.335  0.2631  0.8763  0.3907
  921TIP3    H124398   0.894   4.742   7.259  1.0570  0.6768 -0.1422
  921TIP3    H224399   0.890   4.808   7.395 -0.7625 -0.2961  0.3128
  922TIP3   OH224400   5.218   6.063   0.475  0.4189  0.1796 -0.3925
  922TIP3    H124401   5.274   5.985   0.480  0.9391  0.3062 -2.8855
  922TIP3    H224402   5.280   6.135   0.464 -0.1630  0.5085 -1.6054
  923TIP3   OH224403   2.063   6.986   8.066 -0.3266  0.7148 -0.1541
  923TIP3    H124404   2.126   7.055   8.048 -0.4891  0.9689  0.2497
  923TIP3    H224405   2.113   6.919   8.114 -0.2832  0.7624 -0.1331
  924TIP3   OH224406   4.994   5.652   0.263 -0.7662  0.2291 -0.6689
  924TIP3    H124407   5.032   5.725   0.312 -0.8647  0.5374 -1.0449
  924TIP3    H224408   5.026   5.573   0.308 -1.7080  0.5077  0.5464
  925TIP3   OH224409   2.895   1.468   7.301 -0.2937  0.0985 -0.4917
  925TIP3    H124410   2.805   1.499   7.294 -0.2783 -0.1099 -1.6621
  925TIP3    H224411   2.898   1.422   7.385 -0.5257  2.5168  0.9575
  926TIP3   OH224412   2.011   5.571   1.839 -0.4814  0.2548  0.1262
  926TIP3    H124413   1.978   5.482   1.832 -2.3076  1.0054 -1.7644
  926TIP3    H224414   2.097   5.569   1.796 -1.7121 -0.0934 -2.5066
  927TIP3   OH224415   6.169   1.122   0.133 -0.3339  0.2262 -0.0504
  927TIP3    H124416   6.116   1.168   0.198 -0.2388 -1.1414  1.0249
  927TIP3    H224417   6.107   1.098   0.064 -0.5255  1.2395 -0.2498
  928TIP3   OH224418   1.232   6.767   7.167  0.1613 -0.3730  0.3263
  928TIP3    H124419   1.293   6.760   7.241 -0.0937 -0.9328  0.4908
  928TIP3    H224420   1.173   6.838   7.190  0.6129  0.0268  0.2672
  929TIP3   OH224421   3.083   1.754   2.866 -0.0456  0.5528 -0.2036
  929TIP3    H124422   3.075   1.823   2.932 -0.1381  0.4340 -0.0922
  929TIP3    H224423   3.146   1.790   2.803  0.0470  0.6632 -0.0501
  930TIP3   OH224424   3.724   0.170   8.183 -0.2158 -0.0578 -0.1063
  930TIP3    H124425   3.635   0.206   8.185 -0.8295 -1.4717 -0.2477
  930TIP3    H224426   3.711   0.077   8.165  1.3616 -0.1184 -1.1054
  931TIP3   OH224427   4.512   2.884   6.933 -0.2322  0.1858  0.3884
  931TIP3    H124428   4.487   2.951   6.997  0.1400  1.3435 -0.6304
  931TIP3    H224429   4.435   2.874   6.877  0.4937  1.6184 -0.9635
  932TIP3   OH224430   2.370   5.222   8.088  0.2085 -0.8373  0.1279
  932TIP3    H124431   2.276   5.205   8.082  0.2896 -1.1579 -0.2475
  932TIP3    H224432   2.403   5.211   7.999  0.4145  0.4630  0.0201
  933TIP3   OH224433   4.236   6.044   1.306 -0.0995 -0.2624 -0.6086
  933TIP3    H124434   4.201   6.117   1.358 -2.5243 -2.6629  1.4111
  933TIP3    H224435   4.220   6.069   1.215 -0.7825  1.7217  0.0133
  934TIP3   OH224436   4.439   4.013   2.217  0.0785  0.1185 -0.4136
  934TIP3    H124437   4.350   4.043   2.237  0.1842  0.4552 -0.4389
  934TIP3    H224438   4.439   3.998   2.123 -0.0435 -0.1973 -0.3647
  935TIP3   OH224439   5.499   0.083   7.597  0.6914 -0.2570 -0.0719
  935TIP3    H124440   5.516   0.076   7.691 -0.8181  0.7701  0.3147
  935TIP3    H224441   5.584   0.108   7.559  1.6599 -2.0848  0.7913
  936TIP3   OH224442   2.698   2.608   1.772 -0.5540 -0.2392 -0.4298
  936TIP3    H124443   2.616   2.576   1.736 -0.9851  0.2696  0.0846
  936TIP3    H224444   2.738   2.532   1.814 -1.1439 -0.3056  0.0096
  937TIP3   OH224445   6.490   6.094   2.534 -0.9747  0.1804 -0.0818
  937TIP3    H124446   6.452   6.025   2.587 -1.6054 -0.2009 -0.9985
  937TIP3    H224447   6.417   6.154   2.516 -0.4109  1.1757  0.8196
  938TIP3   OH224448   2.273   3.969   1.097  0.5923  0.1064  0.9873
  938TIP3    H124449   2.269   4.005   1.008  1.6468 -0.4810  0.6780
  938TIP3    H224450   2.188   3.927   1.110  0.8892 -0.9454 -0.2649
  939TIP3   OH224451   2.417   1.672   2.467 -0.1682  0.0074  0.0851
  939TIP3    H124452   2.395   1.760   2.439 -1.8929 -0.0630  1.0522
  939TIP3    H224453   2.427   1.679   2.562 -1.4017 -1.0054  0.3160
  940TIP3   OH224454   3.070   4.848   1.902  0.0183  0.1272 -0.5351
  940TIP3    H124455   3.073   4.754   1.921 -1.6781 -0.2498 -1.8748
  940TIP3    H224456   3.107   4.856   1.814 -0.4119  0.6297 -0.6724
  941TIP3   OH224457   3.574   4.936   0.241 -0.7973 -0.2473  0.1116
  941TIP3    H124458   3.650   4.940   0.182  0.3359  1.5245  1.6012
  941TIP3    H224459   3.557   5.027   0.265 -2.4054 -0.7631  1.0915
  942TIP3   OH224460   4.836   6.458   1.329  0.1196  0.5328  0.0139
  942TIP3    H124461   4.902   6.424   1.389  0.6565  0.0671 -0.8221
  942TIP3    H224462   4.852   6.553   1.327 -0.0308  0.5824  0.7374
  943TIP3   OH224463   1.085   6.536   6.560 -0.6786  0.0479  0.1423
  943TIP3    H124464   1.130   6.482   6.495 -1.5629  0.1617 -0.5762
  943TIP3    H224465   1.064   6.475   6.631  0.2952 -0.0764  0.3368
  944TIP3   OH224466   2.683   0.240   2.055 -0.1775 -0.1822 -0.2800
  944TIP3    H124467   2.636   0.310   2.102 -0.3748 -0.6727  0.2690
  944TIP3    H224468   2.688   0.168   2.118  0.4843 -0.4792 -0.6621
  945TIP3   OH224469   3.111   5.137   1.676  0.1922 -0.2319  0.3179
  945TIP3    H124470   3.114   5.162   1.584  0.7267 -2.2981 -0.2564
  945TIP3    H224471   3.141   5.046   1.679  1.3489  0.1309  2.6801
  946TIP3   OH224472   6.563   1.223   0.562 -0.0118 -0.2710  0.0252
  946TIP3    H124473   6.539   1.202   0.472 -0.8856 -1.8681  0.5942
  946TIP3    H224474   6.490   1.277   0.595  0.2322  0.1780 -0.1532
  947TIP3   OH224475   4.892   6.311   7.246  0.3226 -0.2573  0.5362
  947TIP3    H124476   4.826   6.243   7.262  1.1704 -0.9567  1.0916
  947TIP3    H224477   4.866   6.384   7.303 -1.2755  0.3910 -0.9314
  948TIP3   OH224478   6.129   0.692   8.348  0.5581  0.3604 -0.4380
  948TIP3    H124479   6.128   0.635   8.425  0.2861  0.1553 -0.5882
  948TIP3    H224480   6.069   0.649   8.287  2.3191 -0.6059 -1.5717
  949TIP3   OH224481   2.159   2.445   7.083  0.1184 -0.2352 -0.1465
  949TIP3    H124482   2.181   2.367   7.032  1.8846 -0.2266  0.5172
  949TIP3    H224483   2.203   2.517   7.037  0.1474  0.0527  0.3187
  950TIP3   OH224484   1.686   3.045   3.102  0.2998  0.4104 -0.0428
  950TIP3    H124485   1.766   3.098   3.097  0.9071 -0.5661 -1.4161
  950TIP3    H224486   1.666   3.041   3.195  2.4522 -0.1449  0.4674
  951TIP3   OH224487   4.950   3.527   7.548 -0.3024  0.1053  0.5447
  951TIP3    H124488   4.981   3.557   7.463 -0.0760 -1.9984 -0.1803
  951TIP3    H224489   5.023   3.545   7.608 -0.4816  1.6399  0.3297
  952TIP3   OH224490   0.659   1.361   0.988 -0.5184 -0.1804  0.0374
  952TIP3    H124491   0.588   1.370   1.052  0.1839  0.5736  0.7316
  952TIP3    H224492   0.739   1.366   1.040  0.0690  0.1929 -0.8767
  953TIP3   OH224493   0.631   1.108   1.502  0.3853  0.2882 -0.1438
  953TIP3    H124494   0.668   1.040   1.559  0.5653 -1.4288 -2.1663
  953TIP3    H224495   0.687   1.184   1.517  2.3481 -1.0453 -0.2550
  954TIP3   OH224496   4.675   1.431   7.761  0.4296 -0.1571 -0.6084
  954TIP3    H124497   4.628   1.379   7.826 -2.1174  2.4533 -0.1702
  954TIP3    H224498   4.655   1.388   7.677  2.3420 -2.5467  0.0460
  955TIP3   OH224499   3.826   3.273   1.868 -0.0727 -0.5260 -0.2370
  955TIP3    H124500   3.891   3.322   1.919 -0.1293 -1.1091  0.4141
  955TIP3    H224501   3.754   3.334   1.856  0.2464 -0.1480 -0.2391
  956TIP3   OH224502   5.419   0.973   7.933 -0.2386  0.0569 -0.1876
  956TIP3    H124503   5.515   0.965   7.930 -0.0179  0.4297  2.7610
  956TIP3    H224504   5.389   0.932   7.852  2.4642  1.4971 -2.0984
  957TIP3   OH224505   1.443   5.053   7.639 -0.0605  0.4497 -0.0985
  957TIP3    H124506   1.470   5.142   7.663 -2.2706  1.4734 -1.1097
  957TIP3    H224507   1.430   5.057   7.544 -0.7385 -0.7941 -0.0770
  958TIP3   OH224508   4.384   4.578   2.464  0.0427  0.1198  0.4357
  958TIP3    H124509   4.421   4.649   2.413  0.4698 -0.2481  0.2316
  958TIP3    H224510   4.290   4.582   2.446  0.0965  0.4735  0.2319
  959TIP3   OH224511   3.859   4.184   1.541  0.5408  0.1651  0.2877
  959TIP3    H124512   3.822   4.222   1.621 -0.4776  1.1501 -0.6051
  959TIP3    H224513   3.892   4.098   1.568 -0.1751  0.2914  1.6695
  960TIP3   OH224514   6.015   6.593   0.747  0.1969 -0.1712  0.7697
  960TIP3    H124515   6.010   6.540   0.827 -0.3957  0.7825  1.3975
  960TIP3    H224516   6.053   6.535   0.681 -0.9172 -1.5331  1.2761
  961TIP3   OH224517   3.180   4.693   7.884  0.0201  0.4912  0.1396
  961TIP3    H124518   3.220   4.607   7.900 -1.0678 -0.1265 -0.3405
  961TIP3    H224519   3.242   4.755   7.921 -0.2102 -0.6159  2.6080
  962TIP3   OH224520   3.557   1.217   7.639 -0.2228 -0.4434 -0.1159
  962TIP3    H124521   3.635   1.260   7.672 -1.1919  1.0306  0.3338
  962TIP3    H224522   3.548   1.249   7.549 -1.4403  1.0858  0.5042
  963TIP3   OH224523   0.170   2.505   1.677 -0.2469  0.3661  0.3231
  963TIP3    H124524   0.080   2.478   1.657 -0.7427  2.2752 -0.2369
  963TIP3    H224525   0.202   2.438   1.738 -1.2679 -1.5486 -1.1304
  964TIP3   OH224526   1.681   4.879   8.325 -0.0337 -0.1869  0.1579
  964TIP3    H124527   1.605   4.921   8.364  1.1222  1.4485  0.7376
  964TIP3    H224528   1.732   4.847   8.400  0.4604 -0.1633 -0.1637
  965TIP3   OH224529   2.596   0.583   1.165 -0.4009  0.0348 -0.0468
  965TIP3    H124530   2.626   0.654   1.109 -0.4830 -0.6484 -0.9896
  965TIP3    H224531   2.519   0.548   1.120 -0.4323 -0.5778  0.4622
  966TIP3   OH224532   1.348   0.192   7.661  1.1728  0.4920  0.0248
  966TIP3    H124533   1.286   0.260   7.686 -0.2288 -1.6810  3.1708
  966TIP3    H224534   1.386   0.223   7.579 -2.5347  2.9290 -1.0284
  967TIP3   OH224535   0.432   6.341   0.110 -0.0601 -0.0393  0.2054
  967TIP3    H124536   0.346   6.380   0.127 -0.5371 -0.8036 -0.3528
  967TIP3    H224537   0.446   6.280   0.182 -1.0879 -1.6662 -0.9110
  968TIP3   OH224538   6.155   6.500   1.861 -0.0367  0.2211 -0.3172
  968TIP3    H124539   6.160   6.542   1.775  0.2581  0.5957 -0.1223
  968TIP3    H224540   6.102   6.560   1.914 -2.5762 -1.3131 -0.9741
  969TIP3   OH224541   1.762   4.489   7.867  0.1449 -0.1390  0.4339
  969TIP3    H124542   1.682   4.495   7.814  0.6691 -0.3579 -0.4036
  969TIP3    H224543   1.804   4.574   7.856 -0.6569  0.4971  2.0250
  970TIP3   OH224544   3.847   3.050   8.223 -0.0806  0.6852  0.4217
  970TIP3    H124545   3.917   2.985   8.232  1.8638  2.9069  3.3336
  970TIP3    H224546   3.825   3.048   8.130 -0.7002 -4.5025  0.3812
  971TIP3   OH224547   4.207   6.143   1.060 -0.7166  0.1407  0.0944
  971TIP3    H124548   4.253   6.161   0.978  0.3266 -2.5398 -0.0175
  971TIP3    H224549   4.153   6.221   1.075 -1.4118  0.5057 -3.4165
  972TIP3   OH224550   0.945   4.053   1.092 -0.5937 -0.0705 -0.4361
  972TIP3    H124551   0.969   4.141   1.064 -2.0340 -0.2535 -2.4485
  972TIP3    H224552   0.853   4.044   1.066 -0.3421 -2.3470 -0.7103
  973TIP3   OH224553   3.617   5.354   2.704  0.5892 -0.4023 -0.6159
  973TIP3    H124554   3.560   5.317   2.772  0.4521  0.4567 -0.2431
  973TIP3    H224555   3.706   5.342   2.738  0.5295 -0.1275 -0.3532
  974TIP3   OH224556   6.425   3.586   7.993  0.2463 -0.3903  0.0992
  974TIP3    H124557   6.393   3.524   7.927 -0.5550 -0.4246  0.5048
  974TIP3    H224558   6.350   3.599   8.052  0.3475  1.0889 -0.0655
  975TIP3   OH224559   6.504   3.761   2.488  0.3453 -0.5884  0.3131
  975TIP3    H124560   6.556   3.742   2.566  0.9300 -1.7343 -0.3427
  975TIP3    H224561   6.488   3.676   2.448  1.9536  0.0995 -2.0215
  976TIP3   OH224562   1.555   6.361   1.566 -0.1342  0.6725 -0.1137
  976TIP3    H124563   1.596   6.275   1.556 -0.3531  0.5719 -0.1619
  976TIP3    H224564   1.587   6.412   1.492  0.0590  0.6596 -0.0415
  977TIP3   OH224565   6.703   4.750   0.363  0.6841  0.4807  0.0399
  977TIP3    H124566   6.671   4.706   0.441 -0.2942 -0.4924 -0.8684
  977TIP3    H224567   6.624   4.788   0.323  0.9552 -0.1888 -1.1664
  978TIP3   OH224568   5.180   6.305   7.068 -0.0055  0.4345  0.0369
  978TIP3    H124569   5.096   6.304   7.114  1.2964  0.0963  2.5917
  978TIP3    H224570   5.185   6.391   7.027 -1.6311  0.3956 -0.2907
  979TIP3   OH224571   2.840   6.307   1.293  0.0343  0.8276 -0.1822
  979TIP3    H124572   2.896   6.268   1.226 -1.2157 -0.6518 -0.3962
  979TIP3    H224573   2.786   6.235   1.325 -2.0726  2.2679 -0.3084
  980TIP3   OH224574   1.016   1.424   3.079 -0.6402 -0.0385  0.6596
  980TIP3    H124575   1.002   1.467   3.164  0.3532  1.8450 -0.0518
  980TIP3    H224576   1.111   1.425   3.067 -0.6579 -1.6284  0.1523
  981TIP3   OH224577   0.267   5.900   0.838  0.1109 -0.3083  0.1530
  981TIP3    H124578   0.274   5.806   0.853  1.4163 -0.1159  0.8692
  981TIP3    H224579   0.346   5.922   0.789 -0.1640  0.4266  0.0322
  982TIP3   OH224580   5.668   0.124   1.947  0.7293 -0.6035 -0.0068
  982TIP3    H124581   5.759   0.150   1.928  0.6937  0.0607  0.6891
  982TIP3    H224582   5.620   0.207   1.950  0.3471 -0.8500  0.9379
  983TIP3   OH224583   2.042   3.512   8.315 -0.2024 -0.6402 -0.3352
  983TIP3    H124584   2.094   3.449   8.364  0.5526 -0.0048 -0.2931
  983TIP3    H224585   2.009   3.574   8.381 -0.5659 -0.7266 -0.4291
  984TIP3   OH224586   6.074   4.715   0.292 -0.1279  0.2313 -0.0230
  984TIP3    H124587   6.056   4.807   0.273  1.7997  1.0162  1.6573
  984TIP3    H224588   6.083   4.711   0.387  0.3534 -1.5938 -0.1052
  985TIP3   OH224589   2.256   3.552   1.729  0.1485 -0.3966  0.1404
  985TIP3    H124590   2.207   3.562   1.811 -0.8274  1.4210 -0.5942
  985TIP3    H224591   2.327   3.616   1.736  0.1832 -0.3802 -0.3251
  986TIP3   OH224592   1.575   2.946   0.728  0.4135 -0.1496 -0.1933
  986TIP3    H124593   1.621   2.869   0.695 -0.7390 -1.4850  1.1730
  986TIP3    H224594   1.500   2.955   0.670 -0.6879 -1.4758  0.9541
  987TIP3   OH224595   0.508   1.421   3.114  0.1445 -0.1291 -0.6038
  987TIP3    H124596   0.505   1.468   3.197  0.9012 -1.2168  0.0531
  987TIP3    H224597   0.447   1.470   3.057  0.5900  1.3918  0.1603
  988TIP3   OH224598   5.184   6.624   7.894 -0.2306 -0.3513  0.0312
  988TIP3    H124599   5.107   6.679   7.911 -0.8491 -1.5770  1.3986
  988TIP3    H224600   5.185   6.562   7.967  2.5885  0.2027  0.5535
  989TIP3   OH224601   3.436   0.783   0.647  0.7091  0.3299  0.1558
  989TIP3    H124602   3.390   0.743   0.573  0.3698  0.3308  0.3602
  989TIP3    H224603   3.476   0.862   0.610 -1.1028  1.4214  0.3690
  990TIP3   OH224604   5.693   0.585   0.833  0.7665  0.1682  0.2737
  990TIP3    H124605   5.765   0.622   0.782  0.2416  0.2653 -0.4160
  990TIP3    H224606   5.614   0.616   0.788  0.2970 -0.2460  0.7984
  991TIP3   OH224607   5.150   6.127   1.639  0.7652  0.0718 -0.7589
  991TIP3    H124608   5.193   6.075   1.707 -1.5383 -1.3710 -0.2761
  991TIP3    H224609   5.147   6.069   1.563 -3.3594 -1.4957  0.2836
  992TIP3   OH224610   5.703   5.409   0.178  0.0225 -0.2286 -0.3093
  992TIP3    H124611   5.630   5.412   0.117 -0.4928 -2.0100  0.1440
  992TIP3    H224612   5.726   5.500   0.193 -0.5398  0.2919 -2.3015
  993TIP3   OH224613   5.527   5.234   7.696  0.2674  0.1426 -0.0923
  993TIP3    H124614   5.503   5.207   7.608  2.8765 -0.7328 -0.6259
  993TIP3    H224615   5.459   5.297   7.721 -0.8587 -0.0053 -2.4763
  994TIP3   OH224616   0.405   3.980   1.752  0.6636  0.6877  0.0663
  994TIP3    H124617   0.312   3.995   1.767  0.3205  1.2462 -2.2183
  994TIP3    H224618   0.419   3.887   1.772 -0.4094  0.5646  0.2585
  995TIP3   OH224619   6.599   6.786   8.132 -0.1796  0.0587  0.0307
  995TIP3    H124620   6.540   6.753   8.064  1.1079  1.1444 -1.7297
  995TIP3    H224621   6.558   6.868   8.162  0.3487  0.7978 -1.1690
  996TIP3   OH224622   1.989   3.768   7.959  0.0864 -0.1553  0.1839
  996TIP3    H124623   1.958   3.800   7.874 -0.1563 -0.4221  0.1679
  996TIP3    H224624   2.045   3.694   7.938 -0.6026 -0.7211  0.2827
  997TIP3   OH224625   1.122   6.523   7.300 -0.1428  0.4388 -0.3058
  997TIP3    H124626   1.092   6.600   7.252  0.6852  0.5258 -0.7112
  997TIP3    H224627   1.139   6.458   7.232 -0.6794 -0.0511  0.0227
  998TIP3   OH224628   2.049   5.781   1.518 -0.2514  0.2459  0.4613
  998TIP3    H124629   2.069   5.870   1.488 -1.1711  0.8324  1.5267
  998TIP3    H224630   1.990   5.746   1.451 -0.7207  0.8337  0.5522
  999TIP3   OH224631   4.805   2.456   2.835  0.1237  0.3877  0.6487
  999TIP3    H124632   4.807   2.361   2.848  0.2249  0.3011  0.0165
  999TIP3    H224633   4.712   2.475   2.818  0.0521  0.4508  1.0872
 1000TIP3   OH224634   2.902   5.791   0.493 -0.1198 -0.1568 -0.1421
 1000TIP3    H124635   2.821   5.792   0.544 -1.4492  0.1192 -2.1783
 1000TIP3    H224636   2.910   5.700   0.462 -0.9062  0.3078 -1.8028
 1001TIP3   OH224637   6.071   5.638   0.993  0.1885  0.1098  0.0274
 1001TIP3    H124638   6.132   5.635   0.920  1.6077  1.1721  1.1144
 1001TIP3    H224639   6.058   5.546   1.017  1.0740 -0.1542 -0.4576
 1002TIP3   OH224640   6.922   5.538   0.357 -0.0704  0.2749  0.9405
 1002TIP3    H124641   6.951   5.467   0.299  0.3417  0.3425  1.0604
 1002TIP3    H224642   6.834   5.560   0.326  1.2914  2.4822 -1.7271
 1003TIP3   OH224643   3.568   6.590   7.722  0.1003  0.4594  0.0056
 1003TIP3    H124644   3.587   6.598   7.816  0.5375  1.2464 -0.1362
 1003TIP3    H224645   3.473   6.596   7.716  0.0777  0.5021  0.3922
 1004TIP3   OH224646   1.496   3.352   8.431  0.8711  0.2746 -0.3233
 1004TIP3    H124647   1.455   3.269   8.406 -1.0015  1.2758 -0.7248
 1004TIP3    H224648   1.440   3.419   8.392  1.6219  1.7605  1.0695
 1005TIP3   OH224649   2.443   3.070   0.576 -0.6944  0.2876  0.2111
 1005TIP3    H124650   2.370   3.057   0.637 -1.3638 -1.2671 -0.8712
 1005TIP3    H224651   2.420   3.150   0.528 -3.0100 -1.4325 -1.8168
 1006TIP3   OH224652   1.188   3.359   1.293  0.0765  0.1634 -0.1790
 1006TIP3    H124653   1.269   3.325   1.256 -0.7836 -1.2355 -0.8408
 1006TIP3    H224654   1.175   3.307   1.373 -0.0686  0.5200  0.0310
 1007TIP3   OH224655   6.923   3.887   0.308 -0.2354 -0.4732  0.1956
 1007TIP3    H124656   7.016   3.869   0.299  0.1542  1.2621  0.5087
 1007TIP3    H224657   6.901   3.860   0.397  0.0450 -0.5713  0.2332
 1008TIP3   OH224658   5.456   6.393   7.936 -0.1025 -0.6273 -0.1887
 1008TIP3    H124659   5.362   6.386   7.955 -0.1681 -1.1618 -0.6736
 1008TIP3    H224660   5.459   6.435   7.850  0.1409  0.2860  0.2487
 1009TIP3   OH224661   1.306   2.491   2.507 -0.3592  0.2806 -0.5328
 1009TIP3    H124662   1.269   2.532   2.585  1.7822 -0.9184  1.2510
 1009TIP3    H224663   1.329   2.564   2.450  0.9468  1.4659  1.3796
 1010TIP3   OH224664   0.222   3.398   0.418  0.0394 -0.0524  0.3228
 1010TIP3    H124665   0.262   3.463   0.361 -0.6087  0.3298  0.2971
 1010TIP3    H224666   0.272   3.318   0.402  1.2009  0.5642  0.7579
 1011TIP3   OH224667   2.314   6.225   1.784  0.1339  0.0443  0.5739
 1011TIP3    H124668   2.292   6.136   1.759  1.0737  0.4364 -1.9534
 1011TIP3    H224669   2.407   6.222   1.808  0.3081  0.4114 -0.0269
 1012TIP3   OH224670   4.709   6.113   0.238 -0.7404 -0.1370  0.0496
 1012TIP3    H124671   4.683   6.183   0.178  1.2933 -0.3336 -1.1463
 1012TIP3    H224672   4.684   6.032   0.193 -0.8363 -0.2502  0.3019
 1013TIP3   OH224673   3.957   0.363   8.422 -0.3710  0.5305  0.4742
 1013TIP3    H124674   3.948   0.418   8.344  0.8291  0.2767  0.1412
 1013TIP3    H224675   3.882   0.387   8.477  0.4777  2.9992  0.6505
 1014TIP3   OH224676   0.377   0.847   1.908  0.5990  0.5298  0.5957
 1014TIP3    H124677   0.385   0.914   1.976 -0.3610  1.7242 -0.4160
 1014TIP3    H224678   0.285   0.820   1.912 -0.5929  3.3962 -2.6331
 1015TIP3   OH224679   5.552   5.209   1.142  0.7991 -0.7149  0.4381
 1015TIP3    H124680   5.572   5.191   1.234  1.3645  0.4837  0.5653
 1015TIP3    H224681   5.484   5.145   1.120  1.0859 -1.4271  1.5026
 1016TIP3   OH224682   1.105   4.848   2.497  0.4037 -0.4931  0.0179
 1016TIP3    H124683   1.102   4.762   2.539  0.1500 -0.3950  0.2015
 1016TIP3    H224684   1.116   4.828   2.404  3.0202 -0.6950  0.2893
 1017TIP3   OH224685   1.698   4.534   8.433  0.0611  0.3269 -0.6447
 1017TIP3    H124686   1.642   4.497   8.501 -0.5876 -0.2603 -1.4715
 1017TIP3    H224687   1.785   4.498   8.450 -0.3839 -0.9251 -0.9281
 1018TIP3   OH224688   2.177   4.549   0.053 -0.4279 -0.6643  0.0997
 1018TIP3    H124689   2.242   4.616   0.074 -0.6544 -1.1946  3.0366
 1018TIP3    H224690   2.128   4.584  -0.021  0.1798  1.9209  0.8428
 1019TIP3   OH224691   5.335   1.068   0.419 -0.0653 -0.5839 -0.1107
 1019TIP3    H124692   5.282   1.080   0.340  0.7894 -1.5835 -0.8692
 1019TIP3    H224693   5.421   1.102   0.395 -0.1521  0.3454  0.8589
 1020TIP3   OH224694   1.891   6.669   0.624  0.0321 -0.3243  0.0582
 1020TIP3    H124695   1.959   6.642   0.561  0.0665 -1.4279  0.5466
 1020TIP3    H224696   1.859   6.587   0.661 -3.5593 -0.1603 -2.1440
 1021TIP3   OH224697   5.034   4.766   2.517  0.4422 -0.2414 -0.3173
 1021TIP3    H124698   4.978   4.705   2.469  1.5764 -0.6366 -1.1834
 1021TIP3    H224699   5.010   4.753   2.609 -0.0266 -1.2810 -0.5747
 1022TIP3   OH224700   0.296   3.299   7.775 -0.1747  1.0262 -0.4232
 1022TIP3    H124701   0.298   3.386   7.813 -2.0633  1.3286 -0.9364
 1022TIP3    H224702   0.209   3.265   7.795 -0.2013  0.0683 -1.9681
 1023TIP3   OH224703   0.806   1.173   1.841 -0.5904 -0.1379  0.3807
 1023TIP3    H124704   0.811   1.081   1.817  0.8109  0.1437 -0.4500
 1023TIP3    H224705   0.871   1.217   1.787 -1.7346  1.4715  0.2291
 1024TIP3   OH224706   6.052   0.104   1.689 -0.4430 -0.0866 -0.6687
 1024TIP3    H124707   6.143   0.079   1.671  0.5343  0.8125  2.4033
 1024TIP3    H224708   6.042   0.190   1.649  0.9244  0.9061  1.0076
 1025TIP3   OH224709   0.665   0.091   1.474  0.7799 -0.5122  0.6221
 1025TIP3    H124710   0.579   0.053   1.458  0.3967  0.2006  0.9663
 1025TIP3    H224711   0.670   0.164   1.413  0.1869  0.8901  2.1841
 1026TIP3   OH224712   0.690   5.637   1.415 -0.7573  0.2513 -0.1771
 1026TIP3    H124713   0.625   5.678   1.358 -0.2695  1.9289  0.4113
 1026TIP3    H224714   0.653   5.643   1.503 -0.2318  0.3582  0.0419
 1027TIP3   OH224715   3.634   3.354   2.559  0.6467 -0.5978  0.3103
 1027TIP3    H124716   3.569   3.318   2.619  1.4608 -2.1221  0.3066
 1027TIP3    H224717   3.581   3.401   2.493 -0.3527 -0.6371  1.0574
 1028TIP3   OH224718   0.097   5.508   7.895 -0.0318 -0.4572 -0.5020
 1028TIP3    H124719   0.096   5.428   7.948 -1.8944 -0.3019 -0.2198
 1028TIP3    H224720   0.169   5.495   7.833  0.7053 -1.6551  0.5559
 1029TIP3   OH224721   5.921   4.740   8.251 -0.0979  0.3136 -0.0054
 1029TIP3    H124722   5.999   4.689   8.230 -0.6903 -0.1377 -1.2000
 1029TIP3    H224723   5.923   4.749   8.346  1.6166  0.6651 -0.0454
 1030TIP3   OH224724   4.002   3.926   0.600  0.0746 -0.4478 -0.3111
 1030TIP3    H124725   4.086   3.880   0.597 -0.1088 -0.8427  0.3691
 1030TIP3    H224726   3.974   3.931   0.509  0.6995 -0.5749 -0.5134
 1031TIP3   OH224727   2.922   1.387   7.608  0.0484 -0.0612 -0.3424
 1031TIP3    H124728   2.862   1.327   7.652 -1.3023 -0.6114 -2.7557
 1031TIP3    H224729   2.995   1.398   7.669 -1.8437 -0.4532  2.1263
 1032TIP3   OH224730   1.431   6.045   0.787  0.5406 -0.2234 -0.6646
 1032TIP3    H124731   1.453   6.099   0.712  0.3616 -1.1931 -1.4319
 1032TIP3    H224732   1.452   6.100   0.863 -0.1464  1.1155 -1.4081
 1033TIP3   OH224733   6.841   0.105   7.409  0.7918 -0.2299  0.2011
 1033TIP3    H124734   6.911   0.066   7.460  1.8416  0.5643 -0.5909
 1033TIP3    H224735   6.886   0.160   7.344 -0.4533 -1.2876 -1.6637
 1034TIP3   OH224736   0.276   2.516   1.200  0.4510 -0.0041 -0.3445
 1034TIP3    H124737   0.363   2.556   1.208  0.6155 -0.5474  0.7900
 1034TIP3    H224738   0.295   2.426   1.172  0.1391  0.3932 -1.9042
 1035TIP3   OH224739   6.467   5.361   0.745  0.3652  1.1561 -0.3411
 1035TIP3    H124740   6.459   5.269   0.770  0.9120  0.3951 -2.6867
 1035TIP3    H224741   6.540   5.394   0.798  0.1178  0.2770  0.5766
 1036TIP3   OH224742   3.149   5.825   1.246  0.2399 -0.4941 -0.1300
 1036TIP3    H124743   3.115   5.748   1.199  1.2028 -2.5018  2.2317
 1036TIP3    H224744   3.113   5.816   1.334  1.2450  1.2179  0.4924
 1037TIP3   OH224745   2.249   0.813   1.691 -0.4799 -0.4184  0.2472
 1037TIP3    H124746   2.266   0.719   1.680 -1.5924 -0.7412  1.0468
 1037TIP3    H224747   2.165   0.816   1.736 -0.6408  0.9871 -0.1210
 1038TIP3   OH224748   3.134   1.978   3.044  0.4162 -0.3273 -0.0571
 1038TIP3    H124749   3.223   2.007   3.063  0.2616 -0.3267  0.7063
 1038TIP3    H224750   3.083   2.058   3.037  0.7385 -0.2427 -2.0184
 1039TIP3   OH224751   2.609   1.036   6.896 -0.2004  0.3445 -0.3579
 1039TIP3    H124752   2.626   1.080   6.979 -1.0973  1.2445 -0.6283
 1039TIP3    H224753   2.584   1.107   6.837 -1.8707 -0.5400 -0.7636
 1040TIP3   OH224754   0.902   1.690   6.897  0.1971 -0.9960 -0.1587
 1040TIP3    H124755   0.932   1.772   6.856 -0.6057 -0.5704  0.0861
 1040TIP3    H224756   0.817   1.712   6.935 -0.0683 -1.9820 -0.1690
 1041TIP3   OH224757   1.694   3.972   0.300 -0.6077 -0.2930 -0.2722
 1041TIP3    H124758   1.747   4.052   0.295  0.3899 -0.8435  1.1480
 1041TIP3    H224759   1.609   3.998   0.264  0.3162  0.8467 -1.7471
 1042TIP3   OH224760   1.285   2.761   1.506 -0.1840 -0.1634 -0.0797
 1042TIP3    H124761   1.232   2.744   1.428 -0.4895  1.1174 -0.1699
 1042TIP3    H224762   1.337   2.837   1.484 -1.4014  1.2114  1.4746
 1043TIP3   OH224763   4.807   4.548   0.781 -0.1856  0.0601  0.4235
 1043TIP3    H124764   4.743   4.537   0.852 -1.1170  1.9693 -0.0580
 1043TIP3    H224765   4.892   4.551   0.825 -0.3946 -2.1574  1.1097
 1044TIP3   OH224766   2.801   0.044   1.357  0.3319 -0.1761  0.5410
 1044TIP3    H124767   2.780   0.080   1.444  4.0197  1.3436  0.9874
 1044TIP3    H224768   2.877  -0.011   1.372  0.7327 -0.3100 -1.6833
 1045TIP3   OH224769   5.408   1.735   1.206  0.4889  0.6531  0.4642
 1045TIP3    H124770   5.425   1.643   1.224  0.3445  0.3930 -0.6787
 1045TIP3    H224771   5.399   1.740   1.111 -1.7889  1.4495  0.6623
 1046TIP3   OH224772   6.585   4.176   1.029 -0.2768 -0.7995  0.0883
 1046TIP3    H124773   6.593   4.245   0.963  1.1715 -1.9211 -0.9726
 1046TIP3    H224774   6.496   4.141   1.017 -2.0637  2.4442  2.3618
 1047TIP3   OH224775   6.616   6.942   0.450  0.9805  0.0466  0.6428
 1047TIP3    H124776   6.565   7.001   0.505  0.5961 -0.5812  0.9666
 1047TIP3    H224777   6.702   6.940   0.492  0.3395 -1.4030  1.9798
 1048TIP3   OH224778   2.330   0.045   1.963 -0.1855  0.2914  0.1415
 1048TIP3    H124779   2.260  -0.009   1.928 -0.3755  1.0191 -0.6352
 1048TIP3    H224780   2.301   0.135   1.948  0.6003  0.6094  0.4407
 1049TIP3   OH224781   5.746   6.186   1.638  0.2095  0.3577  0.2899
 1049TIP3    H124782   5.651   6.188   1.654  0.0605  0.7335 -0.5485
 1049TIP3    H224783   5.759   6.109   1.583  0.5230 -0.2016  1.1425
 1050TIP3   OH224784   2.501   2.528   0.941  0.5337  0.3799 -0.1749
 1050TIP3    H124785   2.526   2.453   0.886  0.6426 -1.6828  2.5108
 1050TIP3    H224786   2.549   2.515   1.023  0.3862  3.3394  0.4870
 1051TIP3   OH224787   2.473   3.650   2.253 -0.2776  0.2356 -0.3893
 1051TIP3    H124788   2.454   3.622   2.343  1.9270 -0.7273 -0.1500
 1051TIP3    H224789   2.462   3.571   2.201  3.3388 -0.6432 -0.1154
 1052TIP3   OH224790   5.504   3.052   0.329  0.4150 -0.1462 -0.3519
 1052TIP3    H124791   5.507   3.129   0.386 -0.7326 -0.3882  0.0764
 1052TIP3    H224792   5.577   2.998   0.359 -0.4011 -0.4531  1.2129
 1053TIP3   OH224793   5.201   2.689   7.417 -0.3140  0.3541 -0.2132
 1053TIP3    H124794   5.274   2.736   7.375  1.0459 -0.5503  1.0361
 1053TIP3    H224795   5.210   2.710   7.510 -0.8733 -0.8019  0.1119
 1054TIP3   OH224796   0.040   3.294   7.095 -0.0454 -0.6457 -0.4168
 1054TIP3    H124797   0.106   3.225   7.095 -0.4741 -1.1458 -2.8353
 1054TIP3    H224798   0.086   3.372   7.124  1.1103 -1.3945 -0.1937
 1055TIP3   OH224799   6.508   0.903   7.010  0.2749  0.0363  1.1295
 1055TIP3    H124800   6.436   0.862   6.961  2.7539 -0.7945 -2.1814
 1055TIP3    H224801   6.464   0.968   7.066 -3.0232  0.3424 -1.4367
 1056TIP3   OH224802   0.270   6.266   1.876  0.6139  0.2445  0.0664
 1056TIP3    H124803   0.269   6.273   1.971 -1.7075  0.5488  0.0656
 1056TIP3    H224804   0.244   6.353   1.845  1.9792  0.3400 -0.8886
 1057TIP3   OH224805   0.211   4.276   2.397 -0.2812 -0.5928  0.5326
 1057TIP3    H124806   0.223   4.362   2.358  0.2297 -0.7556  0.3154
 1057TIP3    H224807   0.199   4.217   2.322 -1.6014 -0.5784  0.7087
 1058TIP3   OH224808   4.980   2.547   1.194  0.9325 -0.3601 -0.4568
 1058TIP3    H124809   4.961   2.491   1.120 -1.7643  1.8578 -1.6313
 1058TIP3    H224810   4.905   2.537   1.252  0.0556  2.3045 -0.9813
 1059TIP3   OH224811   5.332   6.521   7.705  0.1531  0.3752  0.0626
 1059TIP3    H124812   5.412   6.571   7.688 -1.1825  2.2098 -1.3388
 1059TIP3    H224813   5.265   6.588   7.722 -1.5816 -0.9520 -1.0961
 1060TIP3   OH224814   1.440   0.181   1.301 -0.4576 -0.4950 -0.2408
 1060TIP3    H124815   1.437   0.120   1.374  1.3337  2.0416  2.1732
 1060TIP3    H224816   1.349   0.194   1.275 -1.0657 -2.0376  1.0137
 1061TIP3   OH224817   4.407   6.061   2.482  0.5080 -0.2755  0.2343
 1061TIP3    H124818   4.426   6.112   2.561  2.1429 -1.2356  0.5071
 1061TIP3    H224819   4.340   5.998   2.511  0.4272 -0.0217  0.6122
 1062TIP3   OH224820   6.214   2.199   6.716 -0.2399 -0.4449  0.3937
 1062TIP3    H124821   6.130   2.154   6.712 -0.0655 -0.6782 -1.3840
 1062TIP3    H224822   6.193   2.291   6.700 -0.1257 -0.5614 -0.4539
 1063TIP3   OH224823   2.825   5.624   7.191 -0.1818 -0.5560 -0.2455
 1063TIP3    H124824   2.802   5.550   7.135 -0.0639  0.7231 -2.0654
 1063TIP3    H224825   2.917   5.610   7.212 -0.4876 -1.5760  0.5266
 1064TIP3   OH224826   5.097   3.596   7.318 -0.2974 -0.0635  0.0731
 1064TIP3    H124827   5.175   3.626   7.272 -0.1682 -1.0098 -0.3415
 1064TIP3    H224828   5.103   3.501   7.317 -1.2984 -0.1431  0.3208
 1065TIP3   OH224829   3.964   1.015   7.254 -0.3967 -0.1102  0.3554
 1065TIP3    H124830   3.962   0.978   7.165 -0.3007  0.2237  0.2135
 1065TIP3    H224831   3.991   0.942   7.309  1.9667  0.2726 -0.1937
 1066TIP3   OH224832   5.077   2.321   8.444  0.1459  0.1981  0.0205
 1066TIP3    H124833   5.102   2.313   8.352  2.0204  0.0166  0.5064
 1066TIP3    H224834   5.138   2.385   8.480  0.9096 -1.3426  1.6116
 1067TIP3   OH224835   1.236   4.003   0.040 -0.2470 -0.2779 -0.1762
 1067TIP3    H124836   1.278   3.978  -0.043 -0.4843  0.4823 -0.5402
 1067TIP3    H224837   1.193   3.923   0.071  0.0087 -0.6192 -0.6893
 1068TIP3   OH224838   5.507   5.419   1.987  0.1220 -0.4284 -0.0780
 1068TIP3    H124839   5.536   5.344   2.038  1.2739 -0.3662 -0.6043
 1068TIP3    H224840   5.454   5.471   2.047  1.3624 -0.4110  1.0308
 1069TIP3   OH224841   2.535   6.775   7.645 -0.1595 -0.0132  0.1642
 1069TIP3    H124842   2.544   6.802   7.553  0.0709 -0.3322  0.0911
 1069TIP3    H224843   2.611   6.720   7.661  0.1943  0.6326  0.7628
 1070TIP3   OH224844   6.947   6.094   2.712  0.9797  0.5374 -0.5966
 1070TIP3    H124845   6.914   6.093   2.803  1.5504  0.1457 -0.3915
 1070TIP3    H224846   6.869   6.112   2.659  0.4236 -0.3908 -0.1124
 1071TIP3   OH224847   2.738   0.123   7.866 -0.1645  0.3563  0.8389
 1071TIP3    H124848   2.713   0.035   7.838  0.4705  0.3843  0.1793
 1071TIP3    H224849   2.814   0.146   7.812  0.1174  1.0277  1.4992
 1072TIP3   OH224850   5.045   5.214   1.489  0.1068 -0.0306 -0.1002
 1072TIP3    H124851   5.112   5.282   1.499  1.1484 -0.9333 -0.6643
 1072TIP3    H224852   4.967   5.261   1.460  0.9978  0.8484 -1.1449
 1073TIP3   OH224853   1.920   6.297   7.622  0.8369  0.3286  0.1935
 1073TIP3    H124854   1.838   6.281   7.575  0.2245  0.2367  1.2624
 1073TIP3    H224855   1.955   6.377   7.584  0.1619  0.4638 -0.1524
 1074TIP3   OH224856   0.731   4.597   0.858  0.9981  0.4954 -0.4249
 1074TIP3    H124857   0.819   4.635   0.852  1.2032 -0.1302 -1.5036
 1074TIP3    H224858   0.672   4.672   0.849  1.4135  0.6827 -1.8154
 1075TIP3   OH224859   2.174   3.190   2.310 -0.0941 -0.6432  0.5553
 1075TIP3    H124860   2.105   3.159   2.253  0.7724 -2.5230  0.4754
 1075TIP3    H224861   2.167   3.136   2.389  0.3301  0.1789  1.1781
 1076TIP3   OH224862   2.113   6.645   1.378 -0.1361 -0.2441  0.1187
 1076TIP3    H124863   2.115   6.656   1.473  0.4137 -0.0453  0.0875
 1076TIP3    H224864   2.020   6.646   1.355 -0.2587 -0.0405  0.6219
 1077TIP3   OH224865   6.075   4.388   0.360 -0.1014  0.2917  0.0129
 1077TIP3    H124866   6.092   4.438   0.440 -0.2205 -2.1803  1.6986
 1077TIP3    H224867   5.981   4.368   0.363 -0.1711  0.4254 -0.9152
 1078TIP3   OH224868   3.255   3.639   0.876 -0.3429 -0.3777  0.5658
 1078TIP3    H124869   3.302   3.652   0.959  0.2125  1.5198  0.0019
 1078TIP3    H224870   3.267   3.722   0.829  0.0060 -1.6680 -1.7503
 1079TIP3   OH224871   6.468   6.764   0.272  0.0674 -0.0257  0.0477
 1079TIP3    H124872   6.518   6.815   0.336  2.0497 -0.0322 -1.4146
 1079TIP3    H224873   6.460   6.822   0.196 -0.5649 -0.7132 -0.4211
 1080TIP3   OH224874   0.177   4.535   7.438  0.3599 -0.1601  0.0074
 1080TIP3    H124875   0.192   4.471   7.369 -0.9865  0.3754 -0.8229
 1080TIP3    H224876   0.260   4.541   7.485  1.5552  0.0481 -2.0575
 1081TIP3   OH224877   0.190   2.764   1.680  0.3763 -0.0130 -0.1778
 1081TIP3    H124878   0.186   2.669   1.687 -1.3008  0.0539  0.2032
 1081TIP3    H224879   0.150   2.796   1.761 -0.0338  1.0073 -0.7562
 1082TIP3   OH224880   1.652   2.481   2.407  0.0823 -0.1313  0.3975
 1082TIP3    H124881   1.716   2.541   2.445 -1.1005  1.3068  0.2508
 1082TIP3    H224882   1.631   2.420   2.478  0.8815 -0.0019  0.7534
 1083TIP3   OH224883   2.694   6.847   0.680  0.3094  0.5603  0.1822
 1083TIP3    H124884   2.748   6.771   0.701  0.0780  0.0847 -0.8931
 1083TIP3    H224885   2.608   6.826   0.715  0.8817  1.5023  2.2832
 1084TIP3   OH224886   2.352   1.582   0.767 -0.3589  0.2579 -0.2050
 1084TIP3    H124887   2.440   1.571   0.803 -1.0047 -0.6433  1.1917
 1084TIP3    H224888   2.323   1.667   0.798 -0.0886  0.4283 -0.4205
 1085TIP3   OH224889   5.802   4.996   7.004  0.6754  0.8664 -0.2591
 1085TIP3    H124890   5.725   4.946   6.979  0.3222  0.4468  1.5510
 1085TIP3    H224891   5.859   4.993   6.927 -0.6912  0.3779 -1.2849
 1086TIP3   OH224892   1.076   5.799   8.041 -0.3082  0.7252 -0.0290
 1086TIP3    H124893   0.989   5.761   8.035 -1.2409  2.1453  2.6288
 1086TIP3    H224894   1.085   5.852   7.962 -1.0670 -0.8230 -1.2142
 1087TIP3   OH224895   6.392   4.969   8.453 -0.4256  0.2289  0.2284
 1087TIP3    H124896   6.374   5.002   8.365 -0.1856  0.3495  0.2238
 1087TIP3    H224897   6.343   5.028   8.511 -1.2552 -0.3506  0.1320
 1088TIP3   OH224898   1.444   3.168   1.407 -0.1630 -0.2098  0.6107
 1088TIP3    H124899   1.442   3.141   1.315  2.4500  1.2793  0.0355
 1088TIP3    H224900   1.504   3.106   1.449  1.4718  1.2202  0.4820
 1089TIP3   OH224901   0.298   6.647   2.507 -0.3695  0.0519 -0.8345
 1089TIP3    H124902   0.372   6.588   2.494 -0.7593 -0.1936 -2.1464
 1089TIP3    H224903   0.327   6.709   2.574  0.2114 -1.3362  0.2379
 1090TIP3   OH224904   6.287   1.591   6.260 -0.3887 -0.2710  0.1555
 1090TIP3    H124905   6.276   1.682   6.286  0.7772  0.3162 -1.2999
 1090TIP3    H224906   6.345   1.554   6.326 -1.4497 -0.1810  1.1639
 1091TIP3   OH224907   1.638   0.095   1.893  0.6042 -0.2897 -0.6380
 1091TIP3    H124908   1.693   0.017   1.900 -1.1824 -1.5307  0.3734
 1091TIP3    H224909   1.580   0.090   1.969  0.5134  2.1154 -0.4785
 1092TIP3   OH224910   0.823   6.293   2.454  0.2757 -0.2235  0.2723
 1092TIP3    H124911   0.823   6.247   2.370  1.3171  2.6624 -1.4517
 1092TIP3    H224912   0.748   6.257   2.501  0.2337 -2.6313 -1.4635
 1093TIP3   OH224913   6.520   5.375   1.313  0.1827 -0.0586 -0.3084
 1093TIP3    H124914   6.484   5.422   1.387 -0.4284 -2.1306  0.8052
 1093TIP3    H224915   6.462   5.396   1.240  0.6405  1.7988 -0.1882
 1094TIP3   OH224916   3.054   0.894   1.630  0.1387 -0.5270  0.3457
 1094TIP3    H124917   3.017   0.976   1.661 -1.8126 -0.7474 -1.1960
 1094TIP3    H224918   3.138   0.918   1.593 -0.1205  0.6657  0.5011
 1095TIP3   OH224919   2.979   4.386   7.341 -0.3669  0.2351 -0.2371
 1095TIP3    H124920   2.998   4.294   7.361 -0.4957  0.6482  2.0592
 1095TIP3    H224921   3.062   4.421   7.309 -1.0229 -1.3150 -4.2956
 1096TIP3   OH224922   2.124   2.681   7.736 -0.1278  0.0240 -0.3373
 1096TIP3    H124923   2.078   2.665   7.654 -2.5583 -0.9819  1.1258
 1096TIP3    H224924   2.066   2.739   7.786  1.8305  1.6133  0.2776
 1097TIP3   OH224925   0.521   3.231   8.072 -0.2357 -0.4736  0.8079
 1097TIP3    H124926   0.437   3.268   8.097 -0.2559 -0.6879  1.0586
 1097TIP3    H224927   0.501   3.173   7.998  0.1534  2.0402 -1.4367
 1098TIP3   OH224928   4.137   3.825   7.072  0.8035 -0.4976 -0.3219
 1098TIP3    H124929   4.182   3.899   7.031  1.7642 -0.6835  0.3628
 1098TIP3    H224930   4.048   3.856   7.084  0.8122  0.0070 -1.4008
 1099TIP3   OH224931   5.179   3.788   8.010 -0.5869  0.2909 -0.6338
 1099TIP3    H124932   5.213   3.788   7.921 -2.1389 -2.3641 -1.3516
 1099TIP3    H224933   5.092   3.748   8.002  0.0139 -1.9721  2.2741
 1100TIP3   OH224934   6.016   1.763   0.681  0.8470  0.6038  0.2501
 1100TIP3    H124935   6.014   1.835   0.743  2.0384  0.3109  0.6471
 1100TIP3    H224936   6.021   1.806   0.595  0.0348  0.9938  0.3843
 1101TIP3   OH224937   0.866   4.658   7.889  0.2423 -0.3195  0.2280
 1101TIP3    H124938   0.813   4.625   7.962  0.6430 -0.5084  0.4344
 1101TIP3    H224939   0.889   4.747   7.914 -2.5234  0.9547 -1.2048
 1102TIP3   OH224940   3.986   4.942   2.358  0.4293 -0.0730 -0.6539
 1102TIP3    H124941   3.939   5.000   2.298  1.3195  0.1522 -1.1509
 1102TIP3    H224942   4.002   4.863   2.306 -0.2207 -0.5195 -0.1835
 1103TIP3   OH224943   5.020   2.639   0.026 -0.0497 -0.2047 -0.3656
 1103TIP3    H124944   5.010   2.636  -0.069  1.3540 -0.3222 -0.5357
 1103TIP3    H224945   5.093   2.580   0.044  0.0120  0.1828  0.7389
 1104TIP3   OH224946   2.598   6.499   7.171 -0.2579 -0.7080  0.4189
 1104TIP3    H124947   2.546   6.421   7.149  0.4501 -1.4556  1.2931
 1104TIP3    H224948   2.612   6.492   7.265 -0.6963  0.8272  0.6188
 1105TIP3   OH224949   1.845   0.002   7.705 -0.6733 -0.6041 -0.1439
 1105TIP3    H124950   1.928   0.037   7.673  0.3679 -0.0277  2.8841
 1105TIP3    H224951   1.778   0.059   7.666  0.6930  2.0936  1.1811
 1106TIP3   OH224952   5.928   5.945   0.884 -0.1752 -0.4835 -0.0993
 1106TIP3    H124953   5.976   5.923   0.964  0.2429  0.0674 -0.1933
 1106TIP3    H224954   5.899   5.861   0.850  0.9109 -0.8564 -0.1536
 1107TIP3   OH224955   1.926   3.804   0.296  0.2370 -0.7125 -0.0982
 1107TIP3    H124956   1.999   3.862   0.275  0.1276 -0.5282  0.0322
 1107TIP3    H224957   1.848   3.859   0.287  0.2011 -0.5792  0.9819
 1108TIP3   OH224958   5.317   0.764   8.423 -0.2119 -0.1930 -0.0238
 1108TIP3    H124959   5.288   0.816   8.348 -1.7997 -1.0423 -0.0325
 1108TIP3    H224960   5.334   0.677   8.387  1.2990 -0.0168  0.1999
 1109TIP3   OH224961   2.279   5.245   2.561  0.1815 -0.0230  0.1046
 1109TIP3    H124962   2.368   5.211   2.563  0.1061 -0.2284 -0.0690
 1109TIP3    H224963   2.245   5.227   2.649 -0.1631 -1.2136 -0.2640
 1110TIP3   OH224964   2.816   5.379   7.027  0.2062  0.2903 -0.4834
 1110TIP3    H124965   2.768   5.315   6.974  0.1232 -1.1202  1.2045
 1110TIP3    H224966   2.849   5.329   7.101  2.4713  1.6680 -0.4596
 1111TIP3   OH224967   0.393   5.481   7.951 -0.5714 -0.4756  0.0978
 1111TIP3    H124968   0.319   5.429   7.982  0.1108 -1.5790 -0.0775
 1111TIP3    H224969   0.390   5.471   7.855  0.4576 -1.4739  0.1513
 1112TIP3   OH224970   1.010   6.775   1.752 -0.1851  0.3500 -0.0260
 1112TIP3    H124971   0.949   6.840   1.718  0.3147  0.1731 -1.3307
 1112TIP3    H224972   0.957   6.696   1.763 -0.2775  0.2861 -0.8541
 1113TIP3   OH224973   0.323   2.746   2.140 -0.1137  0.2043 -0.1850
 1113TIP3    H124974   0.407   2.703   2.123  0.0715  0.5412 -0.1378
 1113TIP3    H224975   0.340   2.801   2.217 -0.8489 -1.0572  0.9117
 1114TIP3   OH224976   5.058   6.566   0.800  0.1744  0.0180  0.0647
 1114TIP3    H124977   5.085   6.485   0.844  0.9289  0.0493 -0.3207
 1114TIP3    H224978   5.064   6.633   0.868  1.3577  0.0693 -0.0771
 1115TIP3   OH224979   0.805   1.675   8.243  0.0419  0.3719  0.7731
 1115TIP3    H124980   0.736   1.704   8.303  1.2369  3.9385  0.6879
 1115TIP3    H224981   0.842   1.757   8.208  2.4291 -1.4480 -1.3389
 1116TIP3   OH224982   5.205   2.451   0.691  0.2209  0.1430 -0.0132
 1116TIP3    H124983   5.283   2.496   0.659 -0.4500  3.3548  2.2889
 1116TIP3    H224984   5.237   2.367   0.724  1.9659 -0.2786 -2.5340
 1117TIP3   OH224985   3.124   1.922   7.574  0.0298  0.2277 -0.5392
 1117TIP3    H124986   3.159   1.989   7.632 -1.8506  0.4196  0.4486
 1117TIP3    H224987   3.111   1.968   7.490 -0.0491  0.7623 -0.2386
 1118TIP3   OH224988   1.209   1.317   1.740  0.1357  0.0278 -0.1940
 1118TIP3    H124989   1.298   1.284   1.733  0.1450 -0.0342  0.1893
 1118TIP3    H224990   1.156   1.256   1.689  0.4096  0.4796 -1.0413
 1119TIP3   OH224991   3.505   0.630   0.191  0.0428  0.3304  0.3034
 1119TIP3    H124992   3.479   0.553   0.241  0.7906 -0.0143  0.1860
 1119TIP3    H224993   3.425   0.660   0.148  0.3588 -2.9778 -3.2173
 1120TIP3   OH224994   1.462   4.300   7.365 -0.1071  0.4463  0.4434
 1120TIP3    H124995   1.462   4.236   7.294 -1.5982  2.2363 -1.2685
 1120TIP3    H224996   1.527   4.365   7.339  0.7190  0.1539  1.6996
 1121TIP3   OH224997   2.803   1.358   2.337  0.0439 -0.5402 -1.0456
 1121TIP3    H124998   2.721   1.380   2.382 -1.0102 -2.2408 -2.0390
 1121TIP3    H224999   2.848   1.298   2.397  1.1223  1.1807 -0.0358
 1122TIP3   OH225000   1.405   2.102   7.362  0.7272 -0.1557  0.2010
 1122TIP3    H125001   1.386   2.182   7.411 -0.3401  0.0983 -0.5784
 1122TIP3    H225002   1.418   2.131   7.272 -2.0278 -1.0171 -0.5896
 1123TIP3   OH225003   2.205   4.996   7.988 -0.9159  0.0714  0.2899
 1123TIP3    H125004   2.236   5.045   7.912 -1.2728 -1.8229 -1.1615
 1123TIP3    H225005   2.275   5.005   8.053 -0.1550  0.9214 -0.6227
 1124TIP3   OH225006   0.557   2.559   1.242 -0.7724 -0.4723  0.7359
 1124TIP3    H125007   0.609   2.513   1.307  0.8231  1.1002  0.6672
 1124TIP3    H225008   0.573   2.511   1.160 -2.0402 -1.8979  1.2904
 1125TIP3   OH225009   5.755   5.128   0.970 -0.3037 -0.5681  0.3537
 1125TIP3    H125010   5.807   5.082   1.036 -2.3313 -1.7982  1.1871
 1125TIP3    H225011   5.677   5.158   1.017 -1.7140 -1.2966 -1.3953
 1126TIP3   OH225012   3.931   6.443   1.848  0.1638  0.3861 -0.2368
 1126TIP3    H125013   3.940   6.487   1.932 -0.8756 -0.0485  0.1082
 1126TIP3    H225014   4.008   6.472   1.798  2.2441 -1.3490  1.7310
 1127TIP3   OH225015   2.726   2.898   7.265 -0.1948 -0.2455  0.4472
 1127TIP3    H125016   2.657   2.832   7.261 -0.7578  0.2420  1.4329
 1127TIP3    H225017   2.731   2.921   7.358 -0.3999  1.4742  0.0697
 1128TIP3   OH225018   5.072   1.952   8.023 -0.2320  0.6735  0.0973
 1128TIP3    H125019   5.109   1.901   8.095 -1.2375  0.2747  0.3428
 1128TIP3    H225020   5.030   1.887   7.967 -0.0386  1.0574 -0.5033
 1129TIP3   OH225021   6.186   0.210   0.740  0.2569  0.3606  0.0081
 1129TIP3    H125022   6.103   0.164   0.726  0.4658  0.1804 -0.7146
 1129TIP3    H225023   6.161   0.299   0.762 -0.1302  0.5604 -1.1624
 1130TIP3   OH225024   5.495   3.315   1.657  0.0166  0.3403 -0.7264
 1130TIP3    H125025   5.546   3.351   1.584  0.7109  0.4943 -0.1815
 1130TIP3    H225026   5.562   3.284   1.719 -0.5639 -0.1103 -0.3153
 1131TIP3   OH225027   1.425   2.599   2.279  0.2136 -0.1796 -0.5413
 1131TIP3    H125028   1.398   2.546   2.204  1.5158  1.8313 -2.5722
 1131TIP3    H225029   1.520   2.588   2.283  0.5264  2.0017 -1.0869
 1132TIP3   OH225030   2.513   2.415   0.177  0.2025  0.3821  0.0813
 1132TIP3    H125031   2.534   2.435   0.268  0.0967 -3.4122  1.1332
 1132TIP3    H225032   2.585   2.358   0.148 -1.1722 -0.7900 -1.2057
 1133TIP3   OH225033   4.340   0.939   7.640 -0.0419  0.0860 -0.0622
 1133TIP3    H125034   4.264   0.944   7.699  0.2156  1.4535  0.1988
 1133TIP3    H225035   4.350   1.028   7.607  2.2512  0.2719  0.9412
 1134TIP3   OH225036   4.183   2.793   2.821  0.1953  0.1930  0.0836
 1134TIP3    H125037   4.251   2.727   2.804 -1.2715 -1.0774 -1.1946
 1134TIP3    H225038   4.132   2.756   2.893 -1.0689 -0.4778 -1.1126
 1135TIP3   OH225039   6.445   5.119   0.908 -0.4840 -0.2853 -0.0500
 1135TIP3    H125040   6.356   5.098   0.877 -0.4488 -2.6889  1.2137
 1135TIP3    H225041   6.497   5.042   0.885  1.3437  1.1177 -0.8390
 1136TIP3   OH225042   0.170   0.420   8.341 -1.0068  0.5687  0.0207
 1136TIP3    H125043   0.263   0.414   8.364 -0.8814  0.5050 -0.4899
 1136TIP3    H225044   0.169   0.472   8.261 -1.2937 -0.5685 -0.7290
 1137TIP3   OH225045   6.953   2.993   2.144 -0.2965 -0.2267 -0.4721
 1137TIP3    H125046   6.915   3.075   2.175  0.3247  0.3009 -1.0716
 1137TIP3    H225047   6.880   2.930   2.146 -0.1496 -0.4019  2.6172
 1138TIP3   OH225048   4.135   5.159   7.958 -0.0431 -0.3257  0.6009
 1138TIP3    H125049   4.217   5.110   7.962 -0.1208 -0.4985  0.1753
 1138TIP3    H225050   4.103   5.145   7.868  0.5825  1.5559  0.0461
 1139TIP3   OH225051   0.795   1.795   7.706  0.2511 -0.1268 -0.4279
 1139TIP3    H125052   0.807   1.707   7.672 -1.4660 -0.1297 -1.1723
 1139TIP3    H225053   0.747   1.784   7.788 -0.4736  0.1075 -0.8049
 1140TIP3   OH225054   3.417   1.647   0.078  0.2222  0.1284  0.0635
 1140TIP3    H125055   3.485   1.618   0.139 -0.8623  0.9670  1.7404
 1140TIP3    H225056   3.402   1.571   0.021  1.2427 -0.6994  0.8522
 1141TIP3   OH225057   0.310   3.550   2.165  0.6420 -0.5839  0.2228
 1141TIP3    H125058   0.247   3.478   2.171  1.2457 -1.4695 -2.6812
 1141TIP3    H225059   0.273   3.608   2.099  0.7538  1.2300  1.6785
 1142TIP3   OH225060   3.774   5.624   0.178  0.0774 -0.4823  0.2273
 1142TIP3    H125061   3.831   5.548   0.164 -3.0416 -2.7341 -1.3288
 1142TIP3    H225062   3.826   5.698   0.147  2.4976 -2.2206 -0.2091
 1143TIP3   OH225063   1.081   3.658   1.926 -0.2271  0.6969 -0.2882
 1143TIP3    H125064   1.172   3.628   1.928  0.1111  1.7519  0.7661
 1143TIP3    H225065   1.084   3.743   1.882 -0.5119  1.3058  0.8264
 1144TIP3   OH225066   0.694   3.870   1.164  0.0883  0.1087  0.1895
 1144TIP3    H125067   0.763   3.841   1.106  0.4614 -0.1037  0.7324
 1144TIP3    H225068   0.729   3.857   1.252 -1.0100 -0.9642  0.5048
 1145TIP3   OH225069   0.905   6.603   8.144  0.4811  0.0687 -0.4703
 1145TIP3    H125070   0.862   6.518   8.140 -0.4974  0.5277 -0.0543
 1145TIP3    H225071   0.915   6.629   8.052 -3.0061  1.3272 -0.6413
 1146TIP3   OH225072   5.066   1.639   3.202 -0.0681  0.4114  0.7103
 1146TIP3    H125073   5.123   1.563   3.189 -0.8979 -0.2733  0.9492
 1146TIP3    H225074   4.989   1.620   3.149  0.7061  2.2250 -1.1612
 1147TIP3   OH225075   1.030   2.283   0.280 -0.5063  0.3813 -0.1248
 1147TIP3    H125076   0.995   2.367   0.308 -1.0504 -0.1680  0.8811
 1147TIP3    H225077   0.994   2.270   0.192 -1.4236  0.6253  0.2120
 1148TIP3   OH225078   6.843   4.373   2.389  0.3017  0.3604 -0.3625
 1148TIP3    H125079   6.914   4.432   2.361  0.5656  0.1955 -0.0491
 1148TIP3    H225080   6.843   4.379   2.484 -0.5343  0.8464 -0.3852
 1149TIP3   OH225081   6.761   0.608   8.403 -0.7696  0.1487  0.2370
 1149TIP3    H125082   6.822   0.681   8.407 -0.1978 -0.2422 -1.1168
 1149TIP3    H225083   6.737   0.601   8.311 -0.5294 -1.6098  0.2808
 1150TIP3   OH225084   0.434   6.199   7.398 -0.3256  0.3331 -0.1162
 1150TIP3    H125085   0.367   6.240   7.345 -1.3847 -1.1866 -0.0277
 1150TIP3    H225086   0.387   6.164   7.474  0.3366 -1.7042 -0.5691
 1151TIP3   OH225087   2.896   5.226   7.258  0.0868  0.5747 -0.2369
 1151TIP3    H125088   2.827   5.223   7.325  0.5159  3.4715  0.4534
 1151TIP3    H225089   2.977   5.211   7.306  0.1941  0.0640 -0.5708
 1152TIP3   OH225090   3.995   0.436   7.282 -0.5790 -0.0213  0.6165
 1152TIP3    H125091   4.035   0.516   7.247  0.1184  0.0017  1.4339
 1152TIP3    H225092   3.962   0.390   7.205  1.0830 -0.0687 -0.1123
 1153TIP3   OH225093   1.845   4.946   0.318  0.5365  0.0480  0.5114
 1153TIP3    H125094   1.822   4.889   0.245  1.8111  0.7365 -0.4782
 1153TIP3    H225095   1.807   5.031   0.295  2.6721  0.8156 -0.4302
 1154TIP3   OH225096   3.819   5.210   2.774  0.1144  0.0454  0.2525
 1154TIP3    H125097   3.747   5.147   2.772 -0.6003  0.8579  0.3505
 1154TIP3    H225098   3.885   5.172   2.715 -0.9296 -0.0602 -0.8804
 1155TIP3   OH225099   6.155   4.848   7.190  0.8403 -0.9542  0.1396
 1155TIP3    H125100   6.121   4.772   7.237 -0.4553 -0.5042 -0.0308
 1155TIP3    H225101   6.185   4.908   7.258 -1.9285  0.1279  0.5649
 1156TIP3   OH225102   4.277   2.594   2.430 -0.3273  0.0789 -0.4079
 1156TIP3    H125103   4.287   2.564   2.521  0.6952 -0.6052 -0.7150
 1156TIP3    H225104   4.266   2.513   2.380  0.4948  0.3357 -1.0336
 1157TIP3   OH225105   0.830   6.046   7.501  0.2164  0.2394 -0.5613
 1157TIP3    H125106   0.801   5.960   7.471 -1.1359  0.7746 -0.8640
 1157TIP3    H225107   0.904   6.067   7.444 -0.2279 -0.1895 -1.3124
 1158TIP3   OH225108   1.062   1.385   0.896  0.0545  0.5909 -0.5819
 1158TIP3    H125109   1.116   1.442   0.841  0.2394  0.8443 -0.1483
 1158TIP3    H225110   0.980   1.433   0.907 -0.1869  0.2956 -1.0781
 1159TIP3   OH225111   2.198   6.633   8.450  0.1715  0.0320 -0.4254
 1159TIP3    H125112   2.112   6.634   8.492  0.4271 -1.1782  0.1688
 1159TIP3    H225113   2.180   6.652   8.358 -0.7586 -0.3793 -0.3431
 1160TIP3   OH225114   0.713   0.190   2.511  0.0811  0.4899 -0.2351
 1160TIP3    H125115   0.758   0.273   2.527  3.3575 -0.9338 -1.2016
 1160TIP3    H225116   0.738   0.135   2.586 -2.4546  0.4129  0.6536
 1161TIP3   OH225117   4.750   3.910   2.479 -0.5206  0.1411  0.3716
 1161TIP3    H125118   4.659   3.897   2.505 -0.3171 -0.2114  0.9397
 1161TIP3    H225119   4.751   3.995   2.435 -0.7313  1.2973  2.4536
 1162TIP3   OH225120   1.296   4.961   1.015 -0.4338  0.5428  0.2059
 1162TIP3    H125121   1.239   5.016   0.961 -0.0482  1.3688  0.6191
 1162TIP3    H225122   1.379   5.007   1.017 -0.4431  0.5534  1.5190
 1163TIP3   OH225123   0.119   0.928   3.263 -0.2165  0.1751 -0.2907
 1163TIP3    H125124   0.048   0.955   3.320  0.7050  0.6021  0.6943
 1163TIP3    H225125   0.141   1.005   3.212  0.0644  0.2838 -0.0122
 1164TIP3   OH225126   6.065   5.537   8.292 -0.5611  0.6061  0.5223
 1164TIP3    H125127   5.984   5.569   8.253 -0.8376 -0.6938 -0.0023
 1164TIP3    H225128   6.119   5.616   8.302 -1.1319  1.2177 -0.9136
 1165TIP3   OH225129   6.604   3.211   2.821 -0.2147 -0.3026  0.1799
 1165TIP3    H125130   6.520   3.168   2.829  0.9751 -3.3370 -1.7950
 1165TIP3    H225131   6.659   3.172   2.889  1.0194 -2.6087 -1.9472
 1166TIP3   OH225132   3.249   4.463   0.111 -0.0602  0.0822 -0.0454
 1166TIP3    H125133   3.307   4.522   0.159 -0.3580 -0.4819  1.0364
 1166TIP3    H225134   3.285   4.376   0.128  0.2518 -0.0954 -1.4498
 1167TIP3   OH225135   6.172   1.693   1.503 -0.1595  0.0125  0.2123
 1167TIP3    H125136   6.173   1.684   1.408 -0.6676 -1.7310  0.3344
 1167TIP3    H225137   6.083   1.722   1.524 -0.2827 -0.3402  0.1913
 1168TIP3   OH225138   4.071   4.489   0.931  0.0347  0.2639  0.4544
 1168TIP3    H125139   3.976   4.488   0.948  0.1358 -0.2330  1.0370
 1168TIP3    H225140   4.086   4.410   0.879  0.0705  0.5776 -0.0199
 1169TIP3   OH225141   3.265   2.675   1.747  0.6455 -0.6983  0.1130
 1169TIP3    H125142   3.328   2.747   1.751  1.4348 -1.2952 -1.0067
 1169TIP3    H225143   3.313   2.603   1.706 -1.1214 -0.7474 -2.0859
 1170TIP3   OH225144   0.999   1.545   0.243  0.2140 -0.7202 -0.3174
 1170TIP3    H125145   0.993   1.528   0.337  0.5606  0.0963 -0.1405
 1170TIP3    H225146   1.067   1.485   0.212  0.2481 -0.8412 -0.0145
 1171TIP3   OH225147   0.183   1.060   7.622  0.2168  0.7506  0.4769
 1171TIP3    H125148   0.212   0.975   7.587 -1.3707  0.1310  0.5621
 1171TIP3    H225149   0.251   1.121   7.595  0.7052 -0.3025 -0.8313
 1172TIP3   OH225150   3.782   1.819   2.334  0.7400 -0.3269  0.2382
 1172TIP3    H125151   3.871   1.803   2.303  0.5581 -1.1341  0.0969
 1172TIP3    H225152   3.748   1.732   2.355  0.5023  0.0971  1.7556
 1173TIP3   OH225153   5.499   3.949   8.119 -0.0549  0.1929  0.1210
 1173TIP3    H125154   5.421   3.909   8.158 -0.1233 -0.1069 -0.3240
 1173TIP3    H225155   5.509   4.032   8.167 -1.8039  1.1854 -1.1051
 1174TIP3   OH225156   4.965   0.070   0.306  0.0916 -0.0393  0.2570
 1174TIP3    H125157   5.004  -0.013   0.276  0.3596  0.4239 -0.7078
 1174TIP3    H225158   4.902   0.043   0.372  1.5572 -0.8650  1.3847
 1175TIP3   OH225159   5.188   2.663   2.336 -0.0442  0.4100  0.0086
 1175TIP3    H125160   5.282   2.645   2.327 -0.1038  0.7070 -1.3592
 1175TIP3    H225161   5.160   2.607   2.409  1.0811 -0.0821  0.0872
 1176TIP3   OH225162   0.904   3.253   0.633  0.2972 -0.5394 -0.3205
 1176TIP3    H125163   0.921   3.316   0.702 -0.4819  0.6812 -1.2112
 1176TIP3    H225164   0.990   3.215   0.614  0.9616  0.9390 -0.4168
 1177TIP3   OH225165   0.978   3.414   0.842  0.5575 -0.3176  0.2732
 1177TIP3    H125166   0.930   3.409   0.925  0.7673 -0.6329  0.3778
 1177TIP3    H225167   1.069   3.426   0.868  0.6003 -0.2375  0.0828
 1178TIP3   OH225168   4.585   1.998   2.557 -0.1016 -0.7430 -0.3436
 1178TIP3    H125169   4.585   2.091   2.580  1.3683 -0.5105 -1.1600
 1178TIP3    H225170   4.597   1.952   2.641 -0.1507 -0.1773 -0.0231
 1179TIP3   OH225171   3.129   4.541   8.305 -0.1546  0.1833 -0.2213
 1179TIP3    H125172   3.180   4.495   8.372 -1.1781  0.4804  0.7760
 1179TIP3    H225173   3.195   4.590   8.255  0.7794 -1.1174 -0.3355
 1180TIP3   OH225174   6.687   3.010   1.255 -0.1101  0.0381 -0.0187
 1180TIP3    H125175   6.671   3.051   1.340 -1.6774  0.0482 -0.2930
 1180TIP3    H225176   6.604   2.968   1.232  0.4442 -0.4095 -1.3062
 1181TIP3   OH225177   0.742   4.207   0.226 -0.3259  0.2108 -0.2278
 1181TIP3    H125178   0.690   4.194   0.147 -0.0898  3.3856 -1.0382
 1181TIP3    H225179   0.833   4.202   0.197 -0.2359  1.8181 -0.3254
 1182TIP3   OH225180   6.056   3.890   2.069 -0.2322  0.2792  0.5689
 1182TIP3    H125181   5.995   3.868   2.138 -1.9665 -0.2376 -1.0499
 1182TIP3    H225182   6.123   3.943   2.112 -1.7773  0.8324  2.4163
 1183TIP3   OH225183   5.718   3.105   8.027 -0.2862 -1.1771 -0.4014
 1183TIP3    H125184   5.624   3.098   8.014 -0.7546  2.9114 -0.4359
 1183TIP3    H225185   5.728   3.146   8.113  1.2203  1.0145 -1.4998
 1184TIP3   OH225186   2.405   5.694   0.072  0.3254  0.5210  0.4531
 1184TIP3    H125187   2.458   5.619   0.046  0.0422 -0.0249  1.3656
 1184TIP3    H225188   2.466   5.767   0.075  0.4224  0.5551 -1.3743
 1185TIP3   OH225189   0.790   2.020   0.186 -0.2032  0.1031  0.9176
 1185TIP3    H125190   0.831   2.097   0.146 -0.1327  1.0030  2.6244
 1185TIP3    H225191   0.863   1.971   0.224 -0.2424 -0.8707 -0.1978
 1186TIP3   OH225192   3.896   3.407   3.158  0.0613  0.0067 -0.4639
 1186TIP3    H125193   3.876   3.470   3.227  0.3671 -0.5502  0.1409
 1186TIP3    H225194   3.989   3.418   3.140  0.2122 -0.5707 -0.0495
 1187TIP3   OH225195   6.228   6.653   0.173  0.4757  0.2944  0.3231
 1187TIP3    H125196   6.319   6.651   0.202 -0.0215  0.4666  1.9932
 1187TIP3    H225197   6.180   6.688   0.248 -0.9372  0.4565 -0.6251
 1188TIP3   OH225198   2.875   3.459   7.805  0.6850  0.3179 -0.2658
 1188TIP3    H125199   2.795   3.468   7.753  0.0953  1.5161  0.8056
 1188TIP3    H225200   2.944   3.446   7.740 -0.1934  0.6003 -1.2872
 1189TIP3   OH225201   0.392   5.278   1.447 -0.3908  0.3154 -0.6811
 1189TIP3    H125202   0.426   5.190   1.461  0.6013  0.3475 -2.5600
 1189TIP3    H225203   0.402   5.322   1.531  0.7572 -0.8263 -0.1937
 1190TIP3   OH225204   5.095   1.070   0.044 -0.2279 -0.2512 -0.0936
 1190TIP3    H125205   5.012   1.033   0.074 -0.5872 -0.0841 -0.8566
 1190TIP3    H225206   5.162   1.013   0.083 -0.6690 -0.0239  1.0246
 1191TIP3   OH225207   2.429   0.200   0.020  0.0380  0.4872 -0.0914
 1191TIP3    H125208   2.442   0.264   0.090  1.3120  0.9845 -0.7508
 1191TIP3    H225209   2.490   0.227  -0.049 -0.5007 -0.5507 -1.0064
 1192TIP3   OH225210   5.489   6.328   1.186 -0.2209  0.4647 -0.0837
 1192TIP3    H125211   5.476   6.337   1.092 -0.5288 -0.3086 -0.1212
 1192TIP3    H225212   5.416   6.275   1.216  0.1287  0.3088  0.5180
 1193TIP3   OH225213   1.165   5.354   1.740  0.5421 -0.0670 -0.5315
 1193TIP3    H125214   1.260   5.351   1.744  0.5344 -1.2474 -0.8521
 1193TIP3    H225215   1.140   5.271   1.698 -0.7658 -1.1764  2.2022
 1194TIP3   OH225216   3.455   3.092   0.010 -0.2115 -0.5967  0.4047
 1194TIP3    H125217   3.485   3.087  -0.081  1.7503  1.4015  0.8258
 1194TIP3    H225218   3.373   3.141   0.005 -0.0256 -0.3308 -0.3025
 1195TIP3   OH225219   4.025   0.042   1.935 -0.0634 -0.5532 -0.1993
 1195TIP3    H125220   3.931   0.039   1.915 -0.0696  1.2437 -0.6405
 1195TIP3    H225221   4.030   0.083   2.021  0.3569  1.3077 -1.0642
 1196TIP3   OH225222   1.530   0.114   0.756  0.0742  0.3218 -0.3161
 1196TIP3    H125223   1.599   0.120   0.691 -1.3645 -2.3492 -2.2628
 1196TIP3    H225224   1.509   0.021   0.761 -2.1884  0.8322  1.5017
 1197TIP3   OH225225   4.221   6.108   1.673 -0.0468 -0.0388  0.6298
 1197TIP3    H125226   4.211   6.052   1.750 -1.0987  1.2991  1.5242
 1197TIP3    H225227   4.266   6.186   1.705 -2.1480  1.3673  0.4014
 1198TIP3   OH225228   1.926   2.078   2.014  0.0810 -0.1492 -0.2830
 1198TIP3    H125229   1.945   1.996   1.969  1.0134 -0.5725  0.8132
 1198TIP3    H225230   2.011   2.107   2.048 -0.2945  1.0914 -0.3517
 1199TIP3   OH225231   2.182   5.336   1.139 -0.1096  0.1217  0.5099
 1199TIP3    H125232   2.237   5.258   1.149  0.4900  0.4199 -0.3441
 1199TIP3    H225233   2.093   5.305   1.157  0.2113 -0.5884  0.9370
 1200TIP3   OH225234   6.227   2.603   1.303  0.1993  0.1847 -0.0082
 1200TIP3    H125235   6.182   2.642   1.228 -1.3328  1.0144  1.2947
 1200TIP3    H225236   6.201   2.511   1.302 -0.4675  0.3718 -0.0322
 1201TIP3   OH225237   5.770   0.922   2.242 -0.4235  0.0797  0.2201
 1201TIP3    H125238   5.713   0.944   2.168 -0.6903  0.3010  0.4915
 1201TIP3    H225239   5.814   1.004   2.263 -0.5819  0.0892  0.5119
 1202TIP3   OH225240   6.427   1.568   7.725 -0.1221  0.4989 -0.3432
 1202TIP3    H125241   6.399   1.586   7.635 -1.8149 -0.3722 -0.0254
 1202TIP3    H225242   6.512   1.526   7.715  0.4237  1.7517 -1.4413
 1203TIP3   OH225243   0.726   3.511   7.523 -0.1628  0.1640 -0.6317
 1203TIP3    H125244   0.770   3.576   7.468  0.9814 -1.0005 -1.1300
 1203TIP3    H225245   0.746   3.538   7.613  2.0383 -0.6054 -0.8424
 1204TIP3   OH225246   5.962   6.661   1.991 -0.5558 -0.9730  0.1544
 1204TIP3    H125247   5.885   6.632   2.039  0.0184 -0.3645  1.5043
 1204TIP3    H225248   5.944   6.753   1.970  0.2982 -0.4378  1.6154
 1205TIP3   OH225249   4.117   5.603   2.548  0.4142  0.1716  0.0510
 1205TIP3    H125250   4.035   5.589   2.594 -0.0349  1.4353 -0.3219
 1205TIP3    H225251   4.121   5.533   2.483 -1.2649  1.0928 -1.1215
 1206TIP3   OH225252   1.754   2.021   2.274 -0.4009  0.0112 -0.2205
 1206TIP3    H125253   1.827   2.018   2.212 -0.5809 -1.4188 -0.3977
 1206TIP3    H225254   1.720   2.111   2.267 -0.6472 -0.2005 -2.4851
 1207TIP3   OH225255   1.347   3.594   1.900 -0.3744  0.0284 -0.0011
 1207TIP3    H125256   1.331   3.568   1.809  0.7967 -0.6647 -0.0188
 1207TIP3    H225257   1.396   3.522   1.938 -0.4024  0.5382  1.0539
 1208TIP3   OH225258   1.128   3.625   1.441 -0.4843 -0.3051 -0.2014
 1208TIP3    H125259   1.064   3.557   1.462 -0.2081 -0.5519 -0.1553
 1208TIP3    H225260   1.165   3.598   1.357  0.4420 -0.8229  0.3548
 1209TIP3   OH225261   1.609   6.051   1.551 -0.1000 -0.0660  0.2702
 1209TIP3    H125262   1.697   6.049   1.587 -0.1678 -1.9047  0.4090
 1209TIP3    H225263   1.563   5.979   1.593 -2.4774  2.2946  2.0554
 1210TIP3   OH225264   0.071   3.180   2.384  0.4410 -0.0093 -0.1814
 1210TIP3    H125265   0.023   3.254   2.422  0.0323  0.0187 -0.7271
 1210TIP3    H225266   0.012   3.105   2.394  0.7923 -0.2334  0.2345
 1211TIP3   OH225267   6.183   2.153   0.701  0.4691  0.3739  0.1441
 1211TIP3    H125268   6.178   2.071   0.651  2.6827  0.3939 -0.2189
 1211TIP3    H225269   6.147   2.131   0.786 -1.0007 -0.3635 -0.6330
 1212TIP3   OH225270   1.468   5.932   8.018 -0.5704  0.6573 -0.5839
 1212TIP3    H125271   1.540   5.943   7.956 -1.5940 -1.4651 -2.3222
 1212TIP3    H225272   1.395   5.980   7.979 -0.8040  0.6031 -0.2194
 1213TIP3   OH225273   0.887   4.266   1.487  0.1371 -0.0956 -0.2545
 1213TIP3    H125274   0.810   4.323   1.486 -0.4856 -0.9224 -1.1803
 1213TIP3    H225275   0.855   4.182   1.520  1.0136  0.0289  0.9648
 1214TIP3   OH225276   5.542   5.122   7.173 -0.1543  0.0939 -0.5719
 1214TIP3    H125277   5.584   5.168   7.246 -0.9994 -1.0595  0.7011
 1214TIP3    H225278   5.614   5.104   7.112  1.0858 -0.9981  1.0922
 1215TIP3   OH225279   3.922   6.251   0.006 -0.2031 -0.1114 -0.0171
 1215TIP3    H125280   3.906   6.253  -0.088  0.7392 -4.0312 -0.4467
 1215TIP3    H225281   3.847   6.205   0.042  0.1681  0.0118  0.9467
 1216TIP3   OH225282   0.346   0.392   0.785  0.4070 -0.4346 -0.4046
 1216TIP3    H125283   0.254   0.367   0.776  0.0430  0.0289  1.6085
 1216TIP3    H225284   0.367   0.435   0.702 -1.0647 -0.9159 -1.0578
 1217TIP3   OH225285   4.911   6.481   0.496 -0.0586 -0.2023 -0.0513
 1217TIP3    H125286   4.938   6.389   0.487  0.4278  0.1151 -2.6105
 1217TIP3    H225287   4.932   6.504   0.586  3.1726 -1.5867 -0.3471
 1218TIP3   OH225288   4.459   2.455   1.386  0.0959  0.4013 -0.1272
 1218TIP3    H125289   4.473   2.525   1.449 -1.5417 -0.4040  1.2022
 1218TIP3    H225290   4.374   2.474   1.347 -1.2056 -1.6740  1.5008
 1219TIP3   OH225291   3.855   2.357   6.957 -0.0479 -0.6878 -0.4244
 1219TIP3    H125292   3.815   2.433   7.001  0.8049 -0.6670  0.3603
 1219TIP3    H225293   3.825   2.363   6.867  0.9556  1.2864 -0.6786
 1220TIP3   OH225294   5.569   4.278   7.751  0.3827 -0.5090 -0.1528
 1220TIP3    H125295   5.662   4.293   7.734  0.2855  0.4128  0.0481
 1220TIP3    H225296   5.536   4.234   7.673  0.3463  1.9093 -1.5981
 1221TIP3   OH225297   0.707   5.422   1.130  0.4153 -0.0768 -0.3474
 1221TIP3    H125298   0.733   5.430   1.038  0.7908  1.8645 -0.1273
 1221TIP3    H225299   0.615   5.450   1.131  0.1757 -0.8586 -0.2357
 1222TIP3   OH225300   1.335   2.076   0.071 -0.3347  0.2724 -0.0669
 1222TIP3    H125301   1.397   2.013   0.035 -1.3375 -0.1072 -1.2233
 1222TIP3    H225302   1.362   2.088   0.162 -0.4677 -2.3403  0.4063
 1223TIP3   OH225303   0.775   0.327   0.900  0.2203 -0.2631  0.1649
 1223TIP3    H125304   0.865   0.328   0.932 -0.0744 -1.6083  1.0898
 1223TIP3    H225305   0.729   0.388   0.957  0.5808  0.7112 -0.5378
 1224TIP3   OH225306   0.115   4.855   1.275 -0.6619  0.3455 -0.1703
 1224TIP3    H125307   0.175   4.923   1.306 -0.2234 -0.3606  0.5952
 1224TIP3    H225308   0.038   4.865   1.331  0.0119 -0.7383  1.0168
 1225TIP3   OH225309   1.921   3.248   0.101  0.3869 -0.3746 -0.0798
 1225TIP3    H125310   1.861   3.178   0.126  1.5092 -0.8319  1.4197
 1225TIP3    H225311   1.955   3.282   0.183  0.6077  1.3031 -0.8160
 1226TIP3   OH225312   0.740   1.013   7.103  0.1597 -0.2169  0.0796
 1226TIP3    H125313   0.795   0.988   7.029 -0.6202 -1.7470 -0.0465
 1226TIP3    H225314   0.666   0.952   7.098 -1.7183  1.9280  0.0524
 1227TIP3   OH225315   6.111   4.347   3.367 -0.3579  0.6036  0.3362
 1227TIP3    H125316   6.142   4.282   3.304 -0.5851  0.2064  0.6280
 1227TIP3    H225317   6.189   4.392   3.396 -0.2935  1.1098 -0.5752
 1228TIP3   OH225318   1.866   6.657   7.690 -0.7015  0.0214 -0.1913
 1228TIP3    H125319   1.861   6.583   7.750  1.5222 -0.1691 -0.1363
 1228TIP3    H225320   1.849   6.734   7.744 -0.5854 -0.2784  0.2795
 1229TIP3   OH225321   3.809   2.673   0.204  0.1788  0.1930 -0.0070
 1229TIP3    H125322   3.729   2.664   0.256  0.2883 -0.9453 -0.0289
 1229TIP3    H225323   3.869   2.722   0.261  1.6193 -4.0517  2.5362
 1230TIP3   OH225324   0.141   4.598   7.755 -0.8072  0.5935 -0.1585
 1230TIP3    H125325   0.046   4.589   7.767 -0.6960  1.7204  2.0909
 1230TIP3    H225326   0.150   4.670   7.692 -1.4362  0.9037  0.0930
 1231TIP3   OH225327   2.606   0.217   2.643  0.0330 -0.2321 -0.0501
 1231TIP3    H125328   2.654   0.139   2.674  0.1717 -0.2362 -0.2702
 1231TIP3    H225329   2.580   0.262   2.723 -0.2154 -0.6076  0.0830
 1232TIP3   OH225330   4.508   1.918   0.213 -0.4341  0.3741 -0.2446
 1232TIP3    H125331   4.574   1.850   0.227 -1.0472 -0.1456  0.1853
 1232TIP3    H225332   4.553   1.986   0.164  1.0273  1.0076  1.8533
 1233TIP3   OH225333   6.246   3.300   0.106  0.2782  0.1231  0.1564
 1233TIP3    H125334   6.212   3.289   0.195  0.5422  0.6025  0.3212
 1233TIP3    H225335   6.215   3.223   0.059  1.0447 -0.6808  0.9403
 1234TIP3   OH225336   6.762   2.208   1.766 -0.2933 -0.2758 -0.2575
 1234TIP3    H125337   6.832   2.227   1.703  0.6687 -1.5790  0.3760
 1234TIP3    H225338   6.730   2.294   1.792 -0.3585  0.3115 -2.1065
 1235TIP3   OH225339   1.003   6.822   7.380  0.2212  0.8686 -0.0566
 1235TIP3    H125340   0.998   6.778   7.465  2.0858  3.0284  1.3329
 1235TIP3    H225341   0.927   6.880   7.379 -0.0412  0.5269 -0.0574
 1236TIP3   OH225342   0.196   1.935   1.299 -0.1993  0.3738 -0.0314
 1236TIP3    H125343   0.152   1.861   1.258 -0.3377  0.0829  0.6196
 1236TIP3    H225344   0.128   1.978   1.351 -0.1213  0.9649 -0.4100
 1237TIP3   OH225345   0.555   0.375   0.386 -0.6672 -0.5505  0.1486
 1237TIP3    H125346   0.601   0.348   0.465 -0.5443  1.3832  0.7956
 1237TIP3    H225347   0.469   0.403   0.417 -0.9001 -0.5287 -0.5115
 1238TIP3   OH225348   3.671   1.866   1.347  0.4350  0.2249 -0.3663
 1238TIP3    H125349   3.625   1.949   1.338 -1.6286 -0.7618  0.3034
 1238TIP3    H225350   3.631   1.810   1.280  0.8868 -0.5756  0.0178
 1239TIP3   OH225351   0.139   4.511   2.005  0.3825  0.3195  0.4235
 1239TIP3    H125352   0.053   4.553   2.002  1.2576  2.1379 -1.0102
 1239TIP3    H225353   0.124   4.424   1.968 -1.4313 -0.7304  3.2579
 1240TIP3   OH225354   5.231   0.373   2.471 -0.5699 -0.1378  0.0352
 1240TIP3    H125355   5.277   0.322   2.538  1.8547 -1.7108 -2.6236
 1240TIP3    H225356   5.210   0.310   2.403 -3.0246  1.3943 -0.7446
 1241TIP3   OH225357   2.750   1.741   0.188  0.1480 -0.1051  0.1050
 1241TIP3    H125358   2.705   1.667   0.228  0.8016 -1.5524 -1.6924
 1241TIP3    H225359   2.758   1.717   0.096 -0.6036  2.7179 -0.7947
 1242TIP3   OH225360   5.004   2.469   7.464  0.0133  0.2205  0.1714
 1242TIP3    H125361   5.003   2.376   7.442 -1.3969  0.1214  0.5515
 1242TIP3    H225362   5.054   2.510   7.394 -2.7943 -0.2941 -2.3731
 1243TIP3   OH225363   1.929   3.180   3.168 -0.6947  0.2407  0.5474
 1243TIP3    H125364   2.005   3.129   3.141 -1.2672  0.2144 -1.1356
 1243TIP3    H225365   1.966   3.264   3.198  0.0068  0.1783 -0.1228
 1244TIP3   OH225366   3.112   5.596   6.640  0.8542  0.2658 -0.4816
 1244TIP3    H125367   3.025   5.595   6.679  1.6288 -0.2315  1.3612
 1244TIP3    H225368   3.163   5.535   6.693  1.7704 -1.2429 -2.9538
 1245TIP3   OH225369   6.236   3.596   0.639 -0.4501  0.6038  0.1869
 1245TIP3    H125370   6.210   3.637   0.557  1.0530  0.3311 -0.4470
 1245TIP3    H225371   6.163   3.537   0.660 -1.5476  1.8043 -0.1125
 1246TIP3   OH225372   3.233   5.311   7.161 -0.2246 -0.0391  0.0837
 1246TIP3    H125373   3.313   5.322   7.212 -0.3455 -1.6464  0.6860
 1246TIP3    H225374   3.236   5.220   7.132 -0.9449  0.3956 -1.4556
 1247TIP3   OH225375   2.033   0.443   0.392  0.0610  0.5662  0.1782
 1247TIP3    H125376   2.104   0.502   0.367  0.3091  0.2382  0.1006
 1247TIP3    H225377   1.954   0.495   0.381  0.3279  1.1426  0.8658
 1248TIP3   OH225378   0.686   0.054   2.284  0.5518  0.6803 -0.3254
 1248TIP3    H125379   0.751  -0.013   2.305  0.8999  0.7191 -1.2208
 1248TIP3    H225380   0.683   0.109   2.362 -1.3633 -1.5736  1.3240
 1249TIP3   OH225381   3.161   5.715   1.802  0.7963  0.3952  0.2195
 1249TIP3    H125382   3.193   5.663   1.876 -0.4506  0.1909  0.6335
 1249TIP3    H225383   3.183   5.662   1.725 -0.6166 -0.8692  0.6443
 1250TIP3   OH225384   6.490   1.923   7.749 -0.5685 -0.2297 -0.3873
 1250TIP3    H125385   6.493   1.882   7.662 -2.6905 -0.6581 -0.3139
 1250TIP3    H225386   6.439   1.862   7.802 -0.9685  0.9556  0.6265
 1251TIP3   OH225387   5.390   3.416   2.014 -0.0949  0.0036  0.0359
 1251TIP3    H125388   5.446   3.396   2.089  0.4388 -1.4686 -0.7067
 1251TIP3    H225389   5.441   3.480   1.963  0.0650  0.0983  0.3091
 1252TIP3   OH225390   0.570   2.991   2.164 -0.3608 -0.1461  0.1931
 1252TIP3    H125391   0.569   3.055   2.236 -0.1022 -0.2690  0.3080
 1252TIP3    H225392   0.540   3.040   2.088  1.4226  0.5747 -0.1015
 1253TIP3   OH225393   2.892   2.421   3.252 -0.1553 -0.1181  0.7912
 1253TIP3    H125394   2.922   2.464   3.172 -1.2062 -1.0347 -0.1328
 1253TIP3    H225395   2.967   2.368   3.281  0.5185  0.8719  0.9235
 1254TIP3   OH225396   2.228   1.443   2.486  0.7965 -0.2654 -0.6169
 1254TIP3    H125397   2.172   1.422   2.560  2.2387 -2.6472 -0.1031
 1254TIP3    H225398   2.288   1.511   2.520  1.6529 -1.5589  0.5650
 1255TIP3   OH225399   5.271   5.504   8.129 -0.0724  0.1052 -0.4171
 1255TIP3    H125400   5.329   5.434   8.099  2.5688  1.0966  1.8273
 1255TIP3    H225401   5.204   5.460   8.181  0.3993 -0.9081 -0.6479
 1256TIP3   OH225402   1.846   0.767   1.344  0.3228  0.0662 -0.1621
 1256TIP3    H125403   1.783   0.760   1.416 -0.0213 -0.6081 -0.5118
 1256TIP3    H225404   1.883   0.855   1.352  1.1450 -0.3915  1.5259
 1257TIP3   OH225405   2.403   0.695   1.960  0.3381 -0.2860  0.0567
 1257TIP3    H125406   2.464   0.625   1.935 -0.6761 -1.0797 -0.2707
 1257TIP3    H225407   2.327   0.682   1.904 -0.3051  0.4316  0.7332
 1258TIP3   OH225408   6.729   1.073   7.041 -0.2202 -0.4565  0.3057
 1258TIP3    H125409   6.669   1.015   6.993 -1.6632  0.6683  0.6733
 1258TIP3    H225410   6.719   1.158   6.998  1.4050 -0.3071  0.1690
 1259TIP3   OH225411   6.581   2.480   1.488 -0.5549  0.6278  0.3240
 1259TIP3    H125412   6.577   2.563   1.441  1.5223  1.1074  0.8906
 1259TIP3    H225413   6.614   2.418   1.423 -0.0609  0.7379  0.4648
 1260TIP3   OH225414   4.683   1.918   2.333 -0.5172 -0.3133 -0.2616
 1260TIP3    H125415   4.642   1.934   2.418 -0.2529  0.6639 -0.3029
 1260TIP3    H225416   4.634   1.973   2.272 -0.6827 -0.9849 -0.7336
 1261TIP3   OH225417   3.724   3.581   0.176 -0.3480  0.1023 -0.2697
 1261TIP3    H125418   3.796   3.624   0.130  1.2689  1.0302  2.8594
 1261TIP3    H225419   3.738   3.488   0.160  0.7062  0.3457 -0.8796
 1262TIP3   OH225420   5.111   0.436   8.075  0.2553  0.1471 -0.5993
 1262TIP3    H125421   5.169   0.362   8.056  3.2433  2.5299 -1.6430
 1262TIP3    H225422   5.146   0.474   8.156  1.1120  2.3720 -1.9063
 1263TIP3   OH225423   3.370   5.565   7.318  0.2938 -0.1446  0.0732
 1263TIP3    H125424   3.410   5.652   7.314 -1.7375  0.8757  0.6390
 1263TIP3    H225425   3.402   5.529   7.401  0.4472  0.4344  0.2739
 1264TIP3   OH225426   6.384   2.228   7.193 -0.4730 -0.7087  0.0533
 1264TIP3    H125427   6.329   2.270   7.126 -0.3538  0.1198  0.4653
 1264TIP3    H225428   6.408   2.299   7.253 -1.5891 -1.6465  1.6903
 1265TIP3   OH225429   6.263   1.244   7.648 -0.0625 -0.9160 -0.2639
 1265TIP3    H125430   6.218   1.181   7.705  0.0366 -0.3442  0.4590
 1265TIP3    H225431   6.213   1.325   7.658  2.0613  0.2613  1.9385
 1266TIP3   OH225432   2.415   2.082   8.081  0.2914  0.6373  0.1852
 1266TIP3    H125433   2.432   2.103   8.173  0.7498 -0.9340  0.5008
 1266TIP3    H225434   2.483   2.018   8.059 -0.5571  0.0766 -0.8865
 1267TIP3   OH225435   0.477   1.635   1.216 -0.1298  0.0293 -0.1242
 1267TIP3    H125436   0.407   1.587   1.171  1.3947 -0.0942 -2.5638
 1267TIP3    H225437   0.514   1.572   1.277 -0.6362 -0.6537 -0.4982
 1268TIP3   OH225438   5.799   5.665   0.203 -0.1117  0.6977 -0.6106
 1268TIP3    H125439   5.856   5.739   0.182  1.8731 -0.3073  0.9990
 1268TIP3    H225440   5.795   5.664   0.298  0.1321 -1.4187 -0.5872
 1269TIP3   OH225441   1.391   0.909   1.637 -0.1518 -0.4644 -0.0168
 1269TIP3    H125442   1.354   0.887   1.722  0.8594 -0.1541  0.5275
 1269TIP3    H225443   1.429   0.827   1.605  1.6179 -0.1022  0.9788
 1270TIP3   OH225444   0.417   0.261   7.670  0.3980  0.0719  0.2261
 1270TIP3    H125445   0.358   0.221   7.734  0.4840  0.7907  0.7642
 1270TIP3    H225446   0.365   0.330   7.629  0.4937 -0.0753 -0.1449
 1271TIP3   OH225447   6.499   6.017   8.340  0.6482  0.2186 -0.5139
 1271TIP3    H125448   6.547   5.952   8.290  0.1405 -1.5364  1.1661
 1271TIP3    H225449   6.475   5.973   8.421 -2.3461  1.5010 -0.5513
 1272TIP3   OH225450   5.425   1.509   1.373  0.9664 -0.2511  0.2367
 1272TIP3    H125451   5.384   1.548   1.450 -0.7125  1.2030 -1.2921
 1272TIP3    H225452   5.367   1.436   1.350  0.0867  0.7884 -0.9734
 1273TIP3   OH225453   6.904   2.813   0.813  0.1499 -0.3328 -0.3004
 1273TIP3    H125454   6.860   2.894   0.839 -1.1645 -1.6921  2.0705
 1273TIP3    H225455   6.984   2.810   0.864  0.6265 -0.1599 -1.0165
 1274TIP3   OH225456   4.431   2.300   1.932  0.0315 -0.0005  0.2614
 1274TIP3    H125457   4.414   2.280   2.024 -0.7144 -0.2711  0.0720
 1274TIP3    H225458   4.379   2.378   1.914  0.3044  0.1481  0.1081
 1275TIP3   OH225459   0.239   1.236   2.567 -0.0020  0.0593 -0.5302
 1275TIP3    H125460   0.288   1.201   2.641  0.8255 -0.3534 -1.2407
 1275TIP3    H225461   0.150   1.202   2.578  0.3453 -0.7843 -0.2224
 1276TIP3   OH225462   5.614   2.665   7.198  0.1677  0.1366 -0.0801
 1276TIP3    H125463   5.547   2.673   7.130 -0.7315 -1.0431  0.6236
 1276TIP3    H225464   5.691   2.709   7.161 -1.0703  1.8173 -0.7709
 1277TIP3   OH225465   4.285   6.794   1.942 -0.1026 -0.5307 -0.2888
 1277TIP3    H125466   4.299   6.708   1.983 -2.2363 -0.7159  0.1417
 1277TIP3    H225467   4.203   6.786   1.895  0.0749  1.0548 -0.9340
 1278TIP3   OH225468   1.845   5.223   0.162 -0.4885 -0.4642 -0.4130
 1278TIP3    H125469   1.817   5.280   0.090 -0.7942 -1.1460 -0.8533
 1278TIP3    H225470   1.763   5.193   0.201 -0.3222  0.4917  0.7198
 1279TIP3   OH225471   3.726   3.908   8.366 -0.0233 -0.3371  0.6171
 1279TIP3    H125472   3.761   3.912   8.277  0.6812 -0.2662  0.8893
 1279TIP3    H225473   3.658   3.841   8.362 -0.4710  0.1518 -0.1319
 1280TIP3   OH225474   4.618   5.720   2.601  0.4424 -0.3065 -0.0373
 1280TIP3    H125475   4.636   5.798   2.549 -0.9140  0.3504  0.4156
 1280TIP3    H225476   4.696   5.666   2.592  0.6180  0.2057 -1.9731
 1281TIP3   OH225477   6.805   5.466   0.628 -0.6948 -0.6277  0.2295
 1281TIP3    H125478   6.782   5.440   0.539 -0.8905 -0.4147  0.2163
 1281TIP3    H225479   6.797   5.561   0.629  3.0053 -0.1627 -0.5712
 1282TIP3   OH225480   6.233   4.646   3.187 -0.5080 -0.5190  0.4248
 1282TIP3    H125481   6.231   4.605   3.274  0.3866 -1.4016  0.0428
 1282TIP3    H225482   6.326   4.665   3.172 -0.4709 -1.6646 -0.9182
 1283TIP3   OH225483   3.529   0.548   2.133 -0.0086 -0.4903 -0.0000
 1283TIP3    H125484   3.499   0.487   2.066 -0.1485 -0.0403 -0.3498
 1283TIP3    H225485   3.450   0.566   2.186 -1.0203  2.3884 -2.2111
 1284TIP3   OH225486   4.498   4.249   8.395  0.0473 -0.1297 -0.4925
 1284TIP3    H125487   4.472   4.341   8.389  1.6274  0.2818 -1.4879
 1284TIP3    H225488   4.547   4.243   8.477 -0.1466 -0.1188 -0.3746
 1285TIP3   OH225489   1.023   6.249   7.723  0.4084 -0.1481  0.6365
 1285TIP3    H125490   1.023   6.342   7.698 -1.0747 -0.0057  1.0849
 1285TIP3    H225491   1.056   6.204   7.645 -1.7058  0.5209 -0.7519
 1286TIP3   OH225492   5.267   4.165   7.960 -0.1250 -0.4656  0.5189
 1286TIP3    H125493   5.332   4.128   7.900 -0.3071  1.6977 -1.1182
 1286TIP3    H225494   5.227   4.088   8.002  1.0877 -1.9932 -0.9607
 1287TIP3   OH225495   1.760   4.500   2.729  0.3035 -0.4225 -0.2885
 1287TIP3    H125496   1.839   4.554   2.727  2.5242 -3.3048  1.9266
 1287TIP3    H225497   1.776   4.432   2.663 -1.4242  0.1812 -1.4141
 1288TIP3   OH225498   5.120   5.360   8.299  0.3735  0.8326 -0.4975
 1288TIP3    H125499   5.170   5.281   8.319  0.5109  0.6802 -1.4240
 1288TIP3    H225500   5.030   5.329   8.291  0.4027  0.8013 -0.6961
 1289TIP3   OH225501   3.184   1.865   2.374 -0.0459  0.0225  0.0294
 1289TIP3    H125502   3.107   1.908   2.413  0.6475  0.6377  0.7657
 1289TIP3    H225503   3.152   1.830   2.291 -0.3903  3.1402 -1.3005
 1290TIP3   OH225504   1.834   0.604   0.241  0.5122 -0.5805  0.1719
 1290TIP3    H125505   1.831   0.695   0.270  1.4611 -0.6167  0.3906
 1290TIP3    H225506   1.750   0.567   0.270  0.5265 -0.0346  0.9312
 1291TIP3   OH225507   6.079   2.468   0.510 -0.3981  0.3283  0.0510
 1291TIP3    H125508   6.078   2.526   0.433 -0.0680  1.1333  0.6376
 1291TIP3    H225509   6.170   2.438   0.515 -0.7633 -1.0325 -0.8036
 1292TIP3   OH225510   1.107   0.768   0.759 -0.2608  0.1734  0.3512
 1292TIP3    H125511   1.135   0.854   0.790 -0.5634  0.5888 -0.4980
 1292TIP3    H225512   1.107   0.775   0.664  1.0705 -1.2169  0.2020
 1293TIP3   OH225513   2.061   2.476   2.847 -0.6514 -0.0526  0.7884
 1293TIP3    H125514   2.063   2.565   2.881 -1.2324  0.1176  0.4062
 1293TIP3    H225515   1.978   2.471   2.799 -0.3708 -0.6252  0.3470
 1294TIP3   OH225516   1.068   2.020   0.236  0.4076  0.3811  0.2531
 1294TIP3    H125517   1.088   2.039   0.144  1.6649  1.0180  0.6396
 1294TIP3    H225518   1.071   2.105   0.280 -0.6138  0.1411  0.8277
 1295TIP3   OH225519   1.381   4.834   1.481 -0.5501 -0.0589 -0.2115
 1295TIP3    H125520   1.386   4.768   1.413 -2.5833  0.8422 -1.3076
 1295TIP3    H225521   1.288   4.842   1.501 -0.2619  1.7041  0.6468
 1296TIP3   OH225522   6.709   1.186   1.856 -0.0623  0.8564 -0.6087
 1296TIP3    H125523   6.658   1.240   1.917  0.1358  0.6381 -0.2414
 1296TIP3    H225524   6.795   1.178   1.898  0.6087  2.0443 -1.7010
 1297TIP3   OH225525   5.053   1.250   2.663  0.2925 -0.7707 -0.4613
 1297TIP3    H125526   5.118   1.206   2.718  0.8340 -0.9054 -1.1993
 1297TIP3    H225527   5.020   1.321   2.718  1.0474 -0.7137 -0.0648
 1298TIP3   OH225528   4.018   3.017   1.162 -0.2877 -0.5825  0.1318
 1298TIP3    H125529   3.926   3.032   1.141  0.5407  3.2259 -1.5763
 1298TIP3    H225530   4.036   3.078   1.234  0.9597 -1.1298  0.3037
 1299TIP3   OH225531   6.543   5.190   1.863  0.5874 -0.0886 -0.3298
 1299TIP3    H125532   6.472   5.246   1.896  0.0922  0.0641 -1.6014
 1299TIP3    H225533   6.561   5.224   1.775  1.2380 -1.0460 -0.5774
 1300TIP3   OH225534   3.964   4.693   0.565 -0.0764  0.3874  0.1363
 1300TIP3    H125535   4.025   4.645   0.508  0.7789 -1.4111  2.4027
 1300TIP3    H225536   4.016   4.762   0.604  0.4166 -0.7813  1.6199
 1301TIP3   OH225537   5.168   2.690   7.081  0.2366 -0.4880 -0.0509
 1301TIP3    H125538   5.253   2.659   7.047  0.9564  0.7508  0.5670
 1301TIP3    H225539   5.177   2.683   7.176  0.5201  1.7483  0.1384
 1302TIP3   OH225540   1.347   6.860   6.360  0.3343 -0.2611  0.0897
 1302TIP3    H125541   1.397   6.778   6.354  0.0324 -0.5786  1.5115
 1302TIP3    H225542   1.255   6.832   6.354  0.2510  0.0641 -0.1707
 1303TIP3   OH225543   6.609   1.416   7.977 -0.0925  0.6998 -0.3557
 1303TIP3    H125544   6.616   1.472   7.899 -0.9353  2.2039  0.5969
 1303TIP3    H225545   6.664   1.459   8.042 -1.2729  0.8160  0.6033
 1304TIP3   OH225546   3.013   4.734   1.567 -0.5039  0.0167 -0.0298
 1304TIP3    H125547   3.014   4.720   1.473 -1.8633 -0.9189  0.0692
 1304TIP3    H225548   2.934   4.688   1.598  0.7988 -1.1521  1.7807
 1305TIP3   OH225549   4.162   5.630   8.433 -0.2511  0.5172 -0.2145
 1305TIP3    H125550   4.128   5.632   8.523 -2.3677  0.4106 -0.9514
 1305TIP3    H225551   4.222   5.704   8.429  0.8420 -0.1983  1.6056
 1306TIP3   OH225552   6.203   2.882   2.143 -0.5011  0.5357 -0.3165
 1306TIP3    H125553   6.285   2.849   2.108 -0.7403  0.3949 -0.7563
 1306TIP3    H225554   6.186   2.963   2.095 -1.4990 -0.3370 -1.5177
 1307TIP3   OH225555   0.379   2.491   0.314  0.1775 -0.5480  0.0698
 1307TIP3    H125556   0.473   2.493   0.294  0.9065 -1.6460  2.9159
 1307TIP3    H225557   0.354   2.399   0.301  0.0430 -0.7119  1.4152
 1308TIP3   OH225558   0.338   4.730   1.956  0.0073 -0.7692  0.3409
 1308TIP3    H125559   0.309   4.646   1.919  1.1000 -1.3224  0.6990
 1308TIP3    H225560   0.353   4.712   2.048  0.4063 -0.2179  0.3881
 1309TIP3   OH225561   1.454   6.421   8.283  0.2480 -0.4219  0.5292
 1309TIP3    H125562   1.394   6.429   8.209  0.1786 -0.5746  0.5677
 1309TIP3    H225563   1.457   6.508   8.322  0.0714 -0.4084  0.5110
 1310TIP3   OH225564   0.331   6.840   0.032  1.2119  0.3020  0.1928
 1310TIP3    H125565   0.342   6.881  -0.054  2.4954  3.2106  1.6132
 1310TIP3    H225566   0.236   6.838   0.045  1.0611  1.9746 -0.3862
 1311TIP3   OH225567   2.359   1.303   0.280  0.0157  0.3259  0.1569
 1311TIP3    H125568   2.452   1.323   0.266  0.0375  0.2062  0.1266
 1311TIP3    H225569   2.360   1.237   0.349 -0.0821  0.8106  0.6326
 1312TIP3   OH225570   4.606   3.563   2.102  0.4276  0.3452  0.5585
 1312TIP3    H125571   4.642   3.635   2.155  0.0518  0.4074  0.7338
 1312TIP3    H225572   4.682   3.525   2.058  1.0122 -0.8003  2.4478
 1313TIP3   OH225573   6.632   4.404   1.164  0.3510 -0.8408 -0.5629
 1313TIP3    H125574   6.629   4.308   1.171  2.1722 -0.9982 -1.3764
 1313TIP3    H225575   6.696   4.431   1.230  1.2062 -0.3681 -1.5581
 1314TIP3   OH225576   3.160   3.719   8.448 -0.6713 -0.0581  0.4516
 1314TIP3    H125577   3.159   3.733   8.542 -1.5202  0.5728  0.3572
 1314TIP3    H225578   3.076   3.677   8.429 -1.5034  1.8407 -0.3028
 1315TIP3   OH225579   5.070   4.688   1.596  0.0843  0.4135  0.0661
 1315TIP3    H125580   5.148   4.657   1.551 -1.9844 -0.9339 -2.8727
 1315TIP3    H225581   5.013   4.612   1.602 -1.3121  1.5013  1.5009
 1316TIP3   OH225582   5.133   4.228   7.567  0.2506 -0.1699  0.0202
 1316TIP3    H125583   5.059   4.170   7.552  0.3375 -0.5992  1.1879
 1316TIP3    H225584   5.144   4.274   7.483 -0.5880 -0.9333 -0.5314
 1317TIP3   OH225585   4.148   2.361   7.655 -0.0871  0.2287 -0.5394
 1317TIP3    H125586   4.151   2.417   7.732  0.1222  0.4769 -0.7226
 1317TIP3    H225587   4.219   2.298   7.668 -0.5896 -0.2569 -0.1386
 1318TIP3   OH225588   2.959   3.826   8.136  0.2086 -0.0831  0.2547
 1318TIP3    H125589   2.923   3.895   8.191  0.5809 -0.2046  0.6608
 1318TIP3    H225590   3.050   3.817   8.165  0.1148 -0.8702  0.3401
 1319TIP3   OH225591   3.470   5.590   0.611 -0.5787 -0.1451 -0.2891
 1319TIP3    H125592   3.492   5.635   0.529 -3.0341  0.2908 -0.7890
 1319TIP3    H225593   3.504   5.646   0.680 -0.7782  0.8332 -0.9747
 1320TIP3   OH225594   3.940   5.544   7.636  0.1477  0.0216  0.1765
 1320TIP3    H125595   3.877   5.568   7.704 -0.6985  2.7258 -1.4258
 1320TIP3    H225596   4.025   5.546   7.681 -0.4910  0.5450  1.4162
 1321TIP3   OH225597   1.281   5.929   1.301 -0.3911  0.5274 -0.0948
 1321TIP3    H125598   1.267   5.874   1.378 -1.1702  2.3046  1.0918
 1321TIP3    H225599   1.226   5.890   1.233  0.0092 -0.8292  0.3241
 1322TIP3   OH225600   5.500   0.236   2.499 -0.6344  0.5389  0.2905
 1322TIP3    H125601   5.571   0.258   2.559 -0.4971 -1.5992  0.9910
 1322TIP3    H225602   5.533   0.259   2.412 -0.0674  1.8287  0.8253
 1323TIP3   OH225603   3.896   0.767   6.788 -0.3279  0.0146 -0.1127
 1323TIP3    H125604   3.801   0.759   6.775 -1.2205  0.7869  4.1353
 1323TIP3    H225605   3.912   0.862   6.786  0.3231 -0.1027 -0.5747
 1324TIP3   OH225606   6.244   3.804   2.739  0.4638  0.1709 -0.4018
 1324TIP3    H125607   6.311   3.836   2.799  2.2360 -0.7006 -1.8158
 1324TIP3    H225608   6.208   3.726   2.781  2.4080 -1.0367 -0.8188
 1325TIP3   OH225609   2.598   4.689   1.746 -0.5513  0.0741  0.1895
 1325TIP3    H125610   2.653   4.756   1.786 -1.7102  1.0461  0.2038
 1325TIP3    H225611   2.587   4.717   1.655 -1.9124  0.5049  0.4632
 1326TIP3   OH225612   1.609   0.149   0.323  0.1625  0.4506 -0.2950
 1326TIP3    H125613   1.594   0.143   0.228  1.0716 -1.7108 -0.3606
 1326TIP3    H225614   1.524   0.173   0.359 -0.6595 -0.4771 -1.5245
 1327TIP3   OH225615   3.569   1.977   6.639 -0.2581 -0.4634 -0.7258
 1327TIP3    H125616   3.624   2.034   6.693  0.1906 -0.3474 -1.2968
 1327TIP3    H225617   3.597   1.888   6.662 -0.7904 -0.4530 -0.0122
 1328TIP3   OH225618   2.488   3.364   7.049 -0.5772  0.0719 -0.5076
 1328TIP3    H125619   2.421   3.388   6.985 -1.5932  2.3274  1.2477
 1328TIP3    H225620   2.552   3.436   7.044 -0.7477  0.3636  1.0462
 1329TIP3   OH225621   0.682   4.429   1.088 -0.0680  0.3239  0.0054
 1329TIP3    H125622   0.686   4.505   1.147 -0.4629  1.5007 -1.4212
 1329TIP3    H225623   0.713   4.462   1.004 -1.7683 -0.6519 -1.0828
 1330TIP3   OH225624   1.814   4.743   0.118 -0.3124 -0.0421 -0.0869
 1330TIP3    H125625   1.791   4.700   0.036 -0.5613 -0.3422  0.1384
 1330TIP3    H225626   1.868   4.680   0.164 -0.9187 -0.2343  0.3718
 1331TIP3   OH225627   3.608   0.265   1.777 -0.2610  0.2504 -0.0445
 1331TIP3    H125628   3.624   0.299   1.689 -2.2137  1.1218 -0.1183
 1331TIP3    H225629   3.561   0.335   1.822 -4.3951 -2.0848 -0.1597
 1332TIP3   OH225630   3.830   3.049   1.422  0.2613  0.2630 -0.2175
 1332TIP3    H125631   3.879   3.119   1.465 -1.3155  0.5531  1.2286
 1332TIP3    H225632   3.804   3.087   1.337  0.9071  0.7750 -0.1949
 1333TIP3   OH225633   2.722   5.110   2.806 -0.4488  0.0210  0.3701
 1333TIP3    H125634   2.808   5.135   2.843 -0.9731 -0.6783  2.1698
 1333TIP3    H225635   2.734   5.020   2.777 -0.0032  0.6067 -1.4173
 1334TIP3   OH225636   0.073   1.333   1.880 -0.0739 -0.5003  0.0580
 1334TIP3    H125637   0.008   1.274   1.918  0.5099  0.5883  2.9797
 1334TIP3    H225638   0.137   1.274   1.839 -1.1446 -1.7284  0.0911
 1335TIP3   OH225639   2.943   6.557   8.374 -0.4004 -0.3979 -0.2402
 1335TIP3    H125640   2.882   6.503   8.424 -1.4053  0.6246 -0.3349
 1335TIP3    H225641   2.888   6.613   8.320  0.6554 -0.6363 -1.6171
 1336TIP3   OH225642   3.144   3.748   0.250 -0.2169  0.6302  0.1938
 1336TIP3    H125643   3.139   3.836   0.287  2.8849  0.6000  0.9385
 1336TIP3    H225644   3.176   3.694   0.322  2.1872 -0.2033 -1.3800
 1337TIP3   OH225645   6.212   3.073   8.402 -0.2709  0.1114  0.5579
 1337TIP3    H125646   6.308   3.070   8.407  0.0591  1.5854 -2.6182
 1337TIP3    H225647   6.189   3.008   8.335 -1.3387  0.8506  0.1827
 1338TIP3   OH225648   4.815   1.120   2.436 -0.4691 -0.0578 -0.1472
 1338TIP3    H125649   4.904   1.113   2.402 -0.2410 -1.6264  0.6509
 1338TIP3    H225650   4.804   1.212   2.459  1.8602 -0.2180  2.0365
 1339TIP3   OH225651   5.636   1.055   0.830  0.6169  0.5003 -0.0862
 1339TIP3    H125652   5.628   1.106   0.910 -0.0948  2.0935 -1.1015
 1339TIP3    H225653   5.554   1.072   0.783 -0.5088 -3.0858  0.2919
 1340TIP3   OH225654   4.106   4.584   3.076 -0.7430 -0.8224 -0.1060
 1340TIP3    H125655   4.169   4.597   3.006 -1.9957 -0.7511 -1.2492
 1340TIP3    H225656   4.046   4.517   3.043 -0.0418 -2.5087  1.8279
 1341TIP3   OH225657   1.772   6.831   1.978 -0.5862  0.0862  0.0865
 1341TIP3    H125658   1.742   6.784   2.056  0.6068 -2.3690 -0.8254
 1341TIP3    H225659   1.867   6.835   1.987 -0.6210  2.0061 -0.0995
 1342TIP3   OH225660   4.369   6.603   2.200  0.3596  0.5011  0.0634
 1342TIP3    H125661   4.440   6.640   2.251  1.0479  3.5986 -2.7827
 1342TIP3    H225662   4.405   6.521   2.166  0.7005 -0.4279  2.4700
 1343TIP3   OH225663   5.608   0.851   1.177 -0.2293  0.4288  0.2849
 1343TIP3    H125664   5.604   0.913   1.105  0.5423 -0.2943 -0.3926
 1343TIP3    H225665   5.690   0.804   1.165 -2.0512 -2.7741 -0.9635
 1344TIP3   OH225666   6.359   3.800   1.365  0.4040 -0.0919  0.0869
 1344TIP3    H125667   6.334   3.857   1.292  0.4931 -0.1066  0.0439
 1344TIP3    H225668   6.297   3.727   1.361 -1.0182  0.9906  1.3875
 1345TIP3   OH225669   2.232   5.007   0.232  0.5203 -0.4087 -0.3662
 1345TIP3    H125670   2.147   5.014   0.188  1.1340 -2.5559 -2.0983
 1345TIP3    H225671   2.278   5.087   0.207 -0.6177  0.3184 -0.2243
 1346TIP3   OH225672   2.028   2.896   1.471  0.4950 -0.3588  0.5161
 1346TIP3    H125673   2.021   2.979   1.423 -1.8087 -1.1201 -0.6235
 1346TIP3    H225674   2.108   2.856   1.437  1.6108  1.3119  1.0280
 1347TIP3   OH225675   3.531   2.473   7.712 -0.3368 -0.2764 -0.6308
 1347TIP3    H125676   3.534   2.492   7.806  1.8011 -0.6799 -0.5597
 1347TIP3    H225677   3.544   2.378   7.707 -1.1089 -0.3572 -1.3398
 1348TIP3   OH225678   0.212   3.193   0.841  0.9468  0.0530  0.4054
 1348TIP3    H125679   0.205   3.121   0.903  0.8999  0.2888  0.6731
 1348TIP3    H225680   0.245   3.266   0.892  0.8543  0.2650  0.1657
 1349TIP3   OH225681   5.615   1.896   1.775 -0.0241 -0.2427  0.7782
 1349TIP3    H125682   5.669   1.890   1.695 -0.7184  0.7375  0.2100
 1349TIP3    H225683   5.588   1.806   1.792 -1.1393 -0.3113 -1.0198
 1350TIP3   OH225684   0.754   6.364   1.228 -0.1095  0.2992  0.1973
 1350TIP3    H125685   0.708   6.426   1.172 -0.2437  1.4304  1.5095
 1350TIP3    H225686   0.845   6.392   1.225  0.4535 -1.4816 -1.7958
 1351TIP3   OH225687   6.668   2.809   2.639 -0.0217 -0.3877 -0.7675
 1351TIP3    H125688   6.653   2.720   2.607  1.0679 -1.3474  1.2032
 1351TIP3    H225689   6.611   2.816   2.716 -1.6412  1.3961 -2.0607
 1352TIP3   OH225690   1.516   0.161   0.070 -0.3166 -0.0033 -0.1473
 1352TIP3    H125691   1.492   0.068   0.074  0.5173 -0.3386 -1.7492
 1352TIP3    H225692   1.472   0.193  -0.009  4.6010 -0.8402 -3.7665
 1353TIP3   OH225693   6.910   3.158   1.725 -0.3148  0.4636  0.3850
 1353TIP3    H125694   6.911   3.063   1.719  2.3969  0.3506  1.2367
 1353TIP3    H225695   6.993   3.186   1.686 -1.6693  2.6302 -1.1918
 1354TIP3   OH225696   6.545   2.052   1.722 -0.4594 -0.2327 -0.0343
 1354TIP3    H125697   6.598   2.128   1.745 -1.2953  0.0937  0.8688
 1354TIP3    H225698   6.472   2.088   1.671 -1.5804 -0.2271  1.5175
 1355TIP3   OH225699   5.372   4.614   0.749 -0.3903 -0.5278  0.2579
 1355TIP3    H125700   5.284   4.578   0.757 -0.9518  0.8182  0.2772
 1355TIP3    H225701   5.386   4.625   0.655 -0.5645  0.0293  0.2957
 1356TIP3   OH225702   4.913   0.766   8.292 -0.5784  0.0759 -0.3328
 1356TIP3    H125703   4.933   0.814   8.372 -1.4989 -1.1784  0.6987
 1356TIP3    H225704   4.817   0.763   8.289 -0.6129  1.3270 -2.2653
 1357TIP3   OH225705   2.763   0.759   1.361  0.6153 -0.5545 -0.9487
 1357TIP3    H125706   2.689   0.748   1.301 -1.8086  2.0386  1.2439
 1357TIP3    H225707   2.787   0.851   1.353  0.7945 -0.3467  1.2710
 1358TIP3   OH225708   3.746   6.908   0.453 -0.3160 -0.1326 -0.2035
 1358TIP3    H125709   3.808   6.865   0.513  1.3710  0.7593 -1.2524
 1358TIP3    H225710   3.794   6.918   0.371 -1.9821  0.3044 -1.1850
 1359TIP3   OH225711   1.101   4.381   8.000  0.1954  0.7580 -0.5737
 1359TIP3    H125712   1.044   4.414   7.930  0.4029 -1.0580 -1.6791
 1359TIP3    H225713   1.183   4.358   7.955  0.7054  0.5001  0.4565
 1360TIP3   OH225714   4.449   0.996   1.036 -0.1749 -0.6733  0.0791
 1360TIP3    H125715   4.537   1.030   1.054 -0.4730  0.6824 -0.8835
 1360TIP3    H225716   4.461   0.940   0.959  0.0531 -1.5604  0.7434
 1361TIP3   OH225717   0.962   4.984   0.813 -0.3142 -0.9959  0.2600
 1361TIP3    H125718   0.934   5.036   0.888  0.2802 -2.3883  1.4966
 1361TIP3    H225719   0.900   5.006   0.744 -0.3491  0.9801  0.8601
 1362TIP3   OH225720   2.094   0.654   8.105  0.9730 -0.6842 -0.2613
 1362TIP3    H125721   2.052   0.664   8.191 -1.6493  2.3236 -1.6771
 1362TIP3    H225722   2.067   0.568   8.074 -2.2873  0.1386 -0.0247
 1363TIP3   OH225723   5.732   0.675   6.957  0.1332 -0.3073 -0.0547
 1363TIP3    H125724   5.651   0.675   6.906  0.9931  1.2140 -1.5447
 1363TIP3    H225725   5.796   0.719   6.900  1.6115 -0.1130  1.6631
 1364TIP3   OH225726   4.204   0.930   0.667  0.4087  0.3232 -0.1804
 1364TIP3    H125727   4.176   0.943   0.757  0.3882  0.7351 -0.2464
 1364TIP3    H225728   4.291   0.969   0.662  0.8145 -0.5381 -0.0985
 1365TIP3   OH225729   5.946   2.091   7.927 -0.1425 -0.5285  0.5134
 1365TIP3    H125730   6.010   2.161   7.915  1.4977 -1.7953  1.4242
 1365TIP3    H225731   5.912   2.074   7.839 -0.2382  1.0538  0.2121
 1366TIP3   OH225732   4.138   5.115   8.362 -0.0077  0.8051  0.1831
 1366TIP3    H125733   4.053   5.088   8.398  1.7186 -1.5560  2.9972
 1366TIP3    H225734   4.171   5.180   8.423  0.4418  1.3853 -0.6507
 1367TIP3   OH225735   2.089   4.894   0.458 -0.0883  0.2448  0.4782
 1367TIP3    H125736   2.118   4.893   0.367 -1.0170 -0.9465  0.1567
 1367TIP3    H225737   2.007   4.943   0.456 -1.5089 -1.9697  0.1303
 1368TIP3   OH225738   6.313   0.990   0.825 -0.0292 -0.0203  0.4846
 1368TIP3    H125739   6.229   0.955   0.854  0.3805  0.4955  2.4340
 1368TIP3    H225740   6.368   0.912   0.813  0.0190 -0.2612  1.9899
 1369TIP3   OH225741   0.264   2.386   8.265  0.3138  0.0196 -0.4333
 1369TIP3    H125742   0.257   2.419   8.175  1.6534 -0.1390 -0.6168
 1369TIP3    H225743   0.314   2.305   8.257  1.1864  0.4410  0.5347
 1370TIP3   OH225744   0.759   3.401   0.248 -0.4213  0.1005  0.3128
 1370TIP3    H125745   0.695   3.434   0.311  0.6158  2.6385  0.1557
 1370TIP3    H225746   0.840   3.449   0.269  1.0034 -1.8015 -0.5367
 1371TIP3   OH225747   1.432   1.126   7.039  0.3400  0.5463 -0.2959
 1371TIP3    H125748   1.411   1.077   6.960  4.1222  0.5455 -1.4816
 1371TIP3    H225749   1.468   1.061   7.099 -0.3390  0.9280  0.5375
 1372TIP3   OH225750   3.807   5.736   8.053  0.5423 -0.7017 -0.5475
 1372TIP3    H125751   3.802   5.789   7.974  1.2298  2.0708  1.1364
 1372TIP3    H225752   3.900   5.732   8.074  0.2821 -0.1006  0.8787
 1373TIP3   OH225753   3.931   0.419   0.344  0.2143  0.0532 -0.4915
 1373TIP3    H125754   3.844   0.458   0.354 -0.2766 -0.8767 -1.0095
 1373TIP3    H225755   3.915   0.337   0.298  1.3807 -0.1027 -0.6373
 1374TIP3   OH225756   4.504   1.935   1.533  0.1873  0.2604 -0.1260
 1374TIP3    H125757   4.507   2.003   1.466  0.2480  0.2032 -0.1825
 1374TIP3    H225758   4.519   1.981   1.615  0.5182  0.2767 -0.1933
 1375TIP3   OH225759   3.103   5.898   7.700  0.6744 -0.1510 -0.0584
 1375TIP3    H125760   3.141   5.938   7.778 -1.4854  2.5400 -0.2280
 1375TIP3    H225761   3.015   5.871   7.727  0.5987 -1.0324 -1.0903
 1376TIP3   OH225762   0.254   5.548   2.151 -0.0738 -0.0097  0.2852
 1376TIP3    H125763   0.286   5.582   2.068  4.1651 -0.3691  1.5486
 1376TIP3    H225764   0.267   5.454   2.145 -0.6740 -0.1426  1.0015
 1377TIP3   OH225765   6.270   4.760   0.575 -0.2125  0.2128 -0.1854
 1377TIP3    H125766   6.293   4.833   0.517  1.7197 -0.0475  0.1996
 1377TIP3    H225767   6.187   4.787   0.615 -0.7914  1.0901 -1.8649
 1378TIP3   OH225768   1.956   0.502   0.951 -0.8090 -0.5695 -0.6555
 1378TIP3    H125769   1.954   0.544   0.866  0.5075 -2.7231 -1.8600
 1378TIP3    H225770   2.040   0.526   0.989 -2.0766  1.8081  0.9400
 1379TIP3   OH225771   6.613   3.716   1.465  0.0218  0.2609 -0.2366
 1379TIP3    H125772   6.612   3.746   1.556  0.3404 -2.4194  0.7338
 1379TIP3    H225773   6.529   3.746   1.429  0.3638  2.3415  0.5224
 1380TIP3   OH225774   1.051   4.715   1.183 -0.6128  0.1796 -0.2942
 1380TIP3    H125775   1.106   4.680   1.113 -0.7981 -1.3823  0.3130
 1380TIP3    H225776   1.094   4.687   1.264 -0.4986  1.8046  0.2486
 1381TIP3   OH225777   0.041   2.423   0.821  0.1906  0.0703 -0.8200
 1381TIP3    H125778   0.028   2.427   0.727 -0.5739 -0.7221 -0.7607
 1381TIP3    H225779   0.088   2.341   0.836  0.4662  0.2781 -0.5308
 1382TIP3   OH225780   3.549   6.621   0.694 -0.7363 -0.0206 -0.1101
 1382TIP3    H125781   3.556   6.544   0.750 -1.5594  0.5086  0.7515
 1382TIP3    H225782   3.456   6.646   0.699 -0.6606  0.4984 -1.0855
 1383TIP3   OH225783   5.217   5.019   8.382  0.3044 -0.1608  0.1144
 1383TIP3    H125784   5.177   5.045   8.465 -0.1078 -1.6230  0.3971
 1383TIP3    H225785   5.193   4.927   8.371  3.8355 -1.2465  0.4293
 1384TIP3   OH225786   0.359   0.983   7.287  0.0506 -0.1077 -0.6093
 1384TIP3    H125787   0.270   0.948   7.289 -1.0181  2.3943 -0.3291
 1384TIP3    H225788   0.350   1.073   7.318  3.1213 -0.5724  2.1460
 1385TIP3   OH225789   5.629   4.590   1.986  0.0068  0.0142  1.0044
 1385TIP3    H125790   5.688   4.523   1.951 -1.1840  0.3714 -1.9439
 1385TIP3    H225791   5.673   4.673   1.967 -0.6636  0.2129  0.2596
 1386TIP3   OH225792   4.766   2.353   8.460 -0.1993 -0.4737  0.1597
 1386TIP3    H125793   4.846   2.382   8.416 -0.3647  0.0136  0.1656
 1386TIP3    H225794   4.726   2.292   8.399  0.2785 -0.8752  0.2439
 1387TIP3   OH225795   4.177   6.024   2.712  0.3294 -0.6945 -0.2845
 1387TIP3    H125796   4.113   6.073   2.765  0.3048  0.3878 -1.2719
 1387TIP3    H225797   4.187   5.940   2.758 -1.8064 -0.9060 -0.0947
 1388TIP3   OH225798   3.628   1.618   2.464 -0.2201 -0.0147 -0.0295
 1388TIP3    H125799   3.545   1.625   2.511 -1.2014  1.4775 -1.8226
 1388TIP3    H225800   3.660   1.530   2.483 -0.5349  0.4776  3.2990
 1389TIP3   OH225801   0.491   0.269   8.022 -0.4390 -0.1995 -0.1935
 1389TIP3    H125802   0.461   0.201   7.962  0.6117 -0.3145 -0.6301
 1389TIP3    H225803   0.474   0.351   7.975  2.2743 -0.3530 -1.6660
 1390TIP3   OH225804   0.298   2.594   2.831 -0.4109 -0.7189  0.5248
 1390TIP3    H125805   0.354   2.565   2.903 -0.6647  0.6533  1.3178
 1390TIP3    H225806   0.213   2.611   2.873 -1.1360 -1.7648 -0.4691
 1391TIP3   OH225807   0.408   1.396   7.081  0.3229  0.2343 -0.3176
 1391TIP3    H125808   0.320   1.379   7.046  0.1933  0.3888 -0.0677
 1391TIP3    H225809   0.427   1.319   7.136  0.5454 -0.0303 -0.7634
 1392TIP3   OH225810   3.530   5.255   1.127 -0.1123  0.2198 -0.0588
 1392TIP3    H125811   3.481   5.303   1.061  0.6636 -0.2591 -0.9973
 1392TIP3    H225812   3.533   5.314   1.202 -0.3706  1.0632 -0.6976
 1393TIP3   OH225813   1.638   4.653   1.741 -0.2566 -0.1826  0.0737
 1393TIP3    H125814   1.706   4.704   1.699 -0.3587 -0.5996 -0.6074
 1393TIP3    H225815   1.649   4.670   1.835  0.6302 -0.0719 -0.0493
 1394TIP3   OH225816   1.060   0.568   1.641  0.3441 -0.2281  0.2232
 1394TIP3    H125817   1.008   0.629   1.693 -0.4728 -0.2933 -0.4808
 1394TIP3    H225818   1.151   0.589   1.662  0.0708  1.0454  0.1927
 1395TIP3   OH225819   4.341   5.613   0.218  0.0306 -0.6731  0.0930
 1395TIP3    H125820   4.264   5.655   0.255  1.5315  0.2219  2.4310
 1395TIP3    H225821   4.373   5.675   0.152 -0.9985 -0.8642 -0.5974
 1396TIP3   OH225822   2.025   0.709   2.403  0.3525  0.1016  0.4896
 1396TIP3    H125823   1.967   0.764   2.351 -0.4172  0.5411  1.7859
 1396TIP3    H225824   2.014   0.621   2.366  0.5190  0.5497 -0.6633
 1397TIP3   OH225825   3.676   6.148   0.160 -0.0719 -0.4312 -0.1136
 1397TIP3    H125826   3.624   6.177   0.234 -0.1335  0.3134 -0.4371
 1397TIP3    H225827   3.615   6.148   0.086  0.2768  0.0224 -0.4079
 1398TIP3   OH225828   4.364   1.558   0.997  0.1668  0.0519  0.0154
 1398TIP3    H125829   4.384   1.472   1.033  0.8623 -0.5826 -1.7803
 1398TIP3    H225830   4.392   1.620   1.065 -0.6167 -1.1005  1.4601
 1399TIP3   OH225831   5.852   0.729   7.209  0.3490  0.4470 -0.2791
 1399TIP3    H125832   5.923   0.782   7.171  0.5323 -0.8327 -1.8182
 1399TIP3    H225833   5.811   0.687   7.134 -0.2833 -0.9910  0.8307
 1400TIP3   OH225834   4.230   2.983   0.547  0.6166 -0.1850  0.1937
 1400TIP3    H125835   4.227   3.056   0.486 -0.0639 -0.5411 -0.2170
 1400TIP3    H225836   4.173   3.010   0.620 -1.9433 -1.3798 -1.2313
 1401TIP3   OH225837   2.786   2.790   7.774  0.5826 -0.2179  0.0770
 1401TIP3    H125838   2.829   2.765   7.856  1.3817 -1.4102 -0.6698
 1401TIP3    H225839   2.765   2.706   7.732  2.5048  0.2952 -2.1078
 1402TIP3   OH225840   0.742   4.550   8.096 -0.3519 -0.1305 -0.4465
 1402TIP3    H125841   0.809   4.519   8.157 -0.4780  1.7779  0.7162
 1402TIP3    H225842   0.661   4.509   8.126  0.0219 -1.3792 -1.0537
 1403TIP3   OH225843   0.628   2.559   0.584 -0.4877  0.3800  0.4134
 1403TIP3    H125844   0.719   2.571   0.611 -0.3230  2.0442 -0.7253
 1403TIP3    H225845   0.631   2.489   0.519  0.1647  1.1423 -0.3966
 1404TIP3   OH225846   2.307   0.901   8.414 -0.6091 -0.4824  0.4959
 1404TIP3    H125847   2.222   0.939   8.389 -0.8210 -0.7450  0.8180
 1404TIP3    H225848   2.290   0.808   8.423 -0.8270 -0.2761  2.7673
 1405TIP3   OH225849   4.947   1.336   1.102  0.1347 -0.0217 -0.2654
 1405TIP3    H125850   4.867   1.369   1.143 -1.0406  0.4834 -2.8029
 1405TIP3    H225851   4.937   1.241   1.104 -0.0056  0.0035  0.3898
 1406TIP3   OH225852   2.733   4.940   6.912  0.0008 -0.2379  0.2706
 1406TIP3    H125853   2.718   5.034   6.905 -0.9414 -0.4679 -1.1516
 1406TIP3    H225854   2.812   4.932   6.966  0.5453  1.3948 -0.2334
 1407TIP3   OH225855   6.671   0.889   0.359  0.5630 -0.1338  0.2248
 1407TIP3    H125856   6.648   0.889   0.452  2.6880  1.5656  0.8383
 1407TIP3    H225857   6.648   0.977   0.329 -1.4234 -1.0952 -1.2986
 1408TIP3   OH225858   5.808   6.814   7.425 -0.1354  0.0870 -0.6739
 1408TIP3    H125859   5.865   6.767   7.486  0.2424  0.8866 -0.3918
 1408TIP3    H225860   5.741   6.750   7.400 -0.0020 -0.4026  0.1907
 1409TIP3   OH225861   5.863   3.025   0.511  0.1045 -0.5403 -0.0056
 1409TIP3    H125862   5.952   3.035   0.546 -0.4837  1.7914  1.0236
 1409TIP3    H225863   5.808   3.015   0.589 -0.8293  0.9602 -0.4455
 1410TIP3   OH225864   0.606   5.798   7.834  0.4646  0.2246  0.1879
 1410TIP3    H125865   0.534   5.828   7.890  0.2652  0.6831 -0.3040
 1410TIP3    H225866   0.608   5.861   7.762 -0.8031 -1.6397 -1.5958
 1411TIP3   OH225867   0.321   4.150   1.030  0.3297  0.3219 -0.4949
 1411TIP3    H125868   0.275   4.137   0.947  1.2381  1.4332 -1.1928
 1411TIP3    H225869   0.256   4.129   1.097 -0.4773 -0.4046 -1.4726
 1412TIP3   OH225870   3.475   2.422   2.654 -0.3094 -0.0287  0.3933
 1412TIP3    H125871   3.534   2.379   2.716 -1.4318 -0.2595  1.3407
 1412TIP3    H225872   3.520   2.502   2.629  1.5035 -1.3467 -0.8310
 1413TIP3   OH225873   0.610   5.830   8.315  0.2451  0.4953  0.4238
 1413TIP3    H125874   0.591   5.894   8.384 -0.3157  0.5648  0.2075
 1413TIP3    H225875   0.675   5.874   8.259  1.8655 -0.1235  1.7215
 1414TIP3   OH225876   6.810   2.116   2.595 -0.0645  0.4643 -0.3051
 1414TIP3    H125877   6.727   2.163   2.600 -1.0589 -1.3543  2.2522
 1414TIP3    H225878   6.875   2.184   2.580 -1.7739  2.2034 -0.2070
 1415TIP3   OH225879   2.407   5.161   6.888  0.2037  0.3320 -0.1060
 1415TIP3    H125880   2.341   5.199   6.829  0.3894 -0.1324 -0.6178
 1415TIP3    H225881   2.368   5.170   6.976 -0.7736 -0.3955 -0.4478
 1416TIP3   OH225882   4.508   3.063   2.915 -0.1088  0.0173 -0.1768
 1416TIP3    H125883   4.590   3.057   2.964 -0.0561  0.4644 -0.2024
 1416TIP3    H225884   4.440   3.062   2.983 -0.0215  0.9404 -0.0679
 1417TIP3   OH225885   5.126   0.930   1.027 -0.7677  0.0898 -0.1338
 1417TIP3    H125886   5.100   0.854   1.078 -1.9494  0.4589 -0.1562
 1417TIP3    H225887   5.152   0.995   1.093  0.0896 -0.2573 -0.1102
 1418TIP3   OH225888   4.288   1.115   0.466 -0.0173  0.3411 -0.7067
 1418TIP3    H125889   4.290   1.122   0.562  0.2402  0.7683 -0.7387
 1418TIP3    H225890   4.280   1.021   0.449 -1.3005  0.3529 -0.2581
 1419TIP3   OH225891   4.890   6.064   1.853 -0.0036  0.1143 -0.0171
 1419TIP3    H125892   4.968   6.024   1.814  0.9305  0.1683  1.6960
 1419TIP3    H225893   4.875   6.142   1.800  1.3165  0.2895 -0.1864
 1420TIP3   OH225894   5.851   3.185   1.381 -0.4535 -0.0130  0.2276
 1420TIP3    H125895   5.857   3.155   1.472  0.3670 -1.5914 -0.3121
 1420TIP3    H225896   5.850   3.105   1.329 -0.4601  0.8696 -1.1917
 1421TIP3   OH225897   6.257   5.171   1.527 -0.3296  0.1901  0.1551
 1421TIP3    H125898   6.282   5.238   1.463 -0.5986 -0.5385 -0.7275
 1421TIP3    H225899   6.276   5.088   1.483 -0.6243 -0.3216  0.9835
 1422TIP3   OH225900   3.027   2.953   1.505  0.0509 -0.1795  0.2363
 1422TIP3    H125901   2.981   2.875   1.538  0.0154 -0.4312 -0.3898
 1422TIP3    H225902   3.044   3.006   1.583  0.5949 -1.0921  0.7649
 1423TIP3   OH225903   3.981   0.962   7.883 -0.7023 -0.4529 -0.2641
 1423TIP3    H125904   3.892   0.996   7.875 -0.7079 -0.5425 -0.5941
 1423TIP3    H225905   4.036   1.040   7.883 -0.8873 -0.2398  1.9550
 1424TIP3   OH225906   3.231   4.265   2.796 -0.4408 -0.5999  0.5038
 1424TIP3    H125907   3.242   4.292   2.887 -1.3806  1.1237  0.1551
 1424TIP3    H225908   3.318   4.274   2.758 -0.2298 -0.4542  1.0111
 1425TIP3   OH225909   2.444   1.116   1.046  0.4565  0.1241  0.0954
 1425TIP3    H125910   2.527   1.151   1.077 -0.5589  2.3736  0.5223
 1425TIP3    H225911   2.380   1.143   1.112 -0.7048 -1.0387 -0.5033
 1426TIP3   OH225912   1.052   3.114   1.004 -0.0861 -0.2487  0.2308
 1426TIP3    H125913   1.126   3.174   1.007 -0.8252  0.7384 -0.4774
 1426TIP3    H225914   0.976   3.169   1.024 -0.6865 -1.1270  0.4089
 1427TIP3   OH225915   2.665   5.855   7.223  0.2677  0.0579 -0.2034
 1427TIP3    H125916   2.634   5.805   7.147  0.1343  0.5965 -0.5034
 1427TIP3    H225917   2.744   5.809   7.251 -0.6232 -1.1617  0.3838
 1428TIP3   OH225918   4.474   5.511   7.577 -0.6838  0.0222  1.3061
 1428TIP3    H125919   4.483   5.565   7.498 -0.8362 -2.0461 -0.2136
 1428TIP3    H225920   4.421   5.564   7.636  0.7062  2.2694  0.6638
 1429TIP3   OH225921   3.905   6.637   2.060 -0.0626  0.3079  0.4180
 1429TIP3    H125922   3.966   6.704   2.091  0.1042  0.5491 -0.4055
 1429TIP3    H225923   3.873   6.670   1.977 -0.7037 -0.2000  0.4559
 1430TIP3   OH225924   4.799   5.424   0.444  0.6321 -0.4160  0.3964
 1430TIP3    H125925   4.710   5.459   0.450  0.4242 -1.1597  2.8399
 1430TIP3    H225926   4.787   5.334   0.414  0.6163 -0.3318  0.1489
 1431TIP3   OH225927   4.955   0.332   1.527  0.2523  0.3724 -0.1198
 1431TIP3    H125928   4.990   0.359   1.612 -2.6726  0.7484  1.0818
 1431TIP3    H225929   4.937   0.239   1.537  0.0543  0.3820 -0.3966
 1432TIP3   OH225930   5.047   4.711   1.069  0.1569 -0.0266  0.0439
 1432TIP3    H125931   4.962   4.712   1.113  0.0403 -0.6464 -0.1522
 1432TIP3    H225932   5.049   4.792   1.019  0.9809  1.5076  2.4179
 1433TIP3   OH225933   6.348   4.501   1.249  0.3853 -0.5409 -0.2324
 1433TIP3    H125934   6.440   4.477   1.235  0.3052 -0.6457 -0.5835
 1433TIP3    H225935   6.326   4.464   1.335  1.1092  0.7801  0.5635
 1434TIP3   OH225936   6.053   5.861   2.316 -0.1278 -0.1633  0.1967
 1434TIP3    H125937   6.111   5.864   2.391 -0.5858  1.0216  0.5366
 1434TIP3    H225938   5.979   5.807   2.345 -0.3467  0.3633  0.6471
 1435TIP3   OH225939   3.062   3.209   0.669 -0.4931  0.1102 -0.1499
 1435TIP3    H125940   3.118   3.266   0.721 -0.9167 -0.4410  0.9265
 1435TIP3    H225941   2.977   3.254   0.668 -0.4399  0.2071 -0.5289
 1436TIP3   OH225942   1.054   1.016   1.805 -0.3831  0.4921 -0.3307
 1436TIP3    H125943   1.088   1.050   1.722 -1.5258  1.9109 -0.2447
 1436TIP3    H225944   1.034   0.924   1.786  2.6753 -0.2393 -0.5841
 1437TIP3   OH225945   4.309   0.842   2.034  0.0721  0.3040  0.6198
 1437TIP3    H125946   4.330   0.796   1.952 -0.1912  0.5055  0.4389
 1437TIP3    H225947   4.303   0.772   2.099 -0.9268 -0.0011  0.2275
 1438TIP3   OH225948   1.643   6.237   8.308 -0.0855  0.7839  0.2375
 1438TIP3    H125949   1.578   6.307   8.302  0.1891  0.9451 -1.3269
 1438TIP3    H225950   1.648   6.216   8.401 -1.1919  1.8824  0.5624
 1439TIP3   OH225951   2.699   5.130   2.241 -0.2980 -0.3222 -0.5146
 1439TIP3    H125952   2.658   5.056   2.286 -0.1443  0.2057  0.5239
 1439TIP3    H225953   2.701   5.199   2.307  1.6324 -0.1047 -0.7466
 1440TIP3   OH225954   1.216   2.587   3.188 -0.6219 -0.2080  0.2073
 1440TIP3    H125955   1.311   2.573   3.197 -0.1426 -0.1067 -3.2969
 1440TIP3    H225956   1.208   2.673   3.147 -2.0279 -1.0655 -1.4879
 1441TIP3   OH225957   6.885   2.175   1.246  0.2462  0.0722 -0.4203
 1441TIP3    H125958   6.899   2.117   1.172  0.3578 -0.8535  0.3020
 1441TIP3    H225959   6.969   2.220   1.257 -0.0158  0.8101 -1.3365
 1442TIP3   OH225960   1.552   3.769   1.815 -0.6057  0.0467  0.1827
 1442TIP3    H125961   1.627   3.718   1.845 -0.0326  0.1204 -1.0936
 1442TIP3    H225962   1.476   3.718   1.843 -0.0535 -1.7259 -1.3833
 1443TIP3   OH225963   1.639   4.056   3.173  0.3337  0.0544  0.2014
 1443TIP3    H125964   1.690   4.078   3.095  3.2202 -2.0369  1.2963
 1443TIP3    H225965   1.574   3.993   3.142  0.6545  0.1596 -0.7176
 1444TIP3   OH225966   1.954   5.397   7.724  0.3851 -0.3392 -0.2597
 1444TIP3    H125967   1.935   5.454   7.650  1.3186 -0.0156 -0.2746
 1444TIP3    H225968   2.048   5.408   7.738  0.3822 -1.0814  0.4053
 1445TIP3   OH225969   2.392   1.150   2.586  0.0391 -0.1610  0.2673
 1445TIP3    H125970   2.385   1.087   2.658  1.6105  0.5203  1.0475
 1445TIP3    H225971   2.311   1.201   2.591 -0.8511 -1.5201  0.1697
 1446TIP3   OH225972   5.832   1.760   1.282  0.0071  0.0626  0.6196
 1446TIP3    H125973   5.897   1.749   1.211 -0.8029 -1.3202  0.0473
 1446TIP3    H225974   5.771   1.826   1.248  0.5673  0.6558  0.7520
 1447TIP3   OH225975   0.390   4.977   1.324  0.5093 -0.1172 -0.1201
 1447TIP3    H125976   0.400   4.896   1.373  1.3712 -0.6445 -1.1224
 1447TIP3    H225977   0.467   5.029   1.346 -0.0228  0.4253  0.4920
 1448TIP3   OH225978   3.308   0.432   8.401  0.3986 -0.0870 -0.7262
 1448TIP3    H125979   3.394   0.430   8.442 -0.5123  1.0301  1.3279
 1448TIP3    H225980   3.250   0.388   8.463 -0.5277 -1.0408 -2.1780
 1449TIP3   OH225981   2.823   5.955   1.292 -0.3845 -0.2829  0.2477
 1449TIP3    H125982   2.870   6.001   1.222 -1.6425 -0.4202 -0.7381
 1449TIP3    H225983   2.891   5.915   1.345  0.5909 -1.0166 -1.4853
 1450TIP3   OH225984   5.295   5.872   0.239 -0.0224 -0.8045  0.1380
 1450TIP3    H125985   5.202   5.890   0.250 -0.0833 -2.0574  2.0951
 1450TIP3    H225986   5.300   5.777   0.230  1.0683 -0.7330 -0.2352
 1451TIP3   OH225987   6.419   6.196   1.184 -0.0567  0.4641  0.3007
 1451TIP3    H125988   6.336   6.244   1.184  0.0957  0.7354 -0.2100
 1451TIP3    H225989   6.453   6.207   1.096  0.3590  0.0609  0.4060
 1452TIP3   OH225990   6.397   6.298   0.634  0.1269 -0.3727 -0.8962
 1452TIP3    H125991   6.431   6.388   0.631  0.4749 -0.5045 -0.9108
 1452TIP3    H225992   6.467   6.247   0.673 -1.0829 -0.1926  1.7039
 1453TIP3   OH225993   4.296   1.955   2.346  0.3143 -0.5492  0.2687
 1453TIP3    H125994   4.329   1.919   2.428 -1.2935 -0.6552  0.9092
 1453TIP3    H225995   4.239   2.028   2.373  0.1267 -0.2874 -0.7792
 1454TIP3   OH225996   3.024   3.920   1.934 -0.0080 -0.4744 -0.1419
 1454TIP3    H125997   2.930   3.920   1.953 -0.0790  2.2311 -0.1559
 1454TIP3    H225998   3.035   3.989   1.870  1.7495 -2.2166 -1.8330
 1455TIP3   OH225999   1.296   3.793   7.293 -0.0712  0.2055  0.6477
 1455TIP3    H126000   1.359   3.831   7.232 -0.4435  0.9113  0.7004
 1455TIP3    H226001   1.347   3.729   7.343  0.4001  0.1415  0.0987
 1456TIP3   OH226002   5.418   0.524   2.280  0.2487  0.3707  0.4050
 1456TIP3    H126003   5.465   0.488   2.355 -0.2434 -0.2599  0.4147
 1456TIP3    H226004   5.443   0.468   2.207  1.4808  1.5583 -0.1181
 1457TIP3   OH226005   5.022   6.950   0.738  0.3402  0.2173  0.2270
 1457TIP3    H126006   5.064   6.878   0.786 -0.9117 -0.2438  0.6500
 1457TIP3    H226007   5.093   6.986   0.684  1.4009 -0.2336  1.2690
 1458TIP3   OH226008   5.848   0.375   1.488 -0.6613  0.3004 -0.3545
 1458TIP3    H126009   5.795   0.298   1.466  1.9159 -1.8805  0.5927
 1458TIP3    H226010   5.865   0.416   1.403 -2.7297  0.3692 -0.8026
 1459TIP3   OH226011   4.581   6.682   2.388 -0.3343  0.1502  0.0809
 1459TIP3    H126012   4.579   6.772   2.420  1.7552  0.8223 -1.4650
 1459TIP3    H226013   4.652   6.640   2.437 -0.2879 -0.2164 -0.2890
 1460TIP3   OH226014   6.085   5.898   0.479  0.5525  0.1342  0.0572
 1460TIP3    H126015   5.995   5.925   0.493  0.5253  0.7730 -1.1806
 1460TIP3    H226016   6.137   5.976   0.494  0.4432  1.1900 -3.8674
 1461TIP3   OH226017   3.486   5.462   0.943 -0.0120  0.2393  0.4153
 1461TIP3    H126018   3.405   5.512   0.935 -0.1596  0.1087  1.1310
 1461TIP3    H226019   3.507   5.437   0.853  0.1752  1.7744  0.0020
 1462TIP3   OH226020   5.232   6.299   0.151  0.2253  0.7673 -0.0708
 1462TIP3    H126021   5.305   6.237   0.145  0.2446  0.6667  1.1065
 1462TIP3    H226022   5.154   6.245   0.139  0.3261  0.9769 -2.0821
 1463TIP3   OH226023   0.905   1.150   1.370  0.9731 -0.1589 -0.6419
 1463TIP3    H126024   0.918   1.160   1.276  0.4017  0.4591 -0.6575
 1463TIP3    H226025   0.844   1.076   1.378 -0.9859  1.3609 -0.8916
 1464TIP3   OH226026   4.680   4.639   1.711  0.0194  0.0478  0.0176
 1464TIP3    H126027   4.741   4.579   1.669 -1.3070 -0.9522 -0.5313
 1464TIP3    H226028   4.599   4.631   1.661 -0.7867  0.8132  1.1419
 1465TIP3   OH226029   3.577   5.311   8.284 -0.6067  0.4596 -0.1721
 1465TIP3    H126030   3.616   5.374   8.345  1.4509  0.7461 -1.6556
 1465TIP3    H226031   3.498   5.353   8.253  0.4212  2.0981 -0.6800
 1466TIP3   OH226032   1.893   4.929   7.910 -0.1252 -0.0274  0.3714
 1466TIP3    H126033   1.980   4.965   7.895  0.2448 -0.1093  2.1973
 1466TIP3    H226034   1.884   4.860   7.844  2.5666 -2.3369  2.2043
 1467TIP3   OH226035   3.740   4.914   0.890  0.2561 -0.1644 -0.1114
 1467TIP3    H126036   3.704   4.872   0.812 -0.8077 -0.4600  0.5255
 1467TIP3    H226037   3.670   4.972   0.920  1.6761  2.1349 -0.9676
 1468TIP3   OH226038   6.426   0.135   0.619  0.0735 -0.4096 -0.4788
 1468TIP3    H126039   6.487   0.196   0.661  0.7217 -1.0962 -0.4001
 1468TIP3    H226040   6.342   0.152   0.661  0.4223 -0.1268  0.1195
 1469TIP3   OH226041   0.044   3.157   0.244  0.9792  0.4220  0.5338
 1469TIP3    H126042   0.020   3.147   0.152  0.5605  3.7011  0.1739
 1469TIP3    H226043   0.134   3.189   0.241  0.8441  0.8707  1.2575
 1470TIP3   OH226044   2.765   6.570   1.601 -0.1699 -0.2544  0.4976
 1470TIP3    H126045   2.705   6.499   1.578  0.9816 -1.7564  1.8670
 1470TIP3    H226046   2.708   6.638   1.639 -1.1162 -1.1471  0.7200
 1471TIP3   OH226047   2.411   1.975   6.880  0.7394  0.1251 -0.2266
 1471TIP3    H126048   2.396   2.045   6.944  2.1802 -0.9802  1.3935
 1471TIP3    H226049   2.488   2.003   6.831 -0.2708  0.8964 -1.4248
 1472TIP3   OH226050   2.407   5.394   8.344 -1.0887 -0.6823 -0.2842
 1472TIP3    H126051   2.374   5.374   8.257  0.2223 -0.7652 -0.7840
 1472TIP3    H226052   2.421   5.489   8.343 -0.5740 -0.7561 -0.3515
 1473TIP3   OH226053   2.102   3.727   1.552  0.0876 -0.2216 -0.0232
 1473TIP3    H126054   2.092   3.670   1.476  1.3658  0.0557 -0.4263
 1473TIP3    H226055   2.133   3.670   1.622 -0.2142 -0.3125  0.0374
 1474TIP3   OH226056   0.313   5.722   8.387 -0.1264  0.3800  1.2680
 1474TIP3    H126057   0.252   5.706   8.315 -0.4190  1.6769  1.2123
 1474TIP3    H226058   0.265   5.693   8.465 -0.6198  0.9151  1.1669
 1475TIP3   OH226059   5.644   6.736   0.091  0.1269 -0.4899  0.2584
 1475TIP3    H126060   5.686   6.822   0.081 -1.3423  0.1525 -0.7319
 1475TIP3    H226061   5.657   6.694   0.006 -1.4116 -0.1710 -0.1643
 1476TIP3   OH226062   4.098   6.425   7.577 -0.1697 -0.0676  0.0393
 1476TIP3    H126063   4.143   6.509   7.572  0.0607 -0.2536 -2.0258
 1476TIP3    H226064   4.039   6.433   7.651 -0.1399  1.9089 -0.1077
 1477TIP3   OH226065   6.369   2.804   8.003 -0.6935  0.0224 -0.1512
 1477TIP3    H126066   6.391   2.738   7.937 -1.9488 -0.8999  0.2925
 1477TIP3    H226067   6.384   2.759   8.087 -1.0579  0.4761  0.1629
 1478TIP3   OH226068   2.048   6.340   7.353 -0.7172  0.8781  0.1953
 1478TIP3    H126069   2.044   6.328   7.258 -1.1347  0.7245  0.2312
 1478TIP3    H226070   2.026   6.432   7.367  1.2413  1.4252  0.0117
 1479TIP3   OH226071   3.393   0.590   1.826 -0.1746 -0.3037  0.5749
 1479TIP3    H126072   3.352   0.520   1.876  1.2626 -0.9061  0.9643
 1479TIP3    H226073   3.427   0.547   1.748 -0.0359  0.1322  0.3927
 1480TIP3   OH226074   3.313   5.158   7.674  0.3166  0.2150 -0.2368
 1480TIP3    H126075   3.357   5.156   7.589  1.9463  2.9352  0.4252
 1480TIP3    H226076   3.380   5.128   7.736 -0.6215 -1.0298  0.2196
 1481TIP3   OH226077   1.460   3.929   2.475 -0.1734  0.3540  0.8778
 1481TIP3    H126078   1.482   3.951   2.384 -0.4071 -1.0900  0.4468
 1481TIP3    H226079   1.462   3.833   2.477 -0.8715  0.3575  2.2302
 1482TIP3   OH226080   3.157   5.672   0.913 -0.3308  1.2740 -0.7629
 1482TIP3    H126081   3.157   5.591   0.863 -0.8745 -0.7660  2.2473
 1482TIP3    H226082   3.064   5.697   0.919 -0.3943  0.8862  0.0567
 1483TIP3   OH226083   3.488   2.491   2.162  0.3676 -0.4404 -0.0589
 1483TIP3    H126084   3.399   2.483   2.195  0.8148 -2.8823  0.7604
 1483TIP3    H226085   3.477   2.502   2.067 -0.7946  1.3915  0.2314
 1484TIP3   OH226086   6.338   1.358   2.613 -0.5744 -0.0149  0.3707
 1484TIP3    H126087   6.331   1.438   2.666 -1.3144  0.2138 -0.0600
 1484TIP3    H226088   6.431   1.348   2.597 -0.4191  0.4189  0.9531
 1485TIP3   OH226089   5.467   6.416   1.523 -0.3193  0.6831  0.1368
 1485TIP3    H126090   5.485   6.387   1.434 -0.8144 -1.1377  0.5863
 1485TIP3    H226091   5.549   6.457   1.552  1.1884 -2.0395  0.0943
 1486TIP3   OH226092   6.972   5.911   2.033  0.1144  0.9445  0.0694
 1486TIP3    H126093   7.003   5.939   1.947  1.6436  1.2680  0.7065
 1486TIP3    H226094   6.950   5.819   2.021  0.7473  0.8624 -0.5592
 1487TIP3   OH226095   2.288   3.285   1.670 -0.2881  0.1748 -0.6356
 1487TIP3    H126096   2.376   3.246   1.676 -0.0978  0.5752 -0.7817
 1487TIP3    H226097   2.302   3.378   1.687 -0.6640  0.2645 -0.8176
 1488TIP3   OH226098   1.599   3.314   2.414 -0.1197  0.0426 -0.0733
 1488TIP3    H126099   1.646   3.352   2.488  1.0311 -1.5921  0.0839
 1488TIP3    H226100   1.514   3.290   2.449 -0.2789  0.9784  0.2160
 1489TIP3   OH226101   5.598   6.839   1.894  0.4020 -0.6661 -0.0906
 1489TIP3    H126102   5.669   6.809   1.837 -0.7211 -0.1547 -1.8212
 1489TIP3    H226103   5.628   6.923   1.928  0.9480 -0.8241 -0.1766
 1490TIP3   OH226104   4.618   1.679   1.477 -0.2738 -0.4870 -0.6811
 1490TIP3    H126105   4.591   1.769   1.499  1.7013  0.6110 -2.3340
 1490TIP3    H226106   4.537   1.628   1.481 -1.3005  1.1168  1.2954
 1491TIP3   OH226107   6.824   6.587   0.981 -0.6006 -0.7894  0.1732
 1491TIP3    H126108   6.912   6.550   0.976 -0.6455 -0.9213  0.3516
 1491TIP3    H226109   6.804   6.590   1.075 -0.9620 -1.1687  0.1088
 1492TIP3   OH226110   0.987   1.802   1.322  0.1456 -0.3555  0.2916
 1492TIP3    H126111   0.920   1.855   1.364  0.2918  1.3966 -1.5240
 1492TIP3    H226112   1.062   1.805   1.382 -0.1205  0.8525  0.5800
 1493TIP3   OH226113   1.491   0.494   2.271  0.0662 -0.0311 -0.0256
 1493TIP3    H126114   1.447   0.572   2.305  0.3493  0.2089 -0.2048
 1493TIP3    H226115   1.580   0.499   2.308 -0.4771 -1.3230  1.6103
 1494TIP3   OH226116   4.971   3.171   0.224 -0.3542  0.2573 -0.1556
 1494TIP3    H126117   4.903   3.169   0.156 -0.4516  2.5161 -0.2173
 1494TIP3    H226118   4.994   3.264   0.231  1.1144 -0.1834  1.4790
 1495TIP3   OH226119   3.034   2.382   0.634  0.3548  0.8488 -0.0875
 1495TIP3    H126120   3.073   2.325   0.701 -0.4384  0.3549 -0.0298
 1495TIP3    H226121   3.092   2.458   0.631  0.3479  0.9446  1.2711
 1496TIP3   OH226122   2.912   3.411   7.467  0.0959  0.1310  0.3661
 1496TIP3    H126123   2.954   3.329   7.496 -1.0220 -0.5235  0.1880
 1496TIP3    H226124   2.968   3.442   7.396  0.8182 -0.2049  0.7739
 1497TIP3   OH226125   3.213   3.742   7.955  0.0414  0.1001  0.6122
 1497TIP3    H126126   3.242   3.759   8.044  0.2707  3.4953  0.0312
 1497TIP3    H226127   3.292   3.748   7.902 -0.5317  1.5862 -0.1346
 1498TIP3   OH226128   1.279   2.010   2.151  0.0315 -0.5080 -0.9831
 1498TIP3    H126129   1.220   1.954   2.202 -0.1384 -0.6039 -1.2842
 1498TIP3    H226130   1.230   2.092   2.141 -0.0544 -0.5894 -1.2377
 1499TIP3   OH226131   6.001   1.263   8.420  0.1280 -0.9700  0.4628
 1499TIP3    H126132   6.019   1.171   8.398  0.6712 -0.7493 -0.0488
 1499TIP3    H226133   5.907   1.265   8.438 -0.2858 -1.2694 -1.4091
 1500TIP3   OH226134   1.191   3.603   0.606  0.1297 -0.7384  0.4606
 1500TIP3    H126135   1.274   3.607   0.559  0.2109 -2.4929  0.4038
 1500TIP3    H226136   1.162   3.694   0.611  0.6137 -0.3703 -2.0668
 1501TIP3   OH226137   4.426   2.246   1.075  0.0408  0.9616 -0.3564
 1501TIP3    H126138   4.422   2.172   1.015  1.6186  0.9885 -0.5090
 1501TIP3    H226139   4.342   2.243   1.121  0.2650 -1.2378  0.0068
 1502TIP3   OH226140   0.420   0.535   7.492 -0.5733 -0.0279 -0.2359
 1502TIP3    H126141   0.499   0.588   7.486  0.4387 -1.1208  2.1043
 1502TIP3    H226142   0.394   0.542   7.584 -4.9568  2.6229 -1.3727
 1503TIP3   OH226143   6.499   1.772   8.419  0.6866 -0.1506 -0.3252
 1503TIP3    H126144   6.511   1.682   8.450  2.0540  0.4195  0.9326
 1503TIP3    H226145   6.427   1.806   8.471  1.1370 -0.0654  0.2449
 1504TIP3   OH226146   0.519   4.675   7.272 -0.2497 -0.0619  0.0291
 1504TIP3    H126147   0.498   4.634   7.188  3.8283 -0.5566 -0.9823
 1504TIP3    H226148   0.516   4.769   7.254  1.7512 -0.1601 -1.1525
 1505TIP3   OH226149   4.175   2.270   1.173 -0.2733 -0.2701 -0.0303
 1505TIP3    H126150   4.133   2.331   1.233  0.5643  0.0866  0.2132
 1505TIP3    H226151   4.117   2.194   1.172 -0.9480  0.2320  0.2361
 1506TIP3   OH226152   0.513   2.017   1.783  0.5792 -0.1651  0.3779
 1506TIP3    H126153   0.607   2.002   1.784  0.2967 -2.3752 -0.0204
 1506TIP3    H226154   0.489   2.012   1.690 -0.1709 -1.9006  0.6056
 1507TIP3   OH226155   2.296   2.129   0.402  0.4878  0.1441  0.1313
 1507TIP3    H126156   2.381   2.162   0.431 -0.1730  2.1634 -0.0857
 1507TIP3    H226157   2.235   2.154   0.472 -0.6405  2.6164 -1.6264
 1508TIP3   OH226158   0.692   3.810   0.104  0.1416 -0.6465 -0.0787
 1508TIP3    H126159   0.721   3.886   0.053 -1.3669  0.3122  0.4328
 1508TIP3    H226160   0.716   3.735   0.050  2.7003  0.0871 -0.0916
 1509TIP3   OH226161   3.229   1.713   1.039  0.4597 -0.0894  0.0239
 1509TIP3    H126162   3.174   1.641   1.069  1.0676 -0.1396  1.0788
 1509TIP3    H226163   3.199   1.731   0.949 -0.2938 -1.0529  0.0670
 1510TIP3   OH226164   6.107   0.350   2.070 -0.1246  0.2332  0.0876
 1510TIP3    H126165   6.173   0.356   2.001 -0.1439  0.2618  0.0715
 1510TIP3    H226166   6.097   0.440   2.101  0.1453  0.1689  0.3705
 1511TIP3   OH226167   2.436   4.784   0.823  0.6810  0.2649 -0.0103
 1511TIP3    H126168   2.426   4.740   0.908 -1.1484  2.3907  0.9798
 1511TIP3    H226169   2.359   4.760   0.773  2.2176 -1.7735 -1.5649
 1512TIP3   OH226170   2.258   1.703   1.418  0.5458 -0.6263  0.6847
 1512TIP3    H126171   2.201   1.679   1.345 -0.0043  3.3350 -0.4549
 1512TIP3    H226172   2.198   1.728   1.489  1.0161 -1.3112  1.3411
 1513TIP3   OH226173   1.358   6.330   7.666 -0.4287 -0.5711 -0.3048
 1513TIP3    H126174   1.376   6.421   7.688 -1.6984 -0.6755  1.2790
 1513TIP3    H226175   1.279   6.333   7.613 -1.7629 -0.8733  1.5926
 1514TIP3   OH226176   1.233   2.757   0.575  0.2722  0.0515  0.3201
 1514TIP3    H126177   1.250   2.761   0.481 -1.6243  0.7925 -0.0355
 1514TIP3    H226178   1.191   2.841   0.596  1.1188  0.1157  1.9469
 1515TIP3   OH226179   5.000   3.262   3.100 -0.4385  0.1618 -0.5658
 1515TIP3    H126180   4.965   3.201   3.035 -2.5769 -0.9264  1.4630
 1515TIP3    H226181   5.025   3.339   3.049 -2.3503 -0.5007 -2.6547
 1516TIP3   OH226182   5.720   1.811   0.636  0.0775  0.0908  0.5790
 1516TIP3    H126183   5.685   1.875   0.697  1.5977  1.6116 -0.0596
 1516TIP3    H226184   5.815   1.817   0.646  0.3524 -0.0801 -1.4326
 1517TIP3   OH226185   2.061   5.449   2.467  0.0357 -0.0775 -0.0000
 1517TIP3    H126186   1.976   5.422   2.502 -0.4634  0.1000 -1.0220
 1517TIP3    H226187   2.123   5.386   2.503 -0.3750  0.3041  1.4634
 1518TIP3   OH226188   3.754   3.023   7.959 -0.8940 -0.2594  0.0914
 1518TIP3    H126189   3.726   3.069   7.879 -1.2792  1.8308  1.3579
 1518TIP3    H226190   3.711   2.937   7.954 -1.2045 -0.0339 -1.7524
 1519TIP3   OH226191   3.251   1.782   0.607  0.6005 -0.0936  0.7233
 1519TIP3    H126192   3.334   1.813   0.643  0.3734 -0.2874  1.4178
 1519TIP3    H226193   3.248   1.819   0.519  2.2984 -1.6326 -0.0393
 1520TIP3   OH226194   2.504   6.802   1.094 -0.4138 -0.0167  0.5053
 1520TIP3    H126195   2.590   6.812   1.135 -0.7949  0.0263  1.3135
 1520TIP3    H226196   2.467   6.722   1.133  0.1968 -1.3918 -1.5619
 1521TIP3   OH226197   0.774   4.159   2.133  0.3597 -1.0027  0.4861
 1521TIP3    H126198   0.807   4.239   2.093  0.6646 -0.1940  2.2648
 1521TIP3    H226199   0.848   4.099   2.132  0.2244 -1.1638 -0.5629
 1522TIP3   OH226200   4.375   6.301   0.837  0.1671  0.9733  0.1379
 1522TIP3    H126201   4.394   6.225   0.782 -0.1894  2.5375 -2.3266
 1522TIP3    H226202   4.460   6.327   0.871  0.6141  0.6532 -0.6820
 1523TIP3   OH226203   0.797   1.380   7.863 -0.1174 -0.7089  0.3673
 1523TIP3    H126204   0.871   1.323   7.881  0.2284 -0.6499 -0.7754
 1523TIP3    H226205   0.736   1.325   7.814 -0.4807 -0.5312  0.6150
 1524TIP3   OH226206   2.551   0.976   0.064 -0.3247  0.3461  0.3965
 1524TIP3    H126207   2.555   1.067   0.036  1.0669  0.2740  0.2900
 1524TIP3    H226208   2.487   0.936   0.006  2.0125  0.3445 -2.4189
 1525TIP3   OH226209   5.981   0.479   1.265  0.0369  0.0260 -0.1734
 1525TIP3    H126210   5.915   0.533   1.221 -2.2705 -2.3966  0.0540
 1525TIP3    H226211   6.017   0.424   1.195  0.9780  0.4937 -0.0732
 1526TIP3   OH226212   4.023   3.428   2.020  0.0991  0.5209  0.0719
 1526TIP3    H126213   4.010   3.399   2.110 -0.1257  0.7677  0.1207
 1526TIP3    H226214   4.111   3.399   1.997 -0.1363 -0.2346  0.1063
 1527TIP3   OH226215   5.646   6.304   2.218  0.1819 -0.3560  0.5527
 1527TIP3    H126216   5.647   6.309   2.122  0.7410  0.4874  0.5950
 1527TIP3    H226217   5.615   6.215   2.237  0.7285 -0.7688 -0.4181
 1528TIP3   OH226218   3.720   4.279   1.765  0.4792 -0.0822  0.4511
 1528TIP3    H126219   3.645   4.339   1.773  0.2939 -0.0288 -1.3166
 1528TIP3    H226220   3.767   4.289   1.848 -0.8939  0.6687  1.1773
 1529TIP3   OH226221   3.117   2.868   0.027 -0.1254 -0.2395  0.1994
 1529TIP3    H126222   3.067   2.950   0.036  1.6286  0.7495  1.5984
 1529TIP3    H226223   3.192   2.880   0.084  2.0713 -1.4196 -2.2478
 1530TIP3   OH226224   6.899   6.218   1.836 -0.1214 -0.4635 -0.5392
 1530TIP3    H126225   6.902   6.262   1.922 -3.1096 -1.4812  0.2322
 1530TIP3    H226226   6.892   6.289   1.773  0.5378  0.2688  0.1886
 1531TIP3   OH226227   5.380   2.087   8.240  0.6234  0.0150 -0.7193
 1531TIP3    H126228   5.411   2.153   8.302  0.8080  0.0664 -0.8641
 1531TIP3    H226229   5.428   2.008   8.263 -0.0101 -0.2196 -0.1855
 1532TIP3   OH226230   1.655   0.738   2.746 -0.1331  0.1146 -0.6021
 1532TIP3    H126231   1.697   0.725   2.831 -1.0528  0.0633 -0.1461
 1532TIP3    H226232   1.725   0.723   2.683  0.3927 -0.5809  0.1175
 1533TIP3   OH226233   6.816   3.109   7.695  0.2853 -0.3635  0.3385
 1533TIP3    H126234   6.761   3.088   7.770  1.1661  1.0352  1.4196
 1533TIP3    H226235   6.862   3.027   7.676  0.1512 -0.7068  1.4135
 1534TIP3   OH226236   1.398   4.363   0.392 -0.7187 -0.1106 -0.2390
 1534TIP3    H126237   1.400   4.336   0.484 -0.2792 -0.6203 -0.3907
 1534TIP3    H226238   1.346   4.443   0.391 -0.1734  0.2678  0.5566
 1535TIP3   OH226239   3.599   2.543   0.673  0.0043 -0.0829  0.1554
 1535TIP3    H126240   3.673   2.597   0.703  0.5596 -0.1845 -0.9872
 1535TIP3    H226241   3.594   2.472   0.737 -0.4947  1.0786  1.4771
 1536TIP3   OH226242   0.505   4.402   0.833 -0.6502 -0.3479 -0.3057
 1536TIP3    H126243   0.555   4.478   0.864  2.1769 -1.9961 -0.5071
 1536TIP3    H226244   0.516   4.404   0.738 -0.3570 -1.1098 -0.2959
 1537TIP3   OH226245   0.439   5.893   1.666 -0.0719  0.1598  0.3672
 1537TIP3    H126246   0.451   5.987   1.679 -0.4822  0.1422  0.9038
 1537TIP3    H226247   0.363   5.871   1.719 -0.9999 -0.1680 -1.0423
 1538TIP3   OH226248   5.514   1.500   8.257  0.1787  0.0391  0.5191
 1538TIP3    H126249   5.427   1.518   8.294 -0.3985 -1.7308  0.1491
 1538TIP3    H226250   5.503   1.513   8.162  0.2648 -0.3221  0.4567
 1539TIP3   OH226251   0.291   1.085   8.014 -0.2612  0.2479  0.0372
 1539TIP3    H126252   0.210   1.040   7.991 -0.3449 -0.8363  2.2147
 1539TIP3    H226253   0.269   1.178   8.010 -1.7590 -0.0322  1.0367
 1540TIP3   OH226254   5.822   6.947   0.778  0.1921 -0.3895  0.1541
 1540TIP3    H126255   5.800   6.907   0.694 -0.8356 -0.4763  0.4442
 1540TIP3    H226256   5.915   6.931   0.789  0.3240 -0.4398 -0.9325
 1541TIP3   OH226257   6.434   2.388   8.331 -0.3227 -0.2269  0.1877
 1541TIP3    H126258   6.430   2.354   8.420 -2.3209 -0.6118  0.0061
 1541TIP3    H226259   6.458   2.313   8.277 -1.1747 -0.5103  0.1893
 1542TIP3   OH226260   4.454   1.249   7.860 -0.2738  0.1223  0.0911
 1542TIP3    H126261   4.488   1.185   7.922  2.3846  0.3264 -0.9868
 1542TIP3    H226262   4.435   1.327   7.913 -0.2415 -0.4368  0.9390
 1543TIP3   OH226263   5.875   6.125   0.024  0.0077  0.4662  0.1798
 1543TIP3    H126264   5.893   6.088  -0.063  0.4282  0.1094  0.4133
 1543TIP3    H226265   5.892   6.053   0.085 -0.8541  0.5456  0.5219
 1544TIP3   OH226266   6.879   6.227   8.356  0.6689  0.4423 -0.1698
 1544TIP3    H126267   6.940   6.190   8.293 -2.9017 -1.8166 -2.6608
 1544TIP3    H226268   6.851   6.153   8.410 -1.5262  0.8007 -0.6823
 1545TIP3   OH226269   3.306   5.872   1.524  0.1090  0.4357 -0.1213
 1545TIP3    H126270   3.275   5.782   1.526 -2.5556  1.2238 -1.4182
 1545TIP3    H226271   3.294   5.903   1.614 -1.8119  0.3113 -0.2960
 1546TIP3   OH226272   3.515   5.759   0.806 -0.1910  0.3220 -0.0419
 1546TIP3    H126273   3.421   5.775   0.807 -0.1693  0.4430  0.1809
 1546TIP3    H226274   3.548   5.804   0.885 -0.0567 -0.3965  0.3173
 1547TIP3   OH226275   1.177   4.912   7.287 -0.1519 -0.2091 -0.2891
 1547TIP3    H126276   1.215   4.875   7.366 -0.6206  1.1111  0.5939
 1547TIP3    H226277   1.131   4.840   7.246  0.2092 -0.9491  0.5792
 1548TIP3   OH226278   0.396   1.726   8.207 -0.3300 -0.1936  0.4940
 1548TIP3    H126279   0.406   1.762   8.119 -3.5991  0.5982  0.2966
 1548TIP3    H226280   0.427   1.795   8.266 -0.5973  0.3755 -0.0208
 1549TIP3   OH226281   3.448   3.297   2.734 -0.1134 -0.4620 -0.1836
 1549TIP3    H126282   3.406   3.381   2.754  0.4454 -0.2530  0.1478
 1549TIP3    H226283   3.503   3.279   2.811 -0.0666 -1.0267 -0.3447
 1550TIP3   OH226284   3.858   6.118   7.738  0.9702 -0.4129 -0.4652
 1550TIP3    H126285   3.793   6.186   7.754  0.9418 -0.2801 -1.1113
 1550TIP3    H226286   3.820   6.038   7.774  2.0586  0.3147  2.6667
 1551TIP3   OH226287   1.290   2.475   0.840  0.0713 -0.4938  0.0751
 1551TIP3    H126288   1.240   2.555   0.857 -0.0834 -0.1039 -2.0333
 1551TIP3    H226289   1.226   2.405   0.848 -0.3850 -0.1688 -0.7079
 1552TIP3   OH226290   3.941   3.968   7.894  0.7559  0.3773  0.0104
 1552TIP3    H126291   3.869   4.028   7.875  0.4055 -0.3450 -1.0009
 1552TIP3    H226292   4.020   4.022   7.884  0.4569  0.6296 -1.1454
 1553TIP3   OH226293   4.878   6.947   8.454 -0.1506  0.4099  0.4248
 1553TIP3    H126294   4.801   6.897   8.482 -0.4604  0.2448 -0.6723
 1553TIP3    H226295   4.924   6.889   8.394  1.0572  0.3639  1.3421
 1554TIP3   OH226296   3.108   3.534   2.077 -0.3771 -0.2136 -0.0875
 1554TIP3    H126297   3.077   3.613   2.123 -1.0182 -1.0157  0.9054
 1554TIP3    H226298   3.177   3.566   2.019  0.1848  0.9232  1.1324
 1555TIP3   OH226299   6.330   2.897   1.715 -0.1004  0.4446 -0.8516
 1555TIP3    H126300   6.321   2.857   1.629 -0.8715 -1.4146  0.0155
 1555TIP3    H226301   6.254   2.864   1.764 -0.2632  2.3044  0.2262
 1556TIP3   OH226302   1.417   3.651   8.413 -0.2787 -0.2584 -0.6877
 1556TIP3    H126303   1.322   3.648   8.423 -0.2246 -1.0875 -0.3119
 1556TIP3    H226304   1.433   3.613   8.326 -0.2320 -1.1366 -0.3029
 1557TIP3   OH226305   3.991   1.009   1.844  0.8151  0.5221 -0.4742
 1557TIP3    H126306   4.034   0.999   1.929  2.5682  1.7568 -1.1530
 1557TIP3    H226307   3.954   0.923   1.825 -0.0036  0.3312  1.7128
 1558TIP3   OH226308   0.985   0.995   2.068 -0.7394  0.2514 -0.3354
 1558TIP3    H126309   0.889   0.993   2.074 -0.9150  2.4762 -1.3846
 1558TIP3    H226310   1.003   1.038   1.984  1.1687  0.7946  0.2999
 1559TIP3   OH226311   6.268   2.154   1.120  0.0474  0.1240 -0.5803
 1559TIP3    H126312   6.328   2.093   1.164  0.9691  0.2906 -1.5772
 1559TIP3    H226313   6.249   2.113   1.036  0.2858  0.9816 -1.0587
 1560TIP3   OH226314   6.509   0.984   1.815 -0.2874  0.0430 -0.6834
 1560TIP3    H126315   6.576   1.049   1.838 -0.2560 -0.5547  0.9712
 1560TIP3    H226316   6.501   0.992   1.720  2.9062 -0.5989 -1.1045
 1561TIP3   OH226317   1.591   1.013   7.932 -0.0380 -0.2182  0.0061
 1561TIP3    H126318   1.578   1.089   7.989 -0.5292  0.1787 -0.6226
 1561TIP3    H226319   1.685   0.996   7.935 -0.0042  0.0504  0.6131
 1562TIP3   OH226320   4.176   1.316   0.278  0.4447  0.1165 -0.2520
 1562TIP3    H126321   4.193   1.277   0.192  1.1574  1.5414 -0.7937
 1562TIP3    H226322   4.225   1.261   0.339  0.8885 -0.2314 -0.9027
 1563TIP3   OH226323   2.931   0.482   0.899 -0.2105  0.4659  1.1606
 1563TIP3    H126324   2.847   0.453   0.863 -0.5386 -0.1237  2.3356
 1563TIP3    H226325   2.946   0.424   0.974  0.7867  1.1856  1.5435
 1564TIP3   OH226326   5.411   5.671   2.129  0.6372  0.4933 -0.1304
 1564TIP3    H126327   5.322   5.639   2.142  0.7971  0.0299 -0.1510
 1564TIP3    H226328   5.402   5.766   2.119  0.0061  0.3152 -1.4685
 1565TIP3   OH226329   1.828   4.569   1.249 -0.5450 -0.1344  0.6951
 1565TIP3    H126330   1.758   4.516   1.211  0.3697  0.3684 -1.8597
 1565TIP3    H226331   1.815   4.657   1.212  0.6455  0.2912  1.2351
 1566TIP3   OH226332   6.226   5.818   7.772 -0.3623 -0.2842  0.1986
 1566TIP3    H126333   6.170   5.880   7.726 -0.4804 -0.9505 -0.5884
 1566TIP3    H226334   6.224   5.739   7.718  1.2131 -0.3817  0.2157
 1567TIP3   OH226335   6.535   2.792   7.364  0.3831  0.2320 -0.4502
 1567TIP3    H126336   6.540   2.754   7.276  0.0412  2.3472 -1.4637
 1567TIP3    H226337   6.548   2.886   7.350 -3.2085  1.1724  1.2620
 1568TIP3   OH226338   1.632   3.273   1.646 -0.9524 -0.3670  0.4268
 1568TIP3    H126339   1.615   3.357   1.604 -1.3470 -0.3569  0.6003
 1568TIP3    H226340   1.717   3.283   1.688  0.6574 -1.1587 -2.3797
 1569TIP3   OH226341   2.669   0.293   1.791  0.2299 -0.1200  0.4713
 1569TIP3    H126342   2.681   0.241   1.712  1.8617 -0.4582  0.9052
 1569TIP3    H226343   2.671   0.228   1.862 -0.8328  0.2215  0.8314
 1570TIP3   OH226344   6.755   0.814   6.851  0.2625  0.3005 -0.2993
 1570TIP3    H126345   6.705   0.890   6.820  2.2642  2.4077  1.3249
 1570TIP3    H226346   6.701   0.777   6.922 -0.3337  0.7112 -0.5269
 1571TIP3   OH226347   3.722   6.087   8.068  0.2172  0.1083  0.4720
 1571TIP3    H126348   3.735   6.038   7.987  0.3158  0.7198  0.1081
 1571TIP3    H226349   3.731   6.179   8.042 -1.1550  0.3950  0.9005
 1572TIP3   OH226350   0.509   4.276   1.329 -0.3476  0.3508 -0.1568
 1572TIP3    H126351   0.587   4.325   1.355  0.4918 -0.3148 -1.3090
 1572TIP3    H226352   0.501   4.207   1.395 -0.6621  1.1329  0.6318
 1573TIP3   OH226353   6.548   6.365   6.583 -0.2423  0.1592  0.1222
 1573TIP3    H126354   6.631   6.404   6.554 -0.4724  0.8364  0.3748
 1573TIP3    H226355   6.573   6.278   6.615  0.2778  0.1062 -0.4096
 1574TIP3   OH226356   6.182   2.002   1.908 -0.2023 -0.0832 -0.5235
 1574TIP3    H126357   6.170   1.908   1.919  0.4783 -0.1409 -0.2286
 1574TIP3    H226358   6.276   2.016   1.920 -0.3832  0.7185  0.0591
 1575TIP3   OH226359   1.111   2.548   1.712  0.7085 -0.1283  0.3555
 1575TIP3    H126360   1.182   2.609   1.730 -0.7919  2.2556 -1.3253
 1575TIP3    H226361   1.044   2.569   1.778  0.1119  0.1742 -0.3388
 1576TIP3   OH226362   5.588   2.773   1.565  0.2260  0.3518 -0.5771
 1576TIP3    H126363   5.653   2.703   1.571  0.8902  0.7719 -2.1826
 1576TIP3    H226364   5.539   2.754   1.486 -0.5340  0.9337 -0.2602
 1577TIP3   OH226365   1.366   2.594   1.826  0.1250 -0.6549  0.3795
 1577TIP3    H126366   1.398   2.615   1.738 -2.9208 -0.8289 -0.8917
 1577TIP3    H226367   1.395   2.668   1.880 -0.0863  0.7632 -1.3436
 1578TIP3   OH226368   1.304   6.260   6.643 -0.0056 -0.0819  0.3211
 1578TIP3    H126369   1.231   6.256   6.705 -2.8052 -0.2550 -2.7245
 1578TIP3    H226370   1.316   6.169   6.614  1.0980  0.0227  0.4220
 1579TIP3   OH226371   0.443   3.516   3.324  0.2298  0.1948  0.5253
 1579TIP3    H126372   0.391   3.595   3.309 -0.0077  0.1216  0.9341
 1579TIP3    H226373   0.489   3.501   3.242  0.3809  0.8397  0.4915
 1580TIP3   OH226374   3.879   3.309   0.350 -0.2730 -0.0511 -0.3578
 1580TIP3    H126375   3.836   3.227   0.327  1.2879 -1.1882  0.6103
 1580TIP3    H226376   3.953   3.316   0.289  0.0767  0.2187  0.0867
 1581TIP3   OH226377   2.540   0.390   2.433  0.4248 -0.0110  0.0356
 1581TIP3    H126378   2.627   0.415   2.400  0.1970 -0.8010 -1.2191
 1581TIP3    H226379   2.558   0.353   2.519  1.0500  1.9974  0.8332
 1582TIP3   OH226380   3.560   5.592   7.678 -0.0075  0.2470  0.6788
 1582TIP3    H126381   3.640   5.591   7.731  1.0784 -0.3733 -0.9157
 1582TIP3    H226382   3.562   5.675   7.631 -1.0532  0.8707  1.6790
 1583TIP3   OH226383   5.690   6.567   8.345 -0.1453 -0.3217 -0.6237
 1583TIP3    H126384   5.666   6.479   8.315 -1.3954  0.1132 -0.9616
 1583TIP3    H226385   5.690   6.620   8.265  0.7061 -0.0375 -0.4371
 1584TIP3   OH226386   2.144   5.396   0.836 -0.2130  0.0561 -0.2904
 1584TIP3    H126387   2.198   5.338   0.783  2.0398  0.8713  0.9840
 1584TIP3    H226388   2.170   5.377   0.927 -0.7235  1.7767  0.2512
 1585TIP3   OH226389   0.337   6.552   1.803  0.4951 -0.1009  0.3010
 1585TIP3    H126390   0.383   6.579   1.723  1.1020  0.2027  0.7431
 1585TIP3    H226391   0.379   6.603   1.873 -0.5651  0.2280  0.7099
 1586TIP3   OH226392   0.594   3.014   1.265 -0.5520 -0.0548  0.0194
 1586TIP3    H126393   0.645   3.083   1.307  0.2391 -0.8099  0.3163
 1586TIP3    H226394   0.656   2.944   1.249 -0.9480 -0.0292 -1.8980
 1587TIP3   OH226395   0.471   1.468   2.037 -0.2528  0.4059 -0.3205
 1587TIP3    H126396   0.428   1.541   1.993  0.7618  0.9952 -0.3763
 1587TIP3    H226397   0.402   1.426   2.087 -0.5591  2.5485  1.2282
 1588TIP3   OH226398   3.482   4.575   0.771 -0.5491  0.6810  0.5555
 1588TIP3    H126399   3.430   4.634   0.716 -0.1866 -0.3886 -0.9981
 1588TIP3    H226400   3.572   4.590   0.743 -0.3458  0.2114  0.9439
 1589TIP3   OH226401   2.956   4.007   0.929  0.4963  0.0474 -0.7848
 1589TIP3    H126402   3.013   3.959   0.990  0.8908  0.5297 -0.7612
 1589TIP3    H226403   2.908   3.939   0.883 -1.9871 -0.3208  2.0556
 1590TIP3   OH226404   2.903   0.307   7.569 -0.1561  0.0300  0.1792
 1590TIP3    H126405   2.850   0.363   7.512  0.1283 -0.6949 -0.8112
 1590TIP3    H226406   2.865   0.219   7.559  0.8000 -0.3756 -0.0248
 1591TIP3   OH226407   4.491   0.759   7.128 -0.3732 -0.7857 -0.3290
 1591TIP3    H126408   4.421   0.800   7.078 -0.4714 -0.7694 -0.1787
 1591TIP3    H226409   4.447   0.723   7.205  0.0622  0.8845  0.7351
 1592TIP3   OH226410   1.569   2.490   0.372  0.3561  0.1175  0.2644
 1592TIP3    H126411   1.476   2.466   0.379  0.5429 -0.6405  0.2682
 1592TIP3    H226412   1.607   2.462   0.455  0.7934 -0.5627 -0.1592
 1593TIP3   OH226413   1.778   3.433   1.409 -0.3477 -0.2587 -0.4304
 1593TIP3    H126414   1.852   3.408   1.465 -0.6257 -1.2725 -0.5052
 1593TIP3    H226415   1.794   3.526   1.390  0.8060 -0.4082 -0.2877
 1594TIP3   OH226416   4.964   0.072   1.840 -0.2586  0.3554  0.4787
 1594TIP3    H126417   4.910   0.142   1.876 -2.2000 -0.7086 -0.2212
 1594TIP3    H226418   4.933   0.061   1.750 -1.4677 -2.6986  1.1362
 1595TIP3   OH226419   5.764   3.322   2.647 -0.1494 -0.1807  0.2841
 1595TIP3    H126420   5.814   3.373   2.583  0.9340  0.7042  1.7896
 1595TIP3    H226421   5.830   3.274   2.697 -0.8605  0.3119  1.7313
 1596TIP3   OH226422   1.634   1.334   1.375 -0.3216  0.2747  0.3850
 1596TIP3    H126423   1.620   1.251   1.420 -1.3752 -0.4560 -1.2266
 1596TIP3    H226424   1.547   1.371   1.365 -0.3853 -0.4389 -2.5461
 1597TIP3   OH226425   0.613   0.562   7.835 -0.3187 -0.5155 -0.3153
 1597TIP3    H126426   0.635   0.613   7.913 -0.5548 -1.7032  0.5440
 1597TIP3    H226427   0.669   0.485   7.840 -0.3951 -0.6412 -1.2823
 1598TIP3   OH226428   6.783   0.216   6.384  0.2179  0.1387 -0.3295
 1598TIP3    H126429   6.805   0.301   6.345 -1.3870  0.3436 -0.8606
 1598TIP3    H226430   6.712   0.236   6.445 -1.9977 -1.1114 -2.3365
 1599TIP3   OH226431   5.272   6.696   1.943  0.4372 -0.3449  0.0595
 1599TIP3    H126432   5.282   6.724   1.852  1.5566 -0.8736  0.0018
 1599TIP3    H226433   5.222   6.766   1.985  0.1487  0.0292 -0.9009
 1600TIP3   OH226434   5.768   3.973   0.711  0.0835 -0.5931  0.0340
 1600TIP3    H126435   5.837   4.024   0.752 -0.4603  0.9291 -0.8233
 1600TIP3    H226436   5.704   4.039   0.683  0.1136 -1.5568 -2.6027
 1601TIP3   OH226437   1.911   3.746   2.341 -0.1824 -0.7954  0.2024
 1601TIP3    H126438   1.844   3.809   2.367 -0.3282 -0.6437 -0.5320
 1601TIP3    H226439   1.864   3.663   2.332 -0.0828 -0.9073  0.6635
 1602TIP3   OH226440   2.813   1.972   0.750  0.6512  0.6140  0.5986
 1602TIP3    H126441   2.816   1.956   0.656  1.6648  0.0176  0.7096
 1602TIP3    H226442   2.728   2.013   0.765  0.4387  0.6359 -0.5590
 1603TIP3   OH226443   4.322   4.091   0.115  0.5755 -0.0775 -0.0813
 1603TIP3    H126444   4.297   4.172   0.070 -0.4419 -0.3911 -0.0888
 1603TIP3    H226445   4.390   4.118   0.176  1.4266  0.4955 -1.2451
 1604TIP3   OH226446   1.022   3.056   1.435  0.0677  0.2020 -0.2283
 1604TIP3    H126447   0.976   3.062   1.518  0.4549  1.8207 -0.0894
 1604TIP3    H226448   1.021   2.963   1.413 -4.2702  0.1982 -0.8378
 1605TIP3   OH226449   3.365   1.919   0.108 -0.1153 -0.9125  0.3773
 1605TIP3    H126450   3.303   1.924   0.035  1.5392 -0.1381 -1.0392
 1605TIP3    H226451   3.404   1.832   0.100  0.8121 -0.4467 -0.3312
 1606TIP3   OH226452   5.119   3.905   7.129  0.2120  0.1248 -0.5649
 1606TIP3    H126453   5.180   3.832   7.125 -0.3035 -0.3467  0.0712
 1606TIP3    H226454   5.167   3.974   7.174 -0.0263 -0.5646  0.7931
 1607TIP3   OH226455   5.279   6.918   0.203  0.2361  0.5487 -0.2153
 1607TIP3    H126456   5.202   6.863   0.207  0.1782  0.5729 -0.8823
 1607TIP3    H226457   5.350   6.859   0.177 -0.3412  1.2160 -3.8154
 1608TIP3   OH226458   0.070   5.932   3.004  0.5000 -0.2721 -0.4216
 1608TIP3    H126459   0.159   5.964   2.990  1.3494 -2.1238  0.4082
 1608TIP3    H226460   0.069   5.902   3.094 -1.1296  0.1216 -0.2762
 1609TIP3   OH226461   5.524   1.872   8.302 -0.1359  0.3027 -0.2480
 1609TIP3    H126462   5.547   1.836   8.216 -0.5231  1.8441 -1.0215
 1609TIP3    H226463   5.606   1.911   8.334  0.0476 -0.4061  0.1760
 1610TIP3   OH226464   4.501   0.752   0.539  0.2377 -0.3628  0.3743
 1610TIP3    H126465   4.444   0.685   0.576 -0.7106  1.2250  1.9357
 1610TIP3    H226466   4.446   0.800   0.477  0.7580 -0.6838 -0.3510
 1611TIP3   OH226467   0.275   2.269   1.097  0.4426 -0.3709 -0.1407
 1611TIP3    H126468   0.366   2.241   1.085  0.9388  1.7717 -2.3721
 1611TIP3    H226469   0.232   2.245   1.015 -0.7984 -0.5886  0.5552
 1612TIP3   OH226470   4.992   2.136   2.236  0.0768 -0.1273  0.0033
 1612TIP3    H126471   5.072   2.168   2.279  0.5525 -0.0949 -0.8904
 1612TIP3    H226472   4.930   2.124   2.308  0.9525 -0.3563  0.7422
 1613TIP3   OH226473   0.781   2.854   3.539  0.4079 -0.3764  0.1839
 1613TIP3    H126474   0.758   2.765   3.512 -2.5470  0.9919 -2.4768
 1613TIP3    H226475   0.704   2.906   3.518  1.0869  2.5164  3.8393
 1614TIP3   OH226476   2.382   4.968   8.229 -0.0756 -0.2816  0.7452
 1614TIP3    H126477   2.359   5.019   8.306 -2.6478  0.1031 -0.1962
 1614TIP3    H226478   2.462   5.009   8.196 -3.1405  4.9932 -1.3327
 1615TIP3   OH226479   1.735   1.438   2.063  0.3935 -0.3031  0.0138
 1615TIP3    H126480   1.671   1.448   1.993  0.6522 -1.9597 -0.5078
 1615TIP3    H226481   1.702   1.493   2.134  0.1943  1.5151 -1.4211
 1616TIP3   OH226482   6.988   5.303   0.211  0.0460 -0.4734 -0.3458
 1616TIP3    H126483   6.925   5.242   0.172  0.6566 -1.4182  0.1120
 1616TIP3    H226484   7.028   5.254   0.283 -1.8479  1.5564  2.2819
 1617TIP3   OH226485   4.850   5.379   1.091 -0.5422 -0.4800 -0.2349
 1617TIP3    H126486   4.831   5.471   1.077  0.2101 -0.2076  0.4254
 1617TIP3    H226487   4.767   5.334   1.075 -0.6883  0.2023 -1.4779
 1618TIP3   OH226488   2.960   1.706   0.425 -0.2230  0.0034  0.1531
 1618TIP3    H126489   2.946   1.771   0.356  0.5959 -0.1526 -0.1780
 1618TIP3    H226490   2.947   1.754   0.506  0.3197  0.5864 -0.0870
 1619TIP3   OH226491   0.124   5.109   8.236  0.6818 -0.3142  0.6674
 1619TIP3    H126492   0.110   5.104   8.330  0.4582  0.0741  0.6535
 1619TIP3    H226493   0.036   5.105   8.198  0.8232 -1.6619  0.4145
 1620TIP3   OH226494   5.808   2.363   3.010  0.7008  0.2666 -0.2746
 1620TIP3    H126495   5.803   2.367   3.106  0.6170 -0.5055 -0.2426
 1620TIP3    H226496   5.732   2.413   2.980 -1.5506 -2.6133  0.1264
 1621TIP3   OH226497   2.774   2.068   2.911  0.1738  0.6042  0.1862
 1621TIP3    H126498   2.684   2.050   2.881  0.3258  3.0653 -2.1584
 1621TIP3    H226499   2.825   1.994   2.879 -0.2996  1.4544 -2.8465
 1622TIP3   OH226500   1.360   5.397   1.172 -0.1332  0.0168 -0.3026
 1622TIP3    H126501   1.363   5.368   1.081 -1.2821  0.9624 -0.6665
 1622TIP3    H226502   1.268   5.389   1.197  0.1339 -0.0478  0.7288
 1623TIP3   OH226503   1.343   1.587   8.015 -0.0054  0.2207  0.8224
 1623TIP3    H126504   1.435   1.609   7.999 -0.0713  0.9686  1.3971
 1623TIP3    H226505   1.295   1.628   7.943  0.3411 -2.7189 -1.2391
 1624TIP3   OH226506   6.562   2.209   2.286  0.0271  0.6454 -0.8091
 1624TIP3    H126507   6.500   2.136   2.276 -1.4298  1.6644  0.3384
 1624TIP3    H226508   6.555   2.234   2.378 -0.6607  3.1983 -1.4817
 1625TIP3   OH226509   2.724   0.782   0.748 -1.2183 -0.4408  0.1497
 1625TIP3    H126510   2.746   0.690   0.732 -2.8476 -0.6322 -1.2601
 1625TIP3    H226511   2.656   0.779   0.815  0.2066 -0.0720  1.7025
 1626TIP3   OH226512   6.325   4.293   8.080  0.2270 -0.0149 -0.0725
 1626TIP3    H126513   6.365   4.359   8.136 -1.4094  0.8995  0.0692
 1626TIP3    H226514   6.288   4.229   8.142 -0.4438  0.3085 -0.1337
 1627TIP3   OH226515   5.156   0.414   1.001  0.3250  0.3035 -0.4058
 1627TIP3    H126516   5.095   0.361   1.052 -0.6909  1.3223 -0.5240
 1627TIP3    H226517   5.155   0.499   1.045 -0.9996  1.3928 -2.3922
 1628TIP3   OH226518   4.171   1.437   6.652  0.3430  0.1542 -0.0858
 1628TIP3    H126519   4.133   1.349   6.644  2.1502 -0.5640 -1.2994
 1628TIP3    H226520   4.103   1.488   6.696 -0.0625 -2.2759  2.3182
 1629TIP3   OH226521   6.882   5.648   7.771 -0.3273  0.3321  0.1555
 1629TIP3    H126522   6.906   5.584   7.837 -0.2775 -2.2477 -2.1610
 1629TIP3    H226523   6.794   5.622   7.743  0.7792 -0.6800 -2.8267
 1630TIP3   OH226524   6.505   2.430   2.141  0.8058 -0.0553  0.0103
 1630TIP3    H126525   6.505   2.359   2.206 -0.2786  1.2905  1.5628
 1630TIP3    H226526   6.434   2.406   2.080  1.5392 -1.1044 -0.4675
 1631TIP3   OH226527   5.502   5.184   2.176  0.4464  0.2578 -0.2411
 1631TIP3    H126528   5.534   5.140   2.255  0.2870  0.5117 -0.0348
 1631TIP3    H226529   5.431   5.239   2.206  1.7860  2.0440 -0.2013
 1632TIP3   OH226530   0.356   5.606   1.458  0.4989  0.3745 -0.6085
 1632TIP3    H126531   0.304   5.684   1.438 -0.0888  0.1892  0.1364
 1632TIP3    H226532   0.329   5.581   1.546  2.6998  0.9593  0.3186
 1633TIP3   OH226533   0.211   0.943   8.258  0.1013 -0.4582  0.0143
 1633TIP3    H126534   0.241   0.989   8.336 -1.1587 -1.9676  1.4490
 1633TIP3    H226535   0.267   0.977   8.188 -1.6143  4.3133  0.5722
 1634TIP3   OH226536   6.679   6.858   7.288  0.7196 -0.1422 -0.0954
 1634TIP3    H126537   6.754   6.885   7.235  1.1155  1.0687  1.0379
 1634TIP3    H226538   6.603   6.895   7.244  0.9510  0.0384 -0.3446
 1635TIP3   OH226539   0.872   5.221   1.593 -0.2405  0.0941 -0.2445
 1635TIP3    H126540   0.962   5.188   1.594 -0.0257  0.6518 -0.7611
 1635TIP3    H226541   0.868   5.279   1.517 -0.5889  1.3411  0.6955
 1636TIP3   OH226542   6.560   6.518   0.338  0.0952 -0.4008 -0.5067
 1636TIP3    H126543   6.536   6.556   0.423  0.6145 -0.8091 -0.1708
 1636TIP3    H226544   6.554   6.591   0.277  1.2256  0.2698  0.1470
 1637TIP3   OH226545   0.623   1.757   8.429 -0.2668 -0.4512  0.3756
 1637TIP3    H126546   0.596   1.849   8.427 -0.4081 -0.5000 -0.1110
 1637TIP3    H226547   0.641   1.740   8.521  0.3331  0.2314  0.3948
 1638TIP3   OH226548   3.678   0.990   1.030 -0.0970 -0.0626  0.0436
 1638TIP3    H126549   3.701   1.002   1.122  0.4100  0.5436 -0.1518
 1638TIP3    H226550   3.597   1.041   1.019 -0.2674 -0.2954  0.1910
 1639TIP3   OH226551   2.314   1.908   7.147  0.3179 -0.9489  0.0127
 1639TIP3    H126552   2.355   1.989   7.178 -0.9018 -0.3311  0.0340
 1639TIP3    H226553   2.357   1.890   7.064  0.7741 -0.4177  0.1270
 1640TIP3   OH226554   5.115   3.449   1.277 -0.4455  0.0411 -0.2596
 1640TIP3    H126555   5.144   3.405   1.357 -1.9344 -0.6946 -0.0818
 1640TIP3    H226556   5.080   3.532   1.307  2.8738  1.7431 -0.6519
 1641TIP3   OH226557   2.581   4.725   6.962  0.2933  0.0787  0.0853
 1641TIP3    H126558   2.639   4.794   6.931 -0.6374  0.5049 -0.7485
 1641TIP3    H226559   2.502   4.735   6.909 -0.2753 -0.9240  0.7296
 1642TIP3   OH226560   6.945   4.405   0.749  0.5407 -0.0736 -0.1189
 1642TIP3    H126561   7.031   4.432   0.782  1.5553 -0.5689 -2.2325
 1642TIP3    H226562   6.957   4.395   0.655 -1.9430  0.1639 -0.5173
 1643TIP3   OH226563   1.488   0.629   7.594  0.3693  0.0870  0.0487
 1643TIP3    H126564   1.448   0.672   7.518 -0.7916  0.2120  0.7131
 1643TIP3    H226565   1.572   0.674   7.605  0.2285  0.5619 -0.7181
 1644TIP3   OH226566   0.113   6.069   7.890  0.0990 -0.2984  0.4128
 1644TIP3    H126567   0.200   6.059   7.850 -0.5781 -1.6445 -0.8149
 1644TIP3    H226568   0.064   6.121   7.826  0.7166  2.9584  2.3438
 1645TIP3   OH226569   5.782   4.754   0.357 -0.1948 -0.6016  0.9389
 1645TIP3    H126570   5.830   4.715   0.284 -0.1423 -0.6874  1.0185
 1645TIP3    H226571   5.754   4.840   0.325  2.2912  0.6183  1.7708
 1646TIP3   OH226572   5.629   5.257   1.789 -0.2169 -0.3505 -0.4348
 1646TIP3    H126573   5.592   5.312   1.857 -0.7412  0.0110 -1.0062
 1646TIP3    H226574   5.690   5.199   1.836 -2.6607 -2.0861  0.7984
 1647TIP3   OH226575   6.689   5.787   1.854 -0.0032  0.4508 -0.3609
 1647TIP3    H126576   6.690   5.787   1.950 -0.7900 -0.9139 -0.3211
 1647TIP3    H226577   6.775   5.820   1.829 -0.1276  1.7120  0.7997
 1648TIP3   OH226578   3.829   6.683   8.329 -0.1262 -0.3130  0.0104
 1648TIP3    H126579   3.903   6.676   8.270  0.3363 -1.5351  0.6889
 1648TIP3    H226580   3.805   6.592   8.348 -0.3179  0.0420  1.6086
 1649TIP3   OH226581   0.828   5.783   6.721 -0.2331 -0.4684 -0.0182
 1649TIP3    H126582   0.768   5.845   6.764 -0.5245  0.6994 -1.9798
 1649TIP3    H226583   0.806   5.698   6.759 -0.9550  0.3819  1.5747
 1650TIP3   OH226584   6.456   1.852   0.272  0.6259 -0.0617 -0.3323
 1650TIP3    H126585   6.514   1.833   0.346 -0.1674 -2.4448 -0.2293
 1650TIP3    H226586   6.374   1.882   0.312  1.6931  3.5925 -0.4838
 1651TIP3   OH226587   1.803   1.120   2.141  0.2634 -0.0066  0.0166
 1651TIP3    H126588   1.745   1.187   2.175  0.8624  1.4140 -1.6297
 1651TIP3    H226589   1.789   1.121   2.046  0.9898 -1.5507 -0.1503
 1652TIP3   OH226590   3.314   6.770   7.780 -0.4681 -0.0469 -0.2466
 1652TIP3    H126591   3.272   6.829   7.718 -0.6512  0.4208  0.3180
 1652TIP3    H226592   3.313   6.685   7.736  0.8524  0.5682 -1.5618
 1653TIP3   OH226593   0.999   3.722   7.548  0.0310 -0.9204 -1.0320
 1653TIP3    H126594   1.043   3.801   7.519 -0.8221 -0.3227 -0.7372
 1653TIP3    H226595   0.938   3.701   7.477 -1.5225  0.1204 -0.0875
 1654TIP3   OH226596   2.400   0.300   0.474  0.1601 -0.5560 -0.1358
 1654TIP3    H126597   2.365   0.211   0.469  0.5293 -0.6996 -0.2306
 1654TIP3    H226598   2.490   0.288   0.505  0.3931 -0.2561 -0.6945
 1655TIP3   OH226599   2.397   0.983   7.796  0.3068  0.3202 -0.0790
 1655TIP3    H126600   2.384   0.915   7.862 -3.1465  1.0294  0.1073
 1655TIP3    H226601   2.411   0.934   7.715  1.1322 -0.5630  0.5769
 1656TIP3   OH226602   4.583   6.806   7.972  0.0871  0.1412 -0.0391
 1656TIP3    H126603   4.502   6.852   7.951  0.7855  0.5700 -2.0823
 1656TIP3    H226604   4.651   6.873   7.969  0.7148 -0.4660  0.1486
 1657TIP3   OH226605   6.183   2.614   7.193 -0.4345 -0.0503 -0.2013
 1657TIP3    H126606   6.169   2.564   7.112  0.6163  0.7071 -0.8875
 1657TIP3    H226607   6.276   2.602   7.213 -0.5619  0.2125  0.5949
 1658TIP3   OH226608   2.240   1.450   1.160  0.4932 -0.6666  0.3515
 1658TIP3    H126609   2.243   1.536   1.118  0.2228 -1.6647 -1.8422
 1658TIP3    H226610   2.314   1.451   1.221  0.6037  1.0502  0.2393
 1659TIP3   OH226611   5.405   0.490   8.238 -0.4202  0.5995 -0.6720
 1659TIP3    H126612   5.483   0.529   8.278 -0.2479 -0.0883 -0.3251
 1659TIP3    H226613   5.438   0.410   8.196 -0.8692  0.5173 -0.8685
 1660TIP3   OH226614   2.782   5.704   2.211  0.3457 -0.2879 -0.2601
 1660TIP3    H126615   2.713   5.638   2.224 -1.3545  1.6534  1.1423
 1660TIP3    H226616   2.836   5.699   2.290  1.1224 -0.9549 -0.8107
 1661TIP3   OH226617   4.595   3.815   3.081 -0.5846  0.3828 -0.1554
 1661TIP3    H126618   4.522   3.773   3.033 -1.1001  1.3014 -0.1954
 1661TIP3    H226619   4.554   3.889   3.126 -0.0232 -0.2181  1.3973
 1662TIP3   OH226620   2.871   2.256   2.649  0.1480 -0.3386 -0.2375
 1662TIP3    H126621   2.886   2.261   2.744 -1.3665  2.4530 -0.0479
 1662TIP3    H226622   2.823   2.174   2.637 -0.2570 -0.4055  1.5089
 1663TIP3   OH226623   3.232   3.534   0.446  0.1687  0.7974  0.3432
 1663TIP3    H126624   3.147   3.496   0.425 -0.3054  0.5064  2.5054
 1663TIP3    H226625   3.295   3.480   0.399 -0.7609  0.2570 -0.3199
 1664TIP3   OH226626   1.630   4.984   1.441 -0.0931  0.3079 -0.0356
 1664TIP3    H126627   1.546   4.944   1.461 -0.3128  1.1163  0.7174
 1664TIP3    H226628   1.660   5.020   1.524  0.7176  0.5395 -0.4190
 1665TIP3   OH226629   4.587   3.644   7.612  0.7183 -0.0839 -0.6284
 1665TIP3    H126630   4.522   3.619   7.678 -0.3344  0.5621 -1.3974
 1665TIP3    H226631   4.607   3.562   7.567  0.5492 -0.3151 -0.2899
 1666TIP3   OH226632   1.698   6.248   0.127  0.5068 -0.4520 -0.9012
 1666TIP3    H126633   1.704   6.307   0.202 -1.7680 -0.2225 -0.8277
 1666TIP3    H226634   1.631   6.184   0.152  1.3577 -1.7770 -1.8495
 1667TIP3   OH226635   6.192   4.417   2.350  0.1105  0.3470 -0.0718
 1667TIP3    H126636   6.128   4.382   2.288 -1.4464  1.8304  0.5876
 1667TIP3    H226637   6.189   4.357   2.425 -0.4671  0.3519 -0.0863
 1668TIP3   OH226638   2.370   2.493   2.006 -0.3892  0.4908 -0.6716
 1668TIP3    H126639   2.321   2.572   2.031  0.2650  0.8163 -0.3801
 1668TIP3    H226640   2.430   2.478   2.079  1.8923  1.7225 -2.1738
 1669TIP3   OH226641   6.411   6.123   2.091 -0.4164  0.0172  0.0519
 1669TIP3    H126642   6.407   6.029   2.077 -1.5642  0.1214 -0.4733
 1669TIP3    H226643   6.404   6.161   2.003  0.9515  0.5887  0.1691
 1670TIP3   OH226644   0.802   6.751   0.752 -0.2751 -0.1475 -0.3489
 1670TIP3    H126645   0.889   6.728   0.721  1.3821  1.3677  2.7605
 1670TIP3    H226646   0.805   6.846   0.764 -1.9652 -0.2033  0.8624
 1671TIP3   OH226647   4.960   1.179   1.439  0.3543 -0.0346  0.6101
 1671TIP3    H126648   4.906   1.130   1.501  0.5067  2.6022  3.0383
 1671TIP3    H226649   4.898   1.220   1.379 -0.0763  0.1595  1.1859
 1672TIP3   OH226650   2.550   2.716   0.728  0.4641  0.2676  1.2035
 1672TIP3    H126651   2.564   2.648   0.794 -0.4870  0.4550  1.6221
 1672TIP3    H226652   2.455   2.722   0.720  0.4386  2.5215  2.2363
 1673TIP3   OH226653   0.606   3.721   2.188  0.2707 -0.0149 -0.2920
 1673TIP3    H126654   0.600   3.813   2.159  0.1382 -0.7787 -2.9416
 1673TIP3    H226655   0.686   3.718   2.240  0.3466  1.5835 -0.2492
 1674TIP3   OH226656   5.622   6.615   1.085  1.0408  0.3009  0.1167
 1674TIP3    H126657   5.691   6.649   1.143  0.9318 -2.0996  1.7905
 1674TIP3    H226658   5.667   6.552   1.029  0.8240  1.4144 -1.3695
 1675TIP3   OH226659   0.791   2.671   1.089  0.3980 -0.3019  0.2161
 1675TIP3    H126660   0.731   2.736   1.053 -0.4753  0.1120  2.2681
 1675TIP3    H226661   0.781   2.594   1.033 -2.0816 -0.2418  0.4780
 1676TIP3   OH226662   3.622   3.174   7.746  0.6219 -0.0732 -0.2377
 1676TIP3    H126663   3.628   3.184   7.651  2.7260 -1.6221 -0.3552
 1676TIP3    H226664   3.566   3.097   7.758  2.3547 -1.4557 -0.4341
 1677TIP3   OH226665   2.796   1.061   0.230 -0.4911 -0.1323 -0.0873
 1677TIP3    H126666   2.766   1.115   0.302  1.0718 -0.8596  1.1662
 1677TIP3    H226667   2.716   1.039   0.181 -1.4326  1.2513  0.7846
 1678TIP3   OH226668   2.810   0.691   8.073  0.2851 -0.1699 -0.2471
 1678TIP3    H126669   2.869   0.622   8.043 -0.1854 -0.3545 -0.7568
 1678TIP3    H226670   2.787   0.739   7.994  1.2415  1.0877  0.1945
 1679TIP3   OH226671   2.812   3.849   2.912 -0.5706 -0.4536 -0.2493
 1679TIP3    H126672   2.771   3.886   2.990 -0.5862 -0.8630 -0.0637
 1679TIP3    H226673   2.739   3.813   2.861 -0.4965 -0.7324 -0.1598
 1680TIP3   OH226674   6.973   1.590   0.720 -0.0525  0.0739 -0.0374
 1680TIP3    H126675   7.051   1.579   0.666 -0.9923  0.2819 -1.5046
 1680TIP3    H226676   6.969   1.685   0.737 -0.2500  0.1310 -0.3910
 1681TIP3   OH226677   2.066   3.801   7.674  0.4186 -0.5034  0.8009
 1681TIP3    H126678   1.988   3.853   7.656 -0.3964 -1.4517  1.4590
 1681TIP3    H226679   2.136   3.865   7.687  0.2312  0.3151 -1.7325
 1682TIP3   OH226680   5.548   5.426   0.987  0.3709 -0.2049 -0.1894
 1682TIP3    H126681   5.632   5.470   0.982  0.2467  0.0262 -0.2687
 1682TIP3    H226682   5.564   5.349   1.041  0.5222  0.0916  0.1934
 1683TIP3   OH226683   0.140   5.709   0.157 -0.7214 -0.6991 -0.0110
 1683TIP3    H126684   0.149   5.617   0.181  0.2242 -0.4650  0.5810
 1683TIP3    H226685   0.187   5.756   0.226 -1.7735  0.2713  0.0662
 1684TIP3   OH226686   6.199   5.481   1.451  0.3877 -0.1060  0.0453
 1684TIP3    H126687   6.156   5.406   1.409  2.3481 -0.7250 -0.9537
 1684TIP3    H226688   6.171   5.557   1.400  1.4078 -0.6553 -1.3838
 1685TIP3   OH226689   2.741   0.498   2.217 -0.2336  0.3034 -0.0311
 1685TIP3    H126690   2.829   0.515   2.252 -0.9810  2.2150  1.1011
 1685TIP3    H226691   2.738   0.548   2.136  0.2031 -1.0134 -0.8876
 1686TIP3   OH226692   5.374   6.983   7.241  0.0005 -0.5764  0.1023
 1686TIP3    H126693   5.340   6.983   7.330  1.0182 -2.4030  0.5266
 1686TIP3    H226694   5.467   6.961   7.250  0.7165  1.5475 -1.2523
 1687TIP3   OH226695   3.187   4.281   0.487 -0.0003 -0.0418 -0.3514
 1687TIP3    H126696   3.130   4.281   0.563 -1.0887  0.1622 -1.1333
 1687TIP3    H226697   3.256   4.343   0.508  1.2456 -1.9121  1.5166
 1688TIP3   OH226698   1.284   4.906   2.800  0.5109 -0.1214  0.1317
 1688TIP3    H126699   1.203   4.942   2.762  1.7256  1.3602 -1.2123
 1688TIP3    H226700   1.281   4.813   2.778 -1.6891 -0.5198  1.7823
 1689TIP3   OH226701   3.368   3.950   1.503  0.8836  0.1119 -0.9792
 1689TIP3    H126702   3.359   3.921   1.593 -1.5670 -0.9379 -1.4813
 1689TIP3    H226703   3.462   3.954   1.488  1.3659  0.8272  1.7489
 1690TIP3   OH226704   3.232   5.441   1.294  0.0196  0.0258 -0.3574
 1690TIP3    H126705   3.188   5.503   1.236  1.0917  1.8150  0.6514
 1690TIP3    H226706   3.320   5.432   1.258  0.4862  0.6507  0.5630
 1691TIP3   OH226707   2.320   4.558   6.927  0.1808 -0.3052 -0.2510
 1691TIP3    H126708   2.286   4.627   6.870 -0.0724 -1.6013 -1.7466
 1691TIP3    H226709   2.260   4.484   6.914  0.6134 -0.9238  1.0696
 1692TIP3   OH226710   6.140   4.449   7.973 -0.2276  0.9486  0.2373
 1692TIP3    H126711   6.206   4.382   7.991  0.9196  2.3402  1.4596
 1692TIP3    H226712   6.133   4.499   8.054 -1.7312  1.7470 -0.3409
 1693TIP3   OH226713   6.781   4.295   1.724 -0.1170 -0.4343  0.2246
 1693TIP3    H126714   6.710   4.348   1.760  0.7546  0.8930  0.0574
 1693TIP3    H226715   6.737   4.223   1.679 -1.3056 -0.3578  1.2101
 1694TIP3   OH226716   2.820   0.130   1.631  0.2086 -0.1692 -0.0130
 1694TIP3    H126717   2.905   0.125   1.588  0.0081 -0.5703 -0.3736
 1694TIP3    H226718   2.827   0.072   1.707  0.3607  0.0572  0.1481
 1695TIP3   OH226719   4.560   2.801   1.870  0.0457 -0.1045  0.2611
 1695TIP3    H126720   4.512   2.800   1.952  1.2363 -0.8858  0.9856
 1695TIP3    H226721   4.526   2.726   1.821  0.4605 -0.6288  0.7542
 1696TIP3   OH226722   3.435   3.724   0.519  0.0205  0.5962 -0.1359
 1696TIP3    H126723   3.488   3.669   0.577  1.8462  1.3141 -1.0352
 1696TIP3    H226724   3.365   3.667   0.489  0.6392 -0.5912  0.6011
 1697TIP3   OH226725   6.021   4.055   0.402 -0.3722 -0.3327 -0.4920
 1697TIP3    H126726   5.970   4.036   0.323 -0.4403  1.5450 -0.9456
 1697TIP3    H226727   6.112   4.044   0.375 -0.4254 -0.6120 -0.5598
 1698TIP3   OH226728   3.608   1.284   8.411  0.1265  0.3852 -0.1033
 1698TIP3    H126729   3.679   1.224   8.435  0.2811  0.3996 -0.5189
 1698TIP3    H226730   3.626   1.308   8.321  0.7063  1.9551  0.4014
 1699TIP3   OH226731   1.922   2.877   0.115 -0.0259  0.2593 -0.6440
 1699TIP3    H126732   1.893   2.864   0.025  1.6577  1.1334 -1.3616
 1699TIP3    H226733   2.013   2.847   0.115 -0.1067 -0.0563  0.8678
 1700TIP3   OH226734   3.309   6.964   6.729 -0.1705 -0.2148  0.3869
 1700TIP3    H126735   3.234   6.951   6.786  1.0127 -1.0653  1.8431
 1700TIP3    H226736   3.325   6.877   6.691 -1.2329  0.4307 -1.7018
 1701TIP3   OH226737   5.585   5.765   7.049 -0.4146  0.1006  0.0238
 1701TIP3    H126738   5.661   5.766   6.991  0.2328 -1.7982  0.7777
 1701TIP3    H226739   5.600   5.839   7.109 -0.6380  1.5121 -1.5760
 1702TIP3   OH226740   2.486   3.028   2.102  0.3675 -0.7882 -0.2279
 1702TIP3    H126741   2.513   2.963   2.036  1.2506 -1.0869  0.3983
 1702TIP3    H226742   2.451   2.975   2.174  1.7867 -0.6535  0.6059
 1703TIP3   OH226743   2.121   5.296   0.490  0.1970 -0.1765 -0.1453
 1703TIP3    H126744   2.044   5.241   0.474  0.4324 -0.2062 -1.2192
 1703TIP3    H226745   2.184   5.238   0.531 -0.0092 -0.3836 -0.1185
 1704TIP3   OH226746   5.778   0.400   6.976 -0.1062  0.0648  0.2933
 1704TIP3    H126747   5.794   0.494   6.981 -0.4952  0.1204  0.6055
 1704TIP3    H226748   5.682   0.393   6.974 -0.0898 -0.2163 -1.9265
 1705TIP3   OH226749   5.942   4.827   2.593 -0.6191  0.3290  0.0836
 1705TIP3    H126750   5.915   4.790   2.509 -2.4612 -1.2699  1.2940
 1705TIP3    H226751   5.879   4.897   2.610 -0.6950  0.1827  0.4233
 1706TIP3   OH226752   5.311   1.924   0.259  0.0801  0.1760 -0.7711
 1706TIP3    H126753   5.392   1.898   0.303  0.2160  0.2163 -0.9935
 1706TIP3    H226754   5.243   1.918   0.327  0.5552  1.8971 -0.1130
 1707TIP3   OH226755   2.547   2.781   1.968  0.0229  0.3991 -0.1619
 1707TIP3    H126756   2.599   2.715   2.013 -0.1990  0.4541  0.1771
 1707TIP3    H226757   2.546   2.753   1.876  1.8875  1.1886 -0.4687
 1708TIP3   OH226758   5.730   3.023   0.751  0.3323 -0.4823 -0.0343
 1708TIP3    H126759   5.691   3.061   0.829  1.2103  0.1116  0.1205
 1708TIP3    H226760   5.700   2.932   0.751 -0.4356 -0.2334  0.4769
 1709TIP3   OH226761   4.246   0.277   2.940  0.3584 -0.4281  0.4035
 1709TIP3    H126762   4.249   0.366   2.974 -1.3440 -0.7930  1.6488
 1709TIP3    H226763   4.183   0.281   2.869 -1.1500 -0.9438  1.6485
 1710TIP3   OH226764   0.014   6.813   0.969  0.1750  0.2133  0.0003
 1710TIP3    H126765   0.099   6.788   0.932  0.3879 -1.7984  1.6165
 1710TIP3    H226766  -0.042   6.736   0.954 -1.2472  1.3320 -0.6204
 1711TIP3   OH226767   5.710   4.401   0.417 -0.4546  0.4986  0.8339
 1711TIP3    H126768   5.758   4.348   0.481  1.8160  0.6489 -0.6216
 1711TIP3    H226769   5.661   4.464   0.469 -1.0304 -1.2473  2.4988
 1712TIP3   OH226770   6.774   3.885   7.787  0.4192  0.0955  0.3341
 1712TIP3    H126771   6.761   3.806   7.735  1.6209 -0.4749  0.8671
 1712TIP3    H226772   6.764   3.957   7.724  0.9472 -0.5403 -0.4984
 1713TIP3   OH226773   6.985   1.200   7.785  1.1825 -1.2749 -0.2319
 1713TIP3    H126774   6.895   1.168   7.772  0.1976  1.3581 -0.4856
 1713TIP3    H226775   7.040   1.137   7.738 -0.5804 -2.5596 -0.6866
 1714TIP3   OH226776   4.130   0.623   6.851  0.0892  0.1694  0.3476
 1714TIP3    H126777   4.090   0.551   6.899 -1.0334 -0.3655 -1.3158
 1714TIP3    H226778   4.056   0.674   6.818  0.7905  0.1290 -1.3539
 1715TIP3   OH226779   1.707   1.505   8.203  0.1899  0.5253 -0.7144
 1715TIP3    H126780   1.790   1.510   8.157  1.1518 -0.2918  0.8393
 1715TIP3    H226781   1.720   1.436   8.269 -1.6249  0.5633 -0.2600
 1716TIP3   OH226782   0.676   4.682   1.586 -0.1805  0.2923  0.2642
 1716TIP3    H126783   0.656   4.685   1.679 -2.4297 -0.9966 -0.0925
 1716TIP3    H226784   0.714   4.767   1.566 -0.8261  1.0578  2.1126
 1717TIP3   OH226785   0.065   0.766   1.685 -0.2344  0.1110 -0.2039
 1717TIP3    H126786   0.038   0.828   1.617  1.6322  0.4188 -0.7194
 1717TIP3    H226787   0.161   0.766   1.681 -0.1573 -2.7615 -0.1797
 1718TIP3   OH226788   3.504   6.950   0.656  0.1370 -0.0068  0.4010
 1718TIP3    H126789   3.535   6.937   0.746  0.8437 -0.8704  0.0507
 1718TIP3    H226790   3.522   6.866   0.613 -2.9432 -0.6832  0.2052
 1719TIP3   OH226791   1.681   2.020   1.766  0.0965  0.3251  0.1335
 1719TIP3    H126792   1.757   1.971   1.798  0.7215  0.9809 -0.3048
 1719TIP3    H226793   1.674   2.094   1.826  0.7674  1.1105 -0.7267
 1720TIP3   OH226794   0.221   6.499   0.138 -0.3255 -0.4709 -0.4055
 1720TIP3    H126795   0.232   6.526   0.229  1.7773 -1.6323 -0.2592
 1720TIP3    H226796   0.233   6.580   0.087 -0.6207  0.0146  0.2791
 1721TIP3   OH226797   3.501   3.696   7.848 -0.1773  0.3646 -0.2993
 1721TIP3    H126798   3.511   3.604   7.825  0.9624  0.1503  0.9402
 1721TIP3    H226799   3.531   3.743   7.770 -0.9624 -0.2893 -1.0188
 1722TIP3   OH226800   1.064   6.672   0.674  0.4129 -0.1679 -0.0944
 1722TIP3    H126801   1.105   6.589   0.649  0.3840 -0.7955  1.7924
 1722TIP3    H226802   1.138   6.733   0.682  0.5500 -0.2903 -0.3807
 1723TIP3   OH226803   6.815   1.075   7.324 -0.7994 -0.0865 -0.0081
 1723TIP3    H126804   6.799   1.061   7.231  0.8175  0.0473 -0.3398
 1723TIP3    H226805   6.795   0.990   7.364 -2.0498  0.0161 -0.3757
 1724TIP3   OH226806   0.954   3.578   0.336 -0.0590  0.5720  1.4074
 1724TIP3    H126807   0.949   3.560   0.430 -0.9802  0.2090  1.2991
 1724TIP3    H226808   0.958   3.673   0.330 -1.3682  0.6762  1.7878
 1725TIP3   OH226809   4.799   2.080   7.858 -0.1606 -0.5443  0.0347
 1725TIP3    H126810   4.783   2.000   7.908  0.9583 -0.9440 -0.2206
 1725TIP3    H226811   4.712   2.116   7.842 -0.5767 -0.1863  2.6026
 1726TIP3   OH226812   4.451   4.073   7.580 -0.0116 -0.2027 -0.3887
 1726TIP3    H126813   4.428   4.162   7.552  0.1265 -0.0862 -0.1336
 1726TIP3    H226814   4.547   4.074   7.586 -0.0303 -0.2798 -0.0887
 1727TIP3   OH226815   0.740   2.294   6.676  0.1822  0.1584 -0.2617
 1727TIP3    H126816   0.743   2.219   6.616  0.3984  0.4590 -0.6271
 1727TIP3    H226817   0.824   2.338   6.664  0.3278  0.0847  0.4436
 1728TIP3   OH226818   2.797   0.050   2.415 -0.0580 -0.1729 -1.3463
 1728TIP3    H126819   2.741  -0.008   2.467  0.1649  1.5321  0.9528
 1728TIP3    H226820   2.800   0.010   2.328 -2.5104 -1.8235 -0.7477
 1729TIP3   OH226821   5.130   0.600   0.661  0.0127  0.2452 -0.3931
 1729TIP3    H126822   5.162   0.529   0.606  0.6113  0.5149 -0.3972
 1729TIP3    H226823   5.120   0.674   0.602 -1.2664 -0.0060 -0.5246
 1730TIP3   OH226824   4.882   4.488   1.557 -0.0840  0.1471 -0.1819
 1730TIP3    H126825   4.841   4.457   1.476 -0.4472  0.4049 -0.0978
 1730TIP3    H226826   4.931   4.412   1.589 -0.8947 -0.3174 -0.0300
 1731TIP3   OH226827   6.258   5.810   0.753  0.0411 -0.6009  0.5189
 1731TIP3    H126828   6.199   5.863   0.699 -0.4830 -1.3574  0.3305
 1731TIP3    H226829   6.311   5.874   0.801  0.2406  0.0908 -0.5877
 1732TIP3   OH226830   1.201   6.941   1.762  0.2447  0.5149  0.4245
 1732TIP3    H126831   1.134   6.873   1.762 -0.0903  0.6921 -2.8258
 1732TIP3    H226832   1.284   6.894   1.767 -0.0216  0.1136  1.3443
 1733TIP3   OH226833   0.403   3.180   0.358  0.7809 -0.0443  0.3901
 1733TIP3    H126834   0.477   3.176   0.419  0.4258 -0.5824  0.7920
 1733TIP3    H226835   0.360   3.095   0.367 -0.1146  0.4122  0.4425
 1734TIP3   OH226836   2.676   5.328   8.395 -0.0823 -0.2255 -0.3377
 1734TIP3    H126837   2.683   5.242   8.435  2.1689  0.1095  0.1171
 1734TIP3    H226838   2.585   5.334   8.366 -0.6079 -2.2393  0.7341
 1735TIP3   OH226839   6.276   4.793   7.725  0.5436  0.4275  0.1111
 1735TIP3    H126840   6.356   4.788   7.673  1.3738  0.7705  1.3149
 1735TIP3    H226841   6.222   4.720   7.694  1.5322 -0.1063 -0.3857
 1736TIP3   OH226842   0.946   0.541   7.866 -0.2157  0.0980 -0.2080
 1736TIP3    H126843   0.947   0.621   7.919  1.1287  1.4239 -2.0967
 1736TIP3    H226844   1.020   0.490   7.900 -1.3068 -0.6028  1.2591
 1737TIP3   OH226845   1.517   5.833   1.680 -0.8241  0.4139  0.3861
 1737TIP3    H126846   1.578   5.767   1.714 -1.1276  0.2383  0.5945
 1737TIP3    H226847   1.431   5.804   1.710 -1.0820  0.3525 -0.3896
 1738TIP3   OH226848   4.687   6.041   0.922  1.1755  0.2300  0.1588
 1738TIP3    H126849   4.711   5.961   0.875  0.6635  0.0702  0.1567
 1738TIP3    H226850   4.666   6.104   0.853 -0.6611 -0.3379  0.1307
 1739TIP3   OH226851   6.002   5.760   7.232  0.0201  0.1614  0.3599
 1739TIP3    H126852   5.952   5.810   7.297  0.8713  0.1403  1.0496
 1739TIP3    H226853   6.002   5.670   7.265  0.1204  0.0708  0.1190
 1740TIP3   OH226854   4.734   1.152   8.045 -1.1799 -0.3644  0.3539
 1740TIP3    H126855   4.649   1.138   8.085 -1.7019  0.0388 -0.5777
 1740TIP3    H226856   4.727   1.111   7.959 -0.2741 -0.7340  0.4443
 1741TIP3   OH226857   1.852   2.111   1.091 -0.2888 -0.8653 -0.2902
 1741TIP3    H126858   1.911   2.084   1.161 -0.7020 -1.0834 -0.0246
 1741TIP3    H226859   1.771   2.062   1.106 -0.7413 -0.1543 -0.3194
 1742TIP3   OH226860   6.959   6.382   0.098  0.3979 -0.0915  0.3890
 1742TIP3    H126861   6.946   6.366   0.005 -0.0289 -3.4961  0.9000
 1742TIP3    H226862   7.046   6.422   0.104 -0.0775  1.3378 -1.5051
 1743TIP3   OH226863   6.662   6.216   0.706  0.1310  0.2304 -0.0457
 1743TIP3    H126864   6.729   6.276   0.674 -1.6090  1.3066 -1.9079
 1743TIP3    H226865   6.711   6.138   0.732  2.0812  0.7524 -1.8353
 1744TIP3   OH226866   1.741   5.013   1.202 -0.4530  0.1916 -0.2402
 1744TIP3    H126867   1.699   4.986   1.284  1.7370 -1.2326  0.4825
 1744TIP3    H226868   1.814   5.069   1.230 -0.6776  1.0664 -1.3449
 1745TIP3   OH226869   6.317   0.947   0.292 -0.0212  0.0279  0.2531
 1745TIP3    H126870   6.250   0.995   0.244  0.0948 -0.1827 -0.1183
 1745TIP3    H226871   6.301   0.970   0.384 -0.8951 -0.3823  0.2155
 1746TIP3   OH226872   1.181   5.271   7.528 -0.7834 -0.0880  0.4017
 1746TIP3    H126873   1.266   5.242   7.495 -0.8820 -0.7949  0.7504
 1746TIP3    H226874   1.188   5.367   7.532  0.7388 -0.2148  2.3277
 1747TIP3   OH226875   0.320   5.123   2.413 -0.7083  0.0881 -0.0769
 1747TIP3    H126876   0.364   5.148   2.331 -2.7761  2.2730 -0.6381
 1747TIP3    H226877   0.257   5.056   2.386  0.1506 -0.8542  0.1885
 1748TIP3   OH226878   3.135   0.691   2.841 -0.2954  0.5787 -0.2344
 1748TIP3    H126879   3.199   0.651   2.900 -0.4844 -1.0047 -1.0455
 1748TIP3    H226880   3.187   0.735   2.775 -0.0420 -0.0155 -0.4370
 1749TIP3   OH226881   2.420   6.624   0.496  0.0015 -0.2296 -0.2407
 1749TIP3    H126882   2.474   6.582   0.429  0.2753  0.9772 -0.8096
 1749TIP3    H226883   2.456   6.591   0.579 -0.2071 -1.5778 -0.6559
 1750TIP3   OH226884   5.924   1.724   7.374 -0.0608  0.0592 -0.4602
 1750TIP3    H126885   5.865   1.721   7.450  1.0727 -1.6573  0.3969
 1750TIP3    H226886   5.878   1.674   7.307 -0.6572  0.8071 -0.6239
 1751TIP3   OH226887   0.060   2.565   2.652 -0.0683  0.4015 -0.0649
 1751TIP3    H126888   0.127   2.516   2.700 -1.6828 -0.9508  0.8765
 1751TIP3    H226889  -0.021   2.516   2.666 -0.9180  0.8463 -2.8853
 1752TIP3   OH226890   2.875   3.173   0.916 -0.4698 -0.0413 -0.3828
 1752TIP3    H126891   2.951   3.183   0.973 -0.3595 -3.9227  0.3685
 1752TIP3    H226892   2.899   3.218   0.835  0.4491  3.2534  1.5355
 1753TIP3   OH226893   0.322   5.677   6.847 -0.4899  0.4451  0.2724
 1753TIP3    H126894   0.329   5.699   6.754  0.7399  1.9568  0.6970
 1753TIP3    H226895   0.339   5.759   6.893 -0.2664 -0.4554  1.8548
 1754TIP3   OH226896   2.859   5.918   6.945  0.0714  0.0941 -0.3542
 1754TIP3    H126897   2.923   5.979   6.981  0.6337 -1.0674  0.7245
 1754TIP3    H226898   2.907   5.872   6.876 -0.3349  0.8137 -1.1304
 1755TIP3   OH226899   6.806   2.663   1.915  0.2807 -0.2902 -0.0802
 1755TIP3    H126900   6.731   2.604   1.922 -0.4047  0.6529  0.8020
 1755TIP3    H226901   6.865   2.635   1.985  0.3184 -0.4268 -0.1664
 1756TIP3   OH226902   4.587   6.393   1.427 -0.2405 -0.1212  0.0888
 1756TIP3    H126903   4.672   6.414   1.388 -1.6879  2.1834 -2.0531
 1756TIP3    H226904   4.583   6.449   1.505 -0.8081  1.8163 -1.2647
 1757TIP3   OH226905   1.030   2.828   7.890 -0.8665 -0.0278  0.1536
 1757TIP3    H126906   1.087   2.782   7.953 -1.6259  1.3531  1.9467
 1757TIP3    H226907   1.029   2.772   7.813  0.0562 -1.8640  1.4032
 1758TIP3   OH226908   6.395   4.785   1.852  1.0331  0.3686 -0.5766
 1758TIP3    H126909   6.483   4.796   1.887  0.9504  0.4101 -0.3816
 1758TIP3    H226910   6.361   4.874   1.844  0.2342  0.2650  1.3337
 1759TIP3   OH226911   2.648   2.283   7.444  0.1396 -0.5951  0.1715
 1759TIP3    H126912   2.704   2.227   7.498  1.1275  1.6914  1.6690
 1759TIP3    H226913   2.703   2.308   7.370 -0.1614 -1.2661 -0.2817
 1760TIP3   OH226914   2.805   1.689   1.528 -0.2508  0.5941 -0.5919
 1760TIP3    H126915   2.792   1.718   1.619  2.3367  0.5101 -0.1153
 1760TIP3    H226916   2.796   1.768   1.476  0.9504  1.1966  0.0660
 1761TIP3   OH226917   3.656   3.761   1.889  0.1701 -0.1135  0.6235
 1761TIP3    H126918   3.738   3.724   1.923 -0.0243 -0.1899  1.0213
 1761TIP3    H226919   3.642   3.840   1.941 -0.1611 -0.2602  0.7615
 1762TIP3   OH226920   0.437   1.874   7.964 -0.2509 -0.2824  0.1641
 1762TIP3    H126921   0.371   1.874   7.895 -1.3784  0.4669  1.1754
 1762TIP3    H226922   0.446   1.967   7.988  1.6709 -0.2849 -0.3688
 1763TIP3   OH226923   0.760   4.289   0.858  0.3232 -0.1339  0.5889
 1763TIP3    H126924   0.722   4.203   0.873 -1.2247  0.2443 -0.8277
 1763TIP3    H226925   0.689   4.340   0.820  1.9854  0.9144 -1.3281
 1764TIP3   OH226926   1.127   0.747   2.189  0.5784 -0.0533 -0.1791
 1764TIP3    H126927   1.148   0.840   2.190  0.8934 -0.1198 -0.5384
 1764TIP3    H226928   1.041   0.743   2.146 -0.0805  0.1893  1.0469
 1765TIP3   OH226929   4.025   1.091   0.561 -0.4617 -0.3875 -0.0666
 1765TIP3    H126930   4.068   1.019   0.608  0.5352  1.7184  2.4905
 1765TIP3    H226931   4.079   1.104   0.483  0.8922 -0.7897  0.7593
 1766TIP3   OH226932   1.623   1.140   0.309 -0.3878  0.2870  0.2462
 1766TIP3    H126933   1.531   1.164   0.320 -1.0432 -1.7592 -0.2575
 1766TIP3    H226934   1.669   1.194   0.373 -2.0698  0.6092  1.2676
 1767TIP3   OH226935   6.645   4.186   1.419 -0.4937 -0.7072 -0.4895
 1767TIP3    H126936   6.700   4.128   1.365  2.1226  1.6838 -0.6266
 1767TIP3    H226937   6.623   4.132   1.495  2.5867 -1.7090 -0.1548
 1768TIP3   OH226938   3.499   3.030   0.466 -0.1862  0.4091  0.2739
 1768TIP3    H126939   3.579   2.977   0.475 -0.6373 -1.0627 -2.9142
 1768TIP3    H226940   3.433   2.981   0.516  0.5158  0.7881  1.6159
 1769TIP3   OH226941   1.533   3.813   2.792  0.1293  0.3895 -0.4442
 1769TIP3    H126942   1.580   3.830   2.710 -0.2321  0.9995 -0.5337
 1769TIP3    H226943   1.514   3.719   2.790  1.1745  0.1704 -0.4867
 1770TIP3   OH226944   6.652   3.960   1.209  0.4239 -0.1464 -0.2229
 1770TIP3    H126945   6.557   3.944   1.213 -0.0613  2.5036  1.2838
 1770TIP3    H226946   6.664   4.014   1.131  0.1429  2.1506  1.2436
 1771TIP3   OH226947   3.419   5.023   0.517 -0.1687 -0.1915 -0.1502
 1771TIP3    H126948   3.324   5.025   0.506 -0.1042  1.5587 -0.6440
 1771TIP3    H226949   3.444   5.115   0.524  1.8535 -0.3874 -3.2383
 1772TIP3   OH226950   6.371   3.072   8.068  0.2364 -0.2104 -0.0691
 1772TIP3    H126951   6.300   3.098   8.010  0.4550 -0.8517 -0.6508
 1772TIP3    H226952   6.383   2.978   8.050  0.3903 -0.3944  0.9302
 1773TIP3   OH226953   6.155   3.024   1.284 -0.1611  0.1222  0.6825
 1773TIP3    H126954   6.060   3.013   1.275 -0.1312  1.2560 -2.4134
 1773TIP3    H226955   6.171   3.115   1.258  1.8759 -0.3845 -0.0204
 1774TIP3   OH226956   6.119   2.668   2.780 -0.1174  0.1874 -0.4117
 1774TIP3    H126957   6.127   2.762   2.799  0.2613  0.1254 -0.2499
 1774TIP3    H226958   6.083   2.665   2.692 -0.3791  0.4836 -0.3201
 1775TIP3   OH226959   0.356   1.887   2.366 -0.0747 -0.4325  0.4584
 1775TIP3    H126960   0.264   1.885   2.394  0.0948 -0.6415  1.0170
 1775TIP3    H226961   0.356   1.841   2.282 -0.5299 -0.1599  0.3040
 1776TIP3   OH226962   5.060   0.677   1.178 -0.6743 -0.2841 -0.2829
 1776TIP3    H126963   5.001   0.666   1.252 -0.6138 -1.2309 -0.3718
 1776TIP3    H226964   5.134   0.726   1.214 -1.8167  1.6003 -0.3410
 1777TIP3   OH226965   5.999   6.340   0.930 -0.1090 -0.6481  0.7862
 1777TIP3    H126966   5.934   6.292   0.983  0.7249 -1.6920  0.9010
 1777TIP3    H226967   6.014   6.284   0.854  0.0613 -0.0237  0.3510
 1778TIP3   OH226968   3.788   1.952   7.690 -0.1116  0.1528 -0.2914
 1778TIP3    H126969   3.843   2.027   7.710 -1.5140  1.7366 -1.9139
 1778TIP3    H226970   3.794   1.943   7.595 -2.1831  0.0736 -0.4645
 1779TIP3   OH226971   5.479   5.031   8.129 -0.3037 -0.2223  0.0696
 1779TIP3    H126972   5.558   4.983   8.153 -0.0211 -0.2577 -0.8786
 1779TIP3    H226973   5.409   4.966   8.130  0.0864 -0.6733 -1.2534
 1780TIP3   OH226974   1.634   5.761   1.256  0.0861  0.1952 -0.2457
 1780TIP3    H126975   1.559   5.730   1.307  0.2117 -0.3436 -0.3806
 1780TIP3    H226976   1.624   5.856   1.254 -0.5660  0.1322 -0.2173
 1781TIP3   OH226977   5.760   2.466   0.502  0.2948  0.1762  0.3724
 1781TIP3    H126978   5.749   2.501   0.414  2.4546 -3.0592 -1.3689
 1781TIP3    H226979   5.846   2.496   0.529  0.3712 -0.2947  0.6572
 1782TIP3   OH226980   0.768   4.821   7.550 -0.1410 -0.4540  0.3057
 1782TIP3    H126981   0.747   4.886   7.616  0.4013  0.3393 -0.2896
 1782TIP3    H226982   0.703   4.834   7.481  1.3067  1.0002 -0.8494
 1783TIP3   OH226983   0.485   5.450   2.409  0.6859  0.4022 -0.4991
 1783TIP3    H126984   0.407   5.476   2.360 -0.1737  0.1142  0.6691
 1783TIP3    H226985   0.456   5.448   2.501  1.9783 -0.0419 -0.0772
 1784TIP3   OH226986   5.651   3.391   1.453 -0.1689 -0.3134 -0.1967
 1784TIP3    H126987   5.727   3.339   1.428  0.0615 -0.0364 -0.0655
 1784TIP3    H226988   5.594   3.387   1.376  1.4888  2.3481 -1.7370
 1785TIP3   OH226989   5.342   3.542   0.593 -0.5892  0.2293  0.0723
 1785TIP3    H126990   5.276   3.550   0.662 -0.8681 -2.1696  0.1727
 1785TIP3    H226991   5.374   3.631   0.580 -0.0266  0.7222  3.7556
 1786TIP3   OH226992   0.576   1.173   0.157 -0.1969 -0.4071 -0.7601
 1786TIP3    H126993   0.515   1.169   0.230  0.4074  1.2286 -0.1047
 1786TIP3    H226994   0.657   1.134   0.191 -0.2265 -0.5919 -0.9013
 1787TIP3   OH226995   0.454   4.707   1.217  0.0062 -0.2238 -0.2267
 1787TIP3    H126996   0.452   4.711   1.312 -3.4171 -0.0610 -0.1889
 1787TIP3    H226997   0.448   4.799   1.189 -4.1901 -0.3653 -0.3850
 1788TIP3   OH226998   6.199   1.854   0.437  0.6123  0.7159  0.2084
 1788TIP3    H126999   6.136   1.926   0.439 -1.2059 -0.7857  0.3275
 1788TIP3    H227000   6.223   1.841   0.529 -0.7990 -0.2195  0.4783
 1789TIP3   OH227001   5.405   2.329   3.071 -0.0973  0.3647 -0.0306
 1789TIP3    H127002   5.472   2.308   3.135 -0.9588 -1.2549  0.4036
 1789TIP3    H227003   5.443   2.399   3.018  1.2031  0.7269  1.3151
 1790TIP3   OH227004   5.598   2.514   8.445 -0.4328  0.0272 -0.1168
 1790TIP3    H127005   5.553   2.592   8.413  0.1442 -0.1017 -1.2959
 1790TIP3    H227006   5.689   2.526   8.419 -0.2983 -0.9614 -0.1565
 1791TIP3   OH227007   6.843   6.097   2.967 -0.7889  0.2023  0.0809
 1791TIP3    H127008   6.870   6.188   2.980  0.1958  0.4332 -2.8287
 1791TIP3    H227009   6.921   6.046   2.990 -1.0452  0.1473  0.8425
 1792TIP3   OH227010   0.439   5.112   1.915 -0.2345  0.5044 -0.2181
 1792TIP3    H127011   0.454   5.186   1.856 -0.3096  0.7577  0.0749
 1792TIP3    H227012   0.474   5.036   1.868  0.0380  0.7598 -0.4342
 1793TIP3   OH227013   3.310   2.181   7.136  0.2583  0.6383 -0.0448
 1793TIP3    H127014   3.227   2.208   7.095  0.0284 -0.3133 -0.2395
 1793TIP3    H227015   3.372   2.249   7.111 -0.5148  1.5012  0.3081
 1794TIP3   OH227016   3.164   2.383   7.337  0.3200  0.3571  0.3092
 1794TIP3    H127017   3.160   2.337   7.253 -0.1452 -1.3908  1.2441
 1794TIP3    H227018   3.208   2.465   7.317  0.3916 -0.1029 -1.6068
 1795TIP3   OH227019   5.113   1.792   1.884  0.2029  0.2584 -0.0036
 1795TIP3    H127020   5.069   1.862   1.932 -2.0206 -1.9242  1.3641
 1795TIP3    H227021   5.046   1.755   1.827  1.7031  0.0562 -1.7310
 1796TIP3   OH227022   2.513   2.037   2.748 -0.0715 -0.5380 -0.3244
 1796TIP3    H127023   2.481   1.964   2.801  1.0488  1.0478  2.8427
 1796TIP3    H227024   2.438   2.097   2.743 -0.1667 -0.6711 -0.4824
 1797TIP3   OH227025   4.706   1.327   1.277 -0.5736 -0.3535 -0.2490
 1797TIP3    H127026   4.633   1.289   1.326 -1.2358  0.3779 -0.6499
 1797TIP3    H227027   4.674   1.334   1.187  1.0658 -2.9102 -1.1575
 1798TIP3   OH227028   4.494   3.531   0.348 -0.3254  0.6439 -0.6946
 1798TIP3    H127029   4.494   3.577   0.263  0.0948  0.6615 -0.6852
 1798TIP3    H227030   4.585   3.509   0.363 -0.2456  1.5597  0.2548
 1799TIP3   OH227031   6.685   1.567   0.218  0.5698  0.3777  0.1133
 1799TIP3    H127032   6.675   1.510   0.142 -0.3209 -1.9794  1.8383
 1799TIP3    H227033   6.609   1.547   0.273 -0.2170  3.9127  0.5197
 1800TIP3   OH227034   1.590   0.992   1.926 -0.1090  0.1691  0.1966
 1800TIP3    H127035   1.501   1.019   1.906  0.1853  0.5795 -0.6083
 1800TIP3    H227036   1.645   1.043   1.865  0.4913 -2.1783 -1.3449
 1801TIP3   OH227037   5.174   0.442   1.686 -0.3883 -0.3335 -0.3234
 1801TIP3    H127038   5.200   0.460   1.595  1.1643 -0.9160 -0.0141
 1801TIP3    H227039   5.183   0.527   1.730 -0.5893 -0.1768 -0.5783
 1802TIP3   OH227040   2.426   3.624   6.813 -0.2953  0.3856 -0.7632
 1802TIP3    H127041   2.507   3.598   6.856  1.7517  3.5390 -2.3323
 1802TIP3    H227042   2.404   3.709   6.851 -1.8401  0.4143 -1.6332
 1803TIP3   OH227043   2.891   5.883   8.141 -0.1146 -0.4757  0.1075
 1803TIP3    H127044   2.945   5.928   8.076  0.5371 -0.7027  0.4909
 1803TIP3    H227045   2.953   5.842   8.201 -0.7109 -0.5870  0.6628
 1804TIP3   OH227046   3.499   2.329   7.025 -0.0291 -0.4520 -0.1301
 1804TIP3    H127047   3.550   2.390   7.078  1.5517 -1.2942 -0.6114
 1804TIP3    H227048   3.531   2.343   6.936 -0.5543 -1.1072 -0.4279
 1805TIP3   OH227049   3.727   2.294   7.876 -0.3208  0.4807  0.3180
 1805TIP3    H127050   3.753   2.315   7.786 -0.9464  0.1891  0.0594
 1805TIP3    H227051   3.800   2.245   7.912  0.5985  1.9136  0.4819
 1806TIP3   OH227052   4.729   0.759   1.964  0.7472 -0.3002 -0.3973
 1806TIP3    H127053   4.702   0.685   2.017 -0.6629 -0.5204 -1.3573
 1806TIP3    H227054   4.772   0.818   2.025 -0.8866 -0.5001  1.0292
 1807TIP3   OH227055   2.265   3.651   7.355  0.7076  0.0258  0.1839
 1807TIP3    H127056   2.246   3.678   7.265  1.0314  1.1873  0.4402
 1807TIP3    H227057   2.183   3.613   7.387  0.1462  0.9348 -0.1409
 1808TIP3   OH227058   1.127   1.912   1.089  0.2675 -0.3353 -0.2960
 1808TIP3    H127059   1.213   1.893   1.126  1.2324 -0.0431 -2.2349
 1808TIP3    H227060   1.066   1.898   1.161  2.0643  1.0472  1.6226
 1809TIP3   OH227061   6.529   2.157   0.875  0.4548  0.2535 -0.5934
 1809TIP3    H127062   6.491   2.227   0.927 -0.4026  1.9132 -3.2412
 1809TIP3    H227063   6.623   2.179   0.872  0.5078  0.1581  0.1942
 1810TIP3   OH227064   1.948   1.607   0.391 -0.4850  0.2366 -0.0219
 1810TIP3    H127065   1.903   1.568   0.466  0.4036 -0.6307  0.0735
 1810TIP3    H227066   1.877   1.628   0.329 -1.1267 -0.0091  0.6133
 1811TIP3   OH227067   2.282   6.903   7.768  0.0477 -0.2977 -0.4371
 1811TIP3    H127068   2.271   6.817   7.809  0.3050 -1.8080 -3.2521
 1811TIP3    H227069   2.354   6.890   7.706 -1.1863  1.3690 -2.3201
 1812TIP3   OH227070   2.715   0.703   1.737 -0.6253  0.4849  0.3794
 1812TIP3    H127071   2.649   0.640   1.710 -0.6778  1.6390 -2.6344
 1812TIP3    H227072   2.798   0.665   1.709 -0.4894  0.9483  0.1263
 1813TIP3   OH227073   0.799   0.884   1.315 -0.3228  0.1525 -0.1623
 1813TIP3    H127074   0.894   0.870   1.307 -0.3815 -0.2993 -0.0542
 1813TIP3    H227075   0.762   0.845   1.236 -0.3186  1.3824 -0.7957
 1814TIP3   OH227076   5.969   2.623   2.016 -0.2119  0.2250  0.1201
 1814TIP3    H127077   5.961   2.701   2.072  2.9331 -0.3959  1.6686
 1814TIP3    H227078   6.024   2.563   2.066 -1.9174 -2.7856 -1.3298
 1815TIP3   OH227079   2.110   5.072   2.832  0.0053 -0.6110  0.1298
 1815TIP3    H127080   2.181   5.135   2.831 -0.3789 -0.1803 -0.0939
 1815TIP3    H227081   2.042   5.110   2.776 -0.9997 -0.3194  1.4897
 1816TIP3   OH227082   6.837   1.776   0.337  0.2679  0.3210  0.0679
 1816TIP3    H127083   6.820   1.865   0.308  0.8060 -0.3632 -2.6038
 1816TIP3    H227084   6.769   1.723   0.294  1.7199 -0.8806 -0.8934
 1817TIP3   OH227085   0.077   4.123   1.219 -0.3181  0.3923 -0.0949
 1817TIP3    H127086   0.035   4.058   1.275  1.2607 -1.9921 -1.4940
 1817TIP3    H227087   0.019   4.131   1.143 -1.1874  1.7157  0.6686
 1818TIP3   OH227088   5.740   5.891   1.642 -0.6348 -0.5230  0.3239
 1818TIP3    H127089   5.741   5.896   1.546 -0.8863  0.4357  0.3529
 1818TIP3    H227090   5.831   5.907   1.668 -0.4898 -1.1983  0.2319
 1819TIP3   OH227091   1.366   2.490   1.548 -0.2715 -0.2566  0.4608
 1819TIP3    H127092   1.294   2.477   1.610 -0.0949 -1.0907  0.4979
 1819TIP3    H227093   1.357   2.581   1.520 -1.3193 -0.3357  0.4958
 1820TIP3   OH227094   5.261   4.352   1.669  0.4726  0.5450 -0.2127
 1820TIP3    H127095   5.313   4.313   1.598  0.1937  1.1441 -0.7577
 1820TIP3    H227096   5.301   4.438   1.683 -0.8751  1.3796 -1.2314
 1821TIP3   OH227097   2.107   4.925   1.035 -0.3056 -0.1336  0.3975
 1821TIP3    H127098   2.175   4.968   0.984 -0.0911  0.9793  1.5802
 1821TIP3    H227099   2.087   4.986   1.105 -1.3364 -1.1715  1.0447
 1822TIP3   OH227100   6.736   3.729   7.245 -0.7568  0.3081 -0.1354
 1822TIP3    H127101   6.698   3.660   7.191  0.0729  1.7851 -2.8108
 1822TIP3    H227102   6.825   3.698   7.264 -1.2017 -0.4203  0.8537
 1823TIP3   OH227103   2.508   0.272   7.392  0.2541  0.1742 -0.0264
 1823TIP3    H127104   2.595   0.312   7.383 -0.5487  2.3087  1.0040
 1823TIP3    H227105   2.506   0.204   7.325  3.1887 -0.8537  0.7773
 1824TIP3   OH227106   5.562   5.617   0.574  0.3116 -0.5010  0.2612
 1824TIP3    H127107   5.532   5.552   0.638  1.6416 -0.6504  0.7555
 1824TIP3    H227108   5.507   5.694   0.590  0.1196 -0.7965  1.0674
 1825TIP3   OH227109   5.264   1.834   2.738  0.5785  0.2469  0.4409
 1825TIP3    H127110   5.242   1.870   2.652  0.9341  0.7762  0.5651
 1825TIP3    H227111   5.355   1.807   2.730  0.1732 -1.1154  0.1964
 1826TIP3   OH227112   6.589   2.924   0.567 -0.3408  0.2177 -0.2006
 1826TIP3    H127113   6.601   3.013   0.533 -2.2099  0.3573 -0.6015
 1826TIP3    H227114   6.552   2.937   0.655 -1.4172 -0.1496 -0.5874
 1827TIP3   OH227115   1.082   0.752   6.910  0.5815 -0.1539  0.4549
 1827TIP3    H127116   1.173   0.741   6.882  0.8656  0.1355  1.2240
 1827TIP3    H227117   1.045   0.818   6.852  0.8592 -0.2863  0.1292
 1828TIP3   OH227118   2.424   5.659   0.473  0.2161  0.4399  0.2435
 1828TIP3    H127119   2.472   5.581   0.445 -0.1841 -0.1480  1.1390
 1828TIP3    H227120   2.454   5.728   0.415  1.3876 -0.1397  0.1301
 1829TIP3   OH227121   1.275   2.772   0.298 -0.2553 -0.0975  0.1137
 1829TIP3    H127122   1.236   2.704   0.242  0.0915  0.4613 -0.8402
 1829TIP3    H227123   1.246   2.854   0.258  0.3012  0.3145  0.5543
 1830TIP3   OH227124   4.873   4.151   0.370  0.2972  0.0548 -0.0172
 1830TIP3    H127125   4.802   4.089   0.388  0.9435 -0.3638  1.2774
 1830TIP3    H227126   4.874   4.161   0.275 -0.3299 -1.3326 -0.1915
 1831TIP3   OH227127   4.815   0.427   0.964  0.1836 -0.6283 -0.6894
 1831TIP3    H127128   4.902   0.396   0.937  0.7530  1.2842 -1.2353
 1831TIP3    H227129   4.822   0.522   0.961 -1.6031 -0.4217  0.4148
 1832TIP3   OH227130   6.673   3.091   1.534  0.3580 -0.0996  0.1865
 1832TIP3    H127131   6.693   2.999   1.548  1.8966  0.4179  1.8729
 1832TIP3    H227132   6.638   3.121   1.618  0.5439  0.9858 -0.1060
 1833TIP3   OH227133   2.123   5.459   7.999 -0.3811 -0.8141 -0.5240
 1833TIP3    H127134   2.124   5.482   7.906 -0.1060 -0.9832 -0.5651
 1833TIP3    H227135   2.098   5.367   8.000 -0.8528 -0.6871 -0.3997
 1834TIP3   OH227136   5.310   4.982   7.149 -0.2177 -0.0566  0.2010
 1834TIP3    H127137   5.259   5.027   7.082  0.2887 -0.2576 -0.3236
 1834TIP3    H227138   5.382   5.043   7.169 -1.3865  0.8587  1.9462
 1835TIP3   OH227139   5.674   5.040   1.976 -0.4652 -0.3624 -0.0018
 1835TIP3    H127140   5.613   5.049   1.903 -2.3538 -1.3797  1.3427
 1835TIP3    H227141   5.623   5.068   2.052  1.0400 -0.4916  1.0762
 1836TIP3   OH227142   2.594   4.960   0.612  0.0154  0.3550 -0.3264
 1836TIP3    H127143   2.556   4.879   0.646  0.9098  0.1099  0.1217
 1836TIP3    H227144   2.559   5.029   0.668 -0.1954  0.1992 -0.2654
 1837TIP3   OH227145   2.367   4.640   1.990 -0.0428  0.2623 -0.0119
 1837TIP3    H127146   2.348   4.665   2.080 -1.1367 -0.6285  0.0193
 1837TIP3    H227147   2.402   4.552   1.995 -0.2379  0.1517 -0.4634
 1838TIP3   OH227148   1.748   1.858   1.059  0.2306 -0.0929  0.4426
 1838TIP3    H127149   1.729   1.894   1.145  0.5769  0.2867  0.3620
 1838TIP3    H227150   1.690   1.782   1.052 -1.8378  1.4346 -0.0891
 1839TIP3   OH227151   6.020   3.491   0.159  0.1176 -0.3584  0.4942
 1839TIP3    H127152   6.107   3.480   0.120 -0.4215 -1.3496 -0.4763
 1839TIP3    H227153   6.030   3.457   0.248  0.5100 -1.3254  0.0980
 1840TIP3   OH227154   5.368   5.085   3.174  0.3384 -0.2855  0.1799
 1840TIP3    H127155   5.379   5.112   3.083  0.6767  1.0987  0.6137
 1840TIP3    H227156   5.457   5.069   3.205  0.1488 -2.0059 -0.0711
 1841TIP3   OH227157   6.687   2.752   8.277  0.2991  0.0109 -0.1546
 1841TIP3    H127158   6.731   2.666   8.282  2.2888  0.9733 -0.2280
 1841TIP3    H227159   6.693   2.777   8.185  0.7325  0.7220  0.0633
 1842TIP3   OH227160   0.809   5.557   2.066 -0.0598  0.5755 -0.1464
 1842TIP3    H127161   0.888   5.578   2.017  0.0529  0.3759 -0.0525
 1842TIP3    H227162   0.835   5.487   2.126  0.0476  1.4646  0.8676
 1843TIP3   OH227163   4.215   1.004   0.926  0.2502  0.0041 -0.1208
 1843TIP3    H127164   4.279   1.010   0.997 -0.4156  1.8014  0.3874
 1843TIP3    H227165   4.143   0.954   0.963  0.0249  0.6988  0.4077
 1844TIP3   OH227166   6.250   3.741   1.754  0.3436  0.2706  0.5307
 1844TIP3    H127167   6.161   3.775   1.752 -0.0649 -0.7450  0.8655
 1844TIP3    H227168   6.263   3.701   1.669  1.6636  3.2129 -0.8034
 1845TIP3   OH227169   0.788   6.657   0.462  0.2887 -0.2226 -0.3596
 1845TIP3    H127170   0.827   6.739   0.492  1.4558 -0.7575 -0.3579
 1845TIP3    H227171   0.838   6.635   0.383 -2.0314  0.6342 -2.2057
 1846TIP3   OH227172   6.595   4.094   1.680  0.0722  0.3337 -0.1062
 1846TIP3    H127173   6.620   4.072   1.770  2.8440 -2.2174 -1.3241
 1846TIP3    H227174   6.506   4.061   1.672  0.0440 -0.1038  1.4906
 1847TIP3   OH227175   6.921   6.503   7.581  0.0097  0.1159  0.2014
 1847TIP3    H127176   7.014   6.525   7.584 -0.1681  0.8618  0.5734
 1847TIP3    H227177   6.916   6.413   7.613  0.8839 -0.9211 -2.2542
 1848TIP3   OH227178   1.001   0.721   8.057 -0.0832  0.6518  0.0714
 1848TIP3    H127179   1.056   0.797   8.038  0.4918  0.1893 -0.1270
 1848TIP3    H227180   1.060   0.657   8.096 -1.0108  1.1624  2.4849
 1849TIP3   OH227181   0.156   2.716   0.967 -0.0916 -0.3226 -0.8561
 1849TIP3    H127182   0.230   2.680   0.918  0.8320  0.2215  0.1259
 1849TIP3    H227183   0.100   2.641   0.984  1.1092 -1.0588 -0.0754
 1850TIP3   OH227184   1.762   1.682   1.813  0.0570  0.3723  0.4523
 1850TIP3    H127185   1.709   1.698   1.891 -0.1253  2.5956 -0.0562
 1850TIP3    H227186   1.700   1.686   1.740  0.2944 -1.2442  0.1266
 1851TIP3   OH227187   3.904   2.578   7.913 -0.1823 -0.0455  0.2442
 1851TIP3    H127188   3.839   2.528   7.864 -0.1360 -0.5341  0.6808
 1851TIP3    H227189   3.859   2.660   7.935  0.0504  0.5314 -1.2888
 1852TIP3   OH227190   2.535   1.866   1.977 -0.3772  0.2596  0.5884
 1852TIP3    H127191   2.580   1.895   1.898  1.1716  1.4359  1.8107
 1852TIP3    H227192   2.456   1.822   1.946  0.1413  0.7442 -1.5769
 1853TIP3   OH227193   0.253   0.751   7.954 -0.0429 -0.1024 -0.5171
 1853TIP3    H127194   0.210   0.835   7.969 -0.2687 -0.4335  0.8314
 1853TIP3    H227195   0.325   0.749   8.017 -1.9287 -2.2002  1.8010
 1854TIP3   OH227196   6.486   2.436   7.458 -0.4795  0.0256  0.3364
 1854TIP3    H127197   6.419   2.501   7.479 -1.7137 -0.6867 -1.1673
 1854TIP3    H227198   6.505   2.451   7.365  2.5844  1.1591  1.0270
 1855TIP3   OH227199   3.929   0.772   7.418 -0.0862  0.2700 -0.4332
 1855TIP3    H127200   3.972   0.694   7.383  2.2592  1.4230 -0.3669
 1855TIP3    H227201   3.966   0.782   7.506 -0.4889  1.3281 -0.3707
 1856TIP3   OH227202   4.878   5.500   1.968 -0.4544 -0.1380  0.0471
 1856TIP3    H127203   4.857   5.593   1.961 -2.3143 -0.4369  0.9885
 1856TIP3    H227204   4.836   5.460   1.892 -0.5297 -0.3286  0.1871
 1857TIP3   OH227205   4.465   0.104   0.911 -0.4903 -0.6178  0.5137
 1857TIP3    H127206   4.476   0.009   0.904 -1.1366 -0.6085 -0.7835
 1857TIP3    H227207   4.371   0.116   0.925 -0.2645 -0.2087  1.8250
 1858TIP3   OH227208   5.529   6.018   2.271 -0.0026 -0.2707 -0.1467
 1858TIP3    H127209   5.622   6.034   2.252  0.3580 -1.3621  0.6008
 1858TIP3    H227210   5.493   5.987   2.187  0.0395  1.1682 -0.7213
 1859TIP3   OH227211   1.219   6.136   1.752  0.1677  0.5657  0.2624
 1859TIP3    H127212   1.132   6.143   1.790  0.4750  2.6618  0.7338
 1859TIP3    H227213   1.207   6.155   1.659  0.4620  5.1265  0.9066
 1860TIP3   OH227214   2.974   3.185   3.374 -0.2580  0.3822  0.0765
 1860TIP3    H127215   2.995   3.203   3.283  0.0443  1.6602  0.3909
 1860TIP3    H227216   3.043   3.127   3.404 -1.1969 -1.3490 -0.9188
 1861TIP3   OH227217   2.933   6.770   1.928 -0.8687  0.3807  0.0043
 1861TIP3    H127218   2.900   6.691   1.886 -0.0654 -0.2342  0.4890
 1861TIP3    H227219   3.025   6.775   1.900 -0.4981  0.3166  1.1444
 1862TIP3   OH227220   2.408   5.348   7.627  0.3117 -0.5032 -0.1375
 1862TIP3    H127221   2.385   5.423   7.573 -0.0509  0.4921  1.3462
 1862TIP3    H227222   2.408   5.274   7.566  0.6805  0.6715 -1.6314
 1863TIP3   OH227223   4.743   2.631   0.508 -0.1764  0.3291  0.1331
 1863TIP3    H127224   4.699   2.682   0.440  0.2670  0.3193 -0.1679
 1863TIP3    H227225   4.771   2.697   0.572 -1.2005  0.2672  0.6629
 1864TIP3   OH227226   3.896   1.949   2.077 -0.2805  0.2474 -0.5635
 1864TIP3    H127227   3.942   2.002   2.141 -0.8767  1.3711 -1.0451
 1864TIP3    H227228   3.964   1.894   2.037  0.3695  0.7527 -0.1610
 1865TIP3   OH227229   0.965   3.078   7.699 -0.7127 -0.2147 -0.1419
 1865TIP3    H127230   0.940   2.993   7.662 -0.7061 -0.2425 -0.0818
 1865TIP3    H227231   0.891   3.136   7.679 -0.0984  0.1548 -1.5187
 1866TIP3   OH227232   0.384   1.661   1.887  0.5048 -0.4047 -0.0417
 1866TIP3    H127233   0.310   1.693   1.834 -0.4152 -1.6518  0.4283
 1866TIP3    H227234   0.456   1.652   1.825 -0.1582 -0.5065 -0.8129
 1867TIP3   OH227235   4.633   6.534   7.854  0.4108 -0.0348  0.0851
 1867TIP3    H127236   4.632   6.556   7.760  1.7111  1.2862  0.3439
 1867TIP3    H227237   4.642   6.619   7.898  2.4373 -0.7928  1.2759
 1868TIP3   OH227238   4.316   5.896   8.422 -0.0122 -0.8514 -0.3175
 1868TIP3    H127239   4.386   5.952   8.391 -0.7585  0.8852  0.9465
 1868TIP3    H227240   4.240   5.919   8.369 -0.5829  0.1452  0.8682
 1869TIP3   OH227241   5.279   2.468   7.958 -0.4151 -0.0906 -0.1169
 1869TIP3    H127242   5.286   2.526   7.882 -1.9598 -0.3035 -0.4475
 1869TIP3    H227243   5.232   2.392   7.926  0.9640 -1.2465  0.4938
 1870TIP3   OH227244   0.797   5.030   2.053 -0.0468 -0.1280 -0.0647
 1870TIP3    H127245   0.711   5.053   2.089 -1.1756 -1.4211 -1.7591
 1870TIP3    H227246   0.832   5.112   2.020 -0.8138  0.3477  0.2574
 1871TIP3   OH227247   5.981   0.790   2.361  0.4145 -0.6910 -0.0349
 1871TIP3    H127248   5.898   0.826   2.331  0.8392 -0.5722 -1.1123
 1871TIP3    H227249   6.005   0.845   2.436 -0.3597 -0.5913  0.1498
 1872TIP3   OH227250   4.688   2.125   1.953  0.0863  0.5517  0.3680
 1872TIP3    H127251   4.602   2.149   1.987  0.0229 -2.9989  3.4195
 1872TIP3    H227252   4.749   2.184   1.997 -0.5305  0.2229  1.7238
 1873TIP3   OH227253   6.218   5.365   8.150 -0.2224  0.1518 -0.2460
 1873TIP3    H127254   6.172   5.422   8.211  0.0220  2.0300 -1.7285
 1873TIP3    H227255   6.159   5.356   8.076  1.4153  2.0815 -1.8967
 1874TIP3   OH227256   4.422   2.774   2.119  0.2404  0.1040 -0.1455
 1874TIP3    H127257   4.332   2.742   2.117  0.7146 -1.2932 -0.3199
 1874TIP3    H227258   4.457   2.744   2.203  0.6361  0.3379 -0.2227
 1875TIP3   OH227259   2.871   0.648   2.011  0.4672  0.4120 -0.1366
 1875TIP3    H127260   2.954   0.646   2.060  0.4149 -1.0299 -0.0706
 1875TIP3    H227261   2.888   0.594   1.934 -0.2784  0.4733 -0.3474
 1876TIP3   OH227262   0.109   1.348   7.005  0.1828  0.5538  0.3674
 1876TIP3    H127263   0.085   1.256   7.010 -1.7139  1.0172  0.8252
 1876TIP3    H227264   0.096   1.372   6.914  1.7689  0.1262  0.0088
 1877TIP3   OH227265   0.090   6.886   6.680 -0.3301 -0.6179  0.0432
 1877TIP3    H127266   0.113   6.960   6.624  0.7993 -0.4531  0.6982
 1877TIP3    H227267   0.129   6.906   6.765  2.8319 -3.3523 -0.5263
 1878TIP3   OH227268   3.135   1.240   1.607 -0.2498  0.0810 -0.0843
 1878TIP3    H127269   3.119   1.256   1.700 -0.8544  1.4078 -0.3855
 1878TIP3    H227270   3.107   1.321   1.564  1.8609  0.2435 -1.2450
 1879TIP3   OH227271   6.629   6.133   6.705 -0.7359 -0.1621 -0.4472
 1879TIP3    H127272   6.697   6.080   6.747 -0.8839  0.7034  0.9766
 1879TIP3    H227273   6.548   6.086   6.723 -0.7504 -0.0107 -0.0928
 1880TIP3   OH227274   5.660   5.677   7.981  0.2169 -0.0599  0.0127
 1880TIP3    H127275   5.686   5.620   7.908  0.9403 -0.0329  0.2376
 1880TIP3    H227276   5.735   5.735   7.994  0.2500 -0.3041  1.0135
 1881TIP3   OH227277   5.140   3.346   3.342  0.1723  0.0792  0.3999
 1881TIP3    H127278   5.094   3.335   3.258  2.9962  0.7940 -1.3841
 1881TIP3    H227279   5.169   3.437   3.342 -1.1395  0.5937  3.0120
 1882TIP3   OH227280   6.888   3.459   7.649  0.1469 -0.2366  0.1861
 1882TIP3    H127281   6.930   3.419   7.573  1.0875 -0.2868  0.7137
 1882TIP3    H227282   6.838   3.532   7.614 -0.4579 -1.0202 -0.6248
 1883TIP3   OH227283   2.134   5.019   6.875  0.1197 -0.0071 -0.3661
 1883TIP3    H127284   2.124   5.062   6.790 -0.5570 -1.0030 -0.8124
 1883TIP3    H227285   2.108   5.086   6.939  1.1893  0.9390 -0.8886
 1884TIP3   OH227286   3.345   6.167   0.912  0.0301 -0.3355 -0.6007
 1884TIP3    H127287   3.415   6.154   0.975 -0.9642 -0.2728  0.5533
 1884TIP3    H227288   3.315   6.078   0.892 -1.7673 -0.2900  1.5183
 1885TIP3   OH227289   2.808   2.121   8.262  0.1100  0.0493 -0.1492
 1885TIP3    H127290   2.835   2.191   8.202  0.4935  0.8918  0.9639
 1885TIP3    H227291   2.763   2.167   8.333  0.1490 -0.8676  0.4850
 1886TIP3   OH227292   2.774   0.237   0.161 -0.1917 -0.3746 -0.0293
 1886TIP3    H127293   2.753   0.162   0.216  0.6950  2.0441  3.9673
 1886TIP3    H227294   2.720   0.308   0.195  1.0410  1.5364 -1.7796
 1887TIP3   OH227295   4.563   2.550   0.901  0.0500 -0.0074 -0.3184
 1887TIP3    H127296   4.473   2.557   0.868 -0.6351 -0.5091  1.3158
 1887TIP3    H227297   4.600   2.637   0.889 -0.8612  0.3642 -0.4979
 1888TIP3   OH227298   2.745   5.353   2.435 -0.3325  0.0451 -0.2295
 1888TIP3    H127299   2.726   5.418   2.368 -1.3369 -2.9798 -3.1283
 1888TIP3    H227300   2.835   5.373   2.464 -0.0599  1.7586 -2.1129
 1889TIP3   OH227301   2.838   0.462   7.933 -0.4347  0.0001  0.2555
 1889TIP3    H127302   2.890   0.408   7.873  0.5687  2.1042 -0.8983
 1889TIP3    H227303   2.764   0.491   7.881  0.9818  2.6885 -0.4175
 1890TIP3   OH227304   5.258   5.622   0.391  0.2970  0.0758  0.3143
 1890TIP3    H127305   5.192   5.561   0.422 -0.5289  0.6649 -0.2411
 1890TIP3    H227306   5.307   5.572   0.325  1.2444 -0.7655  1.6001
 1891TIP3   OH227307   1.364   3.126   8.301 -0.2603  0.1940 -0.0788
 1891TIP3    H127308   1.336   3.133   8.209  1.0637 -0.2509 -0.5441
 1891TIP3    H227309   1.290   3.159   8.351 -0.4106  1.9688 -1.3770
 1892TIP3   OH227310   0.573   1.492   0.337 -0.1589  0.5380  0.7915
 1892TIP3    H127311   0.492   1.491   0.286  0.1172  2.6280  0.2004
 1892TIP3    H227312   0.579   1.404   0.375 -2.0477 -0.0520 -0.1453
 1893TIP3   OH227313   0.881   3.696   1.656  0.0617 -0.0334 -0.0215
 1893TIP3    H127314   0.792   3.721   1.631  1.0390  1.0521 -2.7718
 1893TIP3    H227315   0.922   3.778   1.684  1.5957  0.6241 -3.6520
 1894TIP3   OH227316   3.349   1.332   1.851 -0.3246  0.7647  0.2581
 1894TIP3    H127317   3.428   1.313   1.903 -0.4115  0.9024  0.4429
 1894TIP3    H227318   3.359   1.424   1.825  0.0558  0.4989 -0.5629
 1895TIP3   OH227319   3.163   3.116   6.883  0.0498 -0.3844 -0.3203
 1895TIP3    H127320   3.111   3.156   6.813 -0.5690 -0.4495  0.0877
 1895TIP3    H227321   3.244   3.167   6.885 -0.5447  0.5977 -0.0891
 1896TIP3   OH227322   3.900   1.383   2.656 -0.1653 -0.2798  0.3834
 1896TIP3    H127323   3.851   1.328   2.595 -1.1087  0.6766  0.2355
 1896TIP3    H227324   3.914   1.328   2.733  0.4978 -1.2983 -0.4401
 1897TIP3   OH227325   6.727   6.686   0.108  0.3198  0.1269 -0.0456
 1897TIP3    H127326   6.651   6.636   0.078  1.1893 -0.8506 -0.6702
 1897TIP3    H227327   6.713   6.774   0.072 -1.0029  0.2454  0.6937
 1898TIP3   OH227328   2.582   4.034   1.214 -0.2845 -0.4213  0.3067
 1898TIP3    H127329   2.595   4.050   1.120 -1.1751  1.1273  0.4085
 1898TIP3    H227330   2.664   3.996   1.244  0.9392  1.3755 -0.6272
 1899TIP3   OH227331   3.203   4.500   7.528 -0.0674 -0.0059  0.7101
 1899TIP3    H127332   3.113   4.526   7.550 -0.9324 -2.6142  0.6014
 1899TIP3    H227333   3.198   4.405   7.515  2.2880  0.0570 -1.4731
 1900TIP3   OH227334   5.570   1.793   2.673 -0.1237 -0.0064 -0.1444
 1900TIP3    H127335   5.580   1.822   2.764 -1.5150  0.2905 -0.0554
 1900TIP3    H227336   5.659   1.779   2.642  0.6990  3.9680 -0.0659
 1901TIP3   OH227337   4.910   1.915   1.564 -0.0099 -0.0485  0.4108
 1901TIP3    H127338   4.883   2.004   1.542 -2.5212 -0.4331  1.6327
 1901TIP3    H227339   4.931   1.875   1.480  0.4899  1.4646 -0.2178
 1902TIP3   OH227340   1.515   6.286   0.926 -0.3290  0.1360  0.3380
 1902TIP3    H127341   1.428   6.324   0.927 -0.1050  0.7194 -0.5332
 1902TIP3    H227342   1.574   6.359   0.947  0.0269  0.0657 -0.3512
 1903TIP3   OH227343   2.221   3.098   0.748 -0.2410  0.2746 -0.6536
 1903TIP3    H127344   2.172   3.017   0.760 -0.2494  0.0210 -2.1252
 1903TIP3    H227345   2.168   3.149   0.686 -0.0200  1.2283 -0.0826
 1904TIP3   OH227346   3.423   1.965   1.628  0.4106 -0.0917 -0.3627
 1904TIP3    H127347   3.507   1.920   1.618  0.5558 -0.2425  1.2489
 1904TIP3    H227348   3.374   1.910   1.690 -0.8357  0.0693 -1.1764
 1905TIP3   OH227349   4.226   6.933   0.942 -0.2142  0.6893  0.1069
 1905TIP3    H127350   4.178   6.864   0.986  0.3044  0.9365  1.0746
 1905TIP3    H227351   4.164   6.967   0.877 -0.6047 -0.4122 -0.1249
 1906TIP3   OH227352   6.878   2.745   0.567 -0.2346  0.4489 -0.5577
 1906TIP3    H127353   6.872   2.819   0.506  0.2920  0.5842 -0.4501
 1906TIP3    H227354   6.884   2.785   0.653  0.0131  0.2825 -0.4957
 1907TIP3   OH227355   4.201   4.237   0.602 -0.4258 -0.3145  0.1300
 1907TIP3    H127356   4.273   4.174   0.610  0.2120  0.5948  2.1900
 1907TIP3    H227357   4.150   4.226   0.682  0.4050  2.5466  1.1929
 1908TIP3   OH227358   4.062   1.575   7.302 -0.1667 -0.4563 -0.4692
 1908TIP3    H127359   4.120   1.506   7.271  0.4737 -0.8981  1.5724
 1908TIP3    H227360   3.974   1.545   7.278  0.1921 -1.4009 -0.6625
 1909TIP3   OH227361   6.730   2.392   0.663  0.3788  0.5738  0.7808
 1909TIP3    H127362   6.751   2.485   0.656 -0.5412  0.6870 -0.9413
 1909TIP3    H227363   6.659   2.379   0.601 -0.5591 -0.9872  2.1067
 1910TIP3   OH227364   2.254   2.812   1.317 -0.0971  0.0604 -0.2396
 1910TIP3    H127365   2.278   2.800   1.225  1.0185 -0.2368  0.0716
 1910TIP3    H227366   2.316   2.878   1.349  0.4925 -0.8994  0.6570
 1911TIP3   OH227367   2.384   3.382   7.361  0.0799  0.3044 -0.4669
 1911TIP3    H127368   2.366   3.351   7.272 -1.8975 -0.1096  0.0295
 1911TIP3    H227369   2.403   3.476   7.351  2.3912 -0.2075 -1.5547
 1912TIP3   OH227370   4.628   1.287   0.998 -0.0348  0.3036  0.0437
 1912TIP3    H127371   4.676   1.237   0.931  0.6699  1.7603 -0.5866
 1912TIP3    H227372   4.640   1.379   0.973 -1.7350  0.7866  0.8700
 1913TIP3   OH227373   0.535   5.384   7.628 -0.2725 -0.0463  0.1527
 1913TIP3    H127374   0.497   5.312   7.578 -0.2030 -0.0207  0.0636
 1913TIP3    H227375   0.463   5.445   7.643 -0.0514  0.4653 -0.8318
 1914TIP3   OH227376   1.263   1.112   1.309  0.3493 -0.0310  0.0308
 1914TIP3    H127377   1.269   1.020   1.336  1.6881 -0.4832 -1.6154
 1914TIP3    H227378   1.352   1.135   1.282 -0.3711  1.0566 -1.6136
 1915TIP3   OH227379   1.721   4.316   7.604  0.2739  0.0904  0.2583
 1915TIP3    H127380   1.681   4.236   7.638  0.9236 -0.8170 -1.0456
 1915TIP3    H227381   1.648   4.378   7.598 -0.3945 -0.6519  0.5525
 1916TIP3   OH227382   4.686   3.815   1.972 -0.0258  0.6682 -0.0524
 1916TIP3    H127383   4.716   3.905   1.982 -0.0931  0.7595 -0.6585
 1916TIP3    H227384   4.682   3.781   2.062  1.6539  0.7218  0.0601
 1917TIP3   OH227385   5.087   2.063   1.413  0.1836  0.2382  0.3242
 1917TIP3    H127386   5.109   2.047   1.505  0.1926 -0.0939  0.2660
 1917TIP3    H227387   5.169   2.048   1.366  0.1804  0.4115  0.2606
 1918TIP3   OH227388   5.435   4.892   1.433 -0.4541  0.2812  0.2687
 1918TIP3    H127389   5.445   4.843   1.352 -1.1359 -0.1902  0.4623
 1918TIP3    H227390   5.353   4.941   1.422  0.3561  1.6461 -0.0485
 1919TIP3   OH227391   6.610   3.034   7.845 -0.3354  0.2530  0.7860
 1919TIP3    H127392   6.587   3.123   7.872 -1.7017 -0.1696  1.1112
 1919TIP3    H227393   6.530   3.000   7.804 -0.2027 -1.2129  1.6781
 1920TIP3   OH227394   5.832   3.628   8.074  0.0246  0.3243 -0.2361
 1920TIP3    H127395   5.777   3.694   8.116 -0.3590  0.8525 -1.5071
 1920TIP3    H227396   5.822   3.550   8.129  0.4127  1.2699  1.2329
 1921TIP3   OH227397   6.884   3.669   0.995 -0.3335 -0.1250  0.1163
 1921TIP3    H127398   6.898   3.637   1.084 -1.4184 -0.4897  0.1594
 1921TIP3    H227399   6.879   3.590   0.941  0.6587  0.1003 -0.3357
 1922TIP3   OH227400   3.636   5.913   0.576  0.5808  0.6633  0.0266
 1922TIP3    H127401   3.572   5.983   0.586  0.8602  0.8377  0.6842
 1922TIP3    H227402   3.681   5.909   0.661 -1.1863 -2.0586  0.9793
 1923TIP3   OH227403   3.735   1.808   0.808 -0.3273 -0.0171  0.6383
 1923TIP3    H127404   3.761   1.851   0.889 -0.3603  2.7967 -0.7325
 1923TIP3    H227405   3.818   1.788   0.764 -0.3324 -0.0402  0.6392
 1924TIP3   OH227406   2.986   1.374   0.561  0.2136 -0.4739 -0.3374
 1924TIP3    H127407   3.038   1.293   0.561 -0.0373 -0.6524 -1.4772
 1924TIP3    H227408   3.046   1.441   0.530 -0.1790 -0.6682 -1.5913
 1925TIP3   OH227409   6.863   6.642   0.525  0.0768 -0.6227 -0.3979
 1925TIP3    H127410   6.845   6.654   0.431  0.6925 -0.4084 -0.4942
 1925TIP3    H227411   6.819   6.716   0.567  0.7182 -0.0975 -0.6301
 1926TIP3   OH227412   1.150   3.888   0.613  0.2413  0.5854  0.2437
 1926TIP3    H127413   1.235   3.918   0.581  0.4520 -1.0806 -0.9258
 1926TIP3    H227414   1.092   3.895   0.537 -0.5537  1.1834  0.8806
 1927TIP3   OH227415   4.288   1.094   1.275  0.1716  0.3015  0.7546
 1927TIP3    H127416   4.244   1.017   1.312 -1.7719  0.9544 -0.0742
 1927TIP3    H227417   4.361   1.057   1.224 -0.5402 -0.9957  0.6154
 1928TIP3   OH227418   5.117   1.604   7.222  0.3458  0.6018 -0.2818
 1928TIP3    H127419   5.088   1.516   7.244 -1.6409  1.1262 -0.6077
 1928TIP3    H227420   5.037   1.656   7.221  1.2372  2.0412 -1.8515
 1929TIP3   OH227421   1.462   0.343   1.616  0.3629 -0.4844  0.0121
 1929TIP3    H127422   1.431   0.346   1.526 -0.2350 -1.1186  0.1829
 1929TIP3    H227423   1.460   0.250   1.638  1.3333 -0.4232  0.4003
 1930TIP3   OH227424   1.447   6.281   1.811 -0.8076  0.1380  0.0427
 1930TIP3    H127425   1.453   6.353   1.748  0.3937 -2.2199 -2.7950
 1930TIP3    H227426   1.359   6.245   1.798 -1.2471  0.7732  1.1412
 1931TIP3   OH227427   0.351   1.743   0.085 -0.1529 -0.6715 -0.0352
 1931TIP3    H127428   0.398   1.665   0.056 -0.2194 -1.1003  0.9755
 1931TIP3    H227429   0.311   1.718   0.168  1.9187  1.1488  1.6507
 1932TIP3   OH227430   5.433   6.596   1.290  0.3871 -0.8026 -0.1075
 1932TIP3    H127431   5.406   6.508   1.264  1.3944 -0.7097 -1.5560
 1932TIP3    H227432   5.499   6.621   1.226 -2.8020  2.7171 -2.5013
 1933TIP3   OH227433   0.549   3.807   0.349  0.5492  0.4153 -0.4745
 1933TIP3    H127434   0.605   3.814   0.272  2.5933  0.7776  0.9706
 1933TIP3    H227435   0.589   3.866   0.413 -0.4597 -0.6783  1.2266
 1934TIP3   OH227436   5.155   1.679   2.245  0.2727  0.3261  0.0142
 1934TIP3    H127437   5.083   1.742   2.249  0.3624  0.4542 -0.2995
 1934TIP3    H227438   5.132   1.621   2.172  1.6524  1.8548 -1.7695
 1935TIP3   OH227439   1.602   6.483   2.448  0.1160  0.0380 -0.1517
 1935TIP3    H127440   1.671   6.440   2.498  0.6431  1.4521  0.3686
 1935TIP3    H227441   1.620   6.459   2.357 -0.4989 -2.0617  0.2247
 1936TIP3   OH227442   4.403   5.411   8.306  0.1602  0.0328 -0.1232
 1936TIP3    H127443   4.389   5.317   8.306  0.4939 -0.0379 -1.3500
 1936TIP3    H227444   4.335   5.446   8.364  0.0102 -0.9455  0.3046
 1937TIP3   OH227445   3.013   2.597   7.461 -0.1190  0.3582  0.9745
 1937TIP3    H127446   2.995   2.522   7.403  0.2889  0.8567  0.1795
 1937TIP3    H227447   3.063   2.560   7.533  0.0899 -0.1378  0.5827
 1938TIP3   OH227448   1.857   2.387   1.076  0.1698 -0.1635  0.4529
 1938TIP3    H127449   1.845   2.293   1.083  0.8148 -0.3300 -0.4614
 1938TIP3    H227450   1.865   2.417   1.167 -2.7200 -0.5666  0.9402
 1939TIP3   OH227451   3.608   0.776   6.819 -0.1696 -0.1805  0.3724
 1939TIP3    H127452   3.632   0.774   6.911 -1.3826 -0.3550  0.7014
 1939TIP3    H227453   3.527   0.725   6.814  0.3188 -0.8758 -0.9297
 1940TIP3   OH227454   5.354   0.424   0.382 -0.3320 -0.0861  0.0553
 1940TIP3    H127455   5.334   0.368   0.306  2.6539 -0.1303 -0.8337
 1940TIP3    H227456   5.311   0.380   0.456  0.4726 -2.6579 -0.8833
 1941TIP3   OH227457   0.232   5.437   0.160  1.3163 -0.7704 -0.1870
 1941TIP3    H127458   0.269   5.443   0.248  1.5112  1.0201 -0.3715
 1941TIP3    H227459   0.157   5.378   0.170  0.2344  0.8221  1.5905
 1942TIP3   OH227460   0.058   6.789   0.107 -0.0563  0.4598  0.0468
 1942TIP3    H127461   0.034   6.767   0.017 -0.2106  1.7750 -0.2589
 1942TIP3    H227462  -0.024   6.778   0.156  0.3272 -1.5769  0.3303
 1943TIP3   OH227463   3.406   2.470   1.593  0.2421 -0.4139  0.1263
 1943TIP3    H127464   3.479   2.493   1.536  1.8154 -2.6603  1.1236
 1943TIP3    H227465   3.377   2.385   1.563 -1.3736  0.0098  0.3741
 1944TIP3   OH227466   0.289   1.110   1.187 -0.3103  0.2267 -0.3273
 1944TIP3    H127467   0.352   1.066   1.245 -0.4466 -0.1995 -0.5014
 1944TIP3    H227468   0.212   1.054   1.189 -1.0044  1.1578  0.5354
 1945TIP3   OH227469   1.420   5.298   1.816 -0.0184  0.4667 -0.1750
 1945TIP3    H127470   1.445   5.208   1.835 -0.0938  0.3557 -0.5871
 1945TIP3    H227471   1.496   5.337   1.773  0.4721  0.9763  1.1159
 1946TIP3   OH227472   4.907   0.320   7.290 -0.3588  0.1097 -0.1811
 1946TIP3    H127473   4.840   0.386   7.272  0.6408  0.6323 -2.2886
 1946TIP3    H227474   4.975   0.336   7.225  0.8669 -1.7359  0.5491
 1947TIP3   OH227475   6.854   6.213   1.505 -0.6755 -0.6357  0.3408
 1947TIP3    H127476   6.841   6.290   1.560 -0.6359  0.6965 -1.4264
 1947TIP3    H227477   6.774   6.162   1.514 -1.6039  0.7025 -0.0825
 1948TIP3   OH227478   6.250   5.081   0.695 -0.2102 -0.3651 -0.2302
 1948TIP3    H127479   6.158   5.057   0.697 -0.4176  0.3969  2.1703
 1948TIP3    H227480   6.251   5.170   0.659 -0.4128 -0.3952 -0.3106
 1949TIP3   OH227481   6.621   2.565   8.044  0.1847 -0.4474 -0.7546
 1949TIP3    H127482   6.547   2.593   8.097  0.9570  0.3133 -0.0325
 1949TIP3    H227483   6.589   2.565   7.954 -0.8124 -0.6006 -0.4029
 1950TIP3   OH227484   3.138   6.168   1.685 -0.2915  0.5832 -0.2295
 1950TIP3    H127485   3.207   6.107   1.711  0.6265  0.9968 -1.5536
 1950TIP3    H227486   3.057   6.120   1.698  0.2003  0.1850  1.6631
 1951TIP3   OH227487   1.602   0.020   2.178  0.3184  0.7642  0.0285
 1951TIP3    H127488   1.583   0.053   2.266 -1.3042 -0.6110  0.2508
 1951TIP3    H227489   1.523   0.038   2.128  0.4330 -0.3248 -0.5766
 1952TIP3   OH227490   3.660   2.442   8.216 -0.1233  0.1735 -0.1741
 1952TIP3    H127491   3.690   2.476   8.300 -1.6145  2.0052 -0.3232
 1952TIP3    H227492   3.597   2.373   8.239 -0.8893  0.9961  0.2526
 1953TIP3   OH227493   3.171   0.748   1.099 -0.4069 -0.1998 -0.5581
 1953TIP3    H127494   3.089   0.784   1.066 -0.0184  0.9502 -0.3102
 1953TIP3    H227495   3.155   0.654   1.106 -2.2755  0.1926  1.1505
 1954TIP3   OH227496   2.260   5.158   1.454  0.3924 -0.2571 -0.0021
 1954TIP3    H127497   2.345   5.195   1.432  0.0825  0.9743  0.7688
 1954TIP3    H227498   2.223   5.219   1.518 -1.5966 -0.0848 -1.2459
 1955TIP3   OH227499   6.742   1.347   1.573  0.4672 -0.3389 -0.6064
 1955TIP3    H127500   6.706   1.353   1.662  0.9405  1.2501 -0.5001
 1955TIP3    H227501   6.820   1.402   1.575  2.7487 -3.3104 -0.9652
 1956TIP3   OH227502   1.342   2.341   1.266  0.0697 -0.6351 -0.2022
 1956TIP3    H127503   1.310   2.402   1.332  0.9755 -0.2657 -0.0876
 1956TIP3    H227504   1.369   2.397   1.193  1.2697 -0.8490  0.0581
 1957TIP3   OH227505   2.773   1.643   2.494 -0.0073 -0.1232  0.0436
 1957TIP3    H127506   2.831   1.640   2.570  0.0191  0.3619  0.0416
 1957TIP3    H227507   2.703   1.581   2.515  0.9530 -1.3841 -0.3301
 1958TIP3   OH227508   1.657   0.590   8.357 -0.4213 -0.1372 -0.8163
 1958TIP3    H127509   1.725   0.646   8.394 -1.7274  1.0999 -0.2247
 1958TIP3    H227510   1.630   0.533   8.429  0.2829 -0.9345 -1.1733
 1959TIP3   OH227511   6.753   3.100   8.310 -0.1521  0.3596  0.5212
 1959TIP3    H127512   6.771   3.046   8.233  0.2573 -0.0025  0.8638
 1959TIP3    H227513   6.823   3.165   8.310 -0.0653  0.2653  0.6734
 1960TIP3   OH227514   3.401   5.115   8.027 -0.4177  0.4059  0.7348
 1960TIP3    H127515   3.318   5.159   8.040 -0.9506  0.0021 -0.9415
 1960TIP3    H227516   3.462   5.185   8.002 -1.0067  0.3928 -0.8962
 1961TIP3   OH227517   6.653   6.941   0.816 -0.3472 -0.3896  0.2489
 1961TIP3    H127518   6.660   7.036   0.821  1.3911 -0.4821  0.1333
 1961TIP3    H227519   6.727   6.914   0.761  0.1310 -1.9168  1.5420
 1962TIP3   OH227520   5.333   3.131   2.774  0.1451  0.3837 -0.3668
 1962TIP3    H127521   5.420   3.152   2.743  0.4531  2.0413  1.4523
 1962TIP3    H227522   5.338   3.141   2.869 -1.5614 -1.2910 -0.0324
 1963TIP3   OH227523   6.616   0.300   6.618  0.1996 -0.1501 -0.1761
 1963TIP3    H127524   6.552   0.359   6.579  0.2824 -0.4821 -0.8279
 1963TIP3    H227525   6.575   0.214   6.614  0.5514 -0.3152 -0.2948
 1964TIP3   OH227526   4.672   6.670   1.171 -0.2282 -0.4154 -0.9372
 1964TIP3    H127527   4.636   6.754   1.144  0.8022  0.6846  0.8740
 1964TIP3    H227528   4.661   6.668   1.266  1.3153 -1.5455 -0.7352
 1965TIP3   OH227529   2.587   5.463   0.352 -0.6694  0.1925  0.1387
 1965TIP3    H127530   2.674   5.481   0.316 -0.3000 -0.2238  0.8203
 1965TIP3    H227531   2.597   5.380   0.399 -0.6923  1.5258  2.6713
 1966TIP3   OH227532   0.361   3.561   0.240  0.5966 -0.1674 -0.0782
 1966TIP3    H127533   0.363   3.594   0.150  0.0661 -0.9682 -0.4027
 1966TIP3    H227534   0.426   3.613   0.287 -0.2235  1.3242 -0.5509
 1967TIP3   OH227535   6.551   6.596   1.174 -0.1580  0.4464  0.0237
 1967TIP3    H127536   6.632   6.642   1.192  1.3117 -1.0169 -2.2711
 1967TIP3    H227537   6.555   6.517   1.227 -0.3112  0.6010  0.2659
 1968TIP3   OH227538   3.688   2.924   7.568 -0.0345  0.3205 -0.1297
 1968TIP3    H127539   3.679   2.836   7.606 -1.3550 -0.3236 -1.8132
 1968TIP3    H227540   3.608   2.936   7.516  1.1911  1.5623 -1.8282
 1969TIP3   OH227541   3.802   4.882   1.463 -0.0664 -0.7337  0.3294
 1969TIP3    H127542   3.894   4.891   1.489 -0.0260 -1.7179  0.5778
 1969TIP3    H227543   3.791   4.945   1.392  1.1624 -1.4816 -0.5720
 1970TIP3   OH227544   5.067   1.992   7.696  0.2922 -0.3312 -0.5686
 1970TIP3    H127545   5.005   2.059   7.670 -1.0230 -1.7304 -1.1917
 1970TIP3    H227546   5.018   1.910   7.689  2.6915 -1.7169 -2.8534
 1971TIP3   OH227547   1.623   1.540   2.284  0.2000  0.7653  0.1467
 1971TIP3    H127548   1.532   1.565   2.301 -0.1027 -1.1231  1.6303
 1971TIP3    H227549   1.674   1.607   2.329 -0.5599  0.0099  2.3244
 1972TIP3   OH227550   1.707   3.857   0.643  0.0232  0.8894  0.4615
 1972TIP3    H127551   1.684   3.870   0.551  1.1960  1.5368  0.2285
 1972TIP3    H227552   1.798   3.826   0.640 -0.9283 -2.3126  1.2851
 1973TIP3   OH227553   5.704   2.842   0.377 -0.2440 -0.2769  0.1271
 1973TIP3    H127554   5.754   2.801   0.307  0.1481  2.7512 -1.5270
 1973TIP3    H227555   5.769   2.891   0.428 -1.1442  2.0390 -0.8182
 1974TIP3   OH227556   6.010   2.449   7.646  0.3590 -0.1287  0.5606
 1974TIP3    H127557   6.080   2.432   7.583  2.7147  2.0212  2.4087
 1974TIP3    H227558   6.010   2.371   7.703 -0.2689 -1.0756 -0.6834
 1975TIP3   OH227559   2.491   1.565   1.421  0.0901 -0.2536  0.8609
 1975TIP3    H127560   2.405   1.605   1.430 -0.1836 -1.0889  2.2650
 1975TIP3    H227561   2.514   1.537   1.509  1.9335  0.1941  0.5630
 1976TIP3   OH227562   4.752   6.457   0.996 -1.1435 -0.2808 -0.2917
 1976TIP3    H127563   4.692   6.468   1.070 -0.0585 -1.2727  0.7600
 1976TIP3    H227564   4.710   6.506   0.924 -2.0233  1.0484  1.0639
 1977TIP3   OH227565   0.583   2.673   8.370  0.2730  0.2805 -0.1838
 1977TIP3    H127566   0.509   2.612   8.374  0.8142 -0.3868 -0.1054
 1977TIP3    H227567   0.570   2.722   8.289  0.8783 -1.3307 -1.3102
 1978TIP3   OH227568   3.716   1.547   1.828 -0.5237 -0.5120 -0.2800
 1978TIP3    H127569   3.726   1.483   1.757 -0.7142 -1.4016  0.4754
 1978TIP3    H227570   3.623   1.567   1.829 -0.6384 -1.0281  0.1484
 1979TIP3   OH227571   2.430   2.846   8.383 -0.3367  0.4030 -0.3069
 1979TIP3    H127572   2.519   2.814   8.395  0.0893  0.2040 -3.2207
 1979TIP3    H227573   2.379   2.768   8.359 -0.7806  0.8518 -0.8692
 1980TIP3   OH227574   1.686   6.139   1.079  0.7321  0.0315 -0.4379
 1980TIP3    H127575   1.637   6.195   1.018  0.1332  0.4126  0.3663
 1980TIP3    H227576   1.620   6.108   1.140  1.1000 -1.4051 -0.7431
 1981TIP3   OH227577   0.847   0.785   2.506 -0.4514  0.3961  0.3119
 1981TIP3    H127578   0.788   0.810   2.577 -0.1032  0.7146  0.4948
 1981TIP3    H227579   0.918   0.849   2.511 -0.2949  0.2600 -0.1603
 1982TIP3   OH227580   5.859   2.617   8.382  0.4664 -0.2271 -0.3531
 1982TIP3    H127581   5.879   2.687   8.321  2.8539  0.8338  1.4645
 1982TIP3    H227582   5.937   2.562   8.383  1.0963  0.5259  2.5723
 1983TIP3   OH227583   3.793   4.879   2.995 -0.5217 -0.1468 -0.4706
 1983TIP3    H127584   3.782   4.786   3.016 -1.7481 -0.3332 -1.7063
 1983TIP3    H227585   3.706   4.907   2.966 -0.7328  1.9703  1.8774
 1984TIP3   OH227586   2.251   2.138   7.570 -0.8964 -0.4250 -0.1509
 1984TIP3    H127587   2.161   2.161   7.591 -1.3660 -2.5060  0.3498
 1984TIP3    H227588   2.297   2.141   7.655 -0.7472 -0.3744 -0.2331
 1985TIP3   OH227589   1.521   5.752   0.711 -0.4776 -0.0864 -0.2315
 1985TIP3    H127590   1.510   5.834   0.759  0.3393  0.1817 -0.4835
 1985TIP3    H227591   1.541   5.780   0.621  0.2886 -0.5517 -0.2094
 1986TIP3   OH227592   6.509   6.029   0.393  0.3633  0.1724 -0.1865
 1986TIP3    H127593   6.579   5.983   0.440  0.6408  1.3040  0.5550
 1986TIP3    H227594   6.554   6.079   0.326 -0.0895 -1.9747 -2.2124
 1987TIP3   OH227595   6.777   2.611   2.890 -0.0458 -0.2961 -0.0846
 1987TIP3    H127596   6.872   2.601   2.890  0.1283  1.1485  0.1189
 1987TIP3    H227597   6.762   2.698   2.925 -1.3831  0.0955 -1.5224
 1988TIP3   OH227598   1.157   4.384   6.842  0.3048  0.3445  0.3155
 1988TIP3    H127599   1.222   4.371   6.911  0.0212 -2.1158  0.1982
 1988TIP3    H227600   1.208   4.379   6.760  0.2184  0.2167  0.2696
 1989TIP3   OH227601   0.193   0.926   6.657 -0.1399  0.1998 -0.0931
 1989TIP3    H127602   0.142   0.860   6.703 -0.7119  0.2004 -0.7168
 1989TIP3    H227603   0.277   0.929   6.704 -0.1175 -0.9492 -0.0396
 1990TIP3   OH227604   2.603   5.386   8.070 -0.2221  0.4591 -0.5452
 1990TIP3    H127605   2.624   5.347   7.985  1.3323 -0.7452  0.3197
 1990TIP3    H227606   2.543   5.324   8.111 -1.8261  1.5691 -1.1519
 1991TIP3   OH227607   0.814   5.198   7.565 -0.2364  0.8302  0.1608
 1991TIP3    H127608   0.882   5.140   7.531  0.5062  2.1510 -0.6942
 1991TIP3    H227609   0.769   5.231   7.487  0.4200  2.6234  0.4850
 1992TIP3   OH227610   0.466   4.962   8.104 -0.6365 -0.6122 -0.3498
 1992TIP3    H127611   0.434   4.893   8.045 -0.6373 -1.6348  0.7996
 1992TIP3    H227612   0.558   4.939   8.120 -0.6582 -0.3887  0.1072
 1993TIP3   OH227613   3.424   0.984   1.442 -0.3186 -0.1336  0.2254
 1993TIP3    H127614   3.355   0.920   1.424 -0.1301  0.4558 -3.3127
 1993TIP3    H227615   3.405   1.014   1.531 -3.1091 -1.8015  0.3393
 1994TIP3   OH227616   0.174   2.263   3.030 -0.8986 -0.1871  0.2485
 1994TIP3    H127617   0.229   2.247   3.106 -0.3129 -0.7491 -0.2854
 1994TIP3    H227618   0.087   2.233   3.056 -0.6043 -0.7942  0.5477
 1995TIP3   OH227619   5.044   3.097   1.874  0.4228 -0.0357 -0.6625
 1995TIP3    H127620   4.959   3.085   1.915 -0.6520  0.8184 -2.4988
 1995TIP3    H227621   5.080   3.175   1.917 -0.5897  0.7307 -1.1443
 1996TIP3   OH227622   2.523   6.119   0.985 -0.8373 -0.2991 -0.5359
 1996TIP3    H127623   2.500   6.127   1.077 -0.0596  0.2778 -0.3775
 1996TIP3    H227624   2.490   6.199   0.944  0.3425  0.2873 -0.4034
 1997TIP3   OH227625   4.155   2.162   0.294 -0.2605  0.2083  0.0389
 1997TIP3    H127626   4.105   2.088   0.259 -2.2189  0.7145  1.5654
 1997TIP3    H227627   4.142   2.157   0.389  1.0354  1.4949  0.3131
 1998TIP3   OH227628   4.313   1.392   3.141  0.1393 -0.0801  0.0685
 1998TIP3    H127629   4.269   1.360   3.219  0.8145 -2.0582 -0.3020
 1998TIP3    H227630   4.400   1.352   3.144 -0.1201 -0.9647 -2.1253
 1999TIP3   OH227631   4.136   2.629   8.216 -0.7921  0.1531  0.3401
 1999TIP3    H127632   4.145   2.538   8.188  1.7196 -0.3727  2.4598
 1999TIP3    H227633   4.213   2.673   8.180 -1.0929  1.0385  0.7437
 2000TIP3   OH227634   1.148   0.433   2.548 -0.2680  0.2827  0.1967
 2000TIP3    H127635   1.217   0.489   2.512 -0.5391  0.5505  0.0936
 2000TIP3    H227636   1.195   0.358   2.584  0.0777  0.4547  0.1086
 2001TIP3   OH227637   6.173   2.364   2.687 -0.2951  0.1655  0.3482
 2001TIP3    H127638   6.257   2.344   2.729 -0.3572  0.9705  0.8555
 2001TIP3    H227639   6.195   2.427   2.619 -0.4363  0.0841  0.2266
 2002TIP3   OH227640   5.258   2.876   8.250 -0.6173  0.3064  0.1077
 2002TIP3    H127641   5.265   2.910   8.161 -1.4928 -1.2981 -0.6129
 2002TIP3    H227642   5.209   2.943   8.297 -0.2753  1.1116 -0.6402
 2003TIP3   OH227643   1.897   4.803   1.672 -0.0517  0.1022  0.1350
 2003TIP3    H127644   1.917   4.843   1.588 -4.2327  3.7153  0.5022
 2003TIP3    H227645   1.973   4.821   1.727  1.8747 -0.4960 -2.1804
 2004TIP3   OH227646   3.796   1.110   1.379 -0.1083  0.4257 -0.0083
 2004TIP3    H127647   3.723   1.164   1.348 -0.4962 -0.4802 -0.7286
 2004TIP3    H227648   3.759   1.058   1.450 -0.2422 -0.2448 -0.5681
 2005TIP3   OH227649   2.959   3.219   6.718 -0.1429 -0.3043  0.0565
 2005TIP3    H127650   2.902   3.277   6.768 -1.5738 -1.3585 -0.2925
 2005TIP3    H227651   2.953   3.251   6.628 -4.1870 -3.1890 -0.9842
 2006TIP3   OH227652   0.758   1.440   0.709 -0.2327 -0.4129 -0.1047
 2006TIP3    H127653   0.777   1.449   0.802 -0.1782  0.5066 -0.1967
 2006TIP3    H227654   0.798   1.356   0.684 -0.7298 -0.9377  0.8102
 2007TIP3   OH227655   3.458   3.977   0.425 -0.2633  1.0497  0.7587
 2007TIP3    H127656   3.488   3.939   0.342  1.6885  0.2655  1.7786
 2007TIP3    H227657   3.427   3.903   0.476 -1.8060  1.5723  0.6589
 2008TIP3   OH227658   4.328   5.993   8.087  0.1136  0.2017 -0.2352
 2008TIP3    H127659   4.299   5.904   8.109 -0.3627  0.4514  0.1821
 2008TIP3    H227660   4.247   6.041   8.071  0.4315  0.0725 -2.5183
 2009TIP3   OH227661   4.823   5.105   7.478 -0.0518 -0.0670  0.1145
 2009TIP3    H127662   4.876   5.044   7.529  1.1133  1.1789  0.4686
 2009TIP3    H227663   4.751   5.052   7.444 -0.4083 -1.1141  2.3454
 2010TIP3   OH227664   3.354   1.048   2.272  0.2261 -0.1677  0.0002
 2010TIP3    H127665   3.368   0.965   2.318  0.8667 -0.3992 -0.6093
 2010TIP3    H227666   3.425   1.105   2.301  0.5396 -0.2618 -0.5797
 2011TIP3   OH227667   5.892   2.702   7.228  0.2156  0.1976 -0.4104
 2011TIP3    H127668   5.868   2.630   7.287  0.5944  0.9520  0.6953
 2011TIP3    H227669   5.909   2.659   7.144  0.0260 -0.9508  0.1108
 2012TIP3   OH227670   2.537   4.647   8.104  0.1995  0.8971  0.4831
 2012TIP3    H127671   2.452   4.686   8.083 -0.4758  0.1993  1.7270
 2012TIP3    H227672   2.515   4.569   8.155  1.5756  0.2386  0.1168
 2013TIP3   OH227673   1.179   3.310   0.577  0.2082 -0.5916  0.1119
 2013TIP3    H127674   1.246   3.265   0.628  1.5033  1.1590  0.0647
 2013TIP3    H227675   1.196   3.403   0.591 -2.8692 -0.0326  0.9072
 2014TIP3   OH227676   3.698   2.330   0.222  0.2783  0.1062 -0.5901
 2014TIP3    H127677   3.733   2.244   0.201  0.2932  0.0775 -0.4475
 2014TIP3    H227678   3.773   2.389   0.217  0.0098  0.3479 -2.0796
 2015TIP3   OH227679   6.013   0.091   7.341 -0.1287 -0.0441  0.0129
 2015TIP3    H127680   6.002   0.183   7.366 -2.5073 -0.5696  1.1219
 2015TIP3    H227681   5.925   0.054   7.345  0.9855 -2.8549  1.4617
 2016TIP3   OH227682   1.763   2.830   2.888  0.5354 -0.7854 -0.0244
 2016TIP3    H127683   1.794   2.902   2.942 -0.7853 -1.0347  1.1191
 2016TIP3    H227684   1.814   2.837   2.808  2.4165 -0.2883  1.1622
 2017TIP3   OH227685   3.112   6.867   6.903  0.3481 -0.3729  0.4331
 2017TIP3    H127686   3.144   6.850   6.992  0.6285 -2.7465 -0.0619
 2017TIP3    H227687   3.079   6.783   6.873 -0.0156  0.4535 -1.6223
 2018TIP3   OH227688   5.321   5.150   7.539  0.0903  0.5717  0.6049
 2018TIP3    H127689   5.312   5.180   7.449  0.5294  0.0430  0.3789
 2018TIP3    H227690   5.234   5.160   7.577  0.0204  1.2546  0.2657
 2019TIP3   OH227691   5.722   0.804   7.437  0.1401 -0.2483  0.4263
 2019TIP3    H127692   5.644   0.775   7.391 -0.0137  0.8938 -0.0554
 2019TIP3    H227693   5.788   0.816   7.369  0.6111 -0.7577  0.7764
 2020TIP3   OH227694   3.146   2.251   1.681  0.0019  0.8345 -0.5212
 2020TIP3    H127695   3.207   2.228   1.611  0.4565  1.5927 -0.3805
 2020TIP3    H227696   3.202   2.261   1.758 -0.5370 -0.3886  0.0607
 2021TIP3   OH227697   6.238   5.583   7.592 -0.4913 -0.0346  0.0428
 2021TIP3    H127698   6.233   5.654   7.528  0.5325  0.2789  0.2842
 2021TIP3    H227699   6.220   5.504   7.541 -2.2699  0.4310 -0.1030
 2022TIP3   OH227700   1.858   6.249   1.279  0.6442 -0.2498  0.0827
 2022TIP3    H127701   1.942   6.224   1.238  0.5603 -0.8159  0.2426
 2022TIP3    H227702   1.794   6.240   1.209  0.8505  1.0872 -0.2884
 2023TIP3   OH227703   1.726   0.553   1.168 -0.0445  0.2292 -0.0458
 2023TIP3    H127704   1.752   0.632   1.215 -0.3643  0.3656 -0.0951
 2023TIP3    H227705   1.772   0.558   1.085  3.2933 -1.6898  1.4897
 2024TIP3   OH227706   5.476   4.435   1.169  0.0277 -0.3728 -0.3726
 2024TIP3    H127707   5.421   4.498   1.122  1.6348  1.9259  0.6475
 2024TIP3    H227708   5.490   4.364   1.106 -1.2610  0.6201 -1.8442
 2025TIP3   OH227709   5.882   2.832   1.594  0.2202  1.2471  0.2022
 2025TIP3    H127710   5.834   2.904   1.554 -3.2589  0.2070  2.0538
 2025TIP3    H227711   5.909   2.865   1.679 -0.9313  0.6305  0.8417
 2026TIP3   OH227712   5.009   5.485   2.413  0.5561 -0.3589 -0.8190
 2026TIP3    H127713   4.992   5.391   2.401 -1.0017 -0.2700  0.3352
 2026TIP3    H227714   4.988   5.501   2.505  1.0893  1.0837 -0.9248
 2027TIP3   OH227715   3.608   4.728   7.170  0.0807  0.1633  0.0527
 2027TIP3    H127716   3.671   4.657   7.180 -1.1580 -0.8196  1.3810
 2027TIP3    H227717   3.525   4.685   7.149 -0.5117  1.2675  0.0091
 2028TIP3   OH227718   1.830   3.955   6.884 -0.3989 -0.1882  0.3705
 2028TIP3    H127719   1.847   4.028   6.825  0.8778 -1.2236 -0.6340
 2028TIP3    H227720   1.783   3.993   6.957 -1.0782  1.3505 -0.8104
 2029TIP3   OH227721   2.275   0.725   2.204  0.1900  0.2341 -0.5947
 2029TIP3    H127722   2.344   0.720   2.138 -0.6364 -0.1931 -1.4542
 2029TIP3    H227723   2.290   0.650   2.261  1.6889  1.3215  0.5293
 2030TIP3   OH227724   0.934   3.428   1.518  0.3993 -0.1510 -0.0619
 2030TIP3    H127725   0.891   3.360   1.571  1.2263  0.2853  1.2254
 2030TIP3    H227726   0.911   3.510   1.562 -0.5811  0.4405 -1.5969
 2031TIP3   OH227727   6.323   4.200   0.503 -0.1110 -0.2403  0.1919
 2031TIP3    H127728   6.286   4.250   0.430 -1.8491 -2.6072 -0.7147
 2031TIP3    H227729   6.246   4.169   0.552  0.9418 -0.6518  1.6482
 2032TIP3   OH227730   1.944   3.418   2.924  0.0676  0.8543 -0.2167
 2032TIP3    H127731   1.926   3.325   2.914  0.5267  0.8705 -1.4252
 2032TIP3    H227732   1.931   3.436   3.017  1.7135 -0.8050  0.3931
 2033TIP3   OH227733   5.416   3.779   0.402  0.0067  0.6939  0.2654
 2033TIP3    H127734   5.452   3.863   0.428  1.4355  0.3031 -0.3818
 2033TIP3    H227735   5.487   3.734   0.356 -1.0302 -0.4627 -0.3015
 2034TIP3   OH227736   2.063   1.831   0.567 -0.3532 -0.3661 -0.0296
 2034TIP3    H127737   2.100   1.774   0.500 -0.6587  0.0197 -0.5341
 2034TIP3    H227738   1.976   1.794   0.584  0.1517 -1.1345  0.9853
 2035TIP3   OH227739   1.069   3.419   0.128 -0.6835 -0.4263  0.3920
 2035TIP3    H127740   1.084   3.469   0.047 -0.6629 -0.2335  0.5147
 2035TIP3    H227741   0.991   3.459   0.167 -0.2122  0.0205  0.8875
 2036TIP3   OH227742   5.755   4.086   1.077 -0.2359  0.1778 -0.1334
 2036TIP3    H127743   5.808   4.007   1.090 -0.3614 -0.2099 -1.7630
 2036TIP3    H227744   5.818   4.158   1.084  0.3266 -0.2200 -0.9743
 2037TIP3   OH227745   6.925   6.322   1.242  0.0672  0.1043 -0.1890
 2037TIP3    H127746   6.979   6.250   1.210 -0.4329  0.2609 -1.4053
 2037TIP3    H227747   6.901   6.295   1.331 -0.8392 -1.6651 -0.9167
 2038TIP3   OH227748   6.135   6.062   2.619 -0.4691 -0.4389 -0.4159
 2038TIP3    H127749   6.205   6.007   2.655  0.5865  1.7893  1.1512
 2038TIP3    H227750   6.054   6.022   2.652  0.3706  0.2192  2.7114
 2039TIP3   OH227751   3.863   4.977   8.146  0.2680  0.7320 -0.1913
 2039TIP3    H127752   3.904   4.907   8.094  1.3786  0.5841  0.8659
 2039TIP3    H227753   3.815   5.029   8.081  1.1193  0.1929 -1.2914
 2040TIP3   OH227754   5.394   6.311   0.636  0.3050  0.4548  0.2998
 2040TIP3    H127755   5.361   6.400   0.649  0.3870  0.4590  0.4861
 2040TIP3    H227756   5.403   6.302   0.541  2.1070  1.3174  0.3461
 2041TIP3   OH227757   5.437   2.794   1.339 -0.3828 -0.5427  0.6619
 2041TIP3    H127758   5.356   2.756   1.306 -0.4427 -0.6815  0.9696
 2041TIP3    H227759   5.477   2.835   1.262 -0.4743 -0.9496  0.3954
 2042TIP3   OH227760   3.011   6.877   1.023 -0.0939  0.0330 -0.1242
 2042TIP3    H127761   3.083   6.837   0.975 -1.7925 -1.6925 -1.3933
 2042TIP3    H227762   3.052   6.919   1.098  2.1857 -1.1149 -0.6540
 2043TIP3   OH227763   3.047   6.732   0.604 -0.0131 -0.0521  0.1820
 2043TIP3    H127764   3.054   6.664   0.538 -1.2702  0.1141 -0.1499
 2043TIP3    H227765   2.976   6.702   0.662 -0.4545  0.8774  0.1384
 2044TIP3   OH227766   4.727   1.911   8.062 -0.3712  0.3790 -0.2601
 2044TIP3    H127767   4.794   1.846   8.044  0.5406  1.5819 -1.4314
 2044TIP3    H227768   4.694   1.888   8.149 -0.3252 -1.8046 -0.7619
 2045TIP3   OH227769   3.824   3.565   3.392  0.3742  0.2566 -0.1627
 2045TIP3    H127770   3.737   3.591   3.420  0.6512  0.7483  0.2698
 2045TIP3    H227771   3.878   3.643   3.409  1.2203 -0.5750  1.1005
 2046TIP3   OH227772   5.800   3.242   0.324 -0.4236  0.5462 -0.5982
 2046TIP3    H127773   5.786   3.176   0.392  1.5481 -0.7701 -1.4056
 2046TIP3    H227774   5.729   3.305   0.338 -0.9786 -0.4811  1.6864
 2047TIP3   OH227775   3.965   4.468   1.799 -0.4029 -0.1679  0.5664
 2047TIP3    H127776   3.890   4.517   1.764 -1.6734 -1.0400  1.9446
 2047TIP3    H227777   3.944   4.455   1.891  1.1084 -1.1102  0.8062
 2048TIP3   OH227778   5.700   1.487   1.360  0.4541 -0.9206  0.3871
 2048TIP3    H127779   5.604   1.490   1.359  0.4671 -0.5443  0.0396
 2048TIP3    H227780   5.727   1.576   1.340  0.8700 -1.2204 -0.4454
 2049TIP3   OH227781   4.435   5.014   1.162 -0.4599  0.4979  0.2249
 2049TIP3    H127782   4.393   5.030   1.247 -0.3166 -2.5976  1.0074
 2049TIP3    H227783   4.364   4.979   1.108 -0.7306  3.1278 -1.2906
 2050TIP3   OH227784   0.005   1.103   6.974  0.1593  0.1520 -0.3491
 2050TIP3    H127785  -0.088   1.086   6.989  0.0063 -0.5112 -1.8592
 2050TIP3    H227786   0.044   1.017   6.959  0.8022  0.5126 -0.8193
 2051TIP3   OH227787   5.306   6.494   2.212 -0.2099 -0.5597 -0.1971
 2051TIP3    H127788   5.275   6.582   2.234  1.9663  0.0046  0.8105
 2051TIP3    H227789   5.234   6.436   2.237 -0.3091  0.6266  2.5420
 2052TIP3   OH227790   2.974   0.274   0.503 -0.4077 -0.1157 -0.0753
 2052TIP3    H127791   2.966   0.190   0.549 -0.2733 -0.9083 -1.4492
 2052TIP3    H227792   2.921   0.263   0.424  1.1923  0.3631 -1.2559
 2053TIP3   OH227793   5.822   3.504   1.974  0.0661  0.0363  0.7969
 2053TIP3    H127794   5.916   3.503   1.955 -0.0626  0.5380  0.0596
 2053TIP3    H227795   5.785   3.561   1.907 -0.5329  1.3713  2.2198
 2054TIP3   OH227796   3.739   1.303   0.419  0.2751  0.7703 -0.7899
 2054TIP3    H127797   3.681   1.351   0.478  0.6834  0.3760 -0.0589
 2054TIP3    H227798   3.679   1.257   0.360 -0.3274 -1.4789  1.3821
 2055TIP3   OH227799   2.796   4.713   8.423 -0.1976  0.0517  0.4891
 2055TIP3    H127800   2.794   4.808   8.407  0.2609  0.2217  1.3984
 2055TIP3    H227801   2.863   4.701   8.490 -2.2723 -0.5978  2.5577
 2056TIP3   OH227802   6.457   2.016   2.016  0.3847  0.0969 -0.0175
 2056TIP3    H127803   6.462   2.066   2.098  0.4363  1.0527 -0.5830
 2056TIP3    H227804   6.548   1.996   1.995  0.3223 -0.8963  0.5831
 2057TIP3   OH227805   6.085   0.697   0.852 -0.7597  0.6427 -0.7537
 2057TIP3    H127806   6.177   0.678   0.839 -0.9002 -0.0061 -0.8485
 2057TIP3    H227807   6.081   0.791   0.869  0.0894  0.4385  0.7914
 2058TIP3   OH227808   5.209   0.969   8.143  0.1189 -0.9658 -0.1906
 2058TIP3    H127809   5.281   0.985   8.082 -0.1954 -0.1012 -0.3507
 2058TIP3    H227810   5.158   0.899   8.101  0.4922 -1.1199 -0.3958
 2059TIP3   OH227811   6.183   3.576   8.139 -0.4855 -0.0837 -0.4678
 2059TIP3    H127812   6.145   3.498   8.180  0.5311  0.1353  0.9603
 2059TIP3    H227813   6.145   3.649   8.188  0.3928  0.2050 -0.2123
 2060TIP3   OH227814   4.689   2.655   7.804 -0.0263  0.0142  0.0484
 2060TIP3    H127815   4.689   2.575   7.751  1.6657 -0.4099  0.6108
 2060TIP3    H227816   4.630   2.636   7.876  0.0785 -0.5999 -0.0203
 2061TIP3   OH227817   6.376   5.055   2.849  0.3223  0.4152  0.4565
 2061TIP3    H127818   6.312   5.105   2.898  0.1227 -0.0290  0.6510
 2061TIP3    H227819   6.326   5.011   2.781  0.1981 -1.0267  1.4538
 2062TIP3   OH227820   6.225   0.391   0.224  0.5303  0.4023  0.1828
 2062TIP3    H127821   6.232   0.355   0.136 -0.0075 -2.1126  1.0827
 2062TIP3    H227822   6.158   0.337   0.267 -0.5424  2.7208  1.6048
 2063TIP3   OH227823   4.944   2.343   1.003 -0.6077 -0.2572 -0.1542
 2063TIP3    H127824   5.003   2.272   1.028 -0.1750  0.2996  0.4447
 2063TIP3    H227825   4.961   2.358   0.910 -0.0593 -0.3336 -0.0658
 2064TIP3   OH227826   3.241   0.966   8.437  0.6596  0.5112  0.8509
 2064TIP3    H127827   3.284   0.910   8.373 -0.0804  1.5221 -0.5732
 2064TIP3    H227828   3.293   0.955   8.517  1.6078 -0.7675  0.1047
 2065TIP3   OH227829   0.605   0.309   0.684  0.0235 -0.0781  0.1939
 2065TIP3    H127830   0.518   0.311   0.724 -0.0790 -2.8812  0.2997
 2065TIP3    H227831   0.665   0.333   0.754 -0.5043 -0.1901  0.6863
 2066TIP3   OH227832   0.208   5.294   0.449  0.0591  0.3038 -0.0212
 2066TIP3    H127833   0.179   5.379   0.482 -0.3670  0.9160 -1.8935
 2066TIP3    H227834   0.143   5.232   0.482  0.0379  0.7693  0.8580
 2067TIP3   OH227835   4.931   3.812   7.304 -0.2561 -0.6843 -0.1827
 2067TIP3    H127836   4.949   3.831   7.212 -0.9009 -0.0241 -0.1864
 2067TIP3    H227837   5.001   3.753   7.331  1.2793  0.9338 -0.4601
 2068TIP3   OH227838   0.459   4.797   7.710 -0.0762  0.1232 -0.6481
 2068TIP3    H127839   0.490   4.730   7.649 -1.1550  0.8992 -2.0899
 2068TIP3    H227840   0.536   4.850   7.729  0.7075 -1.2594  0.2141
 2069TIP3   OH227841   5.216   1.288   3.027 -0.1456 -0.1431  0.6659
 2069TIP3    H127842   5.214   1.226   2.953 -1.1306  0.1213  0.4485
 2069TIP3    H227843   5.124   1.304   3.046  0.0765  1.5915  0.4338
 2070TIP3   OH227844   2.760   5.508   0.801 -0.2509  0.3683  0.0240
 2070TIP3    H127845   2.822   5.578   0.779 -0.4420  0.1853 -1.1652
 2070TIP3    H227846   2.686   5.523   0.742  0.1968 -1.5143 -1.0769
 2071TIP3   OH227847   0.995   1.732   2.796  0.0076 -0.0607  0.0469
 2071TIP3    H127848   0.932   1.682   2.849 -1.4719  2.3030  0.6739
 2071TIP3    H227849   1.078   1.721   2.841 -0.5781 -0.7031  1.0279
 2072TIP3   OH227850   6.845   6.465   1.660 -0.4593 -0.4860  0.1122
 2072TIP3    H127851   6.768   6.510   1.626 -0.7177  0.5998  2.0049
 2072TIP3    H227852   6.919   6.513   1.624 -0.6847 -0.4973 -0.3709
 2073TIP3   OH227853   4.982   5.342   1.747  0.4268  0.3060 -0.0128
 2073TIP3    H127854   4.887   5.347   1.736 -0.0844  2.5770  3.6136
 2073TIP3    H227855   5.002   5.248   1.744 -2.0604 -0.2919 -0.0780
 2074TIP3   OH227856   5.201   2.712   1.222  1.3489 -0.1717  0.0120
 2074TIP3    H127857   5.124   2.661   1.246  0.4552  0.6418 -1.0829
 2074TIP3    H227858   5.168   2.782   1.166  2.6520  1.1722  0.8430
 2075TIP3   OH227859   2.473   2.442   1.746 -0.3169  0.3883 -0.0495
 2075TIP3    H127860   2.434   2.431   1.832  1.5426 -0.7947  0.7040
 2075TIP3    H227861   2.405   2.484   1.694 -2.1975 -0.6490  1.4416
 2076TIP3   OH227862   3.019   0.732   0.013  0.0721  0.3503 -0.2388
 2076TIP3    H127863   3.050   0.776  -0.066  1.4060  0.3237  0.2450
 2076TIP3    H227864   3.032   0.795   0.083  1.5973 -0.6140  0.3913
 2077TIP3   OH227865   3.855   5.860   2.561 -0.3283 -0.1384  0.0840
 2077TIP3    H127866   3.869   5.769   2.588  1.0170  0.3382  1.0807
 2077TIP3    H227867   3.793   5.895   2.625 -0.1136 -0.0843  0.2612
 2078TIP3   OH227868   4.835   5.035   7.134  0.5736 -0.5444 -0.0150
 2078TIP3    H127869   4.879   5.119   7.147 -0.1496 -0.2985  0.9990
 2078TIP3    H227870   4.742   5.057   7.135  0.3923 -1.2597 -0.5569
 2079TIP3   OH227871   0.969   0.726   1.849 -0.4192  0.0027 -0.1932
 2079TIP3    H127872   0.956   0.660   1.918 -1.2286  0.2962 -0.0472
 2079TIP3    H227873   0.880   0.749   1.822 -0.1295  0.7409 -0.5313
 2080TIP3   OH227874   3.267   0.833   2.650  0.0645 -0.0811  0.5464
 2080TIP3    H127875   3.286   0.897   2.718  1.1614 -1.4333  1.5765
 2080TIP3    H227876   3.214   0.880   2.586  0.1547  1.6023  1.6641
 2081TIP3   OH227877   2.683   2.786   2.662  0.6235  0.5872 -0.5299
 2081TIP3    H127878   2.648   2.715   2.717  1.4398 -1.6230 -2.6660
 2081TIP3    H227879   2.757   2.820   2.712  0.4199 -0.3017  0.4266
 2082TIP3   OH227880   4.644   3.614   2.660 -0.1986 -0.0460  0.0060
 2082TIP3    H127881   4.619   3.619   2.568  1.9414 -2.3414 -0.8344
 2082TIP3    H227882   4.568   3.648   2.708 -2.0614 -0.3420 -2.5272
 2083TIP3   OH227883   2.063   1.192   0.645 -0.0491 -0.3978  0.5444
 2083TIP3    H127884   1.995   1.213   0.710  0.9814  0.2325  1.4562
 2083TIP3    H227885   2.122   1.268   0.647  1.1150 -1.2742  0.3488
 2084TIP3   OH227886   0.405   2.853   1.844  0.1990  0.2732 -0.1308
 2084TIP3    H127887   0.456   2.801   1.906  2.5616  0.5912 -1.6688
 2084TIP3    H227888   0.356   2.789   1.793  0.1696 -0.1601  0.4365
 2085TIP3   OH227889   2.276   1.357   1.565 -0.3018  0.0895  0.6522
 2085TIP3    H127890   2.360   1.329   1.528 -1.3782  0.2760 -2.2026
 2085TIP3    H227891   2.226   1.276   1.576 -0.9403  0.2404 -0.9607
 2086TIP3   OH227892   1.256   3.235   7.029 -0.4491  0.3198 -0.6073
 2086TIP3    H127893   1.347   3.243   6.999  0.4810  0.6796  2.1017
 2086TIP3    H227894   1.224   3.325   7.034 -0.9935  0.1948 -1.5448
 2087TIP3   OH227895   1.326   1.777   0.064  0.4298 -0.5869  0.1560
 2087TIP3    H127896   1.290   1.799  -0.022 -0.2910  1.2954  0.8990
 2087TIP3    H227897   1.265   1.711   0.099 -0.2891 -0.0334 -0.0441
 2088TIP3   OH227898   3.784   3.939   2.108 -0.4679 -0.0214  0.2615
 2088TIP3    H127899   3.849   3.875   2.076  1.1284  1.2085  0.8866
 2088TIP3    H227900   3.763   3.991   2.030 -0.3983 -0.1645  0.1446
 2089TIP3   OH227901   4.214   5.761   2.771 -0.2495 -0.4608 -0.1439
 2089TIP3    H127902   4.164   5.703   2.830 -1.1853  0.7023  0.2500
 2089TIP3    H227903   4.203   5.722   2.685 -2.1288 -0.0927 -0.1161
 2090TIP3   OH227904   1.572   6.877   0.442  0.2105 -0.0359 -0.3939
 2090TIP3    H127905   1.543   6.913   0.358  0.2711 -0.0740 -0.4317
 2090TIP3    H227906   1.493   6.870   0.495 -0.2061 -1.9919 -1.1702
 2091TIP3   OH227907   4.851   4.173   7.179  0.1214 -0.4260 -0.4191
 2091TIP3    H127908   4.777   4.139   7.130  0.4717 -1.3985 -0.3015
 2091TIP3    H227909   4.825   4.261   7.205 -1.2375 -0.9765  0.1542
 2092TIP3   OH227910   5.469   2.740   2.637 -0.1527 -0.7764  0.0907
 2092TIP3    H127911   5.397   2.799   2.615 -0.3201 -1.5072 -1.4988
 2092TIP3    H227912   5.477   2.746   2.732 -0.1085  1.8440 -0.0090
 2093TIP3   OH227913   1.692   6.715   1.726 -0.2469  0.2765 -0.7729
 2093TIP3    H127914   1.717   6.779   1.792 -1.2268  2.1105 -2.0851
 2093TIP3    H227915   1.762   6.650   1.727  1.5580  2.1312 -0.3753
 2094TIP3   OH227916   2.598   0.680   0.111  0.4926 -0.1857  0.1521
 2094TIP3    H127917   2.622   0.754   0.168  0.7434 -0.6753  0.6959
 2094TIP3    H227918   2.654   0.690   0.034 -0.0701  0.6587 -0.1510
 2095TIP3   OH227919   6.769   0.865   1.614  0.0338  0.0128  0.4551
 2095TIP3    H127920   6.823   0.930   1.569  0.0160 -0.0037  0.4099
 2095TIP3    H227921   6.783   0.784   1.564  2.0268 -0.6516  1.9666
 2096TIP3   OH227922   1.035   2.820   0.038 -0.6491 -0.4421 -0.2853
 2096TIP3    H127923   0.995   2.884   0.097 -0.5176  0.1313 -0.8078
 2096TIP3    H227924   0.976   2.817  -0.037 -0.5484 -0.7931 -0.3528
 2097TIP3   OH227925   1.214   4.313   8.459 -0.6073  0.1701  0.0220
 2097TIP3    H127926   1.154   4.253   8.504 -2.0363  1.3414 -0.2482
 2097TIP3    H227927   1.296   4.263   8.451 -0.9272 -0.7942  2.0892
 2098TIP3   OH227928   2.472   2.060   7.442 -0.3781  0.2087 -0.7388
 2098TIP3    H127929   2.501   2.146   7.413 -2.2375  0.7216 -1.2313
 2098TIP3    H227930   2.399   2.078   7.502 -2.1265 -0.9828 -2.3504
 2099TIP3   OH227931   2.272   0.662   7.397  0.3539 -0.6305 -0.6013
 2099TIP3    H127932   2.351   0.697   7.354  0.2071  0.1777 -0.2404
 2099TIP3    H227933   2.262   0.574   7.361  0.3977 -0.0803 -2.0097
 2100TIP3   OH227934   1.688   4.205   8.207  0.3610 -0.3349  0.3277
 2100TIP3    H127935   1.751   4.257   8.257  0.0327  1.1503 -0.7286
 2100TIP3    H227936   1.646   4.268   8.149  0.7280 -1.9489 -1.8399
 2101TIP3   OH227937   4.283   0.858   0.356  0.0266 -0.2652  0.0707
 2101TIP3    H127938   4.209   0.804   0.383 -0.5483  0.6912  0.4565
 2101TIP3    H227939   4.271   0.870   0.262  0.7890 -1.7346 -0.2359
 2102TIP3   OH227940   2.911   3.803   7.763 -0.2133  0.4431 -0.3953
 2102TIP3    H127941   2.930   3.867   7.695  0.4542  0.4527 -0.2054
 2102TIP3    H227942   2.957   3.724   7.735  0.5859  0.6216  0.3357
 2103TIP3   OH227943   5.353   4.305   7.331 -0.1343 -0.5419 -0.1583
 2103TIP3    H127944   5.390   4.388   7.361 -0.7431 -0.2892 -0.1069
 2103TIP3    H227945   5.296   4.328   7.258 -1.2301 -0.7538  0.6000
 2104TIP3   OH227946   2.254   4.449   8.063 -0.1560  0.1997 -0.3788
 2104TIP3    H127947   2.333   4.443   8.116 -0.4156  0.8997  0.1023
 2104TIP3    H227948   2.245   4.543   8.045 -0.7011  0.0881 -0.6997
 2105TIP3   OH227949   5.142   1.349   0.040 -0.0477 -0.2571  0.0057
 2105TIP3    H127950   5.132   1.263  -0.001  1.1832  0.4543 -1.9135
 2105TIP3    H227951   5.052   1.382   0.048 -0.3800 -0.6713 -1.6336
 2106TIP3   OH227952   5.794   0.434   6.659  0.1030 -0.0749  0.5259
 2106TIP3    H127953   5.884   0.466   6.649  0.1013  1.5105  4.0244
 2106TIP3    H227954   5.796   0.382   6.739 -1.8019 -1.4086 -0.2334
 2107TIP3   OH227955   3.659   4.659   7.462  0.2206 -0.2640  0.1465
 2107TIP3    H127956   3.738   4.616   7.430  0.4009 -0.0651  0.3178
 2107TIP3    H227957   3.653   4.634   7.554  1.6349  1.9359  0.9051
 2108TIP3   OH227958   5.341   2.057   3.054  0.0721  0.7076 -0.0023
 2108TIP3    H127959   5.336   2.037   3.148  0.1681  1.7157  0.2298
 2108TIP3    H227960   5.382   2.144   3.050  0.7873  0.3480 -1.0187
 2109TIP3   OH227961   0.038   6.429   0.903 -0.1990  0.5879 -0.4563
 2109TIP3    H127962   0.039   6.340   0.868  0.1849 -0.0026  0.9833
 2109TIP3    H227963   0.115   6.470   0.866  0.8750 -0.4069  0.5908
 2110TIP3   OH227964   2.140   6.199   2.049  0.1175 -0.3496 -0.1069
 2110TIP3    H127965   2.190   6.279   2.035  1.7601 -1.2235  0.3950
 2110TIP3    H227966   2.097   6.212   2.133  1.3392 -0.4040  0.5623
 2111TIP3   OH227967   2.164   3.985   0.326 -0.5669  0.5168  1.3073
 2111TIP3    H127968   2.235   4.037   0.288 -0.3453 -0.4736  0.2969
 2111TIP3    H227969   2.207   3.915   0.374 -0.7316 -1.5730 -1.3547
 2112TIP3   OH227970   5.019   6.546   7.500  0.0606  0.1826 -0.0544
 2112TIP3    H127971   4.936   6.506   7.474  0.3525 -0.1995 -0.4194
 2112TIP3    H227972   5.045   6.499   7.579  1.3959 -1.7873 -1.5675
 2113TIP3   OH227973   0.012   1.248   8.343  0.2599 -0.0272  0.5656
 2113TIP3    H127974   0.046   1.199   8.418  0.7576  0.2259  0.5071
 2113TIP3    H227975  -0.026   1.181   8.286  2.1101 -0.5334 -0.1514
 2114TIP3   OH227976   4.858   1.297   7.044 -0.3711  0.3383 -0.2879
 2114TIP3    H127977   4.950   1.302   7.072 -0.3329 -0.3987 -0.2481
 2114TIP3    H227978   4.809   1.280   7.124 -0.0970 -3.4022 -0.7287
 2115TIP3   OH227979   0.329   2.042   2.609  0.6122 -0.3414  0.0154
 2115TIP3    H127980   0.316   2.009   2.698  0.4536 -1.1518 -0.2978
 2115TIP3    H227981   0.385   1.977   2.567 -0.6553 -0.8474 -0.9661
 2116TIP3   OH227982   5.124   6.895   1.145  0.0851 -0.4069 -0.0837
 2116TIP3    H127983   5.086   6.850   1.070  0.3409 -0.3445 -0.2528
 2116TIP3    H227984   5.207   6.931   1.112 -0.4291  0.7696 -0.1302
 2117TIP3   OH227985   3.857   5.604   8.345 -0.4374 -0.0572  0.3536
 2117TIP3    H127986   3.883   5.691   8.376 -1.2005  0.6546 -0.9163
 2117TIP3    H227987   3.777   5.619   8.294  0.3193 -1.2420 -1.3016
 2118TIP3   OH227988   0.908   4.768   0.011  0.1827 -0.0781 -0.2538
 2118TIP3    H127989   0.926   4.816  -0.069 -0.4322 -0.0265 -0.3682
 2118TIP3    H227990   0.814   4.778   0.024  0.0104 -1.3500 -0.3512
 2119TIP3   OH227991   3.561   0.346   0.017 -0.5454  0.1136  0.4368
 2119TIP3    H127992   3.556   0.297   0.099  0.7553 -0.3103  0.2859
 2119TIP3    H227993   3.629   0.411   0.032 -1.1460  0.8291  0.0942
 2120TIP3   OH227994   5.978   5.000   0.614 -0.1331 -0.0695 -0.2686
 2120TIP3    H127995   5.912   5.023   0.678  0.0650  1.5233 -0.5876
 2120TIP3    H227996   5.950   4.915   0.580 -2.7730  1.1138 -1.3430
 2121TIP3   OH227997   3.211   4.881   1.651  0.4910 -0.1995  0.4663
 2121TIP3    H127998   3.144   4.818   1.627  0.7074  0.4453 -2.0657
 2121TIP3    H227999   3.292   4.830   1.655  0.4440 -0.3381 -0.2334
 2122TIP3   OH228000   2.099   0.328   7.493  0.3490 -0.0523 -0.1220
 2122TIP3    H128001   2.184   0.317   7.536  1.8099  2.4369 -2.0793
 2122TIP3    H228002   2.055   0.396   7.544 -0.7134 -1.5857  1.1005
 2123TIP3   OH228003   2.286   1.064   0.785  0.1476  0.4305 -0.2191
 2123TIP3    H128004   2.215   1.096   0.730 -1.9275  0.0439  2.1039
 2123TIP3    H228005   2.286   1.121   0.861  0.5913 -1.1471  1.0309
 2124TIP3   OH228006   4.356   4.789   8.446  0.3634 -0.2246  0.5863
 2124TIP3    H128007   4.260   4.793   8.443  0.3084 -1.4489 -0.7707
 2124TIP3    H228008   4.377   4.794   8.539 -1.0497 -0.2813  0.9396
 2125TIP3   OH228009   2.929   2.761   2.011  0.0109 -0.3828 -0.3064
 2125TIP3    H128010   2.854   2.705   2.031 -0.7691  0.0501 -1.8453
 2125TIP3    H228011   2.893   2.832   1.958  1.3273  0.4744 -0.1058
 2126TIP3   OH228012   5.362   3.937   0.796 -0.5994  0.1956 -0.9170
 2126TIP3    H128013   5.269   3.918   0.806 -0.7887  1.8671  1.2414
 2126TIP3    H228014   5.364   4.021   0.750 -0.2347  0.7821  0.1394
 2127TIP3   OH228015   5.845   4.069   8.324  0.4349  0.0012  0.1737
 2127TIP3    H128016   5.917   4.074   8.261 -2.2146  1.1298 -3.0503
 2127TIP3    H228017   5.887   4.083   8.409  4.0270  0.2094 -1.4400
 2128TIP3   OH228018   0.552   6.411   8.137  0.0634 -0.6606  0.4089
 2128TIP3    H128019   0.585   6.408   8.227 -3.0756  1.0248  1.8109
 2128TIP3    H228020   0.569   6.501   8.108  1.3819 -1.2867 -0.9122
 2129TIP3   OH228021   2.880   5.293   8.139  0.4653  0.3737  0.2894
 2129TIP3    H128022   2.819   5.222   8.118  0.7313  0.7263 -1.8985
 2129TIP3    H228023   2.826   5.359   8.181 -0.3832  0.0575 -0.2718
 2130TIP3   OH228024   2.361   3.592   0.766 -0.4663 -0.0623  0.1874
 2130TIP3    H128025   2.425   3.530   0.731 -1.4202 -1.8204  1.3988
 2130TIP3    H228026   2.307   3.615   0.691  0.4581  0.0441 -0.4705
 2131TIP3   OH228027   3.462   5.020   1.947  0.2705 -0.0195 -0.5808
 2131TIP3    H128028   3.495   4.979   1.867  0.5038 -1.7615  0.3665
 2131TIP3    H228029   3.492   4.964   2.018 -1.1562  0.6761  0.6460
 2132TIP3   OH228030   2.702   3.129   3.374 -0.2500 -0.0878 -0.4713
 2132TIP3    H128031   2.705   3.114   3.280  1.9729 -2.3981 -0.1618
 2132TIP3    H228032   2.791   3.156   3.397 -0.3333 -1.0364  1.1366
 2133TIP3   OH228033   6.242   5.055   7.368 -0.4206 -0.1516  0.4165
 2133TIP3    H128034   6.220   5.124   7.305  0.8521  0.0528  0.1723
 2133TIP3    H228035   6.318   5.088   7.414 -0.0511 -1.2169  0.6015
 2134TIP3   OH228036   4.815   4.787   0.088 -0.0765  0.4943 -0.1010
 2134TIP3    H128037   4.903   4.762   0.117  0.4507  1.4334 -0.8342
 2134TIP3    H228038   4.810   4.881   0.105 -1.3377  0.2754  0.8998
 2135TIP3   OH228039   3.710   0.955   1.575  0.0245 -0.3242  0.1197
 2135TIP3    H128040   3.623   0.935   1.540  0.0463 -1.6396  0.7438
 2135TIP3    H228041   3.693   1.015   1.648 -0.5130 -1.6214  1.0971
 2136TIP3   OH228042   3.862   4.179   8.098  0.0806 -0.3673 -0.0129
 2136TIP3    H128043   3.940   4.124   8.103  2.6002  2.8833  0.1255
 2136TIP3    H228044   3.859   4.209   8.007 -0.3733  0.3534  0.2304
 2137TIP3   OH228045   0.163   0.109   0.933  0.2757  0.0711  0.6975
 2137TIP3    H128046   0.126   0.174   0.874 -2.0960 -0.0693  1.9306
 2137TIP3    H228047   0.193   0.039   0.875 -1.9983 -0.0767 -0.4153
 2138TIP3   OH228048   5.559   2.235   7.766  0.0152  0.1738  0.1479
 2138TIP3    H128049   5.554   2.191   7.851  2.0833 -0.4779 -0.0196
 2138TIP3    H228050   5.536   2.168   7.702 -1.4486  0.6404  0.1377
 2139TIP3   OH228051   3.256   5.483   6.913 -0.6778 -0.1907  0.2405
 2139TIP3    H128052   3.239   5.423   6.986 -0.0180 -0.1217  0.4556
 2139TIP3    H228053   3.286   5.427   6.842 -1.9614 -0.3404 -0.2174
 2140TIP3   OH228054   5.801   4.485   1.076 -0.1578  0.0071 -0.0472
 2140TIP3    H128055   5.731   4.499   1.140 -1.3439 -2.3191 -0.7105
 2140TIP3    H228056   5.775   4.538   1.000 -1.7169 -1.4081 -0.5816
 2141TIP3   OH228057   2.046   0.447   2.297 -0.2473 -0.3297 -0.0589
 2141TIP3    H128058   2.141   0.439   2.308 -0.2895 -1.9394 -0.6558
 2141TIP3    H228059   2.010   0.369   2.338 -1.1244 -0.9334 -1.8553
 2142TIP3   OH228060   1.253   4.567   7.810  0.3019 -0.1287 -0.1837
 2142TIP3    H128061   1.196   4.643   7.818 -1.0854 -1.1878  0.3881
 2142TIP3    H228062   1.338   4.597   7.844 -0.7667  0.6018  1.9880
 2143TIP3   OH228063   5.066   1.757   1.134  0.0305  0.4712 -0.2218
 2143TIP3    H128064   4.990   1.729   1.184  0.3862 -0.2593 -0.0692
 2143TIP3    H228065   5.141   1.727   1.186  0.4156  0.8032 -0.5775
 2144TIP3   OH228066   6.188   5.391   2.221 -0.1824 -1.1099  0.4706
 2144TIP3    H128067   6.248   5.383   2.146  1.1242  0.3139  1.3100
 2144TIP3    H228068   6.159   5.302   2.238  1.4099 -1.8028 -0.2160
 2145TIP3   OH228069   0.462   4.535   7.035  0.0963 -0.3564 -0.6702
 2145TIP3    H128070   0.535   4.527   6.974  2.4310 -1.7939  2.0805
 2145TIP3    H228071   0.446   4.446   7.066 -0.4722  0.3730  1.3234
 2146TIP3   OH228072   6.537   3.803   0.357  0.8525  0.0639 -0.2455
 2146TIP3    H128073   6.603   3.840   0.416  2.3633 -0.8134 -1.3225
 2146TIP3    H228074   6.522   3.714   0.391 -0.6768  0.6366  0.6736
 2147TIP3   OH228075   2.050   1.027   7.214 -0.0233  0.6616  0.2478
 2147TIP3    H128076   2.022   0.939   7.238  1.7953 -0.1770 -0.6160
 2147TIP3    H228077   1.997   1.049   7.137 -0.2714  0.2245  0.2925
 2148TIP3   OH228078   4.625   4.587   2.118 -0.1767 -0.6574  0.0372
 2148TIP3    H128079   4.703   4.590   2.064 -0.5043 -2.0943 -0.5590
 2148TIP3    H228080   4.555   4.560   2.058 -1.1224  0.4422  0.5846
 2149TIP3   OH228081   2.147   1.486   1.778 -0.4418  0.3213  0.1294
 2149TIP3    H128082   2.182   1.441   1.702 -0.5200  0.4993 -0.0145
 2149TIP3    H228083   2.054   1.464   1.779 -0.0345 -1.5138  1.4746
 2150TIP3   OH228084   5.524   3.581   0.136 -0.0767  0.0787  0.2871
 2150TIP3    H128085   5.600   3.546   0.091 -1.1648 -0.6878 -1.0286
 2150TIP3    H228086   5.490   3.649   0.077  0.3674  1.4099  1.5011
 2151TIP3   OH228087   5.840   2.913   8.296  0.7051 -0.5486  0.0028
 2151TIP3    H128088   5.819   2.982   8.359 -0.0996 -2.8386  2.3974
 2151TIP3    H228089   5.932   2.927   8.276  1.1180  0.0282  2.0589
 2152TIP3   OH228090   5.678   6.003   1.392 -0.8774  0.5490 -0.1160
 2152TIP3    H128091   5.639   5.971   1.311 -0.5781  0.6060 -0.2839
 2152TIP3    H228092   5.725   6.082   1.366 -0.0494  0.0866 -0.0541
 2153TIP3   OH228093   4.834   6.515   0.079  0.0655 -0.3905  0.2243
 2153TIP3    H128094   4.890   6.553   0.011 -0.5165  0.7622  0.3534
 2153TIP3    H228095   4.895   6.488   0.148  0.4246  3.0038  1.4306
 2154TIP3   OH228096   0.755   0.793   7.659 -0.2248  0.0529 -0.1514
 2154TIP3    H128097   0.742   0.702   7.631 -2.6496 -0.1389  1.3052
 2154TIP3    H228098   0.782   0.785   7.751  0.8995  0.8197 -0.3888
 2155TIP3   OH228099   0.360   0.523   7.772 -0.1314  0.8206  0.2042
 2155TIP3    H128100   0.323   0.601   7.815 -1.2830  0.1995  0.3843
 2155TIP3    H228101   0.454   0.530   7.788 -0.4065  1.1560  1.9442
 2156TIP3   OH228102   3.926   6.899   1.013 -0.2221 -0.3765 -0.1086
 2156TIP3    H128103   3.910   6.814   1.054  0.4847 -0.5055 -0.0978
 2156TIP3    H228104   3.901   6.887   0.922  0.1654 -0.6898 -0.1766
 2157TIP3   OH228105   2.063   0.638   1.264  0.1261 -0.0432  0.3294
 2157TIP3    H128106   1.979   0.682   1.275  0.2816  0.5569 -0.7693
 2157TIP3    H228107   2.101   0.677   1.186  1.6913  0.0879  1.1204
 2158TIP3   OH228108   1.698   2.543   1.790  0.1469  0.0957  0.6400
 2158TIP3    H128109   1.771   2.589   1.831  1.5203 -0.4398 -1.0910
 2158TIP3    H228110   1.644   2.613   1.752  0.7149  0.4169  0.4180
 2159TIP3   OH228111   0.657   6.140   1.063  0.1364  0.3370 -0.3323
 2159TIP3    H128112   0.707   6.201   1.118 -2.3006  0.6244  1.7654
 2159TIP3    H228113   0.689   6.054   1.087  0.4050  0.5721  0.1649
 2160TIP3   OH228114   0.981   5.477   8.158  1.0469 -0.0806  0.3523
 2160TIP3    H128115   1.017   5.546   8.215 -0.6943  2.3797 -1.2983
 2160TIP3    H228116   1.050   5.461   8.094  1.2482  0.6619  0.3683
 2161TIP3   OH228117   3.629   3.262   0.931  0.1222 -0.4945  0.2753
 2161TIP3    H128118   3.708   3.259   0.876 -1.1787 -1.2314 -1.6785
 2161TIP3    H228119   3.635   3.346   0.976  2.2261 -0.7275  0.5478
 2162TIP3   OH228120   0.352   0.566   2.207 -0.2278  0.2711  0.2402
 2162TIP3    H128121   0.432   0.562   2.260 -0.4589  1.6447  0.7214
 2162TIP3    H228122   0.375   0.622   2.133 -0.2150 -0.8148 -0.6005
 2163TIP3   OH228123   5.006   6.832   8.221  0.0890  0.3354  0.9783
 2163TIP3    H128124   4.915   6.812   8.203  1.1228 -1.8491 -2.9163
 2163TIP3    H228125   5.021   6.917   8.178  0.2766 -0.2407 -0.1356
 2164TIP3   OH228126   6.388   1.446   3.390 -0.3829  0.2697  0.4994
 2164TIP3    H128127   6.445   1.426   3.465 -1.1907  1.2698  1.4106
 2164TIP3    H228128   6.300   1.448   3.426 -1.3437 -2.9956 -1.1983
 2165TIP3   OH228129   4.236   2.341   0.651  0.3299 -0.5840 -0.1741
 2165TIP3    H128130   4.250   2.421   0.600 -2.6368 -0.4057 -0.8838
 2165TIP3    H228131   4.252   2.367   0.742  0.8902  0.3943 -0.5420
 2166TIP3   OH228132   0.147   2.132   2.390 -0.0498  0.2222  0.7485
 2166TIP3    H128133   0.234   2.171   2.385  0.7567 -1.5787 -0.1855
 2166TIP3    H228134   0.149   2.080   2.471  0.1157 -0.6227  0.2095
 2167TIP3   OH228135   3.767   4.605   3.016 -0.7502  0.2354 -0.7302
 2167TIP3    H128136   3.806   4.554   2.945  0.8079 -0.2073  0.3843
 2167TIP3    H228137   3.728   4.539   3.074 -0.2760  0.4266 -0.1851
 2168TIP3   OH228138   2.009   6.325   7.086 -0.3414 -0.1482  0.7036
 2168TIP3    H128139   2.094   6.362   7.063 -0.6288  0.4820  0.6256
 2168TIP3    H228140   1.982   6.276   7.008 -0.3733  0.2469  0.4675
 2169TIP3   OH228141   0.310   5.956   6.622 -0.5884  0.0688 -0.0880
 2169TIP3    H128142   0.234   5.975   6.677  0.8213 -0.1959  2.0552
 2169TIP3    H228143   0.346   6.042   6.600  0.4991  0.1739  1.9037
 2170TIP3   OH228144   6.078   0.662   7.644  0.1345  0.2783 -0.1973
 2170TIP3    H128145   6.028   0.584   7.620 -0.1954  1.3178 -3.4151
 2170TIP3    H228146   6.160   0.653   7.596  1.2473  0.6891  1.5468
 2171TIP3   OH228147   4.348   3.484   2.569  0.2650 -0.2762  0.4081
 2171TIP3    H128148   4.413   3.435   2.620 -1.4017 -0.5069  2.4407
 2171TIP3    H228149   4.271   3.488   2.626 -0.9782  1.3585 -1.2757
 2172TIP3   OH228150   1.407   0.084   6.545  0.0469  0.2465 -0.1863
 2172TIP3    H128151   1.405   0.020   6.474 -0.5628  0.9871 -0.8644
 2172TIP3    H228152   1.374   0.165   6.505 -1.2096  0.4567  1.1683
 2173TIP3   OH228153   1.448   4.332   0.651  1.1672  0.0208 -0.4255
 2173TIP3    H128154   1.538   4.360   0.635  2.0746 -1.9122  0.9550
 2173TIP3    H228155   1.436   4.342   0.745  0.7560 -1.9460 -0.2366
 2174TIP3   OH228156   5.531   0.360   2.043  0.0955  0.1029  0.3808
 2174TIP3    H128157   5.491   0.407   1.970 -1.3979 -0.4869  0.7940
 2174TIP3    H228158   5.610   0.411   2.064 -0.8881  1.8007  0.1113
 2175TIP3   OH228159   6.623   4.095   0.233  0.3877 -0.3356 -0.8549
 2175TIP3    H128160   6.600   4.093   0.326  2.1344  1.3509 -0.3168
 2175TIP3    H228161   6.556   4.149   0.192  0.4061  0.1155 -0.2976
 2176TIP3   OH228162   3.398   1.925   1.002  0.2904  0.3430 -0.6364
 2176TIP3    H128163   3.415   1.894   0.913 -0.6900  0.2928 -0.8203
 2176TIP3    H228164   3.368   1.847   1.049  0.5484  0.4253 -0.3328
 2177TIP3   OH228165   6.934   4.893   0.284 -0.4541 -0.2627  0.5540
 2177TIP3    H128166   6.911   4.954   0.354 -0.7085  0.9270 -0.5221
 2177TIP3    H228167   6.855   4.841   0.270 -1.2581  1.1633 -0.4777
 2178TIP3   OH228168   3.211   3.943   6.559 -0.1216 -0.1592 -0.6436
 2178TIP3    H128169   3.280   3.937   6.624 -0.3176  1.3749 -0.2562
 2178TIP3    H228170   3.211   3.857   6.516  1.9554 -0.2393 -0.6055
 2179TIP3   OH228171   3.566   0.287   1.054  0.3083  0.4535 -0.6453
 2179TIP3    H128172   3.600   0.362   1.103  1.2295  1.0004 -2.0460
 2179TIP3    H228173   3.630   0.218   1.070 -1.2708 -0.5977  1.8238
 2180TIP3   OH228174   4.472   1.443   0.037 -0.2914 -0.2432 -0.3568
 2180TIP3    H128175   4.540   1.375   0.031 -0.4250 -0.3245 -1.0928
 2180TIP3    H228176   4.467   1.464   0.130  0.3581 -0.6296 -0.2275
 2181TIP3   OH228177   0.601   6.774   2.637  0.4390 -0.8713  0.0397
 2181TIP3    H128178   0.684   6.816   2.659  0.2481 -0.8931  0.8253
 2181TIP3    H228179   0.534   6.833   2.671  0.0089  0.4603 -2.8170
 2182TIP3   OH228180   4.095   0.397   7.986  0.0224 -0.4009 -0.3640
 2182TIP3    H128181   4.188   0.403   8.008  0.3359 -0.7528 -1.5318
 2182TIP3    H228182   4.059   0.337   8.052  0.4388  0.3989  0.6121
 2183TIP3   OH228183   1.855   1.643   7.633  0.1460  0.5294  0.0632
 2183TIP3    H128184   1.938   1.653   7.679 -0.4625 -0.3827  1.4155
 2183TIP3    H228185   1.854   1.551   7.605 -0.0985  0.7201 -0.5732
 2184TIP3   OH228186   6.111   2.382   7.951 -0.1206 -0.2273 -0.4879
 2184TIP3    H128187   6.148   2.310   7.899 -1.1208 -1.2994  0.2348
 2184TIP3    H228188   6.173   2.394   8.023  0.8023  0.6565 -1.3829
 2185TIP3   OH228189   6.470   4.868   0.800  0.7903  0.5055  0.1749
 2185TIP3    H128190   6.399   4.868   0.735  1.8567  0.2678 -1.0330
 2185TIP3    H228191   6.499   4.777   0.804  1.3637  0.6895  0.2604
 2186TIP3   OH228192   0.888   2.263   0.034  0.2794 -0.0268 -0.0668
 2186TIP3    H128193   0.948   2.208  -0.017 -1.3558 -0.6280 -1.4397
 2186TIP3    H228194   0.874   2.340  -0.021 -1.3845 -0.6031 -0.4854
 2187TIP3   OH228195   2.700   0.210   1.125  0.4322 -0.2115 -0.1039
 2187TIP3    H128196   2.692   0.132   1.179  1.2812 -0.4574 -0.3194
 2187TIP3    H228197   2.617   0.257   1.138  0.0396 -0.9882  0.2627
 2188TIP3   OH228198   5.960   5.761   1.499  0.3415  0.1665  0.2408
 2188TIP3    H128199   6.031   5.739   1.438  0.9135 -1.5803  1.4742
 2188TIP3    H228200   5.993   5.735   1.585 -0.5345  2.3472  1.3290
 2189TIP3   OH228201   6.658   1.397   0.770 -0.3112  0.8033 -0.2071
 2189TIP3    H128202   6.594   1.459   0.804 -0.6948 -0.0778  0.7442
 2189TIP3    H228203   6.629   1.380   0.680 -0.2459  1.9128 -0.4544
 2190TIP3   OH228204   0.825   6.123   0.042  0.2544 -0.1945 -0.3413
 2190TIP3    H128205   0.918   6.119   0.065  0.2274  2.5021  0.5074
 2190TIP3    H228206   0.823   6.173  -0.040 -0.5624  2.3954  1.1575
 2191TIP3   OH228207   2.770   6.836   7.966 -0.3978  0.0931 -0.4838
 2191TIP3    H128208   2.722   6.882   8.035 -1.4519  0.4271 -1.4045
 2191TIP3    H228209   2.716   6.760   7.946 -1.4637  1.3091 -2.6447
 2192TIP3   OH228210   6.356   5.496   7.848  0.0440  0.0547 -0.0709
 2192TIP3    H128211   6.313   5.423   7.891  1.5085 -1.3307 -0.8730
 2192TIP3    H228212   6.296   5.523   7.779 -1.3297  0.8685  1.3761
 2193TIP3   OH228213   2.723   2.009   0.222  0.3022 -0.1611 -0.0012
 2193TIP3    H128214   2.726   1.915   0.205 -0.6632 -0.1521 -0.2378
 2193TIP3    H228215   2.637   2.024   0.261  0.3537  0.6618 -0.1888
 2194TIP3   OH228216   4.151   6.511   0.074 -0.0300  0.5927 -0.0967
 2194TIP3    H128217   4.215   6.562   0.024  0.1920 -0.0896 -0.5206
 2194TIP3    H228218   4.068   6.555   0.059 -0.0503  0.1133 -1.4920
 2195TIP3   OH228219   5.132   1.136   2.442  0.1801  0.1415 -0.2292
 2195TIP3    H128220   5.099   1.180   2.520  2.2239  1.6542 -0.1242
 2195TIP3    H228221   5.175   1.205   2.392 -0.5305 -0.9037 -2.4383
 2196TIP3   OH228222   1.350   0.729   2.363  0.5966 -0.1261  0.4767
 2196TIP3    H128223   1.296   0.738   2.441  0.5613 -1.3165  0.6087
 2196TIP3    H228224   1.291   0.749   2.290 -0.2053 -1.9365  0.5830
 2197TIP3   OH228225   6.868   2.782   1.280 -0.1384 -0.2760 -0.4391
 2197TIP3    H128226   6.820   2.707   1.245 -0.9677  0.0059  0.0810
 2197TIP3    H228227   6.822   2.858   1.246  1.1659  0.0367 -1.6148
 2198TIP3   OH228228   0.405   2.335   3.503  0.3449 -0.2591  0.0704
 2198TIP3    H128229   0.422   2.384   3.423  1.3242 -1.8821 -0.7598
 2198TIP3    H228230   0.490   2.332   3.548  0.0234 -0.1933  0.7010
 2199TIP3   OH228231   4.818   5.608   2.729  0.3200  0.4449 -0.0402
 2199TIP3    H128232   4.822   5.613   2.825 -0.7522 -2.2732  0.2637
 2199TIP3    H228233   4.893   5.554   2.705  0.7708  1.3886 -0.7906
 2200TIP3   OH228234   4.980   1.989   2.003  0.0370  0.0323 -0.1149
 2200TIP3    H128235   4.957   2.065   1.950  0.2247  0.7886  0.8613
 2200TIP3    H228236   4.954   2.013   2.092  0.1040 -1.0473  0.2104
 2201TIP3   OH228237   1.535   2.467   8.455 -0.4368  0.1787 -0.3482
 2201TIP3    H128238   1.498   2.545   8.413 -1.8599 -0.0467  0.4414
 2201TIP3    H228239   1.584   2.502   8.530 -0.5182  0.3555 -0.3765
 2202TIP3   OH228240   5.591   0.242   6.618  0.3692  0.3883 -0.4304
 2202TIP3    H128241   5.658   0.177   6.638  0.1165 -0.0340 -0.8957
 2202TIP3    H228242   5.638   0.325   6.612  0.7377  0.2083 -0.0630
 2203TIP3   OH228243   2.687   1.530   6.965  0.2787  0.4478  0.1423
 2203TIP3    H128244   2.601   1.549   6.928  0.7327  1.9358 -0.2030
 2203TIP3    H228245   2.671   1.518   7.058 -0.1619  1.8992  0.2789
 2204TIP3   OH228246   0.905   1.081   7.645 -0.2250 -0.0533  0.0969
 2204TIP3    H128247   0.854   1.001   7.650  0.5625 -0.5359  0.7782
 2204TIP3    H228248   0.936   1.085   7.555 -0.7450 -0.2086 -0.0887
 2205TIP3   OH228249   1.365   0.257   8.314 -0.4019  0.0147 -0.4579
 2205TIP3    H128250   1.394   0.325   8.253 -0.5600  0.2831 -0.2386
 2205TIP3    H228251   1.288   0.295   8.357  0.8994  0.7012  1.4274
 2206TIP3   OH228252   2.037   2.206   8.326  0.4294  0.4559 -0.1979
 2206TIP3    H128253   1.943   2.221   8.326 -0.1128 -2.3287  0.4720
 2206TIP3    H228254   2.059   2.190   8.234  0.1461  0.5674 -0.2850
 2207TIP3   OH228255   2.778   4.496   7.130 -0.4845 -0.3375 -0.4022
 2207TIP3    H128256   2.809   4.585   7.110  1.4213 -1.0841 -0.9545
 2207TIP3    H228257   2.835   4.465   7.199 -2.4537 -0.4501  1.2708
 2208TIP3   OH228258   4.831   4.617   1.203 -0.5480  0.6630 -0.0558
 2208TIP3    H128259   4.761   4.593   1.142 -0.6249  1.8964 -0.4657
 2208TIP3    H228260   4.824   4.551   1.273  0.0101 -1.2526 -1.6923
 2209TIP3   OH228261   4.101   3.210   1.335 -0.5176  0.6137  0.3870
 2209TIP3    H128262   4.054   3.220   1.418  0.8715  1.8711  1.0776
 2209TIP3    H228263   4.088   3.293   1.290 -1.4120 -0.1229 -0.7726
 2210TIP3   OH228264   6.008   5.087   1.662 -0.6712 -0.1539  0.1822
 2210TIP3    H128265   6.080   5.090   1.600  0.5096 -0.1005  1.5028
 2210TIP3    H228266   5.938   5.137   1.620  0.7261  1.4591 -0.3463
 2211TIP3   OH228267   0.238   2.837   0.064 -0.5867  0.0881  0.2190
 2211TIP3    H128268   0.314   2.892   0.084 -0.5400  1.1010 -2.3463
 2211TIP3    H228269   0.199   2.818   0.149  1.0348  1.7156  1.4150
 2212TIP3   OH228270   2.860   6.242   0.539 -0.1553  0.0378 -0.7790
 2212TIP3    H128271   2.826   6.325   0.505 -0.9652 -0.0063 -0.0960
 2212TIP3    H228272   2.785   6.182   0.538  0.2187 -0.4461 -0.4998
 2213TIP3   OH228273   0.777   3.179   1.392  0.2119  0.2989  0.2104
 2213TIP3    H128274   0.869   3.152   1.385  0.1719 -0.5321  2.1416
 2213TIP3    H228275   0.762   3.187   1.486 -1.9707 -0.6314  0.0018
 2214TIP3   OH228276   6.260   1.568   1.192  0.2043 -0.0415 -0.0804
 2214TIP3    H128277   6.175   1.612   1.181  0.7493  1.1418  0.3128
 2214TIP3    H228278   6.244   1.503   1.261 -0.1750  0.7569  0.5997
 2215TIP3   OH228279   2.267   6.407   1.248  0.4812  0.2363 -0.6448
 2215TIP3    H128280   2.188   6.457   1.231  0.6737  0.9713  0.4930
 2215TIP3    H228281   2.241   6.342   1.313  0.9171  0.8432  0.1581
 2216TIP3   OH228282   2.047   2.807   7.144 -0.4410  0.0605 -0.7052
 2216TIP3    H128283   1.986   2.779   7.212  0.2731 -1.4571 -0.6441
 2216TIP3    H228284   2.122   2.748   7.153  0.6581  1.2930 -1.3581
 2217TIP3   OH228285   6.241   0.287   8.057 -0.2289  0.2867 -0.2456
 2217TIP3    H128286   6.189   0.357   8.018 -0.4495 -0.7283 -1.8516
 2217TIP3    H228287   6.312   0.333   8.103 -0.2224  1.5557 -1.4492
 2218TIP3   OH228288   4.785   1.480   2.252 -0.0575 -0.1622  0.3636
 2218TIP3    H128289   4.788   1.573   2.231  1.0842 -0.4772 -1.0413
 2218TIP3    H228290   4.800   1.435   2.168  3.4087 -1.5243  1.4902
 2219TIP3   OH228291   4.883   0.455   6.833  0.3257  0.2093 -0.2218
 2219TIP3    H128292   4.808   0.454   6.774 -0.5023  0.8810  0.7685
 2219TIP3    H228293   4.907   0.547   6.841  0.5633  0.1110  0.3097
 2220TIP3   OH228294   6.503   0.595   2.657  0.1304 -0.4985  0.0047
 2220TIP3    H128295   6.455   0.620   2.736 -0.4290  2.0857 -1.0715
 2220TIP3    H228296   6.490   0.668   2.596  0.5587 -2.3892 -2.5025
 2221TIP3   OH228297   0.859   6.137   2.212 -0.4796 -0.5969 -0.3293
 2221TIP3    H128298   0.938   6.100   2.172  0.5450  0.7568  0.3809
 2221TIP3    H228299   0.790   6.119   2.148  0.2604 -2.3188 -0.7071
 2222TIP3   OH228300   4.079   2.090   0.915  0.2973 -0.6944  0.2625
 2222TIP3    H128301   4.137   2.017   0.894  0.3279 -0.5235 -0.2869
 2222TIP3    H228302   4.051   2.123   0.829 -0.2245 -0.4693  0.5129
 2223TIP3   OH228303   0.291   1.493   0.459  0.3483 -0.2141  0.3467
 2223TIP3    H128304   0.291   1.397   0.465  0.7749 -0.2177  0.3309
 2223TIP3    H228305   0.375   1.519   0.497 -0.7853  0.3135  2.6705
 2224TIP3   OH228306   3.735   5.348   8.051  0.2814  0.1880  0.0455
 2224TIP3    H128307   3.676   5.312   8.118  1.3153  0.6274  1.2242
 2224TIP3    H228308   3.817   5.366   8.098  1.2600 -0.1014 -1.4782
 2225TIP3   OH228309   1.251   2.523   2.070  0.2499  0.0990 -0.6252
 2225TIP3    H128310   1.278   2.523   1.978 -0.3375 -0.3280 -0.8084
 2225TIP3    H228311   1.234   2.615   2.090  3.6753  0.7121  0.0926
 2226TIP3   OH228312   2.044   4.306   8.147 -0.0618 -0.2741  0.4489
 2226TIP3    H128313   2.122   4.356   8.122 -0.9522  0.4504 -0.9934
 2226TIP3    H228314   2.064   4.216   8.122  0.0374  0.0358 -0.6274
 2227TIP3   OH228315   1.062   6.906   2.901  0.4022 -0.8786  0.0455
 2227TIP3    H128316   1.039   6.874   2.814 -0.8446  1.8459 -0.7281
 2227TIP3    H228317   1.137   6.964   2.887 -1.1083  1.2645  0.3643
 2228TIP3   OH228318   2.437   2.220   2.020  0.2217  0.0249 -0.4615
 2228TIP3    H128319   2.409   2.311   2.025 -0.0449 -0.0876  0.3119
 2228TIP3    H228320   2.454   2.195   2.111 -2.3714 -1.5055 -0.2821
 2229TIP3   OH228321   1.396   1.233   7.799 -0.0713 -0.3554  0.8177
 2229TIP3    H128322   1.480   1.279   7.788  1.0532 -2.0695  1.7969
 2229TIP3    H228323   1.331   1.294   7.764  1.4559  1.4656  0.9816
 2230TIP3   OH228324   1.955   4.541   0.240  0.1795  0.2952 -0.4271
 2230TIP3    H128325   2.016   4.518   0.169 -1.4738 -1.9653 -1.2265
 2230TIP3    H228326   1.986   4.492   0.316  0.7836  1.1600 -0.0895
 2231TIP3   OH228327   5.403   1.266   0.107  1.0228  0.3364 -0.3755
 2231TIP3    H128328   5.392   1.179   0.069 -0.7848  0.1577  0.4476
 2231TIP3    H228329   5.315   1.303   0.109  1.5538  1.6467  0.5523
 2232TIP3   OH228330   2.971   4.859   7.814 -0.4112 -0.7013 -0.2024
 2232TIP3    H128331   2.978   4.948   7.780 -1.2455 -0.8249 -0.7211
 2232TIP3    H228332   3.059   4.838   7.843  0.3261 -0.5463 -2.1873
 2233TIP3   OH228333   5.644   1.975   7.644 -0.0310  0.1213 -0.1182
 2233TIP3    H128334   5.671   1.884   7.652  0.4624  0.3046  0.3989
 2233TIP3    H228335   5.724   2.021   7.616 -1.0780 -0.1219 -4.0162
 2234TIP3   OH228336   2.330   1.969   3.129 -0.2267  0.3416  0.5712
 2234TIP3    H128337   2.396   1.918   3.084 -2.4554  0.2030 -2.9147
 2234TIP3    H228338   2.364   2.058   3.129 -0.3301  0.4522 -2.0623
 2235TIP3   OH228339   0.156   6.117   2.515 -0.0435  0.2036 -0.2644
 2235TIP3    H128340   0.231   6.058   2.514  0.7822  1.2184 -0.2851
 2235TIP3    H228341   0.090   6.073   2.569  1.0068 -0.1800  0.7285
 2236TIP3   OH228342   6.757   5.979   0.837  0.0899  0.1930 -0.4159
 2236TIP3    H128343   6.748   5.887   0.861 -0.1656 -0.0335 -1.3426
 2236TIP3    H228344   6.735   6.027   0.917 -1.9189 -0.5048 -0.5079
 2237TIP3   OH228345   5.852   2.668   7.773  0.4742 -0.1143  0.3460
 2237TIP3    H128346   5.908   2.603   7.732 -0.9993 -1.1997 -0.0492
 2237TIP3    H228347   5.776   2.618   7.804 -1.0057  1.4899 -0.5458
 2238TIP3   OH228348   2.633   6.640   0.185 -0.7909  0.1374 -0.3049
 2238TIP3    H128349   2.547   6.680   0.169 -0.2764  0.7448 -1.6797
 2238TIP3    H228350   2.672   6.692   0.255 -1.5266 -0.1305  0.3165
 2239TIP3   OH228351   5.893   3.743   0.412  0.3965 -0.1451  0.2199
 2239TIP3    H128352   5.902   3.765   0.504  3.1459  1.0910 -0.2311
 2239TIP3    H228353   5.912   3.649   0.408  0.1155 -0.2355  0.9037
 2240TIP3   OH228354   4.397   3.044   2.383 -0.1259 -0.4404  0.3855
 2240TIP3    H128355   4.381   3.067   2.474  0.6546 -1.2774  0.7508
 2240TIP3    H228356   4.328   2.981   2.361  0.0418 -0.6900  0.5793
 2241TIP3   OH228357   3.352   6.445   8.403  0.2008 -0.0978  0.2577
 2241TIP3    H128358   3.274   6.392   8.418 -0.7627  0.3946 -2.4573
 2241TIP3    H228359   3.342   6.520   8.461 -0.9304 -0.4371  0.5212
 2242TIP3   OH228360   2.506   1.510   1.996  0.6620 -0.5503  0.0998
 2242TIP3    H128361   2.440   1.508   2.065 -0.8598 -1.5858 -1.3079
 2242TIP3    H228362   2.563   1.583   2.020 -2.0818  1.6832  0.4542
 2243TIP3   OH228363   1.435   6.353   2.646  0.2856 -0.2419 -0.3535
 2243TIP3    H128364   1.400   6.383   2.562 -0.3434  0.1323  0.0275
 2243TIP3    H228365   1.426   6.429   2.704  1.6089 -0.1906 -0.1933
 2244TIP3   OH228366   6.832   1.641   1.318  0.2017  0.0084  0.2587
 2244TIP3    H128367   6.788   1.560   1.346 -2.0149  1.5703  1.5846
 2244TIP3    H228368   6.767   1.688   1.267  1.8378  0.5241 -1.4870
 2245TIP3   OH228369   5.416   4.589   1.794 -0.4829  0.1214  0.3034
 2245TIP3    H128370   5.365   4.655   1.840  0.1082  1.6883 -1.2101
 2245TIP3    H228371   5.478   4.557   1.860 -1.4163  0.3733  1.3193
 2246TIP3   OH228372   2.200   6.284   2.865  0.1455  0.4611  0.2689
 2246TIP3    H128373   2.132   6.217   2.864  0.7947 -0.2560  1.5340
 2246TIP3    H228374   2.273   6.244   2.911  1.4122  1.2485 -0.9349
 2247TIP3   OH228375   0.434   5.329   1.745 -0.6057 -0.0026 -0.4374
 2247TIP3    H128376   0.350   5.375   1.741  0.1476  1.4951  0.1314
 2247TIP3    H228377   0.481   5.373   1.817  0.0416 -1.8818  0.3352
 2248TIP3   OH228378   4.594   4.709   0.655  0.1685  0.7176 -0.0984
 2248TIP3    H128379   4.657   4.644   0.685  0.1691  1.3060  1.2519
 2248TIP3    H228380   4.517   4.659   0.630  1.0477  0.0102 -1.5200
 2249TIP3   OH228381   5.406   6.733   8.005 -0.1574  0.2783  0.0484
 2249TIP3    H128382   5.327   6.684   7.984 -0.9271  0.9388  1.2522
 2249TIP3    H228383   5.478   6.676   7.979 -1.0318 -0.6082 -0.4744
 2250TIP3   OH228384   4.955   2.563   0.696  0.2927 -0.7732 -0.1276
 2250TIP3    H128385   5.045   2.544   0.723  1.0695  1.4580 -0.9652
 2250TIP3    H228386   4.936   2.650   0.733 -1.8447 -1.5132  0.7147
 2251TIP3   OH228387   6.537   5.165   0.333 -0.0029  0.2642 -0.4501
 2251TIP3    H128388   6.610   5.143   0.390  0.0318  2.4437  0.4329
 2251TIP3    H228389   6.510   5.253   0.360 -1.2688  0.5853 -2.4890
 2252TIP3   OH228390   3.499   1.776   7.538  0.6490  0.3053 -0.3677
 2252TIP3    H128391   3.521   1.860   7.497 -0.5685 -0.0598 -1.8791
 2252TIP3    H228392   3.584   1.738   7.562  1.2750  1.5054 -0.6204
 2253TIP3   OH228393   4.171   6.479   0.850 -0.3431  0.0667 -0.0407
 2253TIP3    H128394   4.246   6.420   0.849 -1.6313 -1.6686 -0.7454
 2253TIP3    H228395   4.096   6.422   0.833 -1.6337  1.9767 -1.1995
 2254TIP3   OH228396   1.719   3.522   7.873 -0.6201 -0.0819 -0.4596
 2254TIP3    H128397   1.742   3.569   7.793  0.0591  0.4490  0.0279
 2254TIP3    H228398   1.674   3.443   7.843 -2.2636  1.1245 -1.2889
 2255TIP3   OH228399   1.190   4.603   1.370 -0.5248  0.2675  0.2459
 2255TIP3    H128400   1.281   4.596   1.339 -0.2776 -0.2115  1.0331
 2255TIP3    H228401   1.155   4.515   1.362 -0.5256  0.1823  1.0923
 2256TIP3   OH228402   1.247   3.336   2.825  0.2244  0.4371 -0.4737
 2256TIP3    H128403   1.340   3.350   2.841  0.0507 -0.2805  1.4433
 2256TIP3    H228404   1.224   3.263   2.882 -1.5517  0.7156 -0.7829
 2257TIP3   OH228405   2.943   0.536   0.237  0.0307  0.1298  0.1465
 2257TIP3    H128406   2.859   0.493   0.224  0.4284 -0.6079 -0.0157
 2257TIP3    H228407   2.925   0.628   0.218 -0.7959  0.0267  0.3687
 2258TIP3   OH228408   5.431   2.531   0.535  0.1958  0.1691  0.9254
 2258TIP3    H128409   5.493   2.600   0.557  1.7643 -0.3835 -1.4011
 2258TIP3    H228410   5.386   2.563   0.456  0.2546 -1.0388  0.3850
 2259TIP3   OH228411   5.220   4.935   2.360  0.2972  0.0769  0.0135
 2259TIP3    H128412   5.172   5.014   2.337  1.0305  0.7956  0.8961
 2259TIP3    H228413   5.159   4.884   2.414  0.5878  1.1076  1.3564
 2260TIP3   OH228414   1.788   1.722   0.071  0.2016 -0.2427 -0.3575
 2260TIP3    H128415   1.809   1.808   0.105 -0.5219 -0.4327  0.6088
 2260TIP3    H228416   1.775   1.736  -0.023 -0.4135  0.7909 -0.1293
 2261TIP3   OH228417   4.531   1.155   7.295 -0.3834  0.9734 -0.5954
 2261TIP3    H128418   4.542   1.226   7.231 -1.1710  0.4067 -1.3788
 2261TIP3    H228419   4.439   1.132   7.289 -0.2769  0.3347  0.1482
 2262TIP3   OH228420   0.992   6.422   6.791 -0.2089  0.1948  0.1446
 2262TIP3    H128421   0.990   6.469   6.875 -1.2284 -0.1384  0.3219
 2262TIP3    H228422   0.995   6.330   6.816 -0.5776  0.0928 -0.1920
 2263TIP3   OH228423   6.439   2.147   6.852 -0.0637 -0.3227 -0.1471
 2263TIP3    H128424   6.375   2.174   6.787 -0.7422 -0.8110  0.2946
 2263TIP3    H228425   6.386   2.108   6.922  0.5511  1.0483  1.1406
 2264TIP3   OH228426   6.461   6.571   0.607 -0.2771 -0.0614  0.3961
 2264TIP3    H128427   6.378   6.607   0.573 -1.9482 -2.4166  1.6742
 2264TIP3    H228428   6.461   6.595   0.699 -0.2302 -1.1625  0.7027
 2265TIP3   OH228429   5.423   6.144   2.509  0.2904  0.2992 -0.2622
 2265TIP3    H128430   5.433   6.075   2.575 -1.1181  0.5678  0.2593
 2265TIP3    H228431   5.459   6.105   2.429  0.8321 -0.5072  0.3530
 2266TIP3   OH228432   6.328   5.706   0.463  0.2937 -0.5728  0.4475
 2266TIP3    H128433   6.268   5.776   0.435  1.0186 -0.0175  0.2485
 2266TIP3    H228434   6.328   5.712   0.559  1.0735  0.3337  0.4039
 2267TIP3   OH228435   3.591   6.832   2.117 -0.3536 -0.6399 -0.2730
 2267TIP3    H128436   3.644   6.911   2.125  1.0753 -1.3385 -1.9563
 2267TIP3    H228437   3.625   6.773   2.184 -0.7455 -0.1773  0.3329
 2268TIP3   OH228438   5.676   0.697   8.316 -0.6994  0.4476 -0.1816
 2268TIP3    H128439   5.595   0.747   8.303 -2.8549 -2.4706  0.8147
 2268TIP3    H228440   5.708   0.680   8.227 -1.8018  0.7624 -0.6575
 2269TIP3   OH228441   2.897   6.249   8.398  0.3233  0.3716  0.2591
 2269TIP3    H128442   2.849   6.171   8.369 -0.2552  1.6276 -2.4493
 2269TIP3    H228443   2.834   6.298   8.451  1.0242 -1.4049  2.9307
 2270TIP3   OH228444   3.104   2.894   2.184  0.6476 -0.4230  0.0940
 2270TIP3    H128445   3.033   2.866   2.125 -0.5778  2.1241  0.2482
 2270TIP3    H228446   3.183   2.863   2.141 -0.2938  0.1768 -2.2530
 2271TIP3   OH228447   5.539   6.877   2.368 -0.2950  0.1450 -0.2139
 2271TIP3    H128448   5.466   6.890   2.429 -1.2192 -0.1318 -1.2187
 2271TIP3    H228449   5.578   6.964   2.358 -0.2732  0.2367  0.5818
 2272TIP3   OH228450   2.421   3.730   1.285  0.0975 -0.2468  0.0822
 2272TIP3    H128451   2.357   3.660   1.278 -1.3637  0.8201  1.9415
 2272TIP3    H228452   2.500   3.694   1.243 -1.6789 -1.5330 -2.4492
 2273TIP3   OH228453   4.840   5.354   1.386 -0.3735  0.2321  0.0543
 2273TIP3    H128454   4.772   5.287   1.381 -2.0730  1.9294 -1.3232
 2273TIP3    H228455   4.857   5.378   1.295  2.2385 -0.2269  0.3537
 2274TIP3   OH228456   4.401   3.710   7.911 -0.0139 -0.2428  0.0827
 2274TIP3    H128457   4.315   3.715   7.953 -0.0855  0.3036 -0.1154
 2274TIP3    H228458   4.443   3.793   7.934  0.2077 -0.2327 -0.3569
 2275TIP3   OH228459   0.456   0.040   1.300  0.2672 -0.6520  0.3436
 2275TIP3    H128460   0.470   0.119   1.248  2.0147 -0.9700  0.2758
 2275TIP3    H228461   0.385  -0.006   1.255  0.7079 -0.1717 -0.8855
 2276TIP3   OH228462   0.477   1.506   6.837 -0.0742 -0.6016  0.6762
 2276TIP3    H128463   0.430   1.470   6.912 -1.0196 -0.0477  0.3583
 2276TIP3    H228464   0.462   1.443   6.767  1.5890 -1.6129  1.1603
 2277TIP3   OH228465   4.968   4.978   0.343 -0.4672 -0.0315 -0.1751
 2277TIP3    H128466   4.897   5.007   0.285 -1.6343 -2.9510 -0.3910
 2277TIP3    H228467   4.970   5.043   0.413 -0.8484  2.1162 -2.0406
 2278TIP3   OH228468   3.961   5.369   8.448 -0.0676 -0.4622  0.1234
 2278TIP3    H128469   3.908   5.444   8.420  0.9318 -0.0584 -0.7400
 2278TIP3    H228470   4.002   5.399   8.529 -0.0590 -0.2602  0.0446
 2279TIP3   OH228471   6.309   3.401   7.784  0.3561 -0.4007 -0.1598
 2279TIP3    H128472   6.228   3.450   7.801  1.6463  1.3622  1.4426
 2279TIP3    H228473   6.287   3.340   7.715 -2.1450  0.5404 -0.2812
 2280TIP3   OH228474   0.902   4.339   0.621  0.0842 -0.1328  0.3137
 2280TIP3    H128475   0.975   4.286   0.652  0.2219 -0.3881 -0.4300
 2280TIP3    H228476   0.840   4.339   0.693  0.3477 -0.8033  0.5465
 2281TIP3   OH228477   5.620   4.465   0.726  0.2820  0.0184  0.0332
 2281TIP3    H128478   5.679   4.521   0.777 -1.5266  0.6511  1.5062
 2281TIP3    H228479   5.560   4.526   0.683 -0.5168 -0.7000  0.1092
 2282TIP3   OH228480   5.918   0.904   1.450  0.5369  0.8227  0.4980
 2282TIP3    H128481   5.915   0.961   1.373  1.5444  1.3228  0.8133
 2282TIP3    H228482   5.988   0.841   1.430  0.1936  0.3908  0.6336
 2283TIP3   OH228483   5.289   3.779   2.265  0.2655  0.1529 -0.1237
 2283TIP3    H128484   5.281   3.862   2.217 -2.3516  0.0880  0.0769
 2283TIP3    H228485   5.362   3.734   2.222 -1.3687  0.4783 -3.5646
 2284TIP3   OH228486   6.922   1.390   0.912  0.4736  0.1930 -0.1488
 2284TIP3    H128487   6.840   1.340   0.911  0.1434  0.5888  1.7650
 2284TIP3    H228488   6.905   1.465   0.855 -0.4886  0.2362  0.1767
 2285TIP3   OH228489   6.925   2.520   7.687  0.0658  0.0206 -0.0025
 2285TIP3    H128490   6.980   2.510   7.609 -0.8751  1.6902 -0.9240
 2285TIP3    H228491   6.848   2.466   7.669  0.3052 -0.3991  0.2248
 2286TIP3   OH228492   6.161   1.493   7.817  0.3533  0.2323 -0.8260
 2286TIP3    H128493   6.230   1.544   7.775  1.2036 -2.7729 -3.5062
 2286TIP3    H228494   6.208   1.437   7.879 -0.2889  1.1547  0.5300
 2287TIP3   OH228495   0.275   2.496   0.637 -0.2598 -0.4324 -0.0828
 2287TIP3    H128496   0.319   2.427   0.588 -0.8841 -1.2854  0.5247
 2287TIP3    H228497   0.182   2.473   0.633 -0.8402  1.8721 -2.2130
 2288TIP3   OH228498   4.629   3.650   1.768  0.1560  0.1695  0.2599
 2288TIP3    H128499   4.533   3.650   1.769  0.0580  0.9724 -1.9928
 2288TIP3    H228500   4.654   3.707   1.841 -1.1984  1.8382 -0.4990
 2289TIP3   OH228501   6.277   6.095   0.513 -0.4765  0.1302 -0.1821
 2289TIP3    H128502   6.297   6.175   0.562 -0.5913 -0.1163  0.2662
 2289TIP3    H228503   6.362   6.062   0.485 -0.5267  2.5013 -3.7811
 2290TIP3   OH228504   3.910   0.457   1.846  0.0310 -0.4462  0.2856
 2290TIP3    H128505   3.866   0.396   1.905  0.9246 -1.2917  0.1013
 2290TIP3    H228506   3.847   0.472   1.775 -0.8259  0.1351  1.1463
 2291TIP3   OH228507   5.981   6.851   1.428  0.4869 -0.4461 -0.3782
 2291TIP3    H128508   5.970   6.878   1.336  0.8114  1.5429  0.1087
 2291TIP3    H228509   6.069   6.882   1.451 -0.0313  0.1452  0.9189
 2292TIP3   OH228510   1.711   1.959   3.181 -0.1404  0.3400  0.5707
 2292TIP3    H128511   1.765   2.021   3.231 -1.4098  0.3920  1.9340
 2292TIP3    H228512   1.648   2.013   3.135 -0.7545  0.1246  1.1452
 2293TIP3   OH228513   6.669   5.673   7.058 -0.2885  0.0277 -0.3130
 2293TIP3    H128514   6.690   5.634   6.973 -0.8282  0.0220 -0.4486
 2293TIP3    H228515   6.684   5.603   7.121 -0.7175 -0.2346 -0.4970
 2294TIP3   OH228516   3.197   2.097   0.641 -0.7663 -0.3441  0.3662
 2294TIP3    H128517   3.218   2.007   0.617  1.3641 -0.9528  3.7960
 2294TIP3    H228518   3.277   2.146   0.625 -1.6046  0.8108 -0.5409
 2295TIP3   OH228519   0.182   3.053   6.989 -0.0479 -0.3549 -0.3151
 2295TIP3    H128520   0.126   3.069   6.914  0.5320 -0.3448 -0.7557
 2295TIP3    H228521   0.268   3.087   6.963 -0.3270  1.7712  1.1816
 2296TIP3   OH228522   5.900   6.398   1.719  0.1951 -0.5087  0.1171
 2296TIP3    H128523   5.863   6.415   1.805  2.1457 -1.1455  1.1357
 2296TIP3    H228524   5.868   6.311   1.696 -0.6168 -0.1893  0.0219
 2297TIP3   OH228525   5.341   2.002   3.787  0.5107 -0.5869 -0.3106
 2297TIP3    H128526   5.271   1.939   3.765 -0.7925  0.1045  1.6258
 2297TIP3    H228527   5.343   2.062   3.713 -2.6423  0.7542  0.5279
 2298TIP3   OH228528   1.372   4.689   7.221  0.2898  0.0206 -0.4918
 2298TIP3    H128529   1.292   4.713   7.174  1.3570 -1.3475 -3.2371
 2298TIP3    H228530   1.442   4.711   7.160  1.7441 -2.4349  0.1926
 2299TIP3   OH228531   1.375   0.110   2.046  0.3481 -0.3255 -0.1592
 2299TIP3    H128532   1.315   0.136   1.975  0.1654  1.4445  0.5945
 2299TIP3    H228533   1.320   0.105   2.124  0.3756 -3.1095 -0.2044
 2300TIP3   OH228534   4.916   0.049   1.263 -0.0587  0.1317 -0.0262
 2300TIP3    H128535   4.838   0.028   1.212  0.3346  1.5941 -1.2801
 2300TIP3    H228536   4.980  -0.017   1.236 -1.1666 -1.8900  1.9558
 2301TIP3   OH228537   5.075   3.205   2.825  0.1086  0.6415  0.1488
 2301TIP3    H128538   5.030   3.188   2.742  1.0432  1.8413 -0.6518
 2301TIP3    H228539   5.166   3.221   2.800  0.6233  0.0195  1.5366
 2302TIP3   OH228540   5.445   1.428   6.315  0.2498 -0.1900 -0.0503
 2302TIP3    H128541   5.481   1.448   6.402  0.9627 -1.6136 -0.0025
 2302TIP3    H228542   5.511   1.460   6.254  0.9300 -1.4581  0.0034
 2303TIP3   OH228543   5.072   4.364   7.338  0.0552 -0.7526  0.1873
 2303TIP3    H128544   5.096   4.349   7.246 -0.2536 -0.3504  0.0399
 2303TIP3    H228545   4.978   4.382   7.336  0.0211 -0.8745  0.6000
 2304TIP3   OH228546   6.367   0.001   1.248  0.3834 -0.1078  0.5376
 2304TIP3    H128547   6.362  -0.092   1.268 -0.5418  0.0417  1.0542
 2304TIP3    H228548   6.293   0.017   1.190  0.3699  0.3581  0.6809
 2305TIP3   OH228549   6.201   5.473   0.772 -0.2371 -0.2154 -0.0235
 2305TIP3    H128550   6.183   5.395   0.719 -2.7239 -1.9531  3.0300
 2305TIP3    H228551   6.297   5.473   0.782  0.0035 -1.6201 -1.8314
 2306TIP3   OH228552   3.922   2.304   0.995  0.3656 -0.2996 -0.5589
 2306TIP3    H128553   3.982   2.230   0.989 -2.2074 -2.6566  0.3863
 2306TIP3    H228554   3.900   2.324   0.904  2.6914  0.7953 -0.9291
 2307TIP3   OH228555   6.179   3.251   7.586 -0.6534  0.3790 -0.4896
 2307TIP3    H128556   6.166   3.156   7.585  3.4925 -0.3740 -1.2686
 2307TIP3    H228557   6.186   3.275   7.494  3.1351  0.4096 -0.3381
 2308TIP3   OH228558   0.424   6.030   2.222  0.3140 -0.0889  0.0189
 2308TIP3    H128559   0.427   6.034   2.317 -1.5607 -0.5018  0.1279
 2308TIP3    H228560   0.333   6.051   2.199  0.6499 -0.2848 -1.6654
 2309TIP3   OH228561   2.438   6.927   0.480 -0.4446 -0.4988 -0.2427
 2309TIP3    H128562   2.442   6.832   0.478  2.5150 -0.6664  2.8241
 2309TIP3    H228563   2.348   6.947   0.506 -0.4784 -2.6798  1.6580
 2310TIP3   OH228564   2.641   2.149   1.862 -0.0268  0.0822  0.2786
 2310TIP3    H128565   2.726   2.187   1.885 -0.1332  1.5387 -1.4933
 2310TIP3    H228566   2.582   2.177   1.932  1.1054 -1.8209  2.0919
 2311TIP3   OH228567   1.352   0.769   8.083  0.1422 -0.4195 -0.0325
 2311TIP3    H128568   1.357   0.792   7.990  1.9451 -1.5410 -0.2478
 2311TIP3    H228569   1.271   0.812   8.113  0.3149  1.2593 -1.7253
 2312TIP3   OH228570   2.776   5.901   0.289  0.1641 -0.0518  0.1469
 2312TIP3    H128571   2.834   5.850   0.345 -1.1363 -1.8395 -0.0665
 2312TIP3    H228572   2.704   5.926   0.345 -0.0135  0.1442 -0.1645
 2313TIP3   OH228573   3.957   2.025   3.409 -0.3124  0.6353  0.3968
 2313TIP3    H128574   4.045   1.990   3.421 -0.3816  0.7166  1.2712
 2313TIP3    H228575   3.954   2.100   3.469 -1.5138 -0.3716  1.6621
 2314TIP3   OH228576   1.935   0.897   8.163 -0.0343  0.7314  0.1338
 2314TIP3    H128577   1.965   0.835   8.097  0.9192  0.4021  0.8490
 2314TIP3    H228578   1.851   0.863   8.191 -0.4904  0.9224 -0.9547
 2315TIP3   OH228579   4.592   4.327   7.712  0.2207  0.1250 -0.2667
 2315TIP3    H128580   4.652   4.366   7.776  0.2635  0.5584 -0.5677
 2315TIP3    H228581   4.647   4.308   7.636 -0.0745  0.7855 -0.6501
 2316TIP3   OH228582   3.978   5.281   1.126 -0.5701  0.0499 -0.8796
 2316TIP3    H128583   3.937   5.294   1.041  0.4447  2.7407 -1.0352
 2316TIP3    H228584   4.072   5.285   1.109 -0.3164 -0.9527  0.1700
 2317TIP3   OH228585   0.198   6.497   7.579 -0.3466 -0.1577 -0.4581
 2317TIP3    H128586   0.240   6.580   7.559  0.4190 -0.9038 -2.0779
 2317TIP3    H228587   0.252   6.460   7.649  1.2232 -0.6921 -1.8953
 2318TIP3   OH228588   3.720   6.399   2.106 -0.2738 -0.2262  0.5088
 2318TIP3    H128589   3.632   6.396   2.143 -0.6378  1.0717 -0.1756
 2318TIP3    H228590   3.744   6.492   2.108  0.2810 -0.2951 -1.1023
 2319TIP3   OH228591   1.010   4.630   7.636 -0.4369 -0.3470  0.6168
 2319TIP3    H128592   0.937   4.692   7.628 -0.9269 -0.8809  0.8393
 2319TIP3    H228593   0.996   4.589   7.721  0.8423  0.4261  1.2219
 2320TIP3   OH228594   0.429   0.454   7.086  0.3296 -0.3101  0.0908
 2320TIP3    H128595   0.404   0.543   7.060  1.8621  0.0147 -0.3872
 2320TIP3    H228596   0.516   0.442   7.048 -0.3182 -2.4573 -0.8339
 2321TIP3   OH228597   0.616   2.757   0.193  0.1854 -0.8040 -0.0478
 2321TIP3    H128598   0.572   2.724   0.115  1.2747  0.4270 -1.2317
 2321TIP3    H228599   0.667   2.682   0.226 -2.4865 -2.1844  1.2197
 2322TIP3   OH228600   1.920   5.334   1.188 -0.3049 -0.5929  0.6042
 2322TIP3    H128601   1.953   5.396   1.253 -1.9747  1.0037  0.0130
 2322TIP3    H228602   1.867   5.387   1.130  0.3497 -2.1544 -1.5254
 2323TIP3   OH228603   3.906   1.657   1.601  0.4352 -0.0760 -0.5024
 2323TIP3    H128604   3.839   1.597   1.566  0.9718 -0.2865 -1.1903
 2323TIP3    H228605   3.940   1.612   1.679  0.3580 -0.3475 -0.6253
 2324TIP3   OH228606   1.160   1.677   1.950  0.4620 -0.1106 -0.1808
 2324TIP3    H128607   1.215   1.752   1.926 -0.5595  1.0168  0.8689
 2324TIP3    H228608   1.221   1.604   1.959  1.5830  0.7652 -0.4725
 2325TIP3   OH228609   4.951   6.758   2.812 -0.4684  0.0584  0.0513
 2325TIP3    H128610   4.965   6.810   2.733  1.4989  0.6734  0.7489
 2325TIP3    H228611   4.915   6.820   2.875 -0.6559 -0.0805  0.0804
 2326TIP3   OH228612   5.927   6.343   2.139 -0.1896  0.0296 -0.3628
 2326TIP3    H128613   5.901   6.252   2.126  0.0183  0.0407 -0.8830
 2326TIP3    H228614   6.015   6.338   2.178 -1.0471 -0.0135  1.7118
 2327TIP3   OH228615   0.181   5.312   8.066  0.2618 -0.8258 -0.1561
 2327TIP3    H128616   0.259   5.256   8.061  0.1338 -1.1309  0.9160
 2327TIP3    H228617   0.130   5.275   8.138 -0.8753 -0.6190 -0.8341
 2328TIP3   OH228618   3.234   6.629   1.336 -0.5046  0.2284  0.6096
 2328TIP3    H128619   3.307   6.566   1.343 -0.5543  0.2830  1.9103
 2328TIP3    H228620   3.158   6.575   1.314 -0.3701 -0.0471  0.8106
 2329TIP3   OH228621   1.578   1.452   1.831 -0.9511  0.0406 -0.0529
 2329TIP3    H128622   1.567   1.513   1.757  1.9068  0.3125 -0.3956
 2329TIP3    H228623   1.593   1.367   1.790  0.2839  0.1270  0.1588
 2330TIP3   OH228624   2.703   2.288   3.075  0.3323 -0.0712 -0.0149
 2330TIP3    H128625   2.721   2.207   3.028 -0.0273  0.7332 -1.5869
 2330TIP3    H228626   2.764   2.286   3.149  0.3411 -1.7438 -0.0179
 2331TIP3   OH228627   5.841   4.066   2.678 -0.0489 -0.4087  0.0249
 2331TIP3    H128628   5.749   4.040   2.676  0.7707 -3.8959  0.2955
 2331TIP3    H228629   5.868   4.051   2.769  1.2119 -1.4586 -0.4805
 2332TIP3   OH228630   3.749   6.034   0.838  0.1731 -0.5501 -0.6422
 2332TIP3    H128631   3.753   6.092   0.761  0.9141  1.0430  0.5268
 2332TIP3    H228632   3.841   6.021   0.862 -0.0427 -1.2776 -0.1979
 2333TIP3   OH228633   0.541   0.950   7.667  0.0495 -0.7239 -0.1972
 2333TIP3    H128634   0.466   0.906   7.707  1.4341 -0.5056  2.9334
 2333TIP3    H228635   0.615   0.894   7.689  1.1074  0.2223 -1.2487
 2334TIP3   OH228636   3.884   5.581   7.366  0.0548 -0.5152  0.5899
 2334TIP3    H128637   3.896   5.568   7.461  4.0319 -1.4919  0.1389
 2334TIP3    H228638   3.896   5.675   7.353 -0.5723 -0.3645  1.0584
 2335TIP3   OH228639   3.468   1.344   7.914  0.4144  0.1435  0.6352
 2335TIP3    H128640   3.438   1.253   7.914 -2.2224  0.8845  2.6184
 2335TIP3    H228641   3.502   1.358   8.002 -1.5468  1.6422  1.2449
 2336TIP3   OH228642   2.800   2.848   0.710  0.2130  0.4234 -0.3054
 2336TIP3    H128643   2.793   2.913   0.640  1.5903  2.3778  1.2589
 2336TIP3    H228644   2.710   2.837   0.741  0.0120  2.0468 -0.2294
 2337TIP3   OH228645   1.542   0.493   0.696 -0.3104 -0.4442  0.7654
 2337TIP3    H128646   1.609   0.436   0.659  1.4367  1.0549  1.4526
 2337TIP3    H228647   1.489   0.519   0.621  1.0805 -0.1327 -0.1535
 2338TIP3   OH228648   0.834   0.911   2.793  0.2225  0.1219  0.7663
 2338TIP3    H128649   0.883   0.989   2.770 -2.0369  1.2930 -0.4710
 2338TIP3    H228650   0.744   0.943   2.808 -0.4627 -2.0377  1.6522
 2339TIP3   OH228651   1.423   2.782   2.027 -0.2012  0.6538  0.7493
 2339TIP3    H128652   1.437   2.876   2.041 -0.1292  0.7647 -0.0050
 2339TIP3    H228653   1.502   2.740   2.061  0.1503  0.9376  0.2891
 2340TIP3   OH228654   3.309   3.866   0.724  0.0840  0.0011  0.4673
 2340TIP3    H128655   3.356   3.948   0.742 -1.2937  0.8511  0.3902
 2340TIP3    H228656   3.339   3.841   0.637  0.6699  0.3220  0.5685
 2341TIP3   OH228657   1.302   6.435   6.884  0.3092  0.2387  0.5726
 2341TIP3    H128658   1.260   6.519   6.864  3.2138  2.2339  2.0871
 2341TIP3    H228659   1.342   6.408   6.802 -1.1828 -0.0763 -0.0890
 2342TIP3   OH228660   1.779   3.713   1.046 -0.3339 -0.4895 -0.1406
 2342TIP3    H128661   1.703   3.752   1.002 -0.9167  0.2191  1.4219
 2342TIP3    H228662   1.788   3.626   1.006 -0.8506  0.1021 -1.6002
 2343TIP3   OH228663   2.045   2.717   1.130  0.2972 -0.0696  0.0030
 2343TIP3    H128664   2.084   2.701   1.216 -0.3171 -0.5296  0.2033
 2343TIP3    H228665   2.073   2.643   1.077  1.2337  0.5533 -0.4011
 2344TIP3   OH228666   1.712   2.043   8.062  0.0511 -0.2303  0.4475
 2344TIP3    H128667   1.677   2.017   8.148  1.6588 -0.7280  0.9767
 2344TIP3    H228668   1.766   2.120   8.080  0.4619 -0.3843 -0.1093
 2345TIP3   OH228669   5.283   0.466   0.051 -0.3316 -0.5528  0.2522
 2345TIP3    H128670   5.247   0.527   0.115 -1.1114  0.6402 -1.2517
 2345TIP3    H228671   5.211   0.449  -0.009  0.5331 -1.1397 -0.6544
 2346TIP3   OH228672   0.515   4.384   2.790  1.0361  1.0511  0.4099
 2346TIP3    H128673   0.433   4.382   2.742  0.6467 -0.1498  1.0814
 2346TIP3    H228674   0.526   4.476   2.816 -1.1017  0.9469  1.9670
 2347TIP3   OH228675   1.545   6.594   7.368  0.4471 -0.1985  0.1490
 2347TIP3    H128676   1.510   6.675   7.406  0.9970  0.9521 -1.6779
 2347TIP3    H228677   1.571   6.542   7.444 -0.1456  1.2230  1.3911
 2348TIP3   OH228678   1.206   1.542   0.728 -0.0965 -0.3784  0.0798
 2348TIP3    H128679   1.191   1.636   0.738  1.0857 -0.0861 -0.6700
 2348TIP3    H228680   1.258   1.535   0.647  0.4131 -1.6054  0.4957
 2349TIP3   OH228681   2.275   4.223   1.649 -0.3967  0.2337  1.1724
 2349TIP3    H128682   2.344   4.284   1.675  1.7008 -1.1597 -0.7608
 2349TIP3    H228683   2.281   4.150   1.710  0.2221 -0.1273  0.6866
 2350TIP3   OH228684   6.111   2.438   2.138 -0.0897 -0.2403  0.0522
 2350TIP3    H128685   6.175   2.408   2.073 -1.9295 -1.1694 -1.4065
 2350TIP3    H228686   6.117   2.374   2.209  0.7612 -0.1680  0.0617
 2351TIP3   OH228687   3.216   2.150   2.129  0.4346  0.2091 -0.0720
 2351TIP3    H128688   3.290   2.151   2.068  1.9120 -1.3010  1.5840
 2351TIP3    H228689   3.185   2.059   2.128 -2.1810  0.9945 -1.5027
 2352TIP3   OH228690   5.741   4.346   1.595  0.0321  0.2920  0.0348
 2352TIP3    H128691   5.710   4.267   1.550 -0.5728  0.2754  0.4701
 2352TIP3    H228692   5.736   4.324   1.688 -0.1325  0.8411  0.1577
 2353TIP3   OH228693   4.497   3.802   0.404 -0.0707  0.2917 -0.1880
 2353TIP3    H128694   4.421   3.807   0.346  0.8101 -1.0137 -1.5528
 2353TIP3    H228695   4.504   3.709   0.426  0.0137  0.6692  1.5287
 2354TIP3   OH228696   3.119   4.451   2.202  0.0680  0.7599  0.0665
 2354TIP3    H128697   3.083   4.466   2.290 -1.0533  0.6814 -0.3621
 2354TIP3    H228698   3.042   4.442   2.146  0.7716  0.7233 -0.9176
 2355TIP3   OH228699   0.875   5.838   1.446 -0.6944  0.1801 -0.0649
 2355TIP3    H128700   0.796   5.892   1.443 -1.8972 -1.1669  3.1104
 2355TIP3    H228701   0.843   5.749   1.432  1.0388 -0.0738 -3.5669
 2356TIP3   OH228702   3.157   5.613   2.303  0.1027  0.5151  0.3553
 2356TIP3    H128703   3.171   5.707   2.320 -0.1445  0.4252  1.1050
 2356TIP3    H228704   3.196   5.569   2.378  2.5611 -0.1698 -1.2053
 2357TIP3   OH228705   3.358   1.420   7.666 -0.1134  0.3158 -0.2819
 2357TIP3    H128706   3.420   1.364   7.712 -0.3928  1.0311  1.0241
 2357TIP3    H228707   3.303   1.458   7.736 -3.7248 -2.1799 -1.4765
 2358TIP3   OH228708   4.920   5.225   2.478 -0.5476 -0.3979 -0.2627
 2358TIP3    H128709   4.946   5.169   2.551  0.0320  0.6412  0.3489
 2358TIP3    H228710   4.945   5.175   2.400 -0.3940 -1.1548  0.2542
 2359TIP3   OH228711   2.482   4.012   1.538  0.5008 -0.1475 -0.3644
 2359TIP3    H128712   2.449   4.004   1.627 -0.5019  3.7865 -0.2147
 2359TIP3    H228713   2.561   3.958   1.536 -0.1132 -1.3050  2.4812
 2360TIP3   OH228714   3.353   1.068   1.684  0.4224 -0.5675  0.0655
 2360TIP3    H128715   3.275   1.124   1.690  0.7189 -0.2234  0.9913
 2360TIP3    H228716   3.369   1.039   1.774  1.9086  0.1459  0.0708
 2361TIP3   OH228717   4.087   2.336   0.056  0.1603 -0.0630 -0.1325
 2361TIP3    H128718   4.124   2.286  -0.017 -1.0627  0.5253 -1.1879
 2361TIP3    H228719   3.993   2.322   0.050  0.0624 -0.4615  1.7051
 2362TIP3   OH228720   6.810   0.476   2.972 -0.0407 -0.2632  0.8614
 2362TIP3    H128721   6.736   0.416   2.981  0.2219 -0.8900 -0.7997
 2362TIP3    H228722   6.855   0.447   2.893 -0.3269  2.5663 -0.4838
 2363TIP3   OH228723   6.270   5.998   7.129 -0.4753 -0.5067  0.2749
 2363TIP3    H128724   6.342   6.054   7.160 -1.3310  0.5375  0.4551
 2363TIP3    H228725   6.313   5.921   7.093  0.7564  0.2623  0.0396
 2364TIP3   OH228726   0.703   3.288   1.639  0.4809 -0.2165 -0.7371
 2364TIP3    H128727   0.634   3.352   1.658  1.8216  1.1983 -0.4206
 2364TIP3    H228728   0.679   3.212   1.692 -0.4137  0.5339 -0.0037
 2365TIP3   OH228729   5.523   1.554   0.164  0.3066 -0.4330  0.3510
 2365TIP3    H128730   5.601   1.561   0.109  0.2937  2.3406  0.5195
 2365TIP3    H228731   5.453   1.529   0.104  0.5420  1.2789 -0.7020
 2366TIP3   OH228732   2.029   5.027   1.322  0.4754 -0.0612  0.4754
 2366TIP3    H128733   2.099   5.064   1.376 -0.0283 -1.1584  1.9445
 2366TIP3    H228734   2.052   4.935   1.312  1.1079  0.3217 -2.1444
 2367TIP3   OH228735   5.704   1.655   7.991  0.0946  0.1232 -0.5135
 2367TIP3    H128736   5.691   1.745   8.022 -2.5805 -0.5417  0.5430
 2367TIP3    H228737   5.643   1.646   7.918 -1.8799 -1.5949  1.2039
 2368TIP3   OH228738   5.592   3.658   1.514  0.1000 -0.0969  0.2938
 2368TIP3    H128739   5.657   3.670   1.583  0.3431 -1.6916  0.3647
 2368TIP3    H228740   5.605   3.569   1.483 -2.9228 -0.9910  1.2280
 2369TIP3   OH228741   0.546   6.240   2.100  0.0086 -0.5521 -0.4905
 2369TIP3    H128742   0.490   6.317   2.109  0.0316 -0.4269 -1.3745
 2369TIP3    H228743   0.499   6.171   2.146  0.3209  0.1425  0.9367
 2370TIP3   OH228744   1.011   3.922   1.849  0.2767  0.2069 -0.2916
 2370TIP3    H128745   1.095   3.951   1.814  0.5651 -0.2848 -0.0247
 2370TIP3    H228746   1.005   3.964   1.934  0.1275  0.4582 -0.4272
 2371TIP3   OH228747   6.685   6.948   6.583  0.1320  0.4120 -0.5075
 2371TIP3    H128748   6.721   6.933   6.496 -1.0242  0.3033 -0.9925
 2371TIP3    H228749   6.610   7.006   6.567  0.0098  0.5251  0.4346
 2372TIP3   OH228750   6.881   0.486   0.809  0.0381 -0.1502  0.0096
 2372TIP3    H128751   6.911   0.577   0.809  1.5975 -0.5993 -1.8287
 2372TIP3    H228752   6.821   0.480   0.735 -0.7078 -0.4531  0.6207
 2373TIP3   OH228753   1.094   0.720   1.028  0.5341 -0.4622  0.7003
 2373TIP3    H128754   1.078   0.716   0.933 -2.5940 -0.7887  1.1480
 2373TIP3    H228755   1.189   0.730   1.035  0.7914  0.6805 -2.4856
 2374TIP3   OH228756   2.306   1.150   1.884 -0.2411 -0.3722  0.6219
 2374TIP3    H128757   2.387   1.200   1.893 -1.0347  1.0560 -0.0188
 2374TIP3    H228758   2.332   1.071   1.836  0.4763  0.8886 -1.1669
 2375TIP3   OH228759   4.913   2.061   6.752  0.3821 -0.2795 -0.2131
 2375TIP3    H128760   4.964   2.116   6.812  0.1145  0.0498 -0.2912
 2375TIP3    H228761   4.978   2.002   6.714  0.8949  0.7892 -1.0620
 2376TIP3   OH228762   5.459   4.776   8.330  0.2277 -0.5322  0.0515
 2376TIP3    H128763   5.502   4.834   8.393  0.3759  0.4052 -0.8879
 2376TIP3    H228764   5.395   4.728   8.382  0.7016 -0.1660  1.0132
 2377TIP3   OH228765   1.259   4.692   1.000  0.1238 -0.6515  0.4932
 2377TIP3    H128766   1.265   4.783   1.030 -0.0765 -0.7260  0.7636
 2377TIP3    H228767   1.320   4.687   0.927  0.5265 -0.4333  0.8117
 2378TIP3   OH228768   3.377   1.901   8.103  0.4784 -0.0209 -0.4209
 2378TIP3    H128769   3.415   1.895   8.016  0.4679  0.9981 -0.5186
 2378TIP3    H228770   3.443   1.946   8.156  0.3249 -0.2686 -0.0090
 2379TIP3   OH228771   5.891   2.452   2.419  0.2528  0.1832 -0.2954
 2379TIP3    H128772   5.933   2.477   2.337 -2.0815  0.6862 -1.4211
 2379TIP3    H228773   5.904   2.528   2.476  1.3424  0.0886 -0.3981
 2380TIP3   OH228774   5.488   4.177   8.431 -0.0283  0.5571  0.2815
 2380TIP3    H128775   5.543   4.226   8.370  0.1061  1.6662  1.2484
 2380TIP3    H228776   5.499   4.085   8.406 -1.6367  1.0735 -2.7196
 2381TIP3   OH228777   5.478   0.588   1.562 -0.0748 -0.0265 -0.9851
 2381TIP3    H128778   5.433   0.550   1.487  1.1860 -0.1605 -1.7027
 2381TIP3    H228779   5.541   0.649   1.525 -0.2828  0.8530  0.0387
 2382TIP3   OH228780   3.409   6.685   7.385  0.0233  0.4930 -0.3247
 2382TIP3    H128781   3.454   6.684   7.300 -0.0017 -0.8064 -0.3460
 2382TIP3    H228782   3.438   6.766   7.427  2.3670 -0.2343 -0.3789
 2383TIP3   OH228783   3.824   0.704   2.640  0.0266  0.0736 -0.4632
 2383TIP3    H128784   3.899   0.655   2.674 -1.1232 -0.3059  1.7325
 2383TIP3    H228785   3.805   0.769   2.708 -0.4910  1.4391 -1.8478
 2384TIP3   OH228786   4.899   2.224   7.106 -0.0696 -1.0007 -0.3626
 2384TIP3    H128787   4.962   2.208   7.035 -0.1149 -0.6905 -0.4729
 2384TIP3    H228788   4.952   2.221   7.186  0.0390 -1.0144 -0.4352
 2385TIP3   OH228789   5.562   3.471   2.213  0.3026 -0.3282 -0.2147
 2385TIP3    H128790   5.620   3.395   2.214 -0.8317 -1.2085  0.2730
 2385TIP3    H228791   5.568   3.506   2.303  1.5459  0.7559 -0.6831
 2386TIP3   OH228792   5.043   6.597   8.402 -0.5402  0.3598 -0.1001
 2386TIP3    H128793   5.130   6.557   8.399  0.4256  2.3645 -0.6680
 2386TIP3    H228794   5.048   6.671   8.341 -1.9688  1.8016  1.4131
 2387TIP3   OH228795   0.940   5.293   0.649  0.5439  0.0609 -0.0717
 2387TIP3    H128796   0.864   5.350   0.634  1.9190  2.4536  1.3728
 2387TIP3    H228797   0.907   5.205   0.633 -2.9705  0.8041  1.9616
 2388TIP3   OH228798   5.473   4.532   7.395 -0.3849  0.3980 -0.1807
 2388TIP3    H128799   5.484   4.625   7.375  0.8844  0.5282  0.9257
 2388TIP3    H228800   5.475   4.528   7.491  0.5217 -0.8443 -0.2210
 2389TIP3   OH228801   5.853   0.773   0.385 -0.2602 -0.1321  0.2013
 2389TIP3    H128802   5.824   0.685   0.408  0.0192 -0.8420 -1.9261
 2389TIP3    H228803   5.941   0.760   0.348 -0.9634  0.7389 -1.9156
 2390TIP3   OH228804   2.555   3.440   0.109 -0.1864  0.3329  0.3286
 2390TIP3    H128805   2.612   3.363   0.113 -0.8311 -0.1496  0.4691
 2390TIP3    H228806   2.563   3.480   0.196 -0.8158 -0.3004  0.6933
 2391TIP3   OH228807   2.895   4.471   1.055 -0.3516 -0.0917  0.8135
 2391TIP3    H128808   2.960   4.453   1.122 -0.3269 -0.0308  0.8060
 2391TIP3    H228809   2.874   4.386   1.018 -2.4809 -0.5321  2.8236
 2392TIP3   OH228810   1.943   1.158   0.347 -0.1089  0.0626  0.0522
 2392TIP3    H128811   1.870   1.174   0.407  0.9388  2.9386  0.7313
 2392TIP3    H228812   2.018   1.143   0.404  0.2953 -0.5443 -0.6202
 2393TIP3   OH228813   3.572   2.636   7.301  0.4617  0.0717 -0.2914
 2393TIP3    H128814   3.526   2.605   7.379  1.2183 -0.0278  0.1249
 2393TIP3    H228815   3.503   2.646   7.235 -0.0752 -0.5980  0.1506
 2394TIP3   OH228816   6.942   3.338   8.342  0.3779  0.1105  0.2263
 2394TIP3    H128817   6.940   3.384   8.258  1.3181 -1.0884 -0.4847
 2394TIP3    H228818   7.023   3.367   8.383  0.1400  0.3510  0.5309
 2395TIP3   OH228819   3.622   2.524   3.275 -0.5437  0.4951  0.0337
 2395TIP3    H128820   3.693   2.536   3.212  0.0290  1.7730  0.8596
 2395TIP3    H228821   3.656   2.563   3.356 -0.3155 -3.0671  1.8756
 2396TIP3   OH228822   1.264   0.766   1.883 -0.0982 -0.0484 -0.0641
 2396TIP3    H128823   1.169   0.756   1.886 -0.0267 -0.3443  1.9280
 2396TIP3    H228824   1.295   0.686   1.841 -0.6621 -0.4138  0.1994
 2397TIP3   OH228825   1.621   5.172   0.313  0.4718  0.2815 -0.1844
 2397TIP3    H128826   1.626   5.160   0.408 -0.1448  0.2600 -0.1499
 2397TIP3    H228827   1.555   5.241   0.301 -0.7085 -0.9026 -0.6684
 2398TIP3   OH228828   3.860   2.537   0.544  0.2163 -0.6710 -0.0147
 2398TIP3    H128829   3.898   2.622   0.566  0.7053 -0.5800 -1.1681
 2398TIP3    H228830   3.904   2.511   0.463 -2.0973 -0.6257 -1.3462
 2399TIP3   OH228831   1.625   3.897   1.594  0.5726  0.0441 -0.4464
 2399TIP3    H128832   1.589   3.842   1.664  2.9342 -0.4276  0.5197
 2399TIP3    H228833   1.615   3.986   1.626  0.2199 -0.0698 -0.2348
 2400TIP3   OH228834   2.462   0.509   7.564  0.1773 -0.2177  0.0987
 2400TIP3    H128835   2.470   0.436   7.503 -0.4667  1.4778 -2.1514
 2400TIP3    H228836   2.410   0.574   7.517 -0.0156  1.3735  2.3379
 2401TIP3   OH228837   1.747   2.787   1.171 -0.3138  0.1546 -0.3843
 2401TIP3    H128838   1.742   2.856   1.105 -0.5001 -0.6646 -1.2655
 2401TIP3    H228839   1.817   2.814   1.230  0.0710  0.7668 -1.1091
 2402TIP3   OH228840   6.783   3.344   8.017 -0.2483 -0.2315 -0.6528
 2402TIP3    H128841   6.783   3.437   7.993  0.2348 -0.4334 -1.4845
 2402TIP3    H228842   6.706   3.309   7.973 -0.0407 -0.3621 -0.9130
 2403TIP3   OH228843   3.358   2.728   1.041 -0.3719 -0.1249 -0.0150
 2403TIP3    H128844   3.450   2.745   1.063  0.3991 -1.6155 -1.8019
 2403TIP3    H228845   3.340   2.787   0.968 -1.5225  1.5784  1.5380
 2404TIP3   OH228846   1.239   4.091   2.153  0.1734 -0.0109  0.5152
 2404TIP3    H128847   1.194   4.144   2.087  0.0205 -0.8168 -0.0527
 2404TIP3    H228848   1.332   4.101   2.133  0.1904  0.6935  0.9300
 2405TIP3   OH228849   6.979   1.994   1.067  0.1297  0.0518 -0.0871
 2405TIP3    H128850   7.039   2.027   1.000  1.1360 -0.8909  0.3134
 2405TIP3    H228851   7.013   1.907   1.089 -1.1407 -0.3216  0.4730
 2406TIP3   OH228852   3.807   3.018   1.765  0.1009 -0.3354 -0.1290
 2406TIP3    H128853   3.901   2.999   1.757 -0.2434 -3.5088  1.6977
 2406TIP3    H228854   3.803   3.112   1.781  2.8527  0.0902 -1.3216
 2407TIP3   OH228855   1.451   3.000   7.747 -0.3165 -0.4092  0.3143
 2407TIP3    H128856   1.459   2.910   7.714  1.1138 -0.6631  1.2662
 2407TIP3    H228857   1.377   3.036   7.700 -1.1517 -2.2130  0.1710
 2408TIP3   OH228858   2.625   2.996   6.618 -0.6836 -0.0065  0.3387
 2408TIP3    H128859   2.594   2.930   6.556  0.0172  0.5508 -0.6359
 2408TIP3    H228860   2.613   2.956   6.704 -0.2352 -1.4208 -0.2372
 2409TIP3   OH228861   6.632   5.300   1.613 -0.1622 -0.1293 -0.2245
 2409TIP3    H128862   6.684   5.303   1.533  0.1670  0.3128  0.0081
 2409TIP3    H228863   6.570   5.372   1.604 -0.5965 -0.5139 -0.3969
 2410TIP3   OH228864   5.539   3.737   0.797 -0.2384  0.6640  0.4195
 2410TIP3    H128865   5.465   3.797   0.796 -2.0692 -1.4716 -0.7932
 2410TIP3    H228866   5.614   3.792   0.776 -1.6477  2.6830  0.3387
 2411TIP3   OH228867   5.088   1.453   7.591 -0.3670 -0.3662 -0.1409
 2411TIP3    H128868   5.024   1.457   7.520  0.0879 -2.0660 -0.6920
 2411TIP3    H228869   5.116   1.362   7.593  1.4071  0.1577  0.6485
 2412TIP3   OH228870   1.409   5.111   7.359 -0.3797 -0.2219 -0.1411
 2412TIP3    H128871   1.503   5.120   7.344 -0.1379 -1.8320  0.2315
 2412TIP3    H228872   1.371   5.113   7.271 -0.2359  2.2748 -0.2197
 2413TIP3   OH228873   4.487   1.137   8.139  0.1640 -0.2883  0.0145
 2413TIP3    H128874   4.419   1.072   8.155 -0.4857  0.2795 -0.3976
 2413TIP3    H228875   4.442   1.221   8.147  0.6049  0.0780 -1.2243
 2414TIP3   OH228876   4.893   5.883   7.684 -0.3120 -0.1989 -0.2222
 2414TIP3    H128877   4.935   5.968   7.696 -2.5089  0.7035  1.8847
 2414TIP3    H228878   4.800   5.903   7.680 -0.8226 -2.4527 -0.7392
 2415TIP3   OH228879   4.924   6.075   1.007  0.4837 -0.7504 -0.5646
 2415TIP3    H128880   4.955   6.100   0.920  1.2610  0.7580  0.0978
 2415TIP3    H228881   4.828   6.075   0.999  0.5198  0.2629 -1.2196
 2416TIP3   OH228882   4.569   6.716   1.915  0.0656  0.7249  0.1089
 2416TIP3    H128883   4.498   6.771   1.947  0.1879  2.2004 -1.9385
 2416TIP3    H228884   4.609   6.679   1.993 -0.1616  3.4062  1.5905
 2417TIP3   OH228885   1.629   6.473   2.136 -0.5000 -0.0990  0.1906
 2417TIP3    H128886   1.566   6.403   2.153 -0.6828  0.6088  2.7800
 2417TIP3    H228887   1.594   6.518   2.058 -1.6953 -1.3856 -0.0579
 2418TIP3   OH228888   2.743   6.391   0.100 -0.0580  0.0369 -0.0888
 2418TIP3    H128889   2.682   6.319   0.113 -1.4310  1.2193  0.3878
 2418TIP3    H228890   2.691   6.470   0.119  1.4213  1.1407 -0.4102
 2419TIP3   OH228891   2.287   1.772   1.845  0.4513  0.0347 -0.4548
 2419TIP3    H128892   2.228   1.847   1.857 -1.3149 -1.5403  1.6553
 2419TIP3    H228893   2.294   1.762   1.750  1.9376  3.6429 -0.9003
 2420TIP3   OH228894   4.400   1.985   8.018 -0.1816  0.3749  0.4731
 2420TIP3    H128895   4.417   1.900   7.978 -0.6523  0.0616  0.9386
 2420TIP3    H228896   4.483   2.010   8.059  0.0132  0.2429  0.1682
 2421TIP3   OH228897   3.218   4.685   1.124  0.8573  0.5501  0.1652
 2421TIP3    H128898   3.226   4.657   1.216  2.6525  0.2408 -0.0334
 2421TIP3    H228899   3.299   4.733   1.107  0.6417  0.4419 -1.3182
 2422TIP3   OH228900   2.151   4.701   7.758 -0.5535  0.1787  0.3210
 2422TIP3    H128901   2.061   4.689   7.728 -0.7934 -0.0465  1.0843
 2422TIP3    H228902   2.172   4.792   7.737  0.3022 -0.6721 -3.0365
 2423TIP3   OH228903   3.512   6.236   7.013  0.5576  0.3981  0.1141
 2423TIP3    H128904   3.544   6.201   6.930  0.6115 -2.0292  1.0891
 2423TIP3    H228905   3.484   6.159   7.062  0.4415  1.7801  2.3329
 2424TIP3   OH228906   2.764   2.518   2.922 -0.4755 -0.3958  0.3099
 2424TIP3    H128907   2.762   2.431   2.962 -0.5903 -1.6343 -2.1942
 2424TIP3    H228908   2.843   2.559   2.958  1.0620 -2.5658 -0.4129
 2425TIP3   OH228909   0.428   5.390   0.737 -0.0608 -0.2879 -0.2147
 2425TIP3    H128910   0.500   5.446   0.763  0.1277 -1.1810  1.2960
 2425TIP3    H228911   0.466   5.332   0.670  0.3236 -0.0353 -0.2184
 2426TIP3   OH228912   2.383   4.427   0.677 -0.0124 -0.1449  0.4578
 2426TIP3    H128913   2.330   4.353   0.646 -0.6026 -0.1755  1.4801
 2426TIP3    H228914   2.473   4.398   0.669 -0.2300 -0.8741  0.5735
 2427TIP3   OH228915   1.329   2.992   7.181  0.0759 -0.0777 -0.4079
 2427TIP3    H128916   1.305   3.064   7.122  1.2813  0.0382 -0.7863
 2427TIP3    H228917   1.420   2.972   7.158  0.8068  0.4069  1.8311
 2428TIP3   OH228918   0.453   2.172   7.756 -0.3773  0.7853  0.3335
 2428TIP3    H128919   0.455   2.196   7.848  0.7231  2.1956 -0.0020
 2428TIP3    H228920   0.540   2.134   7.739 -0.3424  1.0987 -0.2365
 2429TIP3   OH228921   6.107   3.578   7.868  0.6034  0.0190  1.0364
 2429TIP3    H128922   6.119   3.562   7.962  0.2478 -1.0695  0.9081
 2429TIP3    H228923   6.057   3.660   7.865  1.8743  0.8532  1.7412
 2430TIP3   OH228924   0.431   3.665   7.600  0.1022 -0.8238  0.1655
 2430TIP3    H128925   0.375   3.739   7.578 -0.1634 -1.5790 -1.9483
 2430TIP3    H228926   0.516   3.704   7.621 -0.4954  0.1645  0.8382
 2431TIP3   OH228927   1.134   5.152   1.542  0.0459 -0.2145 -0.2981
 2431TIP3    H128928   1.169   5.171   1.455  2.5947  2.3822  1.1080
 2431TIP3    H228929   1.152   5.059   1.556  2.0769 -0.0614 -1.5665
 2432TIP3   OH228930   1.884   0.058   1.671 -0.0458  0.5606 -0.0215
 2432TIP3    H128931   1.842   0.014   1.597 -0.6843  1.0432  0.0420
 2432TIP3    H228932   1.818   0.120   1.703 -0.2640 -0.4812  1.7206
 2433TIP3   OH228933   4.310   3.664   7.211  0.1065  0.6021 -0.5980
 2433TIP3    H128934   4.238   3.715   7.173  0.2873 -0.0905 -1.9400
 2433TIP3    H228935   4.327   3.705   7.296 -0.6856  1.8818 -1.0319
 2434TIP3   OH228936   4.040   4.041   1.856 -0.4102 -0.2108 -0.2502
 2434TIP3    H128937   4.022   4.071   1.945  2.0952  0.7225 -0.0032
 2434TIP3    H228938   4.129   4.008   1.858 -1.5685 -3.9219 -1.5512
 2435TIP3   OH228939   4.815   3.457   0.673  0.1852 -0.3208  0.0298
 2435TIP3    H128940   4.892   3.501   0.637  0.2136  0.8341  1.4289
 2435TIP3    H228941   4.845   3.368   0.691  1.3603  0.2396  0.9780
 2436TIP3   OH228942   4.131   1.177   0.032  0.2435  1.0125  0.5681
 2436TIP3    H128943   4.079   1.204  -0.044 -2.2426  0.7318  2.0266
 2436TIP3    H228944   4.182   1.103   0.002 -0.7595  0.8473 -0.8267
 2437TIP3   OH228945   4.511   6.101   8.360 -0.3338 -0.8313  0.2812
 2437TIP3    H128946   4.491   6.175   8.416 -1.5110 -1.7194  1.0753
 2437TIP3    H228947   4.606   6.106   8.347 -0.3763  0.7484  0.3649
 2438TIP3   OH228948   6.486   5.017   7.877  0.4575 -0.0441 -0.4733
 2438TIP3    H128949   6.509   4.980   7.792 -0.4302 -1.9257  0.0326
 2438TIP3    H228950   6.463   5.108   7.858  1.6292 -0.0173 -1.9937
 2439TIP3   OH228951   0.785   2.410   0.985  0.5480 -0.4172  0.5918
 2439TIP3    H128952   0.695   2.431   0.961  0.8374 -0.3435 -0.4619
 2439TIP3    H228953   0.788   2.314   0.985  0.9271 -0.4526 -1.2847
 2440TIP3   OH228954   0.438   6.479   2.131  0.1008  0.0403 -0.6445
 2440TIP3    H128955   0.434   6.574   2.141  0.6893 -0.0826  1.0793
 2440TIP3    H228956   0.361   6.447   2.178  2.5174 -0.5296  3.3905
 2441TIP3   OH228957   6.356   1.578   8.118  0.1630 -0.0081  0.2315
 2441TIP3    H128958   6.318   1.652   8.165  0.3945 -0.2937  0.8762
 2441TIP3    H228959   6.290   1.509   8.124  0.9358 -0.6639  1.7631
 2442TIP3   OH228960   0.022   0.913   1.310  0.5716 -0.1285 -0.5964
 2442TIP3    H128961   0.101   0.874   1.348  0.9371  2.2670  1.3311
 2442TIP3    H228962  -0.050   0.860   1.343  1.1354 -0.0145  0.8766
 2443TIP3   OH228963   5.537   0.018   2.753 -0.5963  0.3450  0.1813
 2443TIP3    H128964   5.555   0.101   2.708  0.6871 -1.2643 -2.4743
 2443TIP3    H228965   5.469  -0.023   2.701  0.6260 -1.3979 -0.1147
 2444TIP3   OH228966   0.545   2.640   1.992 -0.0438 -0.0101 -0.0643
 2444TIP3    H128967   0.575   2.608   2.077  1.2784  0.2440 -0.4085
 2444TIP3    H228968   0.626   2.666   1.947 -0.7638  0.2485 -1.2335
 2445TIP3   OH228969   5.757   2.229   0.814 -0.0922 -0.1272 -0.4152
 2445TIP3    H128970   5.754   2.322   0.838 -1.3449 -0.1430 -0.4548
 2445TIP3    H228971   5.821   2.191   0.874 -0.9706  0.4054  0.9311
 2446TIP3   OH228972   5.905   6.539   0.332 -0.2210 -0.1843 -0.4763
 2446TIP3    H128973   5.824   6.504   0.369 -1.0592  1.3641 -0.7514
 2446TIP3    H228974   5.963   6.549   0.407 -0.4608 -0.8534 -0.1963
 2447TIP3   OH228975   4.646   2.655   1.210  0.6076 -0.5047  0.1008
 2447TIP3    H128976   4.595   2.735   1.210 -2.3160 -2.2156 -1.8626
 2447TIP3    H228977   4.696   2.659   1.292 -0.6722  2.4823  0.8606
 2448TIP3   OH228978   6.443   5.511   2.557  0.0591 -0.1454 -0.1871
 2448TIP3    H128979   6.479   5.576   2.616  0.1002  0.8833 -1.3044
 2448TIP3    H228980   6.519   5.466   2.520  0.1865  1.1833 -1.6110
 2449TIP3   OH228981   2.987   1.980   2.497 -0.2935 -0.2248  0.2383
 2449TIP3    H128982   2.893   1.994   2.512  0.2030  4.5758  0.4610
 2449TIP3    H228983   3.027   2.002   2.581  1.1533 -2.7030  0.3005
 2450TIP3   OH228984   1.377   5.976   0.328 -0.1835 -0.4540 -0.1148
 2450TIP3    H128985   1.390   6.070   0.335 -0.7068 -0.4259  0.6469
 2450TIP3    H228986   1.344   5.950   0.414 -1.9864 -1.0077 -0.9155
 2451TIP3   OH228987   3.113   1.460   7.814  0.1627  0.0238 -0.1327
 2451TIP3    H128988   3.140   1.444   7.904 -0.3537 -0.7911 -0.1141
 2451TIP3    H228989   3.084   1.551   7.813  0.2155  0.0498  0.5087
 2452TIP3   OH228990   0.154   6.440   1.143 -0.3948 -0.0646 -0.3755
 2452TIP3    H128991   0.078   6.418   1.196 -0.8170  1.0944 -0.4669
 2452TIP3    H228992   0.127   6.419   1.053 -1.0302  1.3430 -0.5387
 2453TIP3   OH228993   1.288   4.145   7.522 -0.3905 -0.1604  0.6807
 2453TIP3    H128994   1.232   4.219   7.545 -0.7153  0.4142 -1.6603
 2453TIP3    H228995   1.360   4.185   7.472 -0.7658 -1.4159 -0.9492
 2454TIP3   OH228996   1.036   0.351   0.952 -0.1425  0.3859  0.3096
 2454TIP3    H128997   1.100   0.415   0.922  0.1440  0.5983  1.3569
 2454TIP3    H228998   1.070   0.267   0.921  0.0269  0.6145 -0.1439
 2455TIP3   OH228999   4.849   1.054   1.084 -0.2084 -0.0513 -0.0721
 2455TIP3    H129000   4.895   0.992   1.140  0.9078 -0.2974 -1.2231
 2455TIP3    H229001   4.774   1.005   1.051  0.0692 -0.4438 -0.1230
 2456TIP3   OH229002   3.720   0.960   2.115 -0.1979  0.4731  0.1186
 2456TIP3    H129003   3.689   0.927   2.199 -1.2953  0.1869 -0.3871
 2456TIP3    H229004   3.721   0.884   2.057 -2.5861  1.1907 -1.0067
 2457TIP3   OH229005   5.425   6.542   1.768 -0.2784  0.2218  0.1427
 2457TIP3    H129006   5.402   6.634   1.754 -0.1377  0.3669  0.8514
 2457TIP3    H229007   5.425   6.504   1.680  1.0503  1.2228 -0.3142
 2458TIP3   OH229008   3.546   1.172   0.236  0.5158 -0.8149  0.1726
 2458TIP3    H129009   3.562   1.081   0.212 -0.0739 -1.0698  0.7023
 2458TIP3    H229010   3.451   1.183   0.225 -0.0784 -1.3799  3.6150
 2459TIP3   OH229011   1.360   0.826   2.874  0.1856  0.1254  0.4768
 2459TIP3    H129012   1.447   0.799   2.847  0.3700  2.5121 -1.8229
 2459TIP3    H229013   1.365   0.834   2.969  1.9073 -1.4932  0.5685
 2460TIP3   OH229014   2.140   4.787   1.340  0.1632  0.2530  0.0223
 2460TIP3    H129015   2.151   4.717   1.405 -0.1758  0.7997  0.6879
 2460TIP3    H229016   2.143   4.742   1.256  1.5278 -0.3718  0.3687
 2461TIP3   OH229017   6.436   1.339   1.312 -0.1732 -0.3799  0.1867
 2461TIP3    H129018   6.464   1.407   1.250  2.7798 -0.1453  1.5697
 2461TIP3    H229019   6.496   1.266   1.295 -1.4269 -1.5637  0.6646
 2462TIP3   OH229020   3.339   5.543   0.058  0.5302  0.5390  0.0697
 2462TIP3    H129021   3.342   5.628   0.015  2.0238  0.5458  0.1409
 2462TIP3    H229022   3.257   5.504   0.029  0.2590  1.6339 -0.6759
 2463TIP3   OH229023   4.020   3.624   0.051 -0.2604 -0.5619  0.3282
 2463TIP3    H129024   4.004   3.717   0.064 -1.5862 -0.2396 -2.7852
 2463TIP3    H229025   4.115   3.618   0.039 -0.1820  0.4310  0.3797
 2464TIP3   OH229026   6.120   2.985   7.643  0.2397  0.2653 -0.4766
 2464TIP3    H129027   6.090   2.960   7.730  1.4899  1.7498  0.4453
 2464TIP3    H229028   6.108   2.907   7.590 -2.8949  0.0492  0.3683
 2465TIP3   OH229029   3.531   3.321   2.251  0.1490  0.6091 -0.5677
 2465TIP3    H129030   3.513   3.282   2.166 -0.0877 -1.1774  0.2393
 2465TIP3    H229031   3.617   3.287   2.276  0.2823  1.2234 -0.1465
 2466TIP3   OH229032   4.782   2.811   6.829 -0.8863  0.4648 -0.1747
 2466TIP3    H129033   4.782   2.764   6.745 -0.7633 -0.4563  0.3316
 2466TIP3    H229034   4.692   2.843   6.839 -0.5740  1.7913 -1.3071
 2467TIP3   OH229035   1.634   5.610   2.169  0.7153 -0.4112 -0.2116
 2467TIP3    H129036   1.643   5.571   2.255  0.7930  0.6436  0.2714
 2467TIP3    H229037   1.723   5.633   2.142  0.5308  0.9145  0.2334
 2468TIP3   OH229038   4.332   3.195   0.418  0.0815  0.3707  0.4563
 2468TIP3    H129039   4.335   3.261   0.487 -0.5434 -2.1551  3.0798
 2468TIP3    H229040   4.401   3.221   0.357  2.7642  1.1714  3.5470
 2469TIP3   OH229041   5.992   2.716   2.536  0.1675 -0.1670 -0.0888
 2469TIP3    H129042   6.079   2.738   2.502  0.7366 -1.8707  0.1463
 2469TIP3    H229043   5.932   2.768   2.483  1.3471  1.5083  0.1522
 2470TIP3   OH229044   1.153   4.266   0.712  0.2791 -0.6175 -0.3587
 2470TIP3    H129045   1.140   4.344   0.766 -0.1184 -0.8716 -0.0741
 2470TIP3    H229046   1.234   4.282   0.664  0.5431 -0.3040  0.1832
 2471TIP3   OH229047   6.027   5.642   1.774 -0.1454  0.1360 -0.0737
 2471TIP3    H129048   6.122   5.635   1.786  0.3213  0.8811 -2.7064
 2471TIP3    H229049   6.007   5.733   1.796  0.0318  0.4086 -1.0162
 2472TIP3   OH229050   4.909   2.842   8.233  0.1955 -0.5208 -0.6978
 2472TIP3    H129051   4.962   2.782   8.180 -0.6814 -2.4464  0.5275
 2472TIP3    H229052   4.973   2.888   8.288  0.7252 -2.1631  0.1262
 2473TIP3   OH229053   2.183   5.600   1.233  0.0395 -0.0818  0.2606
 2473TIP3    H129054   2.170   5.512   1.199 -0.0156 -0.6551  1.6734
 2473TIP3    H229055   2.160   5.658   1.160 -0.5756 -1.2210 -0.4848
 2474TIP3   OH229056   0.676   2.242   0.689 -0.1373 -0.1652  0.2416
 2474TIP3    H129057   0.725   2.321   0.668  1.2213 -0.5347  1.7841
 2474TIP3    H229058   0.682   2.189   0.610  0.0735  0.7161 -0.3450
 2475TIP3   OH229059   1.314   5.122   1.303  0.1607  0.0397 -0.3969
 2475TIP3    H129060   1.339   5.077   1.222 -1.8965 -0.5553 -0.7690
 2475TIP3    H229061   1.371   5.198   1.307  0.6384 -0.1756 -2.1528
 2476TIP3   OH229062   0.606   1.421   1.348 -0.1816  0.1746  0.4380
 2476TIP3    H129063   0.552   1.354   1.306  0.4224 -0.8700  1.2667
 2476TIP3    H229064   0.692   1.412   1.306  0.1998 -0.3289  1.2914
 2477TIP3   OH229065   3.971   3.421   7.900 -0.2816 -0.1320 -0.1316
 2477TIP3    H129066   3.903   3.381   7.956 -0.4841  0.8240  0.3296
 2477TIP3    H229067   3.943   3.512   7.891  1.5243  0.5847  1.0015
 2478TIP3   OH229068   5.018   2.299   2.619 -0.3813  0.3478  0.0181
 2478TIP3    H129069   5.059   2.233   2.675  0.6679  0.4651 -0.5957
 2478TIP3    H229070   5.020   2.260   2.531  1.9898  1.9345 -0.7108
 2479TIP3   OH229071   4.615   3.283   1.063 -0.1416 -0.2470  0.4244
 2479TIP3    H129072   4.535   3.313   1.019  0.8026  0.4033 -0.9440
 2479TIP3    H229073   4.621   3.190   1.042  0.1253 -0.0126 -0.5565
 2480TIP3   OH229074   6.865   1.017   8.181  0.3154 -0.2794  0.7107
 2480TIP3    H129075   6.806   1.064   8.240 -1.9739 -1.8094 -0.2475
 2480TIP3    H229076   6.864   0.927   8.212  0.5574 -0.7359 -0.5508
 2481TIP3   OH229077   1.524   3.722   8.136  0.2114  0.4418  0.5740
 2481TIP3    H129078   1.484   3.693   8.054 -1.7358 -1.2860  2.0512
 2481TIP3    H229079   1.607   3.674   8.140  0.8748  1.3894 -0.8490
 2482TIP3   OH229080   6.841   0.882   1.958  0.5658 -0.2886  0.3374
 2482TIP3    H129081   6.797   0.927   1.886 -0.3503 -1.1994  0.2972
 2482TIP3    H229082   6.808   0.792   1.953  1.1496 -0.5713  1.3644
 2483TIP3   OH229083   5.810   3.117   0.051  0.1251 -0.4036 -0.1061
 2483TIP3    H129084   5.806   3.050   0.119 -1.4519 -1.4027 -1.1230
 2483TIP3    H229085   5.764   3.192   0.089 -0.8708 -1.0052 -0.0899
 2484TIP3   OH229086   4.681   6.146   7.341  0.3679  0.6485  0.2419
 2484TIP3    H129087   4.633   6.071   7.376 -0.5941  0.8171 -0.6722
 2484TIP3    H229088   4.646   6.221   7.389  2.0200  0.4705  1.8680
 2485TIP3   OH229089   2.393   3.279   0.402  0.0377 -0.5348  0.0123
 2485TIP3    H129090   2.368   3.283   0.310  0.4836  0.3975 -0.0788
 2485TIP3    H229091   2.469   3.336   0.409 -0.0295 -0.5419  0.9707
 2486TIP3   OH229092   5.322   1.887   2.104 -0.2205 -0.4514  0.1473
 2486TIP3    H129093   5.279   1.892   2.018  1.5649 -1.5726 -0.8743
 2486TIP3    H229094   5.299   1.801   2.138  2.2426 -1.6805 -1.0659
 2487TIP3   OH229095   2.682   4.749   1.027  0.3896 -0.2519  0.3308
 2487TIP3    H129096   2.713   4.703   1.105 -0.7846  0.5394  1.3015
 2487TIP3    H229097   2.589   4.727   1.022 -0.0666  1.5257  0.4924
 2488TIP3   OH229098   1.081   0.261   8.429 -0.3959 -0.6344 -0.1077
 2488TIP3    H129099   1.144   0.288   8.495  0.8668  0.3931 -1.6500
 2488TIP3    H229100   1.081   0.166   8.433 -1.4503 -0.6133  2.2977
 2489TIP3   OH229101   2.247   2.681   8.093 -0.7190  0.5220  0.1109
 2489TIP3    H129102   2.294   2.623   8.154 -2.0100 -0.6083  0.0917
 2489TIP3    H229103   2.316   2.729   8.048  0.3565 -0.1019  1.0183
 2490TIP3   OH229104   2.132   4.950   7.648  0.1627 -0.1194  0.2362
 2490TIP3    H129105   2.185   5.029   7.655  0.1915 -0.2090  1.3619
 2490TIP3    H229106   2.058   4.975   7.593  0.1164  0.7298  0.6680
 2491TIP3   OH229107   4.362   1.000   6.921  0.2175 -0.6013 -0.2534
 2491TIP3    H129108   4.436   1.048   6.883  1.3694 -0.4301  2.0423
 2491TIP3    H229109   4.288   1.060   6.913  0.5445 -0.3307 -1.5603
 2492TIP3   OH229110   4.183   2.869   2.397  0.3721  0.7798  0.1554
 2492TIP3    H129111   4.133   2.866   2.479  1.2496 -0.9499  0.6704
 2492TIP3    H229112   4.221   2.781   2.389 -0.0396  0.7709 -2.3462
 2493TIP3   OH229113   0.811   2.060   2.094 -0.5028  0.4852 -0.0385
 2493TIP3    H129114   0.747   1.989   2.096 -0.9586  0.8462 -1.0762
 2493TIP3    H229115   0.810   2.096   2.182 -1.8581  0.5865 -0.0797
 2494TIP3   OH229116   6.222   3.712   1.064  0.0152 -0.0092  0.3217
 2494TIP3    H129117   6.314   3.699   1.044 -0.5226 -0.3682 -2.3715
 2494TIP3    H229118   6.206   3.805   1.045 -0.0648  0.2024  1.3771
 2495TIP3   OH229119   2.488   4.256   6.629 -0.2832  0.1374 -0.7300
 2495TIP3    H129120   2.498   4.163   6.654  0.7560  0.6360  0.9235
 2495TIP3    H229121   2.394   4.269   6.621 -0.5974 -0.5650  1.2703
 2496TIP3   OH229122   0.512   2.518   0.968 -0.1515  0.0308  0.3055
 2496TIP3    H129123   0.447   2.448   0.965  1.0853 -1.1126 -1.7626
 2496TIP3    H229124   0.477   2.586   0.911  0.4249 -0.6023 -0.8419
 2497TIP3   OH229125   1.098   5.920   2.197  0.6150 -0.1543  0.2907
 2497TIP3    H129126   1.137   5.966   2.123 -1.9531 -1.8497 -2.3300
 2497TIP3    H229127   1.140   5.834   2.196 -0.8488 -0.9065 -0.6111
 2498TIP3   OH229128   2.540   2.622   2.824  0.0415 -0.1792 -0.0820
 2498TIP3    H129129   2.476   2.603   2.892 -0.7957 -2.3569 -1.3840
 2498TIP3    H229130   2.620   2.578   2.852 -0.0199 -0.2761 -0.0616
 2499TIP3   OH229131   2.161   0.813   1.063  0.1457  0.1499  0.8092
 2499TIP3    H129132   2.223   0.871   1.106 -1.4558  0.2199  3.2006
 2499TIP3    H229133   2.089   0.869   1.035  0.4408 -0.1378 -0.6415
 2500TIP3   OH229134   2.710   3.356   8.262 -0.7923 -0.0468 -0.3836
 2500TIP3    H129135   2.642   3.323   8.321  0.1726 -1.7174 -0.1401
 2500TIP3    H229136   2.708   3.451   8.275 -1.2727 -0.2754  1.6059
 2501TIP3   OH229137   4.692   4.636   7.619  0.0387 -0.2167  0.2058
 2501TIP3    H129138   4.643   4.582   7.558 -0.3620  0.3718  0.0036
 2501TIP3    H229139   4.777   4.592   7.627 -0.1290 -0.6363 -0.2869
 2502TIP3   OH229140   3.332   4.209   0.249 -0.4736 -0.2940 -0.3414
 2502TIP3    H129141   3.426   4.194   0.239 -0.3033  0.8271 -0.5771
 2502TIP3    H229142   3.319   4.215   0.343 -0.1721  0.3229 -0.3347
 2503TIP3   OH229143   5.548   6.628   0.510 -0.3408 -0.4504  0.1492
 2503TIP3    H129144   5.603   6.549   0.518 -0.3760 -0.5125 -0.2093
 2503TIP3    H229145   5.462   6.600   0.539  0.2819  0.2008  2.8357
 2504TIP3   OH229146   5.104   1.477   1.269  0.1134  0.0497  0.3783
 2504TIP3    H129147   5.046   1.433   1.207  0.7912 -0.6827  0.2588
 2504TIP3    H229148   5.146   1.406   1.317  1.6930  0.5342 -0.2385
 2505TIP3   OH229149   3.718   0.390   7.974  0.2321  0.2715 -0.6231
 2505TIP3    H129150   3.757   0.303   7.971  0.2633  0.3024 -1.4555
 2505TIP3    H229151   3.658   0.387   8.048  2.4134  0.4848  1.2832
 2506TIP3   OH229152   2.874   6.585   1.321 -0.2076  0.0774  0.2077
 2506TIP3    H129153   2.809   6.595   1.391  0.6661 -0.2930  1.0802
 2506TIP3    H229154   2.870   6.492   1.298 -1.0248  0.3285 -0.7918
 2507TIP3   OH229155   2.132   0.949   2.044 -0.5876  0.5089 -0.1607
 2507TIP3    H129156   2.051   0.911   2.076 -1.1489  1.1871 -0.7458
 2507TIP3    H229157   2.201   0.905   2.095 -1.1490 -1.6447 -1.1234
 2508TIP3   OH229158   3.941   1.145   0.258  0.0922 -0.1145  0.0185
 2508TIP3    H129159   3.888   1.204   0.310  0.4257  0.5643 -0.4011
 2508TIP3    H229160   4.024   1.191   0.245  0.2263 -0.5125 -0.6136
 2509TIP3   OH229161   3.824   4.779   1.911 -0.0346 -0.0360 -0.3388
 2509TIP3    H129162   3.814   4.857   1.857 -2.5224 -1.0684 -1.5445
 2509TIP3    H229163   3.779   4.710   1.863  1.6906 -2.1742  0.8780
 2510TIP3   OH229164   1.538   2.760   0.390  0.0522 -0.2474 -0.4851
 2510TIP3    H129165   1.562   2.667   0.387 -0.4504 -0.4557  1.0728
 2510TIP3    H229166   1.450   2.763   0.352  0.0941 -0.3958 -0.5955
 2511TIP3   OH229167   0.659   0.417   7.291 -0.0003  0.2206 -0.6303
 2511TIP3    H129168   0.648   0.496   7.238  2.0660  0.6523 -0.5234
 2511TIP3    H229169   0.585   0.417   7.351 -1.0754  1.0141 -1.8963
 2512TIP3   OH229170   4.247   2.298   2.628  0.1707  0.5037  0.1312
 2512TIP3    H129171   4.209   2.240   2.562  2.6288 -0.2416 -0.7762
 2512TIP3    H229172   4.342   2.282   2.622  0.9192  3.9777  0.4912
 2513TIP3   OH229173   1.873   1.466   1.103  0.1823 -0.3946 -0.0358
 2513TIP3    H129174   1.905   1.415   1.028 -1.7559 -1.6053 -0.1051
 2513TIP3    H229175   1.833   1.401   1.160  0.7109  0.6482  1.5903
 2514TIP3   OH229176   5.196   4.295   8.468 -0.2938  0.2045  0.1002
 2514TIP3    H129177   5.231   4.222   8.519 -1.5316 -0.3522  0.1818
 2514TIP3    H229178   5.223   4.276   8.378 -0.6731 -0.4100  0.1084
 2515TIP3   OH229179   1.046   5.964   8.256 -0.2748 -0.3688  0.5830
 2515TIP3    H129180   1.128   5.992   8.296  0.4737 -1.9948  0.2866
 2515TIP3    H229181   1.072   5.897   8.193 -1.8927 -1.5522  1.0920
 2516TIP3   OH229182   6.014   6.232   7.739  0.3878  0.3033  0.1021
 2516TIP3    H129183   6.011   6.243   7.834  1.9016 -0.3467  0.2458
 2516TIP3    H229184   6.036   6.318   7.705 -0.0403  0.5113  0.3429
 2517TIP3   OH229185   0.531   0.846   1.059  0.4445 -0.2798 -0.0842
 2517TIP3    H129186   0.616   0.890   1.058 -0.1155  0.8913 -1.6997
 2517TIP3    H229187   0.521   0.810   0.971 -0.1917 -1.5456  0.4687
 2518TIP3   OH229188   6.823   4.455   8.143  0.3161 -0.0867  0.1767
 2518TIP3    H129189   6.845   4.521   8.209 -2.2329  1.4595 -0.4131
 2518TIP3    H229190   6.752   4.405   8.182 -0.5058  0.1704 -0.9338
 2519TIP3   OH229191   0.959   1.930   8.161 -0.3660 -0.2213 -0.8072
 2519TIP3    H129192   0.903   2.006   8.146 -1.4552 -1.0891 -1.3044
 2519TIP3    H229193   1.015   1.925   8.084  1.2093  1.2698  0.1611
 2520TIP3   OH229194   1.062   2.867   1.122 -0.0364 -0.5002  0.3068
 2520TIP3    H129195   0.967   2.860   1.130 -0.3061  2.0125  0.1667
 2520TIP3    H229196   1.077   2.954   1.084  2.3654 -0.3775  1.3245
 2521TIP3   OH229197   2.415   5.306   0.224 -0.0088 -0.0725  0.0239
 2521TIP3    H129198   2.502   5.337   0.245  0.3304 -1.8873  1.5886
 2521TIP3    H229199   2.359   5.383   0.231  1.5650  1.3319 -2.0038
 2522TIP3   OH229200   6.409   2.350   1.659 -0.1378  0.0489 -0.3164
 2522TIP3    H129201   6.338   2.322   1.602  0.4997 -0.9091 -0.6607
 2522TIP3    H229202   6.462   2.408   1.605  0.6226 -1.0792 -0.8157
 2523TIP3   OH229203   3.477   5.253   7.274  0.0387  0.4818 -0.4335
 2523TIP3    H129204   3.518   5.312   7.337  0.4358  0.1547 -0.3829
 2523TIP3    H229205   3.417   5.200   7.326 -0.7344  1.1956 -0.5590
 2524TIP3   OH229206   0.819   0.878   0.136 -0.4843  0.4630  0.1542
 2524TIP3    H129207   0.761   0.821   0.186 -0.8822  1.3160  0.6991
 2524TIP3    H229208   0.783   0.876   0.047 -0.3223 -0.3467  0.1003
 2525TIP3   OH229209   0.284   1.649   2.546  0.8787 -0.4418  0.8541
 2525TIP3    H129210   0.279   1.678   2.637 -1.3162 -0.2960  0.7463
 2525TIP3    H229211   0.271   1.729   2.494  0.0169 -0.8084  0.4781
 2526TIP3   OH229212   3.094   1.033   8.129 -0.2335 -0.5098 -0.5224
 2526TIP3    H129213   3.109   0.944   8.159 -0.8218 -0.6411 -0.6031
 2526TIP3    H229214   3.036   1.071   8.195 -0.5404 -0.4126 -0.8420
 2527TIP3   OH229215   3.700   3.520   2.955 -0.0596 -0.4943 -0.1364
 2527TIP3    H129216   3.767   3.537   3.021 -0.6615 -0.1775  0.4087
 2527TIP3    H229217   3.707   3.427   2.936 -0.2148 -0.6901  0.7539
 2528TIP3   OH229218   0.096   1.656   1.887 -0.3172  0.5818 -0.0074
 2528TIP3    H129219   0.003   1.659   1.911  0.1195  0.7957  1.8406
 2528TIP3    H229220   0.130   1.580   1.935  0.4728  0.5187 -0.6471
 2529TIP3   OH229221   5.765   3.461   0.062 -0.3360  0.1943  1.1452
 2529TIP3    H129222   5.823   3.473   0.137  1.5094 -0.4057 -0.0885
 2529TIP3    H229223   5.824   3.437  -0.010 -2.1373 -0.4140 -0.2183
 2530TIP3   OH229224   3.952   5.222   1.631  0.2816 -0.1966  0.0067
 2530TIP3    H129225   4.030   5.181   1.594 -0.6825 -1.0110 -1.2039
 2530TIP3    H229226   3.930   5.292   1.569 -0.0781 -0.1198  0.2179
 2531TIP3   OH229227   4.457   3.614   1.183 -0.1882  0.1213  0.3835
 2531TIP3    H129228   4.365   3.586   1.179 -0.5641  1.3935 -0.7455
 2531TIP3    H229229   4.454   3.707   1.161  1.3077  0.3655  1.1206
 2532TIP3   OH229230   3.136   0.203   2.356  0.2617  0.7204  0.4494
 2532TIP3    H129231   3.213   0.232   2.405  0.0409  2.0160  0.0654
 2532TIP3    H229232   3.066   0.198   2.422  0.7701 -0.9857  0.9019
 2533TIP3   OH229233   0.097   6.122   1.144 -0.4172 -0.1083  0.1728
 2533TIP3    H129234   0.192   6.128   1.139 -0.4819  0.2659 -0.9499
 2533TIP3    H229235   0.067   6.133   1.054 -1.5560  0.3791  0.5815
 2534TIP3   OH229236   1.562   2.771   1.660  0.2696 -0.5439 -0.2790
 2534TIP3    H129237   1.570   2.792   1.567  1.5382 -1.2611 -0.3588
 2534TIP3    H229238   1.567   2.855   1.704  2.8094 -0.3608 -0.7239
 2535TIP3   OH229239   3.782   4.187   7.839  0.0590  0.7012  0.3705
 2535TIP3    H129240   3.836   4.265   7.826 -0.6304  1.1821  0.3483
 2535TIP3    H229241   3.701   4.205   7.792 -0.1676  0.0313  0.4886
 2536TIP3   OH229242   4.649   6.798   0.646 -0.2158 -0.2804  0.1755
 2536TIP3    H129243   4.581   6.816   0.582 -0.2560  1.4491  0.6375
 2536TIP3    H229244   4.730   6.790   0.595 -0.3511  0.3969 -0.1506
 2537TIP3   OH229245   4.332   4.034   6.998  0.0226  0.4624  0.4897
 2537TIP3    H129246   4.391   4.007   6.927 -1.3777 -1.4453 -0.0320
 2537TIP3    H229247   4.379   4.012   7.078  0.0372 -1.1243  0.0801
 2538TIP3   OH229248   4.319   0.022   0.562 -0.0481 -0.0824  0.2812
 2538TIP3    H129249   4.339  -0.048   0.623  0.1242 -2.4315 -2.2545
 2538TIP3    H229250   4.404   0.052   0.530 -0.1738 -1.0406 -1.0211
 2539TIP3   OH229251   4.615   4.449   0.386  0.0052  0.2907 -0.2408
 2539TIP3    H129252   4.603   4.397   0.306 -0.3767  1.2742 -0.8301
 2539TIP3    H229253   4.640   4.536   0.355 -1.4505  1.0668  0.6514
 2540TIP3   OH229254   6.327   1.384   7.273  0.0591 -0.0822 -0.1068
 2540TIP3    H129255   6.354   1.348   7.189  1.0990  0.9335 -0.2452
 2540TIP3    H229256   6.241   1.422   7.257  1.2839  2.3504 -1.4507
 2541TIP3   OH229257   1.733   3.522   0.611  0.5975 -0.2040 -0.4473
 2541TIP3    H129258   1.773   3.601   0.648  1.2503 -0.6251 -0.2458
 2541TIP3    H229259   1.774   3.511   0.526  1.7394 -1.2483  0.2112
 2542TIP3   OH229260   0.668   1.402   1.608  0.3445 -0.1233  0.2363
 2542TIP3    H129261   0.616   1.427   1.532 -1.0644  0.6783  1.4092
 2542TIP3    H229262   0.640   1.462   1.677  2.9225  0.4174  0.9185
 2543TIP3   OH229263   3.091   0.749   8.204 -0.4050 -0.1285  0.2135
 2543TIP3    H129264   3.105   0.704   8.120  1.1758 -2.6770  1.7275
 2543TIP3    H229265   3.030   0.692   8.251  0.0583  0.3665  1.4382
 2544TIP3   OH229266   3.481   5.975   8.210  0.0648 -0.1001 -0.3452
 2544TIP3    H129267   3.416   5.973   8.140 -0.2596 -0.7311 -0.0437
 2544TIP3    H229268   3.535   6.051   8.192 -0.8906  0.5534 -0.4857
 2545TIP3   OH229269   2.994   3.624   0.687 -0.6840  0.9046 -0.0210
 2545TIP3    H129270   2.943   3.559   0.640 -1.1469  2.4510 -1.7590
 2545TIP3    H229271   3.082   3.586   0.691 -0.6253  0.6945 -2.1613
 2546TIP3   OH229272   6.774   5.201   0.939  0.4376  0.2849  0.0615
 2546TIP3    H129273   6.752   5.120   0.985 -1.0020  0.5746 -0.0591
 2546TIP3    H229274   6.732   5.270   0.990  1.8829  1.0234  0.3261
 2547TIP3   OH229275   3.774   3.521   8.148 -0.4151 -0.0521 -1.0567
 2547TIP3    H129276   3.696   3.535   8.202 -1.2117 -0.7087 -1.9880
 2547TIP3    H229277   3.805   3.608   8.125  0.8548  0.3157  1.6596
 2548TIP3   OH229278   6.058   1.014   8.074  0.2941  0.3786 -0.3202
 2548TIP3    H129279   6.029   1.098   8.038 -0.5158  0.1230 -0.2752
 2548TIP3    H229280   6.090   0.965   7.998  1.6044  1.0474 -0.2290
 2549TIP3   OH229281   4.327   5.195   6.945  0.5745  0.1306 -0.1234
 2549TIP3    H129282   4.382   5.118   6.931  0.9859  0.5850 -1.1142
 2549TIP3    H229283   4.385   5.270   6.929  0.2852  0.6753  1.1908
 2550TIP3   OH229284   2.669   3.358   1.524  0.0314  0.1757  0.4618
 2550TIP3    H129285   2.666   3.311   1.440  2.7149  0.0158  0.3640
 2550TIP3    H229286   2.659   3.289   1.590  0.9091 -0.1288  0.2868
 2551TIP3   OH229287   3.534   2.941   2.737 -0.0862 -0.7685 -0.6908
 2551TIP3    H129288   3.613   2.991   2.718 -0.0939 -1.2675 -2.1624
 2551TIP3    H229289   3.466   2.982   2.684 -0.8102 -0.4150  0.4759
 2552TIP3   OH229290   0.686   2.041   7.664  0.7161  0.3109  0.5785
 2552TIP3    H129291   0.722   1.954   7.682 -0.0619  0.2151  1.7787
 2552TIP3    H229292   0.757   2.087   7.618  0.0236 -1.9703 -3.1956
 2553TIP3   OH229293   5.327   1.621   6.945 -0.0031 -0.3470 -0.2359
 2553TIP3    H129294   5.379   1.573   6.881 -0.3335  2.4270 -2.7758
 2553TIP3    H229295   5.253   1.563   6.965  0.4631 -1.5572 -1.8514
 2554TIP3   OH229296   2.174   3.570   0.566  0.1354  0.2368 -0.0656
 2554TIP3    H129297   2.182   3.604   0.477  2.6499 -0.8092 -0.3386
 2554TIP3    H229298   2.181   3.475   0.556  0.6692  0.1135  1.2344
 2555TIP3   OH229299   1.538   6.923   6.979  0.1530 -0.4013 -0.0386
 2555TIP3    H129300   1.443   6.932   6.981  0.2506  0.7668  1.3544
 2555TIP3    H229301   1.564   6.930   7.071  1.6676  0.4983 -0.5071
 2556TIP3   OH229302   4.636   3.172   1.599  0.1483  0.4471 -0.1665
 2556TIP3    H129303   4.730   3.161   1.611  0.2918 -0.9055 -2.1064
 2556TIP3    H229304   4.627   3.222   1.518 -0.8054  0.6324  0.0320
 2557TIP3   OH229305   2.124   6.900   0.987  0.0287 -0.2992  0.2623
 2557TIP3    H129306   2.054   6.936   1.041  0.1038 -0.0891  0.2219
 2557TIP3    H229307   2.173   6.977   0.958 -1.1717 -0.2268 -1.7269
 2558TIP3   OH229308   1.314   3.912   7.676 -0.2538 -0.9527  0.1744
 2558TIP3    H129309   1.309   3.976   7.605  1.5697 -1.3260 -0.3378
 2558TIP3    H229310   1.290   3.961   7.754 -0.6547 -0.1164 -0.4578
 2559TIP3   OH229311   0.762   2.143   1.829 -0.4600 -0.1901 -0.8405
 2559TIP3    H129312   0.838   2.198   1.809 -1.6461  2.3558  1.1879
 2559TIP3    H229313   0.779   2.110   1.918 -2.5794  2.2129  0.5756
 2560TIP3   OH229314   5.040   3.505   0.546 -0.9026  0.0942 -0.2831
 2560TIP3    H129315   5.111   3.445   0.526 -1.2837 -0.6836  0.6071
 2560TIP3    H229316   5.072   3.590   0.518  0.6341 -0.1324  0.6319
 2561TIP3   OH229317   1.596   1.315   7.173 -0.3240  0.1868  0.1364
 2561TIP3    H129318   1.523   1.254   7.162  0.0781  0.1202 -2.8491
 2561TIP3    H229319   1.580   1.355   7.259 -2.5884 -1.4547  0.5915
 2562TIP3   OH229320   2.079   5.651   2.204  0.1953 -0.7237  0.1044
 2562TIP3    H129321   2.000   5.670   2.154  2.0831  2.5150 -1.9214
 2562TIP3    H229322   2.051   5.659   2.296 -1.8797  0.0444 -0.5333
 2563TIP3   OH229323   2.540   0.675   0.497 -0.2062 -0.6661  0.1731
 2563TIP3    H129324   2.618   0.730   0.504  0.8880 -1.7343 -2.3928
 2563TIP3    H229325   2.543   0.620   0.575  1.3253 -0.3233  0.3973
 2564TIP3   OH229326   2.075   1.025   8.376 -0.3563 -0.6068 -0.4877
 2564TIP3    H129327   2.013   1.055   8.442 -0.5074 -0.2230 -0.8051
 2564TIP3    H229328   2.020   0.996   8.302 -0.1703 -0.5742 -0.6399
 2565TIP3   OH229329   0.436   6.131   0.316  0.0737 -0.1074  0.7931
 2565TIP3    H129330   0.466   6.048   0.354  2.1332  0.3658  0.3426
 2565TIP3    H229331   0.454   6.196   0.384  1.5081  0.3922 -0.0165
 2566TIP3   OH229332   6.858   6.537   2.249 -1.0348  0.0665  0.1864
 2566TIP3    H129333   6.931   6.598   2.243 -0.7464 -0.2644  0.3173
 2566TIP3    H229334   6.886   6.472   2.313 -1.9778  0.6672  1.2291
 2567TIP3   OH229335   6.110   3.660   7.093 -0.0666 -0.5885  0.1104
 2567TIP3    H129336   6.085   3.632   7.005 -0.4594 -0.5046  0.1938
 2567TIP3    H229337   6.068   3.745   7.104 -0.4121 -0.8169  0.5594
 2568TIP3   OH229338   1.032   0.723   1.332  0.0150  0.4532 -0.2649
 2568TIP3    H129339   1.059   0.655   1.270  0.0816 -0.2011  0.4576
 2568TIP3    H229340   1.112   0.775   1.347 -0.7356  2.7248 -3.2184
 2569TIP3   OH229341   4.736   2.268   7.410 -0.4252 -0.0075 -0.1499
 2569TIP3    H129342   4.825   2.257   7.377 -0.6534  0.1066 -0.8183
 2569TIP3    H229343   4.690   2.188   7.383 -0.5653  0.0004  0.0617
 2570TIP3   OH229344   6.704   1.171   7.620 -0.4496 -0.1469  0.1956
 2570TIP3    H129345   6.749   1.086   7.626 -0.5450 -0.3248 -1.2582
 2570TIP3    H229346   6.633   1.156   7.558 -1.2648  0.6774  0.9058
 2571TIP3   OH229347   0.715   6.640   2.885 -0.1405  0.3730  0.1501
 2571TIP3    H129348   0.700   6.636   2.791  0.8694  1.0970 -0.0439
 2571TIP3    H229349   0.682   6.556   2.917 -0.1869 -0.0208 -0.8861
 2572TIP3   OH229350   3.806   6.671   0.715 -0.0388  0.1781  0.0894
 2572TIP3    H129351   3.713   6.678   0.691  0.2383  0.1495 -1.0509
 2572TIP3    H229352   3.834   6.589   0.675  0.8091  0.8649 -0.7814
 2573TIP3   OH229353   5.117   3.624   1.744 -0.0109  0.1025  0.4212
 2573TIP3    H129354   5.191   3.659   1.693 -0.6396 -0.3275 -0.8081
 2573TIP3    H229355   5.123   3.529   1.733 -2.3620  0.1061 -2.1480
 2574TIP3   OH229356   4.078   5.996   8.304  0.1585  0.8244 -0.3767
 2574TIP3    H129357   4.120   6.082   8.317 -0.3969  1.2507 -1.3408
 2574TIP3    H229358   3.985   6.016   8.293  0.0453  0.1121 -0.7632
 2575TIP3   OH229359   3.737   0.547   0.074  0.1417 -0.2370 -0.3008
 2575TIP3    H129360   3.661   0.569   0.128 -0.6553  0.3705 -1.6119
 2575TIP3    H229361   3.759   0.628   0.029  0.8637 -0.6938 -0.7911
 2576TIP3   OH229362   2.921   1.462   8.262 -0.0600 -0.0520 -0.4004
 2576TIP3    H129363   2.980   1.430   8.331 -0.9300 -0.8167  0.0138
 2576TIP3    H229364   2.867   1.386   8.240 -0.4544  0.4564 -1.2354
 2577TIP3   OH229365   1.273   5.749   1.866 -0.2037  0.4132 -0.1444
 2577TIP3    H129366   1.313   5.801   1.936 -1.0324  0.1145  0.5756
 2577TIP3    H229367   1.322   5.666   1.867 -0.0085  0.5279 -0.1309
 2578TIP3   OH229368   6.713   5.955   0.564 -0.0328 -0.2894  0.6286
 2578TIP3    H129369   6.765   6.027   0.529  0.7199 -0.0161  2.2407
 2578TIP3    H229370   6.738   5.949   0.656 -1.7663 -1.1281  1.0969
 2579TIP3   OH229371   1.586   4.002   1.968 -0.0049  0.0697 -0.0676
 2579TIP3    H129372   1.682   4.005   1.960 -0.0096  0.2409 -0.0659
 2579TIP3    H229373   1.560   3.931   1.909  0.1286 -0.0221 -0.0177
 2580TIP3   OH229374   3.903   5.292   2.004 -0.5326 -0.2422  0.4842
 2580TIP3    H129375   3.894   5.387   1.999 -2.1653 -0.4192 -1.2353
 2580TIP3    H229376   3.814   5.261   2.023  0.4481 -1.3687  4.0324
 2581TIP3   OH229377   2.022   6.555   2.305  0.1388  0.3864  0.7290
 2581TIP3    H129378   2.020   6.607   2.224  1.3804  0.9866  1.0576
 2581TIP3    H229379   2.005   6.465   2.276 -1.2378  0.8313  0.0527
 2582TIP3   OH229380   0.926   4.441   6.957  0.5574  0.3189  0.4663
 2582TIP3    H129381   0.902   4.359   7.000  0.7155  0.9340  1.7993
 2582TIP3    H229382   1.000   4.419   6.901 -0.3398 -0.7276 -0.3486
 2583TIP3   OH229383   6.397   4.636   1.003 -0.1866  0.0187  0.5548
 2583TIP3    H129384   6.362   4.567   0.947  1.6369 -0.9111  0.5101
 2583TIP3    H229385   6.377   4.607   1.092  2.9135 -2.0627  0.7189
 2584TIP3   OH229386   0.020   4.574   2.317 -0.3201 -0.4331 -0.2276
 2584TIP3    H129387  -0.011   4.628   2.245  1.4901  1.1209  0.0658
 2584TIP3    H229388   0.114   4.564   2.300 -0.3735 -2.5654  0.3663
 2585TIP3   OH229389   0.886   1.135   3.407  0.1229 -0.1541  0.0924
 2585TIP3    H129390   0.918   1.113   3.320  0.7061  1.4966 -0.1408
 2585TIP3    H229391   0.878   1.051   3.452 -0.9816 -1.1203 -1.7887
 2586TIP3   OH229392   0.744   5.991   0.407  0.3047  0.4571 -0.5201
 2586TIP3    H129393   0.729   6.035   0.490 -0.4100  1.8806 -1.3498
 2586TIP3    H229394   0.696   5.909   0.412 -0.1972  0.7963  0.2471
 2587TIP3   OH229395   4.418   4.511   0.622 -0.5877  0.4615 -0.2660
 2587TIP3    H129396   4.397   4.426   0.660  1.8546 -0.5283 -0.8913
 2587TIP3    H229397   4.411   4.497   0.527 -0.4829  1.0450 -0.3630
 2588TIP3   OH229398   4.634   4.681   0.246 -0.3258  0.0271  0.5570
 2588TIP3    H129399   4.586   4.755   0.282 -0.7505  0.5324 -0.9667
 2588TIP3    H229400   4.698   4.720   0.186 -1.1315 -0.8372 -0.9338
 2589TIP3   OH229401   6.005   2.866   7.879 -0.4337 -0.0931  0.5075
 2589TIP3    H129402   5.956   2.800   7.831 -1.0842  0.5583  0.2729
 2589TIP3    H229403   6.040   2.819   7.955  0.1928 -1.0115 -0.3125
 2590TIP3   OH229404   1.596   4.417   1.338 -0.3222 -0.1589  0.3590
 2590TIP3    H129405   1.661   4.366   1.290  0.4230  1.0506  0.0335
 2590TIP3    H229406   1.607   4.390   1.429  0.8959  0.2807  0.3601
 2591TIP3   OH229407   5.921   1.329   0.809  0.0979  0.3063  0.1318
 2591TIP3    H129408   5.847   1.389   0.815  0.1899  0.4821 -0.4395
 2591TIP3    H229409   5.982   1.372   0.749  0.0588 -0.4718 -0.4751
 2592TIP3   OH229410   6.010   4.681   1.746  0.3047 -0.3178 -0.6162
 2592TIP3    H129411   6.030   4.602   1.796  1.8205  1.4055  1.7652
 2592TIP3    H229412   5.943   4.725   1.797  1.5415  1.2735 -0.2729
 2593TIP3   OH229413   4.802   5.113   0.541 -0.0971  0.0781  0.0207
 2593TIP3    H129414   4.778   5.149   0.626  0.0534 -3.5687  1.8285
 2593TIP3    H229415   4.718   5.095   0.498 -0.2453  0.1424  0.2796
 2594TIP3   OH229416   6.952   2.637   0.081  0.4234 -0.0753 -0.4489
 2594TIP3    H129417   7.003   2.633   0.161 -0.5005 -0.8368  0.1219
 2594TIP3    H229418   6.899   2.717   0.090 -0.9410 -1.0331  0.5229
 2595TIP3   OH229419   1.646   5.386   8.085 -0.1615  0.1614 -0.5090
 2595TIP3    H129420   1.557   5.422   8.082  0.0701  0.7029 -1.4584
 2595TIP3    H229421   1.700   5.453   8.043  1.0142  0.6794  1.7085
 2596TIP3   OH229422   5.084   3.004   8.438 -0.2128  0.0517  0.1558
 2596TIP3    H129423   5.031   3.076   8.403 -0.0692  0.5075  0.8611
 2596TIP3    H229424   5.147   3.047   8.496 -0.5336 -0.7106  1.0802
 2597TIP3   OH229425   4.657   3.724   8.261  0.1043 -0.1569 -0.0763
 2597TIP3    H129426   4.640   3.644   8.212  1.3826 -0.3715 -0.1989
 2597TIP3    H229427   4.750   3.721   8.282  0.0619  1.0269  0.4153
 2598TIP3   OH229428   2.472   2.093   2.333 -0.6209  0.0177  0.2273
 2598TIP3    H129429   2.486   2.173   2.384 -0.4307 -0.3077  0.6913
 2598TIP3    H229430   2.432   2.031   2.394 -1.2827 -0.0670 -0.2801
 2599TIP3   OH229431   3.598   1.010   6.690  0.3574  0.0422 -0.1877
 2599TIP3    H129432   3.508   1.000   6.661  0.1535  0.1386  0.4216
 2599TIP3    H229433   3.628   0.921   6.709  0.2795  0.0458 -0.0494
 2600TIP3   OH229434   0.363   4.095   2.569 -0.0586  0.0394  0.3519
 2600TIP3    H129435   0.301   4.144   2.516 -0.5986 -1.5561 -0.5387
 2600TIP3    H229436   0.324   4.096   2.657 -1.7843 -1.5680 -0.3355
 2601TIP3   OH229437   2.210   1.428   0.603 -0.2800  0.0920 -0.2630
 2601TIP3    H129438   2.262   1.477   0.666 -0.1413 -0.3636 -0.0184
 2601TIP3    H229439   2.243   1.455   0.517  1.3210 -1.1925 -0.0986
 2602TIP3   OH229440   6.735   3.388   0.128 -0.4743 -0.5364 -0.3562
 2602TIP3    H129441   6.757   3.395   0.221 -1.1093  0.2257 -0.2640
 2602TIP3    H229442   6.669   3.319   0.124  0.3012 -1.2935 -0.3741
 2603TIP3   OH229443   0.612   6.813   1.705 -0.0092 -0.1127 -0.6366
 2603TIP3    H129444   0.679   6.871   1.743  0.4762 -0.7836 -0.4446
 2603TIP3    H229445   0.572   6.770   1.781  0.7338 -1.2071 -0.8440
 2604TIP3   OH229446   1.033   2.648   7.696 -0.2852 -0.0193 -0.0090
 2604TIP3    H129447   1.050   2.568   7.646  2.4031  0.5729 -0.2285
 2604TIP3    H229448   1.013   2.714   7.629  2.0031  0.4606 -0.3313
 2605TIP3   OH229449   0.284   3.883   8.399 -0.3064 -0.3243  0.2403
 2605TIP3    H129450   0.293   3.900   8.306 -0.5022 -1.2565  0.0509
 2605TIP3    H229451   0.197   3.845   8.409 -1.1332  1.6506  1.0871
 2606TIP3   OH229452   6.659   6.007   1.075  0.1135  0.1128 -0.1150
 2606TIP3    H129453   6.680   5.991   1.167  0.1604 -0.3289 -0.1988
 2606TIP3    H229454   6.568   5.979   1.065  0.1547  0.0165 -0.2343
 2607TIP3   OH229455   3.080   0.559   7.003  0.1437 -0.3570  0.2400
 2607TIP3    H129456   3.103   0.651   7.014  0.5061 -0.1566 -1.8191
 2607TIP3    H229457   2.996   0.550   7.049 -0.1894  1.1355 -0.0181
 2608TIP3   OH229458   1.675   5.275   1.400 -0.0665  0.2868  0.2003
 2608TIP3    H129459   1.680   5.355   1.347  1.9744  0.5395  0.6956
 2608TIP3    H229460   1.679   5.204   1.336 -1.1590  0.5676 -0.1972
 2609TIP3   OH229461   2.624   1.960   7.149  0.3827 -0.1092 -0.1374
 2609TIP3    H129462   2.631   2.028   7.082  1.3672 -0.5455 -0.4922
 2609TIP3    H229463   2.578   2.002   7.222  1.0463  0.9518 -0.3201
 2610TIP3   OH229464   4.434   5.941   1.571  0.1207  0.3047  0.1063
 2610TIP3    H129465   4.403   5.875   1.510 -0.6255 -0.4133  1.2326
 2610TIP3    H229466   4.356   5.991   1.595  0.5057  0.9583  0.0398
 2611TIP3   OH229467   2.122   6.627   8.191  0.1419 -1.0126 -0.2481
 2611TIP3    H129468   2.029   6.652   8.191 -0.0137 -1.5923 -0.5440
 2611TIP3    H229469   2.122   6.533   8.208  0.6070 -1.2817 -1.6184
 2612TIP3   OH229470   4.278   3.466   0.533  0.1747 -0.1477 -0.6396
 2612TIP3    H129471   4.352   3.499   0.482 -0.8812  1.1355 -1.3921
 2612TIP3    H229472   4.202   3.480   0.477 -0.8382 -0.0617  0.7081
 2613TIP3   OH229473   6.272   6.342   7.498 -0.0300  0.0780  0.1871
 2613TIP3    H129474   6.194   6.383   7.537 -0.5599 -0.9428  0.2442
 2613TIP3    H229475   6.267   6.364   7.405  0.3796  1.1925  0.4208
 2614TIP3   OH229476   3.047   2.262   2.952  0.7752  0.2668 -0.6229
 2614TIP3    H129477   3.094   2.263   2.869  0.8644  1.5728 -0.5739
 2614TIP3    H229478   3.051   2.352   2.984 -3.5617  1.0642 -1.6633
 2615TIP3   OH229479   0.061   2.337   8.019  0.3225 -0.2003 -0.0990
 2615TIP3    H129480   0.140   2.389   8.005  0.8110 -1.3298 -1.8951
 2615TIP3    H229481  -0.010   2.400   8.022  1.2105  0.7807  0.8016
 2616TIP3   OH229482   3.856   4.723   8.003 -0.1437  0.0517 -0.2951
 2616TIP3    H129483   3.882   4.641   8.045  2.7922  1.3223  0.6474
 2616TIP3    H229484   3.838   4.699   7.912  0.6390 -1.6090 -0.0504
 2617TIP3   OH229485   4.798   6.097   2.201 -0.4040 -1.0001  0.4190
 2617TIP3    H129486   4.751   6.165   2.153  2.1279  1.9228  1.7067
 2617TIP3    H229487   4.881   6.087   2.153  1.2190  0.3481  2.7504
 2618TIP3   OH229488   6.071   5.138   2.250  0.1343  0.3492  0.1690
 2618TIP3    H129489   6.080   5.052   2.208  0.5356  0.0374  0.8850
 2618TIP3    H229490   5.984   5.136   2.291  0.7223 -0.2824  1.4300
 2619TIP3   OH229491   3.774   6.911   0.083 -0.3194  0.4801 -0.3858
 2619TIP3    H129492   3.789   6.829   0.036 -1.1771 -0.1594  0.4054
 2619TIP3    H229493   3.841   6.912   0.152 -1.9917 -1.0128  1.4029
 2620TIP3   OH229494   6.465   3.492   0.121 -0.3799 -0.2283  0.0676
 2620TIP3    H129495   6.558   3.479   0.102 -0.7530  0.2991 -2.4606
 2620TIP3    H229496   6.430   3.404   0.133  0.1790 -0.5221 -0.4260
 2621TIP3   OH229497   6.571   3.821   0.844  0.5741 -0.0574 -0.4557
 2621TIP3    H129498   6.571   3.766   0.922  0.0327  0.2333 -0.2476
 2621TIP3    H229499   6.484   3.808   0.806  0.1398  1.2738  0.0414
 2622TIP3   OH229500   5.905   4.109   2.935  0.5231  0.1921 -0.1505
 2622TIP3    H129501   5.849   4.107   3.013 -0.7198  1.0940 -0.9890
 2622TIP3    H229502   5.983   4.157   2.962  0.2580  0.1949  0.6327
 2623TIP3   OH229503   1.925   1.422   7.530  0.0226 -0.0002 -0.4888
 2623TIP3    H129504   1.959   1.424   7.441  0.0317 -2.7392 -0.6126
 2623TIP3    H229505   1.895   1.332   7.543 -1.4056  0.7142  1.7615
 2624TIP3   OH229506   0.849   6.343   7.999  0.4091  0.7266  0.7015
 2624TIP3    H129507   0.927   6.295   7.972 -0.2166  1.2022 -2.3975
 2624TIP3    H229508   0.781   6.315   7.938 -0.6697  3.5274  0.4489
 2625TIP3   OH229509   0.530   3.560   7.914 -0.5665 -0.1034  0.0806
 2625TIP3    H129510   0.597   3.597   7.857 -1.0483 -0.0818 -0.4823
 2625TIP3    H229511   0.454   3.547   7.857 -2.0338  2.5197  1.2489
 2626TIP3   OH229512   5.248   6.490   1.056 -0.1790 -0.2465 -0.3733
 2626TIP3    H129513   5.310   6.425   1.023 -0.9604  0.2431 -3.0974
 2626TIP3    H229514   5.162   6.453   1.035 -0.7470  0.1740  1.1219
 2627TIP3   OH229515   4.085   6.104   7.611  0.5656 -0.2034 -0.4167
 2627TIP3    H129516   4.109   6.018   7.645  1.0509 -0.4088 -1.2578
 2627TIP3    H229517   4.014   6.133   7.668  1.1813 -0.6424  0.6073
 2628TIP3   OH229518   1.888   1.180   0.050  0.4970  0.0789  0.3677
 2628TIP3    H129519   1.850   1.264   0.076  2.1948  0.7535  0.7767
 2628TIP3    H229520   1.932   1.149   0.129 -0.3485 -1.3713  0.3129
 2629TIP3   OH229521   2.980   4.279   8.263  0.2566 -0.2388  0.5154
 2629TIP3    H129522   3.026   4.362   8.271 -1.7518  0.7589  3.7685
 2629TIP3    H229523   3.003   4.230   8.342 -0.6193 -1.6515 -0.0590
 2630TIP3   OH229524   5.976   3.102   2.195 -0.3011 -0.2277 -0.2972
 2630TIP3    H129525   5.891   3.145   2.187 -0.1038 -0.0811 -2.0362
 2630TIP3    H229526   6.040   3.173   2.185  0.0588 -0.2622  1.4751
 2631TIP3   OH229527   1.961   1.708   1.157 -0.2487 -0.1651  0.5621
 2631TIP3    H129528   1.890   1.759   1.119  0.2091  0.3730  0.4142
 2631TIP3    H229529   1.939   1.617   1.136 -2.2418 -0.2732  2.7726
 2632TIP3   OH229530   0.685   1.886   2.313 -0.3039 -0.3041 -0.1634
 2632TIP3    H129531   0.604   1.926   2.344  0.0579  1.1606 -0.9822
 2632TIP3    H229532   0.670   1.792   2.320 -2.3182 -0.0887 -0.8638
 2633TIP3   OH229533   2.145   2.751   2.884  0.2892  0.3322  0.1632
 2633TIP3    H129534   2.171   2.826   2.937 -0.3004  0.1674  0.6959
 2633TIP3    H229535   2.080   2.786   2.823 -2.0355 -0.2296  2.1790
 2634TIP3   OH229536   5.715   0.480   7.304 -0.1187 -0.3637 -0.6572
 2634TIP3    H129537   5.658   0.499   7.229 -1.7261 -0.5777  0.4627
 2634TIP3    H229538   5.747   0.566   7.331 -0.4980 -0.1568 -0.8513
 2635TIP3   OH229539   0.960   5.518   8.450  0.3799 -0.2085  0.2621
 2635TIP3    H129540   0.920   5.591   8.498 -0.9264 -0.3861 -0.5024
 2635TIP3    H229541   0.893   5.491   8.388  1.6174 -0.7253 -0.8933
 2636TIP3   OH229542   5.173   0.818   0.489  0.4160 -0.3002  0.1303
 2636TIP3    H129543   5.105   0.844   0.425 -0.4613 -0.9121  0.7928
 2636TIP3    H229544   5.228   0.896   0.497 -1.8181  1.2547  1.6447
 2637TIP3   OH229545   3.768   0.905   0.432 -0.0323 -0.0182  0.6405
 2637TIP3    H129546   3.847   0.959   0.427 -0.4763  0.7660  1.6451
 2637TIP3    H229547   3.789   0.838   0.497 -0.1247  0.0786  0.7712
 2638TIP3   OH229548   3.105   2.501   8.337  0.2985 -0.0783 -0.6273
 2638TIP3    H129549   3.162   2.446   8.390  0.9584  0.8905 -0.2979
 2638TIP3    H229550   3.166   2.554   8.284 -0.2679 -2.3031 -3.8155
 2639TIP3   OH229551   3.963   2.836   0.342 -0.3305 -0.3276  0.1890
 2639TIP3    H129552   3.997   2.918   0.308 -2.1470 -0.1665 -1.4158
 2639TIP3    H229553   4.008   2.824   0.426 -0.5272  2.6590  0.8199
 2640TIP3   OH229554   6.248   1.431   0.059  0.0312 -0.0452  0.3581
 2640TIP3    H129555   6.157   1.410   0.037  0.0142 -0.2476  0.6181
 2640TIP3    H229556   6.242   1.506   0.118  0.1630  1.9948 -2.0302
 2641TIP3   OH229557   5.280   6.555   8.311  0.1153 -0.5159 -0.3330
 2641TIP3    H129558   5.346   6.500   8.352 -0.2656 -0.7201  0.0149
 2641TIP3    H229559   5.310   6.645   8.327 -0.2456 -0.5808  0.7872
 2642TIP3   OH229560   5.267   3.104   0.206 -0.2581  0.8662 -0.0065
 2642TIP3    H129561   5.347   3.087   0.255  0.2429 -0.4626 -1.2317
 2642TIP3    H229562   5.207   3.034   0.233  0.8267 -1.4022 -2.9215
 2643TIP3   OH229563   2.734   1.255   8.236 -0.2454 -0.2944 -0.0135
 2643TIP3    H129564   2.748   1.166   8.269 -1.7947 -0.6799 -0.3284
 2643TIP3    H229565   2.647   1.279   8.268 -0.1897  0.7856 -0.6399
 2644TIP3   OH229566   4.448   4.259   7.360 -0.4301  0.2926 -0.2924
 2644TIP3    H129567   4.444   4.267   7.265 -0.1670 -1.2862 -0.4531
 2644TIP3    H229568   4.506   4.330   7.387  1.2029 -0.5058 -1.5196
 2645TIP3   OH229569   3.800   4.102   2.938 -0.4153  0.0875 -0.1027
 2645TIP3    H129570   3.792   4.008   2.949  1.8644 -0.1363  0.0295
 2645TIP3    H229571   3.778   4.117   2.846 -0.7701 -0.5570 -0.1299
 2646TIP3   OH229572   4.669   2.350   3.140  0.4392  0.2336 -0.5051
 2646TIP3    H129573   4.734   2.416   3.164 -0.4735  0.6677  0.8535
 2646TIP3    H229574   4.692   2.274   3.194  2.1589 -1.0475 -2.8343
 2647TIP3   OH229575   2.750   0.012   2.753 -0.1652 -0.3512 -0.1143
 2647TIP3    H129576   2.721  -0.073   2.786 -1.5075 -0.0209 -0.4227
 2647TIP3    H229577   2.846   0.007   2.757 -0.2452 -1.4346  0.9785
 2648TIP3   OH229578   1.952   1.590   8.101 -0.0797  0.2473  0.7989
 2648TIP3    H129579   1.975   1.606   8.010 -1.0814  0.0828  0.5096
 2648TIP3    H229580   1.993   1.505   8.121 -2.4301 -1.2842 -0.4806
 2649TIP3   OH229581   6.957   6.664   1.457  0.2624 -0.2972 -0.6442
 2649TIP3    H129582   7.049   6.690   1.464  0.3406 -0.9043  1.2875
 2649TIP3    H229583   6.909   6.734   1.501  0.1166 -1.3992  1.0351
 2650TIP3   OH229584   6.763   2.098   8.031  0.0455  0.3263 -0.5674
 2650TIP3    H129585   6.692   2.037   8.050 -2.6865  2.7838 -2.0853
 2650TIP3    H229586   6.836   2.067   8.084 -1.6811 -3.1707  0.0497
 2651TIP3   OH229587   6.872   6.909   0.641  0.3610  0.0112  0.2771
 2651TIP3    H129588   6.931   6.875   0.709  0.4462 -0.4296 -0.0115
 2651TIP3    H229589   6.922   6.977   0.598  0.7670 -0.5379 -0.1364
 2652TIP3   OH229590   5.293   2.305   1.211  0.1590  0.4724 -0.4740
 2652TIP3    H129591   5.320   2.370   1.146 -0.7002  2.1188  0.7318
 2652TIP3    H229592   5.205   2.278   1.183 -0.7299  2.1072  0.6124
 2653TIP3   OH229593   6.250   4.693   2.409 -0.1192  0.3102  0.0426
 2653TIP3    H129594   6.233   4.603   2.383  0.8184  0.0248  0.3450
 2653TIP3    H229595   6.236   4.694   2.504 -1.3413  0.7980 -0.1273
 2654TIP3   OH229596   3.828   3.557   2.615 -0.2185 -0.2754  0.2871
 2654TIP3    H129597   3.785   3.492   2.559  1.5156 -2.9712  1.8269
 2654TIP3    H229598   3.757   3.602   2.659 -1.5148 -0.9074 -1.0667
 2655TIP3   OH229599   2.880   4.587   8.056 -0.6325 -0.4073 -0.1496
 2655TIP3    H129600   2.976   4.587   8.051 -0.6314 -0.2676 -0.1263
 2655TIP3    H229601   2.860   4.620   8.144 -0.7012 -0.4589 -0.1458
 2656TIP3   OH229602   1.506   6.555   7.827 -0.1573  0.3515 -0.7202
 2656TIP3    H129603   1.411   6.560   7.815 -0.4235  0.2290  1.0755
 2656TIP3    H229604   1.527   6.629   7.883  0.2853 -1.4457  1.6260
 2657TIP3   OH229605   2.796   5.803   1.899 -0.4064  0.5410 -0.4450
 2657TIP3    H129606   2.707   5.820   1.928 -0.4645 -1.4646  0.7643
 2657TIP3    H229607   2.839   5.762   1.974  0.7991 -0.7381 -1.7491
 2658TIP3   OH229608   5.036   4.876   7.027  0.1042  0.1364  0.5925
 2658TIP3    H129609   5.084   4.942   6.977 -0.0327  0.2325  0.5869
 2658TIP3    H229610   4.959   4.923   7.061 -0.5456 -0.2727 -0.2799
 2659TIP3   OH229611   6.781   0.037   8.248 -0.0488  0.3542 -0.3213
 2659TIP3    H129612   6.729   0.116   8.228 -2.2999 -0.5163  1.6285
 2659TIP3    H229613   6.840   0.065   8.318 -1.9138  0.0511  1.4802
 2660TIP3   OH229614   2.785   1.646   7.876  0.0085 -0.3275  0.3428
 2660TIP3    H129615   2.847   1.687   7.816  1.0975  0.2154  1.7743
 2660TIP3    H229616   2.776   1.557   7.843  1.3795 -0.3519 -0.0538
 2661TIP3   OH229617   2.523   5.912   0.793  0.1534 -0.0500 -0.2011
 2661TIP3    H129618   2.459   5.889   0.861 -1.4656  2.2746 -0.8079
 2661TIP3    H229619   2.563   5.993   0.824  0.4034  0.2890 -1.3621
 2662TIP3   OH229620   2.367   5.871   0.277  0.2474 -0.4186 -0.4190
 2662TIP3    H129621   2.361   5.801   0.212 -2.6548 -1.8430  1.1830
 2662TIP3    H229622   2.318   5.944   0.239  0.9355 -0.2111 -0.9359
 2663TIP3   OH229623   2.285   3.269   8.144 -0.9300 -0.0931  0.2014
 2663TIP3    H129624   2.263   3.210   8.216 -0.8299 -0.1587  0.1795
 2663TIP3    H229625   2.349   3.329   8.181  1.8841 -2.2830 -0.7150
 2664TIP3   OH229626   4.517   0.564   0.243  0.4951 -0.0150  0.2633
 2664TIP3    H129627   4.546   0.514   0.320  0.5732  2.1762  1.7643
 2664TIP3    H229628   4.421   0.561   0.247  0.4980  0.2608  0.5690
 2665TIP3   OH229629   5.992   5.632   0.694  0.7610  0.3780  0.7723
 2665TIP3    H129630   6.055   5.702   0.709  2.2720 -0.5357 -1.0480
 2665TIP3    H229631   6.037   5.552   0.723 -0.6381 -0.0044  2.0677
 2666TIP3   OH229632   2.240   0.443   0.644 -0.1493  0.0089  0.7848
 2666TIP3    H129633   2.273   0.394   0.569 -0.2351  0.2871  0.5650
 2666TIP3    H229634   2.319   0.474   0.689 -0.1036  0.5575  0.3365
 2667TIP3   OH229635   0.916   2.240   2.296  0.0899 -0.6085  0.3119
 2667TIP3    H129636   0.917   2.220   2.390  2.7791  0.5044  0.6144
 2667TIP3    H229637   1.008   2.244   2.272 -0.5246  0.3966 -2.1132
 2668TIP3   OH229638   6.770   2.730   2.323 -0.3261  1.2294  0.1249
 2668TIP3    H129639   6.734   2.669   2.387 -0.5809  0.9710 -0.2622
 2668TIP3    H229640   6.807   2.675   2.254  0.4434  1.5001  0.3131
 2669TIP3   OH229641   2.047   2.021   1.274  0.5097 -0.3212  0.0376
 2669TIP3    H129642   2.034   2.087   1.342  0.7229 -0.0728 -0.1612
 2669TIP3    H229643   2.140   2.001   1.277  0.3392 -1.0783  0.5209
 2670TIP3   OH229644   2.206   5.911   7.629  0.5169 -0.4429 -0.6521
 2670TIP3    H129645   2.153   5.831   7.627  0.5387 -0.7425  3.0109
 2670TIP3    H229646   2.152   5.977   7.585 -1.8051 -1.3689  0.6342
 2671TIP3   OH229647   3.983   0.925   1.084 -0.1093  0.7751  0.0140
 2671TIP3    H129648   3.958   0.833   1.073 -1.1353  1.0310  0.1655
 2671TIP3    H229649   4.014   0.930   1.174  0.6358  0.4293 -0.2150
 2672TIP3   OH229650   1.440   2.636   8.021 -0.2724  0.2900 -0.5524
 2672TIP3    H129651   1.480   2.591   8.095  2.0456 -0.3348 -2.0703
 2672TIP3    H229652   1.347   2.640   8.042 -0.0936 -2.3114  1.1161
 2673TIP3   OH229653   0.038   0.513   2.545 -0.5581 -0.1733  0.1986
 2673TIP3    H129654  -0.045   0.524   2.591  1.3897 -1.1700  4.4127
 2673TIP3    H229655   0.048   0.418   2.536 -1.0409 -0.0197 -2.8954
 2674TIP3   OH229656   4.243   3.769   0.288 -0.0435 -0.0942  0.0433
 2674TIP3    H129657   4.156   3.741   0.317 -0.0087  0.4867  0.7337
 2674TIP3    H229658   4.228   3.806   0.200  0.1665 -3.7044 -1.6842
 2675TIP3   OH229659   1.259   3.700   0.306  0.3582  0.4998 -0.1347
 2675TIP3    H129660   1.174   3.704   0.262 -1.2314  0.8341  2.7549
 2675TIP3    H229661   1.286   3.608   0.299  1.1266  0.8410 -3.2740
 2676TIP3   OH229662   2.972   1.671   8.084  0.2984 -0.2958  0.1575
 2676TIP3    H129663   2.972   1.588   8.132  1.1559  0.1613  0.9880
 2676TIP3    H229664   2.892   1.669   8.032 -0.1535 -1.2482  0.8581
 2677TIP3   OH229665   1.225   1.580   6.603 -0.7806 -0.1559 -0.1243
 2677TIP3    H129666   1.224   1.671   6.633 -2.2229  0.2118 -1.1671
 2677TIP3    H229667   1.134   1.561   6.580 -0.3810 -1.6330 -0.6160
 2678TIP3   OH229668   6.217   2.760   2.396  0.6358  0.1338  0.3687
 2678TIP3    H129669   6.262   2.792   2.318  2.1288  0.3779  1.2816
 2678TIP3    H229670   6.257   2.809   2.468 -0.8426  0.0561  1.2697
 2679TIP3   OH229671   2.604   6.604   7.975 -0.4827  0.1659 -0.5304
 2679TIP3    H129672   2.510   6.617   7.987 -1.2746 -0.7642 -4.2817
 2679TIP3    H229673   2.621   6.516   8.007 -1.4410 -0.5266 -1.8364
 2680TIP3   OH229674   2.990   4.277   1.254 -0.3227  0.4547  0.2000
 2680TIP3    H129675   2.986   4.223   1.175 -0.2162  1.4968 -0.5368
 2680TIP3    H229676   2.989   4.214   1.326 -0.7891 -0.5057 -0.6168
 2681TIP3   OH229677   3.491   1.885   0.721  0.0515 -0.7935 -0.1387
 2681TIP3    H129678   3.532   1.957   0.673 -0.5997  0.0295  0.5071
 2681TIP3    H229679   3.561   1.851   0.777 -0.0740  0.5518  0.8981
 2682TIP3   OH229680   2.628   5.851   0.067  0.6426  0.3437  0.1583
 2682TIP3    H129681   2.670   5.881   0.148 -0.3240 -1.6559  1.4696
 2682TIP3    H229682   2.659   5.762   0.055  1.2765  0.8146 -2.0858
 2683TIP3   OH229683   4.230   5.113   1.550 -0.5621 -0.1904 -0.0488
 2683TIP3    H129684   4.249   5.182   1.486 -0.7412  0.6062  0.7404
 2683TIP3    H229685   4.288   5.041   1.526 -0.4682  0.1852 -0.9681
 2684TIP3   OH229686   6.962   0.428   7.889  0.2880 -0.7379  0.0680
 2684TIP3    H129687   6.885   0.372   7.880  1.0091 -1.7510  0.0232
 2684TIP3    H229688   7.025   0.373   7.935  2.0756 -1.0238 -2.5481
 2685TIP3   OH229689   1.907   1.947   0.262  0.0044  0.1144  0.2706
 2685TIP3    H129690   1.871   2.019   0.210  0.2154 -0.1071 -0.1982
 2685TIP3    H229691   1.999   1.969   0.273 -0.1122  0.3153  0.8236
 2686TIP3   OH229692   0.997   2.239   2.932 -0.0980 -0.6110  0.3915
 2686TIP3    H129693   1.000   2.326   2.892  0.2993 -0.9357 -0.3151
 2686TIP3    H229694   1.039   2.250   3.017 -1.1223  0.1387  0.8196
 2687TIP3   OH229695   2.566   6.869   7.387  0.7439  0.2343  1.0622
 2687TIP3    H129696   2.522   6.784   7.390  0.4146  0.1979 -1.7242
 2687TIP3    H229697   2.516   6.920   7.323  2.3841  1.6111  0.7881
 2688TIP3   OH229698   2.729   4.820   7.929  0.2286  0.2496  0.4100
 2688TIP3    H129699   2.704   4.743   7.980 -0.6544  0.9807  1.1177
 2688TIP3    H229700   2.814   4.798   7.891 -0.0778 -1.1195  0.4850
 2689TIP3   OH229701   4.803   1.129   0.815  0.5412  0.0052  0.1565
 2689TIP3    H129702   4.807   1.050   0.762  0.1740  0.2840 -0.3009
 2689TIP3    H229703   4.812   1.099   0.905 -0.9056 -0.7136  0.0915
 2690TIP3   OH229704   2.846   5.160   1.457  0.5508  0.2998 -0.6109
 2690TIP3    H129705   2.931   5.195   1.432  0.3073  0.4052 -1.3247
 2690TIP3    H229706   2.852   5.145   1.551  1.7995 -0.9145 -0.8614
 2691TIP3   OH229707   3.437   0.724   2.456 -0.2577 -0.5620 -0.3367
 2691TIP3    H129708   3.387   0.740   2.536  0.9141 -0.6057  0.4221
 2691TIP3    H229709   3.382   0.666   2.404 -1.1094 -0.3939  0.3626
 2692TIP3   OH229710   6.971   2.214   7.380 -0.9606 -1.0133  0.0719
 2692TIP3    H129711   7.059   2.177   7.369  0.4178  2.0088 -0.0794
 2692TIP3    H229712   6.937   2.221   7.290 -0.7239 -0.8147 -0.0039
 2693TIP3   OH229713   2.000   4.103   0.523  0.1909  0.5443  0.2863
 2693TIP3    H129714   1.951   4.041   0.577 -0.1761  0.9633  0.4311
 2693TIP3    H229715   2.036   4.049   0.452  0.0789  0.1211  0.5499
 2694TIP3   OH229716   3.405   4.091   0.837 -0.3906  0.2797 -0.0729
 2694TIP3    H129717   3.440   4.179   0.826 -1.2179  0.5329 -0.8420
 2694TIP3    H229718   3.468   4.046   0.894  0.6748  0.9820 -0.6697
 2695TIP3   OH229719   0.720   4.858   8.115 -0.1006 -0.2121  0.3305
 2695TIP3    H129720   0.801   4.866   8.066 -0.2623  3.7377  0.4026
 2695TIP3    H229721   0.743   4.803   8.190  2.1923 -0.1148 -0.2206
 2696TIP3   OH229722   6.093   6.859   0.694 -0.0127 -0.4060 -0.1411
 2696TIP3    H129723   6.188   6.865   0.705 -0.2828  0.4136  2.4919
 2696TIP3    H229724   6.071   6.770   0.719 -0.1028  0.0351  1.4892
 2697TIP3   OH229725   3.537   6.575   1.727  0.4756 -0.0853  1.5471
 2697TIP3    H129726   3.583   6.500   1.765  1.3049  0.8751  2.5339
 2697TIP3    H229727   3.594   6.606   1.657 -0.1484 -0.7156  0.7487
 2698TIP3   OH229728   5.809   4.633   0.847  0.0781  0.1502 -0.4607
 2698TIP3    H129729   5.898   4.607   0.873 -0.1996  0.7030  1.1906
 2698TIP3    H229730   5.806   4.727   0.864 -1.7186 -0.3248  2.5592
 2699TIP3   OH229731   6.604   6.576   2.476  0.7552 -0.5694  0.4324
 2699TIP3    H129732   6.523   6.609   2.513  0.7919 -1.3450  1.2142
 2699TIP3    H229733   6.583   6.488   2.445  1.3064 -0.7801  0.6558
 2700TIP3   OH229734   0.091   4.082   0.108  0.0204 -0.1351  0.2288
 2700TIP3    H129735   0.140   4.016   0.059  1.0121 -0.7232  1.9525
 2700TIP3    H229736   0.142   4.162   0.099  0.5013 -0.3783  0.7502
 2701TIP3   OH229737   2.268   4.722   8.030  0.3450  0.2221  0.0322
 2701TIP3    H129738   2.268   4.815   8.051  0.8352  0.0765  0.7237
 2701TIP3    H229739   2.217   4.715   7.949 -1.6879  0.7903  1.2098
 2702TIP3   OH229740   3.003   0.612   1.410  0.2260 -0.0450  0.5397
 2702TIP3    H129741   3.023   0.563   1.330  1.4002  2.0569 -0.5308
 2702TIP3    H229742   2.924   0.662   1.389 -0.1536 -0.3667  1.1443
 2703TIP3   OH229743   0.232   3.282   8.133  0.0185  0.0486  0.2803
 2703TIP3    H129744   0.215   3.319   8.046  1.7685 -0.1603 -0.2124
 2703TIP3    H229745   0.184   3.338   8.193 -0.8799  0.4678 -0.7842
 2704TIP3   OH229746   5.442   5.897   2.641 -0.1984  0.3193  0.7638
 2704TIP3    H129747   5.370   5.841   2.613 -0.2071  0.0017  1.4078
 2704TIP3    H229748   5.520   5.856   2.605 -0.3763  0.9859 -0.4371
 2705TIP3   OH229749   2.168   6.628   7.799  0.4615 -0.0366 -0.4356
 2705TIP3    H129750   2.081   6.660   7.775  0.9555  1.0162 -0.9017
 2705TIP3    H229751   2.210   6.609   7.715  0.7491 -0.3486 -0.2231
 2706TIP3   OH229752   6.719   2.811   1.523  0.1119 -0.4758 -0.4691
 2706TIP3    H129753   6.635   2.772   1.500 -0.0818  0.1414 -0.8543
 2706TIP3    H229754   6.771   2.805   1.442  0.5801 -1.2054 -0.1227
 2707TIP3   OH229755   6.009   4.574   0.008  0.4269 -0.3178 -0.7809
 2707TIP3    H129756   5.991   4.664   0.037  1.6843  0.5237 -2.4307
 2707TIP3    H229757   5.929   4.547  -0.036 -0.5425 -0.6398  1.0868
 2708TIP3   OH229758   1.065   0.134   2.559  0.0749  0.2127  0.7898
 2708TIP3    H129759   1.034   0.048   2.588  1.2989 -0.6391 -0.2915
 2708TIP3    H229760   1.151   0.144   2.601  0.6193  0.2053 -0.2845
 2709TIP3   OH229761   2.030   3.228   0.580  0.4790  0.2661 -1.1203
 2709TIP3    H129762   1.941   3.197   0.563  0.5227  0.8535 -2.5973
 2709TIP3    H229763   2.080   3.198   0.503  1.4498  0.3649 -0.5426
 2710TIP3   OH229764   4.725   5.593   1.529 -0.6083 -0.4325  0.4210
 2710TIP3    H129765   4.748   5.650   1.456 -0.0864  0.1927  1.0688
 2710TIP3    H229766   4.753   5.506   1.500 -2.5488 -0.6412 -1.1046
 2711TIP3   OH229767   4.430   1.014   2.536 -0.0564 -0.0409 -0.0323
 2711TIP3    H129768   4.504   0.954   2.532 -0.7640 -1.0047  0.9164
 2711TIP3    H229769   4.370   0.974   2.598 -1.6670  0.4054 -1.2383
 2712TIP3   OH229770   1.484   1.900   1.602 -0.0099  0.9098  0.5505
 2712TIP3    H129771   1.424   1.973   1.614  0.3171  0.8428  3.0945
 2712TIP3    H229772   1.540   1.902   1.680 -0.1757 -2.2088  0.8444
 2713TIP3   OH229773   0.672   1.185   7.736  0.1097 -0.2370 -0.4228
 2713TIP3    H129774   0.762   1.157   7.719 -0.0389 -1.4434  0.5854
 2713TIP3    H229775   0.619   1.109   7.713 -0.8173  0.9060 -2.2860
 2714TIP3   OH229776   6.859   0.928   7.739  0.2290 -0.3327 -0.1352
 2714TIP3    H129777   6.772   0.898   7.713  0.4511 -0.5805 -0.6051
 2714TIP3    H229778   6.919   0.862   7.705  0.7078  0.4917 -0.9518
 2715TIP3   OH229779   1.222   6.668   6.748  0.8401 -0.6043 -0.2248
 2715TIP3    H129780   1.173   6.647   6.669 -2.2552  2.7707  0.5208
 2715TIP3    H229781   1.293   6.726   6.717  0.4844 -0.4131 -0.6927
 2716TIP3   OH229782   0.043   3.758   8.429 -0.3925  0.2102  0.5899
 2716TIP3    H129783   0.026   3.681   8.483 -1.2491 -0.3804 -0.4848
 2716TIP3    H229784  -0.000   3.739   8.346  2.1804  0.4200 -0.8847
 2717TIP3   OH229785   4.679   2.609   2.121 -1.1441  0.1121 -0.2007
 2717TIP3    H129786   4.689   2.636   2.213  0.6727  0.1157 -0.3586
 2717TIP3    H229787   4.585   2.619   2.103 -1.1894  2.5117  0.9263
 2718TIP3   OH229788   4.409   5.332   0.625  0.0444 -0.1646 -0.2995
 2718TIP3    H129789   4.495   5.306   0.657  0.4761 -0.3896 -1.5959
 2718TIP3    H229790   4.398   5.422   0.657  0.8146 -0.0890 -0.2193
 2719TIP3   OH229791   1.967   0.450   7.282  0.2424 -0.0557  0.2660
 2719TIP3    H129792   1.985   0.405   7.200 -0.1853 -1.3364  0.8326
 2719TIP3    H229793   2.030   0.414   7.344 -1.0852 -1.0603  1.1039
 2720TIP3   OH229794   2.712   2.170   1.351  0.0526  0.0771  0.0308
 2720TIP3    H129795   2.667   2.174   1.436  0.9258  2.6584  0.4610
 2720TIP3    H229796   2.642   2.155   1.288 -1.2344  2.0930  0.8644
 2721TIP3   OH229797   0.090   0.616   7.749 -0.6547  0.3821 -0.0405
 2721TIP3    H129798   0.053   0.529   7.761  0.5905 -0.2389 -0.4917
 2721TIP3    H229799   0.133   0.636   7.832 -0.4920  0.3357 -0.1130
 2722TIP3   OH229800   6.805   6.932   0.200 -0.1280  0.3737 -0.3845
 2722TIP3    H129801   6.714   6.938   0.230  0.1210 -0.4247  0.5972
 2722TIP3    H229802   6.812   6.997   0.130 -1.4700  0.3889 -0.5283
 2723TIP3   OH229803   3.388   0.188   2.506 -0.0103 -0.6799 -0.0692
 2723TIP3    H129804   3.466   0.170   2.559 -0.5895  0.0713  1.0924
 2723TIP3    H229805   3.315   0.155   2.559 -0.4735 -1.7744 -1.3338
 2724TIP3   OH229806   4.174   4.185   8.221 -0.4249  0.2254  0.4754
 2724TIP3    H129807   4.156   4.256   8.158 -0.1131  0.3746  0.5503
 2724TIP3    H229808   4.166   4.227   8.307 -1.0377 -0.0230  0.5427
 2725TIP3   OH229809   5.878   6.812   2.596 -0.2458  0.0278 -0.2441
 2725TIP3    H129810   5.821   6.773   2.663  0.0246  1.7120  1.0353
 2725TIP3    H229811   5.820   6.867   2.544 -0.4869 -1.4034 -1.5754
 2726TIP3   OH229812   3.356   3.245   0.933 -0.1937  0.2950 -0.6472
 2726TIP3    H129813   3.326   3.278   0.848  1.6797  1.3949 -0.9355
 2726TIP3    H229814   3.452   3.253   0.929  0.0203 -0.9523  1.0496
 2727TIP3   OH229815   1.096   1.566   1.228 -0.2092 -0.3489  0.6461
 2727TIP3    H129816   1.062   1.655   1.240  1.5289  0.4533 -0.0334
 2727TIP3    H229817   1.191   1.577   1.220  0.0011 -2.2145  0.0024
 2728TIP3   OH229818   1.610   2.424   0.651  0.3460  0.1316  0.3220
 2728TIP3    H129819   1.696   2.463   0.669  0.5352 -0.0319 -0.1991
 2728TIP3    H229820   1.550   2.499   0.648 -0.1026  0.0524  3.5972
 2729TIP3   OH229821   2.703   3.310   1.975  0.1441  0.2932  0.7017
 2729TIP3    H129822   2.714   3.358   2.057  1.2265  1.7038 -0.2220
 2729TIP3    H229823   2.792   3.298   1.942 -0.3216  0.6760 -0.7633
 2730TIP3   OH229824   1.103   0.515   8.212 -0.5762 -0.0180 -0.6344
 2730TIP3    H129825   1.184   0.506   8.263 -0.6115  0.5850 -0.4719
 2730TIP3    H229826   1.118   0.460   8.134  0.2111  0.5260 -0.8792
 2731TIP3   OH229827   3.050   4.911   0.299 -0.0577  0.5412 -0.0438
 2731TIP3    H129828   3.069   4.817   0.291  0.9311  0.6754  0.4668
 2731TIP3    H229829   2.955   4.917   0.297 -0.1322 -0.4775 -0.0574
 2732TIP3   OH229830   1.583   5.385   1.631  0.3444  0.8411  0.6438
 2732TIP3    H129831   1.572   5.337   1.549 -1.6223  2.6953 -0.2479
 2732TIP3    H229832   1.633   5.463   1.607 -1.7539  2.2936  0.7778
 2733TIP3   OH229833   6.849   1.532   1.994 -0.0832  0.1263 -0.4605
 2733TIP3    H129834   6.825   1.456   2.046  0.7618 -1.9406 -2.8876
 2733TIP3    H229835   6.765   1.574   1.973 -0.6391 -0.6287  0.2110
 2734TIP3   OH229836   1.205   1.411   7.694 -0.2442  0.0518  0.0751
 2734TIP3    H129837   1.212   1.502   7.724  1.4896  0.2656 -0.9099
 2734TIP3    H229838   1.165   1.417   7.608  1.0301 -0.0016 -0.5320
 2735TIP3   OH229839   3.243   0.068   7.594 -0.3401  0.3171 -0.7129
 2735TIP3    H129840   3.304   0.024   7.535  0.4505  0.7917 -0.2694
 2735TIP3    H229841   3.297   0.131   7.642 -0.6776 -0.9352  1.4544
 2736TIP3   OH229842   3.394   1.934   0.426 -0.3683  0.6860 -0.0276
 2736TIP3    H129843   3.454   2.006   0.446 -0.3946  0.6157  0.3005
 2736TIP3    H229844   3.393   1.931   0.330  1.2521 -0.2159 -0.0656
 2737TIP3   OH229845   6.732   1.936   8.469 -0.3069  0.7205  0.1313
 2737TIP3    H129846   6.659   1.875   8.456  0.1585  0.4865 -1.6015
 2737TIP3    H229847   6.729   1.956   8.563 -0.9861 -1.3225  0.6171
 2738TIP3   OH229848   1.845   6.887   7.373 -0.6054  0.5060 -0.2055
 2738TIP3    H129849   1.916   6.943   7.406 -0.7328  0.8422 -0.4940
 2738TIP3    H229850   1.766   6.925   7.411 -0.7225  0.7081 -0.6467
 2739TIP3   OH229851   4.258   3.759   0.610  0.3640 -0.2044 -0.0278
 2739TIP3    H129852   4.307   3.684   0.645  0.0331 -0.1799  0.4979
 2739TIP3    H229853   4.222   3.728   0.527  0.5483 -0.5055  0.0046
 2740TIP3   OH229854   4.302   0.022   1.525 -0.3154 -0.3236 -0.3380
 2740TIP3    H129855   4.262  -0.014   1.604 -1.8937 -1.9855 -1.7924
 2740TIP3    H229856   4.257   0.104   1.509  0.6122  0.4574  0.9102
 2741TIP3   OH229857   5.129   6.423   1.400 -0.3025  0.0554  0.0070
 2741TIP3    H129858   5.170   6.388   1.321  0.7174 -1.0572  0.9857
 2741TIP3    H229859   5.133   6.518   1.390  0.1769 -0.0748 -1.0833
 2742TIP3   OH229860   5.275   1.592   1.948 -0.6526 -0.0746  0.5505
 2742TIP3    H129861   5.217   1.665   1.927 -1.6226 -0.4993  1.6383
 2742TIP3    H229862   5.217   1.524   1.983  0.4690 -0.6025  1.4655
 2743TIP3   OH229863   5.039   3.051   7.888  0.0824 -0.4789 -0.0800
 2743TIP3    H129864   5.126   3.012   7.892  0.6505  0.7750  0.5448
 2743TIP3    H229865   4.983   2.982   7.854  0.9760 -1.9261  1.2388
 2744TIP3   OH229866   3.670   1.112   1.797  0.4088  0.8249  0.1221
 2744TIP3    H129867   3.608   1.171   1.839  1.3170  0.8408  1.4883
 2744TIP3    H229868   3.739   1.100   1.861  1.2312 -0.1496 -0.9085
 2745TIP3   OH229869   5.320   2.678   1.793 -0.4026  0.6230 -0.1674
 2745TIP3    H129870   5.255   2.726   1.843 -3.8082 -2.0897 -1.5394
 2745TIP3    H229871   5.291   2.686   1.702  1.3975 -0.4419 -0.8928
 2746TIP3   OH229872   6.670   2.199   7.395  0.2040  0.2113 -0.0713
 2746TIP3    H129873   6.676   2.198   7.299 -2.2317 -1.3276 -0.3040
 2746TIP3    H229874   6.591   2.250   7.413  0.4968  0.2707  1.1316
 2747TIP3   OH229875   0.436   1.899   1.120  0.0439  0.3688 -0.4262
 2747TIP3    H129876   0.363   1.936   1.169 -0.9989 -0.6089 -1.1786
 2747TIP3    H229877   0.440   1.807   1.147  0.5416  0.2391 -0.9141
 2748TIP3   OH229878   0.737   0.031   0.791  0.1156  0.6461 -0.0182
 2748TIP3    H129879   0.727   0.125   0.808 -0.5831  0.4492  0.7653
 2748TIP3    H229880   0.717   0.021   0.698  0.7022  1.3378 -0.2258
 2749TIP3   OH229881   4.658   0.990   0.526 -0.0899  0.0016 -0.1869
 2749TIP3    H129882   4.589   0.924   0.535 -1.1173  1.0901  0.1859
 2749TIP3    H229883   4.643   1.029   0.440  0.2431  0.0593 -0.2217
 2750TIP3   OH229884   2.209   5.712   0.912 -0.5820 -0.8057  0.0535
 2750TIP3    H129885   2.223   5.710   0.818 -0.2226  1.0205  0.0232
 2750TIP3    H229886   2.115   5.730   0.921 -0.2967  0.9788 -0.0461
 2751TIP3   OH229887   6.666   6.123   2.202  0.3117  0.2045 -0.1832
 2751TIP3    H129888   6.577   6.142   2.172  0.1717  0.2299  0.2372
 2751TIP3    H229889   6.704   6.069   2.133  0.1180  0.5539 -0.5670
 2752TIP3   OH229890   4.184   5.665   7.006  0.1352 -0.1032  0.0785
 2752TIP3    H129891   4.211   5.756   7.014 -0.0582  0.3632 -3.1980
 2752TIP3    H229892   4.095   5.669   6.970 -0.0532 -1.6065  0.2879
 2753TIP3   OH229893   2.333   3.852   2.108 -0.6263 -0.5176 -0.2802
 2753TIP3    H129894   2.412   3.798   2.106 -0.7851 -0.7429 -1.1486
 2753TIP3    H229895   2.268   3.797   2.153 -0.5694 -0.7467 -0.4712
 2754TIP3   OH229896   2.348   0.325   1.496 -0.9475 -1.0419 -0.0560
 2754TIP3    H129897   2.347   0.421   1.493 -0.4830 -0.8771  2.5980
 2754TIP3    H229898   2.256   0.301   1.494 -1.2043 -0.3523  1.7888
 2755TIP3   OH229899   6.062   4.442   0.885  0.0002 -0.1671  0.3092
 2755TIP3    H129900   6.077   4.515   0.945 -1.6109  0.6181 -0.1687
 2755TIP3    H229901   6.113   4.370   0.920  0.6630  0.8488  1.4872
 2756TIP3   OH229902   1.632   0.483   0.366 -0.1751 -0.9328  0.4906
 2756TIP3    H129903   1.548   0.482   0.412  0.1399  0.1730  1.1150
 2756TIP3    H229904   1.697   0.475   0.435  0.5625  5.3490  1.0494
 2757TIP3   OH229905   6.150   4.184   1.282  0.1046  0.0636 -0.4280
 2757TIP3    H129906   6.239   4.196   1.316  0.4092 -0.6126 -0.9495
 2757TIP3    H229907   6.101   4.147   1.355 -0.0476  1.4709  0.2092
 2758TIP3   OH229908   0.191   3.329   0.002 -0.2254 -0.4232  0.5205
 2758TIP3    H129909   0.180   3.409   0.053  1.3566 -0.8562  1.6181
 2758TIP3    H229910   0.282   3.304   0.017 -0.1570 -1.4181 -1.3131
 2759TIP3   OH229911   4.496   2.255   6.871  0.0912 -0.0081 -0.5338
 2759TIP3    H129912   4.438   2.331   6.862 -0.1846 -0.2953 -1.3451
 2759TIP3    H229913   4.445   2.191   6.921  1.0828  1.0625  1.9956
 2760TIP3   OH229914   3.148   6.555   8.185  0.2072 -0.2177 -0.0763
 2760TIP3    H129915   3.194   6.471   8.191 -0.0106 -0.2326  2.2371
 2760TIP3    H229916   3.088   6.555   8.260  1.4286  2.7124  1.0302
 2761TIP3   OH229917   5.908   3.728   0.695 -0.1720  0.0871 -0.0989
 2761TIP3    H129918   5.900   3.660   0.762  0.6858 -0.7480 -0.8151
 2761TIP3    H229919   5.838   3.789   0.715  0.0895 -0.1089  1.5928
 2762TIP3   OH229920   5.421   4.205   1.892  0.0505 -0.2358  0.3606
 2762TIP3    H129921   5.371   4.227   1.813 -0.1573  0.7517  0.7494
 2762TIP3    H229922   5.376   4.130   1.929 -1.1908  0.6498  0.7193
 2763TIP3   OH229923   5.740   0.194   1.341 -0.1999  0.3910  1.0398
 2763TIP3    H129924   5.801   0.158   1.277  1.5452  1.5123  1.9888
 2763TIP3    H229925   5.664   0.136   1.337  0.4001 -0.3451 -1.0538
 2764TIP3   OH229926   3.341   4.786   0.657  0.3332 -0.3896 -0.3825
 2764TIP3    H129927   3.315   4.827   0.739  2.3693  0.7286 -0.2374
 2764TIP3    H229928   3.376   4.858   0.604  1.9877 -1.5587 -0.9655
 2765TIP3   OH229929   2.783   1.895   1.349 -0.5426 -0.1043  0.9819
 2765TIP3    H129930   2.750   1.984   1.362 -1.5532 -0.7682  3.4825
 2765TIP3    H229931   2.715   1.850   1.300 -0.2263  0.3571  0.1020
 2766TIP3   OH229932   5.929   1.299   2.143  0.0521 -0.1458  0.6898
 2766TIP3    H129933   5.980   1.266   2.069  1.3523 -0.0212  1.4862
 2766TIP3    H229934   5.864   1.357   2.103  2.5183  2.2169 -0.2312
 2767TIP3   OH229935   3.615   2.251   1.768 -0.0553 -0.2291  0.6030
 2767TIP3    H129936   3.681   2.197   1.811  0.2766  1.6659  2.6260
 2767TIP3    H229937   3.637   2.245   1.675  2.4766 -0.3305  1.1318
 2768TIP3   OH229938   2.883   2.572   1.281  0.3288 -0.1121  0.2933
 2768TIP3    H129939   2.914   2.557   1.371 -0.5409  3.4333  1.3343
 2768TIP3    H229940   2.957   2.614   1.237  0.9623 -2.3510 -0.9611
 2769TIP3   OH229941   6.648   3.779   1.740 -0.3363  0.0357 -0.5185
 2769TIP3    H129942   6.593   3.837   1.793 -0.5412 -1.5868  1.1471
 2769TIP3    H229943   6.677   3.711   1.801  1.5165 -0.5278 -1.9405
 2770TIP3   OH229944   3.109   1.456   0.020  0.5325  0.1341 -0.0798
 2770TIP3    H129945   3.109   1.530   0.081  1.0077  1.3061 -1.4232
 2770TIP3    H229946   3.202   1.441   0.001  0.5203 -1.6125  1.0572
 2771TIP3   OH229947   3.296   1.299   1.117 -0.6620 -0.6259  0.5677
 2771TIP3    H129948   3.293   1.289   1.212 -2.6847 -0.3895  0.5601
 2771TIP3    H229949   3.288   1.209   1.084  0.7471 -0.7884  0.5797
 2772TIP3   OH229950   4.061   6.868   2.147 -0.8936  0.2023  0.1675
 2772TIP3    H129951   4.009   6.931   2.197  0.9164  1.1133  0.9911
 2772TIP3    H229952   4.075   6.910   2.062  0.3302  0.9703  0.7229
 2773TIP3   OH229953   3.674   6.829   3.042 -0.6917  0.5079 -0.3395
 2773TIP3    H129954   3.750   6.878   3.010 -0.5109 -0.5189 -1.5918
 2773TIP3    H229955   3.604   6.894   3.050  0.0227  1.2736 -0.2317
 2774TIP3   OH229956   0.032   0.808   6.933 -0.2195 -0.0879 -0.1196
 2774TIP3    H129957   0.073   0.725   6.909  0.0336  0.2714 -0.9740
 2774TIP3    H229958  -0.062   0.791   6.925 -0.1542 -0.1347 -0.8631
 2775TIP3   OH229959   3.258   0.711   0.459 -0.3355  0.3068  0.4942
 2775TIP3    H129960   3.225   0.691   0.371  2.4224 -0.9836 -0.3507
 2775TIP3    H229961   3.188   0.682   0.518 -1.9372  0.5091 -1.2284
 2776TIP3   OH229962   3.484   2.668   2.919  0.3015 -0.1587  0.4586
 2776TIP3    H129963   3.466   2.574   2.925 -1.6093  0.2207  1.4319
 2776TIP3    H229964   3.463   2.702   3.006  0.9894  1.1897  0.1328
 2777TIP3   OH229965   4.705   3.040   1.904 -0.1352 -1.2025  0.3809
 2777TIP3    H129966   4.634   3.104   1.906 -0.5320 -1.5299 -1.4295
 2777TIP3    H229967   4.668   2.965   1.858  1.5152 -1.1689 -1.1049
 2778TIP3   OH229968   0.483   0.678   0.838 -0.2810  0.0619  0.3453
 2778TIP3    H129969   0.395   0.702   0.811 -0.9072 -1.1669  1.1914
 2778TIP3    H229970   0.530   0.661   0.756 -0.8438  0.6331 -0.1044
 2779TIP3   OH229971   1.255   3.416   0.338  0.2060  0.0499 -0.0053
 2779TIP3    H129972   1.223   3.400   0.427  0.6442  3.1213  0.8216
 2779TIP3    H229973   1.182   3.392   0.281 -1.5012  1.4937  1.4664
 2780TIP3   OH229974   1.054   5.581   1.016  0.1610 -0.5716  0.0283
 2780TIP3    H129975   0.995   5.614   0.948  1.4733 -0.7277 -1.2210
 2780TIP3    H229976   1.142   5.603   0.985  0.8071 -0.5925  1.7154
 2781TIP3   OH229977   4.667   3.818   7.381  0.1140  0.0401  0.6192
 2781TIP3    H129978   4.687   3.774   7.464  1.8530 -1.2097 -0.4027
 2781TIP3    H229979   4.753   3.842   7.345 -0.6884  2.0854 -0.0455
 2782TIP3   OH229980   3.381   0.816   7.936 -0.7089  0.4078  0.2275
 2782TIP3    H129981   3.290   0.788   7.928 -0.8407  1.1408 -1.4473
 2782TIP3    H229982   3.431   0.735   7.947 -1.2970 -0.3498 -2.0527
 2783TIP3   OH229983   4.217   3.833   1.922  0.6887  0.2279  0.0164
 2783TIP3    H129984   4.205   3.758   1.980  0.7022  0.7136  0.6545
 2783TIP3    H229985   4.312   3.836   1.906  0.8175  0.7051  0.8095
 2784TIP3   OH229986   1.852   3.777   1.703 -0.5435 -0.6214  0.2451
 2784TIP3    H129987   1.916   3.758   1.634  2.6499  1.1678  2.4595
 2784TIP3    H229988   1.784   3.828   1.659  0.5913 -0.7715 -1.8385
 2785TIP3   OH229989   0.972   1.637   3.302 -0.4052  0.0718 -0.4253
 2785TIP3    H129990   1.026   1.562   3.324  1.8872  1.6341 -0.3384
 2785TIP3    H229991   0.891   1.624   3.352  0.3283 -1.7927  0.3751
 2786TIP3   OH229992   6.635   2.307   1.273 -0.1486 -0.6855 -0.1641
 2786TIP3    H129993   6.586   2.227   1.291  0.5388 -0.6165  2.5174
 2786TIP3    H229994   6.726   2.278   1.264  0.0193 -0.2984  0.2098
 2787TIP3   OH229995   3.545   4.112   7.147  0.3399 -0.1381 -0.0711
 2787TIP3    H129996   3.523   4.020   7.162 -1.7911  0.3682  0.2344
 2787TIP3    H229997   3.631   4.110   7.105 -0.5600 -2.3785 -2.0371
 2788TIP3   OH229998   4.281   3.716   2.405 -0.2434  0.0880  0.4562
 2788TIP3    H129999   4.301   3.630   2.442 -0.4705 -0.2622 -0.2140
 2788TIP3    H230000   4.194   3.738   2.439 -0.6823 -0.4733 -0.2685
 2789TIP3   OH230001   1.052   1.185   1.158  0.0831 -0.4133  0.1380
 2789TIP3    H130002   1.089   1.241   1.090  0.4386  0.0798  0.7250
 2789TIP3    H230003   1.124   1.170   1.219 -0.3408 -0.4882  0.6315
 2790TIP3   OH230004   5.717   0.885   1.663 -0.1987  0.1306 -0.2644
 2790TIP3    H130005   5.797   0.901   1.613 -0.3383  2.0811  0.0407
 2790TIP3    H230006   5.734   0.803   1.709  1.5821  0.4191 -0.3181
 2791TIP3   OH230007   4.290   1.820   2.083 -0.2694  0.2214  0.5127
 2791TIP3    H130008   4.310   1.875   2.159  1.4791  0.2209  0.0879
 2791TIP3    H230009   4.358   1.841   2.020 -0.4944 -1.2868 -0.2620
 2792TIP3   OH230010   4.403   5.729   1.854 -0.7197  0.1512  0.1325
 2792TIP3    H130011   4.349   5.650   1.851 -1.0545  0.3230  1.0860
 2792TIP3    H230012   4.492   5.697   1.843 -1.0180 -0.0607 -2.2483
 2793TIP3   OH230013   5.075   4.951   0.938  0.1089 -0.3875 -0.4712
 2793TIP3    H130014   5.169   4.939   0.940  0.1544  0.0034 -0.2343
 2793TIP3    H230015   5.051   4.941   0.846  0.3553 -0.6495 -0.5084
 2794TIP3   OH230016   4.251   6.709   0.716 -0.1150 -0.3958 -0.2666
 2794TIP3    H130017   4.208   6.633   0.755 -0.1007 -0.7691 -0.9729
 2794TIP3    H230018   4.269   6.766   0.791  0.5662 -1.4191  0.3938
 2795TIP3   OH230019   4.696   2.296   0.840  0.2483  0.2557 -0.0745
 2795TIP3    H130020   4.679   2.389   0.850  0.2562  0.0216  2.6911
 2795TIP3    H230021   4.613   2.260   0.807  0.0468  1.1195 -0.5386
 2796TIP3   OH230022   0.009   3.519   0.095  0.6034  0.4353 -0.0756
 2796TIP3    H130023  -0.060   3.453   0.085  1.4105 -0.2440 -1.5348
 2796TIP3    H230024   0.042   3.506   0.184  0.3885 -0.7908 -0.1568
 2797TIP3   OH230025   2.857   1.335   7.059 -0.6640 -0.5717  0.3547
 2797TIP3    H130026   2.807   1.390   6.999 -1.1090 -0.0827  1.1734
 2797TIP3    H230027   2.872   1.389   7.136  2.4439 -0.1443 -0.4099
 2798TIP3   OH230028   0.922   4.456   0.096 -0.0738 -0.0394  0.1324
 2798TIP3    H130029   0.951   4.365   0.102  0.0928  0.0707  1.1246
 2798TIP3    H230030   0.984   4.505   0.149  0.2186  0.7574 -0.9150
 2799TIP3   OH230031   3.889   2.359   8.096  0.4058 -0.5243  0.1827
 2799TIP3    H130032   3.799   2.355   8.129 -0.5249 -0.1382 -2.1312
 2799TIP3    H230033   3.908   2.452   8.088  0.2018 -0.5997 -1.3313
 2800TIP3   OH230034   1.249   5.776   1.523 -1.1143  0.1770  0.0942
 2800TIP3    H130035   1.203   5.693   1.509  0.2707 -1.0283  2.1883
 2800TIP3    H230036   1.222   5.804   1.610  0.7386  0.3426  0.6462
 2801TIP3   OH230037   2.407   2.904   2.658 -0.3544 -0.0385 -0.0127
 2801TIP3    H130038   2.397   2.929   2.750 -0.5149  0.9768 -0.2919
 2801TIP3    H230039   2.485   2.848   2.656 -1.0787 -1.1401  0.9258
 2802TIP3   OH230040   2.135   6.007   0.751  0.2097 -0.2043 -0.1521
 2802TIP3    H130041   2.192   5.961   0.689  0.0890 -2.4049  1.2782
 2802TIP3    H230042   2.047   5.994   0.716  0.1456 -1.3953  0.4174
 2803TIP3   OH230043   6.279   3.927   7.490 -0.3917  0.3075 -0.0258
 2803TIP3    H130044   6.196   3.885   7.514 -0.2249  0.6620  1.2588
 2803TIP3    H230045   6.270   4.017   7.522  0.2089  0.5472 -0.5222
 2804TIP3   OH230046   3.503   6.238   0.360  0.3376  0.4145  0.0897
 2804TIP3    H130047   3.470   6.232   0.450 -1.7947 -0.5539 -0.6957
 2804TIP3    H230048   3.426   6.225   0.305  1.1073  3.3591 -1.9614
 2805TIP3   OH230049   5.255   6.203   1.283  0.2938  0.7576 -0.6263
 2805TIP3    H130050   5.291   6.151   1.355  2.2618  0.3416 -1.8527
 2805TIP3    H230051   5.169   6.164   1.266  0.6727 -0.4631  0.1223
 2806TIP3   OH230052   2.335   2.599   3.021 -0.5353 -0.0048 -0.1537
 2806TIP3    H130053   2.337   2.690   3.049 -1.6940 -0.3461  1.1823
 2806TIP3    H230054   2.255   2.591   2.969 -1.1451 -0.5250  0.8315
 2807TIP3   OH230055   6.210   6.984   1.994 -0.7431  0.1705 -0.4353
 2807TIP3    H130056   6.277   6.916   1.988 -0.8114  0.0895 -0.2700
 2807TIP3    H230057   6.223   7.037   1.915  0.1681  0.7631  0.1035
 2808TIP3   OH230058   5.015   3.997   8.281 -0.0295  0.4234  0.2312
 2808TIP3    H130059   5.106   3.966   8.278 -0.2308 -0.2084  0.5593
 2808TIP3    H230060   5.003   4.042   8.197  0.6959  0.8354  0.3347
 2809TIP3   OH230061   2.992   5.619   2.040 -0.2308  0.0092  0.7300
 2809TIP3    H130062   3.070   5.670   2.062  0.5530 -0.7204 -0.2709
 2809TIP3    H230063   2.926   5.648   2.103 -0.1285  2.9632 -0.3605
 2810TIP3   OH230064   6.833   1.123   0.575 -0.4024  0.5106  0.8746
 2810TIP3    H130065   6.803   1.038   0.543  1.5877  0.3523 -0.7248
 2810TIP3    H230066   6.757   1.180   0.562 -1.4013 -0.7406  0.9035
 2811TIP3   OH230067   6.043   1.979   0.019 -0.0379  0.6290 -0.9255
 2811TIP3    H130068   5.968   1.951   0.070  1.7609  1.4974  2.4548
 2811TIP3    H230069   6.098   1.900   0.013 -0.4286  0.4132 -2.0288
 2812TIP3   OH230070   3.470   4.073   2.770  0.3423  0.4209  0.0321
 2812TIP3    H130071   3.475   3.978   2.779 -1.3640  0.2218 -0.6485
 2812TIP3    H230072   3.483   4.106   2.859  0.4065 -0.4810  0.3665
 2813TIP3   OH230073   6.427   1.223   0.120  0.1233 -0.1406  0.5334
 2813TIP3    H130074   6.383   1.299   0.082  0.1643 -1.4768 -2.4064
 2813TIP3    H230075   6.365   1.151   0.112  0.7509 -0.8459  1.6274
 2814TIP3   OH230076   3.378   2.823   2.310 -0.6950  0.0921  0.3920
 2814TIP3    H130077   3.320   2.897   2.293  1.0954  1.5622  0.5022
 2814TIP3    H230078   3.382   2.776   2.227 -1.7704  0.1170  0.3040
 2815TIP3   OH230079   5.444   0.563   2.740 -0.1303 -0.2333  0.4882
 2815TIP3    H130080   5.527   0.520   2.720 -0.5593 -0.7483 -0.2118
 2815TIP3    H230081   5.469   0.643   2.787  0.7934 -0.0468 -0.2998
 2816TIP3   OH230082   3.715   6.701   1.563  0.4511 -0.5138 -0.5388
 2816TIP3    H130083   3.810   6.703   1.574  0.2294  1.1890  2.0946
 2816TIP3    H230084   3.700   6.744   1.479  2.0111 -1.2374 -1.2177
 2817TIP3   OH230085   4.766   3.921   7.835  0.2443 -0.8506  0.3989
 2817TIP3    H130086   4.714   3.942   7.913 -0.8879 -0.7305 -0.3571
 2817TIP3    H230087   4.701   3.891   7.771  0.2814  3.9275 -2.3297
 2818TIP3   OH230088   6.498   6.299   0.920  0.7859  0.1647  0.4071
 2818TIP3    H130089   6.535   6.386   0.937 -1.4038  1.4183 -0.7217
 2818TIP3    H230090   6.545   6.266   0.844  1.2498  0.6248  0.4925
 2819TIP3   OH230091   2.435   1.469   8.180 -0.4183  0.1101 -0.4343
 2819TIP3    H130092   2.360   1.529   8.186  0.3683  1.2533 -1.5071
 2819TIP3    H230093   2.506   1.523   8.145  1.5135 -0.4177  2.3818
 2820TIP3   OH230094   3.627   0.584   7.805 -0.2062  0.3997  0.4336
 2820TIP3    H130095   3.682   0.519   7.848 -1.6471 -1.3284 -0.2057
 2820TIP3    H230096   3.538   0.567   7.838 -1.0397  0.2588 -1.7084
 2821TIP3   OH230097   2.947   2.298   0.064 -0.2879 -0.2130  0.3018
 2821TIP3    H130098   2.997   2.380   0.067  0.0404 -0.3943  0.0339
 2821TIP3    H230099   3.007   2.236   0.022 -0.3062 -0.7517  1.0531
 2822TIP3   OH230100   0.343   2.200   1.462 -0.3120  0.3181  0.4538
 2822TIP3    H130101   0.405   2.247   1.518  1.2683 -2.0438  0.8251
 2822TIP3    H230102   0.282   2.160   1.523 -0.5521  0.4116  0.2732
 2823TIP3   OH230103   1.181   4.360   7.629 -0.2830 -0.4109  0.1935
 2823TIP3    H130104   1.185   4.443   7.677 -0.2786  1.1230 -2.2727
 2823TIP3    H230105   1.148   4.297   7.693 -2.1942  1.9039  1.6776
 2824TIP3   OH230106   3.412   3.530   2.454  0.2219 -0.3758  0.5137
 2824TIP3    H130107   3.362   3.527   2.372 -0.1259 -0.4073  0.7250
 2824TIP3    H230108   3.393   3.616   2.491  2.2110  0.5900 -0.5676
 2825TIP3   OH230109   6.511   3.636   1.074  0.0791 -0.0098 -0.3545
 2825TIP3    H130110   6.467   3.573   1.131  1.8278  0.1762  1.3129
 2825TIP3    H230111   6.602   3.635   1.103  0.7147  1.2807 -2.1376
 2826TIP3   OH230112   3.614   5.217   0.111 -0.0571 -0.0735 -0.2392
 2826TIP3    H130113   3.549   5.260   0.167 -1.8374 -0.2852 -2.0528
 2826TIP3    H230114   3.583   5.232   0.022  0.9784 -2.4192 -1.0694
 2827TIP3   OH230115   0.726   5.484   8.035 -0.2860  0.0932  0.2177
 2827TIP3    H130116   0.648   5.462   8.088  1.2119  0.0181  2.5464
 2827TIP3    H230117   0.799   5.471   8.095  1.3930  2.2405 -1.2439
 2828TIP3   OH230118   1.966   1.114   1.892  0.3835 -0.5140  0.5572
 2828TIP3    H130119   1.993   1.206   1.889  0.5274 -0.5670  0.1516
 2828TIP3    H230120   2.031   1.073   1.949  0.9969 -0.5807 -0.1703
 2829TIP3   OH230121   6.164   1.862   8.229  0.2449 -0.0015 -0.0007
 2829TIP3    H130122   6.209   1.923   8.171  0.5491  0.6220  0.8707
 2829TIP3    H230123   6.219   1.858   8.308  0.4784 -1.7786 -0.2257
 2830TIP3   OH230124   1.439   4.709   7.912 -0.2492 -0.5672  0.8193
 2830TIP3    H130125   1.469   4.763   7.839 -1.1048 -2.0864 -0.7064
 2830TIP3    H230126   1.494   4.737   7.986 -2.0057  3.9347  0.7779
 2831TIP3   OH230127   6.841   5.304   1.398  0.0022 -0.0620  0.0928
 2831TIP3    H130128   6.902   5.248   1.350  0.5260  0.6630 -0.1004
 2831TIP3    H230129   6.817   5.372   1.334 -1.0457 -0.3640  0.1483
 2832TIP3   OH230130   0.334   6.471   1.324 -0.6286  0.1827  0.2268
 2832TIP3    H130131   0.424   6.461   1.292 -0.6600  1.7927 -0.4451
 2832TIP3    H230132   0.280   6.470   1.245 -1.2469 -0.9060  0.6357
 2833TIP3   OH230133   3.085   2.624   7.787  0.8041  0.3400  0.4660
 2833TIP3    H130134   3.038   2.642   7.869  0.5040  0.0441  0.3589
 2833TIP3    H230135   3.080   2.529   7.777 -0.7476  0.5155 -0.8228
 2834TIP3   OH230136   5.708   3.281   1.836  0.1481  0.1934  0.5816
 2834TIP3    H130137   5.720   3.355   1.896  0.3257  0.5265  0.1512
 2834TIP3    H230138   5.715   3.203   1.891 -0.9002  0.5059  1.1946
 2835TIP3   OH230139   3.108   0.694   7.938 -0.3250 -0.2587 -0.0704
 2835TIP3    H130140   3.075   0.639   7.867 -0.0086  0.1567 -0.5416
 2835TIP3    H230141   3.091   0.784   7.910  0.3805 -0.0702  0.0862
 2836TIP3   OH230142   2.998   3.967   8.400  0.0768  0.6834  0.3354
 2836TIP3    H130143   3.051   3.905   8.449  0.6579  0.9745  0.0864
 2836TIP3    H230144   2.992   4.044   8.457 -0.7935  0.3410  0.7215
 2837TIP3   OH230145   3.296   6.107   1.401 -0.3496  0.3498  0.3045
 2837TIP3    H130146   3.379   6.146   1.431  0.4483 -0.1337 -1.1629
 2837TIP3    H230147   3.293   6.021   1.444  0.7779 -0.3332 -0.8972
 2838TIP3   OH230148   4.129   6.681   1.022  0.0563  0.1698  0.2474
 2838TIP3    H130149   4.143   6.593   0.988  1.2848 -0.3339  1.8869
 2838TIP3    H230150   4.065   6.669   1.093 -0.4454  0.7411 -0.1034
 2839TIP3   OH230151   2.246   0.903   8.087  0.0689  0.0717  0.2091
 2839TIP3    H130152   2.280   0.815   8.072 -2.1832 -0.6884 -0.8690
 2839TIP3    H230153   2.187   0.892   8.162 -0.2899  0.6525  0.0088
 2840TIP3   OH230154   5.110   6.916   2.029 -0.3526  0.0069 -0.0308
 2840TIP3    H130155   5.047   6.943   1.962  1.2011  1.2470 -1.0741
 2840TIP3    H230156   5.128   6.996   2.078  1.3308  0.0152 -0.5895
 2841TIP3   OH230157   4.852   3.468   1.735  0.3862 -0.1673 -0.3925
 2841TIP3    H130158   4.898   3.502   1.659  1.4509  1.3062  0.8306
 2841TIP3    H230159   4.773   3.522   1.742  1.1269  0.8437  0.4656
 2842TIP3   OH230160   0.952   0.172   0.471 -0.2458  0.1127  0.0182
 2842TIP3    H130161   0.911   0.241   0.419 -1.5605 -0.9133 -0.3759
 2842TIP3    H230162   0.879   0.130   0.517  0.3371 -1.7490 -0.6721
 2843TIP3   OH230163   0.058   2.979   7.928 -0.6835 -0.4749  0.2994
 2843TIP3    H130164   0.112   2.951   7.854 -1.3076  0.6729 -0.6179
 2843TIP3    H230165   0.044   3.072   7.914 -2.5404 -0.6540  0.7349
 2844TIP3   OH230166   3.276   4.608   1.394  0.2858 -0.5096 -0.1305
 2844TIP3    H130167   3.356   4.561   1.369  0.7754 -0.2338  0.8550
 2844TIP3    H230168   3.247   4.565   1.474 -1.6858 -1.8784 -1.5059
 2845TIP3   OH230169   5.792   6.980   0.091  0.1396 -0.0013 -0.2427
 2845TIP3    H130170   5.884   6.998   0.072  0.8000 -0.9365  1.8400
 2845TIP3    H230171   5.763   7.054   0.143 -0.0420 -0.1076 -0.1913
 2846TIP3   OH230172   6.699   2.545   2.498  0.2860  0.2105  0.5593
 2846TIP3    H130173   6.768   2.480   2.485  0.3336 -0.4556  3.4373
 2846TIP3    H230174   6.621   2.494   2.517 -0.1205  0.9639  0.9698
 2847TIP3   OH230175   6.366   0.808   1.350 -0.4763  0.2195 -0.2703
 2847TIP3    H130176   6.275   0.781   1.360 -0.9127  0.6615 -2.3924
 2847TIP3    H230177   6.361   0.893   1.307  0.9230  0.2725 -0.3760
 2848TIP3   OH230178   2.975   0.582   1.703 -0.1053  0.4062  0.2090
 2848TIP3    H130179   2.934   0.534   1.631  0.9576  0.3017 -0.3356
 2848TIP3    H230180   3.008   0.662   1.663 -3.4167  2.5744  1.4073
 2849TIP3   OH230181   3.258   6.134   7.534 -0.4204 -0.4777 -0.2383
 2849TIP3    H130182   3.250   6.220   7.493 -1.7519 -0.1107  0.7191
 2849TIP3    H230183   3.299   6.079   7.467 -1.4408  0.3857 -1.6339
 2850TIP3   OH230184   0.340   5.534   7.091 -0.5563 -0.0776 -0.5269
 2850TIP3    H130185   0.335   5.553   6.998  0.6140 -1.2061 -0.8577
 2850TIP3    H230186   0.336   5.620   7.134 -0.9819  0.4567 -1.6090
 2851TIP3   OH230187   2.973   6.038   7.445  0.1709 -0.2309  0.3471
 2851TIP3    H130188   2.927   5.970   7.494  1.3567 -0.9255  0.5535
 2851TIP3    H230189   3.052   6.055   7.497  1.2959 -0.7432 -1.1188
 2852TIP3   OH230190   2.023   3.256   7.829  0.0058  0.7613 -0.0695
 2852TIP3    H130191   1.935   3.271   7.863  0.3256  1.3057  0.5552
 2852TIP3    H230192   2.075   3.328   7.864  0.7495  0.3323 -0.2514
 2853TIP3   OH230193   0.439   4.443   0.553 -0.1022  0.4677  0.3449
 2853TIP3    H130194   0.351   4.463   0.519 -2.0589 -3.3557  2.4085
 2853TIP3    H230195   0.498   4.464   0.480 -2.7918  2.3045 -1.5011
 2854TIP3   OH230196   1.395   1.042   2.293 -0.0056 -0.7962 -0.6126
 2854TIP3    H130197   1.423   1.118   2.241  1.5142 -0.5142  0.5353
 2854TIP3    H230198   1.306   1.064   2.320  0.0333  0.1161 -1.1565
 2855TIP3   OH230199   5.511   2.141   0.136 -0.1264  0.1668 -0.1398
 2855TIP3    H130200   5.471   2.191   0.065 -0.1257  0.1208 -0.1726
 2855TIP3    H230201   5.545   2.062   0.093 -0.2122  0.0931 -0.0727
 2856TIP3   OH230202   3.771   3.087   0.254 -0.0436  0.6137  0.2016
 2856TIP3    H130203   3.742   3.015   0.310  0.6972 -0.4433 -0.7218
 2856TIP3    H230204   3.789   3.046   0.169  3.9291  1.1158  0.5970
 2857TIP3   OH230205   4.856   0.900   0.059  0.0726  0.1427  0.1494
 2857TIP3    H130206   4.827   0.908   0.150  1.0931  1.0263  0.4136
 2857TIP3    H230207   4.775   0.889   0.009 -0.4126 -2.1871  1.3066
 2858TIP3   OH230208   0.143   0.030   1.975 -0.2019  0.7401 -0.1597
 2858TIP3    H130209   0.136  -0.057   1.937  1.5385  0.4250  0.1587
 2858TIP3    H230210   0.186   0.082   1.907  1.4610  0.5719  0.6981
 2859TIP3   OH230211   0.943   5.976   2.971 -0.1918  0.1377  0.4028
 2859TIP3    H130212   0.870   5.919   2.995  0.3982 -1.3034 -1.0828
 2859TIP3    H230213   0.990   5.928   2.903  1.9926  1.1447  1.1010
 2860TIP3   OH230214   2.176   3.087   2.582  0.0589  0.2112  0.1209
 2860TIP3    H130215   2.237   3.130   2.642 -0.3552  0.6617  0.2272
 2860TIP3    H230216   2.129   3.023   2.636  0.5792 -0.2853 -0.0074
 2861TIP3   OH230217   4.053   4.426   2.125  0.3682  0.3167  0.2159
 2861TIP3    H130218   4.124   4.449   2.065 -0.2579  2.6673  0.2612
 2861TIP3    H230219   4.066   4.483   2.201 -1.9484  1.3655 -0.0969
 2862TIP3   OH230220   3.329   5.871   0.952  0.4967 -0.0981  0.1733
 2862TIP3    H130221   3.264   5.802   0.940  1.4952 -1.0330  0.0219
 2862TIP3    H230222   3.357   5.862   1.044  0.4066  0.3101  0.2424
 2863TIP3   OH230223   2.396   3.119   7.672  0.1104 -0.2975  0.2459
 2863TIP3    H130224   2.319   3.080   7.713  0.2110 -0.8238 -0.0607
 2863TIP3    H230225   2.433   3.175   7.740  0.4566 -1.3999  0.9958
 2864TIP3   OH230226   2.008   2.474   1.733 -0.2134 -0.4767 -0.0532
 2864TIP3    H130227   2.004   2.381   1.755  0.4697 -0.4207  0.3544
 2864TIP3    H230228   1.973   2.519   1.810  0.7650 -0.3434  0.3264
 2865TIP3   OH230229   0.396   1.668   0.891 -0.0164 -0.2244 -0.9141
 2865TIP3    H130230   0.444   1.626   0.820  1.5491  0.1062 -0.0905
 2865TIP3    H230231   0.370   1.753   0.855  2.6915  0.9002 -0.4861
 2866TIP3   OH230232   1.947   2.834   7.847 -0.2486 -0.3868 -0.2133
 2866TIP3    H130233   1.859   2.823   7.884  0.2357 -2.1632  0.5625
 2866TIP3    H230234   1.932   2.861   7.756 -1.5936 -0.4194 -0.0239
 2867TIP3   OH230235   4.349   1.284   0.778  0.1336 -0.7886  0.1390
 2867TIP3    H130236   4.360   1.290   0.873  0.8474 -0.0055  0.0255
 2867TIP3    H230237   4.257   1.306   0.763 -0.3646 -2.3223  0.7459
 2868TIP3   OH230238   3.755   0.099   1.113  0.3477 -0.1882 -0.2826
 2868TIP3    H130239   3.814   0.032   1.077 -0.5542 -2.2045  1.7325
 2868TIP3    H230240   3.755   0.083   1.207 -2.2111  0.7481 -0.0359
 2869TIP3   OH230241   0.605   5.158   1.208 -0.4350 -0.0781  0.4132
 2869TIP3    H130242   0.513   5.158   1.185 -0.6207  1.3898  1.0559
 2869TIP3    H230243   0.629   5.251   1.213  1.2635 -0.4325 -0.4617
 2870TIP3   OH230244   4.319   4.684   1.728 -0.2629 -0.0216  0.1975
 2870TIP3    H130245   4.244   4.729   1.766 -0.4919  0.9182 -1.2793
 2870TIP3    H230246   4.283   4.632   1.656  0.2045 -1.4553  0.9455
 2871TIP3   OH230247   4.385   0.018   2.112 -0.0624  0.5973  0.2625
 2871TIP3    H130248   4.463   0.022   2.056 -0.3455  3.1149 -0.0640
 2871TIP3    H230249   4.332  -0.053   2.074  1.6942 -0.6746  0.0511
 2872TIP3   OH230250   6.654   5.847   8.183  0.7168  0.4516 -0.1587
 2872TIP3    H130251   6.725   5.839   8.120 -0.3260 -0.9183 -1.2260
 2872TIP3    H230252   6.577   5.815   8.136  0.0314 -1.3501  2.0473
 2873TIP3   OH230253   5.522   0.897   8.182 -0.8570  0.7829 -0.3750
 2873TIP3    H130254   5.455   0.962   8.203 -0.2302  1.3339 -0.0317
 2873TIP3    H230255   5.605   0.945   8.188 -0.2089 -0.4816  1.8119
 2874TIP3   OH230256   3.669   6.338   1.759 -0.0469  0.1002  0.2576
 2874TIP3    H130257   3.749   6.365   1.803  1.3734  0.0089 -2.0789
 2874TIP3    H230258   3.643   6.257   1.802  0.4562  0.7145  1.7715
 2875TIP3   OH230259   2.797   6.375   1.983 -0.0811 -0.0085  0.3726
 2875TIP3    H130260   2.802   6.467   2.009  3.4164  0.4248 -1.1799
 2875TIP3    H230261   2.883   6.356   1.946 -1.2322 -3.4742 -0.9636
 2876TIP3   OH230262   6.748   3.888   2.615  0.0275 -0.3136 -0.5387
 2876TIP3    H130263   6.780   3.913   2.702 -2.1559  0.3264  0.1377
 2876TIP3    H230264   6.746   3.792   2.618 -0.2470 -0.2956  0.2021
 2877TIP3   OH230265   6.513   4.546   8.142 -0.5252  0.1047 -0.2817
 2877TIP3    H130266   6.467   4.629   8.128 -0.4428  0.0196 -1.0963
 2877TIP3    H230267   6.603   4.571   8.163 -0.8481  0.2616  1.0351
 2878TIP3   OH230268   0.276   3.815   0.540 -0.3928  0.1226 -0.2582
 2878TIP3    H130269   0.185   3.792   0.520 -0.5972 -0.5118  1.2083
 2878TIP3    H230270   0.269   3.901   0.582 -0.2033  0.4786 -0.9401
 2879TIP3   OH230271   1.009   1.517   1.809 -0.0668  0.4814 -0.0427
 2879TIP3    H130272   1.057   1.440   1.778 -1.4907 -0.8540  0.9165
 2879TIP3    H230273   1.078   1.579   1.833  1.1074  0.3679 -2.7387
 2880TIP3   OH230274   4.501   2.884   1.567 -0.0033  0.0239 -0.4990
 2880TIP3    H130275   4.554   2.962   1.584  2.6736 -1.2429 -2.4240
 2880TIP3    H230276   4.559   2.811   1.588 -2.1028 -1.4934  0.2880
 2881TIP3   OH230277   4.819   3.772   0.620  0.0193  0.1080  0.4395
 2881TIP3    H130278   4.893   3.756   0.679  1.9408  0.7054 -1.6547
 2881TIP3    H230279   4.774   3.687   0.615  1.2856 -0.6177  0.8638
 2882TIP3   OH230280   2.752   1.116   3.063 -0.4913  0.1050 -0.2001
 2882TIP3    H130281   2.767   1.093   2.972  0.5069  1.1311 -0.3114
 2882TIP3    H230282   2.660   1.096   3.078 -0.2907 -1.5828 -0.9676
 2883TIP3   OH230283   0.084   1.389   6.722 -0.3144 -0.1005  0.3037
 2883TIP3    H130284   0.029   1.319   6.685 -2.3216  2.0267 -1.0260
 2883TIP3    H230285   0.113   1.439   6.645  1.4570  0.3215  1.1920
 2884TIP3   OH230286   1.499   6.054   7.550  0.2161 -0.0736  0.1533
 2884TIP3    H130287   1.453   6.124   7.598  1.1201  0.0429  0.8705
 2884TIP3    H230288   1.429   5.994   7.523 -0.2379 -1.2279  3.3597
 2885TIP3   OH230289   4.917   1.771   7.894 -0.2677  0.4650 -0.3396
 2885TIP3    H130290   4.949   1.681   7.883 -0.2092  0.5588 -0.9784
 2885TIP3    H230291   4.831   1.771   7.853 -0.4532  0.5921  0.0495
 2886TIP3   OH230292   5.712   5.425   7.800 -0.4439 -0.1187 -1.0050
 2886TIP3    H130293   5.770   5.437   7.726 -0.7053  1.4637 -0.9795
 2886TIP3    H230294   5.628   5.401   7.761 -0.0203 -1.5704 -1.0798
 2887TIP3   OH230295   4.978   1.866   0.712 -0.4893  0.3746 -0.1262
 2887TIP3    H130296   4.909   1.929   0.729 -1.2852 -0.4276 -0.2934
 2887TIP3    H230297   4.943   1.782   0.742  0.5344 -0.0004  0.0765
 2888TIP3   OH230298   3.997   1.636   7.570 -0.3096 -0.7256  0.0383
 2888TIP3    H130299   4.054   1.632   7.493  0.1389  0.8178  0.2518
 2888TIP3    H230300   4.030   1.567   7.628  0.7499 -0.4827 -0.2448
 2889TIP3   OH230301   1.873   2.560   2.572  0.6168  0.5308 -0.2887
 2889TIP3    H130302   1.898   2.650   2.551  0.1852  1.0637  1.4051
 2889TIP3    H230303   1.832   2.565   2.658  0.0098 -1.2008 -0.4357
 2890TIP3   OH230304   2.348   4.770   1.698 -0.3560  0.0004 -0.0172
 2890TIP3    H130305   2.389   4.854   1.676 -2.1566  1.1009  0.5415
 2890TIP3    H230306   2.411   4.726   1.755  0.3070  1.3276  0.3175
 2891TIP3   OH230307   4.481   5.447   3.061 -0.2096  0.1446  0.0616
 2891TIP3    H130308   4.500   5.402   3.144  0.0272  0.2295  0.0544
 2891TIP3    H230309   4.483   5.540   3.084  1.1651  0.2237 -0.3049
 2892TIP3   OH230310   1.766   1.432   0.091  0.2995 -0.0339  0.5233
 2892TIP3    H130311   1.775   1.526   0.074  0.3443  0.1428  1.4218
 2892TIP3    H230312   1.705   1.428   0.165  0.9783 -0.6559  1.0615
 2893TIP3   OH230313   4.870   6.715   7.656  0.3453 -0.7878 -0.3104
 2893TIP3    H130314   4.906   6.718   7.567  1.0023 -3.7792 -0.2657
 2893TIP3    H230315   4.789   6.666   7.647  0.4547 -1.1913  0.7223
 2894TIP3   OH230316   2.044   6.564   2.933 -0.4601  0.1262  0.2448
 2894TIP3    H130317   2.104   6.491   2.948 -0.9619 -0.2479  0.4688
 2894TIP3    H230318   2.081   6.636   2.983 -0.8021 -0.4246  1.3077
 2895TIP3   OH230319   6.048   1.976   0.873  0.5467  0.4257  0.4294
 2895TIP3    H130320   5.999   2.024   0.940 -0.3590  0.3342 -0.1543
 2895TIP3    H230321   6.113   1.926   0.923 -1.0306 -0.7600  1.4145
 2896TIP3   OH230322   1.991   0.304   1.944  0.1037 -0.5998 -0.0706
 2896TIP3    H130323   1.922   0.303   1.878  0.7995 -0.5417 -0.8072
 2896TIP3    H230324   1.954   0.255   2.018 -0.0375 -2.2042 -1.1650
 2897TIP3   OH230325   4.738   0.413   7.650  0.0955  0.2680 -0.4416
 2897TIP3    H130326   4.729   0.425   7.556  1.3177  1.3259 -0.4500
 2897TIP3    H230327   4.832   0.413   7.666 -0.0951  0.5948  0.8263
 2898TIP3   OH230328   3.635   5.215   2.049 -0.0078  0.0460  0.1053
 2898TIP3    H130329   3.615   5.187   2.139  1.8940 -2.1989 -0.0849
 2898TIP3    H230330   3.586   5.155   1.993  0.5807 -0.0202 -0.3488
 2899TIP3   OH230331   3.250   4.642   0.454 -0.0491  0.5368 -0.0197
 2899TIP3    H130332   3.167   4.597   0.473  0.8217 -1.9852 -1.7284
 2899TIP3    H230333   3.280   4.674   0.539 -1.0164 -1.6594  1.2258
 2900TIP3   OH230334   6.190   6.469   8.363 -0.3644 -0.1557 -0.3350
 2900TIP3    H130335   6.129   6.519   8.309  0.2273  0.7500 -0.1907
 2900TIP3    H230336   6.239   6.417   8.299 -1.2050 -0.8149 -0.4580
 2901TIP3   OH230337   4.671   2.423   1.721  0.1264  0.0732 -0.1149
 2901TIP3    H130338   4.641   2.348   1.773 -1.4378  0.2654 -0.6566
 2901TIP3    H230339   4.707   2.384   1.641 -1.8086 -0.1548 -0.9581
 2902TIP3   OH230340   4.449   1.836   1.863  0.4872 -0.3401  0.3838
 2902TIP3    H130341   4.528   1.876   1.828 -0.9688  1.5885 -0.9631
 2902TIP3    H230342   4.427   1.766   1.801  0.2250  0.2799 -0.2419
 2903TIP3   OH230343   4.739   3.387   3.204  0.0160  0.0278 -0.1119
 2903TIP3    H130344   4.790   3.329   3.148 -0.5175  0.6023 -1.2204
 2903TIP3    H230345   4.699   3.329   3.268  0.1661 -0.7216 -0.6853
 2904TIP3   OH230346   2.592   3.267   1.009  0.6138  0.0192 -0.1522
 2904TIP3    H130347   2.661   3.331   0.997  0.6170 -0.0953 -0.7601
 2904TIP3    H230348   2.632   3.183   0.985  0.1594  0.0053 -0.9004
 2905TIP3   OH230349   4.562   1.370   0.293 -0.6083 -0.0787 -0.2393
 2905TIP3    H130350   4.533   1.283   0.266 -1.2593 -0.2717  0.9914
 2905TIP3    H230351   4.658   1.363   0.295 -0.6489 -0.7361 -0.2723
 2906TIP3   OH230352   5.993   1.544   0.062  0.1626 -0.7240 -0.1772
 2906TIP3    H130353   5.914   1.554   0.115 -0.1224 -1.7646 -0.3938
 2906TIP3    H230354   5.982   1.461   0.017  1.3081 -0.8038 -0.3476
 2907TIP3   OH230355   2.746   5.600   7.980 -0.2199 -0.3431  0.0919
 2907TIP3    H130356   2.690   5.575   7.907  2.4278 -2.8605 -1.2607
 2907TIP3    H230357   2.746   5.524   8.038  0.4109  0.2890  0.9466
 2908TIP3   OH230358   5.486   4.100   1.030 -0.5874  0.3085 -0.2461
 2908TIP3    H130359   5.582   4.101   1.028 -0.3393  1.8312  3.8797
 2908TIP3    H230360   5.460   4.155   0.956  1.5982 -0.7154 -1.8894
 2909TIP3   OH230361   5.726   6.251   7.827 -0.0063 -0.2182 -0.8122
 2909TIP3    H130362   5.740   6.260   7.732  3.1968 -2.2143 -0.6849
 2909TIP3    H230363   5.658   6.315   7.847 -1.1052  0.0141 -4.5048
 2910TIP3   OH230364   5.953   4.259   1.071 -0.0935 -0.4399 -0.3628
 2910TIP3    H130365   6.033   4.268   1.124 -1.4092 -0.7195  1.7929
 2910TIP3    H230366   5.908   4.342   1.082 -0.7507 -0.7831 -0.4359
 2911TIP3   OH230367   3.507   1.686   1.181  0.3307 -0.0200  0.2174
 2911TIP3    H130368   3.415   1.698   1.156 -0.1669 -0.9196  1.5113
 2911TIP3    H230369   3.531   1.601   1.144  1.5151  1.3284 -2.3967
 2912TIP3   OH230370   6.953   3.407   1.404  0.1399  0.2306  0.5921
 2912TIP3    H130371   6.961   3.323   1.359  0.2648  1.2313 -1.3384
 2912TIP3    H230372   6.882   3.394   1.467 -0.9297 -0.8753 -0.7773
 2913TIP3   OH230373   6.332   6.899   7.395 -0.2844  0.4346 -0.2559
 2913TIP3    H130374   6.323   6.970   7.332  2.3059  0.0995 -1.1008
 2913TIP3    H230375   6.364   6.825   7.343  1.1268 -0.1040  1.2989
 2914TIP3   OH230376   6.388   0.549   0.359  1.0981 -0.0641  0.0291
 2914TIP3    H130377   6.414   0.629   0.314  1.0531  0.0668  0.2327
 2914TIP3    H230378   6.312   0.517   0.310 -0.8460  1.6854  1.7274
 2915TIP3   OH230379   6.974   1.826   1.453  0.7853  0.4081  0.2656
 2915TIP3    H130380   6.943   1.740   1.424 -0.5385  0.7232  0.7163
 2915TIP3    H230381   6.895   1.877   1.468  1.5532  1.6437  0.2393
 2916TIP3   OH230382   6.964   0.164   0.484 -0.4389 -0.4719  0.5337
 2916TIP3    H130383   7.025   0.211   0.428  0.0019  0.1344  1.4825
 2916TIP3    H230384   6.877   0.190   0.451 -0.2021 -1.1843 -0.6906
 2917TIP3   OH230385   1.144   1.819   0.793  0.6437  0.4048  0.4068
 2917TIP3    H130386   1.115   1.852   0.878  0.9304  0.8823  0.3293
 2917TIP3    H230387   1.200   1.890   0.758  0.7950  0.0765 -0.0294
 2918TIP3   OH230388   3.987   6.667   1.526  0.5328 -0.1260 -0.1724
 2918TIP3    H130389   4.036   6.590   1.552  0.5510 -1.0948 -2.7902
 2918TIP3    H230390   4.054   6.732   1.503  0.6794 -0.8622 -2.0698
 2919TIP3   OH230391   4.886   4.370   2.072 -0.3068 -0.4905  0.0708
 2919TIP3    H130392   4.913   4.287   2.111 -1.9938 -0.7277  0.8066
 2919TIP3    H230393   4.959   4.393   2.014  0.9670 -1.5991  1.1419
 2920TIP3   OH230394   2.659   3.613   1.218 -0.5795  0.5213  0.3116
 2920TIP3    H130395   2.722   3.546   1.244  0.1217  0.8950 -0.3626
 2920TIP3    H230396   2.645   3.597   1.124  0.2266  1.7878 -0.0529
 2921TIP3   OH230397   0.224   5.532   1.694  0.3551  0.0804 -0.2497
 2921TIP3    H130398   0.219   5.575   1.779  2.2317 -2.8004  1.4960
 2921TIP3    H230399   0.143   5.481   1.688 -0.5695  1.5518 -1.0667
 2922TIP3   OH230400   5.671   0.266   7.921 -0.3757  0.4408 -0.1452
 2922TIP3    H130401   5.605   0.323   7.882 -0.2313  1.1308  0.5747
 2922TIP3    H230402   5.754   0.312   7.905 -0.0501 -0.4141 -1.0424
 2923TIP3   OH230403   6.622   5.205   2.550 -0.1397 -0.0117 -0.5961
 2923TIP3    H130404   6.631   5.132   2.488  0.1649 -0.6195  0.1453
 2923TIP3    H230405   6.541   5.186   2.598 -1.2140  1.2613 -1.8145
 2924TIP3   OH230406   2.504   3.784   0.952  0.1693  0.4075 -0.7441
 2924TIP3    H130407   2.452   3.722   0.902 -0.3434  2.0312 -2.3128
 2924TIP3    H230408   2.450   3.803   1.029  0.6924 -1.6256  0.2141
 2925TIP3   OH230409   4.997   2.125   0.347  0.9375 -0.2133  0.3955
 2925TIP3    H130410   5.027   2.089   0.430  2.6455 -0.8501 -0.4498
 2925TIP3    H230411   5.078   2.146   0.299  0.0499 -1.2443 -1.6804
 2926TIP3   OH230412   4.735   5.021   0.185  0.2584  0.0206 -0.4383
 2926TIP3    H130413   4.662   5.041   0.126 -0.2137  0.1526  0.1862
 2926TIP3    H230414   4.709   5.058   0.269  0.8805 -0.2687 -0.1117
 2927TIP3   OH230415   4.589   6.777   1.444 -0.0619 -0.1002 -0.4050
 2927TIP3    H130416   4.502   6.741   1.460 -0.3020  0.1315 -1.1826
 2927TIP3    H230417   4.609   6.827   1.523 -0.1080 -1.1650  0.3063
 2928TIP3   OH230418   1.963   5.462   7.451 -0.5708 -0.2615  0.6110
 2928TIP3    H130419   1.876   5.467   7.411  0.3862  1.8759 -1.3992
 2928TIP3    H230420   2.014   5.406   7.393  0.3609  1.4834 -0.3433
 2929TIP3   OH230421   6.452   4.572   0.501  0.1948  0.3923 -0.0177
 2929TIP3    H130422   6.382   4.637   0.505  1.5101  1.8460  0.5058
 2929TIP3    H230423   6.451   4.530   0.587 -1.5848 -1.3707 -0.8273
 2930TIP3   OH230424   3.109   1.278   7.144 -0.3190  0.8766 -0.5724
 2930TIP3    H130425   3.038   1.307   7.087  0.0759 -0.6505 -1.8998
 2930TIP3    H230426   3.070   1.211   7.200 -0.0734  0.3952 -0.9629
 2931TIP3   OH230427   1.089   2.283   1.389  0.2766  0.6564 -0.8509
 2931TIP3    H130428   1.004   2.241   1.374  0.3093 -0.0181  0.7291
 2931TIP3    H230429   1.153   2.220   1.358  0.3148 -0.4407  1.2983
 2932TIP3   OH230430   0.924   0.653   8.410 -0.4059  0.2927  0.6980
 2932TIP3    H130431   0.842   0.699   8.395 -0.0392  0.7584  0.0898
 2932TIP3    H230432   0.952   0.625   8.323  0.1177  0.2046  0.8900
 2933TIP3   OH230433   2.462   0.914   1.809  0.7321 -0.6550  0.2591
 2933TIP3    H130434   2.467   0.859   1.887 -0.4834  1.4091  1.9154
 2933TIP3    H230435   2.402   0.868   1.750  1.0216 -1.8427  0.8818
 2934TIP3   OH230436   4.339   4.079   1.420  0.3514  0.1127 -0.2763
 2934TIP3    H130437   4.329   4.126   1.337  0.7843  0.3871 -0.1733
 2934TIP3    H230438   4.306   4.140   1.486 -2.5844 -1.0938 -0.4743
 2935TIP3   OH230439   3.974   1.905   0.483 -0.3951 -0.6011  0.1542
 2935TIP3    H130440   3.977   1.980   0.543 -0.8495  0.3151 -0.9212
 2935TIP3    H230441   3.991   1.829   0.538  0.1785  0.3039  1.2639
 2936TIP3   OH230442   2.594   1.331   2.512 -0.2122  1.1024  0.3181
 2936TIP3    H130443   2.613   1.370   2.597 -0.1694  2.6869 -0.4005
 2936TIP3    H230444   2.504   1.299   2.520 -0.7831  2.6839  0.4582
 2937TIP3   OH230445   2.863   1.762   2.254 -0.1836  0.0203  0.0730
 2937TIP3    H130446   2.801   1.834   2.247  0.5932  0.7556  0.5981
 2937TIP3    H230447   2.840   1.718   2.335 -0.6339 -0.3102 -0.2285
 2938TIP3   OH230448   4.818   0.372   8.399  0.6114  0.2255 -0.3210
 2938TIP3    H130449   4.815   0.278   8.381  0.9331  0.0119  0.6856
 2938TIP3    H230450   4.729   0.393   8.426  0.5979  0.1590 -0.3118
 2939TIP3   OH230451   5.489   3.578   1.830  0.2131  0.5085  0.0991
 2939TIP3    H130452   5.471   3.495   1.786 -0.7409  0.9485 -0.3719
 2939TIP3    H230453   5.569   3.611   1.788  1.7314 -1.0466  1.5969
 2940TIP3   OH230454   0.674   5.439   8.457 -0.6766 -0.0229 -0.2007
 2940TIP3    H130455   0.715   5.462   8.541  0.5082 -0.9606 -0.4876
 2940TIP3    H230456   0.645   5.349   8.468  0.8764 -0.7053 -1.2428
 2941TIP3   OH230457   6.800   0.381   2.182  0.1357 -0.0726  0.0452
 2941TIP3    H130458   6.755   0.404   2.263  0.2933  3.4719 -0.7420
 2941TIP3    H230459   6.893   0.397   2.201  0.6803 -2.8218  0.1951
 2942TIP3   OH230460   0.645   2.875   0.996 -0.0129  0.1857  0.5350
 2942TIP3    H130461   0.556   2.876   1.032 -1.2869  3.0500 -2.1830
 2942TIP3    H230462   0.672   2.967   0.998  2.0151 -0.3207 -0.6746
 2943TIP3   OH230463   1.817   6.445   1.455 -0.1645 -0.3703  0.5457
 2943TIP3    H130464   1.806   6.375   1.391  0.8638 -0.4784  0.4742
 2943TIP3    H230465   1.813   6.526   1.404 -0.6710 -0.3953  0.5372
 2944TIP3   OH230466   4.572   1.489   8.038  0.0156  0.5303 -0.4254
 2944TIP3    H130467   4.657   1.517   8.071 -0.5118  1.4113  0.2320
 2944TIP3    H230468   4.517   1.484   8.116 -0.5266 -0.0919 -0.8335
 2945TIP3   OH230469   6.276   2.328   0.099 -0.3719  0.1918 -0.0264
 2945TIP3    H130470   6.194   2.308   0.144  0.1423 -0.8335  0.4757
 2945TIP3    H230471   6.345   2.305   0.162  0.3031  1.7572 -0.1522
 2946TIP3   OH230472   5.473   2.588   2.407  0.4246 -0.3390  0.2069
 2946TIP3    H130473   5.490   2.613   2.498 -1.0628 -0.7353  0.6304
 2946TIP3    H230474   5.518   2.504   2.397 -1.8412 -1.8486  1.5866
 2947TIP3   OH230475   2.991   4.332   0.303  0.8083  0.8165  0.6387
 2947TIP3    H130476   3.077   4.337   0.344  1.4777  1.4000 -0.7455
 2947TIP3    H230477   2.947   4.259   0.346  3.3225 -1.8632 -0.9983
 2948TIP3   OH230478   2.153   2.939   1.042 -0.1578  0.4288 -0.4460
 2948TIP3    H130479   2.227   2.957   1.100 -0.6905 -0.9366  0.7369
 2948TIP3    H230480   2.103   2.871   1.088 -2.3728  1.5783 -1.0037
 2949TIP3   OH230481   5.761   3.679   1.763 -0.0063 -0.1823  0.2915
 2949TIP3    H130482   5.847   3.713   1.741 -0.1706  0.3478  0.4553
 2949TIP3    H230483   5.712   3.755   1.794 -1.3450  0.0281 -2.1169
 2950TIP3   OH230484   1.206   6.544   7.872  0.4242  0.0873 -0.6363
 2950TIP3    H130485   1.137   6.492   7.832  0.4488 -1.0824  0.7832
 2950TIP3    H230486   1.199   6.526   7.965  2.5804  0.0145 -0.4411
 2951TIP3   OH230487   0.100   3.627   1.922 -0.6566 -0.7048  0.1633
 2951TIP3    H130488   0.116   3.544   1.877  0.0012 -1.7014  2.1232
 2951TIP3    H230489   0.100   3.692   1.852  1.6162 -1.9966 -1.1833
 2952TIP3   OH230490   1.413   3.922   3.012  0.3078 -0.2441 -0.3935
 2952TIP3    H130491   1.465   3.905   2.934  1.2065  0.7021 -0.0423
 2952TIP3    H230492   1.333   3.872   3.000  1.2603 -1.6694 -1.0127
 2953TIP3   OH230493   4.367   4.551   2.934 -0.2955 -0.2064  0.1019
 2953TIP3    H130494   4.396   4.632   2.892 -1.0023  0.7919  1.4407
 2953TIP3    H230495   4.440   4.525   2.990  0.3513 -1.1184 -1.1283
 2954TIP3   OH230496   0.271   1.959   0.436 -0.0515  0.4110 -0.7420
 2954TIP3    H130497   0.325   1.933   0.510 -1.0427 -0.7359 -0.4016
 2954TIP3    H230498   0.271   1.882   0.378  0.7224  1.2874 -1.9636
 2955TIP3   OH230499   2.097   3.805   0.091 -0.1945  0.0982  0.3311
 2955TIP3    H130500   2.053   3.870   0.037 -0.3630  1.4307  1.9827
 2955TIP3    H230501   2.176   3.849   0.124 -0.1594 -0.6059  1.2510
 2956TIP3   OH230502   6.987   3.654   2.485 -0.2943  0.1747  0.4482
 2956TIP3    H130503   6.906   3.660   2.536 -0.2104 -2.0397  0.9244
 2956TIP3    H230504   7.034   3.580   2.523  0.1136 -1.1477 -2.3980
 2957TIP3   OH230505   0.065   6.637   1.934 -0.3402  0.0645 -0.0333
 2957TIP3    H130506   0.095   6.674   2.017 -0.8614  2.7306 -0.9276
 2957TIP3    H230507   0.137   6.581   1.906 -0.3702 -1.3483  2.4113
 2958TIP3   OH230508   2.904   6.916   2.176  0.3102 -0.0455 -0.6420
 2958TIP3    H130509   2.989   6.955   2.157  0.1675  0.5726 -0.0272
 2958TIP3    H230510   2.892   6.850   2.107  1.8570 -1.0374 -0.0197
 2959TIP3   OH230511   3.484   6.974   7.892 -0.2329  0.5731  0.7471
 2959TIP3    H130512   3.543   6.973   7.816 -2.1368  1.7925 -0.8661
 2959TIP3    H230513   3.433   6.893   7.883  0.3018  0.1529  1.4094
 2960TIP3   OH230514   6.907   4.668   2.048  0.2101  1.1849 -0.6878
 2960TIP3    H130515   6.821   4.663   2.091  0.2807  1.5146 -0.5066
 2960TIP3    H230516   6.930   4.760   2.051  1.6411  0.8180  1.4038
 2961TIP3   OH230517   0.670   4.035   0.752 -0.2441  0.4504  0.1125
 2961TIP3    H130518   0.760   4.063   0.734  0.2224  0.6258  2.3297
 2961TIP3    H230519   0.671   3.941   0.734  0.2975  0.5197 -0.2424
 2962TIP3   OH230520   0.608   6.474   8.384 -1.2038  0.1735  0.2791
 2962TIP3    H130521   0.585   6.439   8.470  0.7427  0.7676  1.0971
 2962TIP3    H230522   0.616   6.568   8.398  2.0013  0.0244  0.2679
 2963TIP3   OH230523   5.193   1.332   0.900 -0.4527  0.0892 -0.5166
 2963TIP3    H130524   5.104   1.329   0.937  0.2505  0.2936  1.3176
 2963TIP3    H230525   5.250   1.317   0.975  1.1443  1.8229 -1.3033
 2964TIP3   OH230526   2.756   1.649   2.009  0.3374  0.1494  0.3675
 2964TIP3    H130527   2.731   1.730   1.965  0.2202  0.2438  0.6060
 2964TIP3    H230528   2.794   1.677   2.092 -1.0005 -0.0882  1.0924
 2965TIP3   OH230529   2.260   1.850   0.766  0.3108 -0.1740  0.5822
 2965TIP3    H130530   2.187   1.859   0.827  0.6203 -3.6236  1.6783
 2965TIP3    H230531   2.227   1.886   0.683 -2.3681 -0.9260  1.2368
 2966TIP3   OH230532   0.832   4.904   1.516  0.3206  0.1340 -0.2325
 2966TIP3    H130533   0.855   4.970   1.582  0.7825 -0.3591  0.1101
 2966TIP3    H230534   0.815   4.954   1.436  0.0047  0.7198  0.1935
 2967TIP3   OH230535   0.895   2.532   2.342  0.0265  0.2065  0.0278
 2967TIP3    H130536   0.919   2.442   2.323  0.9667  0.6817 -1.1810
 2967TIP3    H230537   0.943   2.584   2.276 -2.0848  1.4296 -0.6302
 2968TIP3   OH230538   2.980   4.104   7.340 -0.3502 -0.4007  0.6335
 2968TIP3    H130539   2.966   4.052   7.419 -1.7559 -1.6537 -0.3941
 2968TIP3    H230540   3.018   4.042   7.277  0.3935  0.4858  0.1831
 2969TIP3   OH230541   1.965   0.759   7.301 -0.4469  0.1674  0.1552
 2969TIP3    H130542   1.961   0.664   7.293  0.6973  0.2144 -1.2922
 2969TIP3    H230543   1.935   0.776   7.391 -1.8875 -1.4433  0.0330
 2970TIP3   OH230544   6.804   5.936   6.893  0.1061  0.2456  0.7943
 2970TIP3    H130545   6.793   5.889   6.975 -1.3559 -0.7534  0.0808
 2970TIP3    H230546   6.864   5.882   6.842  2.3533  1.7084  1.7713
 2971TIP3   OH230547   2.120   0.605   7.646  0.1554  0.0434 -0.3641
 2971TIP3    H130548   2.124   0.669   7.574  1.1587  0.5051  0.0828
 2971TIP3    H230549   2.088   0.656   7.721  0.7499 -0.0295 -0.0604
 2972TIP3   OH230550   2.855   0.695   2.862  0.4749  0.4116  0.4061
 2972TIP3    H130551   2.943   0.731   2.850  0.8901 -0.2935  1.2322
 2972TIP3    H230552   2.843   0.636   2.788  1.2655 -0.5576  1.0274
 2973TIP3   OH230553   0.583   1.597   7.689 -0.0290 -0.4415 -0.2712
 2973TIP3    H130554   0.670   1.578   7.655  0.3515  2.6709 -1.3956
 2973TIP3    H230555   0.525   1.537   7.641  1.3470 -2.0278 -0.0491
 2974TIP3   OH230556   0.953   4.060   0.713  0.3875 -0.1596  0.0451
 2974TIP3    H130557   1.019   3.993   0.692 -0.0052 -1.8633  3.4860
 2974TIP3    H230558   1.003   4.140   0.728  1.2272 -0.4708 -0.9620
 2975TIP3   OH230559   4.704   0.466   7.196  0.6639  0.4390  0.3549
 2975TIP3    H130560   4.702   0.519   7.116 -0.1828 -0.0256  0.0499
 2975TIP3    H230561   4.612   0.458   7.221  0.8833  0.1192  1.0723
 2976TIP3   OH230562   3.830   2.828   2.867 -0.0903 -0.4592 -0.0585
 2976TIP3    H130563   3.899   2.762   2.870 -0.3399 -0.6857  0.8404
 2976TIP3    H230564   3.869   2.905   2.908 -0.1284 -0.3550 -0.2178
 2977TIP3   OH230565   3.697   6.532   2.586 -0.3826 -0.1473  0.3863
 2977TIP3    H130566   3.774   6.484   2.617 -0.5190 -1.8157 -1.6782
 2977TIP3    H230567   3.662   6.573   2.665  2.2313  0.1546  1.4959
 2978TIP3   OH230568   1.699   1.064   3.037  0.6778 -0.3220 -0.1683
 2978TIP3    H130569   1.770   1.057   3.102  0.5863  3.0099  0.4819
 2978TIP3    H230570   1.620   1.044   3.086  0.5982  2.2787  0.9269
 2979TIP3   OH230571   2.554   0.737   7.677  0.1718  0.3585  0.2300
 2979TIP3    H130572   2.525   0.648   7.656  0.8796 -0.2098  1.4894
 2979TIP3    H230573   2.586   0.772   7.594 -1.2193 -0.1120 -0.5341
 2980TIP3   OH230574   5.228   3.356   2.600  0.4274  0.3166 -0.2844
 2980TIP3    H130575   5.294   3.287   2.600  1.1060  0.9577 -0.2331
 2980TIP3    H230576   5.254   3.415   2.529 -0.7012  0.0077 -0.9831
 2981TIP3   OH230577   0.276   6.615   8.276  0.2207 -0.1951  0.5086
 2981TIP3    H130578   0.292   6.668   8.199 -0.3195 -0.5726  0.1252
 2981TIP3    H230579   0.360   6.612   8.322 -0.2801  2.9991  1.8574
 2982TIP3   OH230580   5.064   5.866   0.786 -0.4415  0.2564  0.0973
 2982TIP3    H130581   5.024   5.950   0.761 -0.5045  0.1721 -0.0888
 2982TIP3    H230582   5.020   5.801   0.731 -0.6733  0.0486  0.5304
 2983TIP3   OH230583   5.652   0.081   1.672  0.3400 -0.0344 -0.3545
 2983TIP3    H130584   5.587   0.144   1.639  0.7142  0.2390 -0.5737
 2983TIP3    H230585   5.663   0.104   1.764 -0.9013 -0.9640  0.0549
 2984TIP3   OH230586   4.588   1.183   6.936  0.4741  0.1225  0.4865
 2984TIP3    H130587   4.651   1.115   6.911  3.3300  2.1348  1.6500
 2984TIP3    H230588   4.629   1.229   7.009 -1.4980  2.8239  0.0806
 2985TIP3   OH230589   4.885   4.151   1.396  0.8042  0.4845  0.3310
 2985TIP3    H130590   4.888   4.166   1.490 -1.5105 -1.4218  0.7976
 2985TIP3    H230591   4.795   4.172   1.371  1.0170 -0.2836 -1.2196
 2986TIP3   OH230592   5.347   2.525   1.062  0.0548 -0.2353  0.1474
 2986TIP3    H130593   5.402   2.594   1.025 -0.2598  0.2962  0.6419
 2986TIP3    H230594   5.284   2.572   1.117 -1.6421 -0.7181 -1.2930
 2987TIP3   OH230595   4.508   6.117   0.538 -0.0897  0.5333  0.8277
 2987TIP3    H130596   4.494   6.207   0.507  2.3438  0.6580 -0.1312
 2987TIP3    H230597   4.436   6.067   0.500 -0.5915  1.7981  0.0381
 2988TIP3   OH230598   2.567   5.890   2.032 -0.4332 -0.3508  0.1358
 2988TIP3    H130599   2.525   5.975   2.022  0.7438  0.1443 -0.8640
 2988TIP3    H230600   2.521   5.849   2.105 -1.4797  0.8526  0.1895
 2989TIP3   OH230601   1.311   0.548   0.047 -0.0478  0.2445  0.2967
 2989TIP3    H130602   1.268   0.483   0.103 -1.3433  0.9505  0.1361
 2989TIP3    H230603   1.392   0.504   0.018 -0.5654 -1.0452  0.7309
 2990TIP3   OH230604   6.617   2.469   1.802 -0.0698  0.0258 -0.0268
 2990TIP3    H130605   6.663   2.494   1.721  2.2550 -2.5552  0.3450
 2990TIP3    H230606   6.537   2.426   1.772  0.6362 -0.6685 -0.9967
 2991TIP3   OH230607   5.002   4.028   1.936  0.0624 -0.4597  0.5559
 2991TIP3    H130608   5.084   3.983   1.916 -0.7978 -2.1434  0.7125
 2991TIP3    H230609   5.002   4.037   2.031 -0.4422 -1.4709  0.6553
 2992TIP3   OH230610   4.182   2.667   2.133  0.3668  0.8738 -0.3403
 2992TIP3    H130611   4.133   2.591   2.165 -0.0227  1.6665  1.0494
 2992TIP3    H230612   4.117   2.718   2.085  0.8656 -0.1321 -2.1883
 2993TIP3   OH230613   4.074   4.839   1.493  0.1440  0.5173 -0.1055
 2993TIP3    H130614   4.040   4.759   1.533 -1.5448  0.6088 -1.2646
 2993TIP3    H230615   4.128   4.879   1.561 -0.4867 -0.6626  1.1293
 2994TIP3   OH230616   4.070   3.717   1.271  0.3868 -0.0158 -0.4312
 2994TIP3    H130617   3.997   3.662   1.245 -0.7090  0.9181  0.5825
 2994TIP3    H230618   4.143   3.655   1.285 -0.8087 -1.2391  0.7187
 2995TIP3   OH230619   4.126   6.013   3.014  0.1877  0.2696 -0.2528
 2995TIP3    H130620   4.077   5.934   2.991  3.4431 -1.8834 -0.3816
 2995TIP3    H230621   4.078   6.084   2.970 -2.7196 -1.5874 -0.3470
 2996TIP3   OH230622   6.636   1.831   0.520  0.3489  0.1048 -0.4670
 2996TIP3    H130623   6.704   1.767   0.498  0.9015  1.0594 -1.6472
 2996TIP3    H230624   6.681   1.894   0.578 -0.0441 -0.2763  0.2577
 2997TIP3   OH230625   3.617   2.062   0.044  0.1931 -0.3420  0.2752
 2997TIP3    H130626   3.682   2.015   0.097  0.2281 -0.0673  0.4787
 2997TIP3    H230627   3.533   2.039   0.084  0.2664  0.3927  0.8721
 2998TIP3   OH230628   4.359   3.579   1.805  0.4013 -0.3563  0.7285
 2998TIP3    H130629   4.271   3.598   1.773  0.3650  1.2907  1.7491
 2998TIP3    H230630   4.346   3.547   1.894  0.7391 -1.8667  0.2695
 2999TIP3   OH230631   0.869   0.311   1.776 -0.1199  0.0626 -0.5795
 2999TIP3    H130632   0.783   0.306   1.733  0.4659  0.9391 -1.8976
 2999TIP3    H230633   0.931   0.325   1.705  0.9590  1.0555  0.5057
 3000TIP3   OH230634   0.818   2.975   0.179  0.3866 -0.1197  0.3732
 3000TIP3    H130635   0.842   3.030   0.254  0.7787  0.1414  0.0565
 3000TIP3    H230636   0.765   2.905   0.218  3.2649 -1.9102  1.4263
 3001TIP3   OH230637   5.609   4.632   1.590  0.4274 -0.8853  0.2271
 3001TIP3    H130638   5.657   4.554   1.620 -0.0369 -1.4184 -0.3991
 3001TIP3    H230639   5.539   4.642   1.654  0.6206 -0.8466  0.4353
 3002TIP3   OH230640   4.041   5.531   1.742 -0.3817  0.1636  0.1340
 3002TIP3    H130641   4.109   5.468   1.764 -1.5350 -1.8743 -1.6632
 3002TIP3    H230642   4.049   5.600   1.808  1.7295 -1.2551  1.4838
 3003TIP3   OH230643   6.524   0.416   7.902  0.3506  0.1306  0.1266
 3003TIP3    H130644   6.479   0.479   7.846 -0.9384 -0.9777 -0.1327
 3003TIP3    H230645   6.511   0.332   7.858  0.2802 -0.6002  1.5159
 3004TIP3   OH230646   2.188   6.423   0.225  0.1582  0.0653 -0.2556
 3004TIP3    H130647   2.235   6.418   0.142 -2.2566 -0.1594 -1.6930
 3004TIP3    H230648   2.129   6.497   0.215 -2.0747 -1.5556  0.1383
 3005TIP3   OH230649   4.086   1.294   7.742  0.4568 -0.5284  0.3191
 3005TIP3    H130650   4.034   1.254   7.672  0.5574 -2.2931  1.2002
 3005TIP3    H230651   4.177   1.284   7.714  0.4722 -0.5883  0.3913
 3006TIP3   OH230652   5.080   4.796   8.227  0.0005 -0.1239  0.2143
 3006TIP3    H130653   4.987   4.779   8.245 -0.5227  1.8006 -0.4040
 3006TIP3    H230654   5.107   4.724   8.170 -1.4747 -0.0720 -0.6172
 3007TIP3   OH230655   0.598   5.911   1.444  0.1880 -0.5889  0.7975
 3007TIP3    H130656   0.564   6.000   1.436  1.2925  0.0482  2.5815
 3007TIP3    H230657   0.547   5.872   1.515  0.4574 -1.0094  0.7623
 3008TIP3   OH230658   6.543   1.249   2.072 -0.0162  0.0231 -0.1881
 3008TIP3    H130659   6.500   1.164   2.083 -0.4480  0.1451 -0.8558
 3008TIP3    H230660   6.579   1.269   2.158 -1.1077 -0.1943  0.3369
 3009TIP3   OH230661   3.262   1.050   0.238  0.5811  0.5059  0.2878
 3009TIP3    H130662   3.177   1.006   0.230  0.3914  0.8637  0.2759
 3009TIP3    H230663   3.258   1.095   0.322  0.4234  1.2133 -0.0916
 3010TIP3   OH230664   0.050   2.169   0.117  0.4640  0.1021 -0.1173
 3010TIP3    H130665   0.077   2.080   0.093 -0.3157 -0.4528  0.9433
 3010TIP3    H230666   0.013   2.205   0.037 -0.5984 -1.1014 -0.2003
 3011TIP3   OH230667   0.059   1.191   7.384 -0.6295 -0.2323  0.1667
 3011TIP3    H130668   0.071   1.160   7.474 -1.3982 -0.9359  0.0434
 3011TIP3    H230669  -0.022   1.149   7.355 -1.9224  2.1626  0.0626
 3012TIP3   OH230670   3.931   3.895   1.553 -0.1410 -0.3586  0.0570
 3012TIP3    H130671   3.936   3.860   1.464 -0.9410  1.1276 -0.6006
 3012TIP3    H230672   4.021   3.922   1.573  0.0279 -0.6251 -0.3106
 3013TIP3   OH230673   5.718   0.305   0.246 -0.1625  0.3674 -0.6305
 3013TIP3    H130674   5.659   0.269   0.312 -0.8822 -0.9724 -1.9623
 3013TIP3    H230675   5.668   0.375   0.204 -1.5800 -1.8494 -2.9064
 3014TIP3   OH230676   2.612   1.615   0.857  0.0718  0.1816 -0.0796
 3014TIP3    H130677   2.667   1.615   0.935  1.1978 -1.7354 -0.8195
 3014TIP3    H230678   2.673   1.633   0.785 -0.5114 -0.5442 -0.7675
 3015TIP3   OH230679   5.279   2.225   0.801  0.6084 -0.2634 -0.2090
 3015TIP3    H130680   5.326   2.161   0.854  0.1086 -0.6341 -0.2025
 3015TIP3    H230681   5.273   2.184   0.714  0.2096 -0.2720 -0.1814
 3016TIP3   OH230682   2.915   2.682   7.206  0.7723 -0.2058 -0.1715
 3016TIP3    H130683   2.851   2.738   7.250  0.8042 -0.4526  0.1911
 3016TIP3    H230684   2.996   2.733   7.206  0.9634 -0.5050  0.7210
 3017TIP3   OH230685   1.512   0.916   2.620  0.3305  0.0021 -0.1342
 3017TIP3    H130686   1.532   0.828   2.649 -0.2935  0.1991  0.9367
 3017TIP3    H230687   1.560   0.973   2.679  0.9324  0.3877 -0.9801
 3018TIP3   OH230688   4.111   4.358   2.442 -0.1278  0.3929 -0.5859
 3018TIP3    H130689   4.026   4.316   2.433 -0.2216  1.0046 -4.2963
 3018TIP3    H230690   4.093   4.451   2.430  0.8225  0.8817  1.3118
 3019TIP3   OH230691   2.867   1.370   2.061  0.3020  0.1359 -0.3155
 3019TIP3    H130692   2.834   1.456   2.036 -1.1088 -0.5434 -0.9688
 3019TIP3    H230693   2.857   1.367   2.156 -2.2485 -0.2379 -0.5083
 3020TIP3   OH230694   0.089   6.962   7.326 -0.1585 -0.1624 -0.4368
 3020TIP3    H130695   0.059   6.879   7.289 -1.0513  0.3408 -0.9008
 3020TIP3    H230696   0.056   7.028   7.265  0.7438  0.5170 -0.2047
 3021TIP3   OH230697   6.758   4.674   3.327 -0.1773 -0.4855 -0.5540
 3021TIP3    H130698   6.724   4.686   3.238 -3.5071 -1.6942  0.4020
 3021TIP3    H230699   6.852   4.662   3.316 -0.2468  0.9677 -3.7278
 3022TIP3   OH230700   0.384   4.485   1.081  0.1234  0.2065 -0.4134
 3022TIP3    H130701   0.348   4.518   0.999  3.9187 -1.2961 -2.9253
 3022TIP3    H230702   0.413   4.564   1.128 -0.1712  0.9788 -1.4961
 3023TIP3   OH230703   0.113   3.073   0.620  1.2458 -0.1881 -0.2415
 3023TIP3    H130704   0.020   3.091   0.606  1.5099  0.9830 -0.5809
 3023TIP3    H230705   0.135   3.117   0.701  1.3726 -1.0012  0.1792
 3024TIP3   OH230706   2.671   5.245   1.077  0.0984  0.4389  0.1257
 3024TIP3    H130707   2.708   5.158   1.062 -1.2550 -0.4482  1.5325
 3024TIP3    H230708   2.746   5.303   1.085  1.0410 -0.6702 -0.4548
 3025TIP3   OH230709   2.660   3.182   1.285 -0.1653 -0.5049  0.5398
 3025TIP3    H130710   2.620   3.231   1.214  0.8521 -1.0343 -0.4167
 3025TIP3    H230711   2.639   3.091   1.267  2.1589 -0.9183 -0.5258
 3026TIP3   OH230712   3.257   3.425   7.098  0.2499 -0.2857 -0.7377
 3026TIP3    H130713   3.350   3.409   7.111  0.6706  2.4025  0.3177
 3026TIP3    H230714   3.214   3.373   7.166  1.2189  0.3543  0.4043
 3027TIP3   OH230715   0.877   0.441   2.535 -0.0488 -0.4209 -0.0558
 3027TIP3    H130716   0.959   0.411   2.574 -0.2332 -0.1337  0.5629
 3027TIP3    H230717   0.900   0.520   2.487 -0.1449  0.2394  0.9696
 3028TIP3   OH230718   5.293   6.578   0.657  0.4521  0.2551 -0.3509
 3028TIP3    H130719   5.339   6.617   0.731  1.1024  0.3644 -0.8134
 3028TIP3    H230720   5.200   6.590   0.678  0.6344  1.7580 -0.3318
 3029TIP3   OH230721   5.881   0.785   6.749 -0.1186 -0.4875 -0.3242
 3029TIP3    H130722   5.901   0.878   6.731  0.0626 -0.7482 -1.6211
 3029TIP3    H230723   5.967   0.742   6.748 -0.3535 -0.9784 -1.8267
 3030TIP3   OH230724   2.419   0.653   2.789  0.0794 -0.0303  0.5323
 3030TIP3    H130725   2.371   0.589   2.738 -1.8463 -0.0213  2.2192
 3030TIP3    H230726   2.376   0.653   2.875  3.2914 -0.2453  2.2956
 3031TIP3   OH230727   4.902   4.863   0.670 -0.1953  0.5323 -0.1129
 3031TIP3    H130728   4.866   4.921   0.604 -1.7589 -0.8951 -0.5961
 3031TIP3    H230729   4.832   4.799   0.686  1.4381 -1.2039  0.3904
 3032TIP3   OH230730   3.406   4.872   7.898  0.5470 -0.2482 -0.0762
 3032TIP3    H130731   3.427   4.907   7.812 -1.4602 -0.0977 -0.5484
 3032TIP3    H230732   3.393   4.949   7.953 -0.3675 -0.2812 -0.2254
 3033TIP3   OH230733   0.020   3.621   7.275 -0.0446  0.1287 -0.2962
 3033TIP3    H130734   0.100   3.599   7.227  0.1483  1.3767 -0.5799
 3033TIP3    H230735   0.047   3.688   7.338 -0.7117 -0.0232  0.1721
 3034TIP3   OH230736   4.083   5.541   0.757 -0.8384 -0.8164 -0.4610
 3034TIP3    H130737   4.015   5.602   0.788 -0.7428 -0.6753 -0.5252
 3034TIP3    H230738   4.045   5.501   0.678 -0.2846  0.3423 -1.3486
 3035TIP3   OH230739   5.649   3.749   1.270  0.2871  0.0424  0.0290
 3035TIP3    H130740   5.597   3.828   1.284 -0.7533 -0.5465 -0.3812
 3035TIP3    H230741   5.649   3.705   1.356  1.8481  1.0257  0.5738
 3036TIP3   OH230742   3.532   2.104   8.248 -0.2274 -0.7314 -0.0714
 3036TIP3    H130743   3.561   2.108   8.339 -0.8697 -2.1417  0.2292
 3036TIP3    H230744   3.610   2.079   8.198  0.5451  1.6910 -0.1867
 3037TIP3   OH230745   5.192   4.007   3.090  0.0358 -0.2647 -0.2474
 3037TIP3    H130746   5.188   4.030   2.997  0.4970 -0.7467 -0.3917
 3037TIP3    H230747   5.100   4.004   3.118 -0.0596  2.1133 -0.1096
 3038TIP3   OH230748   4.056   0.170   7.728  0.5793 -0.4344 -0.2796
 3038TIP3    H130749   4.074   0.222   7.806 -3.8891 -0.0142  0.7169
 3038TIP3    H230750   4.074   0.228   7.655 -1.5761  1.6941  0.7410
 3039TIP3   OH230751   0.550   3.875   8.243 -0.3544 -0.5061  0.9074
 3039TIP3    H130752   0.624   3.921   8.281  0.6314  1.1705 -2.6043
 3039TIP3    H230753   0.583   3.787   8.224  0.6339  0.0776 -0.1809
 3040TIP3   OH230754   2.402   3.971   7.258  0.1732  0.0286  0.1200
 3040TIP3    H130755   2.431   3.881   7.246  1.5013  0.4841 -0.2279
 3040TIP3    H230756   2.406   4.009   7.170 -0.3208  0.4511  0.2716
 3041TIP3   OH230757   2.438   2.253   3.062  0.0384  0.2614 -0.0585
 3041TIP3    H130758   2.434   2.219   2.973 -1.8464  0.9420 -0.2952
 3041TIP3    H230759   2.528   2.282   3.074  0.4289 -0.2790 -1.5643
 3042TIP3   OH230760   2.760   6.791   1.174 -0.0269  0.4168  0.1403
 3042TIP3    H130761   2.799   6.730   1.237 -0.7118  0.9191  1.0871
 3042TIP3    H230762   2.835   6.837   1.136  0.3640  0.7544  1.2875
 3043TIP3   OH230763   3.608   2.321   0.845  0.1160  0.3002 -0.0574
 3043TIP3    H130764   3.553   2.371   0.905  0.6067 -0.8527  1.4040
 3043TIP3    H230765   3.614   2.234   0.884  1.2163 -0.2216 -1.3108
 3044TIP3   OH230766   5.470   4.978   0.220  0.4026 -0.0726 -0.2560
 3044TIP3    H130767   5.424   5.061   0.231  1.0157  0.3276 -0.6467
 3044TIP3    H230768   5.403   4.912   0.233  0.1501  0.4447  1.2843
 3045TIP3   OH230769   1.138   0.003   8.273  0.4210  0.3841 -0.0720
 3045TIP3    H130770   1.111  -0.075   8.225  1.0169  0.7844 -1.0844
 3045TIP3    H230771   1.148  -0.027   8.364 -1.2406 -0.2550 -0.0610
 3046TIP3   OH230772   5.687   4.322   1.891 -0.4191  0.2875  0.1208
 3046TIP3    H130773   5.763   4.278   1.928 -0.3809  0.6974  0.5396
 3046TIP3    H230774   5.616   4.258   1.898  0.0435 -0.3730 -0.9603
 3047TIP3   OH230775   4.853   2.775   1.902  0.5586  0.0097  0.2177
 3047TIP3    H130776   4.878   2.719   1.975  1.6947 -0.3495 -0.4182
 3047TIP3    H230777   4.764   2.805   1.923  0.6292 -0.5884  1.4220
 3048TIP3   OH230778   4.328   6.602   7.989  0.0070 -0.4918  0.1748
 3048TIP3    H130779   4.389   6.609   7.916  0.0950 -3.1474 -0.1088
 3048TIP3    H230780   4.377   6.631   8.065 -0.3657  3.2440 -0.8049
 3049TIP3   OH230781   0.841   0.480   2.219  0.3569  0.4682 -0.0554
 3049TIP3    H130782   0.862   0.396   2.261  0.2911 -0.1663 -1.2478
 3049TIP3    H230783   0.890   0.478   2.137  1.6727  2.3270  0.6235
 3050TIP3   OH230784   1.349   1.652   0.483 -0.6250 -0.2063  0.0295
 3050TIP3    H130785   1.400   1.727   0.514  1.8672 -1.0140 -1.7557
 3050TIP3    H230786   1.278   1.691   0.432  0.3427  0.9924 -0.4752
 3051TIP3   OH230787   5.654   1.937   1.168  0.2277 -0.2677  0.2353
 3051TIP3    H130788   5.638   1.891   1.086 -1.8044  1.5325 -0.4891
 3051TIP3    H230789   5.568   1.939   1.211  0.8208  0.5583  1.4262
 3052TIP3   OH230790   5.802   0.586   0.059 -0.9145  0.5010  0.2907
 3052TIP3    H130791   5.743   0.517   0.088 -0.4861  0.8486  2.1450
 3052TIP3    H230792   5.767   0.614  -0.026 -1.5603 -1.4088 -0.1115
 3053TIP3   OH230793   2.603   5.701   0.976  0.1053 -0.0837  0.0671
 3053TIP3    H130794   2.682   5.692   0.923 -0.7455  0.7210 -1.4261
 3053TIP3    H230795   2.563   5.614   0.975  0.1192 -0.0943 -0.6409
 3054TIP3   OH230796   3.068   2.354   7.745  0.0249  0.0093  0.4449
 3054TIP3    H130797   3.115   2.297   7.684 -0.7759 -1.1042  0.8388
 3054TIP3    H230798   3.031   2.294   7.810  0.5834  1.1463  1.8478
 3055TIP3   OH230799   3.463   6.753   8.383  0.1260 -0.3254 -0.2751
 3055TIP3    H130800   3.450   6.691   8.454 -0.4899 -0.2906 -0.3479
 3055TIP3    H230801   3.489   6.834   8.426  1.8573 -0.8584 -0.2360
 3056TIP3   OH230802   0.336   1.424   7.633 -0.7620  0.3115  0.1672
 3056TIP3    H130803   0.277   1.438   7.559 -1.9683 -0.2561  0.9850
 3056TIP3    H230804   0.327   1.504   7.686  1.6017  1.6182 -1.2112
 3057TIP3   OH230805   1.390   1.399   8.224 -0.0767  0.3488  0.1981
 3057TIP3    H130806   1.386   1.444   8.309 -0.2877 -0.1650  0.4664
 3057TIP3    H230807   1.359   1.464   8.161 -0.8917  0.4138  0.6500
 3058TIP3   OH230808   1.610   3.688   0.150  0.2019  0.2829  0.7501
 3058TIP3    H130809   1.535   3.694   0.090  0.3830  1.8258  0.6463
 3058TIP3    H230810   1.613   3.596   0.174 -0.2212 -0.2877 -1.1828
 3059TIP3   OH230811   6.952   1.444   7.684  0.7306  0.2911  0.3635
 3059TIP3    H130812   7.026   1.425   7.627  1.0884 -0.0174  0.9193
 3059TIP3    H230813   6.949   1.371   7.746  0.1534  0.4575  0.5446
 3060TIP3   OH230814   6.508   4.901   0.240 -0.2299 -0.1838 -0.0704
 3060TIP3    H130815   6.498   4.936   0.152  1.1541 -0.4642 -0.3502
 3060TIP3    H230816   6.503   4.978   0.297  0.5702  0.2181 -0.5258
 3061TIP3   OH230817   3.891   0.520   8.179 -0.1159  0.3293  0.6715
 3061TIP3    H130818   3.957   0.520   8.110  0.0390  2.2547  0.7687
 3061TIP3    H230819   3.816   0.476   8.139 -0.5840  2.7190 -1.3890
 3062TIP3   OH230820   6.131   2.726   1.085  0.4568  0.1589  0.3197
 3062TIP3    H130821   6.157   2.817   1.102  0.3947  0.4981 -1.2558
 3062TIP3    H230822   6.207   2.688   1.041  0.2526 -0.3815  0.4287
 3063TIP3   OH230823   6.034   6.174   1.913 -0.2349  0.3051  0.0892
 3063TIP3    H130824   6.067   6.143   1.997 -3.2400  1.9624  2.0677
 3063TIP3    H230825   6.050   6.269   1.915 -0.0583  0.3324 -1.3869
 3064TIP3   OH230826   1.834   1.248   8.233 -0.0611 -0.3485 -0.0415
 3064TIP3    H130827   1.866   1.205   8.313 -1.5865 -1.7829 -0.1321
 3064TIP3    H230828   1.910   1.293   8.197  1.2078 -1.5424  1.0433
 3065TIP3   OH230829   5.420   0.898   7.614  0.5335  0.7378  0.2512
 3065TIP3    H130830   5.455   0.850   7.539 -0.3193  0.5189 -0.0130
 3065TIP3    H230831   5.425   0.990   7.588  3.1719  0.9342  1.1737
 3066TIP3   OH230832   3.074   3.104   1.726  0.1282 -0.2060 -0.5572
 3066TIP3    H130833   3.080   3.197   1.703 -0.0166 -0.0724 -0.0610
 3066TIP3    H230834   3.086   3.102   1.821 -2.3290 -0.4543 -0.2022
 3067TIP3   OH230835   3.163   2.078   1.082 -0.3100 -0.1038 -0.2638
 3067TIP3    H130836   3.248   2.034   1.081 -1.4972 -2.6302  0.2691
 3067TIP3    H230837   3.108   2.021   1.136 -2.2838  1.5900 -0.3793
 3068TIP3   OH230838   6.936   2.318   2.338 -0.3532  0.3833  0.2645
 3068TIP3    H130839   6.995   2.394   2.338 -0.9162  0.8303  0.2520
 3068TIP3    H230840   6.994   2.243   2.328  0.4192  0.6476  2.2456
 3069TIP3   OH230841   3.891   2.169   1.782  0.2202 -0.3905 -0.0045
 3069TIP3    H130842   3.972   2.122   1.803  0.2059 -0.2643  0.3456
 3069TIP3    H230843   3.904   2.201   1.693  0.2672 -0.9792 -0.2114
 3070TIP3   OH230844   1.876   0.022   0.377 -0.5106 -0.0816  0.4624
 3070TIP3    H130845   1.919   0.067   0.304 -1.0055 -0.8000 -0.2885
 3070TIP3    H230846   1.783   0.021   0.354 -0.9514  1.2537  1.9614
 3071TIP3   OH230847   0.523   3.435   1.826 -0.9355 -0.3359 -0.5783
 3071TIP3    H130848   0.611   3.452   1.861 -0.4300  0.5736 -2.1996
 3071TIP3    H230849   0.474   3.403   1.901  0.3579  0.6243  0.7364
 3072TIP3   OH230850   3.552   0.812   1.828 -0.0597 -0.5380  0.6607
 3072TIP3    H130851   3.517   0.900   1.845 -0.1249 -0.3376 -0.4126
 3072TIP3    H230852   3.482   0.753   1.856 -0.6251 -0.1907  0.0134
 3073TIP3   OH230853   4.982   4.403   2.536 -0.2202 -0.3422 -0.0922
 3073TIP3    H130854   4.915   4.466   2.563 -2.0856 -1.3612 -2.0506
 3073TIP3    H230855   4.939   4.318   2.541  1.6955 -1.3282  0.7779
 3074TIP3   OH230856   2.146   6.551   0.563 -0.1630 -0.4568  1.0488
 3074TIP3    H130857   2.239   6.572   0.552  0.0943 -0.7043  2.6110
 3074TIP3    H230858   2.143   6.456   0.566 -0.4643 -0.4469  1.0840
 3075TIP3   OH230859   3.909   4.985   7.077  0.0571  0.1576  0.6255
 3075TIP3    H130860   3.827   5.008   7.034 -0.8235  1.8408  2.9472
 3075TIP3    H230861   3.976   5.035   7.030 -0.8357  1.7640  0.9874
 3076TIP3   OH230862   4.642   0.878   1.727  0.1528  0.0902  0.1245
 3076TIP3    H130863   4.677   0.855   1.813 -1.7624 -2.8401  0.2630
 3076TIP3    H230864   4.711   0.851   1.665  1.7749  2.7178  0.6188
 3077TIP3   OH230865   2.246   0.234   8.026  0.0076 -0.0211  0.1621
 3077TIP3    H130866   2.284   0.291   8.093  0.1570 -0.0262  0.0819
 3077TIP3    H230867   2.230   0.291   7.951  2.3488 -0.5187 -0.7833
 3078TIP3   OH230868   4.852   2.778   2.308  0.3643  0.2462  0.1676
 3078TIP3    H130869   4.870   2.723   2.232 -0.1415 -0.7402  0.7430
 3078TIP3    H230870   4.854   2.868   2.274 -1.8782 -0.2234 -1.4394
 3079TIP3   OH230871   3.191   2.256   0.876 -0.0087  0.2482 -0.2609
 3079TIP3    H130872   3.183   2.195   0.803  1.9623  1.6496 -1.7610
 3079TIP3    H230873   3.201   2.200   0.953 -2.2976 -1.2727 -0.9556
 3080TIP3   OH230874   0.807   6.277   8.266 -0.1283  0.2684  0.3267
 3080TIP3    H130875   0.809   6.276   8.170  0.5893  3.5338  0.1873
 3080TIP3    H230876   0.725   6.320   8.288  0.2241  0.5680  1.1149
 3081TIP3   OH230877   6.560   1.043   2.501  0.2620 -0.2796 -0.7393
 3081TIP3    H130878   6.467   1.044   2.523  0.4746 -1.1911  0.2709
 3081TIP3    H230879   6.581   1.134   2.480 -0.5585  0.1670  0.3075
 3082TIP3   OH230880   6.491   0.026   7.142 -0.1101  0.2745  0.2046
 3082TIP3    H130881   6.456   0.019   7.053  1.8105 -3.3728 -0.4505
 3082TIP3    H230882   6.548   0.104   7.139 -1.2740  1.1298 -1.2383
 3083TIP3   OH230883   5.517   2.704   6.733  0.8290  0.1208  0.3359
 3083TIP3    H130884   5.602   2.716   6.692  0.7924  0.8365  0.4539
 3083TIP3    H230885   5.457   2.755   6.678  0.4725 -0.3727  0.2563
 3084TIP3   OH230886   0.278   2.962   0.436 -0.0118  0.3000  0.2767
 3084TIP3    H130887   0.331   2.890   0.473 -1.8643 -1.0555  0.4315
 3084TIP3    H230888   0.218   2.985   0.506 -0.9568  0.4142 -0.5553
 3085TIP3   OH230889   1.117   0.544   0.389 -0.1699 -0.0468 -0.4251
 3085TIP3    H130890   1.030   0.514   0.414 -0.8364  0.7685 -1.6449
 3085TIP3    H230891   1.101   0.612   0.323  1.4086 -0.6670 -1.5093
 3086TIP3   OH230892   0.954   2.666   1.494 -0.7065 -0.1448 -0.5126
 3086TIP3    H130893   0.930   2.594   1.436 -0.2721  0.0901 -0.9928
 3086TIP3    H230894   1.008   2.626   1.561  3.6036  0.3304 -3.3148
 3087TIP3   OH230895   0.124   2.212   2.763 -0.4563 -0.1500  0.3890
 3087TIP3    H130896   0.148   2.215   2.855  0.2410  0.9688  0.1832
 3087TIP3    H230897   0.202   2.180   2.718 -0.7772 -0.6443  0.1710
 3088TIP3   OH230898   0.311   3.622   8.170  0.5101 -0.2387 -0.3194
 3088TIP3    H130899   0.317   3.717   8.177  1.1261 -0.3443  0.8127
 3088TIP3    H230900   0.363   3.600   8.092  0.4081  0.3359 -0.5592
 3089TIP3   OH230901   4.356   6.660   2.565 -0.1520  0.0252 -0.4002
 3089TIP3    H130902   4.404   6.660   2.483  0.3329 -0.3344 -0.1234
 3089TIP3    H230903   4.374   6.574   2.603 -0.4493  0.1518  0.0386
 3090TIP3   OH230904   3.933   0.651   1.091  0.1420 -0.1537  0.1883
 3090TIP3    H130905   3.848   0.615   1.067  1.3700 -2.9706 -0.2403
 3090TIP3    H230906   3.957   0.605   1.172  2.3433 -1.3221 -1.0584
 3091TIP3   OH230907   1.306   5.539   7.114  0.3618 -0.2271  0.1223
 3091TIP3    H130908   1.262   5.457   7.093 -1.3184  0.6773 -0.0841
 3091TIP3    H230909   1.301   5.590   7.033  0.2785  0.5427  0.6009
 3092TIP3   OH230910   2.073   3.378   1.515  0.4892  0.4290  0.4360
 3092TIP3    H130911   2.152   3.356   1.565  0.6942  1.7884  0.7513
 3092TIP3    H230912   2.004   3.383   1.581  0.1873 -0.4969  0.1953
 3093TIP3   OH230913   2.573   4.581   0.018 -0.1391  0.2409 -0.7273
 3093TIP3    H130914   2.648   4.622  -0.025 -0.5926  2.0380  0.0705
 3093TIP3    H230915   2.513   4.654   0.036 -0.7732 -0.6851  1.2783
 3094TIP3   OH230916   3.752   1.432   1.585 -0.0252 -0.4823  0.1850
 3094TIP3    H130917   3.736   1.427   1.491  0.3194 -0.4470  0.1248
 3094TIP3    H230918   3.822   1.369   1.601 -0.8506 -1.3157  0.5949
 3095TIP3   OH230919   3.751   4.728   6.883 -0.0301  0.3422  0.0893
 3095TIP3    H130920   3.745   4.755   6.974 -0.9210  0.3749  0.0263
 3095TIP3    H230921   3.664   4.692   6.862 -0.2658  1.5379 -1.1228
 3096TIP3   OH230922   6.200   0.056   1.027 -0.0282 -0.2467  0.1440
 3096TIP3    H130923   6.242   0.022   0.948 -0.0798  1.2830 -0.5819
 3096TIP3    H230924   6.189   0.150   1.009 -0.9967 -0.0714  1.5494
 3097TIP3   OH230925   0.039   4.233   1.812 -0.3198 -0.2947  0.0235
 3097TIP3    H130926  -0.054   4.251   1.795 -0.0540  0.4231 -0.7005
 3097TIP3    H230927   0.080   4.233   1.726  0.5213  0.3167  0.4118
 3098TIP3   OH230928   3.936   5.807   3.003 -0.1938  0.5824  0.0376
 3098TIP3    H130929   3.877   5.805   3.079  0.5905 -0.8109  0.6435
 3098TIP3    H230930   3.880   5.785   2.929 -0.3900 -1.2646  0.6794
 3099TIP3   OH230931   3.759   6.964   1.431 -0.3679 -0.1882 -0.6745
 3099TIP3    H130932   3.789   7.054   1.428 -0.4401 -0.0367  1.4453
 3099TIP3    H230933   3.691   6.964   1.499 -0.1230 -1.8858 -0.3815
 3100TIP3   OH230934   6.905   3.162   6.841 -0.3586  0.8833 -0.3483
 3100TIP3    H130935   6.816   3.188   6.819 -0.3014  0.5660 -0.9884
 3100TIP3    H230936   6.929   3.216   6.916 -1.0312  1.0805 -0.2732
 3101TIP3   OH230937   6.938   4.113   2.310  0.6271  0.2406  0.1122
 3101TIP3    H130938   6.866   4.175   2.295  1.8417  1.1970 -2.2787
 3101TIP3    H230939   6.996   4.159   2.371  0.8066  0.8950 -0.5322
 3102TIP3   OH230940   1.641   4.800   2.256 -0.0321  0.7225 -0.4648
 3102TIP3    H130941   1.690   4.758   2.326  0.5069  2.5498  0.3100
 3102TIP3    H230942   1.549   4.781   2.276  0.1726  0.3302  0.1103
 3103TIP3   OH230943   0.572   2.609   8.078  0.5699  0.4630  0.1917
 3103TIP3    H130944   0.504   2.675   8.085  0.0463  0.2513 -2.1085
 3103TIP3    H230945   0.625   2.636   8.003  0.9988 -1.1209 -0.1255
 3104TIP3   OH230946   0.284   2.700   7.263  1.1842 -0.3376  0.6747
 3104TIP3    H130947   0.347   2.733   7.199  1.8119 -0.5568  1.1676
 3104TIP3    H230948   0.252   2.618   7.225  0.3344  0.3352 -0.1058
 3105TIP3   OH230949   2.135   4.332   7.226 -0.2935 -0.1705 -0.3480
 3105TIP3    H130950   2.053   4.360   7.265  0.4887  0.7193  0.7383
 3105TIP3    H230951   2.198   4.333   7.298  0.8524 -0.0250 -1.3055
 3106TIP3   OH230952   6.649   0.980   0.774 -0.1567 -0.2575 -0.1114
 3106TIP3    H130953   6.657   1.033   0.853  1.7999 -0.2024 -0.2873
 3106TIP3    H230954   6.605   1.037   0.711  2.9158  1.7406 -0.6772
 3107TIP3   OH230955   2.315   1.851   2.844  0.6944  0.3836  0.0937
 3107TIP3    H130956   2.345   1.766   2.812 -1.0062 -0.4432  0.6059
 3107TIP3    H230957   2.324   1.845   2.939  1.1789  1.0432  0.0975
 3108TIP3   OH230958   4.966   4.060   7.441 -0.5476  0.0734 -0.6493
 3108TIP3    H130959   4.936   3.974   7.412  1.3160 -0.3370 -1.4752
 3108TIP3    H230960   4.998   4.102   7.362  1.1354  0.4247  0.1832
 3109TIP3   OH230961   3.175   4.191   2.061  0.0618  0.5629  0.4073
 3109TIP3    H130962   3.171   4.277   2.104 -0.4767  0.9220 -0.3490
 3109TIP3    H230963   3.165   4.210   1.968  2.3562 -0.1042 -0.0403
 3110TIP3   OH230964   4.729   3.290   7.791 -0.1046  0.5574 -0.5310
 3110TIP3    H130965   4.636   3.302   7.811 -0.3444 -0.6869 -0.8086
 3110TIP3    H230966   4.738   3.320   7.701 -0.1380  1.0948 -0.3604
 3111TIP3   OH230967   2.629   0.884   2.982 -0.2540  0.0520  0.1088
 3111TIP3    H130968   2.608   0.845   3.067  0.5042  0.4630  0.4972
 3111TIP3    H230969   2.680   0.816   2.936 -0.2999 -0.0089  0.1475
 3112TIP3   OH230970   2.041   0.607   0.692 -0.3395  0.1043 -1.0228
 3112TIP3    H130971   2.112   0.543   0.694  0.2289  0.7100 -1.3354
 3112TIP3    H230972   2.085   0.692   0.701 -1.1914  0.4038  0.9759
 3113TIP3   OH230973   2.536   4.645   2.255 -0.3718 -0.3166 -0.2671
 3113TIP3    H130974   2.573   4.558   2.245 -1.2119 -0.6081 -1.0099
 3113TIP3    H230975   2.446   4.630   2.285 -0.5068  0.2993 -0.3341
 3114TIP3   OH230976   4.076   0.598   2.688  0.4113 -0.0981 -0.1718
 3114TIP3    H130977   4.043   0.523   2.737 -1.5656 -0.3102 -1.6966
 3114TIP3    H230978   4.141   0.561   2.628  1.9923 -0.0023  1.3944
 3115TIP3   OH230979   5.518   2.805   7.878 -0.0337  0.3675 -0.1836
 3115TIP3    H130980   5.520   2.730   7.818 -1.1692 -0.1737  0.4289
 3115TIP3    H230981   5.587   2.785   7.942  0.7787  0.6590 -0.9423
 3116TIP3   OH230982   5.215   2.753   1.553  0.5958 -0.3272 -0.2091
 3116TIP3    H130983   5.271   2.803   1.493  2.0354 -0.9575  0.5844
 3116TIP3    H230984   5.151   2.711   1.495 -0.6771  2.3770 -0.9166
 3117TIP3   OH230985   0.869   2.128   1.352  0.1037 -0.1299  0.5296
 3117TIP3    H130986   0.854   2.065   1.423 -0.3345 -1.8563 -1.0244
 3117TIP3    H230987   0.785   2.133   1.307  0.5771  0.3711 -0.3167
 3118TIP3   OH230988   5.868   2.540   2.723 -0.0454  0.0997 -0.0168
 3118TIP3    H130989   5.957   2.537   2.759 -0.0508  0.1548  0.0019
 3118TIP3    H230990   5.870   2.614   2.662  0.0519 -0.1818 -0.3651
 3119TIP3   OH230991   6.733   0.621   1.991  0.2368 -0.1134 -0.3412
 3119TIP3    H130992   6.654   0.621   2.045  0.6660  2.5779  0.4581
 3119TIP3    H230993   6.778   0.540   2.014 -0.9584 -0.3936  1.2259
 3120TIP3   OH230994   1.433   2.634   0.684 -0.5969  0.8053 -0.5432
 3120TIP3    H130995   1.386   2.564   0.729  0.0164  0.7958  0.0980
 3120TIP3    H230996   1.365   2.692   0.651 -1.0928  0.1551 -0.6754
 3121TIP3   OH230997   3.645   2.797   1.121  0.2791 -0.2004  0.3027
 3121TIP3    H130998   3.737   2.782   1.144  0.6169  1.1884 -0.0418
 3121TIP3    H230999   3.601   2.808   1.205  0.7403  0.7174  0.4371
 3122TIP3   OH231000   3.507   5.545   2.304 -0.1199 -0.5143 -0.1991
 3122TIP3    H131001   3.598   5.574   2.310 -0.3140 -0.0950  1.0530
 3122TIP3    H231002   3.465   5.608   2.246  0.3184 -0.5662 -0.5811
 3123TIP3   OH231003   1.795   0.080   7.124  0.0300  0.0042 -0.0217
 3123TIP3    H131004   1.827   0.019   7.191 -0.3310  2.2386  2.3048
 3123TIP3    H231005   1.871   0.133   7.102  0.2663 -0.9941 -1.8358
 3124TIP3   OH231006   6.698   5.215   0.693  0.2041  0.5923 -0.0377
 3124TIP3    H131007   6.736   5.184   0.775  0.2267 -0.3870 -0.4088
 3124TIP3    H231008   6.726   5.307   0.687  1.3429  0.2907  0.3773
 3125TIP3   OH231009   0.590   4.971   7.377 -0.0346  0.4175  0.1413
 3125TIP3    H131010   0.642   5.029   7.321 -1.0911  2.2511  0.9415
 3125TIP3    H231011   0.528   5.030   7.421 -0.3300 -1.1647  1.9835
 3126TIP3   OH231012   3.952   5.052   1.837  0.4214 -0.0387 -0.3882
 3126TIP3    H131013   3.952   5.127   1.895 -3.4907  0.5645 -0.8688
 3126TIP3    H231014   3.959   5.090   1.749  5.2071 -0.8717 -0.6243
 3127TIP3   OH231015   5.462   3.320   3.162 -0.3602  0.0091  0.0580
 3127TIP3    H131016   5.532   3.344   3.222 -1.0137  0.6139  0.5989
 3127TIP3    H231017   5.418   3.403   3.143 -1.0501 -0.3917 -0.1106
 3128TIP3   OH231018   3.915   6.431   0.643  0.3288  0.4517 -0.2494
 3128TIP3    H131019   3.927   6.346   0.684  0.8825  0.0626 -1.1869
 3128TIP3    H231020   3.882   6.411   0.555  0.9124  1.1765 -0.6430
 3129TIP3   OH231021   1.893   5.986   1.947 -0.2879 -0.0801 -0.1489
 3129TIP3    H131022   1.916   6.046   2.017 -0.8415 -0.2384  0.1822
 3129TIP3    H231023   1.813   6.022   1.909 -0.3277 -0.3184 -0.2980
 3130TIP3   OH231024   6.671   5.934   7.636  0.3536  0.1605 -0.3324
 3130TIP3    H131025   6.699   5.866   7.574 -0.8662 -0.1223 -0.6018
 3130TIP3    H231026   6.736   6.003   7.628  0.2842  0.0704 -1.8408
 3131TIP3   OH231027   1.895   1.144   7.476 -0.4272  0.1784 -0.0141
 3131TIP3    H131028   1.921   1.091   7.552  1.1605  0.6283 -0.2030
 3131TIP3    H231029   1.923   1.093   7.400  0.2906  0.8551 -0.2183
 3132TIP3   OH231030   2.561   6.454   8.322 -0.6687  0.0250 -0.1226
 3132TIP3    H131031   2.617   6.529   8.303 -1.0696 -0.1531 -2.2040
 3132TIP3    H231032   2.578   6.392   8.251  0.0835 -2.1741  1.8393
 3133TIP3   OH231033   3.088   4.088   8.055 -0.0348  0.0632  0.0895
 3133TIP3    H131034   3.181   4.084   8.075 -0.2238 -1.0417  0.8168
 3133TIP3    H231035   3.055   4.160   8.109  0.6021  1.3733 -1.1789
 3134TIP3   OH231036   1.296   1.125   8.024 -0.2841 -0.1773 -0.6758
 3134TIP3    H131037   1.372   1.143   8.080  0.4905 -1.2144 -1.3396
 3134TIP3    H231038   1.317   1.168   7.941 -0.2504 -0.7765 -0.9800
 3135TIP3   OH231039   5.866   4.289   3.234 -0.3110  0.0233 -0.0336
 3135TIP3    H131040   5.873   4.365   3.177  0.0210  0.2384  0.2880
 3135TIP3    H231041   5.954   4.278   3.272 -0.5119 -0.1351  0.4030
 3136TIP3   OH231042   3.366   5.799   7.576  0.5062  0.1647 -0.0434
 3136TIP3    H131043   3.362   5.857   7.500  0.8229 -1.3373 -1.2820
 3136TIP3    H231044   3.290   5.822   7.628  0.0280  0.9464 -1.0493
 3137TIP3   OH231045   1.575   4.083   7.680 -0.1423 -0.2508  0.9038
 3137TIP3    H131046   1.563   4.094   7.774 -0.6016 -0.9489  0.9347
 3137TIP3    H231047   1.493   4.046   7.649  0.3850 -1.0253  0.3970
 3138TIP3   OH231048   5.238   3.375   1.714  0.3326 -0.2723 -0.5190
 3138TIP3    H131049   5.322   3.332   1.699  0.1072 -0.8126 -0.2702
 3138TIP3    H231050   5.191   3.366   1.631  1.1610  1.5499 -1.2391
 3139TIP3   OH231051   4.515   4.233   0.810  0.0556  0.4829  0.5309
 3139TIP3    H131052   4.605   4.266   0.818  0.5236  0.1243 -2.1028
 3139TIP3    H231053   4.525   4.142   0.784 -1.0775  0.3247  0.5866
 3140TIP3   OH231054   1.396   1.559   0.922 -0.0773  0.4098  0.0038
 3140TIP3    H131055   1.346   1.538   0.843 -1.3879  0.2925  0.8324
 3140TIP3    H231056   1.332   1.600   0.981  0.5956 -0.4781  1.4187
 3141TIP3   OH231057   6.317   2.804   0.462  0.3030  0.9427  0.2899
 3141TIP3    H131058   6.394   2.851   0.493 -1.0536  2.4947  1.5236
 3141TIP3    H231059   6.326   2.716   0.498  2.3136  0.5222 -1.0743
 3142TIP3   OH231060   0.572   6.007   0.056 -0.3883  0.1823  0.0569
 3142TIP3    H131061   0.509   6.057   0.108 -0.5352  0.1041 -0.0465
 3142TIP3    H231062   0.647   6.067   0.046  0.1907 -0.2576  1.4567
 3143TIP3   OH231063   5.801   0.090   2.479 -0.8890  0.2338 -0.0513
 3143TIP3    H131064   5.860   0.131   2.416 -2.8419  1.7765 -0.9726
 3143TIP3    H231065   5.778   0.160   2.540 -0.2281 -0.8551  1.5414
 3144TIP3   OH231066   3.960   1.119   7.547 -0.2539 -0.8753 -0.4830
 3144TIP3    H131067   3.943   1.130   7.454 -2.0052  0.4936 -0.0592
 3144TIP3    H231068   3.904   1.046   7.574 -2.7803  1.1423  0.1525
 3145TIP3   OH231069   0.950   0.955   1.062 -0.4359 -0.3476  0.0917
 3145TIP3    H131070   1.017   0.887   1.068  0.2009  0.2676  0.0681
 3145TIP3    H231071   0.992   1.033   1.097  0.3533  1.1517 -3.6617
 3146TIP3   OH231072   2.188   0.473   0.117  0.1334  0.2492 -0.7771
 3146TIP3    H131073   2.219   0.495   0.204  0.7435 -0.2495 -0.8615
 3146TIP3    H231074   2.250   0.517   0.058 -1.3897  2.2201 -1.0076
 3147TIP3   OH231075   1.295   3.926   0.867  0.5400  0.4601 -0.1599
 3147TIP3    H131076   1.284   3.936   0.772 -1.0879  2.3481  0.1566
 3147TIP3    H231077   1.386   3.950   0.883  0.5476  1.1491 -1.1471
 3148TIP3   OH231078   5.158   6.381   1.942 -0.5202 -0.1405  0.0124
 3148TIP3    H131079   5.088   6.349   2.000 -1.4027 -0.0704 -0.9792
 3148TIP3    H231080   5.130   6.356   1.855  0.0973  0.9767 -0.5285
 3149TIP3   OH231081   6.069   0.983   8.370 -0.3044 -0.3638 -0.3128
 3149TIP3    H131082   6.104   1.022   8.289 -0.6496  1.0974  0.2095
 3149TIP3    H231083   6.076   0.888   8.356  2.6777 -0.1734 -0.7364
 3150TIP3   OH231084   1.742   6.734   2.248  0.6327 -0.1644  0.0723
 3150TIP3    H131085   1.660   6.763   2.288  0.3206 -0.9478  0.0164
 3150TIP3    H231086   1.746   6.641   2.268  2.8445  0.3315  2.4567
 3151TIP3   OH231087   1.336   2.143   7.089  0.7506 -0.0057 -0.6355
 3151TIP3    H131088   1.280   2.209   7.049  0.1185  0.1464  0.4362
 3151TIP3    H231089   1.279   2.067   7.103  0.6539  0.2948  0.8469
 3152TIP3   OH231090   5.171   4.278   2.409 -0.6069  0.0385  0.3289
 3152TIP3    H131091   5.205   4.254   2.495 -1.7278 -1.6968  0.3454
 3152TIP3    H231092   5.096   4.334   2.427 -1.4770 -1.1620  0.5641
 3153TIP3   OH231093   0.625   1.334   8.112  0.0340 -0.4162  0.4726
 3153TIP3    H131094   0.546   1.311   8.062 -0.2355  0.5009  0.4699
 3153TIP3    H231095   0.620   1.278   8.190 -1.3212  0.5570  1.1177
 3154TIP3   OH231096   0.529   2.770   7.831  0.4061  0.5573 -0.3766
 3154TIP3    H131097   0.594   2.811   7.773  2.0210 -1.0157  0.2152
 3154TIP3    H231098   0.511   2.685   7.790  1.4416 -0.5133  1.2698
 3155TIP3   OH231099   0.964   0.259   7.344 -0.8737  0.1463 -0.2223
 3155TIP3    H131100   0.917   0.201   7.403 -0.2391  1.6345  1.8748
 3155TIP3    H231101   0.999   0.328   7.401  0.1860  1.4236 -2.2895
 3156TIP3   OH231102   2.382   6.522   2.205  0.0293  0.4348  0.2135
 3156TIP3    H131103   2.419   6.472   2.277  0.5092 -0.7646 -0.8319
 3156TIP3    H231104   2.431   6.605   2.205  0.5462  0.1320  0.7800
 3157TIP3   OH231105   4.737   0.319   2.405  0.1506 -0.3377  0.2062
 3157TIP3    H131106   4.731   0.415   2.403 -0.1806 -0.3583  0.1991
 3157TIP3    H231107   4.652   0.290   2.437  0.8245 -0.5640  1.8789
 3158TIP3   OH231108   2.178   3.046   0.386  0.1150  0.0883 -0.4001
 3158TIP3    H131109   2.206   3.131   0.353  2.2302 -0.0086  0.9168
 3158TIP3    H231110   2.220   2.983   0.327  0.5239 -0.0468  0.0311
 3159TIP3   OH231111   4.257   0.337   0.429  0.4385  0.5595  0.1998
 3159TIP3    H131112   4.220   0.253   0.455  2.1619 -0.1841  0.4079
 3159TIP3    H231113   4.344   0.338   0.469  0.8884  1.9483 -0.7455
 3160TIP3   OH231114   0.395   4.321   1.961 -0.8529  0.4341 -0.2424
 3160TIP3    H131115   0.328   4.255   1.944 -1.4121  0.8759  0.1788
 3160TIP3    H231116   0.393   4.378   1.884 -1.7865  1.1144  0.2604
 3161TIP3   OH231117   4.281   4.980   2.033  0.0945 -0.2531 -0.1077
 3161TIP3    H131118   4.287   4.887   2.057 -0.8938 -0.7849 -1.8197
 3161TIP3    H231119   4.298   4.982   1.939 -0.3116  1.2628 -0.1690
 3162TIP3   OH231120   5.351   1.324   2.033  0.1435 -0.2995 -1.0687
 3162TIP3    H131121   5.359   1.272   1.954  0.4343  0.4453 -1.5360
 3162TIP3    H231122   5.433   1.373   2.038  0.3431 -0.7071 -0.0363
 3163TIP3   OH231123   5.877   0.183   1.069  0.4904  0.2988  0.0447
 3163TIP3    H131124   5.954   0.233   1.045  0.4373 -0.3877 -1.7092
 3163TIP3    H231125   5.808   0.249   1.082  0.1809  0.7322 -3.1051
 3164TIP3   OH231126   6.313   3.365   2.364 -0.3063 -0.2214  0.2168
 3164TIP3    H131127   6.297   3.326   2.450 -0.3402  0.3298  0.4619
 3164TIP3    H231128   6.407   3.381   2.362 -0.2624 -0.4901  0.0377
 3165TIP3   OH231129   3.783   3.158   2.231  0.0932 -0.2674 -0.0153
 3165TIP3    H131130   3.862   3.105   2.239  0.6691  0.4412 -0.8898
 3165TIP3    H231131   3.713   3.095   2.215  0.4693 -0.8985  0.7629
 3166TIP3   OH231132   3.592   4.927   1.715  0.0948  0.3395 -0.2408
 3166TIP3    H131133   3.616   5.019   1.703 -0.5038  0.3437 -1.6539
 3166TIP3    H231134   3.610   4.887   1.630  1.7744 -1.2090  0.7769
 3167TIP3   OH231135   6.642   6.063   1.911  0.2148  0.1632 -0.3830
 3167TIP3    H131136   6.699   6.134   1.882  1.4454 -0.9287 -0.7739
 3167TIP3    H231137   6.681   5.984   1.872 -0.3466 -0.8836  1.0985
 3168TIP3   OH231138   3.799   1.616   8.030 -0.5185 -0.6359 -0.4882
 3168TIP3    H131139   3.864   1.669   7.984  0.2416 -1.7798 -0.7649
 3168TIP3    H231140   3.715   1.649   7.998 -0.1224  1.2479  0.3069
 3169TIP3   OH231141   1.167   1.079   1.570 -0.0973  0.2964  0.3452
 3169TIP3    H131142   1.248   1.031   1.589 -0.8586 -1.6779 -1.1227
 3169TIP3    H231143   1.186   1.127   1.489 -0.7517 -1.1979 -0.7308
 3170TIP3   OH231144   1.481   4.963   0.074 -1.1464 -0.2358 -0.1982
 3170TIP3    H131145   1.479   4.947   0.169  0.2659  0.2110 -0.0606
 3170TIP3    H231146   1.429   4.893   0.036 -0.8605 -1.0406  0.8503
 3171TIP3   OH231147   4.916   6.705   0.993 -0.1891 -0.0322 -0.0306
 3171TIP3    H131148   4.849   6.756   0.949 -1.1335  0.9273  2.3512
 3171TIP3    H231149   4.870   6.629   1.029  0.5691 -0.8455 -0.7160
 3172TIP3   OH231150   3.847   0.169   0.199  0.1918  0.1165 -0.7007
 3172TIP3    H131151   3.831   0.133   0.112 -0.1055 -0.6215 -0.3460
 3172TIP3    H231152   3.886   0.097   0.248  2.5422  1.1666 -0.8582
 3173TIP3   OH231153   5.510   1.735   0.925 -0.3883 -0.0772  0.0794
 3173TIP3    H131154   5.418   1.713   0.911 -0.3891 -0.1331  0.1681
 3173TIP3    H231155   5.551   1.720   0.840 -0.2323 -1.2462  0.3369
 3174TIP3   OH231156   5.398   2.280   2.206  0.2477 -0.0296 -0.2466
 3174TIP3    H131157   5.460   2.352   2.217  0.5206 -0.5811  2.5632
 3174TIP3    H231158   5.443   2.217   2.149  1.9934 -0.0632  1.1093
 3175TIP3   OH231159   1.934   6.603   7.419 -0.1625  0.3953 -0.1039
 3175TIP3    H131160   1.939   6.623   7.513  1.1445  0.2035 -0.1148
 3175TIP3    H231161   1.888   6.678   7.381  0.0121  0.8588  0.5746
 3176TIP3   OH231162   1.073   5.023   1.251 -0.7528 -0.8802 -0.2931
 3176TIP3    H131163   1.159   5.057   1.278 -0.0401 -0.6326 -2.6602
 3176TIP3    H231164   1.082   4.928   1.256 -0.3753 -0.8522 -0.4122
 3177TIP3   OH231165   5.381   3.108   3.040 -0.2066 -0.1066 -0.2149
 3177TIP3    H131166   5.302   3.075   3.083 -0.5924  0.7213 -0.2834
 3177TIP3    H231167   5.407   3.185   3.091  0.1446  0.0469 -0.6201
 3178TIP3   OH231168   6.015   5.220   0.348  0.5729  0.0177  0.0992
 3178TIP3    H131169   5.955   5.219   0.423  1.1215  0.5431  0.5525
 3178TIP3    H231170   5.961   5.249   0.274  0.5879  1.8732  0.7880
 3179TIP3   OH231171   0.691   0.277   7.689  0.0690  0.0073 -0.3150
 3179TIP3    H131172   0.714   0.209   7.752  1.2833 -0.1049 -0.8642
 3179TIP3    H231173   0.596   0.269   7.679 -0.1715  0.0526  1.5084
 3180TIP3   OH231174   1.727   0.406   2.409  0.6927  0.0419 -0.0142
 3180TIP3    H131175   1.694   0.321   2.439  0.9637 -0.1877 -0.3510
 3180TIP3    H231176   1.801   0.383   2.352  0.5291  0.4895 -0.4097
 3181TIP3   OH231177   5.482   0.681   0.338  0.3149  0.2676  0.2195
 3181TIP3    H131178   5.500   0.739   0.412 -0.3267  0.3461  0.3179
 3181TIP3    H231179   5.425   0.612   0.374  2.3921 -1.3990  0.5192
 3182TIP3   OH231180   1.389   0.610   1.488  0.6806  0.2387  0.1376
 3182TIP3    H131181   1.464   0.563   1.450 -0.5269 -0.3346 -1.6341
 3182TIP3    H231182   1.365   0.557   1.565  0.3800 -1.1442 -0.8727
 3183TIP3   OH231183   2.613   6.673   6.962  0.3625  0.7031  0.0144
 3183TIP3    H131184   2.544   6.614   6.931  0.8660  0.7318 -1.1895
 3183TIP3    H231185   2.640   6.636   7.046 -0.9765  0.5814  0.4216
 3184TIP3   OH231186   1.453   5.623   0.225  0.0687  0.1616 -0.8914
 3184TIP3    H131187   1.438   5.675   0.146  0.0671  0.8024 -0.4831
 3184TIP3    H231188   1.388   5.655   0.287  1.6746  1.4884  0.2066
 3185TIP3   OH231189   1.751   4.034   2.651 -0.5570  0.2160  0.5283
 3185TIP3    H131190   1.791   4.057   2.734 -0.4639  0.6811  0.3558
 3185TIP3    H231191   1.761   3.939   2.645  0.3659  0.2998  0.5680
 3186TIP3   OH231192   4.940   6.645   2.093 -0.3252  0.2534 -0.0594
 3186TIP3    H131193   4.988   6.728   2.093  0.5151 -0.2199 -0.0096
 3186TIP3    H231194   4.986   6.591   2.157 -1.5805  0.1406  0.7726
 3187TIP3   OH231195   3.318   5.194   0.747  0.0960  0.0241 -0.3769
 3187TIP3    H131196   3.408   5.215   0.725  0.0074 -0.0540 -0.8348
 3187TIP3    H231197   3.275   5.181   0.662 -0.5201  0.7960 -0.2033
 3188TIP3   OH231198   5.237   3.950   1.647  0.2802  0.2416 -0.0806
 3188TIP3    H131199   5.283   3.866   1.640  0.1351 -0.1398  2.5015
 3188TIP3    H231200   5.163   3.943   1.587  0.2427 -1.5172  0.1346
 3189TIP3   OH231201   6.896   0.345   8.316 -0.0624 -0.4972  0.0380
 3189TIP3    H131202   6.990   0.357   8.304 -0.3812  1.9709 -0.6941
 3189TIP3    H231203   6.868   0.422   8.366 -2.0269  0.1404 -1.8615
 3190TIP3   OH231204   5.382   0.796   1.995 -0.0551  0.1563 -0.0832
 3190TIP3    H131205   5.422   0.867   1.945 -1.2093  1.0503  0.2137
 3190TIP3    H231206   5.427   0.798   2.080  0.8174 -0.3422 -0.5163
 3191TIP3   OH231207   4.733   1.225   0.025  0.4630  0.1128  0.3129
 3191TIP3    H131208   4.766   1.251   0.110 -0.4867 -1.1327  1.0984
 3191TIP3    H231209   4.806   1.238  -0.035  1.6342 -0.4190  1.5859
 3192TIP3   OH231210   0.771   3.259   7.968 -0.1704 -0.1312 -0.6532
 3192TIP3    H131211   0.787   3.165   7.978 -0.0020 -0.1648 -1.1839
 3192TIP3    H231212   0.677   3.269   7.985  0.0719 -0.1731  0.8327
 3193TIP3   OH231213   6.343   6.918   0.824 -0.1376  0.2612  0.2891
 3193TIP3    H131214   6.421   6.932   0.769 -1.9699 -1.1147 -2.9914
 3193TIP3    H231215   6.354   6.830   0.859  0.1093  0.3531  0.4433
 3194TIP3   OH231216   0.292   2.471   7.976  0.1102  0.3885  0.0106
 3194TIP3    H131217   0.308   2.450   7.884 -0.9988 -1.1403  0.1188
 3194TIP3    H231218   0.358   2.422   8.024  0.2148  0.5803  0.0624
 3195TIP3   OH231219   5.271   2.139   0.529 -0.0381  0.2765  0.2961
 3195TIP3    H131220   5.262   2.045   0.515 -0.5421  0.0806  1.7170
 3195TIP3    H231221   5.351   2.163   0.483  1.6234 -1.3774  2.1458
 3196TIP3   OH231222   1.335   1.483   1.928  0.3537 -0.2611  0.2554
 3196TIP3    H131223   1.303   1.409   1.877 -1.1919  0.8399 -0.4664
 3196TIP3    H231224   1.430   1.482   1.916  0.4644 -2.5819  0.9556
 3197TIP3   OH231225   6.785   2.947   8.078 -0.0393 -0.0667  0.3906
 3197TIP3    H131226   6.734   2.956   7.997  1.2416 -1.7154 -0.6686
 3197TIP3    H231227   6.875   2.935   8.049  0.6795  0.7526  2.1413
 3198TIP3   OH231228   0.599   1.465   7.388  0.1316 -0.6252 -0.7541
 3198TIP3    H131229   0.678   1.411   7.393 -0.2406 -1.3588 -2.2758
 3198TIP3    H231230   0.593   1.491   7.296 -1.9754 -1.5093 -0.9248
 3199TIP3   OH231231   0.624   6.617   7.959 -0.2825  0.2948 -0.1759
 3199TIP3    H131232   0.628   6.550   7.891  1.9255 -0.3601  0.5337
 3199TIP3    H231233   0.712   6.654   7.963 -0.6145  1.0373  1.6066
 3200TIP3   OH231234   1.823   0.830   7.529 -0.0281 -0.0742  0.5351
 3200TIP3    H131235   1.886   0.874   7.586  1.3530  0.2551 -1.1846
 3200TIP3    H231236   1.738   0.859   7.562  0.7761  1.7389  1.1827
 3201TIP3   OH231237   6.644   1.142   0.272  0.2003  0.0937  0.1287
 3201TIP3    H131238   6.568   1.184   0.232  0.9954  0.7104 -0.7725
 3201TIP3    H231239   6.714   1.152   0.207  1.0127 -0.6096  0.8703
 3202TIP3   OH231240   1.841   1.844   7.910  0.1860  0.0298 -0.5482
 3202TIP3    H131241   1.855   1.896   7.830 -2.0694 -0.2950 -1.2015
 3202TIP3    H231242   1.797   1.904   7.970 -0.8617 -0.5886 -0.6762
 3203TIP3   OH231243   5.481   0.064   1.208 -0.4076 -0.3162 -0.5827
 3203TIP3    H131244   5.392   0.092   1.186 -0.8084 -1.8236 -1.0249
 3203TIP3    H231245   5.516   0.031   1.125  0.1799 -0.6899 -0.1844
 3204TIP3   OH231246   1.797   0.327   8.279  0.0627 -0.5393 -0.3853
 3204TIP3    H131247   1.782   0.408   8.328  2.4659 -0.3097  0.1121
 3204TIP3    H231248   1.829   0.265   8.345 -0.1870 -1.3901 -1.0438
 3205TIP3   OH231249   6.453   1.088   7.540 -0.1213 -0.3643 -0.3402
 3205TIP3    H131250   6.412   1.004   7.561 -1.1210  0.4525  1.1993
 3205TIP3    H231251   6.389   1.153   7.567  0.5593  0.9118 -1.6888
 3206TIP3   OH231252   2.041   2.390   2.435  0.4776  0.8305  0.1856
 3206TIP3    H131253   2.115   2.446   2.413  0.2871  2.0434  2.3654
 3206TIP3    H231254   1.981   2.446   2.483 -0.4425 -0.8587  1.1241
 3207TIP3   OH231255   3.478   4.412   1.717 -0.1153  0.1928 -0.2472
 3207TIP3    H131256   3.443   4.466   1.647  0.3164  0.9030  0.0781
 3207TIP3    H231257   3.408   4.349   1.736  0.3876 -1.1276 -2.4450
 3208TIP3   OH231258   1.527   6.564   1.908  0.0247  0.1214 -0.2776
 3208TIP3    H131259   1.569   6.614   1.838  2.7352 -1.1114  0.3319
 3208TIP3    H231260   1.476   6.497   1.862  1.3267 -0.3349 -1.1217
 3209TIP3   OH231261   0.206   1.916   7.813  0.0695  0.1620  0.4944
 3209TIP3    H131262   0.213   2.000   7.768  0.4718  0.2039  0.6341
 3209TIP3    H231263   0.174   1.938   7.900 -0.2756  0.1223  0.3820
 3210TIP3   OH231264   1.472   1.414   7.434  0.7781 -0.0378 -0.2040
 3210TIP3    H131265   1.507   1.344   7.489  1.2918  1.0349  0.8754
 3210TIP3    H231266   1.437   1.478   7.495 -1.1807 -0.0790 -1.2099
 3211TIP3   OH231267   4.442   0.473   7.299  0.0918  0.5582  0.2286
 3211TIP3    H131268   4.384   0.506   7.368  1.9089 -1.5846  2.9983
 3211TIP3    H231269   4.392   0.403   7.258 -0.4043  0.7695  0.4620
 3212TIP3   OH231270   0.166   6.001   1.821 -0.5163 -0.3419  0.1986
 3212TIP3    H131271   0.207   6.085   1.840  1.7604 -1.5058  0.7436
 3212TIP3    H231272   0.115   6.017   1.741  0.0075  1.4836  0.1719
 3213TIP3   OH231273   0.005   1.985   2.972  1.0471 -0.1934 -0.0394
 3213TIP3    H131274  -0.023   2.074   2.993  2.7234  0.3612 -0.0114
 3213TIP3    H231275  -0.041   1.930   3.035  0.2080  0.6659  0.1293
 3214TIP3   OH231276   2.040   2.409   1.294  0.1357  0.4214  0.1538
 3214TIP3    H131277   2.050   2.327   1.342  0.9007  0.7198  0.5213
 3214TIP3    H231278   2.019   2.474   1.361 -1.9835  0.2835 -0.3021
 3215TIP3   OH231279   5.181   2.424   1.430 -0.3633 -0.0344  0.2386
 3215TIP3    H131280   5.241   2.457   1.497 -1.3963 -0.5566  1.4682
 3215TIP3    H231281   5.236   2.374   1.371  0.6782  0.9943  0.3032
 3216TIP3   OH231282   6.181   0.628   2.563 -0.3146 -0.5684  0.0855
 3216TIP3    H131283   6.196   0.708   2.615 -3.1040  1.1677 -1.5032
 3216TIP3    H231284   6.151   0.564   2.627 -0.6197  0.5118  1.0670
 3217TIP3   OH231285   4.804   6.066   8.358  0.2143 -0.0560  0.5437
 3217TIP3    H131286   4.809   5.978   8.321 -0.5766 -0.6304  1.7330
 3217TIP3    H231287   4.895   6.096   8.361  0.3548 -0.1640 -1.3605
 3218TIP3   OH231288   2.634   3.036   0.874 -0.1095 -0.1286  0.0244
 3218TIP3    H131289   2.598   3.048   0.786  1.2443 -1.2570 -0.7280
 3218TIP3    H231290   2.728   3.052   0.863  0.0413 -0.0515  1.3172
 3219TIP3   OH231291   2.673   6.796   0.402  0.0683 -0.0692  0.2231
 3219TIP3    H131292   2.624   6.852   0.462 -0.3915 -0.0340 -0.1745
 3219TIP3    H231293   2.764   6.824   0.412  0.0760 -0.4491  1.3103
 3220TIP3   OH231294   0.070   5.045   1.857  0.0393 -0.1478 -0.2882
 3220TIP3    H131295   0.034   5.128   1.826 -1.7781 -0.9099 -0.3439
 3220TIP3    H231296   0.095   4.998   1.777  3.2364  1.1687 -0.2082
 3221TIP3   OH231297   1.175   6.319   7.131 -0.0306 -0.3306  0.0611
 3221TIP3    H131298   1.190   6.331   7.037 -1.8862 -0.1140 -0.2423
 3221TIP3    H231299   1.229   6.244   7.154  1.7268  0.5871 -0.8019
 3222TIP3   OH231300   3.658   3.930   1.473 -0.6504 -0.2744  0.1675
 3222TIP3    H131301   3.688   3.893   1.390  0.1466  2.2515 -0.7476
 3222TIP3    H231302   3.738   3.965   1.514 -1.3986  0.6946  0.8373
 3223TIP3   OH231303   4.279   3.484   7.545  0.4910  0.5343  0.1393
 3223TIP3    H131304   4.332   3.428   7.489 -1.1528 -1.4153  0.4148
 3223TIP3    H231305   4.259   3.429   7.621 -1.1649  1.4954  0.4383
 3224TIP3   OH231306   3.353   3.074   2.583  0.0962  0.1345  0.0554
 3224TIP3    H131307   3.422   3.095   2.520  0.0548  1.7629  0.4901
 3224TIP3    H231308   3.299   3.153   2.586 -0.8255 -0.5015  0.9570
 3225TIP3   OH231309   3.998   3.328   6.770  0.0668  0.8919  0.3714
 3225TIP3    H131310   3.934   3.326   6.699 -1.7531 -0.1243  1.9352
 3225TIP3    H231311   4.008   3.420   6.791  0.0136  1.1416 -0.6296
 3226TIP3   OH231312   1.452   3.604   0.601  0.2324 -0.2134  0.7149
 3226TIP3    H131313   1.484   3.676   0.546 -1.8972  0.2143 -0.0998
 3226TIP3    H231314   1.529   3.549   0.617  1.5144  1.2097 -0.2762
 3227TIP3   OH231315   5.844   2.175   2.752 -0.7621  0.4890 -0.0516
 3227TIP3    H131316   5.870   2.184   2.660  0.6234  4.6599  0.5435
 3227TIP3    H231317   5.860   2.261   2.790 -0.3299 -1.2943  4.4104
 3228TIP3   OH231318   5.514   4.440   8.048  0.1905 -0.3049  0.2113
 3228TIP3    H131319   5.542   4.394   7.969  1.4039  1.5123 -0.4902
 3228TIP3    H231320   5.508   4.372   8.115  0.3079 -1.7034 -1.1399
 3229TIP3   OH231321   2.391   4.558   7.220  0.2772  0.6578  0.4447
 3229TIP3    H131322   2.378   4.488   7.283  0.1964  0.8788  0.6729
 3229TIP3    H231323   2.302   4.583   7.192  0.3251  0.2948 -0.0511
 3230TIP3   OH231324   5.629   3.428   3.347 -0.7578 -0.2496  0.1172
 3230TIP3    H131325   5.649   3.444   3.439 -0.8568 -1.9238  0.4657
 3230TIP3    H231326   5.713   3.435   3.302 -0.5622 -0.3387  0.4700
 3231TIP3   OH231327   2.780   1.909   1.747  0.0545  0.3034 -0.0202
 3231TIP3    H131328   2.755   1.996   1.779 -1.3261 -0.3071  0.6471
 3231TIP3    H231329   2.870   1.920   1.715  1.0435  1.3112  2.7866
 3232TIP3   OH231330   2.169   3.472   7.955 -0.1899  0.4914 -0.1799
 3232TIP3    H131331   2.211   3.396   7.993  0.0320  1.0995  0.8352
 3232TIP3    H231332   2.221   3.546   7.986  0.1915  1.0038 -1.9496
 3233TIP3   OH231333   4.832   2.149   2.446  0.8009  0.1452  0.0753
 3233TIP3    H131334   4.785   2.172   2.526  2.6978 -1.3166  1.6957
 3233TIP3    H231335   4.784   2.075   2.410 -1.1317  1.9173 -1.2544
 3234TIP3   OH231336   4.570   5.634   8.379  0.2565 -0.2293 -0.7939
 3234TIP3    H131337   4.504   5.571   8.351 -0.3901 -0.3826  0.9501
 3234TIP3    H231338   4.642   5.580   8.412 -0.8177 -0.1628  1.8984
 3235TIP3   OH231339   5.133   2.079   2.801  0.1680  0.0569  0.0250
 3235TIP3    H131340   5.053   2.030   2.784 -0.3828  1.1728 -0.6962
 3235TIP3    H231341   5.191   2.016   2.845 -0.5322 -1.2116 -0.8073
 3236TIP3   OH231342   4.147   6.401   7.308  0.6353 -0.2577 -0.7020
 3236TIP3    H131343   4.118   6.435   7.393  1.3955  1.9550 -1.2555
 3236TIP3    H231344   4.240   6.425   7.303  0.8096 -1.1044 -1.7989
 3237TIP3   OH231345   4.120   4.323   7.648  0.3816 -0.1431  0.1973
 3237TIP3    H131346   4.162   4.256   7.593 -0.0097  0.0382 -0.3288
 3237TIP3    H231347   4.110   4.398   7.590  1.2639  0.5529  0.9172
 3238TIP3   OH231348   0.148   5.211   1.518  0.1964 -0.4613  0.2808
 3238TIP3    H131349   0.225   5.237   1.468 -0.3910 -0.1508 -0.4748
 3238TIP3    H231350   0.086   5.282   1.505  0.1143 -0.2514  1.6596
 3239TIP3   OH231351   2.948   4.374   1.543  0.2375 -0.5097 -0.4280
 3239TIP3    H131352   2.856   4.382   1.567  0.4763 -1.6303  1.0087
 3239TIP3    H231353   2.951   4.297   1.486  0.2300 -0.1996 -0.8519
 3240TIP3   OH231354   0.083   5.519   7.159 -0.1508 -0.2200 -0.5502
 3240TIP3    H131355   0.178   5.506   7.159 -0.2282 -0.8434  0.0640
 3240TIP3    H231356   0.047   5.431   7.148 -0.6595 -0.0835 -0.0112
 3241TIP3   OH231357   6.190   4.851   2.943  0.5712  0.6993 -0.1019
 3241TIP3    H131358   6.181   4.757   2.956 -0.4079  0.9007  0.8596
 3241TIP3    H231359   6.255   4.878   3.008 -0.1182  0.8689  0.5288
 3242TIP3   OH231360   6.760   1.859   0.908  0.1719  0.0763 -0.7352
 3242TIP3    H131361   6.758   1.894   0.997  0.0027  0.9049 -1.0577
 3242TIP3    H231362   6.853   1.858   0.884  0.3409 -1.3692 -0.0865
 3243TIP3   OH231363   4.986   3.200   0.634 -0.4165  0.3315  0.3165
 3243TIP3    H131364   5.015   3.175   0.722 -1.2298  0.9550  0.7818
 3243TIP3    H231365   5.060   3.249   0.597 -0.9052  2.1826  1.6024
 3244TIP3   OH231366   1.614   3.356   1.049 -0.3638  0.1890  0.4356
 3244TIP3    H131367   1.704   3.356   1.082 -0.0500  1.6193 -0.3631
 3244TIP3    H231368   1.623   3.346   0.955 -0.9466  1.7479  0.1889
 3245TIP3   OH231369   4.697   1.556   1.048  0.3420  0.3088  0.5835
 3245TIP3    H131370   4.701   1.629   1.110  0.9414 -0.0264  0.9496
 3245TIP3    H231371   4.786   1.549   1.014  0.4960 -0.7887  1.1849
 3246TIP3   OH231372   3.097   0.326   7.909 -0.0619 -0.2052 -0.7937
 3246TIP3    H131373   3.083   0.407   7.862 -1.1759 -0.0995 -0.3155
 3246TIP3    H231374   3.125   0.353   7.997 -2.1472 -0.2550 -0.0748
 3247TIP3   OH231375   1.789   3.240   8.327 -0.1623  0.3267  0.3747
 3247TIP3    H131376   1.859   3.251   8.392  0.4661  0.4146 -0.3109
 3247TIP3    H231377   1.720   3.300   8.356  0.5212  1.1097  0.4087
 3248TIP3   OH231378   6.561   4.085   0.498 -0.5615  0.0588 -0.2676
 3248TIP3    H131379   6.482   4.138   0.510 -0.2546  0.6063 -0.6452
 3248TIP3    H231380   6.625   4.125   0.557 -0.7762 -0.8365  0.5905
 3249TIP3   OH231381   6.103   0.738   1.335  0.2562 -0.2586 -0.2249
 3249TIP3    H131382   6.128   0.742   1.242  1.2434 -1.3595 -0.0309
 3249TIP3    H231383   6.086   0.645   1.351 -0.3085 -0.0217  0.6094
 3250TIP3   OH231384   1.744   0.295   1.756 -0.6001  0.3728  0.4953
 3250TIP3    H131385   1.707   0.239   1.824 -1.3902 -1.1545 -1.1031
 3250TIP3    H231386   1.671   0.350   1.728  0.1303  2.1792  1.9398
 3251TIP3   OH231387   0.051   0.417   0.143  0.2511 -0.0930  0.4898
 3251TIP3    H131388   0.009   0.502   0.133 -1.3428 -0.8971 -0.0791
 3251TIP3    H231389   0.103   0.406   0.064 -0.7450 -0.2493 -0.1726
 3252TIP3   OH231390   1.950   1.491   7.263 -0.1104 -1.2174 -0.5889
 3252TIP3    H131391   1.903   1.570   7.235 -0.0102 -0.6029  0.9007
 3252TIP3    H231392   1.914   1.421   7.208 -0.6084 -0.2392 -1.5426
 3253TIP3   OH231393   5.531   0.461   7.813  0.1314 -0.9701  0.1319
 3253TIP3    H131394   5.526   0.525   7.884  0.9716 -1.3879  0.5938
 3253TIP3    H231395   5.598   0.496   7.754 -0.4587 -0.6989 -0.3838
 3254TIP3   OH231396   4.433   2.003   0.560 -0.0290 -0.1659 -0.1809
 3254TIP3    H131397   4.396   1.923   0.523  0.4510  0.7772 -2.9549
 3254TIP3    H231398   4.409   2.072   0.497  1.7461  1.4056  0.7588
 3255TIP3   OH231399   4.432   3.303   2.786  0.5198  0.5881  0.0802
 3255TIP3    H131400   4.482   3.223   2.804  1.9639  0.7469 -2.7656
 3255TIP3    H231401   4.452   3.360   2.860 -0.3043 -1.4790  2.0303
 3256TIP3   OH231402   3.250   3.279   0.054 -0.3589  0.8640  0.2739
 3256TIP3    H131403   3.201   3.231   0.121 -0.3849  0.2781 -0.1528
 3256TIP3    H231404   3.270   3.363   0.094 -0.6654  0.6472  0.8945
 3257TIP3   OH231405   1.911   1.750   3.009  0.3527  0.5306  0.0361
 3257TIP3    H131406   1.949   1.807   3.076 -2.1354  0.2374  1.8342
 3257TIP3    H231407   1.821   1.738   3.036 -0.0164 -1.9079 -1.9030
 3258TIP3   OH231408   0.226   4.926   2.078  0.5511  0.3140  0.3991
 3258TIP3    H131409   0.267   4.859   2.024 -2.2974 -1.9851  0.8298
 3258TIP3    H231410   0.196   4.992   2.015 -0.7980 -1.2509 -0.7097
 3259TIP3   OH231411   0.841   6.833   2.381 -0.6996 -0.0477  0.0343
 3259TIP3    H131412   0.831   6.744   2.416 -1.0907 -0.1106 -0.2247
 3259TIP3    H231413   0.860   6.886   2.458  3.1750 -0.8496 -0.1698
 3260TIP3   OH231414   6.407   4.436   0.785 -0.4638  0.4721  0.0363
 3260TIP3    H131415   6.345   4.376   0.825 -1.3713  2.0620  1.1648
 3260TIP3    H231416   6.493   4.401   0.808 -0.8990 -1.3820 -0.9682
 3261TIP3   OH231417   3.872   4.459   8.112  0.4059  0.1805 -0.2274
 3261TIP3    H131418   3.902   4.385   8.059 -1.8403 -2.3286  1.7063
 3261TIP3    H231419   3.943   4.473   8.175 -0.1532 -2.2176  1.0600
 3262TIP3   OH231420   0.507   6.524   7.466  0.3041 -0.3733 -0.1151
 3262TIP3    H131421   0.450   6.454   7.498  0.1431 -0.4081 -0.4778
 3262TIP3    H231422   0.479   6.601   7.515 -2.4081  0.4301 -2.6328
 3263TIP3   OH231423   0.081   5.413   7.493  0.0098 -0.3630 -0.0878
 3263TIP3    H131424   0.103   5.333   7.446  1.3885  0.4265 -0.8739
 3263TIP3    H231425  -0.001   5.442   7.455  0.3297 -0.5608 -0.9476
 3264TIP3   OH231426   3.766   0.724   2.007  0.1617  0.3524 -0.0545
 3264TIP3    H131427   3.701   0.659   2.033 -0.8259  1.5570  0.6056
 3264TIP3    H231428   3.850   0.680   2.021 -0.4540 -1.6894 -2.1491
 3265TIP3   OH231429   0.137   2.810   2.564 -0.0634 -0.4095  0.2718
 3265TIP3    H131430   0.111   2.730   2.609  0.5389  0.2758  1.9216
 3265TIP3    H231431   0.231   2.800   2.549  0.3915  0.7129  2.1336
 3266TIP3   OH231432   6.372   2.512   3.487 -0.0561  0.4901  0.1812
 3266TIP3    H131433   6.368   2.602   3.453 -0.7150 -0.2583 -1.9206
 3266TIP3    H231434   6.284   2.478   3.473  0.3595 -0.6841  0.3270
 3267TIP3   OH231435   5.930   4.620   2.030  0.3760 -0.2297 -0.2334
 3267TIP3    H131436   5.941   4.545   1.971 -0.5378  0.5633 -1.4605
 3267TIP3    H231437   5.886   4.686   1.976 -0.7970  0.4132  1.4571
 3268TIP3   OH231438   3.499   2.224   2.448 -0.1590 -0.3180 -0.7605
 3268TIP3    H131439   3.462   2.303   2.488 -1.1703 -0.1995 -1.8646
 3268TIP3    H231440   3.423   2.174   2.417  0.4376 -1.9865  0.3431
 3269TIP3   OH231441   6.473   0.360   2.054  0.0621 -0.1482 -0.2622
 3269TIP3    H131442   6.425   0.365   1.972  0.0404  1.5614 -0.1681
 3269TIP3    H231443   6.470   0.448   2.090  2.5983 -0.1304  0.1366
 3270TIP3   OH231444   5.608   3.253   7.663 -0.8813  1.1305 -0.1263
 3270TIP3    H131445   5.625   3.276   7.754  3.2446  1.0781 -0.6871
 3270TIP3    H231446   5.623   3.159   7.658 -0.8429  1.1662 -0.8877
 3271TIP3   OH231447   2.882   5.708   2.463 -0.1302  0.0963 -0.6604
 3271TIP3    H131448   2.894   5.623   2.507  0.2295  0.4710 -0.0141
 3271TIP3    H231449   2.969   5.748   2.467 -1.0666  2.2271  2.7209
 3272TIP3   OH231450   5.960   6.902   6.766  0.0820 -0.3271  0.1109
 3272TIP3    H131451   5.907   6.867   6.837  1.2243 -2.4070  0.0057
 3272TIP3    H231452   6.050   6.901   6.800  0.4294  0.3906 -0.7251
 3273TIP3   OH231453   0.833   5.676   1.700 -0.0445  0.4006  0.2714
 3273TIP3    H131454   0.903   5.626   1.743  0.0831  0.8320  0.5725
 3273TIP3    H231455   0.879   5.743   1.649 -0.1927 -0.1409 -0.5919
 3274TIP3   OH231456   5.155   2.016   1.681  0.1000  0.5152  0.8043
 3274TIP3    H131457   5.159   1.942   1.741  2.4078  0.9716  1.3281
 3274TIP3    H231458   5.088   2.074   1.718  0.4472  0.1047  2.1240
 3275TIP3   OH231459   1.410   5.835   2.092  0.1998  0.3775 -0.2280
 3275TIP3    H131460   1.443   5.924   2.084  1.2460 -0.0438 -0.8311
 3275TIP3    H231461   1.489   5.780   2.099 -0.4244 -0.4798  0.4415
 3276TIP3   OH231462   2.252   3.118   7.920 -0.3467  0.0157  0.7050
 3276TIP3    H131463   2.162   3.130   7.891 -0.4258 -0.2328  0.8489
 3276TIP3    H231464   2.258   3.168   8.001 -0.3281  0.1087  0.6468
 3277TIP3   OH231465   5.585   1.510   6.525 -0.2498  0.1842 -0.1285
 3277TIP3    H131466   5.630   1.594   6.519  1.0488 -0.3658  1.1898
 3277TIP3    H231467   5.561   1.502   6.618  2.5816 -2.2603  0.5420
 3278TIP3   OH231468   3.522   2.128   2.062  0.1383  0.1912 -0.1112
 3278TIP3    H131469   3.571   2.107   1.982 -0.5255 -1.1074 -0.2069
 3278TIP3    H231470   3.556   2.068   2.128 -0.8685 -0.3110 -0.0195
 3279TIP3   OH231471   6.614   0.824   7.686 -1.3009  0.4599 -0.2079
 3279TIP3    H131472   6.587   0.794   7.772  0.0486 -1.2689 -0.3463
 3279TIP3    H231473   6.536   0.867   7.650 -1.9272  1.0765  1.7782
 3280TIP3   OH231474   5.116   3.495   3.032 -0.3570  0.6833 -0.5079
 3280TIP3    H131475   5.153   3.540   3.108 -1.3918  1.9668 -0.7025
 3280TIP3    H231476   5.191   3.460   2.985  0.3816  0.8835  0.4930
 3281TIP3   OH231477   2.781   4.121   2.612  0.5111  0.0102  0.0941
 3281TIP3    H131478   2.703   4.101   2.663  1.0088 -1.1822  0.4291
 3281TIP3    H231479   2.753   4.188   2.550 -1.1906 -1.4537 -0.8090
 3282TIP3   OH231480   0.298   2.140   1.871  0.0682 -0.4907  0.0042
 3282TIP3    H131481   0.337   2.227   1.867 -0.0158 -0.4654 -0.4338
 3282TIP3    H231482   0.371   2.080   1.855 -0.2416 -0.3922 -2.2071
 3283TIP3   OH231483   5.716   2.819   8.073 -0.0510 -0.1785 -0.6139
 3283TIP3    H131484   5.757   2.877   8.009  0.3697  0.2903  0.0620
 3283TIP3    H231485   5.743   2.854   8.158 -2.0137  0.2624 -0.1159
 3284TIP3   OH231486   4.087   1.494   1.797  0.1617 -0.2187  0.3117
 3284TIP3    H131487   4.052   1.440   1.726  0.3288  2.5325 -2.0492
 3284TIP3    H231488   4.177   1.463   1.808  0.4040 -0.1801 -1.2969
 3285TIP3   OH231489   3.010   6.058   0.148  0.0100 -0.0250  0.3434
 3285TIP3    H131490   2.959   5.981   0.175 -0.5644  0.7226  1.4958
 3285TIP3    H231491   2.952   6.104   0.086  1.1122 -1.4567 -1.8967
 3286TIP3   OH231492   6.923   3.577   2.121 -0.2247  1.0747  0.3296
 3286TIP3    H131493   6.999   3.587   2.063 -0.7780  2.7187 -0.1740
 3286TIP3    H231494   6.924   3.657   2.174 -1.7256  1.2381  0.1515
 3287TIP3   OH231495   4.934   3.213   8.343  0.2541 -0.2616 -0.8290
 3287TIP3    H131496   4.941   3.301   8.305 -0.8959 -0.1676 -0.8606
 3287TIP3    H231497   4.840   3.199   8.353  0.4876 -0.0810  2.5154
 3288TIP3   OH231498   5.315   2.395   1.831  0.9148 -0.1307 -0.0189
 3288TIP3    H131499   5.339   2.488   1.833  1.3517 -0.2484  1.7348
 3288TIP3    H231500   5.394   2.351   1.799  0.2460  0.1727 -2.2846
 3289TIP3   OH231501   6.711   1.924   1.292  0.1716  0.0270  0.1511
 3289TIP3    H131502   6.794   1.969   1.280 -0.2951  0.8462 -0.0600
 3289TIP3    H231503   6.681   1.950   1.379 -0.3709  0.5904 -0.1947
 3290TIP3   OH231504   3.967   5.877   0.635  0.1009 -0.2972  0.1301
 3290TIP3    H131505   4.048   5.886   0.584  0.6821  0.5707  1.1581
 3290TIP3    H231506   3.898   5.867   0.569  0.8123  0.9567 -0.8524
 3291TIP3   OH231507   2.670   6.489   7.718  0.2624 -0.6404 -0.3662
 3291TIP3    H131508   2.719   6.410   7.742 -0.9584 -0.9408  1.2295
 3291TIP3    H231509   2.653   6.534   7.800 -1.7082 -0.2897 -0.9102
 3292TIP3   OH231510   0.591   0.132   2.931 -0.4671  0.0868  0.0139
 3292TIP3    H131511   0.683   0.155   2.919 -0.0379 -1.6181 -0.2238
 3292TIP3    H231512   0.590   0.036   2.935 -2.1468  0.0949  0.7993
 3293TIP3   OH231513   0.498   1.585   2.835 -0.0269 -0.2509 -0.2676
 3293TIP3    H131514   0.551   1.508   2.817 -1.1947 -1.0290 -0.4954
 3293TIP3    H231515   0.408   1.552   2.837 -0.4250  0.8044  1.3164
 3294TIP3   OH231516   2.572   3.523   8.015 -0.0986 -0.4936 -0.3707
 3294TIP3    H131517   2.600   3.590   7.953  0.4857 -1.1456 -0.8314
 3294TIP3    H231518   2.512   3.568   8.074 -1.8261 -0.1974 -2.2736
 3295TIP3   OH231519   0.097   0.432   2.156  0.4305  0.1303 -0.0710
 3295TIP3    H131520   0.184   0.395   2.174  0.3261  0.5000  1.3087
 3295TIP3    H231521   0.115   0.520   2.124  0.5946 -0.3030 -1.2378
 3296TIP3   OH231522   5.633   5.329   7.388 -0.1464  0.0491 -0.2669
 3296TIP3    H131523   5.726   5.338   7.409 -0.4476  0.5395  0.9909
 3296TIP3    H231524   5.610   5.413   7.348 -0.0174 -0.1303 -0.7206
 3297TIP3   OH231525   0.700   6.481   2.267 -0.1759 -0.2465  0.4316
 3297TIP3    H131526   0.633   6.476   2.200 -0.6921  2.0398  0.6996
 3297TIP3    H231527   0.653   6.475   2.350  0.0634  0.2752  0.6114
 3298TIP3   OH231528   2.576   6.933   2.035  0.1775 -0.2507  0.3696
 3298TIP3    H131529   2.550   6.864   2.097 -0.6827  1.7114  2.3044
 3298TIP3    H231530   2.498   6.949   1.982 -0.5393  1.0328  1.7346
 3299TIP3   OH231531   3.876   0.362   0.933 -0.2519 -0.0291  0.0796
 3299TIP3    H131532   3.825   0.322   0.862 -0.1851 -1.6008  0.8856
 3299TIP3    H231533   3.860   0.306   1.009  0.4589  1.0677  1.0725
 3300TIP3   OH231534   0.229   2.951   7.690  0.0872 -0.1351 -0.0414
 3300TIP3    H131535   0.285   2.878   7.662  1.1456  0.3221  0.7870
 3300TIP3    H231536   0.188   2.982   7.609  0.7877 -0.7039 -0.6312
 3301TIP3   OH231537   0.313   5.259   2.133  0.9731  0.1805  0.5397
 3301TIP3    H131538   0.221   5.245   2.109  0.7239 -0.8966  1.9670
 3301TIP3    H231539   0.363   5.213   2.066  0.3596 -1.3828  1.1046
 3302TIP3   OH231540   5.027   0.225   0.087  0.3821 -0.3042 -0.0242
 3302TIP3    H131541   5.007   0.181   0.170  1.4008  0.6128  0.7373
 3302TIP3    H231542   4.985   0.170   0.020 -1.1606 -0.6186  1.1464
 3303TIP3   OH231543   0.337   0.261   2.171 -0.5560 -0.1274  0.2327
 3303TIP3    H131544   0.340   0.166   2.161  0.5416 -0.1247  0.4795
 3303TIP3    H231545   0.370   0.277   2.260  1.2479  0.5941 -0.5235
 3304TIP3   OH231546   0.037   3.038   1.484  0.0079 -0.3920 -0.7313
 3304TIP3    H131547  -0.029   2.999   1.541 -1.4029  3.8598  0.8543
 3304TIP3    H231548   0.001   3.026   1.396 -0.6915 -1.8969 -0.2849
 3305TIP3   OH231549   1.974   1.035   1.360 -0.2168  0.5795  0.3385
 3305TIP3    H131550   2.042   1.095   1.329  1.1799 -0.8267  0.5638
 3305TIP3    H231551   1.960   1.059   1.452 -0.8152  1.5570  0.0052
 3306TIP3   OH231552   4.294   3.587   8.460  0.2600  0.4606  0.3044
 3306TIP3    H131553   4.281   3.492   8.462  1.5148  0.1449 -2.3857
 3306TIP3    H231554   4.388   3.598   8.470  0.0397  1.5168  1.4001
 3307TIP3   OH231555   4.478   0.261   1.233 -0.1873 -0.1765 -0.0450
 3307TIP3    H131556   4.416   0.330   1.208 -1.6237 -0.6338  2.0164
 3307TIP3    H231557   4.433   0.179   1.210 -0.4846 -0.5189  1.6219
 3308TIP3   OH231558   3.385   4.726   0.226  0.0543 -0.0757  0.3088
 3308TIP3    H131559   3.428   4.809   0.246 -0.9231  0.2851  0.9741
 3308TIP3    H231560   3.349   4.697   0.310  1.7370 -1.9895  0.4602
 3309TIP3   OH231561   3.409   6.463   6.835  0.0019 -0.1836 -0.1235
 3309TIP3    H131562   3.331   6.508   6.869 -0.3213  1.0706 -2.3168
 3309TIP3    H231563   3.440   6.411   6.908 -0.4717  2.5080  2.1817
 3310TIP3   OH231564   1.297   0.842   1.359  0.5828  0.1408  0.4649
 3310TIP3    H131565   1.346   0.770   1.398  1.3168  0.7023  0.5893
 3310TIP3    H231566   1.301   0.825   1.265  1.3098  0.3646  0.4506
 3311TIP3   OH231567   6.233   0.265   8.446  0.0409  0.1841  0.2234
 3311TIP3    H131568   6.238   0.334   8.381  2.0212  0.2904  0.4375
 3311TIP3    H231569   6.307   0.208   8.426  0.8144  0.3211  2.4710
 3312TIP3   OH231570   2.200   0.063   0.531  0.5173 -0.0034 -0.3044
 3312TIP3    H131571   2.156   0.115   0.598  0.5979 -0.1190 -0.1625
 3312TIP3    H231572   2.169   0.099   0.448  0.8416  0.5028 -0.2078
 3313TIP3   OH231573   6.638   0.365   0.070  0.2957 -0.2370  0.4882
 3313TIP3    H131574   6.549   0.329   0.063  0.6320 -1.0948  0.4349
 3313TIP3    H231575   6.629   0.456   0.042 -0.7721  0.0216  1.5533
 3314TIP3   OH231576   0.358   4.882   0.709 -0.1136 -0.2100 -0.0868
 3314TIP3    H131577   0.332   4.876   0.617 -1.2330 -1.6775  0.2768
 3314TIP3    H231578   0.296   4.945   0.747  0.3250  0.3681 -0.3196
 3315TIP3   OH231579   5.226   1.298   8.131  0.7017  0.3278  0.0600
 3315TIP3    H131580   5.145   1.248   8.121  0.6901  0.2540  0.4908
 3315TIP3    H231581   5.198   1.383   8.166  0.6463  0.9175 -1.3571
 3316TIP3   OH231582   1.853   6.987   2.525 -0.0591  0.2774  0.3747
 3316TIP3    H131583   1.927   6.937   2.491  0.2087  0.6757  0.3539
 3316TIP3    H231584   1.796   6.922   2.565 -0.1408 -0.1379 -0.4142
 3317TIP3   OH231585   3.166   1.522   0.382 -0.4778 -0.1481  0.0835
 3317TIP3    H131586   3.104   1.594   0.395  2.2004  2.3132  0.3576
 3317TIP3    H231587   3.202   1.538   0.294 -0.2246 -1.4998 -0.0681
 3318TIP3   OH231588   4.110   0.877   7.034  0.2176  0.1366 -0.1948
 3318TIP3    H131589   4.058   0.917   6.964  1.9693  0.0166 -1.6389
 3318TIP3    H231590   4.196   0.920   7.028  0.7121 -0.5738  1.2609
 3319TIP3   OH231591   5.722   1.929   6.728 -0.6548  0.2534  0.2228
 3319TIP3    H131592   5.782   1.864   6.692 -2.0792 -0.3958 -1.1207
 3319TIP3    H231593   5.645   1.878   6.756 -1.7533  1.3255 -0.7399
 3320TIP3   OH231594   1.564   3.967   0.842  0.0012  0.0466 -0.9083
 3320TIP3    H131595   1.608   3.947   0.759  0.7247 -1.6200 -0.1557
 3320TIP3    H231596   1.634   3.997   0.900  0.1624 -2.1314  0.1356
 3321TIP3   OH231597   3.991   2.829   8.308  0.6558 -0.0552 -0.1130
 3321TIP3    H131598   4.064   2.841   8.369  1.5269  0.6676 -1.2612
 3321TIP3    H231599   4.013   2.748   8.261  1.2304  0.6695 -1.1247
 3322TIP3   OH231600   6.610   3.363   1.291  0.6739 -0.2133 -0.4110
 3322TIP3    H131601   6.654   3.441   1.257 -1.2543  2.0933  1.8996
 3322TIP3    H231602   6.640   3.355   1.381 -2.0748  0.3639  0.6669
 3323TIP3   OH231603   4.083   1.383   1.061 -0.0511 -0.0015 -0.4501
 3323TIP3    H131604   4.037   1.305   1.030  1.7585 -1.6482  0.7627
 3323TIP3    H231605   4.176   1.359   1.057  0.4514  1.0075  2.5584
 3324TIP3   OH231606   5.927   2.935   0.941  0.2784 -0.3160  0.2177
 3324TIP3    H131607   5.998   2.871   0.928  1.2382  0.8207 -0.3140
 3324TIP3    H231608   5.896   2.955   0.853 -0.4185 -0.4718  0.4225
 3325TIP3   OH231609   1.417   1.684   2.383 -0.6407 -0.0923  0.0069
 3325TIP3    H131610   1.459   1.768   2.363 -1.5696  0.3701 -0.0678
 3325TIP3    H231611   1.335   1.708   2.427 -0.5157 -0.9914  0.7441
 3326TIP3   OH231612   4.465   6.323   2.158  0.3039 -0.0569 -0.1510
 3326TIP3    H131613   4.492   6.333   2.249  0.5205  0.7782 -0.2977
 3326TIP3    H231614   4.547   6.319   2.108  0.1921 -0.7927 -0.2923
 3327TIP3   OH231615   1.401   1.277   0.772 -0.7741 -0.6714 -0.5840
 3327TIP3    H131616   1.473   1.220   0.746 -0.3187  0.1371 -1.1027
 3327TIP3    H231617   1.415   1.291   0.866 -0.0406 -0.2201 -0.7542
 3328TIP3   OH231618   3.158   3.344   7.706 -0.0484 -0.3041 -0.0890
 3328TIP3    H131619   3.211   3.308   7.778 -0.5454 -0.9336 -0.0285
 3328TIP3    H231620   3.180   3.288   7.632 -0.9859 -0.8751  0.0534
 3329TIP3   OH231621   5.799   5.649   0.478 -0.1678 -0.1757 -0.0409
 3329TIP3    H131622   5.859   5.666   0.551  0.4091  0.4541 -0.6478
 3329TIP3    H231623   5.716   5.627   0.521  0.1316  0.2740  0.8109
 3330TIP3   OH231624   4.787   6.218   2.472  0.6927  0.5217 -0.0322
 3330TIP3    H131625   4.808   6.153   2.405  0.7175 -0.1619  0.6323
 3330TIP3    H231626   4.854   6.208   2.539  1.5687  2.2377 -0.5760
 3331TIP3   OH231627   5.461   2.857   2.296  0.1356 -0.3659  0.4637
 3331TIP3    H131628   5.460   2.790   2.364 -1.6366 -0.9763 -0.1145
 3331TIP3    H231629   5.504   2.815   2.221  0.8523 -0.1434  0.7338
 3332TIP3   OH231630   6.883   2.065   2.200  0.5134  0.0266 -0.8356
 3332TIP3    H131631   6.862   2.149   2.239  0.0249 -0.2093 -0.5914
 3332TIP3    H231632   6.954   2.030   2.254 -0.5480 -0.5621  0.2194
 3333TIP3   OH231633   5.507   3.625   8.088  0.2533  0.0299  0.0289
 3333TIP3    H131634   5.517   3.719   8.070 -0.2707  0.2031  0.6170
 3333TIP3    H231635   5.563   3.610   8.164  0.2501 -0.1099  0.0023
 3334TIP3   OH231636   5.957   1.256   7.983  0.2831 -0.2964 -0.8105
 3334TIP3    H131637   5.880   1.310   7.965 -0.8917 -1.9710 -1.0425
 3334TIP3    H231638   6.015   1.313   8.035 -0.8895  1.1477 -1.0252
 3335TIP3   OH231639   2.491   4.875   0.366 -0.6212  0.1904  0.6131
 3335TIP3    H131640   2.502   4.938   0.437  0.0179  0.3518  0.3736
 3335TIP3    H231641   2.578   4.865   0.328 -1.1780  1.0997 -0.9965
 3336TIP3   OH231642   5.745   2.738   6.597 -0.2218  0.5076  0.1221
 3336TIP3    H131643   5.739   2.643   6.591 -3.6264  0.6852 -2.7529
 3336TIP3    H231644   5.806   2.763   6.527  2.1089  0.5157  2.0178
 3337TIP3   OH231645   5.867   0.275   8.323  1.3042 -0.3875 -0.4185
 3337TIP3    H131646   5.883   0.191   8.366  0.4319 -0.3141  0.0776
 3337TIP3    H231647   5.777   0.268   8.290  0.2058  1.2974  1.9569
 3338TIP3   OH231648   4.342   3.324   1.001  0.0318 -0.0995  0.4693
 3338TIP3    H131649   4.324   3.231   0.988 -0.6239  0.1230 -0.3912
 3338TIP3    H231650   4.255   3.363   1.015  0.1348  0.5707 -0.6084
 3339TIP3   OH231651   6.091   3.151   7.951 -0.5587 -0.2436 -0.0485
 3339TIP3    H131652   6.019   3.192   7.903 -1.3915 -0.1567  1.2223
 3339TIP3    H231653   6.063   3.061   7.963 -1.3969  0.2447  2.1239
 3340TIP3   OH231654   0.078   0.255   2.519  0.0173 -0.2885  0.1504
 3340TIP3    H131655   0.152   0.213   2.563  0.3191 -0.5386 -0.5851
 3340TIP3    H231656   0.063   0.202   2.441  1.3597  1.7593 -1.6212
 3341TIP3   OH231657   6.436   0.640   2.136 -0.2722 -0.2203  0.0589
 3341TIP3    H131658   6.393   0.681   2.211  0.3947 -1.0374  0.9068
 3341TIP3    H231659   6.395   0.681   2.060 -1.5316  0.0610  0.8510
 3342TIP3   OH231660   5.726   5.658   2.300  0.1622  0.2413 -0.2663
 3342TIP3    H131661   5.766   5.690   2.381  0.8418  1.8748 -1.2181
 3342TIP3    H231662   5.654   5.718   2.283 -1.2320 -1.2390  0.1131
 3343TIP3   OH231663   3.952   3.008   7.356  0.0572  0.0923  0.0902
 3343TIP3    H131664   3.935   2.944   7.426 -2.0812 -0.8587 -1.2070
 3343TIP3    H231665   4.015   2.965   7.299  0.5143  0.1860  0.5134
 3344TIP3   OH231666   4.892   4.882   2.168 -0.1386  0.1993  0.8549
 3344TIP3    H131667   4.847   4.857   2.087 -1.8243 -1.4892  2.2301
 3344TIP3    H231668   4.827   4.933   2.216 -0.3027 -1.4250  2.4438
 3345TIP3   OH231669   3.952   5.932   1.861 -0.3484 -0.1057  0.3025
 3345TIP3    H131670   4.044   5.918   1.840 -0.5646 -0.3647 -0.5302
 3345TIP3    H231671   3.950   6.013   1.911  0.1681  0.8769 -1.2009
 3346TIP3   OH231672   6.867   1.483   8.371 -0.3734 -0.2329  0.0989
 3346TIP3    H131673   6.941   1.425   8.355 -1.9000 -1.8813 -1.5065
 3346TIP3    H231674   6.802   1.427   8.415 -1.7133  0.3293 -1.0834
 3347TIP3   OH231675   3.557   4.619   0.481 -0.2577 -0.4659 -0.3435
 3347TIP3    H131676   3.484   4.559   0.496  0.9250 -1.5359  1.6071
 3347TIP3    H231677   3.589   4.597   0.394 -2.2258  0.0654 -1.2610
 3348TIP3   OH231678   5.858   2.562   0.242 -0.3304  0.1149 -0.4114
 3348TIP3    H131679   5.953   2.570   0.239 -0.4197  1.1853 -2.1012
 3348TIP3    H231680   5.836   2.512   0.163 -1.0135 -2.9045  1.5504
 3349TIP3   OH231681   6.309   2.493   2.464  0.3180 -0.1019  0.1920
 3349TIP3    H131682   6.325   2.477   2.371  0.7319 -2.1097  0.5550
 3349TIP3    H231683   6.268   2.579   2.467 -1.7633 -0.8919 -2.0740
 3350TIP3   OH231684   1.389   0.823   0.422 -0.4241 -0.0739  0.5254
 3350TIP3    H131685   1.326   0.884   0.461  0.8791  1.4844  0.3321
 3350TIP3    H231686   1.469   0.874   0.415 -0.2405 -0.6077 -3.0952
 3351TIP3   OH231687   3.232   2.990   0.600  0.6076 -0.0138  0.2434
 3351TIP3    H131688   3.173   3.061   0.622  0.7684 -0.1581  1.1911
 3351TIP3    H231689   3.225   2.980   0.505  1.2402  1.8419 -0.0323
 3352TIP3   OH231690   1.687   6.253   7.476 -0.0197 -0.4105  0.1872
 3352TIP3    H131691   1.624   6.187   7.504 -1.4520 -0.1168 -2.0856
 3352TIP3    H231692   1.660   6.333   7.521 -0.0239 -0.7341  0.7656
 3353TIP3   OH231693   6.753   3.217   2.572 -0.1847 -0.0012 -0.5900
 3353TIP3    H131694   6.782   3.140   2.523 -1.2933 -0.2734 -0.8450
 3353TIP3    H231695   6.693   3.183   2.638 -0.1538  0.5685 -0.2613
 3354TIP3   OH231696   1.557   6.529   6.653 -0.1426  0.2170  0.0422
 3354TIP3    H131697   1.559   6.624   6.658 -1.1326  0.3222 -1.2557
 3354TIP3    H231698   1.623   6.500   6.717 -0.1295  1.7472  0.7484
 3355TIP3   OH231699   6.326   5.102   8.236  0.1308 -0.0482 -0.3248
 3355TIP3    H131700   6.234   5.075   8.238  0.5850 -1.6806  0.1158
 3355TIP3    H231701   6.323   5.196   8.220 -1.6960  0.3905  1.9970
 3356TIP3   OH231702   0.208   4.567   1.459 -0.5644  0.2401 -0.2146
 3356TIP3    H131703   0.206   4.477   1.426  0.6276 -0.0851  0.5345
 3356TIP3    H231704   0.116   4.593   1.463 -0.9327 -0.9905 -0.3045
 3357TIP3   OH231705   0.515   5.959   7.593  0.0750  0.6987 -0.8443
 3357TIP3    H131706   0.475   5.884   7.549 -1.0439  0.7570  0.0423
 3357TIP3    H231707   0.593   5.978   7.540  0.3140 -0.9877 -1.1699
 3358TIP3   OH231708   5.395   2.099   1.564  0.7104  0.0646 -0.2431
 3358TIP3    H131709   5.447   2.086   1.643 -0.0932  0.8906  0.4330
 3358TIP3    H231710   5.305   2.104   1.594  0.4600  1.2197 -1.0938
 3359TIP3   OH231711   5.497   2.451   8.117  0.0700 -0.1140 -0.7750
 3359TIP3    H131712   5.423   2.457   8.057  1.4180 -0.0780 -2.5240
 3359TIP3    H231713   5.458   2.452   8.204 -1.9438  0.2138 -1.6328
 3360TIP3   OH231714   4.666   5.932   2.430  0.0770  0.2668  0.1810
 3360TIP3    H131715   4.708   5.971   2.353 -1.7367 -2.5269 -2.4353
 3360TIP3    H231716   4.583   5.979   2.438 -0.1356 -0.0593 -0.1288
 3361TIP3   OH231717   4.919   0.355   0.401 -0.2014  0.4709 -0.4256
 3361TIP3    H131718   4.923   0.264   0.373  3.3184 -0.1925  1.6848
 3361TIP3    H231719   4.965   0.403   0.332 -2.0025  0.7572 -1.5063
 3362TIP3   OH231720   1.352   0.906   0.838 -0.4100  0.0807 -0.1309
 3362TIP3    H131721   1.435   0.860   0.827  1.2267  2.8075 -0.1109
 3362TIP3    H231722   1.346   0.965   0.762 -2.0818  0.3025  0.1217
 3363TIP3   OH231723   4.643   0.088   1.433  0.4678 -0.2763  0.2465
 3363TIP3    H131724   4.629   0.162   1.375  0.6170  0.2058  0.8193
 3363TIP3    H231725   4.634   0.011   1.376 -1.4115  0.0967 -0.0545
 3364TIP3   OH231726   4.219   4.924   1.001 -0.3256  0.1167 -0.1871
 3364TIP3    H131727   4.244   4.868   0.928 -0.2464 -1.0564  0.7236
 3364TIP3    H231728   4.138   4.885   1.036 -1.6813  1.9891 -1.0541
 3365TIP3   OH231729   1.225   3.606   2.359 -0.8557  0.4814  0.1442
 3365TIP3    H131730   1.211   3.587   2.452 -2.1342 -0.4276 -0.2176
 3365TIP3    H231731   1.320   3.600   2.348 -0.8919 -2.8319  0.7165
 3366TIP3   OH231732   1.092   2.092   8.409  0.1803  0.0868  0.2952
 3366TIP3    H131733   1.180   2.104   8.446 -0.4833 -0.2256  2.0636
 3366TIP3    H231734   1.096   2.008   8.364  0.9977  0.4415 -0.3108
 3367TIP3   OH231735   0.841   0.398   0.033 -0.2059  0.1378  0.0475
 3367TIP3    H131736   0.868   0.483  -0.001 -0.0886  0.0762 -0.0167
 3367TIP3    H231737   0.919   0.343   0.023 -0.3771 -0.0593 -0.1985
 3368TIP3   OH231738   1.879   4.267   1.561 -0.2925  0.6280 -0.4684
 3368TIP3    H131739   1.937   4.191   1.572 -1.2934 -0.5297 -2.4840
 3368TIP3    H231740   1.800   4.243   1.608 -1.0407 -0.1614 -2.0374
 3369TIP3   OH231741   5.801   5.524   1.067 -0.1376  0.8516 -0.0343
 3369TIP3    H131742   5.798   5.564   1.154 -0.4062 -0.1980  0.4486
 3369TIP3    H231743   5.878   5.468   1.068  0.1661  1.2365 -0.6674
 3370TIP3   OH231744   5.534   1.904   7.359  0.0459 -0.2434 -0.6761
 3370TIP3    H131745   5.537   1.938   7.448  1.0988  0.8465 -1.1078
 3370TIP3    H231746   5.533   1.809   7.370 -0.1701 -0.1236  0.4924
 3371TIP3   OH231747   1.065   2.437   1.124  0.6574  1.3908 -0.4380
 3371TIP3    H131748   1.090   2.356   1.170  0.6199  1.1740 -0.7952
 3371TIP3    H231749   0.992   2.411   1.067 -0.1430  1.9371  0.3113
 3372TIP3   OH231750   3.367   1.418   8.393 -0.1005  0.2918  0.0463
 3372TIP3    H131751   3.351   1.476   8.319 -0.7340 -0.8242 -0.7329
 3372TIP3    H231752   3.449   1.373   8.372 -0.1723  0.1219  0.1214
 3373TIP3   OH231753   6.008   6.777   2.294  0.7014 -0.3336 -0.1853
 3373TIP3    H131754   5.985   6.841   2.362  0.4726 -0.8478  0.2234
 3373TIP3    H231755   6.065   6.826   2.234 -0.3659  0.5888 -0.4856
 3374TIP3   OH231756   6.271   0.836   7.944  0.5645 -0.7083 -0.4415
 3374TIP3    H131757   6.273   0.874   8.031  1.5734 -0.9540 -0.3458
 3374TIP3    H231758   6.197   0.776   7.946  1.0008 -1.2330  0.4720
 3375TIP3   OH231759   5.815   4.336   2.745  0.3486  0.0190 -0.1026
 3375TIP3    H131760   5.821   4.248   2.707 -0.6001  0.0279 -0.3062
 3375TIP3    H231761   5.826   4.323   2.839 -1.7632 -0.6150  0.1162
 3376TIP3   OH231762   0.559   3.978   2.120  0.4054  0.5701  0.1174
 3376TIP3    H131763   0.641   4.025   2.128  0.6225  0.3184 -0.5891
 3376TIP3    H231764   0.498   4.027   2.175  1.1382  0.4801  1.0275
 3377TIP3   OH231765   4.327   2.116   7.016 -0.1204 -0.3076  0.0776
 3377TIP3    H131766   4.348   2.194   7.066  1.1025 -1.0811  0.8381
 3377TIP3    H231767   4.232   2.110   7.019 -0.2786  1.4155 -0.4487
 3378TIP3   OH231768   0.677   2.399   8.258 -0.1823  0.4720  0.6494
 3378TIP3    H131769   0.647   2.314   8.224 -1.2196 -0.6558  4.0159
 3378TIP3    H231770   0.649   2.462   8.191 -3.4398 -1.3868  0.0238
 3379TIP3   OH231771   5.160   1.706   7.555  0.5611  0.0239  0.3543
 3379TIP3    H131772   5.182   1.754   7.635  0.4573 -0.1007  0.4572
 3379TIP3    H231773   5.175   1.614   7.577  2.0026  0.0825 -0.2324
 3380TIP3   OH231774   0.291   1.273   8.322 -0.0703  0.1057  0.4166
 3380TIP3    H131775   0.203   1.285   8.286 -0.1864 -0.9141  0.3303
 3380TIP3    H231776   0.327   1.362   8.328 -0.1912  0.3818 -1.8872
 3381TIP3   OH231777   2.627   1.138   2.247 -0.0449 -0.0872 -0.2036
 3381TIP3    H131778   2.675   1.203   2.298  5.0021 -3.8644  0.6696
 3381TIP3    H231779   2.686   1.116   2.174 -2.8039 -1.6921 -2.1674
 3382TIP3   OH231780   5.632   6.427   7.500 -0.2820 -0.1957 -0.3052
 3382TIP3    H131781   5.546   6.390   7.479  0.7466 -1.9722 -1.7083
 3382TIP3    H231782   5.674   6.438   7.415  2.0571 -2.4671  0.4265
 3383TIP3   OH231783   5.506   6.746   7.340  0.0007  0.0022  0.0141
 3383TIP3    H131784   5.436   6.697   7.298  0.1301  0.2621 -0.5086
 3383TIP3    H231785   5.573   6.757   7.272  1.4902 -2.0232  1.0271
 3384TIP3   OH231786   0.927   6.475   1.523  0.1055  0.3206  0.2204
 3384TIP3    H131787   0.922   6.531   1.445 -0.6328 -1.7686 -1.3067
 3384TIP3    H231788   0.859   6.508   1.581 -1.2883  0.1674 -1.2647
 3385TIP3   OH231789   3.325   4.628   2.504  0.2365 -0.4077 -0.2490
 3385TIP3    H131790   3.231   4.631   2.487 -0.0937 -0.8931  1.3077
 3385TIP3    H231791   3.339   4.542   2.544  0.8482  0.6842  2.0636
 3386TIP3   OH231792   3.036   6.187   0.750  0.3507  0.3601  0.0982
 3386TIP3    H131793   3.120   6.159   0.712 -2.0616 -4.7242 -2.4423
 3386TIP3    H231794   2.981   6.206   0.675 -1.9061 -0.4586  1.4504
 3387TIP3   OH231795   3.565   3.468   7.698  0.1513  0.3925  0.4936
 3387TIP3    H131796   3.586   3.399   7.762  0.0503  0.0679  0.1764
 3387TIP3    H231797   3.527   3.421   7.624  2.2125  0.4962 -0.7229
 3388TIP3   OH231798   5.498   1.329   7.388  0.0720  0.3053  0.1981
 3388TIP3    H131799   5.423   1.332   7.328  0.4185  0.7169 -0.2182
 3388TIP3    H231800   5.544   1.249   7.365 -0.5105 -0.2132  0.7918
 3389TIP3   OH231801   2.782   0.038   7.522  0.2846 -0.5652 -0.0978
 3389TIP3    H131802   2.702  -0.002   7.488 -0.0097 -0.2245  0.1851
 3389TIP3    H231803   2.812  -0.022   7.591 -1.4359  0.7872  1.9719
 3390TIP3   OH231804   2.630   3.031   7.975 -0.6831 -0.2279 -0.3419
 3390TIP3    H131805   2.709   3.084   7.990 -1.2008  1.2771 -2.4774
 3390TIP3    H231806   2.580   3.080   7.910 -1.3046 -3.2214 -2.3510
 3391TIP3   OH231807   5.287   1.026   1.493 -0.2268 -0.4566 -0.0923
 3391TIP3    H131808   5.249   1.016   1.580  0.2735 -1.2194  0.0471
 3391TIP3    H231809   5.371   0.982   1.498  0.0160 -0.1011 -0.8352
 3392TIP3   OH231810   4.570   6.019   1.826 -0.0989  0.1762  0.0343
 3392TIP3    H131811   4.662   6.010   1.799  0.1956 -1.4796  1.4593
 3392TIP3    H231812   4.521   5.970   1.760  0.1934 -0.3288  0.1941
 3393TIP3   OH231813   6.553   2.295   3.543 -0.0981  0.0380  0.2349
 3393TIP3    H131814   6.479   2.355   3.537 -2.0544 -2.0941  1.4555
 3393TIP3    H231815   6.614   2.336   3.604 -1.4448  0.7382  1.1415
 3394TIP3   OH231816   6.979   4.321   1.540 -0.2216 -0.5503 -0.0136
 3394TIP3    H131817   6.920   4.349   1.470 -2.4964 -0.8144  1.6931
 3394TIP3    H231818   6.923   4.313   1.617  1.7600 -2.4605  1.3448
 3395TIP3   OH231819   4.735   0.095   2.237 -0.3534  0.5586 -0.3567
 3395TIP3    H131820   4.707   0.015   2.281  2.7414 -0.2405  0.3985
 3395TIP3    H231821   4.725   0.164   2.302 -1.3906  0.4840 -0.4282
 3396TIP3   OH231822   4.503   5.437   1.653  0.4060  0.6787 -0.0521
 3396TIP3    H131823   4.496   5.532   1.650  0.2887  0.6753  0.1618
 3396TIP3    H231824   4.442   5.406   1.586  0.8494  0.7707 -0.5143
 3397TIP3   OH231825   3.809   2.759   2.569  0.0310 -0.0749 -0.5538
 3397TIP3    H131826   3.825   2.755   2.474 -0.2008  0.2218 -0.6083
 3397TIP3    H231827   3.864   2.831   2.599 -1.0490  0.8505 -0.7177
 3398TIP3   OH231828   4.757   3.063   8.160 -0.0027  0.3958 -0.6007
 3398TIP3    H131829   4.821   2.995   8.183 -0.1243  0.4550 -0.0632
 3398TIP3    H231830   4.803   3.119   8.098 -0.3419 -0.9240 -2.1245
 3399TIP3   OH231831   0.258   5.867   1.464 -0.3551  0.2056 -0.3908
 3399TIP3    H131832   0.336   5.850   1.517 -0.3826  1.4387  0.0887
 3399TIP3    H231833   0.219   5.945   1.504 -1.2802  0.1949 -1.2387
 3400TIP3   OH231834   5.599   3.872   1.862  0.3523  0.1122  0.0594
 3400TIP3    H131835   5.598   3.913   1.776 -0.9072  1.0440  0.4980
 3400TIP3    H231836   5.520   3.904   1.905  1.5102  0.5674  1.9749
 3401TIP3   OH231837   1.081   6.168   2.865 -0.0392  0.1511  0.3142
 3401TIP3    H131838   1.094   6.263   2.859 -0.9652  0.1947 -1.5595
 3401TIP3    H231839   1.016   6.158   2.935 -2.6768  1.2406 -1.8125
 3402TIP3   OH231840   3.669   2.293   1.486 -0.2482  0.1762 -0.1689
 3402TIP3    H131841   3.764   2.284   1.481 -0.2633 -1.0548  1.1761
 3402TIP3    H231842   3.654   2.387   1.483  0.9349  0.3631 -1.2995
 3403TIP3   OH231843   4.847   3.723   1.085  0.0208  0.5089  0.0380
 3403TIP3    H131844   4.876   3.773   1.161  2.3580 -0.1126 -0.3595
 3403TIP3    H231845   4.805   3.645   1.121  1.6287 -0.0737  0.7544
 3404TIP3   OH231846   5.842   3.017   7.661  0.5182  0.1493 -0.3935
 3404TIP3    H131847   5.843   2.994   7.754 -0.7184  0.5482 -0.2612
 3404TIP3    H231848   5.894   3.097   7.655  2.4273 -1.0234 -0.4143
 3405TIP3   OH231849   1.904   4.358   7.380 -0.1044  0.0383 -0.1087
 3405TIP3    H131850   1.833   4.363   7.316  0.3325 -1.6726 -0.7763
 3405TIP3    H231851   1.860   4.347   7.464 -0.6466  0.5533 -0.3159
 3406TIP3   OH231852   1.394   3.671   0.917  1.2798 -0.5186 -0.3751
 3406TIP3    H131853   1.396   3.767   0.917 -1.8629 -0.3610 -1.0605
 3406TIP3    H231854   1.437   3.647   0.835 -0.6052  0.5078 -1.7363
 3407TIP3   OH231855   6.130   4.511   8.226 -0.1151  0.3975 -0.2233
 3407TIP3    H131856   6.180   4.529   8.305  0.8995 -1.2077 -0.4612
 3407TIP3    H231857   6.060   4.453   8.255  0.4432 -0.4460 -0.5408
 3408TIP3   OH231858   1.348   0.522   1.795 -0.3723  0.0078  0.4017
 3408TIP3    H131859   1.316   0.480   1.875  0.0516 -0.3695  0.3787
 3408TIP3    H231860   1.394   0.452   1.749  0.3002  0.4908  0.3332
 3409TIP3   OH231861   5.675   1.917   8.063  0.4031 -0.4129  0.4271
 3409TIP3    H131862   5.759   1.945   8.100  0.6549  1.0376 -1.1033
 3409TIP3    H231863   5.641   1.995   8.019  0.3331 -2.0330 -2.6557
 3410TIP3   OH231864   0.479   1.967   8.330 -0.2437 -0.1880  0.5499
 3410TIP3    H131865   0.497   2.015   8.411 -1.3856  0.0998  0.6452
 3410TIP3    H231866   0.460   2.035   8.265 -1.4933 -0.4792  0.5896
 3411TIP3   OH231867   5.192   1.204   3.446 -0.3112  0.1493 -0.0580
 3411TIP3    H131868   5.130   1.169   3.382  0.6589 -0.5427 -0.6590
 3411TIP3    H231869   5.278   1.183   3.409  0.3154  2.3674  0.0200
 3412TIP3   OH231870   0.286   3.021   2.032  0.2617 -0.0216 -0.5715
 3412TIP3    H131871   0.195   3.028   2.003 -0.0063  2.5656  0.6094
 3412TIP3    H231872   0.332   2.982   1.958 -1.8471 -1.8527 -1.0123
 3413TIP3   OH231873   2.940   4.871   7.111  0.3874  0.0027  0.0816
 3413TIP3    H131874   2.966   4.779   7.107  0.9673  0.2052 -1.9109
 3413TIP3    H231875   3.021   4.918   7.132  1.1036  0.3616 -3.0560
 3414TIP3   OH231876   3.563   3.045   1.617 -0.4461  0.8682  0.0234
 3414TIP3    H131877   3.567   3.130   1.573  0.0864 -0.3990 -2.5012
 3414TIP3    H231878   3.651   3.031   1.650 -0.0609  0.5513 -1.0984
 3415TIP3   OH231879   1.592   4.385   1.681  0.0496 -0.0485 -0.2953
 3415TIP3    H131880   1.550   4.358   1.763 -2.6146 -0.5706 -1.7197
 3415TIP3    H231881   1.602   4.480   1.690 -1.1168  0.0393  0.2658
 3416TIP3   OH231882   3.464   5.905   6.936  0.8837  1.3041 -0.3402
 3416TIP3    H131883   3.522   5.934   7.007  2.6281 -0.4362 -0.9617
 3416TIP3    H231884   3.516   5.840   6.888 -1.8458 -0.9229 -0.5070
 3417TIP3   OH231885   1.302   0.184   6.928  0.2258  0.1779  0.5673
 3417TIP3    H131886   1.296   0.089   6.933  1.9583 -0.0031 -0.0673
 3417TIP3    H231887   1.385   0.205   6.971 -0.4737  1.4714  1.3192
 3418TIP3   OH231888   1.041   3.678   2.793  0.5519 -0.0012 -0.5298
 3418TIP3    H131889   1.085   3.754   2.831  1.0288 -0.5055 -0.0719
 3418TIP3    H231890   0.979   3.716   2.730  2.0495  0.7170 -1.6572
 3419TIP3   OH231891   3.234   3.429   8.131  0.1893  0.0883  0.4197
 3419TIP3    H131892   3.250   3.397   8.042 -0.0741  0.0043  0.4012
 3419TIP3    H231893   3.157   3.484   8.124 -0.3262 -0.5727  0.7346
 3420TIP3   OH231894   6.367   1.597   7.451 -0.0209 -0.2861 -0.0881
 3420TIP3    H131895   6.380   1.510   7.415 -0.0861 -0.2498 -0.1980
 3420TIP3    H231896   6.436   1.650   7.413 -0.2233 -0.1961 -0.3321
 3421TIP3   OH231897   6.365   3.469   1.270 -0.1916 -0.6050  0.1573
 3421TIP3    H131898   6.329   3.506   1.351 -1.1904 -1.6209  0.1957
 3421TIP3    H231899   6.427   3.402   1.300  0.9018  0.3265  0.0742
 3422TIP3   OH231900   3.296   2.732   2.042 -0.0053 -0.0829  0.5292
 3422TIP3    H131901   3.310   2.762   1.952 -0.1753 -0.0887  0.5003
 3422TIP3    H231902   3.218   2.677   2.037 -0.3259  0.3393  0.7725
 3423TIP3   OH231903   2.593   6.514   0.675  0.4803  1.5236  0.8289
 3423TIP3    H131904   2.662   6.476   0.729 -1.2249 -1.5962  1.0510
 3423TIP3    H231905   2.626   6.506   0.585 -0.0595 -1.3486  0.7971
 3424TIP3   OH231906   3.508   0.391   1.396  0.0096  0.1686 -0.6311
 3424TIP3    H131907   3.445   0.408   1.466  2.1154 -3.2296  2.4743
 3424TIP3    H231908   3.472   0.316   1.348  0.8880 -0.7906  0.1682
 3425TIP3   OH231909   2.685   4.317   1.578 -0.1832  0.3694  0.0749
 3425TIP3    H131910   2.692   4.262   1.500 -1.1302 -0.2923  0.4511
 3425TIP3    H231911   2.608   4.371   1.563 -0.3842  0.2216  0.5666
 3426TIP3   OH231912   0.819   1.560   2.930 -0.3185 -0.3930 -0.0468
 3426TIP3    H131913   0.788   1.609   3.006  0.5317 -1.3274  0.9459
 3426TIP3    H231914   0.844   1.475   2.965 -1.1277 -1.3225 -1.6144
 3427TIP3   OH231915   2.749   2.699   2.409 -0.3060 -1.0286 -0.1257
 3427TIP3    H131916   2.767   2.612   2.443 -0.4978 -1.0252 -0.0125
 3427TIP3    H231917   2.719   2.749   2.486  5.0743  0.7916  1.2526
 3428TIP3   OH231918   4.343   3.088   1.258 -0.0903  0.2597 -0.1960
 3428TIP3    H131919   4.338   3.092   1.163 -0.1841  0.5956 -0.1801
 3428TIP3    H231920   4.265   3.136   1.288 -0.3414 -0.2902  0.0477
 3429TIP3   OH231921   6.238   4.009   2.240  0.0758 -0.1690 -0.0281
 3429TIP3    H131922   6.332   3.990   2.242  0.3880  1.2038 -0.8546
 3429TIP3    H231923   6.204   3.971   2.321  1.2271 -1.2341 -0.0218
 3430TIP3   OH231924   5.457   6.269   1.949  0.1175  0.3369 -0.0600
 3430TIP3    H131925   5.497   6.248   1.865  1.4094 -0.5383  0.7311
 3430TIP3    H231926   5.443   6.184   1.991  2.5413  0.7844  1.9167
 3431TIP3   OH231927   6.686   2.378   0.389  0.3570 -0.1560  0.4792
 3431TIP3    H131928   6.672   2.467   0.358 -3.2053 -1.5096 -2.4895
 3431TIP3    H231929   6.779   2.361   0.372  0.6866  2.3483 -0.6030
 3432TIP3   OH231930   0.316   1.999   2.876 -0.0097  0.2470 -0.1966
 3432TIP3    H131931   0.236   2.017   2.924 -1.1570 -1.0437 -1.5117
 3432TIP3    H231932   0.385   2.001   2.942 -1.1575  1.0887  1.0207
 3433TIP3   OH231933   2.599   4.497   7.731  0.3462  0.5752 -0.2699
 3433TIP3    H131934   2.584   4.571   7.789  1.9472  0.0850  0.8552
 3433TIP3    H231935   2.588   4.533   7.643 -1.4609  1.5000  0.2783
 3434TIP3   OH231936   5.168   0.098   8.226 -0.4598 -0.0788  0.3867
 3434TIP3    H131937   5.160   0.171   8.288 -2.1549  0.4042 -0.3233
 3434TIP3    H231938   5.207   0.027   8.277  0.3972  1.0343  1.3439
 3435TIP3   OH231939   6.125   0.129   7.024  0.2782 -0.2471 -0.2445
 3435TIP3    H131940   6.117   0.045   6.979 -0.1126 -0.5123  0.3121
 3435TIP3    H231941   6.043   0.139   7.072  1.8973 -1.6109  3.1756
 3436TIP3   OH231942   3.631   3.688   2.760  0.4121 -0.5707 -0.4674
 3436TIP3    H131943   3.635   3.616   2.823 -0.2397 -1.1806 -1.0980
 3436TIP3    H231944   3.539   3.715   2.761  0.0609 -1.5716 -2.2033
 3437TIP3   OH231945   0.861   4.257   7.879  0.0402 -0.3130  0.5211
 3437TIP3    H131946   0.823   4.340   7.849 -1.5358 -1.0701  0.3235
 3437TIP3    H231947   0.796   4.222   7.939  1.1207 -0.9819  1.3426
 3438TIP3   OH231948   4.971   4.807   1.383 -0.1125  0.2167 -0.4863
 3438TIP3    H131949   4.959   4.719   1.347  2.3776 -0.0316 -0.9022
 3438TIP3    H231950   4.994   4.792   1.475 -0.5944  0.5221 -0.3099
 3439TIP3   OH231951   3.005   4.553   1.325 -0.0671 -0.3738 -0.1870
 3439TIP3    H131952   3.093   4.575   1.355  0.0420 -0.2537 -0.5969
 3439TIP3    H231953   3.016   4.469   1.280  0.1469  0.4309 -1.7087
 3440TIP3   OH231954   3.339   0.484   2.397 -0.1840 -0.3226  0.8444
 3440TIP3    H131955   3.397   0.408   2.392 -3.0367 -2.6133 -0.6808
 3440TIP3    H231956   3.272   0.459   2.460 -2.8066 -0.4670 -1.7691
 3441TIP3   OH231957   3.967   6.699   1.260 -0.1490 -0.3610 -0.1957
 3441TIP3    H131958   3.991   6.654   1.341  0.3078  1.2911  0.6118
 3441TIP3    H231959   3.871   6.693   1.258 -0.0654 -2.4572 -0.7927
 3442TIP3   OH231960   4.774   6.029   0.489  0.3066 -0.2865 -0.0493
 3442TIP3    H131961   4.708   6.048   0.556 -1.4974 -0.3139 -1.7281
 3442TIP3    H231962   4.737   6.066   0.409  2.3394 -0.3623 -1.0754
 3443TIP3   OH231963   6.911   3.370   1.024 -0.4035 -0.0406 -0.1908
 3443TIP3    H131964   6.967   3.313   1.077 -0.7151  0.0096  0.1910
 3443TIP3    H231965   6.822   3.344   1.046 -0.5646  1.0159  0.4528
 3444TIP3   OH231966   5.630   0.859   2.503 -0.4579 -0.1713  0.1253
 3444TIP3    H131967   5.618   0.937   2.449 -2.1577  1.2981  2.4307
 3444TIP3    H231968   5.690   0.886   2.573 -1.1053 -0.8817  0.9950
 3445TIP3   OH231969   6.882   3.359   3.035 -0.2014 -0.2209 -0.4240
 3445TIP3    H131970   6.885   3.406   3.118  0.3932 -0.0626 -0.5302
 3445TIP3    H231971   6.826   3.283   3.052 -1.6698  0.8210 -0.4130
 3446TIP3   OH231972   1.132   2.979   2.280  0.3691 -0.2157  0.2679
 3446TIP3    H131973   1.056   2.977   2.339  0.7449  1.3969  0.8759
 3446TIP3    H231974   1.117   2.908   2.219 -1.2212 -0.4606  0.8879
 3447TIP3   OH231975   3.822   0.872   0.831  0.1883  0.5425 -0.0700
 3447TIP3    H131976   3.795   0.964   0.833 -1.2413  0.1515 -0.5680
 3447TIP3    H231977   3.797   0.838   0.917  1.6797  0.8547  0.5168
 3448TIP3   OH231978   3.245   0.297   0.435  0.6568 -0.0785  0.0726
 3448TIP3    H131979   3.249   0.230   0.366  0.3012  1.8053 -1.8867
 3448TIP3    H231980   3.153   0.297   0.462  0.8103 -0.8700  0.6497
 3449TIP3   OH231981   0.652   6.224   7.612 -0.3020  0.2677  0.3117
 3449TIP3    H131982   0.602   6.210   7.531  1.0486 -0.9351 -0.3688
 3449TIP3    H231983   0.715   6.151   7.614  1.8082  1.9971  0.8192
 3450TIP3   OH231984   1.851   5.143   8.268 -0.6628  0.8368 -0.0419
 3450TIP3    H131985   1.784   5.178   8.327 -0.0704 -2.3973  2.7943
 3450TIP3    H231986   1.806   5.074   8.219  0.5613 -2.1277  2.6616
 3451TIP3   OH231987   5.383   6.850   0.446 -0.1673  0.0573  0.2402
 3451TIP3    H131988   5.380   6.885   0.357  0.3192 -0.8464 -0.1432
 3451TIP3    H231989   5.444   6.776   0.441  1.0775  0.9208  1.6465
 3452TIP3   OH231990   5.901   1.587   0.373 -0.1750  0.1050 -0.5936
 3452TIP3    H131991   5.857   1.505   0.352 -1.4331 -0.3003  3.0611
 3452TIP3    H231992   5.830   1.645   0.403  1.1319  1.2634  0.3578
 3453TIP3   OH231993   1.256   1.039   2.700 -0.3129  0.4583  0.0857
 3453TIP3    H131994   1.260   1.005   2.789  0.1816 -1.7049 -0.7170
 3453TIP3    H231995   1.318   0.986   2.650 -1.2045  1.0325 -1.7437
 3454TIP3   OH231996   5.875   6.772   6.563 -0.3242 -0.2043  0.9780
 3454TIP3    H131997   5.906   6.840   6.621 -0.2263  1.1129 -0.5459
 3454TIP3    H231998   5.790   6.804   6.532 -0.4025 -0.8970  0.4503
 3455TIP3   OH231999   1.129   1.130   7.442 -0.3320 -0.4135  0.0918
 3455TIP3    H132000   1.175   1.054   7.407 -0.2998 -0.2016 -0.3235
 3455TIP3    H232001   1.154   1.202   7.385 -0.5108 -0.1259  0.3730
 3456TIP3   OH232002   5.553   1.195   2.690 -0.1109  0.7335  0.6127
 3456TIP3    H132003   5.573   1.179   2.598  0.5184  1.4790  0.6096
 3456TIP3    H232004   5.512   1.114   2.720 -1.1311  0.7749 -0.5483
 3457TIP3   OH232005   1.898   2.855   6.903  0.1901 -0.2544  0.0539
 3457TIP3    H132006   1.918   2.802   6.980  1.8717 -0.0119 -0.1941
 3457TIP3    H232007   1.982   2.869   6.860 -0.6938 -0.3594 -1.8374
 3458TIP3   OH232008   0.136   5.999   8.441 -0.3762 -0.6489  0.6150
 3458TIP3    H132009   0.112   6.050   8.519  1.1361 -0.8657  1.2706
 3458TIP3    H232010   0.185   5.925   8.476  0.2655 -0.7868 -0.5349
 3459TIP3   OH232011   6.230   2.025   7.259  0.1156 -0.1771  0.2790
 3459TIP3    H132012   6.301   2.077   7.221  2.5979 -3.0822  0.5629
 3459TIP3    H232013   6.164   2.020   7.190  0.4686  1.9630 -0.2884
 3460TIP3   OH232014   1.668   0.732   8.127  0.1359  0.1206 -0.2186
 3460TIP3    H132015   1.576   0.759   8.120  0.1696 -0.0757 -1.6818
 3460TIP3    H232016   1.669   0.671   8.201 -0.9042  0.1438 -0.1672
 3461TIP3   OH232017   6.789   4.339   7.769  0.1764  0.7087 -0.8394
 3461TIP3    H132018   6.710   4.348   7.822 -0.6300 -0.4527 -1.7876
 3461TIP3    H232019   6.859   4.374   7.824 -0.9843  1.7588  0.0225
 3462TIP3   OH232020   5.044   6.457   2.347  0.2277 -0.1408  0.8413
 3462TIP3    H132021   5.062   6.371   2.387 -1.0736 -0.1493  1.4544
 3462TIP3    H232022   5.035   6.516   2.422  2.5645  0.8760  0.3926
 3463TIP3   OH232023   1.167   6.639   8.358 -0.0462  0.6021 -0.6541
 3463TIP3    H132024   1.073   6.627   8.344  0.0010 -2.2014  0.6111
 3463TIP3    H232025   1.174   6.717   8.412 -1.8446 -0.1606  0.7702
 3464TIP3   OH232026   1.407   6.769   8.156 -0.1005  0.0165 -0.1744
 3464TIP3    H132027   1.449   6.841   8.204 -1.1159  1.7917 -1.8344
 3464TIP3    H232028   1.462   6.757   8.079 -1.2564  0.6907 -1.1275
 3465TIP3   OH232029   3.458   1.639   1.517  0.2823  0.4283  0.0694
 3465TIP3    H132030   3.477   1.701   1.447 -0.1127 -0.9368 -1.3170
 3465TIP3    H232031   3.489   1.555   1.483 -0.6360 -0.4011  1.2060
 3466TIP3   OH232032   2.268   3.645   8.167  0.3672 -0.3248  0.4170
 3466TIP3    H132033   2.329   3.626   8.239 -0.9768 -0.8441  1.4610
 3466TIP3    H232034   2.191   3.592   8.187 -0.3888  0.2285 -0.9421
 3467TIP3   OH232035   2.987   6.714   1.613  0.3088  0.0390  0.4021
 3467TIP3    H132036   3.028   6.678   1.534  1.1659  0.1217  0.8041
 3467TIP3    H232037   2.904   6.666   1.620  1.1365 -1.4501  0.5846
 3468TIP3   OH232038   5.416   4.169   7.581 -0.2225 -0.7588 -0.1489
 3468TIP3    H132039   5.436   4.220   7.502  1.4815  0.6468  1.1089
 3468TIP3    H232040   5.323   4.186   7.598 -0.1841  0.2761 -0.9120
 3469TIP3   OH232041   6.640   4.308   8.296  0.9154  0.3518  0.4718
 3469TIP3    H132042   6.550   4.337   8.307  0.4275 -1.3703  1.3332
 3469TIP3    H232043   6.678   4.311   8.384  0.7720 -1.6954  0.6544
 3470TIP3   OH232044   1.107   0.204   1.766  0.0348  0.0343  0.1085
 3470TIP3    H132045   1.108   0.109   1.753  1.0837  0.2982 -2.3920
 3470TIP3    H232046   1.033   0.220   1.824 -1.9969 -2.0811 -1.7019
 3471TIP3   OH232047   5.599   0.875   7.161 -0.4316  0.3670 -0.3066
 3471TIP3    H132048   5.531   0.893   7.097 -1.0544  0.9100  0.4781
 3471TIP3    H232049   5.636   0.791   7.135 -3.8380 -1.8306  1.2216
 3472TIP3   OH232050   5.501   4.203   2.502 -0.1406 -0.3811  0.1802
 3472TIP3    H132051   5.424   4.224   2.555 -0.0375 -1.2641  0.7055
 3472TIP3    H232052   5.570   4.187   2.566  0.4246  0.1533 -0.2833
 3473TIP3   OH232053   5.337   1.470   3.221 -0.5765 -0.3019  0.1348
 3473TIP3    H132054   5.309   1.402   3.160  0.0153 -0.8322  0.4421
 3473TIP3    H232055   5.431   1.479   3.204 -0.5714  0.1417  0.3917
 3474TIP3   OH232056   5.859   3.561   2.277  0.9784 -0.3013 -0.0552
 3474TIP3    H132057   5.861   3.521   2.190 -1.5619  0.4692 -0.5600
 3474TIP3    H232058   5.855   3.655   2.259  0.7570 -0.1237  0.8939
 3475TIP3   OH232059   2.667   5.575   0.063  0.0063 -0.3322  0.4383
 3475TIP3    H132060   2.720   5.566   0.141  1.8738 -0.0951 -0.7483
 3475TIP3    H232061   2.695   5.504   0.006 -0.5705  0.1240 -0.4430
 3476TIP3   OH232062   6.847   3.603   6.961 -0.4693  0.1477  0.1258
 3476TIP3    H132063   6.791   3.530   6.988 -1.4745  1.1408  0.7996
 3476TIP3    H232064   6.881   3.639   7.043  1.1910 -0.4326 -0.2716
 3477TIP3   OH232065   4.694   4.325   2.779  0.3825 -0.1029  0.4140
 3477TIP3    H132066   4.683   4.233   2.804 -3.0572  0.3354  1.0382
 3477TIP3    H232067   4.682   4.373   2.861 -1.0190  0.9698 -0.3744
 3478TIP3   OH232068   2.970   4.740   7.360  0.3117 -0.3070 -0.0700
 3478TIP3    H132069   3.000   4.683   7.288  1.3144  0.3721 -0.2038
 3478TIP3    H232070   3.050   4.778   7.395 -0.1271 -0.9582  1.7232
 3479TIP3   OH232071   1.594   2.203   7.138  0.1702  0.3577 -0.5763
 3479TIP3    H132072   1.613   2.279   7.083  0.1882  0.2808 -0.6768
 3479TIP3    H232073   1.517   2.163   7.097 -0.3694  0.8083 -0.0324
 3480TIP3   OH232074   0.751   0.641   0.641 -0.2946 -0.9142 -0.5532
 3480TIP3    H132075   0.826   0.593   0.678  0.0195  0.6012  0.9330
 3480TIP3    H232076   0.775   0.656   0.550  2.6087  1.9236  0.4980
 3481TIP3   OH232077   6.817   6.920   7.062  0.0400 -0.3675 -0.3149
 3481TIP3    H132078   6.850   7.005   7.089 -1.0535  0.2040 -0.7204
 3481TIP3    H232079   6.776   6.936   6.977  1.0145 -1.5767 -1.0528
 3482TIP3   OH232080   6.606   0.621   1.264 -0.1962 -0.3447  0.1985
 3482TIP3    H132081   6.591   0.532   1.231 -0.5650  0.2212 -1.2461
 3482TIP3    H232082   6.566   0.622   1.350 -1.3611 -1.2198 -0.3041
 3483TIP3   OH232083   0.903   1.444   7.136 -0.5261 -0.8400  0.3094
 3483TIP3    H132084   0.953   1.511   7.183 -0.6643 -0.5069 -0.0099
 3483TIP3    H232085   0.813   1.478   7.134 -0.3846 -0.4848 -0.8359
 3484TIP3   OH232086   5.073   6.403   7.729 -0.6527 -0.1734  0.1308
 3484TIP3    H132087   5.164   6.433   7.722 -0.8320  0.1569 -0.9282
 3484TIP3    H232088   5.047   6.427   7.818  0.9730 -2.2260  1.2316
 3485TIP3   OH232089   3.001   1.940   1.565 -0.8117  0.2606 -0.6059
 3485TIP3    H132090   2.926   1.954   1.508 -0.9701  2.0725 -0.0311
 3485TIP3    H232091   3.065   2.005   1.536 -0.4472  0.4216  0.5169
 3486TIP3   OH232092   4.211   6.783   2.342  0.3327  0.1203 -0.2294
 3486TIP3    H132093   4.265   6.720   2.296  2.1677  2.3559 -1.3440
 3486TIP3    H232094   4.150   6.816   2.276  0.1735  0.3511  0.0298
 3487TIP3   OH232095   4.483   0.244   1.600  0.2463 -0.3386 -0.0220
 3487TIP3    H132096   4.451   0.153   1.603 -2.0453  0.2672 -2.4215
 3487TIP3    H232097   4.557   0.241   1.540  0.4395 -0.6686  0.2247
 3488TIP3   OH232098   6.734   3.910   8.055  0.5097  0.2405  0.0033
 3488TIP3    H132099   6.690   3.994   8.066  1.2646  0.5555  0.7358
 3488TIP3    H232100   6.753   3.904   7.962 -0.6718  0.2953 -0.2600
 3489TIP3   OH232101   1.889   3.375   2.530 -0.3493 -0.1429  0.2771
 3489TIP3    H132102   1.821   3.427   2.573  0.7329 -0.1112  2.0473
 3489TIP3    H232103   1.970   3.423   2.546  0.2528 -0.7154 -0.8948
 3490TIP3   OH232104   0.135   4.355   7.225  0.1938  0.2644 -0.0372
 3490TIP3    H132105   0.145   4.404   7.144 -0.3631 -1.5788 -1.2659
 3490TIP3    H232106   0.041   4.338   7.232  0.3101 -0.1352  0.6586
 3491TIP3   OH232107   6.609   4.714   7.844 -0.2335 -0.4786  0.0373
 3491TIP3    H132108   6.563   4.747   7.767  1.5552 -0.1262 -0.9610
 3491TIP3    H232109   6.551   4.733   7.917 -1.5245  0.1733 -1.1118
 3492TIP3   OH232110   5.084   1.541   8.092  0.1314  0.2326 -0.5173
 3492TIP3    H132111   5.139   1.619   8.104  0.7368 -0.2584 -0.0620
 3492TIP3    H232112   5.109   1.507   8.006  0.2868  0.2147 -0.4658
 3493TIP3   OH232113   4.094   1.192   1.457 -0.1278  0.2232 -0.0869
 3493TIP3    H132114   4.156   1.197   1.384  0.3452  0.9356  0.3557
 3493TIP3    H232115   4.008   1.187   1.415  0.1516  0.4075 -0.6898
 3494TIP3   OH232116   5.798   2.124   6.920  0.1135  0.2820  0.3123
 3494TIP3    H132117   5.784   2.057   6.853 -4.2373  0.7167  0.5496
 3494TIP3    H232118   5.863   2.085   6.979  1.6650 -1.4417 -2.3386
 3495TIP3   OH232119   0.221   1.513   1.051 -0.5669  0.1638  0.0635
 3495TIP3    H132120   0.144   1.465   1.021 -0.2021 -0.4920  0.1404
 3495TIP3    H232121   0.259   1.550   0.971 -0.5038 -0.2066 -0.0794
 3496TIP3   OH232122   4.592   1.692   8.455  0.2461 -0.3796 -0.0924
 3496TIP3    H132123   4.663   1.694   8.519  0.7737 -0.6435 -0.6537
 3496TIP3    H232124   4.542   1.613   8.476 -0.6998  0.5277  1.1524
 3497TIP3   OH232125   3.648   6.855   8.176  0.0531 -0.5635 -0.2951
 3497TIP3    H132126   3.565   6.874   8.219  0.2916 -0.8643  0.3074
 3497TIP3    H232127   3.696   6.800   8.238  0.3176 -1.1913 -1.0438
 3498TIP3   OH232128   3.023   5.427   0.110  0.9137  0.0428  0.3052
 3498TIP3    H132129   3.036   5.338   0.077 -1.1263  0.4737 -1.9608
 3498TIP3    H232130   3.018   5.482   0.031  3.0964  2.3813  1.6486
 3499TIP3   OH232131   3.447   5.027   8.285 -0.5506  0.1193 -0.2453
 3499TIP3    H132132   3.448   5.011   8.190 -1.6970 -0.7157 -0.1299
 3499TIP3    H232133   3.469   5.120   8.293 -0.2942  0.1659 -1.3265
 3500TIP3   OH232134   3.396   0.418   7.195 -0.3378  0.2361  0.0460
 3500TIP3    H132135   3.405   0.333   7.237 -1.2784 -0.3020 -0.8112
 3500TIP3    H232136   3.357   0.400   7.110 -2.2164  1.6570  0.5288
 3501TIP3   OH232137   1.101   5.502   0.490  0.1937 -0.0299 -0.2177
 3501TIP3    H132138   1.124   5.445   0.563 -0.9110  0.6139  0.6837
 3501TIP3    H232139   1.005   5.495   0.484 -0.1786  2.7835  0.9035
 3502TIP3   OH232140   5.214   5.137   1.706  0.1444 -0.8189  0.3821
 3502TIP3    H132141   5.157   5.150   1.630  0.9662  1.4187  0.0685
 3502TIP3    H232142   5.201   5.046   1.730 -0.2595 -1.5944 -2.3682
 3503TIP3   OH232143   3.819   1.079   8.267 -0.7299 -0.6887  0.0684
 3503TIP3    H132144   3.826   1.067   8.362  0.1957 -1.4655 -0.0901
 3503TIP3    H232145   3.809   0.990   8.232 -2.5562 -0.3225 -0.4643
 3504TIP3   OH232146   0.154   6.942   7.016 -0.5199  0.4356  0.2339
 3504TIP3    H132147   0.096   6.997   7.067 -1.5269 -0.4557  0.0908
 3504TIP3    H232148   0.123   6.853   7.031  0.9038 -0.0881  0.2603
 3505TIP3   OH232149   6.238   5.069   7.730  0.3774  0.7129  0.3034
 3505TIP3    H132150   6.272   4.981   7.711 -1.9818  0.0124 -0.9968
 3505TIP3    H232151   6.230   5.071   7.826 -1.4153 -1.3033  0.2741
 3506TIP3   OH232152   3.117   0.361   0.141  0.3764 -0.4123  0.6929
 3506TIP3    H132153   3.062   0.429   0.180  1.4732  0.3373  0.9768
 3506TIP3    H232154   3.055   0.302   0.098 -0.5955  0.8556  0.2976
 3507TIP3   OH232155   0.304   2.768   3.097 -0.0037 -0.4819 -0.6606
 3507TIP3    H132156   0.271   2.753   3.008  0.3597  1.7992 -1.2544
 3507TIP3    H232157   0.388   2.812   3.084 -0.1555  0.2961  0.8193
 3508TIP3   OH232158   6.153   1.490   2.141 -0.2401  0.4784 -0.5100
 3508TIP3    H132159   6.058   1.498   2.148 -0.3163 -0.7289  0.0475
 3508TIP3    H232160   6.178   1.436   2.215  0.8560  0.5347 -0.8282
 3509TIP3   OH232161   3.315   4.220   8.154  0.0281  0.2517 -0.0686
 3509TIP3    H132162   3.407   4.245   8.149  0.2666 -0.7339 -1.1860
 3509TIP3    H232163   3.302   4.192   8.244  1.0799 -0.5188 -0.1388
 3510TIP3   OH232164   0.122   6.112   1.564  0.3257 -0.4822 -0.5272
 3510TIP3    H132165   0.032   6.130   1.537  0.0974 -0.1437  0.4192
 3510TIP3    H232166   0.170   6.193   1.542  0.4321 -0.6964 -1.1170
 3511TIP3   OH232167   0.918   2.686   2.569  0.2979  0.1565  0.1040
 3511TIP3    H132168   1.009   2.670   2.596  1.3307  1.7381 -2.1193
 3511TIP3    H232169   0.891   2.605   2.526  1.0273  0.0207 -0.1136
 3512TIP3   OH232170   1.857   5.868   6.461  0.0435  0.0070 -0.4214
 3512TIP3    H132171   1.770   5.879   6.498 -0.6391 -0.3086 -1.8510
 3512TIP3    H232172   1.864   5.939   6.397  1.2177  0.5986  0.3390
 3513TIP3   OH232173   2.844   1.518   0.733 -0.4914 -0.0845  0.5176
 3513TIP3    H132174   2.865   1.463   0.657  0.2370  1.5372 -0.5071
 3513TIP3    H232175   2.921   1.511   0.790 -0.9489 -1.1298  1.0424
 3514TIP3   OH232176   4.003   6.235   0.836 -0.3346  0.1782  0.6152
 3514TIP3    H132177   4.034   6.218   0.747 -2.6130  0.1306 -0.2403
 3514TIP3    H232178   3.994   6.148   0.875 -1.6512 -0.0011 -0.0067
 3515TIP3   OH232179   5.636   1.142   1.085  0.1241 -0.3387 -0.1464
 3515TIP3    H132180   5.583   1.170   1.160 -1.7131  1.0261 -1.8359
 3515TIP3    H232181   5.722   1.124   1.122 -0.4788  1.0315  2.1605
 3516TIP3   OH232182   4.967   6.144   0.749 -0.1240  0.1030  0.2492
 3516TIP3    H132183   5.020   6.198   0.689 -1.1655  0.1070 -0.7075
 3516TIP3    H232184   4.878   6.179   0.740 -0.6430 -1.1346  0.3678
 3517TIP3   OH232185   0.500   0.693   8.149 -0.5412 -0.0981  0.0013
 3517TIP3    H132186   0.507   0.788   8.137 -0.2770 -0.2140 -0.8367
 3517TIP3    H232187   0.587   0.660   8.126 -0.9126 -0.6277 -0.7043
 3518TIP3   OH232188   6.039   5.954   1.142  0.6290  0.3041  0.5557
 3518TIP3    H132189   6.045   6.038   1.096 -0.2665 -0.1139 -0.3751
 3518TIP3    H232190   6.037   5.977   1.235  1.2504  1.2507  0.3415
 3519TIP3   OH232191   4.286   5.721   0.894  0.4219  0.0503 -0.2237
 3519TIP3    H132192   4.350   5.672   0.842 -1.4644 -0.5339 -2.1830
 3519TIP3    H232193   4.233   5.654   0.937  0.4842  0.4923  0.5663
 3520TIP3   OH232194   2.546   1.861   7.840  0.3048 -0.5154 -0.8379
 3520TIP3    H132195   2.549   1.893   7.749  0.5828 -0.3290 -0.7656
 3520TIP3    H232196   2.631   1.818   7.852  1.1349  1.2491 -0.0228
 3521TIP3   OH232197   1.449   1.469   0.037 -0.4586 -0.2295  0.1983
 3521TIP3    H132198   1.469   1.387  -0.009  0.0597  0.9978 -1.8895
 3521TIP3    H232199   1.497   1.462   0.120  2.0323 -0.8632 -1.1715
 3522TIP3   OH232200   2.886   1.329   1.051  0.1133  0.0588  0.2750
 3522TIP3    H132201   2.836   1.330   0.969  0.5453 -1.1108 -0.0289
 3522TIP3    H232202   2.893   1.236   1.073  3.6554 -0.0663 -0.6640
 3523TIP3   OH232203   3.959   1.299   7.971  0.3000 -0.1732  0.2808
 3523TIP3    H132204   3.959   1.393   7.987 -1.8908 -0.1487  0.4675
 3523TIP3    H232205   4.021   1.287   7.899  0.8879  1.3627  0.4996
 3524TIP3   OH232206   4.175   5.395   0.983  0.0115  0.9685  0.1193
 3524TIP3    H132207   4.139   5.395   0.894  1.4289  1.5442 -0.4831
 3524TIP3    H232208   4.129   5.466   1.027 -0.7951  0.5947 -0.0978
 3525TIP3   OH232209   2.492   0.780   1.484 -0.1187 -0.2654  0.6693
 3525TIP3    H132210   2.582   0.758   1.458 -0.6768 -0.5491 -1.1929
 3525TIP3    H232211   2.491   0.768   1.578  1.1621 -2.6845  0.4623
 3526TIP3   OH232212   6.387   3.321   1.593  0.5501 -0.0585 -0.0437
 3526TIP3    H132213   6.431   3.265   1.529  2.0177  2.9453 -1.8985
 3526TIP3    H232214   6.453   3.336   1.661  0.2331 -0.3864  0.3417
 3527TIP3   OH232215   0.115   4.613   8.366 -0.1803 -0.1710  0.7991
 3527TIP3    H132216   0.145   4.690   8.318  0.9767 -0.6542  0.7205
 3527TIP3    H232217   0.020   4.618   8.362 -0.1228  0.1423 -0.9905
 3528TIP3   OH232218   6.832   5.443   6.945  0.1396 -0.2427 -0.1275
 3528TIP3    H132219   6.911   5.492   6.923 -1.3364  3.4074  1.7875
 3528TIP3    H232220   6.860   5.380   7.011  1.4199  1.4744  1.0557
 3529TIP3   OH232221   6.596   6.683   0.855 -0.3125  0.2538 -0.5317
 3529TIP3    H132222   6.620   6.775   0.842 -0.5929  0.4261  0.1126
 3529TIP3    H232223   6.676   6.642   0.889 -0.2594  0.3122 -0.5858
 3530TIP3   OH232224   3.354   0.823   8.215 -0.2729 -0.5873 -0.1251
 3530TIP3    H132225   3.269   0.780   8.213  0.1741 -1.4672 -1.2135
 3530TIP3    H232226   3.385   0.820   8.124  1.0677 -0.5896  0.3009
 3531TIP3   OH232227   1.030   1.228   7.858 -0.3631  0.7471  0.0811
 3531TIP3    H132228   1.083   1.287   7.804 -1.0069  0.8138 -0.4900
 3531TIP3    H232229   1.002   1.160   7.798  1.2182 -0.7469  0.9476
 3532TIP3   OH232230   4.980   3.290   2.288  0.1892 -0.2812  0.1392
 3532TIP3    H132231   5.030   3.242   2.222  2.5381 -0.8375  2.1853
 3532TIP3    H232232   5.029   3.371   2.301 -0.9170  0.3698  0.3754
 3533TIP3   OH232233   3.984   5.102   2.587  0.5325 -0.0704  0.1643
 3533TIP3    H132234   3.980   5.054   2.504 -1.6049 -0.5116  0.4604
 3533TIP3    H232235   4.068   5.076   2.626  0.7202 -1.3312 -0.9960
 3534TIP3   OH232236   1.627   0.162   2.507 -0.0298  0.1974  0.5308
 3534TIP3    H132237   1.571   0.142   2.582 -0.6110  1.6382  0.5053
 3534TIP3    H232238   1.711   0.121   2.529 -0.6662 -0.7871  1.2116
 3535TIP3   OH232239   4.517   1.438   2.301  0.0094  0.2307  0.6276
 3535TIP3    H132240   4.611   1.456   2.313  0.0284 -0.2217  1.1479
 3535TIP3    H232241   4.473   1.513   2.342  0.1522  1.2352 -0.9680
 3536TIP3   OH232242   3.979   3.647   0.798  0.2059  0.2328 -0.1301
 3536TIP3    H132243   3.968   3.580   0.731  1.7106 -1.9050  1.6336
 3536TIP3    H232244   4.073   3.664   0.800 -0.1185  2.4696 -0.4986
 3537TIP3   OH232245   6.633   5.890   7.236 -0.0187  0.3530  0.1111
 3537TIP3    H132246   6.629   5.832   7.313  0.0280 -1.1312 -0.9673
 3537TIP3    H232247   6.667   5.835   7.166 -1.5834  1.1977 -1.3960
 3538TIP3   OH232248   2.947   5.402   1.046 -0.2371 -0.1509  0.3257
 3538TIP3    H132249   2.918   5.450   0.968  2.2334  2.4568  0.8529
 3538TIP3    H232250   2.959   5.470   1.112  4.3885 -1.1872  0.8537
 3539TIP3   OH232251   2.723   4.207   7.260 -0.2858 -0.2861  0.2543
 3539TIP3    H132252   2.815   4.233   7.263 -0.1506 -0.7664  0.2313
 3539TIP3    H232253   2.706   4.168   7.346 -0.2847 -0.8237  0.0111
 3540TIP3   OH232254   4.160   5.554   2.163  0.0566  0.2317 -0.0286
 3540TIP3    H132255   4.197   5.642   2.172  0.5273  0.0358 -0.0064
 3540TIP3    H232256   4.087   5.552   2.225  1.1511  0.0199  1.3187
 3541TIP3   OH232257   4.536   2.897   1.284  0.5392 -0.0630  0.3398
 3541TIP3    H132258   4.479   2.962   1.243  1.6186 -0.3020 -1.6861
 3541TIP3    H232259   4.520   2.906   1.378 -1.0789  1.4617 -0.0333
 3542TIP3   OH232260   4.304   3.348   1.982  0.2547 -0.6110  0.2432
 3542TIP3    H132261   4.310   3.391   2.068  0.7675  0.6475 -0.3936
 3542TIP3    H232262   4.383   3.295   1.976  1.2788  0.8990 -0.2524
 3543TIP3   OH232263   3.760   0.281   1.424 -0.1998  0.0290 -0.2006
 3543TIP3    H132264   3.667   0.301   1.425 -0.8311 -2.5138  1.8310
 3543TIP3    H232265   3.802   0.361   1.455 -1.9468  0.4236  1.3240
 3544TIP3   OH232266   4.759   2.178   1.573  0.1325  0.4006  0.0930
 3544TIP3    H132267   4.805   2.225   1.503  0.4657 -1.3833 -0.9488
 3544TIP3    H232268   4.671   2.163   1.538  0.6707 -1.5922 -0.5364
 3545TIP3   OH232269   6.794   2.122   7.122 -0.0725 -0.5254 -0.0167
 3545TIP3    H132270   6.832   2.210   7.120 -0.8497 -0.1949 -2.0559
 3545TIP3    H232271   6.870   2.064   7.112  0.3255 -0.0571  0.2123
 3546TIP3   OH232272   1.134   1.758   0.339 -0.2649 -0.1595 -0.5101
 3546TIP3    H132273   1.150   1.841   0.293  0.0557  0.8366  1.3051
 3546TIP3    H232274   1.067   1.715   0.287 -1.6368  1.9705 -0.6504
 3547TIP3   OH232275   2.201   4.557   0.836  0.6394  0.0249  0.2074
 3547TIP3    H132276   2.265   4.501   0.792  0.5691 -0.7659  1.1001
 3547TIP3    H232277   2.199   4.636   0.782  1.6637 -0.3177 -0.3727
 3548TIP3   OH232278   2.338   1.417   0.001 -0.5163  0.2218  0.1731
 3548TIP3    H132279   2.328   1.380   0.089  0.2625 -1.5920 -0.4441
 3548TIP3    H232280   2.272   1.486  -0.004  0.0545  1.0298  2.5002
 3549TIP3   OH232281   2.391   1.171   2.914  0.0629  0.2003  0.0991
 3549TIP3    H132282   2.409   1.236   2.845 -2.1121  1.1344  0.3474
 3549TIP3    H232283   2.391   1.087   2.868  1.9099  0.4343 -0.4104
 3550TIP3   OH232284   6.515   2.862   3.607 -0.2500  0.6648  0.0800
 3550TIP3    H132285   6.471   2.809   3.674 -1.5027 -1.1111 -2.0065
 3550TIP3    H232286   6.454   2.863   3.533  1.1310  2.3982 -1.1285
 3551TIP3   OH232287   3.019   2.855   6.893 -0.2525 -0.0386 -0.3056
 3551TIP3    H132288   3.078   2.785   6.923  0.2109  1.0860  1.5128
 3551TIP3    H232289   3.075   2.932   6.884 -0.8468  0.2491 -1.8449
 3552TIP3   OH232290   4.383   2.877   8.434  0.0261  0.8703  0.2592
 3552TIP3    H132291   4.452   2.858   8.498  0.2754  1.2659  0.1145
 3552TIP3    H232292   4.302   2.860   8.480  0.2189 -0.7858  0.0669
 3553TIP3   OH232293   1.182   1.843   8.305 -1.0177 -0.2772  0.0723
 3553TIP3    H132294   1.235   1.877   8.233 -2.0202  3.0137  0.6832
 3553TIP3    H232295   1.094   1.835   8.268 -1.4010  0.8006  0.6991
 3554TIP3   OH232296   1.769   1.203   1.191 -0.1310 -0.0565  0.1863
 3554TIP3    H132297   1.791   1.115   1.224  1.8485  0.6122  0.8460
 3554TIP3    H232298   1.709   1.239   1.257 -0.5648 -0.7315  0.1667
 3555TIP3   OH232299   0.346   1.989   6.781 -0.4449  0.2019  0.2519
 3555TIP3    H132300   0.260   1.952   6.800 -0.6939 -1.7482 -3.5967
 3555TIP3    H232301   0.402   1.912   6.766  0.6956  1.3530 -1.8701
 3556TIP3   OH232302   5.390   1.324   1.107 -0.3582  0.2689  0.5206
 3556TIP3    H132303   5.477   1.344   1.073 -0.7871 -1.0622 -1.5370
 3556TIP3    H232304   5.406   1.258   1.175  0.3853  1.7407  1.8262
 3557TIP3   OH232305   2.223   2.843   0.130  0.4209  0.3004 -0.3602
 3557TIP3    H132306   2.297   2.856   0.070  0.0268  0.9050 -0.7152
 3557TIP3    H232307   2.226   2.749   0.151  2.6088  0.6455  1.3545
 3558TIP3   OH232308   2.851   2.392   1.846 -0.3651  0.1755  0.5946
 3558TIP3    H132309   2.927   2.450   1.843 -0.6923  0.5541 -1.1506
 3558TIP3    H232310   2.889   2.304   1.850  0.1520  0.3828  0.4005
 3559TIP3   OH232311   2.621   0.517   1.931 -0.5692  0.2446  0.6591
 3559TIP3    H132312   2.669   0.441   1.898  1.3608  0.4812  2.7167
 3559TIP3    H232313   2.675   0.592   1.905 -1.3130  0.7534  0.5627
 3560TIP3   OH232314   2.132   3.939   1.926  0.4881 -0.3296  0.0547
 3560TIP3    H132315   2.195   3.957   1.856  2.7369 -0.5026  1.8821
 3560TIP3    H232316   2.179   3.879   1.984 -2.3429 -2.5268  0.2929
 3561TIP3   OH232317   5.635   6.732   2.721  0.0943  0.3628 -0.6184
 3561TIP3    H132318   5.621   6.697   2.632 -0.4662 -0.8402 -0.0791
 3561TIP3    H232319   5.565   6.796   2.733 -0.1025  0.2009 -0.8791
 3562TIP3   OH232320   4.829   4.894   7.695  0.3964  0.0965 -0.8366
 3562TIP3    H132321   4.756   4.856   7.645 -0.4368 -1.7120  1.5696
 3562TIP3    H232322   4.787   4.958   7.752  0.8649 -0.0834 -0.2855
 3563TIP3   OH232323   5.883   0.456   7.600 -0.5520 -0.4324 -0.4523
 3563TIP3    H132324   5.888   0.419   7.688  0.4555  0.3282 -0.1704
 3563TIP3    H232325   5.815   0.523   7.606 -1.5332 -1.3750 -0.6587
 3564TIP3   OH232326   5.702   6.908   0.527  0.0956  0.4979 -0.4135
 3564TIP3    H132327   5.657   6.827   0.502  0.9714 -0.0546 -0.2335
 3564TIP3    H232328   5.649   6.978   0.488 -1.8160 -0.0174  1.0996
 3565TIP3   OH232329   0.658   3.397   2.244 -0.6252 -0.2008 -0.1573
 3565TIP3    H132330   0.694   3.473   2.291 -0.7037  1.2088 -2.2208
 3565TIP3    H232331   0.563   3.412   2.245 -1.0602 -2.3480  2.6889
 3566TIP3   OH232332   5.689   6.564   1.588 -0.4118  0.3024 -0.0872
 3566TIP3    H132333   5.707   6.658   1.588  0.0293  0.2204 -0.5274
 3566TIP3    H232334   5.775   6.522   1.596 -0.2517 -0.1015 -2.9289
 3567TIP3   OH232335   6.190   1.343   2.351  0.0338  0.2852  0.4339
 3567TIP3    H132336   6.238   1.346   2.434 -1.3794  0.4016  1.2877
 3567TIP3    H232337   6.197   1.251   2.323  2.6846  0.7331 -0.7134
 3568TIP3   OH232338   1.000   0.438   1.189  0.2551  0.6273 -0.2621
 3568TIP3    H132339   1.090   0.459   1.215  0.8548 -1.1617 -0.7339
 3568TIP3    H232340   1.009   0.396   1.104 -0.7337 -1.8602  0.7708
 3569TIP3   OH232341   5.751   1.241   1.741 -0.3798  0.1414 -0.0626
 3569TIP3    H132342   5.837   1.206   1.761 -0.7430 -0.9485 -0.3315
 3569TIP3    H232343   5.725   1.288   1.819 -0.3367 -1.1385  0.7495
 3570TIP3   OH232344   0.736   2.051   2.687  0.5878 -0.6651  0.1249
 3570TIP3    H132345   0.770   2.073   2.774 -1.1442 -0.9546  0.8975
 3570TIP3    H232346   0.670   1.984   2.703  0.1088 -0.5882 -1.4098
 3571TIP3   OH232347   1.658   5.612   7.690  0.3815 -0.9365 -0.0392
 3571TIP3    H132348   1.731   5.664   7.723 -0.4383 -0.1862  0.6234
 3571TIP3    H232349   1.678   5.522   7.717  1.3318 -0.8271 -0.3564
 3572TIP3   OH232350   0.792   5.707   2.842 -0.2537  0.5557 -0.7867
 3572TIP3    H132351   0.730   5.635   2.831  0.4359 -0.0249 -0.9907
 3572TIP3    H232352   0.878   5.668   2.825  0.4261  0.7881  1.7145
 3573TIP3   OH232353   6.302   5.688   1.835  0.2548 -0.5237  0.0953
 3573TIP3    H132354   6.285   5.746   1.909 -1.4435 -0.8244 -0.0205
 3573TIP3    H232355   6.387   5.717   1.801  0.9368 -0.1669  1.9329
 3574TIP3   OH232356   4.408   3.808   8.328 -0.2045 -0.8588 -0.2881
 3574TIP3    H132357   4.386   3.879   8.268  0.7085  0.3807  0.7788
 3574TIP3    H232358   4.484   3.765   8.288  0.0030 -0.4451 -0.3453
 3575TIP3   OH232359   3.097   1.515   1.136 -0.8038  0.0542 -0.0261
 3575TIP3    H132360   3.148   1.453   1.189  1.4305  2.4546  0.8778
 3575TIP3    H232361   3.021   1.465   1.106  0.5676 -2.9132  1.0653
 3576TIP3   OH232362   1.188   2.844   1.781 -0.4830  0.1414  0.2751
 3576TIP3    H132363   1.247   2.917   1.797  0.7495 -0.6749 -0.3817
 3576TIP3    H232364   1.166   2.850   1.688 -2.4300  1.1164  0.7435
 3577TIP3   OH232365   2.758   5.055   8.062 -0.2752 -0.2066  0.0438
 3577TIP3    H132366   2.714   5.028   8.142 -0.3412  0.0451  0.0917
 3577TIP3    H232367   2.756   4.977   8.006  1.2618 -0.9151  0.9176
 3578TIP3   OH232368   5.521   1.442   3.549  0.1677 -0.2812 -0.1162
 3578TIP3    H132369   5.430   1.464   3.530  0.2310  1.3616  1.2164
 3578TIP3    H232370   5.540   1.365   3.494 -1.0029  1.2886 -2.9355
 3579TIP3   OH232371   0.645   5.184   0.135 -0.1196  0.1525 -0.4730
 3579TIP3    H132372   0.669   5.183   0.227  1.4744  0.5778 -0.8587
 3579TIP3    H232373   0.560   5.140   0.132  1.0557 -2.4570  0.8552
 3580TIP3   OH232374   2.167   4.475   1.822 -0.0523 -0.2473 -0.0606
 3580TIP3    H132375   2.236   4.533   1.855 -0.6111  0.1660  0.3952
 3580TIP3    H232376   2.215   4.400   1.786  0.6642  0.3478 -0.3748
 3581TIP3   OH232377   4.895   1.746   8.412  0.6482 -0.2022  0.3927
 3581TIP3    H132378   4.909   1.823   8.467 -1.0509 -0.3096  1.0586
 3581TIP3    H232379   4.807   1.759   8.375  0.5491 -1.5568  0.0884
 3582TIP3   OH232380   0.650   2.886   0.615 -0.3202 -0.4184 -0.2640
 3582TIP3    H132381   0.582   2.827   0.584 -0.3793 -0.2880 -0.3840
 3582TIP3    H232382   0.613   2.974   0.602  0.8148 -0.2182 -2.6103
 3583TIP3   OH232383   4.683   3.079   0.723  1.0236  0.4750  0.2123
 3583TIP3    H132384   4.675   3.104   0.816  0.5840 -1.0243  0.6038
 3583TIP3    H232385   4.650   3.155   0.675 -1.8145  0.1005  1.3791
 3584TIP3   OH232386   0.703   4.638   0.154 -0.0697 -0.6564 -0.1416
 3584TIP3    H132387   0.649   4.598   0.086  0.4434 -3.3219  0.9036
 3584TIP3    H232388   0.790   4.600   0.142  0.5548  0.4468  0.7152
 3585TIP3   OH232389   4.206   1.868   0.826  0.1619  0.7219 -0.1618
 3585TIP3    H132390   4.232   1.850   0.735  1.3040 -1.2368  0.4864
 3585TIP3    H232391   4.166   1.786   0.856  1.0735  0.8487  1.5264
 3586TIP3   OH232392   4.757   4.946   1.932 -0.3248 -0.0660  0.4777
 3586TIP3    H132393   4.803   4.863   1.918 -0.4783 -0.0725  0.0163
 3586TIP3    H232394   4.735   4.977   1.845  0.3344  0.8064  0.6110
 3587TIP3   OH232395   2.322   6.556   7.507 -0.3663 -0.9512  0.1672
 3587TIP3    H132396   2.338   6.609   7.429  0.4723  1.7998  2.0161
 3587TIP3    H232397   2.405   6.561   7.556 -1.4797 -0.8571  2.1294
 3588TIP3   OH232398   6.418   1.544   2.338  0.0772  0.7458 -0.0076
 3588TIP3    H132399   6.433   1.624   2.288 -0.8691  1.7513  1.2506
 3588TIP3    H232400   6.331   1.515   2.311 -0.9194  1.8978  1.7437
 3589TIP3   OH232401   4.652   4.182   2.412 -0.5710  0.1464  0.2272
 3589TIP3    H132402   4.558   4.182   2.393 -0.8764 -1.4480  1.4716
 3589TIP3    H232403   4.678   4.274   2.404 -2.4504  0.7807  0.8129
 3590TIP3   OH232404   5.688   1.396   0.304 -0.0483 -0.1007 -0.0457
 3590TIP3    H132405   5.627   1.326   0.326  1.7159 -1.2633  1.4114
 3590TIP3    H232406   5.636   1.458   0.254 -1.8649 -2.0952 -0.7895
 3591TIP3   OH232407   3.398   1.934   7.090 -0.7081 -0.0332 -0.8944
 3591TIP3    H132408   3.485   1.967   7.069 -0.1109 -2.0109 -1.7607
 3591TIP3    H232409   3.345   2.012   7.103  1.3916  1.2592  0.6309
 3592TIP3   OH232410   6.692   3.442   1.558  0.3778  0.4532 -0.0347
 3592TIP3    H132411   6.648   3.419   1.640 -1.5670 -1.3625 -1.4701
 3592TIP3    H232412   6.671   3.534   1.544  0.9097  0.8601  1.5357
 3593TIP3   OH232413   3.128   2.686   1.224  0.2035 -0.4744 -0.7653
 3593TIP3    H132414   3.164   2.704   1.311 -1.8921 -0.0799  0.0551
 3593TIP3    H232415   3.206   2.677   1.168  1.5689  0.6562  0.8472
 3594TIP3   OH232416   6.476   0.153   8.369  0.7804 -0.7938 -0.0729
 3594TIP3    H132417   6.463   0.100   8.290  0.0301  1.0703 -1.2604
 3594TIP3    H232418   6.553   0.207   8.349  2.1546 -2.0436  1.5144
 3595TIP3   OH232419   3.647   2.974   0.898  0.0217  0.1441  0.0178
 3595TIP3    H132420   3.555   2.974   0.870 -0.0066  0.0688  0.1100
 3595TIP3    H232421   3.645   2.938   0.987 -0.1501  2.3639  0.9754
 3596TIP3   OH232422   0.795   6.565   7.509 -0.2587 -0.0245  0.0909
 3596TIP3    H132423   0.813   6.574   7.415 -0.1066 -1.9475 -0.1117
 3596TIP3    H232424   0.705   6.532   7.512 -0.7190  1.2227  0.7077
 3597TIP3   OH232425   4.163   4.047   1.174  0.0780 -0.5334 -0.2248
 3597TIP3    H132426   4.168   4.074   1.083 -3.5605 -0.1568 -0.4800
 3597TIP3    H232427   4.080   4.085   1.206  1.6494  0.2342  3.5579
 3598TIP3   OH232428   5.642   2.391   2.308  0.1566 -0.6681  0.1065
 3598TIP3    H132429   5.726   2.412   2.350  0.4759 -0.3333 -0.6880
 3598TIP3    H232430   5.657   2.308   2.264  0.2443 -0.3366 -0.4993
 3599TIP3   OH232431   1.429   2.985   0.512  0.0876 -0.2602 -0.3712
 3599TIP3    H132432   1.429   3.046   0.438  0.1995 -1.2783 -1.2377
 3599TIP3    H232433   1.454   2.900   0.474 -0.8793 -1.0370  0.6374
 3600TIP3   OH232434   0.806   0.553   1.383 -0.2797 -0.4372 -0.6524
 3600TIP3    H132435   0.887   0.604   1.386  0.2061 -1.1009 -1.9277
 3600TIP3    H232436   0.833   0.462   1.395 -0.8829 -0.6341 -0.7234
 3601TIP3   OH232437   0.981   2.386   7.808  0.0672 -0.1318  0.5750
 3601TIP3    H132438   0.991   2.397   7.714 -1.9114 -1.5459  0.1310
 3601TIP3    H232439   1.068   2.360   7.839  1.0982  1.7732 -0.5859
 3602TIP3   OH232440   6.865   5.749   7.528 -0.3154  0.2659  0.0384
 3602TIP3    H132441   6.866   5.680   7.461 -0.9125  1.6755 -1.4803
 3602TIP3    H232442   6.892   5.704   7.609 -0.7923 -1.7582 -0.8665
 3603TIP3   OH232443   6.348   5.908   2.694 -0.1514  0.2171  0.2642
 3603TIP3    H132444   6.300   5.849   2.635  1.1137  1.0849 -1.7450
 3603TIP3    H232445   6.389   5.850   2.758 -1.4592 -0.7751  0.2581
 3604TIP3   OH232446   1.134   5.829   2.796  0.0564 -0.3245  0.6529
 3604TIP3    H132447   1.215   5.806   2.841  0.3943  0.4370  0.4474
 3604TIP3    H232448   1.098   5.745   2.769 -0.1680 -0.8082  2.3344
 3605TIP3   OH232449   6.170   3.696   0.387  0.4274  0.6735 -0.2077
 3605TIP3    H132450   6.082   3.735   0.388  0.1149  0.1800 -2.6721
 3605TIP3    H232451   6.221   3.754   0.330  0.3415 -1.5663 -2.7464
 3606TIP3   OH232452   4.597   3.036   7.896  0.1128  0.2901  0.4881
 3606TIP3    H132453   4.664   3.082   7.846  1.1744 -1.4569  0.2082
 3606TIP3    H232454   4.646   2.988   7.963 -0.8885 -0.6888  0.5463
 3607TIP3   OH232455   2.310   4.369   2.169 -0.6543  0.4047 -0.4039
 3607TIP3    H132456   2.286   4.452   2.209  1.0057  1.3256 -1.2397
 3607TIP3    H232457   2.399   4.352   2.199  0.4671  0.8613 -3.1593
 3608TIP3   OH232458   6.521   5.846   2.366  0.2537  0.4606 -0.0927
 3608TIP3    H132459   6.565   5.837   2.450  1.3233 -1.3152 -0.7755
 3608TIP3    H232460   6.472   5.928   2.372  1.4258  1.0715  1.7278
 3609TIP3   OH232461   1.512   1.442   0.559 -0.0823  0.1183  0.1265
 3609TIP3    H132462   1.475   1.520   0.517  0.8758 -0.1754 -1.3361
 3609TIP3    H232463   1.436   1.398   0.598 -1.1432  0.1380 -1.7871
 3610TIP3   OH232464   0.395   4.748   2.292  0.3576 -0.3552 -0.1745
 3610TIP3    H132465   0.313   4.779   2.332 -0.3968 -0.4323 -1.6095
 3610TIP3    H232466   0.440   4.827   2.264  0.6088 -0.3330  0.2837
 3611TIP3   OH232467   3.705   1.432   1.311 -0.2329 -0.3868 -0.4585
 3611TIP3    H132468   3.771   1.494   1.281 -0.6218  0.2885  0.0305
 3611TIP3    H232469   3.659   1.405   1.232 -0.1836  0.1068 -0.6575
 3612TIP3   OH232470   3.272   6.075   0.241 -0.8479 -0.0074  0.4719
 3612TIP3    H132471   3.180   6.062   0.217 -1.2802  1.6119  1.1409
 3612TIP3    H232472   3.304   5.987   0.261 -2.4947 -0.5094  1.0873
 3613TIP3   OH232473   0.678   5.912   6.877  0.1351  0.1846  0.3777
 3613TIP3    H132474   0.692   6.004   6.854  1.6951 -0.1815 -0.2343
 3613TIP3    H232475   0.582   5.903   6.881 -0.0503  1.8075  0.4211
 3614TIP3   OH232476   5.165   0.660   1.911  0.1730  0.2431 -0.4233
 3614TIP3    H132477   5.237   0.711   1.949 -0.7828  1.1839  0.2007
 3614TIP3    H232478   5.176   0.572   1.949 -0.9571  1.2282  2.4885
 3615TIP3   OH232479   0.510   2.205   0.914 -0.4955  0.4603  0.1803
 3615TIP3    H132480   0.553   2.221   0.830  0.8557  0.7802  0.9015
 3615TIP3    H232481   0.503   2.109   0.919  0.7640  0.3655  0.3408
 3616TIP3   OH232482   6.114   4.006   0.676  0.4830 -0.3662 -0.6248
 3616TIP3    H132483   6.044   4.038   0.732  0.2628  1.1141 -1.6937
 3616TIP3    H232484   6.071   3.978   0.596  0.6767 -3.4219  0.2084
 3617TIP3   OH232485   6.373   0.595   7.756 -0.0047  0.0519 -0.3361
 3617TIP3    H132486   6.360   0.558   7.668 -1.5466 -0.3939  0.0500
 3617TIP3    H232487   6.363   0.689   7.743 -1.0155 -0.0746 -0.5210
 3618TIP3   OH232488   3.008   0.078   7.778  0.2224  0.1920 -0.4412
 3618TIP3    H132489   3.082   0.084   7.718  0.4658  1.5288 -0.0377
 3618TIP3    H232490   3.020   0.151   7.839 -1.2538  0.2508 -0.1707
 3619TIP3   OH232491   2.994   1.112   8.419  0.2785 -0.6369 -0.2663
 3619TIP3    H132492   2.987   1.168   8.496  0.9566 -0.4022 -0.3672
 3619TIP3    H232493   3.081   1.074   8.425  0.1788 -0.9381 -0.7005
 3620TIP3   OH232494   2.351   2.019   1.259  0.6556  0.3349  0.0439
 3620TIP3    H132495   2.374   1.939   1.306 -0.1462 -0.4364 -0.8365
 3620TIP3    H232496   2.392   2.010   1.173  0.5623  0.8717 -0.0601
 3621TIP3   OH232497   0.124   0.781   1.952 -0.1590  0.3422  0.1371
 3621TIP3    H132498   0.051   0.835   1.983  1.2152  3.5417 -1.7174
 3621TIP3    H232499   0.098   0.755   1.863  0.0020 -0.5054  0.3330
 3622TIP3   OH232500   4.716   4.451   8.237 -0.4718 -0.1531 -0.3734
 3622TIP3    H132501   4.723   4.377   8.298  2.2471 -0.1170 -0.5281
 3622TIP3    H232502   4.726   4.529   8.293 -0.7065  0.0020 -0.5434
 3623TIP3   OH232503   2.659   3.489   7.390 -0.0790 -0.2171 -0.0914
 3623TIP3    H132504   2.633   3.401   7.365  0.1676 -0.2896 -0.1030
 3623TIP3    H232505   2.752   3.481   7.414  0.2681  0.2563 -1.2102
 3624TIP3   OH232506   5.516   3.247   0.062 -0.4657  0.4768  0.7729
 3624TIP3    H132507   5.443   3.205   0.108 -0.7361 -0.1421 -0.1881
 3624TIP3    H232508   5.549   3.312   0.123 -0.3631 -0.7965  2.1188
 3625TIP3   OH232509   2.907   1.605   2.724  0.4650  0.3081  0.6189
 3625TIP3    H132510   2.958   1.672   2.770  0.7038  1.1121 -0.7464
 3625TIP3    H232511   2.941   1.522   2.756  0.1925  0.8068  2.3309
 3626TIP3   OH232512   5.274   5.665   1.320  0.6771 -0.6146 -0.4367
 3626TIP3    H132513   5.274   5.571   1.301 -2.1374 -1.3652  2.3423
 3626TIP3    H232514   5.358   5.682   1.362 -0.2616 -2.9530  2.7451
 3627TIP3   OH232515   1.330   6.790   1.393 -0.2702  0.1433  0.0863
 3627TIP3    H132516   1.247   6.826   1.424 -0.9442 -1.1981 -0.0940
 3627TIP3    H232517   1.342   6.711   1.445 -0.1781 -0.8078 -1.3416
 3628TIP3   OH232518   4.898   5.287   3.070  0.0089  0.6319 -0.0195
 3628TIP3    H132519   4.907   5.296   2.975 -2.0563 -0.6644 -0.4058
 3628TIP3    H232520   4.950   5.210   3.092 -1.2418 -0.3951 -0.5039
 3629TIP3   OH232521   4.630   6.957   1.152  0.3438 -0.4453  0.0799
 3629TIP3    H132522   4.539   6.940   1.175  0.4314  0.2775  0.9876
 3629TIP3    H232523   4.626   6.995   1.064 -0.3100  0.4483  0.4811
 3630TIP3   OH232524   6.588   0.300   7.377 -0.2309 -0.2944 -0.1858
 3630TIP3    H132525   6.658   0.239   7.353 -0.6681 -1.1405  0.6357
 3630TIP3    H232526   6.615   0.336   7.461 -0.7211 -0.5255  0.0723
 3631TIP3   OH232527   6.967   6.722   8.304  0.3723 -0.7326  0.2340
 3631TIP3    H132528   6.915   6.658   8.354  2.7461 -1.4011  2.0406
 3631TIP3    H232529   7.048   6.676   8.284  0.9133  0.7471 -1.1768
 3632TIP3   OH232530   5.671   2.784   2.132 -0.1602 -0.2069  0.4200
 3632TIP3    H132531   5.647   2.777   2.040 -0.3344  0.5841  0.3980
 3632TIP3    H232532   5.766   2.777   2.133 -0.2648 -2.5266  0.4260
 3633TIP3   OH232533   0.666   4.512   7.768 -0.1007  0.2872  0.0711
 3633TIP3    H132534   0.582   4.553   7.787  0.3351  2.2921 -1.9402
 3633TIP3    H232535   0.731   4.570   7.807  0.4243 -0.3786  0.2105
 3634TIP3   OH232536   5.772   1.735   7.604 -0.5158  0.1846  0.4886
 3634TIP3    H132537   5.723   1.654   7.618 -1.5795  0.4619 -1.3734
 3634TIP3    H232538   5.837   1.736   7.674 -1.8685 -1.1963  1.8410
 3635TIP3   OH232539   4.119   4.307   0.008  0.2794 -0.1239  0.3997
 3635TIP3    H132540   4.122   4.402   0.015 -1.0363 -0.1329  1.3469
 3635TIP3    H232541   4.111   4.276   0.098  1.0170 -1.1550  0.1324
 3636TIP3   OH232542   5.000   4.242   1.656 -0.1691  0.1375  0.2223
 3636TIP3    H132543   4.976   4.181   1.727 -2.0225  0.5837  0.0345
 3636TIP3    H232544   5.089   4.269   1.677 -0.0056 -1.1616  1.3671
 3637TIP3   OH232545   2.511   3.344   2.591  0.4070 -0.4197  0.3154
 3637TIP3    H132546   2.585   3.285   2.604 -1.2384 -3.6686 -3.2097
 3637TIP3    H232547   2.445   3.315   2.654 -0.1751 -2.1771 -1.0045
 3638TIP3   OH232548   1.674   5.785   0.406  0.6419 -0.4244  0.4144
 3638TIP3    H132549   1.620   5.706   0.396  0.0775 -0.1393  1.0977
 3638TIP3    H232550   1.707   5.803   0.318  0.1315 -0.9739  0.1030
 3639TIP3   OH232551   3.142   4.235   7.554 -0.5845 -0.3205 -0.0968
 3639TIP3    H132552   3.163   4.175   7.482 -0.1337 -0.4584  0.1494
 3639TIP3    H232553   3.103   4.179   7.621  2.0323 -0.8028  1.1411
 3640TIP3   OH232554   4.784   5.514   3.004 -0.1978  0.1792 -0.1203
 3640TIP3    H132555   4.805   5.431   3.047 -2.8279 -0.3852  0.3000
 3640TIP3    H232556   4.804   5.580   3.070 -0.7626 -0.3960  0.6576
 3641TIP3   OH232557   6.102   0.613   1.790  0.0762 -0.7793  0.0612
 3641TIP3    H132558   6.024   0.669   1.795  0.5330 -0.1695  0.5733
 3641TIP3    H232559   6.172   0.667   1.827  0.6246 -1.5353  0.1422
 3642TIP3   OH232560   3.000   4.200   0.059  0.5444  0.0663 -0.0803
 3642TIP3    H132561   2.908   4.216   0.037  0.3259 -0.5751  0.3194
 3642TIP3    H232562   3.015   4.251   0.139 -0.1047 -1.5019  1.1024
 3643TIP3   OH232563   4.791   1.471   1.494 -0.4411  0.2438  0.1028
 3643TIP3    H132564   4.785   1.409   1.422  1.3187  0.6248 -0.4343
 3643TIP3    H232565   4.738   1.546   1.466 -1.8068 -0.6027  0.3479
 3644TIP3   OH232566   3.576   4.561   7.719 -0.8654  0.3332  0.6337
 3644TIP3    H132567   3.584   4.477   7.674 -2.4584  0.0666  0.7984
 3644TIP3    H232568   3.564   4.537   7.811 -0.6546  0.7815  0.7803
 3645TIP3   OH232569   0.265   1.236   0.907  0.1122  0.1603  0.0260
 3645TIP3    H132570   0.224   1.181   0.840  0.7257 -1.0577  0.6135
 3645TIP3    H232571   0.237   1.197   0.990 -0.1651  1.2971  0.4880
 3646TIP3   OH232572   0.314   6.299   2.398  0.0531 -0.1476  0.2247
 3646TIP3    H132573   0.401   6.266   2.420  0.8188  1.6584  0.1373
 3646TIP3    H232574   0.255   6.227   2.418  1.6941 -2.0121 -1.1894
 3647TIP3   OH232575   4.609   1.407   7.184 -0.3260 -0.6155 -0.6864
 3647TIP3    H132576   4.686   1.461   7.170 -1.0924  0.3374 -1.4464
 3647TIP3    H232577   4.544   1.442   7.122 -1.5458 -1.0113  0.3141
 3648TIP3   OH232578   2.416   6.854   1.521  0.5035 -0.1146  0.0235
 3648TIP3    H132579   2.331   6.888   1.551  0.9258  2.3306 -1.2364
 3648TIP3    H232580   2.477   6.926   1.539  1.8993 -1.0048 -0.9902
 3649TIP3   OH232581   2.191   6.474   0.960 -0.0220 -0.1645 -0.4099
 3649TIP3    H132582   2.205   6.509   0.873  1.0837 -1.5767 -0.8447
 3649TIP3    H232583   2.278   6.473   1.000 -0.3577 -0.4324  0.3444
 3650TIP3   OH232584   1.990   3.923   1.093 -0.2017  0.6345 -0.5223
 3650TIP3    H132585   1.963   3.991   1.032  1.5504  0.8391 -1.1475
 3650TIP3    H232586   1.928   3.852   1.079 -2.4291  2.2757  0.5656
 3651TIP3   OH232587   2.986   5.379   2.226  0.4282  0.2603  0.0789
 3651TIP3    H132588   2.966   5.352   2.316  1.8450  1.7412  0.8919
 3651TIP3    H232589   3.028   5.464   2.236 -0.7505  1.1800 -2.1099
 3652TIP3   OH232590   0.271   4.516   2.254  0.0110  0.3962  0.3503
 3652TIP3    H132591   0.337   4.586   2.247 -0.9107  1.2629  0.0786
 3652TIP3    H232592   0.239   4.505   2.164  1.6180 -1.8946 -0.0390
 3653TIP3   OH232593   4.219   2.816   1.113  0.2474  0.1001 -0.5517
 3653TIP3    H132594   4.272   2.895   1.099  0.4970 -0.0107 -0.2509
 3653TIP3    H232595   4.129   2.848   1.114  0.3115  0.3054 -0.9768
 3654TIP3   OH232596   6.740   0.266   0.352  0.0489  0.5865 -0.3284
 3654TIP3    H132597   6.770   0.278   0.262  0.1946  0.9370 -0.2352
 3654TIP3    H232598   6.648   0.241   0.344  0.1978  0.1155 -0.5921
 3655TIP3   OH232599   3.789   5.433   0.808  0.0135  0.4341  0.1640
 3655TIP3    H132600   3.832   5.433   0.722  1.7219 -1.2077  0.9262
 3655TIP3    H232601   3.813   5.517   0.847  0.7002  0.4711 -0.3124
 3656TIP3   OH232602   1.823   4.208   0.232  0.1141  0.3741 -0.3475
 3656TIP3    H132603   1.820   4.148   0.158  1.1335 -1.0158  0.6791
 3656TIP3    H232604   1.896   4.266   0.213 -0.0285  0.4299 -0.7273
 3657TIP3   OH232605   1.100   5.397   0.179  0.0018 -0.1603 -0.1323
 3657TIP3    H132606   1.055   5.428   0.100  1.5906 -1.5161 -1.6651
 3657TIP3    H232607   1.057   5.443   0.251 -0.9057  1.8485 -1.8454
 3658TIP3   OH232608   0.492   3.650   1.189 -0.0757 -0.4836  0.1083
 3658TIP3    H132609   0.476   3.734   1.231  2.3360 -0.6934  1.6449
 3658TIP3    H232610   0.557   3.670   1.121 -0.3609 -0.9364 -0.3037
 3659TIP3   OH232611   6.674   5.786   2.137 -0.7812 -0.4834 -0.2743
 3659TIP3    H132612   6.648   5.694   2.133 -0.3954 -0.8697  3.0800
 3659TIP3    H232613   6.626   5.821   2.211  2.0775  0.8997  1.0814
 3660TIP3   OH232614   3.914   0.748   0.607  0.2376 -0.1223  0.0637
 3660TIP3    H132615   3.896   0.803   0.684 -2.9671 -1.4443  0.4406
 3660TIP3    H232616   3.917   0.659   0.642  3.2468 -0.4759 -0.8269
 3661TIP3   OH232617   0.393   4.817   8.415  0.1379 -0.1861 -0.2755
 3661TIP3    H132618   0.355   4.899   8.383  1.7327  1.1818  1.1378
 3661TIP3    H232619   0.349   4.749   8.364 -2.1281  1.4408 -0.6565
 3662TIP3   OH232620   3.620   4.059   1.872 -0.2462  0.6029  0.0134
 3662TIP3    H132621   3.656   4.139   1.833  0.2671  1.3811  1.9738
 3662TIP3    H232622   3.536   4.048   1.829 -0.4916  2.4217 -0.0663
 3663TIP3   OH232623   3.786   5.556   2.070 -0.4113  0.2833 -0.3409
 3663TIP3    H132624   3.789   5.634   2.015 -0.9321 -0.2453 -1.1318
 3663TIP3    H232625   3.695   5.526   2.065 -0.1131 -0.6349 -0.4237
 3664TIP3   OH232626   5.962   3.831   2.344 -0.7928  0.2200 -0.1110
 3664TIP3    H132627   5.948   3.919   2.381  2.4908  0.9210 -0.2177
 3664TIP3    H232628   5.985   3.777   2.420  0.9414  0.4277 -0.4542
 3665TIP3   OH232629   3.688   6.610   7.992  0.2233  0.3951  0.0827
 3665TIP3    H132630   3.632   6.613   8.069  2.2362  0.7287  1.6353
 3665TIP3    H232631   3.752   6.680   8.007  0.9860  0.1037 -1.6378
 3666TIP3   OH232632   4.872   5.378   7.490 -0.3983  0.3628  0.6423
 3666TIP3    H132633   4.908   5.395   7.403  1.0240 -0.1141  1.1128
 3666TIP3    H232634   4.838   5.289   7.485  1.5574 -0.4608  1.1244
 3667TIP3   OH232635   5.822   2.720   1.149  0.0531  0.1692  0.0540
 3667TIP3    H132636   5.912   2.688   1.154  0.4204  1.2651  0.9175
 3667TIP3    H232637   5.769   2.641   1.141  0.9723 -0.6327  1.3929
 3668TIP3   OH232638   0.046   5.770   7.075 -0.0089 -0.2199 -0.3656
 3668TIP3    H132639   0.043   5.677   7.100  0.2230 -0.3298 -0.7448
 3668TIP3    H232640   0.122   5.804   7.122 -2.1913  0.6850  2.8186
 3669TIP3   OH232641   6.260   5.433   2.853 -0.5199 -0.2448 -0.0082
 3669TIP3    H132642   6.235   5.365   2.915 -0.5522 -0.3918 -0.1825
 3669TIP3    H232643   6.249   5.393   2.767  0.1647 -0.2597 -0.0931
 3670TIP3   OH232644   2.593   1.234   7.678 -0.1090  0.1410  0.0382
 3670TIP3    H132645   2.515   1.210   7.727 -0.0540 -0.0458  0.0345
 3670TIP3    H232646   2.594   1.176   7.602 -0.2916  0.5530 -0.2842
 3671TIP3   OH232647   1.231   4.062   1.546  0.3126  0.1586  0.6658
 3671TIP3    H132648   1.285   4.126   1.500  0.8225  0.4690  1.6776
 3671TIP3    H232649   1.227   3.987   1.486 -0.3511  1.1289 -0.5635
 3672TIP3   OH232650   4.128   6.710   7.813  0.1417  0.2121  0.8438
 3672TIP3    H132651   4.218   6.694   7.841  0.3104  1.0139  0.7625
 3672TIP3    H232652   4.128   6.693   7.719 -0.2724 -1.8132  1.1521
 3673TIP3   OH232653   0.522   3.907   2.417 -0.1923 -0.3717 -0.0251
 3673TIP3    H132654   0.594   3.922   2.478 -0.5543 -0.9367  0.5571
 3673TIP3    H232655   0.458   3.976   2.436  0.4780  0.5503 -1.0115
 3674TIP3   OH232656   6.890   4.936   1.460  0.5417  0.4681  0.5094
 3674TIP3    H132657   6.945   4.971   1.530 -2.1016  1.2193  2.3839
 3674TIP3    H232658   6.858   5.013   1.414  0.2327  0.1027  0.1031
 3675TIP3   OH232659   3.371   2.428   3.245 -0.5193 -1.2214 -0.4098
 3675TIP3    H132660   3.457   2.463   3.266 -0.1185 -1.3580 -1.7400
 3675TIP3    H232661   3.324   2.502   3.205 -1.7133 -0.5974  1.9540
 3676TIP3   OH232662   1.028   5.578   1.879 -0.5529 -0.1400  0.4074
 3676TIP3    H132663   1.074   5.506   1.836 -0.2610 -2.1917  3.7888
 3676TIP3    H232664   1.086   5.653   1.867 -0.2597 -0.6558 -2.1729
 3677TIP3   OH232665   2.796   4.987   1.028  0.1244  0.0854  0.2031
 3677TIP3    H132666   2.761   4.899   1.038 -1.7215  0.4706 -1.9630
 3677TIP3    H232667   2.836   4.988   0.940  0.1615  1.3712  0.2112
 3678TIP3   OH232668   3.094   5.582   7.869 -0.5660 -0.0941  0.0017
 3678TIP3    H132669   3.060   5.667   7.843 -3.0329 -1.3296 -1.1654
 3678TIP3    H232670   3.188   5.587   7.849 -0.5557  2.4427  0.3667
 3679TIP3   OH232671   2.187   3.544   7.679 -0.1557  0.1616 -0.2535
 3679TIP3    H132672   2.182   3.513   7.769  0.0807 -1.0876 -0.6618
 3679TIP3    H232673   2.128   3.620   7.677  0.6069  0.8246  1.1901
 3680TIP3   OH232674   5.308   1.562   8.445  0.2186  0.2709 -0.1181
 3680TIP3    H132675   5.268   1.641   8.480  0.1608  0.3652 -0.3923
 3680TIP3    H232676   5.239   1.496   8.448  0.3424  0.1609  0.3483
 3681TIP3   OH232677   6.599   5.017   8.143  0.9485  0.6109 -0.0960
 3681TIP3    H132678   6.528   5.016   8.207  0.9066  0.8243 -0.1406
 3681TIP3    H232679   6.554   5.014   8.058  1.0066  0.2020 -0.1140
 3682TIP3   OH232680   6.729   6.161   8.016  0.0435  0.9384  0.0941
 3682TIP3    H132681   6.811   6.116   8.038  0.1948  0.3551 -1.5370
 3682TIP3    H232682   6.669   6.091   7.992 -0.4826  1.4631 -0.1391
 3683TIP3   OH232683   3.878   4.045   7.422  0.5607  0.4969  0.3951
 3683TIP3    H132684   3.969   4.062   7.446  0.5735  1.7040 -0.4143
 3683TIP3    H232685   3.839   4.132   7.413 -0.6175  0.0009  0.5023
 3684TIP3   OH232686   3.435   4.108   2.085 -0.0687 -0.3147  0.2078
 3684TIP3    H132687   3.501   4.150   2.031  0.5483  0.1033  1.2570
 3684TIP3    H232688   3.352   4.145   2.055  0.3356  0.5157  0.0929
 3685TIP3   OH232689   4.775   0.718   0.550  0.3108  0.2059  0.3393
 3685TIP3    H132690   4.680   0.728   0.543  0.1300 -1.5623 -0.2690
 3685TIP3    H232691   4.788   0.624   0.564  1.9380  0.5485  1.3230
 3686TIP3   OH232692   4.513   4.019   7.210 -0.1668  0.1806  0.2866
 3686TIP3    H132693   4.570   3.948   7.238 -0.1738 -0.0689 -0.3044
 3686TIP3    H232694   4.461   4.040   7.287  0.3879  0.0873  0.6946
 3687TIP3   OH232695   1.946   5.104   2.613  0.3193 -0.0320 -0.5307
 3687TIP3    H132696   1.892   5.172   2.571  0.3921 -0.9456 -2.1742
 3687TIP3    H232697   1.885   5.058   2.671  0.0932  0.9160  0.0195
 3688TIP3   OH232698   6.501   3.025   0.800  0.2371  0.1600 -0.5497
 3688TIP3    H132699   6.432   3.022   0.866 -1.1586 -0.5166 -1.9806
 3688TIP3    H232700   6.517   3.118   0.786 -1.8507  0.4074 -1.6150
 3689TIP3   OH232701   0.852   5.832   0.127  0.0672 -0.4698 -0.3240
 3689TIP3    H132702   0.864   5.881   0.208  2.5999  0.0821 -0.9453
 3689TIP3    H232703   0.782   5.878   0.081 -2.4769 -1.6449  2.0655
 3690TIP3   OH232704   5.479   5.052   2.414 -0.1759  0.8195 -0.2262
 3690TIP3    H132705   5.403   4.996   2.397 -1.1462  2.0196  0.0363
 3690TIP3    H232706   5.518   5.016   2.494  1.0595 -1.3336 -1.6656
 3691TIP3   OH232707   0.975   6.026   1.596  0.3704  0.5794 -0.0207
 3691TIP3    H132708   0.939   5.955   1.543 -1.8846  0.5891  1.3594
 3691TIP3    H232709   1.013   6.087   1.532 -0.2651 -0.4601 -1.4441
 3692TIP3   OH232710   0.853   1.769   0.711  0.2702 -0.1994  0.8429
 3692TIP3    H132711   0.942   1.761   0.744  0.4611  1.0372  0.6614
 3692TIP3    H232712   0.863   1.794   0.619 -0.2592 -0.0659  0.8165
 3693TIP3   OH232713   4.532   2.217   0.425 -0.4022 -0.0661 -0.3618
 3693TIP3    H132714   4.484   2.284   0.473  0.4185  0.0383  0.3324
 3693TIP3    H232715   4.590   2.267   0.367 -2.5988 -0.1543 -2.8214
 3694TIP3   OH232716   6.115   2.256   2.338 -0.3934 -0.0767  0.0538
 3694TIP3    H132717   6.123   2.235   2.431 -0.2058  1.8166  0.5002
 3694TIP3    H232718   6.051   2.193   2.304 -0.6710 -0.6127  1.5300
 3695TIP3   OH232719   5.605   4.196   0.670 -0.0253 -0.2980 -0.3854
 3695TIP3    H132720   5.512   4.213   0.655 -0.5989 -1.4102  1.5319
 3695TIP3    H232721   5.644   4.282   0.680 -1.0193  0.1711 -0.3989
 3696TIP3   OH232722   0.190   3.812   0.251 -0.3144  0.0641  0.1329
 3696TIP3    H132723   0.264   3.808   0.311  0.4959 -0.1062 -0.8458
 3696TIP3    H232724   0.228   3.793   0.165 -1.4486  0.2437 -0.4265
 3697TIP3   OH232725   6.988   5.734   0.605  0.6728  0.0136  0.7593
 3697TIP3    H132726   7.060   5.796   0.595  0.4127  0.2729  0.4851
 3697TIP3    H232727   6.996   5.675   0.530  1.4370 -0.8289  1.4696
 3698TIP3   OH232728   3.625   3.258   3.027  0.4468 -0.2231  0.0414
 3698TIP3    H132729   3.590   3.169   3.027  1.3073 -0.6041 -1.1949
 3698TIP3    H232730   3.694   3.257   3.094 -0.4259 -0.0863  0.9618
 3699TIP3   OH232731   2.410   2.049   8.366  0.0386 -0.5576 -0.3543
 3699TIP3    H132732   2.330   2.001   8.344  0.7491 -1.4973 -0.9781
 3699TIP3    H232733   2.392   2.087   8.452  0.4552 -4.4544  1.7012
 3700TIP3   OH232734   1.016   5.059   7.461  0.1223  0.1338 -0.7125
 3700TIP3    H132735   1.071   5.136   7.478  0.5408 -0.3914  0.4046
 3700TIP3    H232736   1.051   5.023   7.379 -0.3141  1.3268 -1.4359
 3701TIP3   OH232737   5.758   5.386   2.247 -0.6615  0.4096 -0.0290
 3701TIP3    H132738   5.684   5.446   2.239  0.4501  1.7295 -0.6673
 3701TIP3    H232739   5.831   5.432   2.208  0.2652 -1.3450 -0.4733
 3702TIP3   OH232740   1.165   2.638   8.077  0.0047 -0.1967 -0.1337
 3702TIP3    H132741   1.087   2.583   8.076 -1.9976  2.4044 -2.4705
 3702TIP3    H232742   1.148   2.703   8.145 -0.2150  0.7081 -1.0174
 3703TIP3   OH232743   2.119   2.926   1.756  0.2435  0.2341  0.3676
 3703TIP3    H132744   2.099   3.015   1.785  0.7663 -0.0552  1.6656
 3703TIP3    H232745   2.041   2.899   1.707 -2.1500 -0.3706  4.1338
 3704TIP3   OH232746   2.371   5.417   2.356 -0.1039 -0.1020  0.0028
 3704TIP3    H132747   2.350   5.504   2.389  5.6767  1.7000  0.0779
 3704TIP3    H232748   2.360   5.359   2.432 -0.0495  1.4134  1.2192
 3705TIP3   OH232749   2.270   2.566   0.120 -0.2095  0.2086  0.0211
 3705TIP3    H132750   2.344   2.510   0.142  0.8314  2.0118  1.3524
 3705TIP3    H232751   2.252   2.546   0.028  1.7223 -0.4841 -0.2557
 3706TIP3   OH232752   3.683   1.882   1.652  0.0597 -0.4879  0.4016
 3706TIP3    H132753   3.750   1.816   1.672  1.0333  0.0569 -0.9210
 3706TIP3    H232754   3.688   1.893   1.557 -0.7964  0.7435  0.4795
 3707TIP3   OH232755   2.260   3.038   8.306 -0.1099  0.2299  0.4782
 3707TIP3    H132756   2.331   2.975   8.317  0.7641  0.8244 -1.3406
 3707TIP3    H232757   2.183   2.984   8.287  0.2679 -0.3596  0.5986
 3708TIP3   OH232758   4.836   0.400   8.115  0.1046 -0.5908 -0.3390
 3708TIP3    H132759   4.924   0.409   8.079  0.4820 -0.6694  0.5474
 3708TIP3    H232760   4.848   0.403   8.210 -0.6962 -1.8574 -0.1699
 3709TIP3   OH232761   1.760   2.980   0.945  0.3974 -0.0220  0.1550
 3709TIP3    H132762   1.691   2.957   0.884 -1.3052  0.0677  1.9444
 3709TIP3    H232763   1.806   3.053   0.903 -0.1812 -0.4805 -1.3358
 3710TIP3   OH232764   0.320   4.396   0.152  0.0776 -0.1206 -0.1144
 3710TIP3    H132765   0.355   4.340   0.221  0.3325 -0.4601 -0.5073
 3710TIP3    H232766   0.396   4.418   0.098 -0.0836  0.3112 -0.1676
 3711TIP3   OH232767   4.910   3.858   0.231 -0.5125 -0.0288  0.3166
 3711TIP3    H132768   4.979   3.824   0.288  1.0485  0.8160 -0.9941
 3711TIP3    H232769   4.858   3.914   0.289 -0.9635 -1.7252  1.6433
 3712TIP3   OH232770   5.312   1.808   1.461  0.0240  0.7820 -0.5376
 3712TIP3    H132771   5.347   1.817   1.373  0.4397  1.1323 -0.3377
 3712TIP3    H232772   5.374   1.854   1.517 -0.7960  1.5252 -0.1951
 3713TIP3   OH232773   4.681   2.086   0.100 -0.7377  0.6974  0.6324
 3713TIP3    H132774   4.776   2.092   0.097 -0.6644 -0.5243 -0.0484
 3713TIP3    H232775   4.651   2.177   0.095  0.3576  1.0052 -1.0839
 3714TIP3   OH232776   0.944   3.019   1.961 -0.5399 -0.2514 -0.0296
 3714TIP3    H132777   0.939   3.109   1.993  1.0987  0.8249 -2.5264
 3714TIP3    H232778   1.037   3.006   1.940 -0.8472 -2.3137 -0.2997
 3715TIP3   OH232779   5.093   6.540   7.005  0.1270 -0.0893 -0.0075
 3715TIP3    H132780   5.126   6.573   7.089  0.1543  0.3378 -0.1849
 3715TIP3    H232781   5.003   6.572   7.000  0.4677  0.8134 -0.6310
 3716TIP3   OH232782   6.873   5.938   1.757 -0.3971 -0.2737  0.3536
 3716TIP3    H132783   6.849   5.953   1.666  0.6248 -0.2708  0.0694
 3716TIP3    H232784   6.899   6.025   1.789  3.7639 -0.9176 -0.7566
 3717TIP3   OH232785   5.180   0.023   2.347 -0.1480 -0.2157 -0.4503
 3717TIP3    H132786   5.216   0.061   2.266  0.3594  0.0053 -0.1264
 3717TIP3    H232787   5.091   0.058   2.352 -0.3631 -0.6318 -1.1733
 3718TIP3   OH232788   3.232   1.727   1.318 -0.4822 -0.4724 -0.1730
 3718TIP3    H132789   3.158   1.778   1.286 -0.4016 -0.0633  0.2914
 3718TIP3    H232790   3.239   1.654   1.256 -1.4766 -0.7063 -0.0328
 3719TIP3   OH232791   1.790   0.638   2.074 -0.2923 -0.3596  0.2527
 3719TIP3    H132792   1.745   0.557   2.050 -1.9572  0.1011  1.6691
 3719TIP3    H232793   1.883   0.618   2.060 -0.7024 -2.3385  0.0545
 3720TIP3   OH232794   5.404   2.719   8.412  0.6362 -0.4404 -0.3548
 3720TIP3    H132795   5.352   2.768   8.349 -0.0783 -0.6887  0.0244
 3720TIP3    H232796   5.443   2.785   8.469  0.4403 -0.2640 -0.4265
 3721TIP3   OH232797   5.742   2.209   1.782  0.0414 -0.5384  0.1900
 3721TIP3    H132798   5.768   2.298   1.808 -1.0516 -0.1755  0.0920
 3721TIP3    H232799   5.686   2.179   1.853  1.6266 -1.7796  0.9777
 3722TIP3   OH232800   1.425   5.614   7.541 -0.2120  0.4333  0.5978
 3722TIP3    H132801   1.491   5.597   7.608 -1.8635 -1.6193  1.8513
 3722TIP3    H232802   1.469   5.598   7.458  1.0875  0.0302  1.3433
 3723TIP3   OH232803   5.162   1.866   0.500  0.1296  0.2997 -0.0555
 3723TIP3    H132804   5.083   1.889   0.549  0.2643  0.1348  0.2405
 3723TIP3    H232805   5.229   1.854   0.567  0.0969 -0.8402 -0.2044
 3724TIP3   OH232806   2.775   3.487   0.962  0.2277  0.2641  0.0374
 3724TIP3    H132807   2.856   3.468   1.009 -0.0375  0.9345  0.7797
 3724TIP3    H232808   2.797   3.476   0.870  0.8854 -0.5845  0.2841
 3725TIP3   OH232809   6.259   2.203   7.552  0.0683 -0.4248  0.4769
 3725TIP3    H132810   6.254   2.288   7.508 -3.0510  0.5726  2.4800
 3725TIP3    H232811   6.229   2.140   7.487 -1.4627  0.5983  0.1475
 3726TIP3   OH232812   2.663   5.527   7.667  0.2136  0.4466  0.8695
 3726TIP3    H132813   2.574   5.514   7.634  0.2765  0.9023  0.5053
 3726TIP3    H232814   2.719   5.514   7.591  0.5049 -0.4275  1.2263
 3727TIP3   OH232815   1.580   0.798   2.139  0.3523 -0.2464  0.0216
 3727TIP3    H132816   1.648   0.739   2.108 -0.3347 -0.7234 -0.6077
 3727TIP3    H232817   1.577   0.868   2.073  0.4885 -0.0261  0.2472
 3728TIP3   OH232818   5.600   0.158   0.439 -0.2515  0.4499 -0.1693
 3728TIP3    H132819   5.665   0.182   0.505  2.4739 -1.0012 -2.1314
 3728TIP3    H232820   5.524   0.213   0.459  1.4230  2.0346  2.4426
 3729TIP3   OH232821   5.089   2.905   2.919 -0.5594  0.0758 -0.0271
 3729TIP3    H132822   5.137   2.918   3.000 -1.4846  0.3346  0.4879
 3729TIP3    H232823   5.052   2.991   2.898 -2.0105 -0.4210  0.3777
 3730TIP3   OH232824   0.954   1.363   8.154  0.1804  0.5528  0.3785
 3730TIP3    H132825   0.966   1.336   8.245  0.4931 -0.8975 -0.0663
 3730TIP3    H232826   1.041   1.355   8.115  0.2019  1.8768  0.1146
 3731TIP3   OH232827   1.062   6.906   0.481 -0.0148  0.3250  0.6322
 3731TIP3    H132828   1.142   6.908   0.533  1.4000  0.5325 -1.4347
 3731TIP3    H232829   1.038   6.998   0.470  1.6882  0.5572 -1.8767
 3732TIP3   OH232830   6.162   6.678   1.622  0.1351  0.4939  0.8582
 3732TIP3    H132831   6.075   6.697   1.587 -0.0307 -1.6225 -0.0442
 3732TIP3    H232832   6.217   6.665   1.545  0.4320 -1.4195  1.3369
 3733TIP3   OH232833   6.025   6.129   0.711 -0.3542 -0.6739 -0.0372
 3733TIP3    H132834   6.002   6.049   0.759  0.3741 -1.6737 -1.2887
 3733TIP3    H232835   6.120   6.138   0.722 -0.5294  0.4915  0.7487
 3734TIP3   OH232836   5.016   3.439   0.103 -0.0475 -0.0553 -0.1355
 3734TIP3    H132837   5.034   3.532   0.089  0.1266 -0.1756 -0.7465
 3734TIP3    H232838   4.965   3.412   0.027 -1.7380 -0.0391  0.9228
 3735TIP3   OH232839   1.271   3.551   2.620 -0.1798 -0.3053  0.0409
 3735TIP3    H132840   1.332   3.570   2.691  0.0322  1.7039 -0.6297
 3735TIP3    H232841   1.194   3.513   2.664  0.6659 -0.8241  1.1153
 3736TIP3   OH232842   6.901   2.387   2.760 -0.2142  0.0667  0.5232
 3736TIP3    H132843   6.840   2.374   2.832 -0.4857 -1.6869  0.0228
 3736TIP3    H232844   6.972   2.325   2.778  0.5601  0.8239  0.1591
 3737TIP3   OH232845   4.362   4.251   1.224  0.0247 -0.1649  0.5270
 3737TIP3    H132846   4.304   4.328   1.223 -0.0197 -0.1774  1.2841
 3737TIP3    H232847   4.353   4.213   1.137  1.9064  2.0561 -0.7472
 3738TIP3   OH232848   1.220   0.364   7.369  0.2836 -0.0060 -0.6111
 3738TIP3    H132849   1.310   0.372   7.400  0.1898  1.9085 -0.7190
 3738TIP3    H232850   1.207   0.270   7.357  2.0085 -0.3754  0.1381
 3739TIP3   OH232851   5.725   5.640   1.731  0.9779  0.5239  0.0977
 3739TIP3    H132852   5.728   5.712   1.667  1.4582  0.1252 -0.3356
 3739TIP3    H232853   5.816   5.621   1.750  1.0843 -2.1246 -2.2661
 3740TIP3   OH232854   3.510   2.351   6.719 -0.7347 -0.3461 -0.3706
 3740TIP3    H132855   3.483   2.443   6.714 -1.4290 -0.4117  1.2951
 3740TIP3    H232856   3.431   2.302   6.694  0.1221 -0.5354 -2.9787
 3741TIP3   OH232857   0.840   6.158   0.624  0.1845 -0.5692 -0.0696
 3741TIP3    H132858   0.870   6.245   0.598 -0.7245 -0.3375 -0.3903
 3741TIP3    H232859   0.909   6.098   0.596  0.0108 -0.1385 -1.4797
 3742TIP3   OH232860   4.838   1.635   0.806 -0.4743  0.2658 -0.4709
 3742TIP3    H132861   4.849   1.543   0.781 -0.0200  0.4280 -0.8849
 3742TIP3    H232862   4.744   1.643   0.824 -0.4602 -0.3601 -0.0883
 3743TIP3   OH232863   4.156   4.777   7.962 -0.4528 -0.6212 -0.5432
 3743TIP3    H132864   4.063   4.800   7.963 -0.3473 -0.1516 -0.9829
 3743TIP3    H232865   4.180   4.769   8.054 -0.6384  0.4572 -0.3882
 3744TIP3   OH232866   5.163   2.448   7.688 -0.4999  0.1084  0.1746
 3744TIP3    H132867   5.131   2.480   7.604  0.6098 -0.5927 -0.5440
 3744TIP3    H232868   5.106   2.373   7.709 -0.8218  0.3277  0.0887
 3745TIP3   OH232869   4.942   2.105   8.203  0.5015  0.1254  0.1516
 3745TIP3    H132870   4.864   2.055   8.175  0.5961  0.1477 -0.1559
 3745TIP3    H232871   5.015   2.056   8.166  0.7294 -0.6523  1.5513
 3746TIP3   OH232872   6.373   1.918   1.515 -0.2108 -0.0759  0.2877
 3746TIP3    H132873   6.416   1.899   1.598 -2.0474  2.2550  1.8972
 3746TIP3    H232874   6.299   1.856   1.513  0.6225 -1.0873 -0.3520
 3747TIP3   OH232875   2.924   3.575   8.364 -0.0564  0.1907  0.8718
 3747TIP3    H132876   2.926   3.559   8.269 -1.2316 -0.1467  0.8871
 3747TIP3    H232877   2.919   3.488   8.403  0.7165  0.3180  1.2623
 3748TIP3   OH232878   5.385   6.595   7.105 -0.5926  0.0861 -0.1534
 3748TIP3    H132879   5.314   6.637   7.056  0.1239 -2.0986 -3.3834
 3748TIP3    H232880   5.465   6.624   7.060  0.2995 -0.4600  1.0228
 3749TIP3   OH232881   3.972   5.085   3.011 -0.0856  0.0848 -0.2586
 3749TIP3    H132882   4.029   5.081   2.935 -0.3132  0.9516 -0.4831
 3749TIP3    H232883   3.900   5.024   2.991 -1.4482  2.0851 -1.8501
 3750TIP3   OH232884   2.409   2.174   7.073 -0.4028  0.8567  0.2499
 3750TIP3    H132885   2.500   2.201   7.080 -0.5550  0.9376  3.3371
 3750TIP3    H232886   2.360   2.240   7.124 -1.8456 -0.4823  0.6925
 3751TIP3   OH232887   1.076   2.016   2.801 -0.0189  0.6196 -0.1617
 3751TIP3    H132888   1.048   2.074   2.872 -2.2070  0.5988 -0.9020
 3751TIP3    H232889   0.995   1.970   2.776  0.7097  0.5016 -2.5229
 3752TIP3   OH232890   5.005   0.909   1.342 -0.8277 -0.4717  0.4125
 3752TIP3    H132891   5.079   0.859   1.377 -1.9631 -1.0280  2.1803
 3752TIP3    H232892   5.025   1.000   1.362  0.2108 -0.3989 -0.8149
 3753TIP3   OH232893   5.305   4.617   1.075  0.3448  0.1203 -0.1368
 3753TIP3    H132894   5.209   4.618   1.075  0.3454  0.1908 -0.1893
 3753TIP3    H232895   5.329   4.705   1.046  0.4228 -0.2584 -1.2770
 3754TIP3   OH232896   3.843   4.779   0.309  0.5199 -0.0492 -0.1603
 3754TIP3    H132897   3.839   4.785   0.405  0.8867  0.7007 -0.1819
 3754TIP3    H232898   3.782   4.709   0.287  1.6454 -1.3957  0.7394
 3755TIP3   OH232899   3.328   5.229   1.873  0.1870 -0.4469  0.0422
 3755TIP3    H132900   3.255   5.171   1.851  0.5521 -1.0158  0.3221
 3755TIP3    H232901   3.401   5.170   1.892  1.4326  0.1332 -2.5858
 3756TIP3   OH232902   4.617   4.184   1.236 -0.0137  0.0165 -0.6312
 3756TIP3    H132903   4.610   4.089   1.230 -0.6377  0.0092  0.1077
 3756TIP3    H232904   4.529   4.213   1.262  0.7137  0.6057  1.3410
 3757TIP3   OH232905   6.963   5.431   1.598 -0.2427 -0.0868  0.1624
 3757TIP3    H132906   6.906   5.406   1.525 -1.0029 -0.7209  0.9499
 3757TIP3    H232907   6.954   5.526   1.604  0.0270  0.0060 -0.7188
 3758TIP3   OH232908   0.408   4.760   1.476 -0.3710 -0.4892  0.1599
 3758TIP3    H132909   0.490   4.729   1.514 -0.3861 -0.8156 -0.0670
 3758TIP3    H232910   0.344   4.691   1.498 -0.6054 -0.1924  0.4180
 3759TIP3   OH232911   1.086   6.116   1.055 -0.2837  0.0555  0.1607
 3759TIP3    H132912   1.089   6.024   1.080 -0.7199 -0.2773 -0.9244
 3759TIP3    H232913   1.001   6.126   1.011  0.8913  0.2525 -2.2529
 3760TIP3   OH232914   2.317   6.635   8.015  0.1697 -0.2914 -0.0248
 3760TIP3    H132915   2.267   6.630   7.934  0.7016  0.3388 -0.4150
 3760TIP3    H232916   2.252   6.643   8.084 -0.2753  0.1953 -0.4922
 3761TIP3   OH232917   1.499   5.325   2.100  0.0908 -0.1731  0.2727
 3761TIP3    H132918   1.565   5.297   2.163  0.7627  1.7295  0.4971
 3761TIP3    H232919   1.544   5.324   2.016 -0.5014 -1.7089 -0.0572
 3762TIP3   OH232920   2.367   1.203   8.232 -0.4601 -0.1652  0.3674
 3762TIP3    H132921   2.340   1.183   8.322  2.0916  1.8311  1.6904
 3762TIP3    H232922   2.376   1.298   8.230 -0.6094 -0.1381 -2.1027
 3763TIP3   OH232923   0.218   3.922   3.014 -0.0279  0.5595  0.8522
 3763TIP3    H132924   0.261   4.007   3.000  0.2389  0.2459 -0.2766
 3763TIP3    H232925   0.125   3.941   3.002  0.1584  0.3701 -1.1910
 3764TIP3   OH232926   1.340   4.660   2.673  0.0033  0.2043 -0.0632
 3764TIP3    H132927   1.401   4.612   2.617  0.9904 -0.7785  1.7576
 3764TIP3    H232928   1.255   4.647   2.631  0.0267 -4.0627  0.7557
 3765TIP3   OH232929   3.984   3.229   1.586  0.6413 -0.6645  0.0098
 3765TIP3    H132930   3.956   3.320   1.579  0.7022 -0.4870  1.7126
 3765TIP3    H232931   4.031   3.224   1.669  2.6439 -1.7657 -1.1037
 3766TIP3   OH232932   0.816   0.670   1.094  0.1475 -0.3671  0.3779
 3766TIP3    H132933   0.820   0.616   1.173 -1.6364 -2.5930 -0.9337
 3766TIP3    H232934   0.907   0.679   1.067  0.6076 -1.6381  1.3707
 3767TIP3   OH232935   1.204   5.659   2.222 -0.1801 -0.0249  0.4985
 3767TIP3    H132936   1.123   5.610   2.236 -1.4000  1.6376 -0.3713
 3767TIP3    H232937   1.239   5.626   2.139 -1.4995  1.1588 -0.5749
 3768TIP3   OH232938   5.433   1.426   2.805 -0.1190 -0.0786 -0.2865
 3768TIP3    H132939   5.475   1.347   2.770 -2.6665 -0.8911 -1.7556
 3768TIP3    H232940   5.382   1.394   2.880  0.0829  0.5073  0.1104
 3769TIP3   OH232941   6.360   2.658   7.562 -0.0861 -0.6999 -0.1274
 3769TIP3    H132942   6.270   2.672   7.533  0.2775  0.4277 -0.7630
 3769TIP3    H232943   6.413   2.712   7.504  0.9640 -0.9642  0.5522
 3770TIP3   OH232944   3.985   4.362   7.885 -0.1204  0.0735  0.1799
 3770TIP3    H132945   4.064   4.381   7.935 -0.0702 -0.7141  0.4101
 3770TIP3    H232946   4.015   4.358   7.794 -0.1047  0.9024  0.1430
 3771TIP3   OH232947   1.937   0.677   8.381  0.5118 -0.1559  0.0229
 3771TIP3    H132948   1.930   0.768   8.412 -0.1907  0.4034 -1.6755
 3771TIP3    H232949   1.927   0.625   8.461 -0.5992  1.2197  0.8537
 3772TIP3   OH232950   5.206   0.905   1.725  0.1937  0.0746 -0.0222
 3772TIP3    H132951   5.259   0.870   1.796 -0.2185  0.3257  0.4160
 3772TIP3    H232952   5.117   0.877   1.745  0.1400 -0.2727 -0.7045
 3773TIP3   OH232953   0.484   0.922   7.048  0.1873 -0.1178 -0.8710
 3773TIP3    H132954   0.442   0.993   7.000 -2.1758 -0.4149  0.5530
 3773TIP3    H232955   0.439   0.922   7.133  2.7314 -0.9227  0.5704
 3774TIP3   OH232956   2.557   6.237   1.896 -0.2171  0.9742  0.1669
 3774TIP3    H132957   2.644   6.277   1.901  1.4524 -2.3969  0.6150
 3774TIP3    H232958   2.528   6.233   1.988  1.8902 -3.0557  0.8752
 3775TIP3   OH232959   3.336   1.634   8.217 -0.0716 -0.0824  0.0749
 3775TIP3    H132960   3.241   1.643   8.217 -0.0406  0.2489 -0.1150
 3775TIP3    H232961   3.367   1.707   8.164  0.3306  0.1687  0.6544
 3776TIP3   OH232962   2.261   4.401   1.228 -0.0966  0.8473  0.2045
 3776TIP3    H132963   2.248   4.484   1.182 -0.4488  0.6465 -0.0684
 3776TIP3    H232964   2.194   4.401   1.296  1.3612  1.8087  1.7080
 3777TIP3   OH232965   6.966   6.976   8.038 -0.2712 -0.2908  0.1162
 3777TIP3    H132966   6.984   7.039   8.108  0.0403  0.0244 -0.2391
 3777TIP3    H232967   7.020   7.006   7.965 -0.5584 -0.6438 -0.2452
 3778TIP3   OH232968   5.996   0.274   0.318 -1.0796  0.6672  0.7467
 3778TIP3    H132969   5.986   0.206   0.385 -0.7668  0.8994  1.0309
 3778TIP3    H232970   5.913   0.272   0.270 -0.7562 -0.5065  0.1964
 3779TIP3   OH232971   3.485   6.431   2.250  0.4157  0.3727  0.1221
 3779TIP3    H132972   3.530   6.515   2.239 -0.0732  0.6829  0.4644
 3779TIP3    H232973   3.457   6.431   2.342 -1.1987  0.6500 -0.3455
 3780TIP3   OH232974   2.194   1.918   0.276 -0.3794  0.0336 -0.2538
 3780TIP3    H132975   2.225   1.994   0.325 -1.0496 -0.9327  1.8000
 3780TIP3    H232976   2.258   1.849   0.296 -1.5709 -0.8376  0.6668
 3781TIP3   OH232977   3.735   2.500   1.105  0.3518  0.1169 -0.0517
 3781TIP3    H132978   3.648   2.471   1.132 -0.4882  0.6924 -1.9880
 3781TIP3    H232979   3.774   2.422   1.064  0.3757  0.1295 -0.0531
 3782TIP3   OH232980   0.125   6.853   1.755 -0.1590 -0.1330  0.5803
 3782TIP3    H132981   0.133   6.761   1.777 -0.9391 -0.6462 -1.1351
 3782TIP3    H232982   0.134   6.856   1.660 -2.0961  1.3248  0.3884
 3783TIP3   OH232983   5.008   6.364   1.010 -0.2579 -0.5791 -0.0282
 3783TIP3    H132984   5.010   6.278   1.052 -0.6106 -0.1104  0.9707
 3783TIP3    H232985   4.916   6.392   1.016 -0.0904 -0.0002 -0.0610
 3784TIP3   OH232986   5.431   0.271   1.710 -0.5759 -0.8986 -1.0274
 3784TIP3    H132987   5.391   0.332   1.773 -0.1947 -1.8022  0.1381
 3784TIP3    H232988   5.367   0.200   1.703  0.2581 -1.7858 -0.0493
 3785TIP3   OH232989   2.608   6.027   0.487  0.5721 -0.0790 -0.7407
 3785TIP3    H132990   2.524   6.042   0.444  1.3727 -0.6370 -2.6021
 3785TIP3    H232991   2.585   5.988   0.572 -1.0293 -0.3010 -1.2507
 3786TIP3   OH232992   5.003   0.205   2.230 -0.0022  0.2894 -0.2522
 3786TIP3    H132993   5.013   0.281   2.174  1.8304 -1.3369 -2.2981
 3786TIP3    H232994   4.910   0.184   2.225 -0.3760  1.8346 -0.3616
 3787TIP3   OH232995   2.491   1.289   7.978 -0.2331 -0.7133 -0.6602
 3787TIP3    H132996   2.507   1.339   8.058 -3.1992 -1.5873  0.6158
 3787TIP3    H232997   2.457   1.354   7.916 -2.4186 -0.7289  0.4259
 3788TIP3   OH232998   2.014   0.277   0.635  0.2580 -0.3579  0.6794
 3788TIP3    H132999   1.980   0.289   0.547  0.4940 -3.3770  0.0748
 3788TIP3    H233000   2.091   0.335   0.639  0.0911  0.0293 -0.9936
 3789TIP3   OH233001   3.478   2.385   1.187  0.1347  0.1114 -0.1489
 3789TIP3    H133002   3.462   2.406   1.095 -0.0027 -0.2298 -0.2025
 3789TIP3    H233003   3.391   2.372   1.224  0.1738  0.5478  0.1026
 3790TIP3   OH233004   0.542   1.516   2.510 -0.5356  0.3212 -0.4053
 3790TIP3    H133005   0.624   1.511   2.560 -1.2618 -1.1459  0.6705
 3790TIP3    H233006   0.494   1.588   2.550 -1.2718 -1.0732  1.3139
 3791TIP3   OH233007   3.855   4.013   0.822 -0.2401 -0.0121 -0.4718
 3791TIP3    H133008   3.811   3.930   0.842  0.5922 -0.4645 -0.4662
 3791TIP3    H233009   3.905   3.995   0.742  1.5608 -0.1362  0.6448
 3792TIP3   OH233010   1.029   4.539   2.044 -0.1387  0.4753 -0.3405
 3792TIP3    H133011   1.112   4.542   1.996 -0.0543  1.0304 -0.1638
 3792TIP3    H233012   1.004   4.630   2.056 -0.1438  0.3573  0.6862
 3793TIP3   OH233013   5.032   1.126   1.905 -0.1847 -0.8331  0.2795
 3793TIP3    H133014   4.966   1.184   1.866  0.7801  0.0080 -0.1548
 3793TIP3    H233015   5.098   1.114   1.836  0.4000 -1.1934  0.8830
 3794TIP3   OH233016   6.653   6.613   1.544  0.7766 -0.0468 -0.5998
 3794TIP3    H133017   6.645   6.665   1.464  1.5980  1.0430 -0.0014
 3794TIP3    H233018   6.637   6.675   1.615 -1.2131 -1.2472  0.1021
 3795TIP3   OH233019   1.360   4.825   0.642 -0.2542  0.6595  0.0878
 3795TIP3    H133020   1.335   4.811   0.733 -1.1546  0.8151 -0.1180
 3795TIP3    H233021   1.446   4.783   0.633 -0.0995  0.7598  1.0329
 3796TIP3   OH233022   2.252   6.580   6.693 -0.7956 -0.1258 -0.2757
 3796TIP3    H133023   2.235   6.520   6.620 -0.2776  0.7743 -1.1578
 3796TIP3    H233024   2.317   6.535   6.746 -0.1186 -0.1993 -1.1400
 3797TIP3   OH233025   3.943   3.073   2.938 -0.0886  0.5256 -0.3417
 3797TIP3    H133026   3.933   3.090   3.032 -0.8954  0.3482 -0.3855
 3797TIP3    H233027   3.916   3.155   2.896  1.6553  1.1055 -0.3924
 3798TIP3   OH233028   3.505   3.310   1.567 -0.5474  0.0797 -0.1960
 3798TIP3    H133029   3.597   3.337   1.570  0.0693 -1.9080  0.5564
 3798TIP3    H233030   3.456   3.388   1.593  1.0450  0.6803  1.1772
 3799TIP3   OH233031   2.937   1.781   0.938  0.4061 -0.0310  0.0904
 3799TIP3    H133032   2.883   1.846   0.893 -0.5450  0.1829  1.4628
 3799TIP3    H233033   2.990   1.741   0.869 -1.5621 -0.3045 -1.3486
 3800TIP3   OH233034   6.131   3.306   8.196 -0.0086  0.2928 -0.9155
 3800TIP3    H133035   6.179   3.257   8.263 -1.6664 -1.4028 -0.8856
 3800TIP3    H233036   6.139   3.254   8.117 -1.3955  0.1898 -1.0154
 3801TIP3   OH233037   1.596   0.867   7.677  0.1197 -0.1118  0.3753
 3801TIP3    H133038   1.540   0.912   7.615  2.0707  2.5511  0.3744
 3801TIP3    H233039   1.573   0.904   7.762  2.0571  1.3600  0.3237
 3802TIP3   OH233040   6.477   6.722   8.349 -0.1982  0.1560 -0.6196
 3802TIP3    H133041   6.486   6.638   8.395  1.0554 -0.1505 -1.3882
 3802TIP3    H233042   6.529   6.711   8.270 -1.9584  0.8207 -1.9285
 3803TIP3   OH233043   2.348   1.557   2.223  0.0377 -0.1839 -0.0929
 3803TIP3    H133044   2.321   1.649   2.215 -3.4976 -0.9939  1.0627
 3803TIP3    H233045   2.377   1.549   2.314 -1.4627 -0.5597  0.3813
 3804TIP3   OH233046   3.837   2.137   7.428  0.2307 -0.2630 -0.2278
 3804TIP3    H133047   3.768   2.100   7.373 -0.4162 -0.9725  1.0281
 3804TIP3    H233048   3.892   2.062   7.452  0.7554  0.1102 -0.2395
 3805TIP3   OH233049   5.730   6.176   0.843 -0.2763  0.4185 -0.0937
 3805TIP3    H133050   5.801   6.112   0.837 -0.8536 -0.7989  3.3768
 3805TIP3    H233051   5.652   6.123   0.863 -1.1017  2.0290  1.2146
 3806TIP3   OH233052   4.239   2.798   1.590 -0.2719  0.2025  0.3444
 3806TIP3    H133053   4.234   2.736   1.663 -0.2606  0.3272  0.4512
 3806TIP3    H233054   4.330   2.825   1.588 -0.4080  0.7104  0.7103
 3807TIP3   OH233055   1.850   3.831   8.191  0.0094 -0.2535 -0.0039
 3807TIP3    H133056   1.894   3.807   8.110 -0.4616 -1.7700  0.1553
 3807TIP3    H233057   1.837   3.748   8.237  2.0764  0.7402  2.5895
 3808TIP3   OH233058   5.062   0.484   8.364 -0.2541 -0.3863  0.0127
 3808TIP3    H133059   5.048   0.578   8.372  1.4365 -0.1106  0.0229
 3808TIP3    H233060   4.979   0.445   8.392 -1.4259  1.1108 -1.2067
 3809TIP3   OH233061   1.243   0.374   8.015  0.1547 -0.4380 -0.2678
 3809TIP3    H133062   1.258   0.283   8.041  2.0496  0.2549  1.3265
 3809TIP3    H233063   1.328   0.404   7.983 -0.3014  0.9420 -0.2523
 3810TIP3   OH233064   1.448   1.017   3.154 -0.4280 -0.1348 -0.0591
 3810TIP3    H133065   1.361   1.056   3.160  0.2176  1.4014 -0.2911
 3810TIP3    H233066   1.432   0.922   3.153 -2.0598  0.1129  0.2493
 3811TIP3   OH233067   6.982   3.513   0.560 -0.8778  0.0424 -0.8972
 3811TIP3    H133068   7.015   3.484   0.475  0.7155  1.2437 -0.7329
 3811TIP3    H233069   7.019   3.450   0.622 -1.1294 -0.1868 -0.9776
 3812TIP3   OH233070   4.080   6.187   0.572 -0.5466  0.4719 -0.0514
 3812TIP3    H133071   4.095   6.263   0.515  2.3836  1.1635  1.4406
 3812TIP3    H233072   4.148   6.125   0.546 -1.2537 -0.5655  0.5199
 3813TIP3   OH233073   4.881   3.619   2.434 -0.0493 -0.2699  0.4155
 3813TIP3    H133074   4.804   3.568   2.412  0.3693 -0.6897 -0.1058
 3813TIP3    H233075   4.946   3.595   2.368  0.4853  0.1765  0.7635
 3814TIP3   OH233076   5.395   6.821   1.722  0.0853  0.3180  0.3020
 3814TIP3    H133077   5.422   6.811   1.631 -1.0941 -1.8120  0.1283
 3814TIP3    H233078   5.476   6.836   1.770  0.9025 -0.1492 -0.8881
 3815TIP3   OH233079   5.493   1.520   7.139  0.1639  0.0514 -0.1851
 3815TIP3    H133080   5.438   1.444   7.160 -1.5703  1.1551 -0.4719
 3815TIP3    H233081   5.436   1.576   7.086  1.9925  0.7411 -1.5060
 3816TIP3   OH233082   0.519   6.722   1.963  0.4788  0.3481 -0.0882
 3816TIP3    H133083   0.579   6.729   2.038 -1.2648 -3.4459  1.9122
 3816TIP3    H233084   0.441   6.771   1.991  0.2445 -0.1353  0.1077
 3817TIP3   OH233085   0.699   6.407   1.903 -0.0950 -0.0438  0.2341
 3817TIP3    H133086   0.789   6.375   1.913 -0.5016 -1.2909  0.0374
 3817TIP3    H233087   0.652   6.369   1.978 -0.8827 -1.0248 -0.7271
 3818TIP3   OH233088   4.546   2.231   2.931 -0.0111 -0.1415  0.1388
 3818TIP3    H133089   4.586   2.252   3.015 -0.0885 -1.2440  0.4713
 3818TIP3    H233090   4.543   2.314   2.884 -1.5925  0.8711  1.8962
 3819TIP3   OH233091   2.242   4.236   0.557 -0.6637 -0.0693 -0.5038
 3819TIP3    H133092   2.169   4.175   0.559 -1.3860  0.8077  0.6292
 3819TIP3    H233093   2.261   4.247   0.463 -1.8246 -0.4703 -0.8016
 3820TIP3   OH233094   4.581   6.470   1.791 -0.1306  0.5162  0.6938
 3820TIP3    H133095   4.565   6.555   1.832 -1.6795  1.1487 -1.0632
 3820TIP3    H233096   4.673   6.473   1.765 -0.5119  2.3187 -0.6544
 3821TIP3   OH233097   2.782   3.116   3.106  0.3730 -0.1411 -0.8709
 3821TIP3    H133098   2.729   3.130   3.028  0.3586  1.1849 -0.6462
 3821TIP3    H233099   2.869   3.150   3.082  0.7834 -1.1344 -0.8155
 3822TIP3   OH233100   0.963   6.420   2.234  0.0233  0.0888  0.5955
 3822TIP3    H133101   0.978   6.333   2.271  0.0431 -1.0886 -1.9352
 3822TIP3    H233102   0.870   6.437   2.248 -0.2535 -0.9142  0.0562
 3823TIP3   OH233103   1.092   2.493   0.527 -0.5258 -0.4055  0.1400
 3823TIP3    H133104   1.143   2.574   0.532  1.2426 -1.5025  1.0186
 3823TIP3    H233105   1.020   2.506   0.588  1.7236 -0.7415  3.1058
 3824TIP3   OH233106   3.268   0.333   0.744  0.1879 -0.2589 -0.2467
 3824TIP3    H133107   3.275   0.360   0.652 -3.0655 -0.7248 -0.7857
 3824TIP3    H233108   3.257   0.414   0.792 -1.6594 -0.1160 -0.8175
 3825TIP3   OH233109   1.603   1.258   2.295 -0.5838 -0.0861 -0.1132
 3825TIP3    H133110   1.634   1.347   2.307  1.1137 -0.2985 -2.2565
 3825TIP3    H233111   1.542   1.263   2.221  0.2720 -0.8200 -0.8877
 3826TIP3   OH233112   2.860   3.439   2.223  0.6759 -0.1841  0.2305
 3826TIP3    H133113   2.765   3.454   2.232  0.4609 -0.1418 -1.7454
 3826TIP3    H233114   2.899   3.492   2.293 -0.6951  0.7290  0.3385
 3827TIP3   OH233115   5.144   5.098   2.787  0.1757 -0.1829  0.0300
 3827TIP3    H133116   5.073   5.061   2.735  0.8115 -1.5987  0.1187
 3827TIP3    H233117   5.113   5.185   2.812 -1.3107 -0.5743 -0.3427
 3828TIP3   OH233118   5.781   0.696   1.944 -0.0034  0.0312 -0.6427
 3828TIP3    H133119   5.736   0.688   2.028  2.0970 -0.1019  0.5305
 3828TIP3    H233120   5.742   0.627   1.890  0.0028 -1.2582  0.9089
 3829TIP3   OH233121   0.554   5.052   1.555  0.7629  0.2819  0.0066
 3829TIP3    H133122   0.520   5.009   1.633 -1.0600 -1.2826 -1.5283
 3829TIP3    H233123   0.643   5.079   1.579  0.3129 -0.2340  2.5402
 3830TIP3   OH233124   0.874   6.248   0.917 -0.0913  1.0493  0.4774
 3830TIP3    H133125   0.861   6.243   0.822 -1.9639 -0.6867  0.7608
 3830TIP3    H233126   0.786   6.260   0.952  0.5442  1.3522  2.0326
 3831TIP3   OH233127   6.347   5.469   0.305  0.0551 -0.1030 -0.2917
 3831TIP3    H133128   6.321   5.549   0.352 -2.1390 -1.4905  1.0044
 3831TIP3    H233129   6.436   5.451   0.336 -0.7407 -0.0901  2.1955
 3832TIP3   OH233130   6.655   1.038   6.761  0.2102 -0.0998  0.1229
 3832TIP3    H133131   6.564   1.070   6.757  0.5930  1.0696  0.4576
 3832TIP3    H233132   6.708   1.113   6.732  1.0002 -1.1873 -1.3434
 3833TIP3   OH233133   3.126   5.874   8.296 -0.4992 -0.7525 -0.2608
 3833TIP3    H133134   3.160   5.922   8.220 -0.2683 -1.4646 -0.6160
 3833TIP3    H233135   3.185   5.899   8.367  1.5381 -2.8083 -1.1082
 3834TIP3   OH233136   2.520   1.795   3.037  0.2086  0.1969 -0.0060
 3834TIP3    H133137   2.524   1.700   3.025 -2.4798  0.0091  0.0843
 3834TIP3    H233138   2.610   1.820   3.060  1.0949 -2.2262 -0.5546
 3835TIP3   OH233139   2.138   5.651   0.123  0.1584 -0.0761  0.3241
 3835TIP3    H133140   2.134   5.593   0.199  0.6873 -1.3579 -0.6096
 3835TIP3    H233141   2.228   5.642   0.091 -0.5161 -0.8564 -1.4450
 3836TIP3   OH233142   3.179   1.630   6.967  0.2394  0.0197  0.1366
 3836TIP3    H133143   3.090   1.653   6.938 -0.8137 -0.8959  2.3812
 3836TIP3    H233144   3.195   1.543   6.929  0.4274  0.4347 -0.7483
 3837TIP3   OH233145   6.352   1.301   7.928 -0.8002 -0.6625 -0.7762
 3837TIP3    H133146   6.419   1.367   7.948 -2.2238  0.1968  1.6569
 3837TIP3    H233147   6.367   1.277   7.837 -1.3564  4.4424 -2.5118
 3838TIP3   OH233148   0.889   2.431   6.894 -0.0896  0.3471  0.4435
 3838TIP3    H133149   0.966   2.382   6.923 -0.4167  0.8845  2.3330
 3838TIP3    H233150   0.838   2.446   6.974 -1.2793  1.5371 -0.4929
 3839TIP3   OH233151   0.805   6.926   1.229 -0.6159 -0.3042 -0.2168
 3839TIP3    H133152   0.878   6.928   1.291 -0.6154 -2.1605 -0.1007
 3839TIP3    H233153   0.791   7.018   1.205  2.3069  0.0649 -0.9187
 3840TIP3   OH233154   1.239   5.897   7.534 -0.2604 -0.1899  1.3523
 3840TIP3    H133155   1.245   5.888   7.439 -1.1550 -0.9049  1.3408
 3840TIP3    H233156   1.233   5.807   7.566  1.9843 -0.0693  2.2611
 3841TIP3   OH233157   5.154   5.448   1.572  0.0475  0.5672 -0.0097
 3841TIP3    H133158   5.226   5.494   1.615  0.2390 -0.8112  1.2425
 3841TIP3    H233159   5.091   5.430   1.642 -0.2050 -0.6772 -0.5262
 3842TIP3   OH233160   5.821   0.148   6.750  0.0504 -0.3359 -0.0454
 3842TIP3    H133161   5.813   0.130   6.844 -0.6497 -0.7805 -0.1824
 3842TIP3    H233162   5.885   0.084   6.719 -0.5757 -0.9568 -0.0768
 3843TIP3   OH233163   1.633   2.561   2.065  0.3418  0.0188  0.4145
 3843TIP3    H133164   1.725   2.587   2.057  0.8201 -1.8919 -0.8979
 3843TIP3    H233165   1.610   2.528   1.978 -1.1291 -0.9622  1.1387
 3844TIP3   OH233166   6.756   4.140   0.678  0.4975 -0.0082 -0.1137
 3844TIP3    H133167   6.823   4.194   0.721  0.8955 -1.7918  1.6233
 3844TIP3    H233168   6.770   4.052   0.712 -0.6993 -1.0888 -2.1906
 3845TIP3   OH233169   1.689   3.053   0.119 -0.1202  0.0659  0.0836
 3845TIP3    H133170   1.722   2.987   0.179 -2.2610 -0.9772  0.1954
 3845TIP3    H233171   1.725   3.028   0.033 -1.1933 -1.5063  0.0563
 3846TIP3   OH233172   2.118   6.821   6.637 -0.2013  0.1258 -0.1423
 3846TIP3    H133173   2.196   6.876   6.633  0.3205 -0.5738  0.1964
 3846TIP3    H233174   2.151   6.733   6.654 -1.1076 -0.0286  1.0093
 3847TIP3   OH233175   4.990   6.091   0.163  0.3012  0.2293 -0.2844
 3847TIP3    H133176   4.900   6.105   0.193 -1.5377 -0.8222 -4.4675
 3847TIP3    H233177   4.995   5.996   0.148  2.0478  0.2996 -0.3268
 3848TIP3   OH233178   3.655   3.291   0.505  0.0361 -0.7884  0.0777
 3848TIP3    H133179   3.609   3.214   0.471  0.1198 -0.4678 -0.7924
 3848TIP3    H233180   3.735   3.297   0.452  0.1943 -0.2953  0.3621
 3849TIP3   OH233181   4.602   2.104   7.184  0.1137  0.3713 -0.1784
 3849TIP3    H133182   4.649   2.114   7.101  1.1715 -0.0123  0.3458
 3849TIP3    H233183   4.612   2.012   7.206 -0.3231  0.4291  0.2753
 3850TIP3   OH233184   3.055   6.350   1.886  0.0304  0.2572 -0.0465
 3850TIP3    H133185   3.086   6.329   1.798  0.4692  0.0126  0.1635
 3850TIP3    H233186   3.060   6.267   1.933 -1.7496 -0.0045 -0.2356
 3851TIP3   OH233187   4.395   5.964   3.073 -0.3883  0.1427 -1.0548
 3851TIP3    H133188   4.306   5.938   3.048 -0.5407 -0.7686  0.3352
 3851TIP3    H233189   4.385   6.052   3.109 -0.9157 -0.3220 -0.0129
 3852TIP3   OH233190   6.911   0.075   3.003  0.5263 -0.2711  0.4694
 3852TIP3    H133191   6.816   0.062   2.998  0.5184  0.2568 -1.9821
 3852TIP3    H233192   6.942   0.003   3.057 -1.2599 -0.4288  1.3645
 3853TIP3   OH233193   6.334   2.558   2.900  0.2887  0.2516  0.1954
 3853TIP3    H133194   6.261   2.575   2.841 -0.4236  0.8790  1.2400
 3853TIP3    H233195   6.391   2.635   2.891 -0.9919  1.4947  2.0192
 3854TIP3   OH233196   1.912   0.200   7.930  0.0567  0.4005 -0.1843
 3854TIP3    H133197   1.932   0.206   7.837  1.7178  2.4058  0.2253
 3854TIP3    H233198   1.950   0.118   7.959  0.8075  0.4568 -0.9961
 3855TIP3   OH233199   2.863   6.503   2.300  0.4671 -0.2983  0.5878
 3855TIP3    H133200   2.821   6.549   2.228  2.9997 -0.9349 -1.4488
 3855TIP3    H233201   2.841   6.554   2.378 -0.6462  1.6279 -0.9196
 3856TIP3   OH233202   0.635   1.541   7.118  0.1280 -0.7218  0.1236
 3856TIP3    H133203   0.646   1.613   7.055  0.3636  0.9187  1.9313
 3856TIP3    H233204   0.559   1.493   7.087  0.4888 -0.2384 -1.6365
 3857TIP3   OH233205   6.268   4.212   0.860  0.1800  0.3375 -0.4152
 3857TIP3    H133206   6.288   4.164   0.940  2.1968  0.3122 -0.8771
 3857TIP3    H233207   6.241   4.144   0.798  1.2558  0.0127 -0.5363
 3858TIP3   OH233208   1.197   1.305   0.499  0.5040 -0.3218 -0.1166
 3858TIP3    H133209   1.111   1.347   0.497  0.5713 -0.2014 -0.6989
 3858TIP3    H233210   1.220   1.301   0.592 -0.1656 -0.4352  0.0474
 3859TIP3   OH233211   3.865   2.352   0.739  0.2009  0.1929  0.0295
 3859TIP3    H133212   3.866   2.430   0.683  1.4862 -1.3041 -2.2151
 3859TIP3    H233213   3.773   2.329   0.745 -0.0528  0.9329 -0.7188
 3860TIP3   OH233214   4.657   6.243   0.731 -0.7087  0.1262 -0.2699
 3860TIP3    H133215   4.600   6.192   0.674 -0.3039  0.4646 -0.9938
 3860TIP3    H233216   4.637   6.335   0.711  0.5692  0.2681 -1.0786
 3861TIP3   OH233217   1.460   2.316   1.845  0.1063  0.1487 -0.7335
 3861TIP3    H133218   1.546   2.309   1.885 -0.0353  0.9236 -0.2864
 3861TIP3    H233219   1.431   2.405   1.864 -1.2160 -0.4030 -0.0319
 3862TIP3   OH233220   6.936   4.050   8.194  0.3100 -0.1069 -0.0344
 3862TIP3    H133221   6.902   4.051   8.283 -0.7517  0.9889 -0.4343
 3862TIP3    H233222   6.868   4.005   8.143  0.7896 -0.4926 -0.3406
 3863TIP3   OH233223   6.940   5.688   1.640 -0.3933 -0.0962  0.5734
 3863TIP3    H133224   6.963   5.761   1.697  0.1099  0.1715  0.0385
 3863TIP3    H233225   6.890   5.729   1.568 -0.5284 -0.3438  0.5269
 3864TIP3   OH233226   5.841   5.240   1.455  0.0623  0.3298 -0.0366
 3864TIP3    H133227   5.794   5.321   1.478  1.3092  1.7286 -2.0291
 3864TIP3    H233228   5.808   5.218   1.368  1.6988  0.2910 -0.6725
 3865TIP3   OH233229   4.567   2.197   7.776  0.1767 -0.3851 -0.2025
 3865TIP3    H133230   4.487   2.180   7.825  0.1039 -0.1896 -0.2531
 3865TIP3    H233231   4.549   2.164   7.688 -0.2815  0.7305 -0.5447
 3866TIP3   OH233232   0.245   0.444   1.692  0.9979 -0.0245  0.0080
 3866TIP3    H133233   0.163   0.453   1.742  1.2672 -0.4683  0.5448
 3866TIP3    H233234   0.285   0.531   1.697  0.8513  0.0308  0.2590
 3867TIP3   OH233235   1.251   6.880   7.650  0.4167 -0.0261 -0.3728
 3867TIP3    H133236   1.270   6.973   7.642  0.9012 -0.1333 -0.4517
 3867TIP3    H233237   1.157   6.877   7.671  0.5384  0.5021  0.2740
 3868TIP3   OH233238   4.237   2.391   0.915 -0.1960  0.2254  0.2274
 3868TIP3    H133239   4.190   2.334   0.977  0.8339 -0.2015  0.6459
 3868TIP3    H233240   4.186   2.472   0.914 -0.3074  0.2006  1.5587
 3869TIP3   OH233241   1.945   5.683   0.986  0.6540  0.1197 -0.1172
 3869TIP3    H133242   1.935   5.618   0.917 -3.3041 -0.3872  0.7189
 3869TIP3    H233243   1.887   5.755   0.961  1.0185  1.0405  1.4988
 3870TIP3   OH233244   5.570   5.593   8.239  0.3733 -0.9009  0.2977
 3870TIP3    H133245   5.510   5.586   8.165 -1.1425 -3.7802  1.6637
 3870TIP3    H233246   5.654   5.616   8.199 -0.1291 -3.3495 -2.5161
 3871TIP3   OH233247   0.857   5.744   0.910  0.1265 -0.3527  0.7756
 3871TIP3    H133248   0.806   5.820   0.939  0.6515  0.1339  0.4668
 3871TIP3    H233249   0.892   5.771   0.825  0.3621 -0.9275  0.6883
 3872TIP3   OH233250   4.035   6.690   8.109 -0.2910 -0.1635 -0.2526
 3872TIP3    H133251   4.109   6.658   8.058  1.4266  1.9347  0.7843
 3872TIP3    H233252   3.994   6.756   8.052  0.7467  1.1248  0.4414
 3873TIP3   OH233253   4.938   3.923   3.173 -0.2115  0.6494  0.4847
 3873TIP3    H133254   4.903   3.865   3.242 -1.0437 -0.0238 -0.4806
 3873TIP3    H233255   4.887   3.901   3.095  0.5372  1.5945 -0.2912
 3874TIP3   OH233256   5.852   0.503   0.460 -0.3613 -0.2244 -0.1800
 3874TIP3    H133257   5.884   0.432   0.405 -2.0758 -1.1485 -0.0448
 3874TIP3    H233258   5.791   0.462   0.521 -0.1158  1.1084  1.0325
 3875TIP3   OH233259   2.739   4.344   8.141 -0.2949  0.0456  0.4301
 3875TIP3    H133260   2.771   4.420   8.093  0.1757 -0.7707 -0.5844
 3875TIP3    H233261   2.818   4.298   8.169 -0.5729 -0.0003  1.1818
 3876TIP3   OH233262   6.808   0.582   7.101 -0.3146 -0.4699 -0.3791
 3876TIP3    H133263   6.733   0.554   7.050 -1.4819 -0.2775  1.1503
 3876TIP3    H233264   6.771   0.611   7.185  1.3002  1.0993 -0.1366
 3877TIP3   OH233265   4.633   5.847   0.742  0.4555 -0.2890  0.0993
 3877TIP3    H133266   4.654   5.831   0.650  1.0580 -2.2835  0.5351
 3877TIP3    H233267   4.545   5.883   0.741  0.7182  0.3797 -1.2863
 3878TIP3   OH233268   4.337   0.031   2.857 -0.2685 -0.2049  0.0297
 3878TIP3    H133269   4.423   0.042   2.816 -0.0832 -0.4978  0.3326
 3878TIP3    H233270   4.317   0.117   2.894 -0.6313  0.1836 -1.0199
 3879TIP3   OH233271   6.526   3.280   7.928  0.2100  0.2013 -0.1548
 3879TIP3    H133272   6.449   3.320   7.887  0.0004 -0.2032 -0.1698
 3879TIP3    H233273   6.490   3.227   7.999  0.2832 -1.4556 -1.2962
 3880TIP3   OH233274   3.077   2.869   7.435  0.0877 -0.0590 -0.5374
 3880TIP3    H133275   3.044   2.784   7.463  1.9641 -0.2542  1.3706
 3880TIP3    H233276   3.129   2.851   7.357  0.0378 -0.5680 -0.4582
 3881TIP3   OH233277   3.461   0.113   8.125  0.3886 -0.3151  0.5393
 3881TIP3    H133278   3.366   0.119   8.120  0.4494  1.0978  0.8169
 3881TIP3    H233279   3.486   0.065   8.046 -0.5376 -0.5501  0.3788
 3882TIP3   OH233280   1.122   2.490   8.356 -0.0933 -0.2367  0.8960
 3882TIP3    H133281   1.179   2.413   8.361  0.9570  0.5306  0.9724
 3882TIP3    H233282   1.065   2.473   8.282 -0.3305 -1.3975  1.3287
 3883TIP3   OH233283   0.156   3.039   8.204 -0.3300 -0.0809 -0.1058
 3883TIP3    H133284   0.084   3.028   8.141  0.0449  0.7120 -0.6908
 3883TIP3    H233285   0.190   3.126   8.186  1.1382 -0.6524 -0.1989
 3884TIP3   OH233286   0.572   2.386   0.116  0.1353 -0.0410 -0.2138
 3884TIP3    H133287   0.605   2.435   0.041 -0.1458 -0.7975 -0.8478
 3884TIP3    H233288   0.493   2.343   0.083  1.2804 -2.2730 -0.1823
 3885TIP3   OH233289   4.125   6.425   1.590  0.1380 -0.2676  0.3810
 3885TIP3    H133290   4.189   6.375   1.540 -0.1778 -3.0991  2.5255
 3885TIP3    H233291   4.163   6.432   1.678 -1.5609 -0.1869  1.1528
 3886TIP3   OH233292   6.355   6.226   7.827 -0.3701  0.1549 -0.4689
 3886TIP3    H133293   6.266   6.250   7.854  0.2749  1.9058  0.1989
 3886TIP3    H233294   6.411   6.288   7.873  1.2426 -1.1697 -0.5825
 3887TIP3   OH233295   5.954   2.267   7.232 -0.0098  0.1124  0.4876
 3887TIP3    H133296   5.955   2.172   7.240  1.1509  0.0187 -0.4807
 3887TIP3    H233297   5.863   2.291   7.246 -0.6942 -1.3382 -1.1328
 3888TIP3   OH233298   5.855   4.463   3.017  0.4013  0.1902 -0.5598
 3888TIP3    H133299   5.926   4.519   2.985  0.9364  0.3376  0.8304
 3888TIP3    H233300   5.775   4.516   3.005  0.5529  0.1584 -1.8022
 3889TIP3   OH233301   1.805   1.730   2.345  0.2078 -0.0351 -0.4992
 3889TIP3    H133302   1.805   1.814   2.298  0.7181 -0.6520 -1.6383
 3889TIP3    H233303   1.875   1.739   2.410 -1.5814  1.4330  1.3274
 3890TIP3   OH233304   2.747   1.373   7.846  0.2802  0.1000 -0.5939
 3890TIP3    H133305   2.715   1.305   7.787 -1.0646  0.5835 -0.4626
 3890TIP3    H233306   2.687   1.369   7.921 -1.1005  2.6880 -1.4261
 3891TIP3   OH233307   2.385   2.528   2.615  0.3905  0.4934 -0.4457
 3891TIP3    H133308   2.442   2.568   2.680 -1.2377  0.9957  0.7652
 3891TIP3    H233309   2.355   2.601   2.561 -1.2278  0.7365  0.6855
 3892TIP3   OH233310   2.062   0.574   2.045  0.3933  0.0132 -0.7068
 3892TIP3    H133311   2.115   0.590   2.123  1.3551 -2.0403 -0.8738
 3892TIP3    H233312   2.070   0.480   2.030 -1.9693 -0.0747 -1.7356
 3893TIP3   OH233313   1.375   0.081   1.578 -0.2640 -0.5256  0.4422
 3893TIP3    H133314   1.430   0.003   1.569 -1.0317 -1.1706  1.1950
 3893TIP3    H233315   1.292   0.049   1.612 -0.5871  0.6268  0.8076
 3894TIP3   OH233316   4.101   4.495   8.224  1.2431  0.3649 -0.0185
 3894TIP3    H133317   4.174   4.531   8.173  0.6813  1.2213 -0.2483
 3894TIP3    H233318   4.110   4.535   8.311  2.2256 -1.1269  0.6102
 3895TIP3   OH233319   1.077   3.001   7.358  0.4741  0.4018 -0.3835
 3895TIP3    H133320   1.003   2.979   7.415  0.6166  0.9059  0.0122
 3895TIP3    H233321   1.086   2.926   7.299  2.0175 -1.4186  1.9769
 3896TIP3   OH233322   5.893   1.344   7.644 -0.2331 -0.0386 -0.3322
 3896TIP3    H133323   5.970   1.348   7.587 -0.6870  2.5089 -0.9112
 3896TIP3    H233324   5.929   1.328   7.732  0.9358  0.7182 -0.6475
 3897TIP3   OH233325   0.919   0.486   7.070 -0.2893  0.2572  0.4174
 3897TIP3    H133326   1.001   0.504   7.024 -0.9591  0.6080 -0.6723
 3897TIP3    H233327   0.855   0.543   7.028 -0.7617  1.2882  2.4198
 3898TIP3   OH233328   1.144   6.243   8.232  0.0248  0.2463  0.0768
 3898TIP3    H133329   1.176   6.200   8.311  1.5922  1.6413  0.2537
 3898TIP3    H233330   1.051   6.223   8.230  0.5030 -2.4204  0.5686
 3899TIP3   OH233331   4.514   0.568   7.695 -0.6675 -0.1189  0.5591
 3899TIP3    H133332   4.588   0.511   7.678 -0.4290  0.5701 -0.8426
 3899TIP3    H233333   4.546   0.656   7.675 -2.5050 -0.0231 -2.5594
 3900TIP3   OH233334   3.502   4.042   0.042  0.1226 -0.1062  0.0349
 3900TIP3    H133335   3.566   4.025  -0.027  0.2946  0.3338  0.0847
 3900TIP3    H233336   3.420   4.060  -0.004  0.4050  0.9102 -0.0775
 3901TIP3   OH233337   3.338   3.271   7.897  0.3433 -0.0113 -0.2305
 3901TIP3    H133338   3.344   3.181   7.928  0.0754 -0.0055 -0.1588
 3901TIP3    H233339   3.411   3.316   7.941  0.4307 -0.1752 -0.2074
 3902TIP3   OH233340   0.359   2.341   7.063  0.1555 -0.1725 -0.5374
 3902TIP3    H133341   0.385   2.311   7.150 -0.4757  0.6237 -0.0628
 3902TIP3    H233342   0.280   2.393   7.078 -0.0703 -0.1828 -1.6102
 3903TIP3   OH233343   3.694   6.088   1.836  0.8037 -0.0158  0.5192
 3903TIP3    H133344   3.637   6.056   1.906 -0.5642 -1.7878 -1.2733
 3903TIP3    H233345   3.772   6.034   1.842 -0.2172 -1.7237 -0.5727
 3904TIP3   OH233346   6.086   4.038   1.504  0.3731 -0.4014 -0.2431
 3904TIP3    H133347   6.146   4.108   1.532  1.1000 -1.1807  0.1992
 3904TIP3    H233348   6.007   4.052   1.555  0.6696 -0.1517  0.1519
 3905TIP3   OH233349   4.135   0.571   1.923  0.2777  0.4217 -0.1418
 3905TIP3    H133350   4.063   0.538   1.870  0.1754 -1.2271  0.9618
 3905TIP3    H233351   4.210   0.574   1.864 -0.3515  0.8108 -0.9414
 3906TIP3   OH233352   4.665   1.948   1.748 -0.0779 -0.0450  0.0365
 3906TIP3    H133353   4.748   1.931   1.705  0.6713  0.8017  1.0839
 3906TIP3    H233354   4.682   2.025   1.804 -1.3528 -0.2985  0.8234
 3907TIP3   OH233355   4.356   2.183   1.709 -0.3005 -0.1745 -0.8818
 3907TIP3    H133356   4.294   2.120   1.746 -0.1491 -0.2565 -0.7660
 3907TIP3    H233357   4.401   2.220   1.785 -0.0375 -0.2925 -0.9780
 3908TIP3   OH233358   0.667   0.922   0.677 -0.0366  0.2418 -0.3389
 3908TIP3    H133359   0.713   0.838   0.672 -0.6115 -0.0462 -0.7968
 3908TIP3    H233360   0.672   0.946   0.770 -0.2689 -0.5162 -0.1230
 3909TIP3   OH233361   4.139   4.942   0.214  0.4138 -0.1308  0.2730
 3909TIP3    H133362   4.055   4.946   0.167  0.7122 -0.3236 -0.2782
 3909TIP3    H233363   4.118   4.975   0.302 -0.6837 -1.9924  0.7589
 3910TIP3   OH233364   2.426   5.608   8.144  0.3583  0.7199  0.1020
 3910TIP3    H133365   2.478   5.551   8.088  0.8958 -0.7178  1.9770
 3910TIP3    H233366   2.485   5.681   8.165  1.8564 -0.9806  2.3594
 3911TIP3   OH233367   1.712   0.835   1.015  0.2555  0.0545 -0.0835
 3911TIP3    H133368   1.684   0.811   0.927 -2.5423  0.7296  0.5044
 3911TIP3    H233369   1.803   0.862   1.005 -0.2431  1.0504 -2.9673
 3912TIP3   OH233370   1.631   4.858   8.040  0.4589 -0.1060  0.9845
 3912TIP3    H133371   1.673   4.833   8.123  1.8788 -0.4898  0.2000
 3912TIP3    H233372   1.696   4.913   7.997 -1.6847  3.1718  1.6390
 3913TIP3   OH233373   6.963   5.648   2.084 -0.0971  0.4151 -0.2528
 3913TIP3    H133374   6.903   5.598   2.140  0.2257  1.8237  1.4291
 3913TIP3    H233375   7.042   5.659   2.136  0.8059  0.5042 -1.5862
 3914TIP3   OH233376   2.887   5.533   1.780  0.6012 -0.2590  0.1571
 3914TIP3    H133377   2.931   5.518   1.864  2.0888 -1.3768 -0.7768
 3914TIP3    H233378   2.845   5.618   1.791  2.0398  0.3466  1.5334
 3915TIP3   OH233379   2.937   0.880   1.066 -0.1977  0.0079  0.0880
 3915TIP3    H133380   2.963   0.936   1.138  0.6267 -0.4350  0.1427
 3915TIP3    H233381   2.977   0.920   0.988 -1.5205  0.7866 -0.2215
 3916TIP3   OH233382   5.112   6.763   1.625  0.2828 -0.2140 -0.1092
 3916TIP3    H133383   5.205   6.780   1.641  0.0469  1.2959 -0.2075
 3916TIP3    H233384   5.103   6.766   1.530  0.3922 -1.9376 -0.1988
 3917TIP3   OH233385   5.576   6.887   0.972 -0.1284  0.5123 -0.2753
 3917TIP3    H133386   5.665   6.881   0.937 -0.9584  0.0416 -2.4752
 3917TIP3    H233387   5.551   6.797   0.991 -0.4158  0.5693 -0.3817
 3918TIP3   OH233388   1.729   2.807   2.427 -0.1777  0.5876 -0.2930
 3918TIP3    H133389   1.704   2.884   2.376 -2.0665  0.8430  0.9276
 3918TIP3    H233390   1.799   2.837   2.484  1.5169  0.4597 -2.1593
 3919TIP3   OH233391   1.482   4.583   2.467 -0.2617  0.3607 -0.5216
 3919TIP3    H133392   1.572   4.613   2.482  0.0947 -0.5884 -0.6686
 3919TIP3    H233393   1.490   4.519   2.397 -0.9307 -0.3782  0.0653
 3920TIP3   OH233394   0.857   5.927   2.693 -0.2291 -0.3728  0.1015
 3920TIP3    H133395   0.832   5.857   2.754 -1.7026 -1.0593 -1.2284
 3920TIP3    H233396   0.777   5.945   2.644  1.0143 -0.1253 -1.9157
 3921TIP3   OH233397   4.650   6.244   1.969 -0.2517  0.1400  0.2723
 3921TIP3    H133398   4.628   6.309   1.903 -0.9806  0.2364  0.6028
 3921TIP3    H233399   4.617   6.161   1.934 -0.1976  0.1100  0.2919
 3922TIP3   OH233400   5.437   3.405   1.261  0.0515  0.4634  0.5341
 3922TIP3    H133401   5.459   3.406   1.168  0.5443  0.2467  0.6441
 3922TIP3    H233402   5.355   3.454   1.268  0.7683  1.7245  0.1870
 3923TIP3   OH233403   2.102   1.985   2.713  0.3259  0.6912 -0.7586
 3923TIP3    H133404   2.100   2.078   2.737  1.3859  0.4888  0.2110
 3923TIP3    H233405   2.155   1.944   2.782 -1.8186 -0.9791  0.0101
 3924TIP3   OH233406   4.615   2.809   0.817  0.0396  0.0956 -0.4335
 3924TIP3    H133407   4.541   2.795   0.758  0.1953  0.3747 -0.6961
 3924TIP3    H233408   4.689   2.827   0.759  0.3824 -0.4841 -0.1865
 3925TIP3   OH233409   1.321   2.119   0.724 -0.5191  0.5038 -0.2395
 3925TIP3    H133410   1.413   2.142   0.739  0.0455 -1.3197 -0.7011
 3925TIP3    H233411   1.272   2.177   0.782  0.9892  0.7906  0.8005
 3926TIP3   OH233412   1.569   1.634   1.611  0.1290 -0.0224  0.0277
 3926TIP3    H133413   1.615   1.621   1.528  1.5889 -1.8463  1.0295
 3926TIP3    H233414   1.520   1.715   1.599  1.9135  0.8757 -1.9037
 3927TIP3   OH233415   0.289   5.823   7.224  0.2467 -0.1504 -0.1318
 3927TIP3    H133416   0.210   5.835   7.276 -0.3670 -1.9259 -0.6108
 3927TIP3    H233417   0.360   5.821   7.289 -0.0851  1.1914  0.3147
 3928TIP3   OH233418   6.847   0.792   2.329 -0.1266  0.1318  0.2786
 3928TIP3    H133419   6.825   0.816   2.239  0.3767 -2.4743 -0.6123
 3928TIP3    H233420   6.927   0.741   2.321  0.4092  0.5707  2.3356
 3929TIP3   OH233421   1.365   0.191   0.463  0.3396 -0.3589 -0.1709
 3929TIP3    H133422   1.316   0.250   0.521 -0.1028 -1.1809  0.3075
 3929TIP3    H233423   1.351   0.104   0.500  0.7410 -0.8041 -1.0391
 3930TIP3   OH233424   4.812   5.491   0.789  0.5178  0.3652 -0.2094
 3930TIP3    H133425   4.845   5.544   0.862  1.8079 -1.3132  0.4978
 3930TIP3    H233426   4.865   5.518   0.714 -0.6068  1.8817 -0.4912
 3931TIP3   OH233427   4.389   2.769   8.171 -0.0512 -0.3596 -0.2500
 3931TIP3    H133428   4.348   2.855   8.159 -0.1438 -0.5674 -1.4540
 3931TIP3    H233429   4.421   2.771   8.262  2.2751  1.9348 -1.0071
 3932TIP3   OH233430   1.243   1.300   7.264  0.0845 -0.3956 -0.8911
 3932TIP3    H133431   1.324   1.256   7.288 -0.5254 -0.9218  0.3174
 3932TIP3    H233432   1.265   1.393   7.261  0.8775 -0.5898 -1.2723
 3933TIP3   OH233433   4.598   5.244   1.045  0.1952  0.2058  0.2955
 3933TIP3    H133434   4.618   5.152   1.063  0.0546  0.1975  0.4114
 3933TIP3    H233435   4.606   5.252   0.950 -0.4050 -0.0764  0.2202
 3934TIP3   OH233436   2.001   0.128   7.330 -0.1290  0.3569  0.1082
 3934TIP3    H133437   2.092   0.118   7.301  0.3299  0.4774  1.4539
 3934TIP3    H233438   2.007   0.185   7.407 -1.0744 -1.4456  1.5928
 3935TIP3   OH233439   6.937   3.382   7.384 -0.9937  0.4402 -0.3440
 3935TIP3    H133440   6.848   3.355   7.363 -0.7501 -0.2240 -0.5514
 3935TIP3    H233441   6.946   3.467   7.341 -2.0074  1.2143  0.9254
 3936TIP3   OH233442   4.652   4.430   0.080 -0.0319  0.4133  0.0726
 3936TIP3    H133443   4.619   4.519   0.094  0.6428  0.5839  0.6313
 3936TIP3    H233444   4.743   4.441   0.053  0.0247 -0.1042  0.0367
 3937TIP3   OH233445   3.788   1.407   0.905  0.0274  0.1044 -0.0532
 3937TIP3    H133446   3.807   1.353   0.828 -0.1653 -1.3825  0.8931
 3937TIP3    H233447   3.793   1.346   0.979 -3.0803  0.7216  0.8245
 3938TIP3   OH233448   5.070   5.160   7.633  0.1618  0.4998 -0.1826
 3938TIP3    H133449   5.001   5.206   7.585  0.2413  0.5916 -0.2088
 3938TIP3    H233450   5.043   5.165   7.725  0.6183  1.3693 -0.0895
 3939TIP3   OH233451   4.993   0.515   0.182 -0.2744 -0.5970  0.5940
 3939TIP3    H133452   4.978   0.454   0.110  1.4637  0.1838 -0.5045
 3939TIP3    H233453   4.917   0.573   0.180 -0.2829 -0.6049 -0.6522
 3940TIP3   OH233454   6.426   5.469   1.575  0.3964  0.0754  0.2434
 3940TIP3    H133455   6.344   5.462   1.527 -0.1950 -1.0778  1.3558
 3940TIP3    H233456   6.403   5.515   1.656  0.8165 -0.2901  0.5836
 3941TIP3   OH233457   0.509   3.259   7.605  0.0941 -0.7842  0.2060
 3941TIP3    H133458   0.439   3.267   7.540  0.5278 -0.7790 -0.2703
 3941TIP3    H233459   0.467   3.282   7.688 -0.0544  0.9419 -0.3017
 3942TIP3   OH233460   5.714   0.266   2.681 -0.8014  0.5990  0.0106
 3942TIP3    H133461   5.714   0.361   2.693 -0.5245  0.6736 -0.5272
 3942TIP3    H233462   5.784   0.235   2.739 -0.7925  0.7385  0.0754
 3943TIP3   OH233463   2.262   4.030   7.675  0.1184  0.3050  0.3996
 3943TIP3    H133464   2.193   4.066   7.618  0.5100  0.5092  0.0536
 3943TIP3    H233465   2.278   4.099   7.740  0.5762  0.5906 -0.0143
 3944TIP3   OH233466   0.766   3.067   0.783 -0.0606 -0.2690  0.4004
 3944TIP3    H133467   0.812   3.113   0.713  0.6277 -0.9379  0.4115
 3944TIP3    H233468   0.723   2.993   0.739 -1.7181  0.7096  0.2647
 3945TIP3   OH233469   1.500   0.407   7.943  0.0440  0.3162 -0.4977
 3945TIP3    H133470   1.535   0.330   7.988 -2.1888  0.1689  1.1167
 3945TIP3    H233471   1.554   0.480   7.974  0.1680 -0.1545  0.4160
 3946TIP3   OH233472   6.618   3.081   6.922  0.0460 -0.6211  0.5317
 3946TIP3    H133473   6.568   3.123   6.992  0.4036  0.2026  0.3081
 3946TIP3    H233474   6.627   3.149   6.855 -0.1938 -1.3580 -0.2713
 3947TIP3   OH233475   0.045   4.598   2.581  0.3461  0.2071  0.2233
 3947TIP3    H133476   0.039   4.588   2.486 -0.5664  1.7111  0.0970
 3947TIP3    H233477  -0.025   4.543   2.616 -0.0418  0.5330 -0.0390
 3948TIP3   OH233478   4.925   4.763   2.775  0.0627 -0.0836  0.1175
 3948TIP3    H133479   4.977   4.777   2.855 -0.2861 -0.3739  0.4000
 3948TIP3    H233480   4.835   4.779   2.803 -0.0422 -0.0141 -0.2648
 3949TIP3   OH233481   5.890   4.263   0.564 -0.4073  0.2422 -0.1789
 3949TIP3    H133482   5.974   4.308   0.558 -0.0187 -0.0312  2.3781
 3949TIP3    H233483   5.901   4.185   0.509  0.9997  0.2168  0.1029
 3950TIP3   OH233484   1.882   5.466   8.448  0.4497  0.6255  0.6175
 3950TIP3    H133485   1.926   5.469   8.363 -0.4052  1.4760  0.1778
 3950TIP3    H233486   1.910   5.546   8.493 -1.4276  1.7725 -0.1185
 3951TIP3   OH233487   1.891   5.726   0.229 -0.1963  0.4502 -0.0225
 3951TIP3    H133488   1.857   5.652   0.280  1.1943 -1.4231 -1.6802
 3951TIP3    H233489   1.985   5.713   0.228 -0.0990  1.0833 -2.0702
 3952TIP3   OH233490   3.907   1.500   8.274 -0.2327 -0.3436  0.1175
 3952TIP3    H133491   3.996   1.473   8.250 -0.0807 -0.8976  1.2169
 3952TIP3    H233492   3.883   1.565   8.208  1.0039 -0.1412 -0.1642
 3953TIP3   OH233493   5.150   0.730   7.584 -0.1154  0.3441 -0.4333
 3953TIP3    H133494   5.237   0.749   7.620 -0.3018 -0.4159  0.4461
 3953TIP3    H233495   5.168   0.689   7.499  0.4490 -1.0009  0.3059
 3954TIP3   OH233496   1.255   1.929   8.057  0.1107 -0.0898  0.2891
 3954TIP3    H133497   1.211   2.010   8.032 -3.4456 -1.8239  0.3041
 3954TIP3    H233498   1.283   1.890   7.974 -1.9962 -0.7296 -0.2020
 3955TIP3   OH233499   6.945   5.660   0.871 -0.1981  0.2942 -0.1033
 3955TIP3    H133500   6.856   5.626   0.874 -0.2396  0.3008 -0.9028
 3955TIP3    H233501   6.955   5.693   0.781  0.3740  0.9319  0.1839
 3956TIP3   OH233502   4.107   0.185   1.426 -0.2205  0.3207 -0.6697
 3956TIP3    H133503   4.126   0.174   1.332 -1.4400  0.4933 -0.9581
 3956TIP3    H233504   4.079   0.276   1.433  1.0480  0.6614  0.0895
 3957TIP3   OH233505   4.141   2.014   1.789 -0.3202  0.1097 -0.0118
 3957TIP3    H133506   4.104   1.956   1.855 -1.2661  1.8092  1.0186
 3957TIP3    H233507   4.116   1.974   1.706 -0.4239 -1.2544  0.6447
 3958TIP3   OH233508   0.336   5.693   0.434  0.4121 -0.0186  0.0471
 3958TIP3    H133509   0.363   5.618   0.381  0.5333 -1.4593  2.0249
 3958TIP3    H233510   0.294   5.654   0.511  1.4009  1.8812  1.6424
 3959TIP3   OH233511   3.582   2.103   0.989 -0.3611 -0.2171 -0.3043
 3959TIP3    H133512   3.501   2.051   0.988 -1.0486  0.8151 -0.7538
 3959TIP3    H233513   3.646   2.047   1.033 -1.5475 -0.7449  0.8543
 3960TIP3   OH233514   5.262   1.875   7.031 -0.0047  0.8720  0.2487
 3960TIP3    H133515   5.292   1.797   6.983  0.8064  1.5308 -0.3450
 3960TIP3    H233516   5.233   1.935   6.962  1.2895  1.8819  0.5479
 3961TIP3   OH233517   3.085   0.099   1.496 -0.1045  0.2084  0.4841
 3961TIP3    H133518   3.138   0.019   1.496  0.2546  0.3479 -2.2433
 3961TIP3    H233519   3.148   0.169   1.512  0.6029  0.3385 -2.3644
 3962TIP3   OH233520   3.275   2.593   8.135  0.5366 -0.1673  0.1160
 3962TIP3    H133521   3.284   2.500   8.119 -0.5516 -0.8321  2.8436
 3962TIP3    H233522   3.357   2.618   8.179  0.3672 -0.0981  0.3969
 3963TIP3   OH233523   6.525   0.597   6.587 -0.0810 -0.2618 -0.3896
 3963TIP3    H133524   6.463   0.662   6.554  0.6912  0.9380  0.4105
 3963TIP3    H233525   6.608   0.644   6.591  0.4524 -1.2312  0.4604
 3964TIP3   OH233526   4.071   2.440   1.937 -0.3235  0.1639 -0.2536
 3964TIP3    H133527   3.977   2.431   1.922 -0.8271  0.9103  2.0174
 3964TIP3    H233528   4.093   2.368   1.995 -0.1740  1.6409  1.6367
 3965TIP3   OH233529   1.498   6.272   7.880 -0.2706 -0.0772 -0.5256
 3965TIP3    H133530   1.437   6.276   7.807  1.6002  0.4200 -2.1376
 3965TIP3    H233531   1.550   6.351   7.874  1.0299 -0.8137  0.3456
 3966TIP3   OH233532   5.554   4.023   0.459 -0.5052 -0.1149 -0.3054
 3966TIP3    H133533   5.602   4.045   0.539  0.7106  0.6061 -1.2033
 3966TIP3    H233534   5.482   4.086   0.456 -2.3750 -2.0075  1.7160
 3967TIP3   OH233535   1.919   1.454   0.654 -0.3560 -0.5084  0.4250
 3967TIP3    H133536   1.908   1.515   0.727 -1.1681  0.7419 -0.6931
 3967TIP3    H233537   2.014   1.443   0.647 -0.1036  1.5005 -0.0005
 3968TIP3   OH233538   6.882   4.697   7.782  0.1918  0.3230 -0.0604
 3968TIP3    H133539   6.788   4.691   7.801  0.8918  0.1322  4.2007
 3968TIP3    H233540   6.887   4.754   7.705 -3.3189  2.1379  0.8375
 3969TIP3   OH233541   1.108   6.127   0.099  0.1705  0.2746  0.1170
 3969TIP3    H133542   1.090   6.070   0.174 -1.5701 -1.3935 -1.4685
 3969TIP3    H233543   1.166   6.075   0.044  0.5213  1.0318 -0.2342
 3970TIP3   OH233544   1.037   4.168   2.362  0.4125  0.7149 -0.3195
 3970TIP3    H133545   1.074   4.105   2.300  2.0730  1.2082  0.1291
 3970TIP3    H233546   1.027   4.119   2.444 -2.1212 -0.0404 -0.9828
 3971TIP3   OH233547   4.645   5.021   1.687 -0.2283  0.0929 -0.4976
 3971TIP3    H133548   4.716   4.969   1.649 -0.8881 -0.4464 -1.0152
 3971TIP3    H233549   4.657   5.109   1.651  0.2481  0.0373 -0.4792
 3972TIP3   OH233550   2.151   1.657   8.462  0.7631  0.3029 -0.0052
 3972TIP3    H133551   2.085   1.625   8.524  0.8812 -0.4011 -0.2430
 3972TIP3    H233552   2.147   1.753   8.472  0.8397  0.2070  1.1421
 3973TIP3   OH233553   0.362   3.767   3.189  0.1355 -0.4437 -0.4857
 3973TIP3    H133554   0.405   3.853   3.187  2.6940 -1.6057  0.4074
 3973TIP3    H233555   0.282   3.779   3.138  1.2426  2.0430 -1.7979
 3974TIP3   OH233556   1.196   2.658   1.239  0.4320  0.4789  0.3091
 3974TIP3    H133557   1.146   2.592   1.191  1.9089 -1.5336  1.3927
 3974TIP3    H233558   1.156   2.741   1.214 -1.1393 -0.7544 -1.5730
 3975TIP3   OH233559   6.152   1.930   7.487  0.2507 -0.3886  0.3827
 3975TIP3    H133560   6.135   1.841   7.458 -0.6884 -0.2201  0.3926
 3975TIP3    H233561   6.197   1.972   7.413  0.5374 -0.8121  0.3148
 3976TIP3   OH233562   3.989   4.823   2.773 -0.3160  0.2555 -0.4509
 3976TIP3    H133563   3.977   4.837   2.867 -2.2382  1.5601 -0.8459
 3976TIP3    H233564   4.071   4.867   2.752  0.6897 -0.9445  0.7544
 3977TIP3   OH233565   0.694   3.690   7.736 -0.4393  0.0209 -0.3492
 3977TIP3    H133566   0.712   3.733   7.652  2.0664 -0.3224 -0.0834
 3977TIP3    H233567   0.737   3.747   7.800 -0.5604 -0.7758  0.4478
 3978TIP3   OH233568   4.021   2.910   2.641  0.4673  0.1470  0.4734
 3978TIP3    H133569   4.081   2.880   2.710  0.2062 -1.4270  0.0512
 3978TIP3    H233570   4.031   3.005   2.640  1.1072  0.1259  2.1021
 3979TIP3   OH233571   6.039   0.387   1.683 -0.2110 -0.0541  0.8115
 3979TIP3    H133572   6.062   0.473   1.720 -0.6260  0.0086  0.9200
 3979TIP3    H233573   5.970   0.406   1.619 -0.7714 -0.3896  1.3095
 3980TIP3   OH233574   6.303   6.008   1.623 -0.3634  0.3573 -0.6148
 3980TIP3    H133575   6.361   5.938   1.594 -0.8296 -0.7560  0.9948
 3980TIP3    H233576   6.344   6.042   1.703 -1.7099 -0.2248  0.3667
 3981TIP3   OH233577   5.891   1.820   0.165 -0.2154  0.0132 -0.1441
 3981TIP3    H133578   5.946   1.754   0.206 -0.2454  1.2536  2.0529
 3981TIP3    H233579   5.825   1.841   0.231 -1.1486  1.1228 -1.3717
 3982TIP3   OH233580   6.379   5.002   1.224 -0.1335  0.1579 -0.2815
 3982TIP3    H133581   6.464   5.046   1.234 -0.4410  0.6117  0.4257
 3982TIP3    H233582   6.367   4.955   1.307 -0.2474 -0.4969 -0.6622
 3983TIP3   OH233583   6.630   0.819   7.292  0.0609 -0.0030  0.4468
 3983TIP3    H133584   6.576   0.865   7.228 -0.6354  1.4695  2.0286
 3983TIP3    H233585   6.571   0.758   7.335 -0.1946  1.0238  1.6066
 3984TIP3   OH233586   1.976   4.378   0.860  0.0933  0.0698 -0.8829
 3984TIP3    H133587   1.922   4.396   0.783 -0.1467  0.5758 -0.5993
 3984TIP3    H233588   2.047   4.442   0.854 -0.1773  0.4138 -0.4410
 3985TIP3   OH233589   3.947   5.441   0.548  0.0559 -0.0101  0.5141
 3985TIP3    H133590   3.929   5.520   0.496  1.1471  1.0909  1.7221
 3985TIP3    H233591   3.943   5.369   0.486  2.1570  1.3288 -1.3002
 3986TIP3   OH233592   4.095   4.602   0.017 -0.2591 -0.4644  0.1236
 3986TIP3    H133593   4.159   4.621   0.085  0.1401 -0.1023 -0.3469
 3986TIP3    H233594   4.017   4.651   0.042  0.3741  0.8966 -0.4565
 3987TIP3   OH233595   1.302   2.846   2.515  0.1588  0.0351  0.2478
 3987TIP3    H133596   1.386   2.811   2.546 -0.5379 -0.0475  2.1436
 3987TIP3    H233597   1.326   2.907   2.445  1.7789 -0.2020  0.5638
 3988TIP3   OH233598   0.099   6.276   8.153 -0.0722  0.3969  0.1326
 3988TIP3    H133599   0.134   6.189   8.133  0.6559  1.3831 -3.5662
 3988TIP3    H233600   0.163   6.315   8.212  1.2353 -0.4974 -0.6473
 3989TIP3   OH233601   2.232   4.575   1.516 -0.3470  0.2094  0.2318
 3989TIP3    H133602   2.223   4.485   1.548  2.0397 -0.0119  0.4597
 3989TIP3    H233603   2.292   4.616   1.578  0.1155  1.3916 -0.9744
 3990TIP3   OH233604   1.719   4.706   1.995 -0.0820 -0.0668 -0.3075
 3990TIP3    H133605   1.705   4.737   2.084 -0.5993  0.3154 -0.5179
 3990TIP3    H233606   1.814   4.699   1.987  0.0617  1.4616 -0.2412
 3991TIP3   OH233607   5.919   4.497   2.533 -0.5025  0.5509  0.3679
 3991TIP3    H133608   6.011   4.514   2.556 -0.7927 -0.0489  2.1716
 3991TIP3    H233609   5.887   4.441   2.604 -1.8561 -0.5154 -1.0240
 3992TIP3   OH233610   3.480   6.868   2.699  0.5078  0.1556 -0.3797
 3992TIP3    H133611   3.439   6.929   2.760  1.9655  1.1034 -0.3064
 3992TIP3    H233612   3.545   6.921   2.652 -0.1375 -0.6812 -2.3353
 3993TIP3   OH233613   1.012   0.862   3.045  0.1296 -0.2056 -0.2087
 3993TIP3    H133614   0.918   0.848   3.036  0.2455 -0.2780 -1.5234
 3993TIP3    H233615   1.051   0.805   2.979  1.1878 -1.1221  1.1666
 3994TIP3   OH233616   6.883   2.876   1.741 -0.1681 -0.2837 -0.2872
 3994TIP3    H133617   6.888   2.807   1.807 -1.8420  0.8009  1.0518
 3994TIP3    H233618   6.822   2.843   1.676 -0.9080 -0.1145  0.3114
 3995TIP3   OH233619   6.457   1.870   2.528 -0.3533 -0.0386  0.6493
 3995TIP3    H133620   6.461   1.905   2.617 -1.5378  0.4770  0.5103
 3995TIP3    H233621   6.548   1.874   2.497 -0.2704  1.8746  1.0288
 3996TIP3   OH233622   2.406   3.722   0.165 -0.1615 -0.4457  0.0879
 3996TIP3    H133623   2.496   3.691   0.151 -0.6831 -1.1582 -2.0265
 3996TIP3    H233624   2.402   3.806   0.120 -0.6991 -0.6864 -0.3245
 3997TIP3   OH233625   0.511   1.091   1.764 -0.7579  0.8602  0.3173
 3997TIP3    H133626   0.548   1.147   1.695  0.0415  0.6930  0.6109
 3997TIP3    H233627   0.417   1.109   1.759 -0.9120 -0.1936 -1.7518
 3998TIP3   OH233628   6.903   2.952   2.462  0.3327  0.4164  0.0450
 3998TIP3    H133629   6.825   2.898   2.448  0.0479  0.8241  0.0577
 3998TIP3    H233630   6.968   2.891   2.499  0.2760 -0.1005 -0.6830
 3999TIP3   OH233631   5.498   1.711   0.402 -0.4518  0.8173 -0.2571
 3999TIP3    H133632   5.494   1.678   0.313  0.6134  0.9813 -0.3884
 3999TIP3    H233633   5.447   1.648   0.454  0.2333 -0.1659 -0.7390
 4000TIP3   OH233634   2.559   0.622   8.181  0.0320  0.3317  0.0952
 4000TIP3    H133635   2.649   0.655   8.188 -0.7622  3.6530 -2.3792
 4000TIP3    H233636   2.566   0.548   8.120  1.1143  0.2818  0.2501
 4001TIP3   OH233637   4.212   4.218   1.640  0.8265  0.0396 -0.1154
 4001TIP3    H133638   4.134   4.196   1.691  0.5665  1.8024  0.3161
 4001TIP3    H233639   4.277   4.244   1.705  0.3936  2.6223 -0.5818
 4002TIP3   OH233640   5.867   4.857   0.992 -0.4236 -0.8236 -0.1122
 4002TIP3    H133641   5.799   4.860   1.060  0.1959  0.8204  0.4697
 4002TIP3    H233642   5.942   4.817   1.035 -0.5542 -1.3158 -0.3343
 4003TIP3   OH233643   2.164   4.390   6.620 -0.1396 -0.2453  0.6838
 4003TIP3    H133644   2.175   4.336   6.698 -2.4403 -0.1085  1.1525
 4003TIP3    H233645   2.148   4.478   6.654  1.7089  0.4288 -0.0446
 4004TIP3   OH233646   4.455   4.146   0.353 -0.5763 -0.1149 -0.1023
 4004TIP3    H133647   4.419   4.088   0.420 -2.6597 -0.3868 -1.3784
 4004TIP3    H233648   4.494   4.218   0.402 -1.7453 -0.4657  1.4165
 4005TIP3   OH233649   1.009   3.251   2.063 -0.4501  0.5735  0.7588
 4005TIP3    H133650   1.077   3.316   2.081  1.5039 -1.5099  1.4677
 4005TIP3    H233651   0.974   3.228   2.149 -1.5972  1.1345  0.4551
 4006TIP3   OH233652   6.836   3.720   8.242 -0.0573 -0.2826 -0.1477
 4006TIP3    H133653   6.777   3.645   8.238 -1.1801  0.5546  0.2674
 4006TIP3    H233654   6.797   3.786   8.184  1.8574 -0.6108 -1.9257
 4007TIP3   OH233655   1.166   3.902   1.108 -0.1065 -0.0581 -0.5608
 4007TIP3    H133656   1.213   3.910   1.025  0.0069 -1.2918 -0.6356
 4007TIP3    H233657   1.088   3.957   1.098  1.2422  1.9692 -0.4607
 4008TIP3   OH233658   1.068   1.854   3.125  0.1422  0.7516  0.5717
 4008TIP3    H133659   1.040   1.787   3.187 -1.1301 -2.4300 -3.0395
 4008TIP3    H233660   1.155   1.826   3.097  0.4900  1.8426  0.5106
 4009TIP3   OH233661   0.516   3.596   2.464  0.2640 -0.1834  0.0043
 4009TIP3    H133662   0.530   3.525   2.527  2.5836 -0.4207 -0.7054
 4009TIP3    H233663   0.603   3.616   2.430 -0.6678  1.2983 -1.6789
 4010TIP3   OH233664   5.464   0.053   0.715 -0.1475  0.2048 -0.3793
 4010TIP3    H133665   5.510   0.127   0.755  0.0144  0.9068 -1.7779
 4010TIP3    H233666   5.519  -0.023   0.735 -0.1597  0.4982  0.8247
 4011TIP3   OH233667   2.350   5.695   7.871  0.5583 -0.0202  0.3810
 4011TIP3    H133668   2.356   5.664   7.961  3.8490  1.7623  0.9604
 4011TIP3    H233669   2.343   5.790   7.879  1.1831  0.2007 -1.2102
 4012TIP3   OH233670   5.298   0.211   8.002 -0.3912 -0.6397 -0.8676
 4012TIP3    H133671   5.351   0.146   7.957  0.4834 -0.5201 -0.0522
 4012TIP3    H233672   5.264   0.165   8.079  1.9653  0.3486  0.9029
 4013TIP3   OH233673   2.874   3.000   6.523  0.8277 -0.3332  0.1277
 4013TIP3    H133674   2.932   3.007   6.599  0.1002 -1.1227  0.7818
 4013TIP3    H233675   2.786   3.015   6.559  0.6076  0.8155 -0.8403
 4014TIP3   OH233676   3.026   4.289   2.568  0.8842 -0.3013 -0.1641
 4014TIP3    H133677   3.038   4.221   2.501  0.1324  0.0733 -0.6940
 4014TIP3    H233678   3.052   4.247   2.649 -0.2838 -1.4924 -0.3700
 4015TIP3   OH233679   1.145   6.422   0.250 -0.5052  0.1046  0.0610
 4015TIP3    H133680   1.151   6.369   0.329 -1.0134 -0.3409 -0.1904
 4015TIP3    H233681   1.142   6.358   0.179  1.0168  0.5181 -0.4106
 4016TIP3   OH233682   5.092   2.139   1.125  0.6223  0.4420  0.3697
 4016TIP3    H133683   5.124   2.080   1.057 -0.9745 -0.1629  0.0997
 4016TIP3    H233684   5.051   2.082   1.190  0.5265  1.1419  0.9407
 4017TIP3   OH233685   0.302   0.490   1.419  0.1482 -0.3375 -0.4437
 4017TIP3    H133686   0.267   0.485   1.508  0.2067 -1.1472 -0.4663
 4017TIP3    H233687   0.389   0.528   1.430 -0.9994  2.5861 -0.4702
 4018TIP3   OH233688   6.722   0.442   2.432  0.5413  0.3533 -0.1220
 4018TIP3    H133689   6.712   0.528   2.474  0.5574  0.4273 -0.2693
 4018TIP3    H233690   6.751   0.385   2.502 -0.0095  0.3459  0.1023
 4019TIP3   OH233691   4.953   6.782   7.914  0.3300  0.4919  0.6928
 4019TIP3    H133692   4.919   6.771   7.826  0.6079 -0.0425  0.6524
 4019TIP3    H233693   4.937   6.875   7.934  1.5493  0.9756 -0.4508
 4020TIP3   OH233694   0.940   3.889   0.406  1.0315 -0.2675 -0.9128
 4020TIP3    H133695   0.849   3.917   0.399  1.1871  0.3186 -0.6330
 4020TIP3    H233696   0.979   3.912   0.322  1.1051  0.1778 -0.7619
 4021TIP3   OH233697   1.562   3.895   8.378 -0.3284 -0.0205 -0.7160
 4021TIP3    H133698   1.609   3.865   8.301  0.2154 -1.3493  0.1006
 4021TIP3    H233699   1.526   3.816   8.418 -2.4831  0.8447 -0.7752
 4022TIP3   OH233700   5.995   2.150   1.723 -0.1669 -0.1750  0.3750
 4022TIP3    H133701   5.902   2.156   1.746  0.2289  1.3233  1.7438
 4022TIP3    H233702   6.040   2.138   1.807  0.8945 -1.1369 -0.2919
 4023TIP3   OH233703   3.247   6.578   2.709 -0.6096 -0.1146  0.5912
 4023TIP3    H133704   3.205   6.664   2.702  0.3668  0.4007  0.8452
 4023TIP3    H233705   3.179   6.521   2.746 -1.4789  0.3793 -0.2097
 4024TIP3   OH233706   6.654   0.272   7.093  0.0484  0.3164  0.0763
 4024TIP3    H133707   6.740   0.282   7.133  0.8236 -2.0980 -0.7496
 4024TIP3    H233708   6.672   0.275   6.998 -0.9045  0.6384 -0.1007
 4025TIP3   OH233709   5.831   3.482   0.835  0.3285 -0.0240  0.0290
 4025TIP3    H133710   5.752   3.473   0.781  0.4683  1.0871 -0.4013
 4025TIP3    H233711   5.802   3.534   0.910 -0.3347 -3.1192  2.1198
 4026TIP3   OH233712   0.456   0.150   1.866  0.1171 -0.3110 -0.3636
 4026TIP3    H133713   0.428   0.089   1.934 -1.2340 -0.8208 -1.3222
 4026TIP3    H233714   0.457   0.235   1.908 -0.9575 -0.5789  0.2448
 4027TIP3   OH233715   6.373   3.302   0.606 -0.0461 -0.2701 -0.0654
 4027TIP3    H133716   6.412   3.249   0.536 -1.8887 -0.0381 -1.3510
 4027TIP3    H233717   6.327   3.372   0.560 -1.3564 -0.1374  1.3599
 4028TIP3   OH233718   6.266   1.047   2.491 -0.4163 -0.2099  0.3131
 4028TIP3    H133719   6.187   1.027   2.540 -0.7238 -0.7565 -0.3890
 4028TIP3    H233720   6.241   1.037   2.399  0.5205 -0.6118  0.0838
 4029TIP3   OH233721   2.363   5.669   2.461 -0.2293  0.1005  0.3584
 4029TIP3    H133722   2.319   5.709   2.536  1.8988  1.7234  0.8572
 4029TIP3    H233723   2.406   5.743   2.417  1.9099 -1.3180 -0.0808
 4030TIP3   OH233724   3.822   4.463   0.023 -0.0176 -0.1856 -0.2914
 4030TIP3    H133725   3.891   4.398   0.035 -0.7518 -1.0588 -0.7158
 4030TIP3    H233726   3.869   4.544   0.003  0.8586 -1.0241 -1.7740
 4031TIP3   OH233727   5.519   5.441   8.456  0.1649 -0.5304  0.1678
 4031TIP3    H133728   5.518   5.506   8.386  0.9189 -0.1242  0.5354
 4031TIP3    H233729   5.506   5.357   8.410  1.7717 -0.3954 -0.6110
 4032TIP3   OH233730   6.489   0.539   1.524 -0.1209 -0.4626 -0.0070
 4032TIP3    H133731   6.405   0.500   1.546  1.0296 -3.0016  0.1861
 4032TIP3    H233732   6.508   0.597   1.597 -1.4200 -0.2978  0.2220
 4033TIP3   OH233733   4.424   0.475   0.773 -0.2444 -0.7444  0.1023
 4033TIP3    H133734   4.352   0.523   0.731 -2.4585 -3.0894  1.0045
 4033TIP3    H233735   4.477   0.444   0.700 -2.1780 -1.9483 -0.8769
 4034TIP3   OH233736   3.163   0.402   1.794 -0.2357  0.0703  0.4968
 4034TIP3    H133737   3.111   0.479   1.770 -1.8912 -1.5505 -1.5169
 4034TIP3    H233738   3.110   0.358   1.861  1.0513  0.9861  2.1799
 4035TIP3   OH233739   0.111   0.572   8.100  0.3483  0.2268  0.1568
 4035TIP3    H133740   0.060   0.534   8.029 -0.2080  2.4562 -0.7189
 4035TIP3    H233741   0.174   0.629   8.056 -0.3068  2.0057  1.4164
 4036TIP3   OH233742   4.279   1.256   2.284 -0.0051  0.5545  0.5977
 4036TIP3    H133743   4.318   1.343   2.279 -0.4800  1.0042  3.3524
 4036TIP3    H233744   4.221   1.251   2.208  2.6359  1.1891 -1.6558
 4037TIP3   OH233745   6.167   3.661   2.213 -0.0519  0.4090  0.4017
 4037TIP3    H133746   6.127   3.739   2.251  2.1079  0.6449  2.4264
 4037TIP3    H233747   6.178   3.601   2.286 -0.8081 -1.4751 -0.9426
 4038TIP3   OH233748   4.528   5.610   0.819 -0.3494  0.2018  0.1013
 4038TIP3    H133749   4.568   5.695   0.804 -2.7958  1.1279 -1.9443
 4038TIP3    H233750   4.597   5.547   0.798  1.1465  1.6542  0.4499
 4039TIP3   OH233751   0.426   1.349   1.134  0.6538 -0.0568  0.3527
 4039TIP3    H133752   0.357   1.408   1.104  0.1416  0.0038  1.6197
 4039TIP3    H233753   0.388   1.261   1.127  0.8768 -0.1225 -0.0773
 4040TIP3   OH233754   3.560   1.637   7.900 -0.6797  0.2534 -0.4388
 4040TIP3    H133755   3.519   1.704   7.846 -0.8445  1.1479  0.7559
 4040TIP3    H233756   3.495   1.566   7.903 -1.2302  0.7479 -0.3618
 4041TIP3   OH233757   2.481   4.411   1.423 -0.5659  1.1864  0.2932
 4041TIP3    H133758   2.392   4.430   1.392 -0.7910  0.8275  0.7124
 4041TIP3    H233759   2.527   4.380   1.345 -0.7497  1.5584  0.0304
 4042TIP3   OH233760   6.582   6.369   7.492 -0.0313 -0.3800  0.6093
 4042TIP3    H133761   6.651   6.436   7.487  1.0756 -1.4826  0.4220
 4042TIP3    H233762   6.514   6.400   7.433  1.5742 -0.6143 -1.4822
 4043TIP3   OH233763   6.497   5.261   7.709 -0.5411 -0.0876 -0.0372
 4043TIP3    H133764   6.429   5.295   7.650 -0.6324 -1.2384 -0.6166
 4043TIP3    H233765   6.572   5.245   7.652 -0.5816 -1.0734  0.1711
 4044TIP3   OH233766   1.305   2.916   0.028 -0.4671  0.2452 -0.4345
 4044TIP3    H133767   1.220   2.959   0.033 -0.3793  0.4603 -0.7188
 4044TIP3    H233768   1.368   2.988   0.026 -0.3060  0.0999 -0.6922
 4045TIP3   OH233769   5.603   0.228   8.224  1.0899  0.1235  0.4738
 4045TIP3    H133770   5.548   0.164   8.268 -0.2957  0.4795 -0.6519
 4045TIP3    H233771   5.586   0.214   8.131  0.8955  1.9707  0.1926
 4046TIP3   OH233772   1.670   1.559   0.799 -0.2299 -0.3057  0.5612
 4046TIP3    H133773   1.599   1.597   0.852 -0.5861  2.7618 -1.8360
 4046TIP3    H233774   1.626   1.523   0.723  0.6377  0.2283 -0.2125
 4047TIP3   OH233775   4.364   1.280   2.570 -0.0785  0.3874  0.1836
 4047TIP3    H133776   4.321   1.317   2.493 -1.2871 -0.4733  0.4188
 4047TIP3    H233777   4.398   1.196   2.539 -0.5690  0.0387  0.5825
 4048TIP3   OH233778   6.703   4.817   0.669 -0.5804  0.1811  0.0234
 4048TIP3    H133779   6.635   4.851   0.728 -1.7385 -1.9950  0.0531
 4048TIP3    H233780   6.769   4.780   0.728 -0.6228  0.0452 -0.0134
 4049TIP3   OH233781   0.633   5.572   0.808 -0.6804  1.1263 -0.0649
 4049TIP3    H133782   0.678   5.530   0.735  0.0360  1.9523 -0.1223
 4049TIP3    H233783   0.703   5.618   0.856 -1.1592  0.7545  1.0367
 4050TIP3   OH233784   0.532   1.150   8.332  0.2960  0.1753 -0.3842
 4050TIP3    H133785   0.558   1.154   8.424 -1.6397 -0.5796  0.2382
 4050TIP3    H233786   0.469   1.220   8.321 -0.6286 -0.6861 -0.7248
 4051TIP3   OH233787   2.485   6.241   1.285  0.2588 -0.4643 -0.3157
 4051TIP3    H133788   2.394   6.220   1.306 -0.4814  1.0758 -1.7422
 4051TIP3    H233789   2.537   6.182   1.340 -1.5901 -1.4972  0.4008
 4052TIP3   OH233790   3.140   1.601   1.856  0.5434 -0.0270  0.0823
 4052TIP3    H133791   3.067   1.548   1.825 -0.7136  1.4541  0.3786
 4052TIP3    H233792   3.162   1.657   1.781  0.7247  0.1865  0.2941
 4053TIP3   OH233793   4.878   2.895   1.619  0.3663 -0.5830  0.2266
 4053TIP3    H133794   4.890   2.850   1.703  3.6945  0.1076  0.2972
 4053TIP3    H233795   4.892   2.988   1.640 -0.7948 -0.1573 -0.7887
 4054TIP3   OH233796   3.016   0.604   2.252  0.1550  0.3145  0.3239
 4054TIP3    H133797   3.022   0.699   2.246  0.1042  0.2704 -0.5951
 4054TIP3    H233798   3.090   0.579   2.307 -0.5676  0.9706  1.6398
 4055TIP3   OH233799   0.916   3.589   0.605  0.5387  0.1457  0.0111
 4055TIP3    H133800   0.905   3.549   0.691  0.0428 -2.4808 -1.1578
 4055TIP3    H233801   1.011   3.604   0.598  0.4361  1.7995  1.5228
 4056TIP3   OH233802   5.465   6.799   1.457  0.4519  0.1877  0.2955
 4056TIP3    H133803   5.481   6.866   1.390  2.0486 -0.6528 -0.2318
 4056TIP3    H233804   5.474   6.716   1.409 -2.8258 -0.4731  0.6248
 4057TIP3   OH233805   3.935   5.251   0.347 -0.0854  0.1754 -0.0340
 4057TIP3    H133806   3.894   5.207   0.421 -0.1961 -1.1229 -0.8434
 4057TIP3    H233807   3.884   5.224   0.270 -0.0510  1.5840 -0.5938
 4058TIP3   OH233808   0.223   1.707   0.337  0.2171 -0.0753 -0.0461
 4058TIP3    H133809   0.128   1.712   0.325  0.4471 -0.2387 -2.3252
 4058TIP3    H233810   0.237   1.623   0.381 -0.7276  0.4207  1.2806
 4059TIP3   OH233811   1.533   2.750   2.627 -0.1688  0.1171  0.1997
 4059TIP3    H133812   1.592   2.760   2.553 -1.0852  0.5256 -0.4818
 4059TIP3    H233813   1.574   2.682   2.681  1.5255  1.1943  0.3486
 4060TIP3   OH233814   5.206   3.295   0.425 -0.6525  0.4714  0.2343
 4060TIP3    H133815   5.199   3.240   0.347  0.2954 -0.9810  1.1191
 4060TIP3    H233816   5.246   3.376   0.394  1.1256 -0.6566 -0.5725
 4061TIP3   OH233817   3.229   4.945   0.854 -0.0500  0.3205  0.1446
 4061TIP3    H133818   3.158   5.007   0.837 -0.0444  1.3873  3.3663
 4061TIP3    H233819   3.305   4.999   0.871  1.0756 -0.7664 -1.2054
 4062TIP3   OH233820   5.952   4.674   2.847 -0.0350  0.0387 -0.0103
 4062TIP3    H133821   5.991   4.753   2.884 -2.0550  0.1769  2.0434
 4062TIP3    H233822   5.942   4.693   2.754  2.1977  0.9908 -0.1223
 4063TIP3   OH233823   1.478   4.179   8.418 -0.1475 -0.3612 -0.2450
 4063TIP3    H133824   1.549   4.128   8.378 -1.1221 -1.5686 -0.5076
 4063TIP3    H233825   1.494   4.173   8.512  0.2732 -0.3771 -0.3159
 4064TIP3   OH233826   5.224   0.690   1.458 -0.2975 -0.1127  0.6410
 4064TIP3    H133827   5.294   0.689   1.393  0.6509  2.0676  1.5128
 4064TIP3    H233828   5.245   0.764   1.515 -1.4507 -1.5053  3.0454
 4065TIP3   OH233829   6.875   0.023   1.140 -0.2264  0.1082 -0.0970
 4065TIP3    H133830   6.916  -0.050   1.094 -1.2293 -0.3650 -0.2748
 4065TIP3    H233831   6.903   0.101   1.092 -0.1476 -0.2668 -0.6653
 4066TIP3   OH233832   2.796   1.675   7.485 -0.4867 -0.2856  0.0347
 4066TIP3    H133833   2.745   1.616   7.541 -1.7850  1.4700  0.7679
 4066TIP3    H233834   2.760   1.762   7.502  1.1282  0.6982 -1.2932
 4067TIP3   OH233835   3.041   5.622   8.381  0.1564  0.2905  0.5993
 4067TIP3    H133836   3.076   5.710   8.369  0.3076  0.1053 -0.4435
 4067TIP3    H233837   3.090   5.568   8.318 -0.3016 -0.4335  0.8482
 4068TIP3   OH233838   6.684   4.762   8.164  0.4301 -0.5390  0.1667
 4068TIP3    H133839   6.647   4.850   8.166 -0.8111 -1.0292 -0.2593
 4068TIP3    H233840   6.766   4.772   8.115  0.2775  0.3581  0.0723
 4069TIP3   OH233841   1.000   3.670   7.823  0.2660 -0.1134 -0.0078
 4069TIP3    H133842   1.005   3.676   7.728  0.1111 -0.1036 -0.0142
 4069TIP3    H233843   0.963   3.754   7.850 -0.9484 -0.6252 -0.0268
 4070TIP3   OH233844   2.283   0.413   7.286  0.6365  0.6480 -0.2316
 4070TIP3    H133845   2.255   0.321   7.282 -1.9158  1.4053 -1.9203
 4070TIP3    H233846   2.375   0.410   7.261  0.7878 -1.4954  0.3339
 4071TIP3   OH233847   6.038   1.220   1.028  0.1254 -0.2850  0.0034
 4071TIP3    H133848   5.983   1.275   0.971  0.5806  1.1198  0.8731
 4071TIP3    H233849   6.127   1.237   0.998  0.2617 -0.7039  0.1684
 4072TIP3   OH233850   2.295   1.144   1.268 -0.1286  0.1043 -0.4849
 4072TIP3    H133851   2.220   1.200   1.289 -0.2718  0.3353 -1.5631
 4072TIP3    H233852   2.354   1.154   1.342 -1.4048 -0.5302  0.6560
 4073TIP3   OH233853   0.702   2.723   1.705 -0.3596 -0.1266  0.1522
 4073TIP3    H133854   0.696   2.780   1.629 -1.0734 -0.6503 -0.1986
 4073TIP3    H233855   0.633   2.658   1.692  0.1721 -0.8328  0.7347
 4074TIP3   OH233856   5.898   3.740   0.040  0.7041  0.3604 -0.0667
 4074TIP3    H133857   5.888   3.794   0.118  1.4753  0.3549  0.0432
 4074TIP3    H233858   5.901   3.650   0.072 -1.8964  0.0755 -0.3448
 4075TIP3   OH233859   3.808   2.934   0.023  0.0184 -0.7299  0.2279
 4075TIP3    H133860   3.840   2.844   0.014 -0.2881 -0.9421  1.1255
 4075TIP3    H233861   3.763   2.952  -0.059  1.9865 -0.5914 -0.8805
 4076TIP3   OH233862   3.976   0.570   2.142  0.7215  0.1409 -0.1762
 4076TIP3    H133863   4.014   0.613   2.219 -0.2492  2.2608 -0.8142
 4076TIP3    H233864   4.047   0.567   2.078  1.4537 -1.3854  0.6422
 4077TIP3   OH233865   6.420   2.132   3.179 -0.0273 -0.6399  0.0185
 4077TIP3    H133866   6.406   2.038   3.168 -0.6473 -0.7215  1.3402
 4077TIP3    H233867   6.515   2.143   3.178  0.0419 -1.1568 -0.9346
 4078TIP3   OH233868   0.360   3.416   1.619  0.0437  0.7234 -0.1614
 4078TIP3    H133869   0.405   3.482   1.567 -1.2903  1.3163 -0.6092
 4078TIP3    H233870   0.404   3.417   1.704  0.3221  1.8653 -0.3106
 4079TIP3   OH233871   6.628   4.153   8.075 -0.0591  0.0849  0.1187
 4079TIP3    H133872   6.634   4.203   8.156  1.6444 -1.3717  0.9659
 4079TIP3    H233873   6.609   4.218   8.007  0.7680  1.6597  1.3494
 4080TIP3   OH233874   1.456   0.025   7.259 -0.3223 -0.1543  0.8353
 4080TIP3    H133875   1.535   0.039   7.311  1.4784 -1.6779 -1.3467
 4080TIP3    H233876   1.446   0.105   7.208 -0.3932  0.1644  1.3408
 4081TIP3   OH233877   1.270   5.706   0.403  0.6852  0.5811 -0.3389
 4081TIP3    H133878   1.196   5.648   0.421  0.3932  1.0846  0.0954
 4081TIP3    H233879   1.299   5.737   0.489  1.4923  0.2808 -0.4939
 4082TIP3   OH233880   2.694   4.856   2.686 -0.1728 -0.1255  0.5414
 4082TIP3    H133881   2.755   4.797   2.643 -1.4707 -2.3302  1.5801
 4082TIP3    H233882   2.613   4.848   2.635 -0.6691 -0.0607  1.3007
 4083TIP3   OH233883   0.244   3.873   2.159 -0.1201 -0.1153 -0.6033
 4083TIP3    H133884   0.207   3.920   2.084 -0.3917 -0.3532 -0.6236
 4083TIP3    H233885   0.169   3.856   2.216  0.0646 -0.0531 -0.3417
 4084TIP3   OH233886   2.151   4.658   1.079 -0.0725  0.3222 -0.0143
 4084TIP3    H133887   2.171   4.604   1.002  1.1706  0.7455 -0.0069
 4084TIP3    H233888   2.128   4.743   1.043 -0.0601  0.3536  0.0523
 4085TIP3   OH233889   1.206   2.274   2.153 -0.4527  0.3449  0.8600
 4085TIP3    H133890   1.253   2.245   2.230 -4.2436  0.7056  3.6328
 4085TIP3    H233891   1.249   2.356   2.128  2.5368 -1.1350  0.7889
 4086TIP3   OH233892   4.393   4.834   0.257  0.1118 -0.9017  0.5041
 4086TIP3    H133893   4.344   4.906   0.217  1.5045 -0.8718 -1.2616
 4086TIP3    H233894   4.420   4.868   0.342 -0.2006  0.2538  0.1676
 4087TIP3   OH233895   2.998   3.100   8.082 -0.2397 -0.0479 -1.0301
 4087TIP3    H133896   2.989   3.101   8.178  1.3262 -0.6182 -0.8525
 4087TIP3    H233897   2.933   3.164   8.052 -0.8926  0.0140  0.3889
 4088TIP3   OH233898   0.124   1.546   7.188 -0.6448  0.0056 -0.4836
 4088TIP3    H133899   0.160   1.624   7.147 -1.1118  0.2132 -0.5076
 4088TIP3    H233900   0.124   1.480   7.118 -0.5937  0.0939 -0.5668
 4089TIP3   OH233901   4.681   1.354   2.524  0.2163  0.0436 -0.0630
 4089TIP3    H133902   4.685   1.316   2.612 -1.1468  0.3894  0.1770
 4089TIP3    H233903   4.619   1.297   2.477  0.2451  0.3818 -0.5158
 4090TIP3   OH233904   2.935   4.977   1.257  0.2984 -0.0451 -0.3751
 4090TIP3    H133905   2.891   5.028   1.325  0.4485 -0.5112  0.0810
 4090TIP3    H233906   2.888   4.997   1.176  0.1049  0.4983 -0.1274
 4091TIP3   OH233907   5.283   3.472   0.230 -0.6581 -0.0603 -0.0399
 4091TIP3    H133908   5.348   3.520   0.178 -0.6011  0.7870  0.7871
 4091TIP3    H233909   5.229   3.428   0.165  2.0573 -2.6844 -0.7479
 4092TIP3   OH233910   2.390   3.146   0.135 -0.2575  0.5801  0.6541
 4092TIP3    H133911   2.471   3.193   0.115 -0.7151  1.7490  1.5086
 4092TIP3    H233912   2.418   3.072   0.189  0.3536  0.3670  0.0637
 4093TIP3   OH233913   5.206   2.953   2.334  0.5178 -0.2440 -0.1877
 4093TIP3    H133914   5.149   2.881   2.307  0.5752 -0.1845 -0.4720
 4093TIP3    H233915   5.294   2.916   2.335  0.6686  0.0371 -1.1991
 4094TIP3   OH233916   1.676   5.487   0.478  0.2555  0.2662 -0.8748
 4094TIP3    H133917   1.614   5.421   0.449  0.4915 -1.3214  1.8331
 4094TIP3    H233918   1.762   5.452   0.454  0.4499 -1.0413  1.4497
 4095TIP3   OH233919   0.186   6.683   7.862 -0.3115  0.1649  0.0381
 4095TIP3    H133920   0.157   6.597   7.833  0.0937 -0.4165  1.2529
 4095TIP3    H233921   0.221   6.725   7.784 -1.1572 -0.4921 -0.7103
 4096TIP3   OH233922   6.250   3.849   3.190  0.3381 -0.4615 -0.1259
 4096TIP3    H133923   6.293   3.764   3.202 -1.8773 -1.4695  1.2216
 4096TIP3    H233924   6.291   3.885   3.111  0.9718 -3.0255 -1.0704
 4097TIP3   OH233925   5.182   5.701   2.301 -0.1450 -0.4153 -0.0731
 4097TIP3    H133926   5.221   5.725   2.385  0.3408 -2.5652  0.3714
 4097TIP3    H233927   5.104   5.651   2.324 -0.5459 -0.2124 -0.9329
 4098TIP3   OH233928   2.277   3.877   0.652  0.4438 -0.3174 -0.1257
 4098TIP3    H133929   2.286   3.808   0.718  4.8300  0.0727  0.0064
 4098TIP3    H233930   2.327   3.844   0.577  0.0357  1.4563 -1.2347
 4099TIP3   OH233931   0.185   4.212   8.267 -0.0369  0.6955  0.2939
 4099TIP3    H133932   0.179   4.275   8.338 -0.9994  1.0778 -0.1044
 4099TIP3    H233933   0.109   4.155   8.279 -2.9019  3.4095 -2.8477
 4100TIP3   OH233934   6.473   6.384   1.688 -0.2271  0.2233 -0.5123
 4100TIP3    H133935   6.514   6.435   1.758  2.3469 -0.5481 -1.3502
 4100TIP3    H233936   6.486   6.437   1.609 -0.5812 -0.1964 -0.8593
 4101TIP3   OH233937   0.147   4.842   2.339 -0.4241  0.3275  0.6582
 4101TIP3    H133938   0.067   4.792   2.321  0.9513 -1.7570  0.0092
 4101TIP3    H233939   0.180   4.866   2.252  0.4998 -0.2693  0.8315
 4102TIP3   OH233940   5.706   1.893   0.354 -0.0003 -0.0303  0.6057
 4102TIP3    H133941   5.659   1.840   0.418  0.5988 -0.6949  0.5133
 4102TIP3    H233942   5.661   1.977   0.354 -2.7956 -1.3850 -1.2922
 4103TIP3   OH233943   1.859   3.105   7.066  0.5073  0.2117  0.5873
 4103TIP3    H133944   1.936   3.162   7.054  0.7731 -0.3463 -0.4425
 4103TIP3    H233945   1.873   3.033   7.005  0.1765 -0.9922  1.8843
 4104TIP3   OH233946   6.018   3.036   2.621  0.2271 -0.1458 -0.6600
 4104TIP3    H133947   6.113   3.034   2.613  0.4293 -3.6477  0.8234
 4104TIP3    H233948   6.001   3.099   2.691  1.6231 -0.6347  0.1532
 4105TIP3   OH233949   6.403   0.739   0.785  0.0301  0.2308 -0.1802
 4105TIP3    H133950   6.423   0.721   0.693 -0.3409 -0.1874 -0.1871
 4105TIP3    H233951   6.488   0.754   0.826  0.0797  3.1456 -1.1173
 4106TIP3   OH233952   0.656   3.254   2.000  1.0523 -0.8292 -0.0488
 4106TIP3    H133953   0.742   3.292   1.982  0.3391  0.8529 -0.1756
 4106TIP3    H233954   0.626   3.299   2.080 -1.3653  1.8116 -2.1774
 4107TIP3   OH233955   1.696   0.284   0.560  0.4079  0.4749 -0.7437
 4107TIP3    H133956   1.674   0.246   0.475 -3.7654 -0.5950  0.5393
 4107TIP3    H233957   1.756   0.221   0.599 -0.7683 -1.1628 -1.4363
 4108TIP3   OH233958   1.355   3.577   1.634 -0.0041 -0.6115 -0.8055
 4108TIP3    H133959   1.265   3.578   1.601 -0.2963  1.5757 -0.0751
 4108TIP3    H233960   1.406   3.622   1.566  0.1924 -0.1620 -0.3660
 4109TIP3   OH233961   3.507   2.982   8.216 -0.1760 -0.1081 -0.5102
 4109TIP3    H133962   3.434   2.992   8.155  0.4017  0.6797 -1.0985
 4109TIP3    H233963   3.585   2.988   8.161  0.4136  2.3717  0.4726
 4110TIP3   OH233964   2.320   5.546   7.483  0.2405 -0.0385  0.0168
 4110TIP3    H133965   2.238   5.579   7.519  0.9047  0.3576  1.2096
 4110TIP3    H233966   2.323   5.581   7.394 -1.5838 -1.2995 -0.6147
 4111TIP3   OH233967   0.038   0.294   3.100  0.1300  0.0148 -0.4737
 4111TIP3    H133968   0.101   0.253   3.159  0.9264  0.9799 -0.6163
 4111TIP3    H233969  -0.020   0.223   3.073 -0.3870 -0.4362  1.6066
 4112TIP3   OH233970   3.509   6.251   2.805 -0.3108  0.2566 -0.5527
 4112TIP3    H133971   3.488   6.329   2.855  0.6312 -0.0234  0.3170
 4112TIP3    H233972   3.598   6.229   2.831 -1.0187 -1.8983  0.2979
 4113TIP3   OH233973   5.145   5.811   2.839  0.2150 -0.2317  0.1381
 4113TIP3    H133974   5.143   5.848   2.927 -0.9852  0.4768 -0.1648
 4113TIP3    H233975   5.133   5.717   2.853  1.9747 -0.3978  0.8257
 4114TIP3   OH233976   1.096   0.683   0.150 -0.1291  0.0702 -0.0322
 4114TIP3    H133977   1.172   0.647   0.105 -0.7224 -2.4889  0.8378
 4114TIP3    H233978   1.025   0.676   0.086 -0.0448  0.6626 -0.1959
 4115TIP3   OH233979   3.471   1.604   0.391  0.0560 -0.0953  0.8188
 4115TIP3    H133980   3.380   1.624   0.412  0.1667  2.1873 -0.5423
 4115TIP3    H233981   3.522   1.668   0.440  0.5578  2.1094 -2.3036
 4116TIP3   OH233982   0.780   3.537   1.168 -0.3750 -0.4945 -0.0476
 4116TIP3    H133983   0.822   3.468   1.220  2.4010 -0.4627 -2.0445
 4116TIP3    H233984   0.846   3.605   1.161 -1.0478  0.0037 -2.5912
 4117TIP3   OH233985   6.743   1.992   1.957  0.7420  0.0658 -0.2122
 4117TIP3    H133986   6.769   2.053   1.888  1.9184  0.1952  0.3204
 4117TIP3    H233987   6.792   2.020   2.034  2.0374 -2.0654 -0.1624
 4118TIP3   OH233988   5.092   5.072   3.176 -0.8835  0.1738 -0.3988
 4118TIP3    H133989   5.166   5.019   3.205 -1.8951 -0.1256  1.8504
 4118TIP3    H233990   5.100   5.154   3.223  0.2266  1.8516 -3.2767
 4119TIP3   OH233991   0.735   0.939   7.950 -0.2301  0.4574  0.2653
 4119TIP3    H133992   0.652   0.951   7.996 -1.1736  1.8236 -1.6291
 4119TIP3    H233993   0.798   0.992   7.999 -1.0496  1.3702  0.3520
 4120TIP3   OH233994   4.920   3.020   0.446  0.7812 -0.2314  0.5478
 4120TIP3    H133995   4.912   3.070   0.365  1.2826  1.1165  1.2910
 4120TIP3    H233996   4.947   3.084   0.511  2.1069 -1.6154  1.4233
 4121TIP3   OH233997   6.623   5.944   7.893 -0.8227  0.5542  0.4702
 4121TIP3    H133998   6.545   5.897   7.921 -0.1826  0.2072  1.7964
 4121TIP3    H233999   6.630   5.927   7.799 -2.1366  0.3211  0.3959
 4122TIP3   OH234000   6.291   4.995   0.427 -0.0886  0.3601 -0.2389
 4122TIP3    H134001   6.205   5.034   0.410  0.2921  1.1080 -0.4872
 4122TIP3    H234002   6.324   5.043   0.503  0.2268  0.2504 -0.3079
 4123TIP3   OH234003   4.754   4.229   7.509  0.4054  0.0583 -0.7872
 4123TIP3    H134004   4.733   4.295   7.442  1.0250  1.2998  0.1946
 4123TIP3    H234005   4.814   4.169   7.466 -0.5838 -0.1888 -1.8698
 4124TIP3   OH234006   4.730   4.090   1.622  0.2110  0.2193  0.3470
 4124TIP3    H134007   4.759   4.100   1.713 -2.0562 -1.1457  1.2805
 4124TIP3    H234008   4.675   4.012   1.622 -2.8883  2.2015 -1.3796
 4125TIP3   OH234009   3.522   6.573   8.199 -0.0043 -0.0591  0.0816
 4125TIP3    H134010   3.455   6.606   8.139  0.8371  0.0496 -0.8392
 4125TIP3    H234011   3.506   6.619   8.281 -1.4856 -0.5608  0.1118
 4126TIP3   OH234012   1.660   5.623   8.360 -0.3635  0.1919 -0.2964
 4126TIP3    H134013   1.669   5.587   8.272 -1.4889  1.2926 -0.9018
 4126TIP3    H234014   1.715   5.567   8.415 -0.3253 -1.0507 -1.5445
 4127TIP3   OH234015   0.622   4.106   1.038 -0.2664  0.0881 -0.1360
 4127TIP3    H134016   0.651   4.028   1.085  3.8344  0.3905 -1.6561
 4127TIP3    H234017   0.595   4.073   0.952  0.3917  0.2126 -0.3967
 4128TIP3   OH234018   0.205   2.160   7.692 -0.2389  0.1278  0.2125
 4128TIP3    H134019   0.179   2.245   7.655 -0.8943  0.1733  0.7699
 4128TIP3    H234020   0.295   2.174   7.721 -0.1261  0.4448 -0.2782
 4129TIP3   OH234021   0.822   0.751   2.225  0.7626  0.0436  0.2499
 4129TIP3    H134022   0.822   0.655   2.232  2.0620 -0.1689 -1.7731
 4129TIP3    H234023   0.858   0.781   2.308  2.1322 -1.3324  0.1977
 4130TIP3   OH234024   5.332   0.323   0.767 -0.1541  0.5705  0.2642
 4130TIP3    H134025   5.264   0.316   0.701 -0.2493 -1.2641  0.4976
 4130TIP3    H234026   5.330   0.414   0.795 -1.4589  0.9001 -0.8369
 4131TIP3   OH234027   0.854   4.025   7.635 -0.2189 -0.7039 -0.1433
 4131TIP3    H134028   0.873   4.054   7.724 -1.2330  2.4622 -0.8563
 4131TIP3    H234029   0.940   4.002   7.599  0.6333  1.0131  0.6875
 4132TIP3   OH234030   5.772   2.309   0.137  0.5848  0.0021  0.3540
 4132TIP3    H134031   5.818   2.297   0.055  0.0611  0.6434 -0.0481
 4132TIP3    H234032   5.700   2.245   0.135 -0.1748  0.8537 -0.2597
 4133TIP3   OH234033   2.056   4.323   2.057  0.2706 -0.2737 -0.1780
 4133TIP3    H134034   2.130   4.335   2.116  0.3359  0.4078 -0.3823
 4133TIP3    H234035   2.077   4.378   1.981 -0.5907  0.1881 -0.0970
 4134TIP3   OH234036   4.217   0.701   1.075  0.0650 -0.7444  0.2013
 4134TIP3    H134037   4.185   0.781   1.116  0.4773 -0.5635  0.1756
 4134TIP3    H234038   4.147   0.637   1.088 -0.6803 -0.1234 -0.6136
 4135TIP3   OH234039   0.856   3.404   8.310 -0.4315 -0.3891 -0.4454
 4135TIP3    H134040   0.910   3.327   8.330  1.5896  0.9668 -0.3953
 4135TIP3    H234041   0.861   3.413   8.215  0.3212  0.3203 -0.3522
 4136TIP3   OH234042   4.286   6.244   1.927 -0.4294 -0.4195 -0.6645
 4136TIP3    H134043   4.351   6.265   1.995 -2.2331 -1.0834  1.3936
 4136TIP3    H234044   4.280   6.149   1.929 -0.9673 -0.4054 -1.3319
 4137TIP3   OH234045   0.005   3.361   2.601 -0.1211 -0.6380 -0.6785
 4137TIP3    H134046  -0.082   3.321   2.600 -1.0783  1.3329 -1.7311
 4137TIP3    H234047  -0.000   3.427   2.670  0.9883 -1.3478  0.1216
 4138TIP3   OH234048   5.810   2.521   7.432 -0.5178  0.3382 -0.0583
 4138TIP3    H134049   5.756   2.451   7.396 -3.7049  2.0896  0.9135
 4138TIP3    H234050   5.835   2.490   7.519  1.9585 -1.3168 -1.2379
 4139TIP3   OH234051   6.521   6.459   7.966 -0.0493  0.1300 -0.1563
 4139TIP3    H134052   6.463   6.504   7.906  0.1441  0.6340  0.0307
 4139TIP3    H234053   6.609   6.480   7.935  0.3787  4.8197  3.2333
 4140TIP3   OH234054   4.356   6.670   0.244 -0.6215 -0.1552  0.3015
 4140TIP3    H134055   4.261   6.664   0.259 -0.5957 -0.3857  0.3729
 4140TIP3    H234056   4.378   6.590   0.197 -0.4058 -0.2595  0.5783
 4141TIP3   OH234057   0.995   0.530   0.662 -0.4894 -0.3825 -0.2462
 4141TIP3    H134058   1.044   0.607   0.692 -0.5373 -0.3535 -0.2418
 4141TIP3    H234059   1.060   0.460   0.658 -0.5038 -0.4121  0.0196
 4142TIP3   OH234060   6.030   6.581   2.735 -0.3161  0.0782  0.3585
 4142TIP3    H134061   5.994   6.669   2.746 -0.1075  0.0522  1.2944
 4142TIP3    H234062   6.034   6.569   2.640  1.0616  1.6515  0.1763
 4143TIP3   OH234063   6.199   1.755   0.037  0.2279 -0.4881  0.5656
 4143TIP3    H134064   6.132   1.688   0.027  0.1522 -0.6974  2.2033
 4143TIP3    H234065   6.242   1.735   0.120  2.0652 -0.1144 -0.2256
 4144TIP3   OH234066   4.662   4.874   1.125 -0.2681  0.0282  0.0984
 4144TIP3    H134067   4.678   4.834   1.211  2.0702  0.7879  0.1072
 4144TIP3    H234068   4.587   4.931   1.139  0.4206  0.5969  1.8494
 4145TIP3   OH234069   0.671   6.990   3.218  0.1939  0.0394 -0.3190
 4145TIP3    H134070   0.731   7.061   3.242  1.2927 -0.6086 -1.0693
 4145TIP3    H234071   0.700   6.962   3.132 -1.2288 -0.2831 -0.7161
 4146TIP3   OH234072   4.635   3.577   0.084  0.4537 -0.0499  0.1518
 4146TIP3    H134073   4.667   3.650   0.031  0.8227 -0.2055  0.1578
 4146TIP3    H234074   4.660   3.499   0.035  0.9784 -0.2026  0.6565
 4147TIP3   OH234075   4.041   6.327   0.287 -0.0691 -0.3239  0.1264
 4147TIP3    H134076   4.047   6.262   0.217  0.1246 -1.0046  0.7617
 4147TIP3    H234077   4.075   6.407   0.247  2.0935 -1.2014  0.0519
 4148TIP3   OH234078   4.953   2.262   7.714  0.3293  0.0839  0.1906
 4148TIP3    H134079   4.891   2.325   7.675  0.5094 -0.2766 -0.7072
 4148TIP3    H234080   4.899   2.204   7.766  0.0813  0.5910  0.5083
 4149TIP3   OH234081   3.059   0.504   7.708 -0.5278 -0.1301 -0.7190
 4149TIP3    H134082   3.148   0.520   7.674 -1.0897  0.1389 -2.1139
 4149TIP3    H234083   3.021   0.442   7.647 -1.3439 -0.1544 -0.1881
 4150TIP3   OH234084   6.479   2.113   0.157  0.1334  0.6033  0.0150
 4150TIP3    H134085   6.460   2.024   0.187 -0.0117  1.0349  1.2660
 4150TIP3    H234086   6.473   2.108   0.061  1.5373 -1.0578 -0.0384
 4151TIP3   OH234087   5.204   2.284   8.195 -0.4565  0.2848  0.3336
 4151TIP3    H134088   5.257   2.210   8.227 -0.1509  0.3127 -0.1104
 4151TIP3    H234089   5.220   2.286   8.101  0.3503  1.5685  0.4815
 4152TIP3   OH234090   2.186   1.242   7.668  0.0814 -0.6500 -0.1460
 4152TIP3    H134091   2.240   1.190   7.608 -0.2465 -1.8985  0.6060
 4152TIP3    H234092   2.098   1.238   7.631 -0.1209 -1.4231  0.4202
 4153TIP3   OH234093   2.605   0.429   2.847 -0.0820 -0.1376 -0.6438
 4153TIP3    H134094   2.542   0.499   2.862 -0.3055 -0.1953 -1.2937
 4153TIP3    H234095   2.663   0.433   2.923  0.6856  1.5615 -1.2825
 4154TIP3   OH234096   4.340   6.273   1.390  0.1257  0.0990  0.1606
 4154TIP3    H134097   4.366   6.184   1.369  1.1175 -0.1114  2.0373
 4154TIP3    H234098   4.422   6.321   1.402 -0.3772  1.4640 -1.3911
 4155TIP3   OH234099   3.417   1.109   6.949  0.4178  0.0631 -0.6851
 4155TIP3    H134100   3.398   1.059   6.870 -1.2431 -0.3726 -0.0512
 4155TIP3    H234101   3.370   1.063   7.018  0.2817  1.5046  0.2278
 4156TIP3   OH234102   4.353   1.305   1.088 -0.0733  0.5182  0.9372
 4156TIP3    H134103   4.336   1.256   1.168  0.8390 -1.1184  0.1827
 4156TIP3    H234104   4.444   1.286   1.067 -0.6893 -0.3400 -1.2810
 4157TIP3   OH234105   2.943   4.215   6.590  0.1110  0.5101 -0.2046
 4157TIP3    H134106   3.013   4.196   6.527  0.6863  0.5742  0.4059
 4157TIP3    H234107   2.867   4.235   6.535 -0.0459 -1.7033 -0.8871
 4158TIP3   OH234108   6.714   5.740   1.187  0.3977  0.0923 -0.0985
 4158TIP3    H134109   6.661   5.666   1.155 -0.5758  1.6309 -2.3311
 4158TIP3    H234110   6.776   5.757   1.116  1.6332  0.4797  1.0417
 4159TIP3   OH234111   2.336   0.014   1.207  0.4512  0.1849  0.2269
 4159TIP3    H134112   2.400  -0.053   1.183  1.1498  0.7691  0.4614
 4159TIP3    H234113   2.253  -0.034   1.212  1.2811 -1.1351  2.6044
 4160TIP3   OH234114   3.369   1.018   1.087 -0.2582 -0.0101 -0.4554
 4160TIP3    H134115   3.393   0.941   1.139  0.0476 -0.4056 -1.1686
 4160TIP3    H234116   3.318   0.983   1.015  0.7281  0.3312 -1.3451
 4161TIP3   OH234117   3.542   6.817   3.408  0.6420 -0.1990 -0.2592
 4161TIP3    H134118   3.506   6.885   3.351  0.2583 -0.9909 -0.9827
 4161TIP3    H234119   3.631   6.847   3.428  1.2637 -0.4821 -2.3277
 4162TIP3   OH234120   4.500   3.462   3.024 -0.4668  0.4994  0.5184
 4162TIP3    H134121   4.595   3.467   3.036 -0.2846 -0.3323 -0.4294
 4162TIP3    H234122   4.476   3.549   2.993  0.0325  0.6540  0.5515
 4163TIP3   OH234123   4.491   6.445   0.136 -0.0682 -0.2875  0.3489
 4163TIP3    H134124   4.556   6.419   0.072 -0.4257 -0.3439  0.0031
 4163TIP3    H234125   4.537   6.506   0.194  1.0811 -2.3997  1.7907
 4164TIP3   OH234126   4.776   3.666   3.234  0.2160  0.1024 -0.0312
 4164TIP3    H134127   4.786   3.581   3.193 -0.8803 -0.0020 -0.1103
 4164TIP3    H234128   4.709   3.710   3.182 -2.1801 -0.5234  2.3043
 4165TIP3   OH234129   1.082   1.495   2.492  0.5211  0.4101  0.2764
 4165TIP3    H134130   1.066   1.589   2.499  1.0938  0.5229  0.1639
 4165TIP3    H234131   1.060   1.461   2.579 -0.4363  0.5233  0.0872
 4166TIP3   OH234132   4.926   3.747   8.208  0.4963 -0.4810  0.0032
 4166TIP3    H134133   4.922   3.841   8.226  1.3175 -0.8516  2.4119
 4166TIP3    H234134   4.913   3.740   8.113 -0.6915  1.9607 -0.0792
 4167TIP3   OH234135   3.670   1.904   7.936  0.0876 -0.2090  0.7779
 4167TIP3    H134136   3.727   1.966   7.980  0.9760 -0.7347  0.3939
 4167TIP3    H234137   3.706   1.897   7.847 -0.1296 -1.0974  0.7494
 4168TIP3   OH234138   3.243   6.179   2.846 -0.6108  1.1232 -0.6317
 4168TIP3    H134139   3.195   6.117   2.791 -0.5905  0.5232  0.0230
 4168TIP3    H234140   3.315   6.209   2.790 -1.2488  1.3932 -1.3296
 4169TIP3   OH234141   1.333   2.658   8.390  0.1216 -0.3021 -0.4322
 4169TIP3    H134142   1.256   2.612   8.356 -0.7909  0.9667 -0.1585
 4169TIP3    H234143   1.297   2.735   8.434  1.4744 -0.3184  0.7695
 4170TIP3   OH234144   5.153   0.321   0.552  0.3517  0.2836 -0.5917
 4170TIP3    H134145   5.058   0.335   0.550  0.5286  1.5313 -1.6031
 4170TIP3    H234146   5.164   0.233   0.515 -0.5284 -0.9457  1.8521
 4171TIP3   OH234147   4.718   1.659   0.226  0.6843  0.2179  0.2377
 4171TIP3    H134148   4.684   1.668   0.315 -0.7578  0.5531 -0.3135
 4171TIP3    H234149   4.799   1.710   0.225  2.4749 -2.3700  2.1968
 4172TIP3   OH234150   6.521   2.666   1.974  0.0655 -0.2029  0.2387
 4172TIP3    H134151   6.528   2.589   1.917 -1.0849 -0.0334 -0.1616
 4172TIP3    H234152   6.559   2.638   2.057  0.1517 -1.0355 -0.0720
 4173TIP3   OH234153   2.138   1.323   2.008 -0.5189 -0.0419 -0.1512
 4173TIP3    H134154   2.211   1.277   1.964 -0.1879  1.1171 -0.8592
 4173TIP3    H234155   2.139   1.411   1.970 -0.8559  0.7055  1.4934
 4174TIP3   OH234156   6.423   2.673   8.233  0.1979 -0.5999 -0.6036
 4174TIP3    H134157   6.506   2.703   8.270 -0.5206  0.2804  0.3619
 4174TIP3    H234158   6.389   2.611   8.298 -0.0053 -0.7749 -0.8780
 4175TIP3   OH234159   4.947   6.162   7.756  0.2736  0.3647 -0.3396
 4175TIP3    H134160   5.000   6.228   7.711  1.2230 -0.6853 -0.7984
 4175TIP3    H234161   4.953   6.187   7.849  1.8039  0.1260 -0.3516
 4176TIP3   OH234162   1.748   0.883   0.267 -0.2155  0.4319 -0.1585
 4176TIP3    H134163   1.703   0.961   0.299 -0.5803  0.4115 -0.6264
 4176TIP3    H234164   1.767   0.902   0.175  0.0321  0.1206 -0.1733
 4177TIP3   OH234165   0.975   3.396   2.840  0.9136 -0.4261  0.1051
 4177TIP3    H134166   1.007   3.469   2.893  0.2092  1.0476 -1.4308
 4177TIP3    H234167   1.055   3.350   2.813  1.5066  0.8142 -0.3404
 4178TIP3   OH234168   3.436   6.984   3.230 -0.1718 -0.2024 -0.1238
 4178TIP3    H134169   3.466   7.005   3.141 -0.8554 -0.5218 -0.4394
 4178TIP3    H234170   3.353   6.939   3.217  0.0303 -0.8205  0.6612
 4179TIP3   OH234171   2.545   5.071   2.000  0.2445  0.2670 -0.0251
 4179TIP3    H134172   2.617   5.012   1.979  0.4915  0.4184  0.3755
 4179TIP3    H234173   2.562   5.098   2.090  0.3808  1.3030 -0.3483
 4180TIP3   OH234174   5.710   4.877   1.630  0.1280  0.4921 -0.0786
 4180TIP3    H134175   5.732   4.916   1.545 -2.1578  1.9041 -0.0969
 4180TIP3    H234176   5.648   4.807   1.608 -1.0252  1.3256  0.4540
 4181TIP3   OH234177   2.806   4.747   1.288 -0.5233 -0.0634 -0.4351
 4181TIP3    H134178   2.871   4.677   1.291 -0.4456 -0.0295 -1.1448
 4181TIP3    H234179   2.855   4.825   1.264 -0.4718  0.4275  1.1600
 4182TIP3   OH234180   1.110   4.707   7.059  0.2517  0.1614 -1.0066
 4182TIP3    H134181   1.098   4.630   7.004 -2.2797  0.5576 -1.1464
 4182TIP3    H234182   1.025   4.751   7.057  0.5836  1.1458  1.8218
 4183TIP3   OH234183   1.982   0.431   1.655  0.1366  0.0697  0.4039
 4183TIP3    H134184   1.889   0.417   1.673  0.3034 -1.0968  0.4610
 4183TIP3    H234185   1.992   0.407   1.563 -0.1763  3.2631 -0.5642
 4184TIP3   OH234186   6.064   2.190   8.304 -0.3984 -0.6461 -0.4053
 4184TIP3    H134187   6.045   2.169   8.213 -1.4909  1.2182 -0.6572
 4184TIP3    H234188   6.058   2.106   8.350  1.4681 -1.8380 -2.2042
 4185TIP3   OH234189   3.771   6.164   0.600 -0.3918 -0.6077 -0.1310
 4185TIP3    H134190   3.827   6.096   0.563 -0.3937 -1.1970  0.9348
 4185TIP3    H234191   3.776   6.236   0.537 -0.5185 -1.6421 -1.3652
 4186TIP3   OH234192   5.891   6.680   1.117  0.2196  0.0992 -1.1093
 4186TIP3    H134193   5.926   6.769   1.119 -0.8429  0.5253 -0.1531
 4186TIP3    H234194   5.963   6.626   1.083  0.7852  1.3544 -1.9678
 4187TIP3   OH234195   5.898   1.089   1.220  0.7587 -0.0014  0.4209
 4187TIP3    H134196   5.888   1.160   1.283 -0.1758 -0.4357  0.7950
 4187TIP3    H234197   5.956   1.124   1.153 -2.0937  2.3082 -1.0880
 4188TIP3   OH234198   5.870   1.262   1.434 -0.2370 -0.4692 -0.6853
 4188TIP3    H134199   5.823   1.333   1.391 -0.1015  0.0376 -0.0263
 4188TIP3    H234200   5.827   1.254   1.520  1.1714  0.3652  0.1423
 4189TIP3   OH234201   3.338   3.538   1.669  0.3843  0.5227 -0.2072
 4189TIP3    H134202   3.325   3.579   1.755  0.8165 -0.0169  0.1182
 4189TIP3    H234203   3.336   3.612   1.608 -0.1865  0.8864  0.2308
 4190TIP3   OH234204   2.319   1.704   7.914  0.0972 -0.0632  0.2850
 4190TIP3    H134205   2.389   1.752   7.869  2.2101 -3.0415  0.0617
 4190TIP3    H234206   2.363   1.663   7.989 -2.2493  0.7290  2.1803
 4191TIP3   OH234207   4.070   1.198   8.208 -0.6465  0.2685 -0.2272
 4191TIP3    H134208   4.009   1.246   8.151 -1.3882 -1.3102 -0.8374
 4191TIP3    H234209   4.050   1.106   8.191  1.9397 -0.3307 -0.4827
 4192TIP3   OH234210   0.794   5.741   8.014 -0.1350 -0.4242  0.1170
 4192TIP3    H134211   0.759   5.657   8.042  0.3596 -1.1438 -1.3070
 4192TIP3    H234212   0.731   5.773   7.949 -0.3655  0.3773  0.7038
 4193TIP3   OH234213   0.223   4.355   2.650 -0.0874  0.1595 -0.7882
 4193TIP3    H134214   0.137   4.319   2.674 -1.6378  3.9216 -0.0960
 4193TIP3    H234215   0.232   4.335   2.557 -0.7216 -1.9593 -0.4652
 4194TIP3   OH234216   4.019   3.164   2.603  0.3512  0.0144 -0.2703
 4194TIP3    H134217   3.986   3.206   2.681  1.0444  0.2186 -0.0777
 4194TIP3    H234218   4.043   3.236   2.544  0.9950 -0.1088 -0.1696
 4195TIP3   OH234219   0.185   6.471   0.588 -0.3135  0.8175  0.3113
 4195TIP3    H134220   0.187   6.542   0.524 -2.8815  1.4678  0.8132
 4195TIP3    H234221   0.204   6.514   0.671  0.9304  0.3709  0.2640
 4196TIP3   OH234222   0.324   1.246   0.271 -0.9523  0.2626 -0.2605
 4196TIP3    H134223   0.278   1.323   0.238 -1.6912 -0.9056 -2.1841
 4196TIP3    H234224   0.298   1.239   0.363 -1.2370  2.0041 -0.1855
 4197TIP3   OH234225   5.428   1.334   7.796  0.8020 -0.1781  0.3864
 4197TIP3    H134226   5.506   1.379   7.763 -0.2695  1.6494  0.2063
 4197TIP3    H234227   5.458   1.288   7.875  1.9459  0.9126  0.6108
 4198TIP3   OH234228   1.622   2.385   1.566  0.3121  0.4931  0.2070
 4198TIP3    H134229   1.661   2.427   1.643 -1.0609  0.0934  1.1811
 4198TIP3    H234230   1.532   2.420   1.564  0.5221  1.0194 -1.6443
 4199TIP3   OH234231   2.864   2.094   7.577 -0.1858 -0.8835  0.4074
 4199TIP3    H134232   2.906   2.123   7.658 -0.4225 -2.0504  0.9689
 4199TIP3    H234233   2.925   2.032   7.539  1.8461  2.5187 -2.4635
 4200TIP3   OH234234   3.224   0.585   0.867  0.0653  0.6946  0.0821
 4200TIP3    H134235   3.133   0.557   0.856  0.4474  0.2033 -2.2608
 4200TIP3    H234236   3.218   0.680   0.883 -0.8346  1.1575 -2.4740
 4201TIP3   OH234237   6.143   0.842   2.055 -0.3596  0.2411 -0.0860
 4201TIP3    H134238   6.236   0.854   2.034  0.3820 -0.9144  2.2315
 4201TIP3    H234239   6.097   0.899   1.993  1.8898  1.0828 -1.0927
 4202TIP3   OH234240   6.853   1.395   2.235 -0.6112  0.2538  0.0725
 4202TIP3    H134241   6.769   1.354   2.258 -0.3332 -0.0166  0.6456
 4202TIP3    H234242   6.917   1.326   2.251 -0.2605  0.5266 -0.1661
 4203TIP3   OH234243   2.364   0.631   8.419 -0.0629 -0.0177  0.3545
 4203TIP3    H134244   2.391   0.615   8.329  1.3580  0.9538  0.5864
 4203TIP3    H234245   2.445   0.646   8.467 -0.8786  0.9419  1.5043
 4204TIP3   OH234246   3.118   3.610   6.659 -0.3476  0.0918 -0.7807
 4204TIP3    H134247   3.160   3.604   6.573 -0.4387  1.1506 -0.9227
 4204TIP3    H234248   3.030   3.574   6.646  0.1206 -1.0786 -0.7658
 4205TIP3   OH234249   0.654   5.034   7.711 -0.0626  0.5465  0.2411
 4205TIP3    H134250   0.660   5.063   7.802  0.8184  0.7959  0.1138
 4205TIP3    H234251   0.693   5.106   7.661  1.0468 -0.3266 -0.1871
 4206TIP3   OH234252   0.843   0.371   8.170  0.7273  0.0373 -0.1135
 4206TIP3    H134253   0.933   0.384   8.201  0.3593 -1.1823  1.5779
 4206TIP3    H234254   0.826   0.278   8.185 -1.0526  0.3899  0.2125
 4207TIP3   OH234255   2.677   3.900   0.381  0.7658  0.0370  0.2868
 4207TIP3    H134256   2.678   3.855   0.297 -2.0880  0.5377 -0.1155
 4207TIP3    H234257   2.738   3.850   0.436  1.1829 -1.4879 -1.4834
 4208TIP3   OH234258   2.945   2.234   0.406  0.2818 -0.7187  0.1382
 4208TIP3    H134259   2.874   2.284   0.364  0.4870  0.0336  0.6642
 4208TIP3    H234260   2.940   2.259   0.498  0.4734 -1.5866  0.3908
 4209TIP3   OH234261   2.341   2.192   0.148  0.1345 -0.3022  0.3541
 4209TIP3    H134262   2.393   2.270   0.171  0.4373 -0.5690  0.5878
 4209TIP3    H234263   2.345   2.137   0.226 -1.9122  0.4054  1.0037
 4210TIP3   OH234264   4.636   4.228   7.002 -0.1523  0.4783 -0.3418
 4210TIP3    H134265   4.630   4.315   7.042  3.0792 -0.1298  1.8912
 4210TIP3    H234266   4.559   4.181   7.035 -0.5202  1.7218  0.6415
 4211TIP3   OH234267   1.867   6.442   8.462 -0.1061  0.4278 -0.7033
 4211TIP3    H134268   1.790   6.401   8.501  0.2394  0.6828  0.2836
 4211TIP3    H234269   1.920   6.469   8.537  0.0675  1.9422 -1.3442
 4212TIP3   OH234270   4.589   5.164   7.147  0.5962 -0.5627 -0.3271
 4212TIP3    H134271   4.624   5.253   7.153  1.0069 -0.7080 -0.4992
 4212TIP3    H234272   4.570   5.153   7.054 -1.8252  0.2218  0.0121
 4213TIP3   OH234273   5.992   3.729   2.619  0.2269 -0.0202  0.0076
 4213TIP3    H134274   6.082   3.699   2.604  0.3675  0.1136  0.5622
 4213TIP3    H234275   6.002   3.814   2.662 -0.1312 -1.0266  2.2063
 4214TIP3   OH234276   2.074   2.450   7.901  0.1410 -0.0390  0.3408
 4214TIP3    H134277   2.049   2.505   7.975 -1.3176  1.2349 -1.0224
 4214TIP3    H234278   2.103   2.511   7.834 -0.5240 -0.9910 -0.8515
 4215TIP3   OH234279   2.940   0.252   1.974  0.3535 -0.2196  0.1609
 4215TIP3    H134280   2.866   0.295   2.016 -0.1153 -0.8446 -0.0129
 4215TIP3    H234281   2.901   0.183   1.921  1.0019 -0.0330 -0.5804
 4216TIP3   OH234282   4.930   1.487   7.830 -0.3254  0.4817  0.1727
 4216TIP3    H134283   4.837   1.476   7.813 -0.3276  1.5834 -0.6436
 4216TIP3    H234284   4.972   1.467   7.746  0.0090  1.8804 -0.0056
 4217TIP3   OH234285   0.021   0.943   7.975 -0.7352  0.2247 -0.2314
 4217TIP3    H134286  -0.041   0.989   8.031 -1.9237 -1.3933 -0.1156
 4217TIP3    H234287  -0.026   0.935   7.891 -0.9200 -1.4118 -0.0078
 4218TIP3   OH234288   5.707   5.293   3.224 -0.1207 -0.1730 -0.1198
 4218TIP3    H134289   5.714   5.341   3.142  4.0099  0.6737  0.4889
 4218TIP3    H234290   5.670   5.357   3.286  1.6369  1.0486 -0.2387
 4219TIP3   OH234291   2.753   3.900   7.391  0.0092  0.7484 -0.2028
 4219TIP3    H134292   2.830   3.852   7.422 -0.6023 -0.7035 -0.8709
 4219TIP3    H234293   2.690   3.892   7.462  0.2226  1.3564  0.0611
 4220TIP3   OH234294   1.019   5.682   2.538  0.2241 -0.2085  0.4766
 4220TIP3    H134295   1.021   5.621   2.464 -0.7017  1.1672 -0.7281
 4220TIP3    H234296   1.038   5.627   2.614 -1.9463 -2.3138 -0.3668
 4221TIP3   OH234297   0.349   4.152   2.848 -0.1902 -0.0766 -0.2435
 4221TIP3    H134298   0.271   4.160   2.903 -0.1869 -0.9394 -0.0968
 4221TIP3    H234299   0.390   4.238   2.853 -0.8778  0.2480  0.0637
 4222TIP3   OH234300   5.240   1.587   0.955 -0.5194 -0.5286 -0.3417
 4222TIP3    H134301   5.221   1.500   0.920 -1.5264  0.0086 -1.1831
 4222TIP3    H234302   5.157   1.615   0.996 -0.2682  0.1128 -0.2574
 4223TIP3   OH234303   2.861   4.895   0.768 -0.4936  0.4699 -0.4994
 4223TIP3    H134304   2.784   4.894   0.712  0.4717 -1.3473 -1.9436
 4223TIP3    H234305   2.877   4.802   0.788  0.8665  0.8609  0.3547
 4224TIP3   OH234306   0.104   0.282   2.842  0.5952 -0.2912 -0.0723
 4224TIP3    H134307   0.132   0.191   2.834 -1.2390 -1.0841  1.5078
 4224TIP3    H234308   0.100   0.298   2.936  1.5578  1.6891 -0.3127
 4225TIP3   OH234309   1.393   0.557   0.483 -0.6261  0.7925 -0.2786
 4225TIP3    H134310   1.303   0.544   0.452  0.1965 -2.0050 -1.9162
 4225TIP3    H234311   1.410   0.650   0.471 -3.1395  1.3031 -0.3504
 4226TIP3   OH234312   0.285   0.115   6.808  0.0124 -0.0148  0.2644
 4226TIP3    H134313   0.247   0.047   6.864 -0.6969  0.1563 -0.0085
 4226TIP3    H234314   0.216   0.180   6.798 -0.1283 -0.3565 -1.3463
 4227TIP3   OH234315   0.175   0.526   7.358 -0.1757 -0.3869 -0.0728
 4227TIP3    H134316   0.112   0.477   7.410  1.4366 -0.8170  1.5838
 4227TIP3    H234317   0.260   0.505   7.397  0.8715  1.2594 -1.3213
 4228TIP3   OH234318   0.878   2.820   0.462 -0.0599 -0.4039  0.0864
 4228TIP3    H134319   0.860   2.737   0.418 -0.7083 -0.6060  0.7024
 4228TIP3    H234320   0.801   2.835   0.517  0.5572  0.0139  0.8707
 4229TIP3   OH234321   3.438   1.939   2.474  0.5094 -0.2230  0.1860
 4229TIP3    H134322   3.357   1.916   2.428  0.0588  0.4139  0.6341
 4229TIP3    H234323   3.508   1.918   2.413 -0.0506  0.1604 -0.6064
 4230TIP3   OH234324   2.229   3.500   6.692 -0.1179 -0.6125 -0.5570
 4230TIP3    H134325   2.304   3.551   6.722  0.1175 -0.5558 -1.2361
 4230TIP3    H234326   2.259   3.409   6.695 -0.4877 -0.7140  0.5076
 4231TIP3   OH234327   4.141   2.822   0.071 -0.2215 -0.4958  0.0388
 4231TIP3    H134328   4.129   2.888   0.139  0.6212 -1.2728  0.9600
 4231TIP3    H234329   4.141   2.739   0.118  1.4418 -0.9810 -0.7667
 4232TIP3   OH234330   1.190   2.287   7.986 -0.2100 -0.5054  0.3492
 4232TIP3    H134331   1.222   2.341   8.058  0.8312 -0.0075 -0.4609
 4232TIP3    H234332   1.101   2.263   8.012 -0.1834  0.4190  1.3754
 4233TIP3   OH234333   0.021   5.366   2.014  0.4107 -0.1126 -0.0457
 4233TIP3    H134334  -0.005   5.458   2.004  0.2966 -0.2726 -1.4267
 4233TIP3    H234335  -0.035   5.319   1.953  0.1410 -1.1806  1.0005
 4234TIP3   OH234336   4.642   2.372   2.360 -0.0873 -0.3750 -0.1360
 4234TIP3    H134337   4.636   2.466   2.346  1.0661  0.0528  1.8648
 4234TIP3    H234338   4.727   2.348   2.324 -0.4233 -0.7005 -0.7390
 4235TIP3   OH234339   3.326   2.272   7.585 -0.0910  0.3753 -0.0240
 4235TIP3    H134340   3.378   2.208   7.536 -0.0140  0.1426  0.3545
 4235TIP3    H234341   3.291   2.331   7.518  1.3553  1.0551 -0.2226
 4236TIP3   OH234342   5.964   3.797   7.900 -0.0593 -0.2752  0.3740
 4236TIP3    H134343   5.935   3.832   7.816  2.1850 -3.2841 -1.8685
 4236TIP3    H234344   5.885   3.758   7.938 -1.6611  3.1844  1.0177
 4237TIP3   OH234345   1.472   3.138   0.291 -0.0368  0.4486  0.4117
 4237TIP3    H134346   1.519   3.086   0.227  0.2864 -0.0046  1.0136
 4237TIP3    H234347   1.498   3.228   0.273 -0.3534  0.3789 -0.4236
 4238TIP3   OH234348   3.357   4.580   2.236 -0.5774  0.2593 -0.1816
 4238TIP3    H134349   3.353   4.612   2.326  2.4848  0.7351 -0.0834
 4238TIP3    H234350   3.276   4.530   2.224 -0.7073 -0.5743  3.1156
 4239TIP3   OH234351   1.791   4.284   1.217  0.2812  0.1251  0.0154
 4239TIP3    H134352   1.787   4.200   1.263  0.0293  0.6216  0.9088
 4239TIP3    H234353   1.884   4.306   1.216  0.2907  0.0967  0.2587
 4240TIP3   OH234354   0.784   6.887   2.973 -0.2870 -0.1277  0.1214
 4240TIP3    H134355   0.879   6.876   2.966 -0.3510 -0.0450 -1.0206
 4240TIP3    H234356   0.748   6.807   2.936 -0.6853 -1.1527  2.5161
 4241TIP3   OH234357   3.513   5.045   0.946  0.0955 -0.0688 -0.1982
 4241TIP3    H134358   3.527   5.116   1.009 -1.5661  1.2862 -1.2535
 4241TIP3    H234359   3.488   5.090   0.865 -2.1349 -1.8708 -0.5982
 4242TIP3   OH234360   2.537   1.825   8.222  0.1990  0.4893  0.2494
 4242TIP3    H134361   2.448   1.792   8.207  0.1969  1.2342 -1.6481
 4242TIP3    H234362   2.529   1.883   8.298 -1.3381  1.9814 -0.9947
 4243TIP3   OH234363   3.716   5.734   2.327 -0.3919 -0.1061 -0.6124
 4243TIP3    H134364   3.803   5.772   2.322 -0.8141  0.9675 -0.0571
 4243TIP3    H234365   3.666   5.794   2.382 -1.6364 -0.3871 -1.3845
 4244TIP3   OH234366   0.721   2.057   8.151 -0.1479  0.1696 -0.0285
 4244TIP3    H134367   0.653   2.099   8.098  0.5689  2.6001  0.8474
 4244TIP3    H234368   0.673   1.997   8.208 -1.1586 -0.7016 -1.6960
 4245TIP3   OH234369   4.333   5.636   7.761 -0.3514  0.1095 -0.3897
 4245TIP3    H134370   4.401   5.652   7.826 -0.3073  1.3664 -0.7241
 4245TIP3    H234371   4.258   5.607   7.813  0.5518 -1.7654 -0.0596
 4246TIP3   OH234372   4.784   5.549   0.060  0.5295  0.3709 -0.2624
 4246TIP3    H134373   4.802   5.461   0.094 -1.1493  0.6988  1.6596
 4246TIP3    H234374   4.828   5.608   0.122  1.0220  0.9263 -1.1254
 4247TIP3   OH234375   4.293   2.347   2.317  0.0213 -0.4025  0.1899
 4247TIP3    H134376   4.205   2.329   2.349 -0.0831 -0.1519  0.0498
 4247TIP3    H234377   4.288   2.328   2.223 -0.0558  0.2133  0.0648
 4248TIP3   OH234378   5.982   1.051   6.720  0.1605  0.0066 -0.3584
 4248TIP3    H134379   5.994   1.116   6.651  0.8859 -0.3819 -0.6101
 4248TIP3    H234380   6.068   1.044   6.762  0.6377 -2.1159 -1.5363
 4249TIP3   OH234381   4.174   2.347   8.122  0.1583 -0.6287 -0.6511
 4249TIP3    H134382   4.204   2.269   8.169 -0.6568  0.4227  1.7151
 4249TIP3    H234383   4.080   2.336   8.114  0.0972 -0.0701 -0.7197
 4250TIP3   OH234384   6.392   4.365   8.369  0.5033  0.1679  0.4505
 4250TIP3    H134385   6.378   4.459   8.362  0.5267  0.0415 -2.9239
 4250TIP3    H234386   6.305   4.328   8.382  0.4267  0.5902  1.1786
 4251TIP3   OH234387   0.845   0.111   7.541  0.1721  0.0919 -0.6808
 4251TIP3    H134388   0.777   0.051   7.508 -0.6015  0.4785  0.1618
 4251TIP3    H234389   0.796   0.186   7.574  0.7352 -0.8070  2.5881
 4252TIP3   OH234390   5.527   1.280   1.573 -0.1766  1.0887  0.4561
 4252TIP3    H134391   5.610   1.281   1.620 -0.0159  1.6899  0.1685
 4252TIP3    H234392   5.506   1.372   1.559 -0.8472  0.9374  0.4449
 4253TIP3   OH234393   6.031   0.602   2.138  0.2082 -0.1232  0.0118
 4253TIP3    H134394   6.049   0.672   2.074 -0.7901  0.3907  0.2829
 4253TIP3    H234395   6.032   0.646   2.223 -0.5437 -0.4104  0.1749
 4254TIP3   OH234396   5.545   2.954   0.061  0.2273  0.0146 -0.0099
 4254TIP3    H134397   5.552   2.952   0.156  0.9459  1.4203 -0.0091
 4254TIP3    H234398   5.548   3.047   0.038 -0.1517 -0.2821 -1.3929
 4255TIP3   OH234399   1.288   0.992   7.687 -0.1690 -0.4428 -0.0530
 4255TIP3    H134400   1.239   1.049   7.628 -1.6602 -1.1432  0.4568
 4255TIP3    H234401   1.348   1.050   7.734  0.5716  0.2203 -1.7430
 4256TIP3   OH234402   2.054   1.672   7.859  0.2095 -0.7517 -0.4223
 4256TIP3    H134403   1.993   1.730   7.904 -0.4943 -0.1652 -2.0444
 4256TIP3    H234404   2.141   1.701   7.887 -0.1706  0.4248 -0.4271
 4257TIP3   OH234405   5.225   1.454   3.492 -0.1134  0.0469 -0.0833
 4257TIP3    H134406   5.248   1.456   3.399  0.0048  1.3022 -0.0442
 4257TIP3    H234407   5.190   1.366   3.506  1.5052 -0.7741 -0.9057
 4258TIP3   OH234408   0.889   5.259   1.902 -0.7315  0.1604 -0.1069
 4258TIP3    H134409   0.821   5.305   1.852 -0.2949  0.0845 -0.7684
 4258TIP3    H234410   0.924   5.326   1.961 -0.5152  0.5291 -0.6469
 4259TIP3   OH234411   0.338   4.236   7.369 -0.3406  0.3101 -0.3297
 4259TIP3    H134412   0.299   4.156   7.406  0.5520  0.2863  0.6155
 4259TIP3    H234413   0.267   4.276   7.319 -0.9746 -0.7697 -0.3334
 4260TIP3   OH234414   6.566   0.785   7.960 -0.0994 -0.0969  0.2409
 4260TIP3    H134415   6.592   0.877   7.966 -0.0800 -0.0346 -0.6993
 4260TIP3    H234416   6.475   0.788   7.931  0.6592 -0.3866 -2.3833
 4261TIP3   OH234417   3.721   1.497   0.641 -0.2810  0.0531 -0.5488
 4261TIP3    H134418   3.700   1.587   0.619 -0.4205  0.2466  0.3367
 4261TIP3    H234419   3.683   1.484   0.728 -0.0380 -0.7758 -0.5573
 4262TIP3   OH234420   0.368   2.399   2.509  0.1545 -0.0762  0.2510
 4262TIP3    H134421   0.397   2.340   2.440  1.8138  0.7027  0.2318
 4262TIP3    H234422   0.293   2.445   2.472  0.4130 -0.3679 -0.6608
 4263TIP3   OH234423   0.108   4.376   8.466  0.0666  0.1484 -0.4246
 4263TIP3    H134424   0.182   4.395   8.523  0.5529  0.8331 -1.2430
 4263TIP3    H234425   0.093   4.458   8.418 -1.6033  0.2076  0.1299
 4264TIP3   OH234426   1.706   0.380   7.322 -0.2479  0.1591 -0.0076
 4264TIP3    H134427   1.667   0.400   7.237 -0.5798  1.7424  0.4849
 4264TIP3    H234428   1.795   0.415   7.317 -0.6021  1.1929  0.6336
 4265TIP3   OH234429   3.867   6.584   7.716  0.0578  0.4566 -0.1737
 4265TIP3    H134430   3.779   6.616   7.735 -0.6369 -0.9729 -0.8737
 4265TIP3    H234431   3.910   6.582   7.801 -0.0371  2.6277 -0.0083
 4266TIP3   OH234432   6.286   0.321   1.866 -0.2977  0.2565  0.1001
 4266TIP3    H134433   6.247   0.378   1.799  1.2671  1.0913 -0.1490
 4266TIP3    H234434   6.315   0.244   1.817  2.0394  1.4321 -0.4928
 4267TIP3   OH234435   2.054   5.209   8.071 -0.1770 -0.6023 -0.2548
 4267TIP3    H134436   1.987   5.221   8.138 -0.5301  1.0423 -0.8716
 4267TIP3    H234437   2.067   5.114   8.067 -1.7907 -0.8829  0.5167
 4268TIP3   OH234438   2.180   1.098   1.622 -0.1745 -0.7303 -0.0280
 4268TIP3    H134439   2.220   1.119   1.706  2.1165  1.3917 -1.4818
 4268TIP3    H234440   2.184   1.002   1.616 -0.3738 -0.9140  2.2288
 4269TIP3   OH234441   5.149   3.848   7.711 -0.2506 -0.2629  0.4749
 4269TIP3    H134442   5.080   3.782   7.712  0.4548 -1.0185 -0.1201
 4269TIP3    H234443   5.146   3.885   7.622  2.0681 -2.4325 -0.6065
 4270TIP3   OH234444   3.923   6.458   7.978  0.8773  0.1055 -0.1290
 4270TIP3    H134445   3.843   6.508   7.962  1.6522  1.0314 -1.2499
 4270TIP3    H234446   3.903   6.406   8.056 -0.3061  1.4278  0.5038
 4271TIP3   OH234447   0.111   0.149   8.280 -0.8497  0.0963 -0.4633
 4271TIP3    H134448   0.153   0.224   8.321 -0.7273  0.0870 -0.5717
 4271TIP3    H234449   0.180   0.083   8.273 -0.8848  0.0761 -0.6262
 4272TIP3   OH234450   5.304   3.671   1.527  0.0268  0.4187 -0.2807
 4272TIP3    H134451   5.383   3.650   1.477 -0.8447 -1.2359 -1.0230
 4272TIP3    H234452   5.249   3.720   1.466 -0.1727  0.1892 -0.2880
 4273TIP3   OH234453   0.550   6.592   1.203 -0.1288  0.0566 -0.3133
 4273TIP3    H134454   0.528   6.609   1.295 -0.3521  0.3058 -0.4122
 4273TIP3    H234455   0.552   6.679   1.163 -1.3442 -0.1472 -0.8410
 4274TIP3   OH234456   5.247   6.894   0.878 -0.3868 -0.0783 -0.1647
 4274TIP3    H134457   5.318   6.844   0.837  0.3816  1.5166 -0.8263
 4274TIP3    H234458   5.290   6.965   0.924 -1.5445  1.0838 -0.8012
 4275TIP3   OH234459   2.345   5.797   1.839  0.6592 -0.6951  0.8266
 4275TIP3    H134460   2.402   5.802   1.916  1.2508 -1.0358  0.4118
 4275TIP3    H234461   2.289   5.875   1.846  0.8129 -0.6397  1.5192
 4276TIP3   OH234462   4.710   6.701   8.183 -0.2524 -0.2893  0.1782
 4276TIP3    H134463   4.644   6.697   8.252  0.1455  1.2970  0.6896
 4276TIP3    H234464   4.662   6.725   8.104 -0.8247 -2.7917 -0.3285
 4277TIP3   OH234465   4.181   1.597   0.139 -0.6298 -0.3330 -0.1669
 4277TIP3    H134466   4.261   1.596   0.191 -0.4609  0.9144 -0.3719
 4277TIP3    H234467   4.144   1.510   0.151  0.6730 -0.8848  0.0521
 4278TIP3   OH234468   6.437   5.534   8.220  0.8418 -0.3101  0.1050
 4278TIP3    H134469   6.381   5.482   8.162  0.2539  0.6432 -0.2019
 4278TIP3    H234470   6.410   5.508   8.309  1.0364 -1.0306 -0.0432
 4279TIP3   OH234471   2.159   4.826   8.442  0.2088 -0.0497  0.0500
 4279TIP3    H134472   2.173   4.798   8.351 -0.2095 -1.3505  0.3597
 4279TIP3    H234473   2.095   4.897   8.435 -1.0599 -1.1996 -0.5967
 4280TIP3   OH234474   6.715   0.279   3.179 -0.2119 -0.1791 -0.3138
 4280TIP3    H134475   6.726   0.374   3.190 -0.3076 -0.2231  0.1718
 4280TIP3    H234476   6.738   0.242   3.264  1.0114 -0.6996 -0.8439
 4281TIP3   OH234477   1.366   4.261   1.357  0.0711 -0.1611 -0.1611
 4281TIP3    H134478   1.418   4.339   1.338 -0.0619  0.0729  0.4108
 4281TIP3    H234479   1.276   4.294   1.364  0.1854 -0.1380  1.4298
 4282TIP3   OH234480   3.046   3.126   7.510  0.3616  0.5217  0.3163
 4282TIP3    H134481   3.059   3.047   7.458  0.8053  0.2350  0.8581
 4282TIP3    H234482   3.053   3.098   7.601  0.0228  1.0964  0.5299
 4283TIP3   OH234483   5.393   1.845   0.646  0.0995 -0.4723  0.0009
 4283TIP3    H134484   5.440   1.815   0.568  0.4806 -2.9375  1.0992
 4283TIP3    H234485   5.456   1.902   0.691  0.0258  0.6303 -1.2291
 4284TIP3   OH234486   1.476   0.357   7.468 -0.0616  0.0998  0.0695
 4284TIP3    H134487   1.476   0.450   7.489 -0.5803  0.1721 -0.2449
 4284TIP3    H234488   1.544   0.347   7.402 -0.6666  0.4197 -0.6062
 4285TIP3   OH234489   1.623   4.685   0.615 -0.1491  0.4044 -0.6512
 4285TIP3    H134490   1.624   4.662   0.522 -0.0388 -0.7902 -0.3726
 4285TIP3    H234491   1.710   4.719   0.633 -0.5092  1.6703 -1.2154
 4286TIP3   OH234492   2.599   6.781   1.710  0.2682  0.1145 -0.2767
 4286TIP3    H134493   2.528   6.774   1.648  0.7744 -2.8003 -0.6656
 4286TIP3    H234494   2.562   6.752   1.794  0.8297 -0.9395 -0.3743
 4287TIP3   OH234495   5.214   6.020   7.240  0.0659 -0.0566  0.2509
 4287TIP3    H134496   5.220   6.104   7.195 -0.0840 -0.1014  0.1472
 4287TIP3    H234497   5.245   5.956   7.176  2.1648  0.1365  1.0005
 4288TIP3   OH234498   2.321   0.631   0.921 -0.2781  0.4927  0.3536
 4288TIP3    H134499   2.277   0.556   0.962  0.6821 -0.2536  0.0598
 4288TIP3    H234500   2.291   0.707   0.971 -0.6952 -0.1732  1.1385
 4289TIP3   OH234501   4.304   1.296   1.636  0.0840 -0.3007  0.2487
 4289TIP3    H134502   4.343   1.215   1.669  1.7751 -0.2702 -1.5328
 4289TIP3    H234503   4.232   1.268   1.581  1.2915 -0.7004 -1.1834
 4290TIP3   OH234504   2.783   5.997   7.657  0.2576  0.0256  0.0035
 4290TIP3    H134505   2.707   5.939   7.652 -0.8416  1.3308  0.6204
 4290TIP3    H234506   2.822   5.977   7.742 -0.8954  1.0462  0.8123
 4291TIP3   OH234507   0.364   1.730   2.141 -0.3069 -0.2477  0.5256
 4291TIP3    H134508   0.377   1.754   2.050  0.7761  0.3389  0.8106
 4291TIP3    H234509   0.300   1.658   2.139  0.9365 -1.3769 -0.8279
 4292TIP3   OH234510   5.975   6.478   8.194 -0.2049  0.6647 -0.2324
 4292TIP3    H134511   5.909   6.528   8.145 -0.5538  0.0469 -0.4017
 4292TIP3    H234512   5.936   6.465   8.280 -1.5583 -2.0672 -1.1388
 4293TIP3   OH234513   2.421   3.807   0.428 -0.8102  0.2302 -0.7135
 4293TIP3    H134514   2.397   3.760   0.348 -0.6128 -1.3328  0.1110
 4293TIP3    H234515   2.512   3.832   0.415 -0.7307 -0.1566 -0.9240
 4294TIP3   OH234516   6.812   2.862   0.052  0.3007 -0.2427 -0.6457
 4294TIP3    H134517   6.758   2.862  -0.027 -1.3322  0.8438  0.4261
 4294TIP3    H234518   6.865   2.942   0.044 -2.5370  1.9990  0.9974
 4295TIP3   OH234519   6.168   6.385   2.290  0.1093  0.2747 -0.1714
 4295TIP3    H134520   6.225   6.380   2.213  0.4168  0.7739  0.0195
 4295TIP3    H234521   6.214   6.335   2.357  0.8224  1.4900  0.2802
 4296TIP3   OH234522   0.362   2.182   0.065  0.4655 -0.6266 -0.6266
 4296TIP3    H134523   0.292   2.174   0.130 -1.7143  0.2438 -2.7187
 4296TIP3    H234524   0.428   2.117   0.093 -0.7767 -0.9514  1.8516
 4297TIP3   OH234525   5.440   2.086   1.274 -0.0117  0.3653 -0.0003
 4297TIP3    H134526   5.444   2.070   1.368  0.0241 -0.0766 -0.0781
 4297TIP3    H234527   5.401   2.174   1.267  2.1013  1.3991  0.4813
 4298TIP3   OH234528   4.678   2.774   0.292 -0.9487 -0.4003 -0.2827
 4298TIP3    H134529   4.615   2.844   0.280 -1.1640 -0.8597 -1.9880
 4298TIP3    H234530   4.729   2.772   0.211  1.5439  0.1920  1.1481
 4299TIP3   OH234531   3.541   1.473   8.136 -0.0003 -0.1702  0.5419
 4299TIP3    H134532   3.501   1.553   8.169  0.0729  2.5351 -4.7896
 4299TIP3    H234533   3.630   1.499   8.112  0.8118 -2.5565  0.6469
 4300TIP3   OH234534   3.331   1.819   2.708  0.0521 -0.6286 -0.6228
 4300TIP3    H134535   3.373   1.869   2.638  0.6910  0.1658  0.2991
 4300TIP3    H234536   3.373   1.733   2.703 -0.1327 -0.6871 -1.4027
 4301TIP3   OH234537   6.256   1.854   0.989  0.7886  0.3012 -0.3338
 4301TIP3    H134538   6.272   1.777   0.934  0.0435 -2.6057  3.1569
 4301TIP3    H234539   6.343   1.892   1.002  1.6473 -1.6669  0.0484
 4302TIP3   OH234540   6.779   2.037   0.274 -0.3566 -0.1693  0.1282
 4302TIP3    H134541   6.709   2.096   0.299  0.4800  1.4957 -1.2279
 4302TIP3    H234542   6.853   2.063   0.329 -0.2175 -0.5829  0.1465
 4303TIP3   OH234543   6.265   3.226   2.616 -1.1865 -0.0803  0.1576
 4303TIP3    H134544   6.267   3.313   2.656 -1.7898  0.4221 -0.8727
 4303TIP3    H234545   6.288   3.166   2.688  0.5548  1.0194  0.5796
 4304TIP3   OH234546   5.894   4.554   1.488  1.1687 -0.2539 -0.2650
 4304TIP3    H134547   5.932   4.569   1.575 -3.1790 -0.5922  1.9636
 4304TIP3    H234548   5.848   4.470   1.496 -3.9143  2.0756 -0.8193
 4305TIP3   OH234549   3.339   0.209   7.819 -0.2199 -0.8143  0.7756
 4305TIP3    H134550   3.266   0.198   7.880  0.2532  2.5968  2.1981
 4305TIP3    H234551   3.404   0.146   7.849 -1.8641 -2.7279  0.5502
 4306TIP3   OH234552   4.375   3.331   1.623 -0.3865  0.1011 -0.4185
 4306TIP3    H134553   4.407   3.404   1.676 -0.2202  0.8416 -1.5043
 4306TIP3    H234554   4.454   3.281   1.602 -0.6181 -1.0502  1.2129
 4307TIP3   OH234555   6.302   3.912   0.254 -0.5826  0.1782 -0.0375
 4307TIP3    H134556   6.298   3.973   0.181  0.0150 -0.5851 -0.7280
 4307TIP3    H234557   6.395   3.907   0.277 -0.6012 -0.5988 -0.1027
 4308TIP3   OH234558   1.823   6.287   8.088 -0.0044  0.0907  0.5223
 4308TIP3    H134559   1.753   6.276   8.152  0.8308 -2.4199  1.1478
 4308TIP3    H234560   1.900   6.312   8.140  0.7542 -2.2614  0.6766
 4309TIP3   OH234561   5.499   6.746   7.678 -0.6619  0.1979  0.1139
 4309TIP3    H134562   5.505   6.764   7.584 -1.8694 -0.2793 -0.0690
 4309TIP3    H234563   5.445   6.817   7.713  0.6706  0.9969  0.6700
 4310TIP3   OH234564   6.606   6.121   0.166 -0.8443 -0.0500  0.0893
 4310TIP3    H134565   6.678   6.180   0.186 -1.5580  1.3498 -1.2651
 4310TIP3    H234566   6.648   6.043   0.129 -0.0150  0.7752 -0.7440
 4311TIP3   OH234567   3.995   2.802   1.984 -0.2465 -0.1309  0.0161
 4311TIP3    H134568   4.015   2.867   1.916 -1.0081  3.0124  2.5193
 4311TIP3    H234569   3.911   2.765   1.957  0.1914 -0.0910 -1.4932
 4312TIP3   OH234570   3.801   3.817   8.113  0.0259  0.3834  0.3323
 4312TIP3    H134571   3.724   3.869   8.088  0.2550 -0.5154 -2.5452
 4312TIP3    H234572   3.876   3.874   8.092  0.2177 -0.2413 -0.7338
 4313TIP3   OH234573   6.160   2.395   7.386  0.0729 -0.0921  0.3082
 4313TIP3    H134574   6.085   2.336   7.379 -0.9035  0.8178  2.3871
 4313TIP3    H234575   6.151   2.455   7.313 -0.3508 -0.9301 -0.3424
 4314TIP3   OH234576   1.280   2.690   2.903 -0.4106  0.4751 -0.1911
 4314TIP3    H134577   1.372   2.692   2.928 -0.4491 -1.5154  0.3384
 4314TIP3    H234578   1.235   2.739   2.971  0.0189 -0.8058  1.0782
 4315TIP3   OH234579   4.034   4.185   3.184 -0.1286 -0.0100  0.2919
 4315TIP3    H134580   4.013   4.122   3.253  2.8036  0.4347  1.7562
 4315TIP3    H234581   4.098   4.244   3.223  0.9798  0.8524 -2.5171
 4316TIP3   OH234582   2.209   2.528   7.405 -0.2107  0.2928  0.1384
 4316TIP3    H134583   2.120   2.553   7.432  0.4391 -0.0328  2.8707
 4316TIP3    H234584   2.214   2.553   7.313 -3.4532 -0.5730 -0.3963
 4317TIP3   OH234585   4.062   4.004   2.420  0.3315  0.1245 -0.4374
 4317TIP3    H134586   4.069   3.927   2.477  1.0797 -0.0341 -0.7320
 4317TIP3    H234587   3.971   4.004   2.391  0.5376 -1.1508 -1.1244
 4318TIP3   OH234588   5.777   0.870   0.086 -0.2500 -0.1932 -0.0433
 4318TIP3    H134589   5.771   0.798   0.150 -1.0309  0.1706  0.2977
 4318TIP3    H234590   5.729   0.838   0.010 -1.2990  0.2622  0.4016
 4319TIP3   OH234591   2.329   4.088   8.245  0.3105  0.1522 -1.0070
 4319TIP3    H134592   2.348   4.175   8.210  2.8585 -0.0746 -0.3415
 4319TIP3    H234593   2.300   4.037   8.169 -2.4029  1.7925 -1.2284
 4320TIP3   OH234594   0.103   1.322   1.514  0.3195  0.2643 -0.0278
 4320TIP3    H134595   0.133   1.368   1.435 -2.0611  1.7122 -0.1673
 4320TIP3    H234596   0.068   1.390   1.570 -1.0417 -1.1096  0.8703
 4321TIP3   OH234597   1.421   4.809   1.764  0.2352 -0.0123  0.2570
 4321TIP3    H134598   1.483   4.736   1.761 -1.0615 -1.1257 -0.7797
 4321TIP3    H234599   1.423   4.845   1.676  0.9250  1.2924  0.7840
 4322TIP3   OH234600   3.751   5.097   1.283  0.8187  0.4497 -0.3452
 4322TIP3    H134601   3.659   5.120   1.265  0.9338 -0.1424 -1.8070
 4322TIP3    H234602   3.799   5.178   1.267  0.2731  1.7765  3.7141
 4323TIP3   OH234603   5.601   0.736   2.163 -0.2953  0.2072 -0.2081
 4323TIP3    H134604   5.680   0.768   2.206  0.1266 -1.1502  0.0611
 4323TIP3    H234605   5.552   0.692   2.233 -1.5628  1.4686 -0.2469
 4324TIP3   OH234606   6.473   1.507   8.363  0.1907  0.2531  0.4688
 4324TIP3    H134607   6.384   1.484   8.392  0.6164 -1.7273  0.3114
 4324TIP3    H234608   6.466   1.514   8.268  0.5467 -1.8859  0.2263
 4325TIP3   OH234609   2.115   1.684   2.063 -0.1303  0.0514 -0.2064
 4325TIP3    H134610   2.190   1.691   2.004  0.4862  1.9829  0.7220
 4325TIP3    H234611   2.094   1.591   2.065  2.6559 -0.6469 -0.0020
 4326TIP3   OH234612   6.487   0.217   0.293  0.0384 -0.4520 -0.0624
 4326TIP3    H134613   6.494   0.312   0.295 -1.4811 -0.3164 -0.4075
 4326TIP3    H234614   6.444   0.194   0.376  0.7675 -0.8846  0.2090
 4327TIP3   OH234615   2.136   3.328   7.502 -0.5932  0.1369  0.2572
 4327TIP3    H134616   2.186   3.386   7.560  0.3753 -0.6091  0.1917
 4327TIP3    H234617   2.202   3.289   7.445 -1.0984 -1.7077  0.8718
 4328TIP3   OH234618   5.567   6.330   2.943  0.3403  0.0119  0.0412
 4328TIP3    H134619   5.486   6.380   2.946  0.6953  0.6008 -0.0916
 4328TIP3    H234620   5.635   6.394   2.922  0.9172 -0.3869  0.6520
 4329TIP3   OH234621   5.268   3.534   8.210 -0.5412 -0.2310  0.0801
 4329TIP3    H134622   5.228   3.449   8.190 -1.8048  0.1912  0.6665
 4329TIP3    H234623   5.339   3.544   8.147 -1.5649 -0.8913 -1.2060
 4330TIP3   OH234624   6.512   3.147   0.411 -0.0535  0.2043  0.4858
 4330TIP3    H134625   6.509   3.199   0.330  0.9924 -1.7565 -0.9107
 4330TIP3    H234626   6.517   3.056   0.380  0.0953 -0.6254  2.7941
 4331TIP3   OH234627   0.201   0.182   1.574 -0.2596 -0.2979 -0.4780
 4331TIP3    H134628   0.244   0.263   1.602 -0.5922  0.9802 -3.2918
 4331TIP3    H234629   0.274   0.122   1.557  0.1673  0.2671 -0.7129
 4332TIP3   OH234630   5.501   0.012   7.877 -0.6288  0.1697 -0.0729
 4332TIP3    H134631   5.581   0.027   7.929  0.6894 -0.2884 -1.8623
 4332TIP3    H234632   5.451  -0.050   7.929 -0.0052  0.7349  1.2717
 4333TIP3   OH234633   6.742   4.541   7.427  0.1208  0.3100  0.3570
 4333TIP3    H134634   6.695   4.490   7.361  0.2792  0.3480  0.2126
 4333TIP3    H234635   6.701   4.518   7.510 -0.4708  0.7030  0.1799
 4334TIP3   OH234636   6.293   6.587   7.833  0.7066  0.2751  0.8221
 4334TIP3    H134637   6.246   6.655   7.881 -1.0628  0.0924 -0.5678
 4334TIP3    H234638   6.332   6.632   7.759  2.4925  0.3490  1.7459
 4335TIP3   OH234639   4.110   3.071   0.280 -0.6182  0.5340 -0.5089
 4335TIP3    H134640   4.183   3.123   0.313  0.7122  0.3362 -2.8878
 4335TIP3    H234641   4.058   3.132   0.227  0.6527 -0.2929 -2.8700
 4336TIP3   OH234642   3.395   5.831   8.425 -0.0541 -0.4050  0.3780
 4336TIP3    H134643   3.423   5.890   8.356 -2.6153  1.0432  0.4979
 4336TIP3    H234644   3.459   5.845   8.495  1.4020 -0.4262 -0.8839
 4337TIP3   OH234645   4.242   0.515   0.227 -0.2380 -0.0619 -0.3962
 4337TIP3    H134646   4.173   0.479   0.171 -1.6361 -0.2678  1.3837
 4337TIP3    H234647   4.256   0.449   0.294  1.8977 -0.1227 -0.8188
 4338TIP3   OH234648   6.331   4.876   1.464 -0.1126 -0.2589 -0.5509
 4338TIP3    H134649   6.403   4.890   1.526  0.0162  1.1218 -0.9734
 4338TIP3    H234650   6.290   4.795   1.492 -0.1357  0.3921  1.4209
 4339TIP3   OH234651   0.176   3.901   8.149  0.1216  0.1821  0.0823
 4339TIP3    H134652   0.210   3.945   8.071 -1.5199  0.2849 -0.6062
 4339TIP3    H234653   0.086   3.932   8.157  0.0144 -0.4319  1.5825
 4340TIP3   OH234654   5.527   1.875   2.929  0.2423  0.2420  0.2120
 4340TIP3    H134655   5.596   1.942   2.933  0.5155  0.0486 -0.9284
 4340TIP3    H234656   5.450   1.918   2.965  0.0992  1.5988 -1.6095
 4341TIP3   OH234657   3.444   0.110   1.422 -0.1844 -0.0124  0.4502
 4341TIP3    H134658   3.410   0.021   1.434  0.5581 -0.2447  0.9571
 4341TIP3    H234659   3.435   0.151   1.507 -0.3021  0.3211  0.2771
 4342TIP3   OH234660   2.685   0.284   0.572  0.3604  0.6139 -0.1234
 4342TIP3    H134661   2.731   0.368   0.581 -0.5647  1.0557  0.6736
 4342TIP3    H234662   2.714   0.233   0.648  1.6119 -0.1567 -1.0773
 4343TIP3   OH234663   1.303   6.058   8.359 -0.3672  0.2148  0.1363
 4343TIP3    H134664   1.372   6.121   8.375 -1.0753  0.3970  2.9615
 4343TIP3    H234665   1.337   6.002   8.289  0.9557  2.6234 -1.2715
 4344TIP3   OH234666   3.195   0.095   0.254 -0.3279 -0.0102 -0.6033
 4344TIP3    H134667   3.207   0.151   0.177  1.7879 -0.9272 -1.0440
 4344TIP3    H234668   3.277   0.045   0.259 -1.1901 -1.3560  1.1371
 4345TIP3   OH234669   1.653   2.753   7.872  0.0126  0.1641  0.0839
 4345TIP3    H134670   1.629   2.765   7.781  0.3048 -2.0015 -0.3409
 4345TIP3    H234671   1.571   2.730   7.916  0.1309 -0.3635  0.0347
 4346TIP3   OH234672   0.127   2.064   8.054 -0.5760 -0.1817 -0.1129
 4346TIP3    H134673   0.213   2.077   8.095 -0.1703  2.0704 -1.4986
 4346TIP3    H234674   0.078   2.142   8.078 -3.1176 -2.3645  2.4630
 4347TIP3   OH234675   5.818   3.121   1.626 -0.4214  0.2797 -0.2036
 4347TIP3    H134676   5.871   3.074   1.690 -0.1612 -0.6655 -1.0884
 4347TIP3    H234677   5.779   3.193   1.675  1.3947  0.7988  0.5520
 4348TIP3   OH234678   6.419   1.034   7.258 -0.0268  0.2588 -0.2249
 4348TIP3    H134679   6.484   1.066   7.321 -0.2014 -0.1049  0.1486
 4348TIP3    H234680   6.410   1.105   7.194  0.7405  0.3152 -0.2861
 4349TIP3   OH234681   3.274   1.406   6.885  0.0040 -0.4138  0.2151
 4349TIP3    H134682   3.356   1.361   6.907 -0.6925 -1.1611  1.3305
 4349TIP3    H234683   3.209   1.337   6.881 -0.9985  0.4215  1.5134
 4350TIP3   OH234684   1.918   6.150   8.381  0.1358  0.2817 -0.0183
 4350TIP3    H134685   1.836   6.195   8.404 -1.0076 -0.3350 -2.5500
 4350TIP3    H234686   1.924   6.078   8.444  0.5179  2.1764  2.2734
 4351TIP3   OH234687   0.000   3.672   1.294  0.3967 -0.5170  0.0588
 4351TIP3    H134688   0.013   3.595   1.350 -0.7226 -0.5444  0.3069
 4351TIP3    H234689   0.057   3.657   1.219  1.2880 -0.8881  0.7801
 4352TIP3   OH234690   6.856   5.531   7.348  0.3072 -0.3578  0.4646
 4352TIP3    H134691   6.917   5.568   7.285  0.6777 -1.6017  0.0729
 4352TIP3    H234692   6.776   5.516   7.299  0.4146 -0.8143  0.4320
 4353TIP3   OH234693   5.824   4.835   1.879  0.1102 -0.3715 -0.6069
 4353TIP3    H134694   5.769   4.887   1.938  1.3174 -0.6638  0.8064
 4353TIP3    H234695   5.791   4.857   1.791 -0.9427  0.9774  0.0855
 4354TIP3   OH234696   0.009   1.184   2.310 -0.1262 -0.2004  0.4329
 4354TIP3    H134697   0.067   1.108   2.298  3.3378  2.0874  1.1701
 4354TIP3    H234698  -0.013   1.183   2.403  0.0949 -0.1973  0.4858
 4355TIP3   OH234699   0.625   5.240   2.257 -0.3711 -0.4327  0.3604
 4355TIP3    H134700   0.707   5.279   2.229  1.2327 -3.3126  0.6552
 4355TIP3    H234701   0.585   5.305   2.314  1.0348  1.5616 -0.8152
 4356TIP3   OH234702   5.602   3.198   0.932  0.2889 -0.1722  0.5785
 4356TIP3    H134703   5.598   3.268   0.867 -0.4023 -1.4383 -0.7844
 4356TIP3    H234704   5.670   3.226   0.993 -1.0539  2.4517  1.0124
 4357TIP3   OH234705   1.351   1.887   1.909  0.2751 -0.3555  0.1515
 4357TIP3    H134706   1.323   1.910   1.998  0.6046 -1.5782  0.5958
 4357TIP3    H234707   1.353   1.970   1.862 -1.5441  0.1056  0.8180
 4358TIP3   OH234708   1.956   0.949   0.916  0.1123  0.3793  0.6616
 4358TIP3    H134709   1.918   1.037   0.919 -0.4611  0.1620  0.1480
 4358TIP3    H234710   1.963   0.930   0.822  1.4046  0.3654  0.7417
 4359TIP3   OH234711   1.689   2.091   0.154 -0.0067 -0.1620 -0.2834
 4359TIP3    H134712   1.699   2.156   0.224 -1.3269 -0.2009 -0.0366
 4359TIP3    H234713   1.630   2.025   0.191 -0.0484 -0.6148 -1.1400
 4360TIP3   OH234714   2.038   6.089   7.488  0.3416  0.2349 -0.1625
 4360TIP3    H134715   1.957   6.086   7.540  1.3622 -0.3413  1.4407
 4360TIP3    H234716   2.038   6.178   7.450 -0.0772  0.9454  1.4258
 4361TIP3   OH234717   6.919   4.701   0.834  0.0704 -0.6148 -0.1229
 4361TIP3    H134718   6.961   4.750   0.905  0.8211 -0.8606 -0.3883
 4361TIP3    H234719   6.842   4.662   0.874  0.3411 -0.5267  0.4961
 4362TIP3   OH234720   5.666   0.178   0.843 -0.5405  0.6959 -0.1742
 4362TIP3    H134721   5.708   0.093   0.829 -0.0971  0.9569 -0.3998
 4362TIP3    H234722   5.690   0.202   0.932  0.2524  1.1095 -0.4967
 4363TIP3   OH234723   1.152   5.666   7.317  0.2742 -0.0913 -0.6625
 4363TIP3    H134724   1.132   5.752   7.279 -2.1709 -0.8159 -1.1724
 4363TIP3    H234725   1.189   5.616   7.244 -1.4030 -0.4672 -1.2977
 4364TIP3   OH234726   5.342   3.456   2.867  1.5837 -0.2163  0.1314
 4364TIP3    H134727   5.342   3.551   2.856  2.0312 -0.1573  0.5592
 4364TIP3    H234728   5.288   3.423   2.796 -1.1371  0.5475  1.7160
 4365TIP3   OH234729   0.557   1.758   6.757  0.0846  0.0633  0.3589
 4365TIP3    H134730   0.604   1.800   6.829  1.1330 -0.0229 -0.2561
 4365TIP3    H234731   0.509   1.687   6.798  0.8254 -0.1095  0.9503
 4366TIP3   OH234732   1.964   3.122   2.857 -0.0638  0.1214 -0.0179
 4366TIP3    H134733   2.044   3.088   2.898 -0.9896  0.0096  1.8110
 4366TIP3    H234734   1.955   3.072   2.776  1.3027 -0.4192  0.1408
 4367TIP3   OH234735   4.232   0.659   0.648 -0.0169  0.0756 -0.3090
 4367TIP3    H134736   4.211   0.752   0.643 -1.2178 -0.0344  1.7974
 4367TIP3    H234737   4.148   0.616   0.662  0.7061 -1.1612  0.4389
 4368TIP3   OH234738   3.960   2.114   1.244  0.2042  0.2715 -0.4691
 4368TIP3    H134739   3.994   2.025   1.248 -0.0416  0.2112  1.8657
 4368TIP3    H234740   3.865   2.103   1.237  0.0839  0.2907  0.8459
 4369TIP3   OH234741   0.638   1.848   2.808  0.4070  0.2288  0.1201
 4369TIP3    H134742   0.594   1.768   2.838  0.6037  0.1367  0.1620
 4369TIP3    H234743   0.705   1.865   2.874 -1.1103  1.7201  1.3630
 4370TIP3   OH234744   3.481   4.794   1.114  0.0895  0.0294 -0.2901
 4370TIP3    H134745   3.540   4.718   1.113 -0.3358 -0.3059 -0.2256
 4370TIP3    H234746   3.502   4.842   1.034 -1.1855 -1.3688 -1.5378
 4371TIP3   OH234747   1.275   3.988   1.805  0.5902  0.4838 -0.4779
 4371TIP3    H134748   1.353   4.040   1.823  0.2115  1.3113 -1.1834
 4371TIP3    H234749   1.279   3.969   1.711  0.3989 -0.2435 -0.3525
 4372TIP3   OH234750   6.309   5.470   0.010 -0.4460 -0.2789 -0.0991
 4372TIP3    H134751   6.215   5.453   0.020 -0.3023 -0.5788  0.9014
 4372TIP3    H234752   6.329   5.530   0.082  0.1693 -0.3806 -0.1826
 4373TIP3   OH234753   5.312   3.186   2.233 -0.3595  0.0280 -0.3549
 4373TIP3    H134754   5.259   3.108   2.252  0.6027 -0.1756  1.6894
 4373TIP3    H234755   5.346   3.170   2.145 -0.8317 -1.4755 -0.3059
 4374TIP3   OH234756   1.487   0.545   1.042  0.3979 -0.4048 -0.6085
 4374TIP3    H134757   1.579   0.543   1.069  0.2098 -0.7519  0.0431
 4374TIP3    H234758   1.462   0.452   1.036 -0.9010 -0.4282  2.8488
 4375TIP3   OH234759   1.630   1.682   1.350 -0.1454  0.2914  0.0979
 4375TIP3    H134760   1.650   1.774   1.331  0.6435  0.0795 -0.1564
 4375TIP3    H234761   1.651   1.636   1.269 -0.5730 -0.1124  0.2120
 4376TIP3   OH234762   2.601   5.124   0.101 -0.0313  0.1095  0.2002
 4376TIP3    H134763   2.514   5.162   0.116 -0.0293 -0.2546  1.1937
 4376TIP3    H234764   2.641   5.120   0.188  0.3245 -1.2944 -0.0055
 4377TIP3   OH234765   6.485   3.091   8.341  0.5211  0.1589 -0.5115
 4377TIP3    H134766   6.460   3.076   8.250  0.3661  0.2615 -0.4861
 4377TIP3    H234767   6.581   3.086   8.341  0.4685 -2.0588 -0.2914
 4378TIP3   OH234768   1.283   1.335   1.074  0.4640 -0.2097  0.8892
 4378TIP3    H134769   1.322   1.417   1.105 -1.4684  1.6781 -1.2036
 4378TIP3    H234770   1.199   1.362   1.036 -0.6585 -3.3277  0.8725
 4379TIP3   OH234771   5.750   6.498   2.839 -0.3042 -0.1086  0.0326
 4379TIP3    H134772   5.700   6.574   2.810 -1.4739 -1.1882 -0.8920
 4379TIP3    H234773   5.834   6.534   2.867 -0.4718  1.4186 -1.2871
 4380TIP3   OH234774   3.385   3.820   2.099  0.1613  0.3851 -0.0341
 4380TIP3    H134775   3.301   3.806   2.143 -0.3174 -1.1450 -1.3684
 4380TIP3    H234776   3.409   3.910   2.124 -1.7531  0.7981  0.5415
 4381TIP3   OH234777   3.179   3.377   1.303 -0.5589 -0.5824 -0.3832
 4381TIP3    H134778   3.197   3.286   1.280 -2.4316 -0.7019 -1.5757
 4381TIP3    H234779   3.254   3.426   1.268 -1.1400 -1.3088 -2.8698
 4382TIP3   OH234780   2.025   0.689   1.791  0.0396  0.2511 -0.5315
 4382TIP3    H134781   2.047   0.656   1.878 -0.4744  0.4676 -0.3123
 4382TIP3    H234782   2.018   0.611   1.737  1.1236  0.1602 -0.5666
 4383TIP3   OH234783   5.035   0.207   7.539  0.2794  0.3909 -0.3218
 4383TIP3    H134784   5.010   0.221   7.447  0.5265  1.8235 -0.1902
 4383TIP3    H234785   5.033   0.294   7.578  0.0440 -0.2184  1.0830
 4384TIP3   OH234786   4.480   2.335   8.061  0.5901  0.7421  0.0145
 4384TIP3    H134787   4.483   2.419   8.016 -1.2131  1.2542  0.7745
 4384TIP3    H234788   4.405   2.341   8.120  1.6836 -0.6282  1.6599
 4385TIP3   OH234789   3.574   4.225   3.034 -0.3112  0.2412  0.4300
 4385TIP3    H134790   3.624   4.276   3.098  0.7590  1.7512 -1.5182
 4385TIP3    H234791   3.641   4.175   2.987 -0.8203  0.7295 -0.8519
 4386TIP3   OH234792   5.406   1.571   2.299  0.4004 -0.8611  0.0191
 4386TIP3    H134793   5.313   1.568   2.274  0.8026 -0.6525 -1.6012
 4386TIP3    H234794   5.405   1.597   2.391 -1.1264  0.1004 -0.2352
 4387TIP3   OH234795   3.114   5.910   2.121  0.2466 -0.1942  0.0504
 4387TIP3    H134796   3.104   5.914   2.216  0.4528 -0.3637  0.0785
 4387TIP3    H234797   3.204   5.882   2.107  0.6651  1.2256 -0.2139
 4388TIP3   OH234798   1.205   6.507   8.139 -0.0310 -0.2012  0.1226
 4388TIP3    H134799   1.182   6.424   8.179 -0.2392 -0.3207 -0.2374
 4388TIP3    H234800   1.189   6.572   8.207 -2.1586 -0.1946 -0.3085
 4389TIP3   OH234801   2.086   3.504   2.660 -0.0076  0.1098 -0.4709
 4389TIP3    H134802   2.025   3.503   2.734  1.1503 -2.5870  0.5759
 4389TIP3    H234803   2.151   3.571   2.684 -0.7478  0.7055 -0.0613
 4390TIP3   OH234804   4.069   5.148   6.951  0.6027 -0.5716  0.0276
 4390TIP3    H134805   4.160   5.160   6.924  0.7896  0.0135  0.8619
 4390TIP3    H234806   4.040   5.235   6.978 -0.7119 -0.4306 -1.6767
 4391TIP3   OH234807   4.697   4.208   8.035  0.1462  0.0739  0.0286
 4391TIP3    H134808   4.728   4.286   7.988 -1.1504  0.9203  0.5358
 4391TIP3    H234809   4.715   4.226   8.127 -0.1363 -0.2308  0.1454
 4392TIP3   OH234810   3.510   6.224   0.631  0.1779  0.1680 -0.0856
 4392TIP3    H134811   3.497   6.287   0.701 -1.9154  0.3403 -0.5674
 4392TIP3    H234812   3.605   6.210   0.628  0.3694  0.6135  2.3376
 4393TIP3   OH234813   5.517   1.673   1.883 -0.1162 -0.4654 -0.1556
 4393TIP3    H134814   5.432   1.641   1.912 -0.4212 -0.2830 -0.8280
 4393TIP3    H234815   5.577   1.601   1.901 -0.2543 -0.3025  1.0564
 4394TIP3   OH234816   2.500   2.982   0.318  1.0890  0.6157  0.0630
 4394TIP3    H134817   2.491   3.010   0.409  0.3325  0.2460  0.1061
 4394TIP3    H234818   2.548   2.899   0.322  0.2195  0.1129  0.2015
 4395TIP3   OH234819   1.317   3.234   8.064 -0.0935  0.7339 -0.5491
 4395TIP3    H134820   1.246   3.194   8.014  0.3799 -2.1340  0.9206
 4395TIP3    H234821   1.394   3.223   8.009 -0.3632  1.9293 -1.2076
 4396TIP3   OH234822   4.532   5.640   1.113  0.2015  0.3833 -0.1537
 4396TIP3    H134823   4.487   5.561   1.144 -0.0894  0.4905 -0.2981
 4396TIP3    H234824   4.515   5.641   1.018 -1.6659  1.7821  0.1317
 4397TIP3   OH234825   3.615   4.015   3.268 -0.5063 -0.3026 -0.3191
 4397TIP3    H134826   3.692   3.991   3.215 -0.7834 -0.8924 -0.4672
 4397TIP3    H234827   3.541   4.001   3.210 -0.8195 -1.0122  0.2361
 4398TIP3   OH234828   0.537   4.564   2.086 -0.2697  0.1854 -0.3740
 4398TIP3    H134829   0.630   4.541   2.076 -0.4112 -0.3102 -0.5928
 4398TIP3    H234830   0.494   4.522   2.011 -0.5632  1.0463 -0.6954
 4399TIP3   OH234831   5.763   4.048   3.173 -0.7967 -0.0590 -0.0592
 4399TIP3    H134832   5.815   4.116   3.216 -1.6229  0.7178 -0.2471
 4399TIP3    H234833   5.693   4.028   3.235 -0.4351 -0.9199  0.0896
 4400TIP3   OH234834   5.627   0.321   2.301 -0.2783 -0.0337  0.0393
 4400TIP3    H134835   5.612   0.275   2.218  0.2717  0.1277 -0.1560
 4400TIP3    H234836   5.717   0.353   2.294  0.2446 -1.1441  1.2317
 4401TIP3   OH234837   4.172   2.361   1.517 -0.0483 -0.0827  0.1975
 4401TIP3    H134838   4.171   2.452   1.548  1.8508  0.7103 -1.8490
 4401TIP3    H234839   4.225   2.314   1.582 -0.4328  0.3980  0.8783
 4402TIP3   OH234840   2.787   2.336   2.194  0.4153  0.2611  0.3145
 4402TIP3    H134841   2.868   2.349   2.146  0.6290  2.0242  1.0672
 4402TIP3    H234842   2.790   2.245   2.222  0.0777 -1.0205 -3.2757
 4403TIP3   OH234843   6.668   4.384   0.867 -0.4273  0.5907 -0.0405
 4403TIP3    H134844   6.677   4.456   0.930  1.3828 -1.0297  1.6768
 4403TIP3    H234845   6.751   4.382   0.821 -1.1592  0.7385 -1.4111
 4404TIP3   OH234846   0.129   6.923   2.325 -0.1186  0.2188 -0.1859
 4404TIP3    H134847   0.058   6.986   2.313 -0.7128 -0.4142 -0.0666
 4404TIP3    H234848   0.126   6.901   2.418 -1.1837 -1.4269 -0.5711
 4405TIP3   OH234849   1.045   5.125   2.988  0.1559 -0.0704  0.1348
 4405TIP3    H134850   1.027   5.080   2.905 -1.3875 -0.1912  0.5122
 4405TIP3    H234851   1.082   5.057   3.044 -0.6992 -0.5143  0.1848
 4406TIP3   OH234852   4.720   1.008   2.080  0.2040  0.9328  0.1738
 4406TIP3    H134853   4.795   1.061   2.053  0.9027  0.0989  0.4203
 4406TIP3    H234854   4.646   1.045   2.032  0.8644  1.4403 -0.4786
 4407TIP3   OH234855   4.712   2.396   7.678  0.7334  0.7390  0.0274
 4407TIP3    H134856   4.722   2.361   7.589  1.8358  1.2594 -0.0727
 4407TIP3    H234857   4.666   2.327   7.726 -0.2997  0.6499 -1.0652
 4408TIP3   OH234858   2.789   3.384   2.758 -0.3710  0.3373 -0.2151
 4408TIP3    H134859   2.782   3.288   2.759  2.7876 -0.0249  1.6849
 4408TIP3    H234860   2.876   3.401   2.722  0.0625  2.3217  1.5643
 4409TIP3   OH234861   3.201   1.725   1.625 -0.2605  0.4025 -0.0564
 4409TIP3    H134862   3.159   1.809   1.607 -1.1007 -0.1785 -0.9111
 4409TIP3    H234863   3.261   1.712   1.552 -0.5359  0.0171 -0.2189
 4410TIP3   OH234864   5.853   2.830   0.132  0.3509  0.4241 -0.9432
 4410TIP3    H134865   5.834   2.736   0.125  0.5891  0.3604 -0.7565
 4410TIP3    H234866   5.826   2.866   0.047  0.8528  0.0763 -1.2558
 4411TIP3   OH234867   3.829   2.089   8.079  0.0425  0.2068  0.4225
 4411TIP3    H134868   3.911   2.040   8.068 -0.2258 -0.0183 -0.7192
 4411TIP3    H234869   3.857   2.173   8.115  0.5485 -0.5941  1.9578
 4412TIP3   OH234870   2.896   4.327   6.951  0.1332 -0.1739 -0.8001
 4412TIP3    H134871   2.872   4.382   7.026  0.4728  1.4350 -1.8161
 4412TIP3    H234872   2.815   4.283   6.927  0.0689 -0.8952  0.6291
 4413TIP3   OH234873   1.909   0.413   0.066  0.4209  0.0387  0.4206
 4413TIP3    H134874   2.001   0.434   0.081  0.7304 -1.9195  1.6127
 4413TIP3    H234875   1.865   0.437   0.147 -0.1827  1.2046 -0.2383
 4414TIP3   OH234876   2.235   4.140   1.401  0.5057  0.4349 -0.0955
 4414TIP3    H134877   2.260   4.167   1.489  1.4737  4.2267 -1.3131
 4414TIP3    H234878   2.204   4.221   1.359  1.0202 -0.9628 -3.5413
 4415TIP3   OH234879   5.746   6.154   8.090  0.5212  0.2401 -0.0175
 4415TIP3    H134880   5.760   6.186   8.001  0.1434 -0.0239 -0.1764
 4415TIP3    H234881   5.710   6.229   8.137  0.7581  0.3924 -0.0807
 4416TIP3   OH234882   6.987   1.030   1.552 -0.0627 -0.5582 -0.3147
 4416TIP3    H134883   6.966   1.123   1.552 -3.0978 -1.1593 -0.9343
 4416TIP3    H234884   7.000   1.009   1.460 -0.7744 -0.9971 -0.3209
 4417TIP3   OH234885   6.749   6.331   0.266 -0.1904  0.0379  0.3456
 4417TIP3    H134886   6.820   6.367   0.213  0.4547 -0.7497  0.6460
 4417TIP3    H234887   6.695   6.406   0.290 -0.2030  0.4798 -0.9897
 4418TIP3   OH234888   0.874   5.166   8.435 -0.8043 -0.2004 -1.2887
 4418TIP3    H134889   0.806   5.208   8.488  0.4001 -1.6756  1.6381
 4418TIP3    H234890   0.834   5.085   8.404 -0.8960 -0.2955 -0.9259
 4419TIP3   OH234891   5.721   1.226   3.195  0.5323  0.1690  0.5392
 4419TIP3    H134892   5.811   1.194   3.200 -0.2699 -2.5616 -0.5440
 4419TIP3    H234893   5.691   1.197   3.108 -0.6808  3.1379 -0.1459
 4420TIP3   OH234894   1.786   3.573   7.617 -0.6566 -0.1159  0.1587
 4420TIP3    H134895   1.853   3.587   7.550  0.3027 -1.5728  0.7482
 4420TIP3    H234896   1.712   3.536   7.569  0.6964 -2.9682  0.0480
 4421TIP3   OH234897   6.144   2.768   0.730  0.3589 -0.2343  0.9309
 4421TIP3    H134898   6.218   2.753   0.789  0.0303 -2.0489  0.9437
 4421TIP3    H234899   6.184   2.792   0.647  1.0396 -1.7131  0.7879
 4422TIP3   OH234900   4.949   3.075   0.898  0.8194  1.0667  0.4534
 4422TIP3    H134901   4.931   2.988   0.932 -0.4652  0.9570 -0.4183
 4422TIP3    H234902   4.954   3.131   0.975 -1.4147  0.7219  0.9182
 4423TIP3   OH234903   2.938   2.414   8.116  0.3445 -0.0773 -0.7156
 4423TIP3    H134904   2.963   2.475   8.186 -0.4931  1.1618 -1.4424
 4423TIP3    H234905   3.010   2.352   8.112  0.5865  0.0338  0.9939
 4424TIP3   OH234906   0.582   3.183   8.366 -0.1606  0.1927  0.3355
 4424TIP3    H134907   0.524   3.228   8.428 -2.6356 -0.1649 -1.5566
 4424TIP3    H234908   0.568   3.229   8.283  2.4030  0.1188 -0.2044
 4425TIP3   OH234909   0.782   3.616   2.403  0.1393  0.3630  0.1113
 4425TIP3    H134910   0.812   3.701   2.434  1.4516 -0.1037  0.1576
 4425TIP3    H234911   0.851   3.555   2.427 -0.8619 -0.7641  0.2389
 4426TIP3   OH234912   2.938   2.129   1.840  0.4924 -0.5861  0.0211
 4426TIP3    H134913   3.015   2.149   1.787 -0.5159 -0.0178 -1.2734
 4426TIP3    H234914   2.971   2.072   1.910  2.0509 -0.4554 -0.5732
 4427TIP3   OH234915   4.939   3.298   7.944  0.1122  0.3579  0.8957
 4427TIP3    H134916   4.971   3.209   7.932  0.8116  0.5255  1.4444
 4427TIP3    H234917   4.873   3.309   7.876  0.3995 -0.3966  0.4822
 4428TIP3   OH234918   6.167   2.277   7.044 -0.7224  0.3059 -0.1934
 4428TIP3    H134919   6.167   2.356   6.991 -0.1572  1.0942  0.9560
 4428TIP3    H234920   6.103   2.294   7.113  0.7816  0.5655  1.1939
 4429TIP3   OH234921   1.683   4.321   2.461 -0.5659  0.0529 -0.5390
 4429TIP3    H134922   1.767   4.354   2.492 -0.6964  0.3806 -0.5264
 4429TIP3    H234923   1.677   4.352   2.371 -1.7340  2.1173  0.1873
 4430TIP3   OH234924   1.829   6.624   8.165  0.2394 -0.2496  0.0721
 4430TIP3    H134925   1.800   6.681   8.095  0.7165  0.5953  0.5505
 4430TIP3    H234926   1.784   6.541   8.149 -1.1565  0.5254 -0.1103
 4431TIP3   OH234927   5.859   5.768   2.072  0.6584 -0.0429 -0.2479
 4431TIP3    H134928   5.911   5.688   2.058  0.0284 -0.4470 -0.3324
 4431TIP3    H234929   5.773   5.736   2.097 -0.1911  0.5498 -2.1787
 4432TIP3   OH234930   5.317   2.272   7.551 -0.3673  0.2485 -0.6733
 4432TIP3    H134931   5.296   2.344   7.611 -0.3911 -0.4295  0.1440
 4432TIP3    H234932   5.240   2.265   7.495  0.1737  1.7419 -1.6606
 4433TIP3   OH234933   5.026   1.144   7.594 -0.3324  0.3466  0.0729
 4433TIP3    H134934   4.995   1.063   7.634 -0.8106  0.5674  0.1628
 4433TIP3    H234935   5.107   1.165   7.640 -0.8621  0.5886  0.9212
 4434TIP3   OH234936   1.731   4.026   7.984  0.4249  0.8355  0.2625
 4434TIP3    H134937   1.738   4.082   8.062  0.3910  0.6393  0.4074
 4434TIP3    H234938   1.678   3.952   8.012 -0.4847  1.2831 -0.2455
 4435TIP3   OH234939   1.394   6.730   0.929 -0.0782 -0.2864 -0.2756
 4435TIP3    H134940   1.359   6.786   0.859 -0.9205 -1.1456 -0.5554
 4435TIP3    H234941   1.484   6.712   0.903 -0.7503 -1.6543 -1.8401
 4436TIP3   OH234942   5.365   5.485   0.770  0.3629  0.1762  0.2713
 4436TIP3    H134943   5.333   5.575   0.777  1.7877  0.7438 -0.1487
 4436TIP3    H234944   5.402   5.466   0.856 -2.0959 -0.9183  1.1561
 4437TIP3   OH234945   5.757   6.412   1.944 -0.1387  0.7504 -0.6713
 4437TIP3    H134946   5.810   6.435   2.021  0.3936  2.1976 -1.4322
 4437TIP3    H234947   5.687   6.477   1.944  0.6679  1.6561 -2.1816
 4438TIP3   OH234948   4.857   4.695   7.872 -0.2631 -0.1911 -0.6018
 4438TIP3    H134949   4.937   4.675   7.921 -0.6659  0.3637  0.3197
 4438TIP3    H234950   4.879   4.770   7.818 -0.9424  2.0013  1.9356
 4439TIP3   OH234951   4.041   0.646   2.399 -0.2675  0.7009  0.3028
 4439TIP3    H134952   3.986   0.675   2.471 -0.2547 -0.9578  1.0226
 4439TIP3    H234953   4.097   0.578   2.437 -1.2346 -1.2388 -1.5528
 4440TIP3   OH234954   4.180   2.498   7.878 -0.0847 -0.2342 -0.0006
 4440TIP3    H134955   4.093   2.536   7.892 -0.6784 -1.6351  0.3598
 4440TIP3    H234956   4.212   2.480   7.967  1.3095  1.7544 -0.0419
 4441TIP3   OH234957   3.056   1.511   1.548  0.2388 -0.2589  0.3732
 4441TIP3    H134958   2.974   1.540   1.508 -0.4722 -0.5786  1.5595
 4441TIP3    H234959   3.101   1.593   1.569  0.1576 -0.0791 -0.1235
 4442TIP3   OH234960   6.638   6.244   7.749  0.3799 -0.1373  0.5884
 4442TIP3    H134961   6.731   6.239   7.725  0.4073  0.9747  0.3931
 4442TIP3    H234962   6.636   6.232   7.843  1.1805  3.5618  1.2247
 4443TIP3   OH234963   2.368   3.895   8.066 -0.0963 -0.8130 -0.2707
 4443TIP3    H134964   2.393   3.876   7.976 -3.4966 -0.3530 -1.4650
 4443TIP3    H234965   2.324   3.815   8.096 -1.8933  0.1481 -0.2401
 4444TIP3   OH234966   3.210   2.721   1.486  0.2342  0.1407  0.2088
 4444TIP3    H134967   3.147   2.778   1.529  1.9158  1.2867  1.2348
 4444TIP3    H234968   3.233   2.656   1.552  1.2215  0.6157  0.3417
 4445TIP3   OH234969   2.390   5.155   1.106  0.0913 -0.1486 -0.3754
 4445TIP3    H134970   2.446   5.120   1.036  2.1579  1.6901  0.2291
 4445TIP3    H234971   2.445   5.151   1.185 -1.2147  0.3237  0.5964
 4446TIP3   OH234972   4.102   5.572   1.485  0.3383  0.1073  0.2677
 4446TIP3    H134973   4.064   5.553   1.571  0.3140  1.8204  0.6563
 4446TIP3    H234974   4.030   5.607   1.434  0.8117  1.0408  0.2181
 4447TIP3   OH234975   1.876   0.937   1.723 -0.0978 -0.1698 -0.3456
 4447TIP3    H134976   1.920   0.994   1.787 -0.2863 -0.4872  0.0610
 4447TIP3    H234977   1.920   0.853   1.732 -0.7931 -0.4898  0.0605
 4448TIP3   OH234978   2.234   3.528   1.325 -0.3579  0.5007  0.0029
 4448TIP3    H134979   2.162   3.587   1.301  0.5636  2.6722  2.2059
 4448TIP3    H234980   2.200   3.477   1.399  0.1417  1.1270  0.6762
 4449TIP3   OH234981   5.234   1.847   8.464  0.0222  0.1591  0.2251
 4449TIP3    H134982   5.323   1.832   8.431  0.3267  0.5070  0.8714
 4449TIP3    H234983   5.247   1.899   8.544 -0.7084 -0.6470  0.8751
 4450TIP3   OH234984   6.502   3.937   1.903  0.3886  0.4325 -0.0486
 4450TIP3    H134985   6.463   3.854   1.931 -0.4687  0.3223 -1.4762
 4450TIP3    H234986   6.536   3.975   1.984 -1.3087 -0.1942  1.0322
 4451TIP3   OH234987   5.526   5.981   1.184  0.3358 -0.0365  0.7471
 4451TIP3    H134988   5.548   6.023   1.101  1.2113 -0.5453  0.7015
 4451TIP3    H234989   5.448   5.930   1.165  0.3709  0.0707  0.3006
 4452TIP3   OH234990   4.379   0.749   1.777  0.0616  0.5574 -1.0442
 4452TIP3    H134991   4.388   0.654   1.774  1.6172  0.5444  1.1857
 4452TIP3    H234992   4.462   0.782   1.742 -0.2546  1.0722 -1.3136
 4453TIP3   OH234993   5.203   4.435   2.174 -0.2744 -0.1024  0.2115
 4453TIP3    H134994   5.259   4.511   2.188 -0.2594  0.2047 -1.3217
 4453TIP3    H234995   5.202   4.389   2.258  2.2273 -0.1053  0.2986
 4454TIP3   OH234996   3.508   6.019   2.042  0.5111  0.1291  0.2052
 4454TIP3    H134997   3.567   5.994   2.114 -0.1486 -0.5063  0.5474
 4454TIP3    H234998   3.450   6.084   2.081  3.1054  3.4935 -1.0570
 4455TIP3   OH234999   1.785   5.978   8.145  0.0387 -0.1774  0.8512
 4455TIP3    H135000   1.794   5.932   8.229 -0.2197  0.2879  1.1368
 4455TIP3    H235001   1.763   6.068   8.169  0.6626  0.1327  0.2990
 4456TIP3   OH235002   3.602   3.984   8.039 -0.1382 -0.6116 -0.3160
 4456TIP3    H135003   3.613   4.077   8.022  1.5157 -0.1849  2.4585
 4456TIP3    H235004   3.517   3.962   8.001 -0.5713  1.9914 -1.0356
 4457TIP3   OH235005   3.810   0.164   7.854  0.4423 -0.1980  0.1559
 4457TIP3    H135006   3.896   0.160   7.811  0.0137  1.4278 -0.9445
 4457TIP3    H235007   3.750   0.128   7.789  0.2118 -0.8619  0.7315
 4458TIP3   OH235008   4.005   6.956   1.555  0.6148 -0.0471 -0.0694
 4458TIP3    H135009   4.038   7.018   1.489  1.7058  0.8224  1.2211
 4458TIP3    H235010   3.911   6.953   1.540  0.7155  0.8571 -1.0609
 4459TIP3   OH235011   5.533   4.472   0.048  0.0956 -0.2085  0.2631
 4459TIP3    H135012   5.510   4.429   0.130 -0.7409  0.6804  0.5160
 4459TIP3    H235013   5.499   4.415  -0.020 -0.2778 -0.3522  0.5659
 4460TIP3   OH235014   5.393   4.853   7.851  0.6967 -0.6454 -0.7059
 4460TIP3    H135015   5.449   4.931   7.858 -0.3158  0.0139  0.4750
 4460TIP3    H235016   5.423   4.796   7.921  1.1443 -1.1521 -1.2946
 4461TIP3   OH235017   4.236   5.236   0.130 -0.2705 -0.1129 -0.2530
 4461TIP3    H135018   4.184   5.176   0.184 -0.1902 -0.2823 -0.3599
 4461TIP3    H235019   4.291   5.283   0.192  0.1863 -0.6676 -0.2262
 4462TIP3   OH235020   2.861   2.384   7.313 -0.1994  0.1566  0.2398
 4462TIP3    H135021   2.933   2.362   7.254  1.6329  0.5808  2.1769
 4462TIP3    H235022   2.835   2.472   7.287 -1.0379 -0.5416 -1.3963
 4463TIP3   OH235023   1.971   5.971   7.924 -0.1778 -0.2007  0.0217
 4463TIP3    H135024   1.882   6.004   7.932 -0.3749 -0.7620  0.1778
 4463TIP3    H235025   2.000   5.956   8.014 -0.1365 -0.5710 -0.0515
 4464TIP3   OH235026   0.901   4.588   0.511  0.3614 -0.4778 -0.4562
 4464TIP3    H135027   0.894   4.502   0.552 -0.4955 -0.0791  0.2516
 4464TIP3    H235028   0.810   4.617   0.500  0.6440  0.3732 -0.6034
 4465TIP3   OH235029   2.930   5.398   7.752 -0.0769  0.3045  0.1311
 4465TIP3    H135030   2.977   5.450   7.818 -0.0398  0.3695  0.0541
 4465TIP3    H235031   2.960   5.433   7.669 -0.7783  0.8156  0.0826
 4466TIP3   OH235032   5.158   3.650   1.035  0.2361 -0.1652  0.1392
 4466TIP3    H135033   5.178   3.734   1.079  0.6883 -0.6358  0.8685
 4466TIP3    H235034   5.082   3.616   1.082 -1.4412  0.9040 -1.6612
 4467TIP3   OH235035   0.522   3.290   0.860  0.5689  0.4476  0.5842
 4467TIP3    H135036   0.433   3.319   0.880  0.7523  1.9847 -0.6133
 4467TIP3    H235037   0.576   3.367   0.877  1.3729  0.1809 -0.6591
 4468TIP3   OH235038   4.343   1.717   1.628 -0.0285  0.1333 -0.4027
 4468TIP3    H135039   4.247   1.710   1.634  0.1387 -2.4181  0.5412
 4468TIP3    H235040   4.358   1.803   1.588 -2.7302  0.2193 -1.4815
 4469TIP3   OH235041   6.166   4.575   2.658  0.0277 -0.4169 -0.0185
 4469TIP3    H135042   6.117   4.580   2.740 -1.4873 -1.6594 -0.7930
 4469TIP3    H235043   6.243   4.522   2.680 -0.3148 -0.6640  0.6289
 4470TIP3   OH235044   5.071   0.287   1.248  0.5663 -0.0167 -0.1173
 4470TIP3    H135045   5.016   0.333   1.311  0.2943  1.4642 -1.3771
 4470TIP3    H235046   5.046   0.195   1.257 -1.3205  0.4802  0.1210
 4471TIP3   OH235047   4.798   5.690   7.865  0.2609 -0.6895 -0.0910
 4471TIP3    H135048   4.787   5.626   7.794 -0.6563 -1.1366  0.4446
 4471TIP3    H235049   4.846   5.762   7.824 -0.0534 -1.0385 -1.1146
 4472TIP3   OH235050   1.788   6.697   0.382  0.0381 -0.1463  0.5376
 4472TIP3    H135051   1.817   6.686   0.472  1.3298  0.8332  0.2712
 4472TIP3    H235052   1.729   6.772   0.385 -0.2620 -0.3825  0.6256
 4473TIP3   OH235053   4.698   1.095   1.516  0.2110  0.2519 -0.3171
 4473TIP3    H135054   4.648   1.152   1.575  0.6835  0.1375  0.2081
 4473TIP3    H235055   4.634   1.062   1.454 -0.1297  1.1310 -0.4542
 4474TIP3   OH235056   4.356   2.980   7.779 -0.1082 -0.7819 -0.4371
 4474TIP3    H135057   4.424   2.990   7.845 -1.2863 -0.4693  0.7853
 4474TIP3    H235058   4.381   3.041   7.709 -0.2590  1.0053  0.9776
 4475TIP3   OH235059   5.884   2.451   1.338  0.2692 -0.6987  0.0308
 4475TIP3    H135060   5.795   2.421   1.318 -0.0768  0.2048  0.1593
 4475TIP3    H235061   5.941   2.386   1.297 -0.4385 -1.9626  0.9606
 4476TIP3   OH235062   1.132   0.945   8.121  0.3638 -0.0359  0.2847
 4476TIP3    H135063   1.178   1.015   8.075  1.4530 -2.4137 -2.5804
 4476TIP3    H235064   1.040   0.957   8.098  0.8207 -0.8537 -2.2609
 4477TIP3   OH235065   4.860   3.049   2.121  0.0773  0.5450  0.5105
 4477TIP3    H135066   4.794   3.094   2.173  1.6823  2.4797  1.0057
 4477TIP3    H235067   4.817   3.033   2.037 -1.3038  0.8939  1.1146
 4478TIP3   OH235068   1.381   1.548   1.233  0.2286  0.9619 -0.1110
 4478TIP3    H135069   1.358   1.487   1.303 -1.7384  2.3346  0.5179
 4478TIP3    H235070   1.432   1.616   1.276  0.9197  0.6819 -0.4722
 4479TIP3   OH235071   1.713   6.776   2.693  0.1369 -0.6918 -0.1483
 4479TIP3    H135072   1.714   6.795   2.787  0.3167  0.0978 -0.3096
 4479TIP3    H235073   1.775   6.704   2.683 -1.0457 -1.8631  0.5561
 4480TIP3   OH235074   1.869   4.741   7.700  0.1782 -0.3185 -0.1266
 4480TIP3    H135075   1.776   4.758   7.683  0.5310  1.5301 -0.3595
 4480TIP3    H235076   1.915   4.788   7.631  1.3255 -0.5752  0.4446
 4481TIP3   OH235077   1.673   5.043   2.110 -0.0591  0.5400 -0.1600
 4481TIP3    H135078   1.671   5.114   2.174 -3.4030  1.9932 -1.6180
 4481TIP3    H235079   1.674   4.963   2.163  0.2175  1.6611  1.6094
 4482TIP3   OH235080   6.911   6.882   7.603 -0.0851  0.4048  0.9901
 4482TIP3    H135081   6.883   6.871   7.512 -0.3254  1.6976  0.8991
 4482TIP3    H235082   7.002   6.854   7.603 -0.0278  0.5663  0.3164
 4483TIP3   OH235083   4.188   3.869   1.478  0.1016 -0.1549  0.1011
 4483TIP3    H135084   4.146   3.817   1.409  0.5866  0.2703 -0.5254
 4483TIP3    H235085   4.244   3.930   1.431  0.3206  0.2505  0.8742
 4484TIP3   OH235086   2.917   2.802   8.266  0.1062  0.0098  0.1750
 4484TIP3    H135087   2.891   2.889   8.294  1.2371  0.0483  1.2155
 4484TIP3    H235088   3.000   2.786   8.311  0.0012 -1.5437 -0.1057
 4485TIP3   OH235089   6.133   4.417   0.617  0.3486 -0.1300  0.0507
 4485TIP3    H135090   6.091   4.438   0.701  0.7110 -0.9856  0.4513
 4485TIP3    H235091   6.226   4.412   0.637  0.3280 -1.5773 -0.1318
 4486TIP3   OH235092   3.298   1.739   7.325  0.1291  0.5666  0.3442
 4486TIP3    H135093   3.348   1.764   7.403 -0.7022  0.9617  0.7747
 4486TIP3    H235094   3.236   1.674   7.357 -0.0653  0.5603 -0.0410
 4487TIP3   OH235095   1.728   3.558   8.151 -0.5774  0.6711  0.8767
 4487TIP3    H135096   1.753   3.550   8.059  1.9741  1.8550  1.3918
 4487TIP3    H235097   1.797   3.512   8.199 -1.9530 -0.0695  2.2369
 4488TIP3   OH235098   6.699   6.612   7.432  0.6917  0.4517  0.7113
 4488TIP3    H135099   6.793   6.628   7.439  0.5463  2.5346 -0.8089
 4488TIP3    H235100   6.666   6.687   7.382 -1.7819 -0.2326  1.1616
 4489TIP3   OH235101   0.276   1.389   2.353  0.3622  0.2100  0.1575
 4489TIP3    H135102   0.277   1.319   2.418 -2.3686 -2.0775 -1.9945
 4489TIP3    H235103   0.261   1.468   2.403  1.9096 -0.8850  2.5598
 4490TIP3   OH235104   5.100   0.741   8.052 -0.0884  0.2794  0.5499
 4490TIP3    H135105   5.066   0.655   8.027  1.5240 -0.1038 -0.5474
 4490TIP3    H235106   5.066   0.756   8.140 -3.6273  0.3364 -0.6607
 4491TIP3   OH235107   0.925   5.761   0.648  0.0570  1.1904  0.2100
 4491TIP3    H135108   0.896   5.682   0.602  1.6629  0.4997  0.3367
 4491TIP3    H235109   0.940   5.825   0.579 -0.7294  1.2339  0.0658
 4492TIP3   OH235110   2.689   5.281   0.610  0.4929 -0.4077  0.2991
 4492TIP3    H135111   2.777   5.257   0.638  0.5746 -0.4717 -0.0087
 4492TIP3    H235112   2.636   5.274   0.689  0.6604 -0.8860  0.3731
 4493TIP3   OH235113   5.691   4.568   7.743 -0.2119 -0.5777 -0.2628
 4493TIP3    H135114   5.766   4.511   7.726  0.7698  0.5126  0.2478
 4493TIP3    H235115   5.706   4.602   7.831 -1.8229 -1.0786  0.2376
 4494TIP3   OH235116   5.201   1.549   0.518  0.0154 -0.2957  0.2521
 4494TIP3    H135117   5.129   1.586   0.467  1.2420 -0.0567 -1.3749
 4494TIP3    H235118   5.184   1.455   0.519  0.5383 -0.4427 -1.5969
 4495TIP3   OH235119   3.706   2.779   1.858  0.3406 -0.3364 -0.4157
 4495TIP3    H135120   3.723   2.865   1.819 -0.0134 -0.1310 -0.1195
 4495TIP3    H235121   3.675   2.799   1.946  0.4162 -0.7766 -0.2904
 4496TIP3   OH235122   0.112   2.427   7.480 -0.2189 -0.1612 -0.4674
 4496TIP3    H135123   0.064   2.348   7.455  0.6602 -0.8079 -0.1349
 4496TIP3    H235124   0.184   2.433   7.417 -1.0347  1.1329 -1.3299
 4497TIP3   OH235125   2.135   6.258   7.820  0.4215 -0.1572 -0.0289
 4497TIP3    H135126   2.105   6.297   7.738 -0.0516 -0.4904 -0.0161
 4497TIP3    H235127   2.078   6.182   7.833  1.2273 -0.7609  0.0355
 4498TIP3   OH235128   1.859   0.138   2.120 -0.1088 -0.2457 -0.1429
 4498TIP3    H135129   1.911   0.084   2.180 -1.4806  0.3042  1.6382
 4498TIP3    H235130   1.783   0.083   2.098 -1.2128  0.6890  1.2100
 4499TIP3   OH235131   6.503   3.429   2.568  0.5395 -1.2146  0.1932
 4499TIP3    H135132   6.529   3.354   2.621  0.9886 -0.5635  0.9032
 4499TIP3    H235133   6.439   3.476   2.621  1.1404 -0.4491  0.2552
 4500TIP3   OH235134   2.073   5.995   1.321 -0.1621 -0.3330  0.5500
 4500TIP3    H135135   2.139   6.005   1.251 -0.3629  1.2207  0.5379
 4500TIP3    H235136   2.011   5.932   1.286  0.3450 -0.4336 -0.2157
 4501TIP3   OH235137   2.617   1.292   1.844 -0.5115 -0.0012 -0.4532
 4501TIP3    H135138   2.570   1.374   1.860  0.7115  1.0274 -1.7646
 4501TIP3    H235139   2.643   1.262   1.931 -0.9512  1.0188  0.0534
 4502TIP3   OH235140   4.901   2.397   2.237 -0.6539 -0.2471 -0.5725
 4502TIP3    H135141   4.933   2.440   2.158  1.0250  1.2013  0.8019
 4502TIP3    H235142   4.916   2.304   2.222  0.4308  0.0710 -1.6279
 4503TIP3   OH235143   5.581   3.435   0.723  0.4418 -0.0766 -0.0028
 4503TIP3    H135144   5.541   3.429   0.636  0.3957  2.3423 -0.2043
 4503TIP3    H235145   5.524   3.495   0.771  0.8761 -0.8170  1.4938
 4504TIP3   OH235146   4.965   6.241   8.029 -0.3263 -0.2121  0.3856
 4504TIP3    H135147   4.914   6.322   8.032  1.5447  1.1758 -1.7462
 4504TIP3    H235148   5.039   6.257   8.088 -1.4183 -1.5726  2.2098
 4505TIP3   OH235149   6.746   3.560   1.890  0.9848 -0.0151  0.2793
 4505TIP3    H135150   6.798   3.553   1.969  0.8446  1.1436  0.4873
 4505TIP3    H235151   6.806   3.537   1.819  1.5361  0.4547  0.5907
 4506TIP3   OH235152   4.915   1.694   1.721  0.1536  0.4779  0.1674
 4506TIP3    H135153   4.915   1.777   1.675 -1.1778 -0.5647 -1.8744
 4506TIP3    H235154   4.866   1.635   1.664  0.5254 -1.5593  1.8239
 4507TIP3   OH235155   3.742   6.674   0.978  0.0104  0.0085  0.4861
 4507TIP3    H135156   3.773   6.589   1.007  0.8393  0.6410  1.5235
 4507TIP3    H235157   3.769   6.680   0.887  0.6842 -0.5019  0.6468
 4508TIP3   OH235158   5.985   5.892   7.624 -0.0037  0.4033  0.0450
 4508TIP3    H135159   5.999   5.982   7.594  1.8641  0.1398 -0.0006
 4508TIP3    H235160   5.931   5.853   7.556 -0.5612  1.3907 -0.1019
 4509TIP3   OH235161   3.128   0.570   7.392 -0.3808 -0.4706  0.0929
 4509TIP3    H135162   3.038   0.567   7.360  0.0786 -0.8910 -1.2357
 4509TIP3    H235163   3.164   0.650   7.355  0.0150 -0.7062 -0.0464
 4510TIP3   OH235164   3.548   1.443   1.079 -0.0789 -0.5343 -0.1926
 4510TIP3    H135165   3.474   1.383   1.090  1.3462 -2.3329  0.2337
 4510TIP3    H235166   3.566   1.442   0.985 -0.3727 -0.3969 -0.2488
 4511TIP3   OH235167   4.700   3.507   1.164  0.2751  0.0907 -0.2064
 4511TIP3    H135168   4.607   3.527   1.152  0.0235  0.3854  1.8738
 4511TIP3    H235169   4.716   3.434   1.105 -1.0374  0.6058 -1.2692
 4512TIP3   OH235170   6.903   4.191   1.007 -0.2116 -0.1126 -0.1291
 4512TIP3    H135171   6.920   4.264   0.948 -0.0020  1.0679  1.3375
 4512TIP3    H235172   6.812   4.201   1.033  0.7924  2.0534  3.1285
 4513TIP3   OH235173   4.277   5.105   7.535 -0.2291 -0.3764 -1.0562
 4513TIP3    H135174   4.197   5.155   7.550  0.4725  0.8753 -1.3666
 4513TIP3    H235175   4.249   5.030   7.482 -1.3809 -0.6305 -0.1297
 4514TIP3   OH235176   0.993   5.168   8.164 -0.4884 -0.2434 -0.5373
 4514TIP3    H135177   1.085   5.176   8.189 -0.8334  0.1927  0.6729
 4514TIP3    H235178   0.950   5.243   8.206 -1.3767 -0.3790 -1.1736
 4515TIP3   OH235179   4.724   3.275   2.489  0.1655 -0.2313  0.0093
 4515TIP3    H135180   4.735   3.247   2.398 -0.2606  0.9111 -0.4198
 4515TIP3    H235181   4.651   3.336   2.486 -0.0108 -0.3565  1.1733
 4516TIP3   OH235182   2.832   5.067   7.514  0.4112  0.2096 -0.4167
 4516TIP3    H135183   2.849   5.033   7.602 -0.7460  0.2304 -0.1675
 4516TIP3    H235184   2.919   5.087   7.478  0.9279 -0.4044  0.4746
 4517TIP3   OH235185   3.796   3.398   1.323 -0.0488  0.5496  0.5977
 4517TIP3    H135186   3.859   3.441   1.266 -0.9893 -0.0857 -0.9742
 4517TIP3    H235187   3.818   3.430   1.411  1.3417  1.6628 -0.1107
 4518TIP3   OH235188   6.277   0.219   7.534 -0.0854 -0.7828  0.2725
 4518TIP3    H135189   6.233   0.304   7.540 -0.3381 -0.6954 -1.7953
 4518TIP3    H235190   6.318   0.221   7.447  1.1760 -2.1905  0.8100
 4519TIP3   OH235191   6.292   3.101   1.006 -0.1799 -0.3530  0.1009
 4519TIP3    H135192   6.258   3.118   0.918 -1.6169  0.2926  0.7439
 4519TIP3    H235193   6.258   3.174   1.058  1.0300 -0.4904  1.1037
 4520TIP3   OH235194   5.625   6.458   7.210 -0.0817 -0.0159 -0.1767
 4520TIP3    H135195   5.633   6.412   7.126 -0.8201 -0.4405 -0.0227
 4520TIP3    H235196   5.536   6.495   7.208 -0.6024 -1.1555  0.9711
 4521TIP3   OH235197   3.455   4.336   0.600 -0.2003 -0.1196  0.5523
 4521TIP3    H135198   3.483   4.382   0.679 -0.2790  1.2162 -0.1599
 4521TIP3    H235199   3.518   4.265   0.590  2.8055  2.4506 -0.7034
 4522TIP3   OH235200   3.807   0.798   8.214  0.2292 -0.2469  0.1966
 4522TIP3    H135201   3.841   0.709   8.206  0.2879 -0.2743  0.7193
 4522TIP3    H235202   3.720   0.787   8.252  0.7750 -0.0099  1.5798
 4523TIP3   OH235203   4.402   5.497   2.297  0.2474 -0.4390 -0.0975
 4523TIP3    H135204   4.314   5.459   2.294 -0.2148  0.4918 -4.3229
 4523TIP3    H235205   4.388   5.591   2.296  1.2713 -0.2788 -1.1120
 4524TIP3   OH235206   5.380   1.569   8.048 -0.7353  0.3028 -0.1510
 4524TIP3    H135207   5.393   1.648   7.996  2.4041  0.1887  0.3148
 4524TIP3    H235208   5.362   1.501   7.983  0.0722  0.7349 -0.8403
 4525TIP3   OH235209   4.641   6.258   8.170  0.1420  0.1542 -0.0663
 4525TIP3    H135210   4.734   6.264   8.190  0.1456  1.0066 -0.2829
 4525TIP3    H235211   4.621   6.164   8.171  1.6670 -0.3218 -3.0065
 4526TIP3   OH235212   5.254   3.870   8.248 -0.6989  0.1220  0.6515
 4526TIP3    H135213   5.228   3.827   8.166 -0.8636  0.7269  0.3781
 4526TIP3    H235214   5.285   3.799   8.304 -0.2974 -0.2671 -0.0467
 4527TIP3   OH235215   6.292   6.696   2.279 -0.2014  0.1169 -0.1934
 4527TIP3    H135216   6.349   6.673   2.206 -0.7423  1.2334 -1.0090
 4527TIP3    H235217   6.210   6.650   2.261 -0.1159 -0.1487  0.0827
 4528TIP3   OH235218   4.251   0.539   1.458 -0.5099 -0.4340 -0.1084
 4528TIP3    H135219   4.338   0.514   1.487 -0.7892 -2.3650 -0.8147
 4528TIP3    H235220   4.214   0.586   1.533  0.8212 -0.2882  0.4864
 4529TIP3   OH235221   4.297   3.126   2.606 -0.6334 -0.5515 -0.0827
 4529TIP3    H135222   4.203   3.132   2.592 -0.4957 -1.1453 -1.3813
 4529TIP3    H235223   4.313   3.182   2.682 -1.6301  2.0004 -1.6138
 4530TIP3   OH235224   2.235   0.774   2.580  0.1661  0.0465 -0.2917
 4530TIP3    H135225   2.178   0.748   2.507 -2.0682  0.8196  1.0779
 4530TIP3    H235226   2.254   0.693   2.626 -0.2722 -0.1544 -0.4611
 4531TIP3   OH235227   4.460   6.395   0.507 -0.4573  0.0270 -0.7195
 4531TIP3    H135228   4.516   6.435   0.441  0.7387 -0.1891  0.1453
 4531TIP3    H235229   4.452   6.462   0.575 -0.5886 -0.2400 -0.4697
 4532TIP3   OH235230   5.674   5.428   1.568 -0.3975  0.5676 -0.2061
 4532TIP3    H135231   5.640   5.351   1.614 -0.7667  0.8655  0.0191
 4532TIP3    H235232   5.652   5.502   1.624  0.1623  0.8234 -0.3084
 4533TIP3   OH235233   6.896   5.331   8.126 -0.3444  0.3066 -0.3845
 4533TIP3    H135234   6.856   5.281   8.197  2.3801 -0.6911  0.5996
 4533TIP3    H235235   6.914   5.417   8.164 -1.5281  0.7798 -0.8490
 4534TIP3   OH235236   4.669   4.795   2.884 -0.5603  0.1790  0.1876
 4534TIP3    H135237   4.668   4.748   2.967 -1.1528  0.1758  0.1820
 4534TIP3    H235238   4.606   4.749   2.829 -1.4413  1.1904  0.3076
 4535TIP3   OH235239   5.814   2.479   1.830 -0.2694  0.3925 -0.5334
 4535TIP3    H135240   5.812   2.536   1.753 -0.3579 -1.0341 -1.6109
 4535TIP3    H235241   5.870   2.526   1.892 -0.3938  1.6917 -1.3448
 4536TIP3   OH235242   2.773   4.910   0.406  0.0233 -0.1750 -0.5225
 4536TIP3    H135243   2.714   4.897   0.480 -0.5697  0.3243 -0.8979
 4536TIP3    H235244   2.776   4.825   0.363 -0.6308 -0.1443 -0.6467
 4537TIP3   OH235245   5.103   4.901   2.963  0.0721 -1.2727  0.2697
 4537TIP3    H135246   5.153   4.965   2.912 -1.2338 -0.6974 -0.3399
 4537TIP3    H235247   5.096   4.940   3.050  1.2155 -1.6696  0.5680
 4538TIP3   OH235248   3.375   5.553   7.861 -0.2090 -0.5885 -0.2620
 4538TIP3    H135249   3.455   5.563   7.809  0.9502  2.6585  1.8302
 4538TIP3    H235250   3.405   5.518   7.945 -1.5531 -2.6217 -0.5730
 4539TIP3   OH235251   5.889   1.053   0.730 -0.6269  0.4301 -0.0373
 4539TIP3    H135252   5.886   1.146   0.750 -1.7478  0.5803 -0.8184
 4539TIP3    H235253   5.802   1.020   0.753 -0.4978 -0.2677 -0.5048
 4540TIP3   OH235254   4.568   2.454   0.616 -0.0754 -0.1130  0.4063
 4540TIP3    H135255   4.594   2.507   0.541 -0.1722  0.0650  0.4961
 4540TIP3    H235256   4.579   2.513   0.691 -2.2052  0.4827  0.3019
 4541TIP3   OH235257   3.903   3.466   0.614  0.5824  0.8488 -0.1001
 4541TIP3    H135258   3.925   3.421   0.533  1.0255  1.0833 -0.1094
 4541TIP3    H235259   3.807   3.472   0.613  0.5162 -0.1323 -0.0747
 4542TIP3   OH235260   1.092   4.486   0.857  0.1144 -0.0345  0.3542
 4542TIP3    H135261   1.063   4.574   0.832  1.8117  0.5007  0.1440
 4542TIP3    H235262   1.140   4.499   0.939 -2.0170 -1.2150  1.8909
 4543TIP3   OH235263   5.243   2.530   2.615  0.4372 -0.2862  0.0220
 4543TIP3    H135264   5.284   2.443   2.621  0.1025 -0.5098 -0.7935
 4543TIP3    H235265   5.317   2.590   2.611  0.7005 -0.6529 -0.9154
 4544TIP3   OH235266   0.704   0.977   2.164  0.2942 -0.4732  0.0160
 4544TIP3    H135267   0.738   0.887   2.157 -0.4592 -0.7902  0.3577
 4544TIP3    H235268   0.609   0.966   2.169 -0.1242  0.5211 -3.3371
 4545TIP3   OH235269   6.551   5.451   2.147  0.1536 -0.0582  0.1062
 4545TIP3    H135270   6.525   5.455   2.055 -0.4974 -0.0932  0.2858
 4545TIP3    H235271   6.500   5.378   2.183 -0.3855  0.6257  0.7464
 4546TIP3   OH235272   6.713   0.447   6.817  0.3068 -0.4798  0.1976
 4546TIP3    H135273   6.726   0.531   6.773  0.5449 -0.2545  0.6888
 4546TIP3    H235274   6.677   0.390   6.750  0.2381 -0.0121 -0.1687
 4547TIP3   OH235275   4.179   3.213   1.772  0.3548 -0.2433  0.2868
 4547TIP3    H135276   4.232   3.252   1.703 -0.2860 -0.5467 -0.3903
 4547TIP3    H235277   4.207   3.258   1.852 -0.2632  1.5062 -0.4343
 4548TIP3   OH235278   0.313   0.441   0.500  0.9462 -0.5785  0.3413
 4548TIP3    H135279   0.261   0.379   0.449  1.2729  0.1973 -0.9880
 4548TIP3    H235280   0.283   0.527   0.469  2.2351 -0.1142  0.3449
 4549TIP3   OH235281   2.304   4.110   0.820  0.0753  0.2622 -0.2882
 4549TIP3    H135282   2.245   4.170   0.773 -0.1176  0.3353  0.0430
 4549TIP3    H235283   2.322   4.040   0.758  0.7265  0.9289 -0.8727
 4550TIP3   OH235284   3.689   5.278   7.091 -0.3759 -0.1565  0.1322
 4550TIP3    H135285   3.607   5.269   7.140 -1.5568  1.5073 -1.3941
 4550TIP3    H235286   3.688   5.206   7.028 -0.4371 -0.3968  0.4047
 4551TIP3   OH235287   0.763   1.887   1.473  0.8560 -0.3622 -0.2237
 4551TIP3    H135288   0.773   1.833   1.552 -0.3727  0.6502  0.6739
 4551TIP3    H235289   0.669   1.881   1.453  0.9041  0.5537 -0.7464
 4552TIP3   OH235290   4.662   5.845   2.076 -0.3842  0.2433  0.5302
 4552TIP3    H135291   4.605   5.886   2.011  0.6126  0.3253 -0.3206
 4552TIP3    H235292   4.661   5.904   2.150  1.1960  1.9721 -0.7452
 4553TIP3   OH235293   6.486   5.726   3.114 -0.1835 -0.2522 -0.0384
 4553TIP3    H135294   6.451   5.664   3.177 -1.7788  0.7497  0.1433
 4553TIP3    H235295   6.521   5.797   3.167 -0.6711  0.1525 -0.2429
 4554TIP3   OH235296   0.567   3.336   1.308 -0.3038 -0.2824  0.2016
 4554TIP3    H135297   0.645   3.281   1.315  0.3415  0.2947 -1.6790
 4554TIP3    H235298   0.581   3.386   1.227 -3.1885 -1.0802 -0.9058
 4555TIP3   OH235299   3.087   5.549   7.220  0.0446  0.0010  0.3197
 4555TIP3    H135300   3.097   5.460   7.186 -0.9865 -0.5360  1.3371
 4555TIP3    H235301   3.152   5.555   7.290 -0.3998 -0.2302  0.7582
 4556TIP3   OH235302   4.724   5.332   1.797  0.8102  0.3600  0.2485
 4556TIP3    H135303   4.657   5.377   1.746  2.4150  3.4022  0.5940
 4556TIP3    H235304   4.675   5.280   1.861 -1.2213  1.9209  0.0574
 4557TIP3   OH235305   0.079   2.532   2.968 -0.0834  0.2630  0.7589
 4557TIP3    H135306   0.126   2.564   3.045  0.2177 -0.7703  1.0114
 4557TIP3    H235307   0.068   2.438   2.984 -1.4628  0.3325  0.2974
 4558TIP3   OH235308   2.268   2.355   8.384  0.1415  0.3078  0.4987
 4558TIP3    H135309   2.194   2.297   8.365  0.3759  0.3405 -0.5892
 4558TIP3    H235310   2.314   2.313   8.457 -0.3268 -0.2785  0.4628
 4559TIP3   OH235311   2.582   3.871   2.515 -0.4368 -0.0098 -0.4480
 4559TIP3    H135312   2.550   3.787   2.549  0.2426 -0.3937 -0.7284
 4559TIP3    H235313   2.554   3.935   2.580 -0.7807 -0.4832 -0.1185
 4560TIP3   OH235314   4.788   3.448   0.348 -0.4630 -0.5030  0.0904
 4560TIP3    H135315   4.869   3.442   0.398 -1.4516 -1.5752  1.6727
 4560TIP3    H235316   4.807   3.511   0.279  1.4951 -0.2175  0.8186
 4561TIP3   OH235317   4.112   4.338   1.375  0.0086 -0.1124  0.3707
 4561TIP3    H135318   4.145   4.314   1.462  0.8607 -1.2797 -0.2367
 4561TIP3    H235319   4.096   4.254   1.332 -0.0668  0.4395 -0.7166
 4562TIP3   OH235320   5.252   6.159   8.074 -0.0647  0.1850  0.0855
 4562TIP3    H135321   5.328   6.146   8.130  0.6329 -2.7622 -1.3880
 4562TIP3    H235322   5.190   6.092   8.101 -0.5623  0.0661 -1.2692
 4563TIP3   OH235323   4.301   6.731   1.499  0.7561  0.7693  0.1476
 4563TIP3    H135324   4.305   6.826   1.513  1.5817  0.7883 -0.1450
 4563TIP3    H235325   4.305   6.694   1.588  1.4610  0.9915  0.2167
 4564TIP3   OH235326   3.498   0.564   0.797  0.4436  0.6106  0.5399
 4564TIP3    H135327   3.509   0.641   0.742 -0.1541 -0.1346 -0.6769
 4564TIP3    H235328   3.406   0.565   0.822  0.9289  1.5105  2.4602
 4565TIP3   OH235329   0.117   4.547   8.047  0.1174 -0.4705 -0.0405
 4565TIP3    H135330   0.055   4.494   8.096  0.1096 -1.5204 -1.1343
 4565TIP3    H235331   0.097   4.637   8.072 -1.1412 -0.8636  0.4314
 4566TIP3   OH235332   0.548   4.099   1.539  0.4069  0.2992 -0.1262
 4566TIP3    H135333   0.621   4.040   1.523 -0.1496 -0.0933 -1.3566
 4566TIP3    H235334   0.507   4.065   1.619  0.0298 -1.0797 -0.8706
 4567TIP3   OH235335   3.944   6.024   1.484 -0.2736 -0.0762  0.1394
 4567TIP3    H135336   4.034   6.042   1.511 -0.6341  0.5796  0.9745
 4567TIP3    H235337   3.897   6.106   1.502 -0.5839  0.3895 -2.4719
 4568TIP3   OH235338   3.188   3.080   7.168 -0.5742  0.3211 -0.2002
 4568TIP3    H135339   3.164   2.988   7.162 -0.6159  0.3639 -0.6950
 4568TIP3    H235340   3.173   3.115   7.081  1.1782  0.3757 -0.5174
 4569TIP3   OH235341   4.693   6.821   1.693 -0.1510  0.0308  0.6700
 4569TIP3    H135342   4.782   6.785   1.695 -0.5011 -0.8584  0.8024
 4569TIP3    H235343   4.650   6.781   1.768 -0.8856 -0.1362  0.1669
 4570TIP3   OH235344   3.352   2.967   1.787 -0.3557  0.7612  0.3837
 4570TIP3    H135345   3.313   3.049   1.817 -1.0192  1.8271 -2.9066
 4570TIP3    H235346   3.417   2.993   1.721  0.1752 -1.3113 -0.0141
 4571TIP3   OH235347   2.484   4.856   7.611 -0.1775  0.4743 -0.4281
 4571TIP3    H135348   2.571   4.836   7.644  1.0017  4.0046 -0.8927
 4571TIP3    H235349   2.424   4.815   7.673  1.7109 -2.3848 -0.2990
 4572TIP3   OH235350   3.879   5.126   0.080 -0.4875  0.7080 -0.6016
 4572TIP3    H135351   3.786   5.107   0.072 -0.1554 -0.1256 -3.7481
 4572TIP3    H235352   3.889   5.214   0.042  0.0192  0.7323 -0.4188
 4573TIP3   OH235353   3.213   6.375   7.357 -0.1234 -0.5296  0.6358
 4573TIP3    H135354   3.265   6.439   7.308 -0.7282 -0.0240  0.6344
 4573TIP3    H235355   3.158   6.333   7.291 -1.0055  0.2182  0.8833
 4574TIP3   OH235356   2.386   3.467   2.885  0.1112 -0.1324 -0.3158
 4574TIP3    H135357   2.320   3.532   2.861  0.4930  0.0110 -1.0086
 4574TIP3    H235358   2.457   3.518   2.923  0.0790 -0.2222 -0.1373
 4575TIP3   OH235359   6.662   4.397   0.465 -0.4053 -0.5313  0.6191
 4575TIP3    H135360   6.638   4.329   0.402 -1.7110 -0.0191  0.5553
 4575TIP3    H235361   6.586   4.454   0.470 -0.2502 -0.4140  2.4692
 4576TIP3   OH235362   3.783   3.627   7.825 -0.1466  0.1940  0.2027
 4576TIP3    H135363   3.702   3.592   7.787  0.4523  0.7729 -1.7191
 4576TIP3    H235364   3.755   3.678   7.900 -1.3661 -1.2651  0.7970
 4577TIP3   OH235365   0.462   3.725   1.834 -0.5729  0.2107  0.2240
 4577TIP3    H135366   0.513   3.751   1.911 -0.0567  0.6994 -0.2698
 4577TIP3    H235367   0.471   3.630   1.829 -0.1418  0.2407  0.4399
 4578TIP3   OH235368   0.084   3.447   1.714  0.0069  0.3977 -0.4564
 4578TIP3    H135369   0.164   3.400   1.689  0.5908  1.6888 -1.0834
 4578TIP3    H235370   0.028   3.442   1.637  0.2657  1.1371 -0.6937
 4579TIP3   OH235371   3.352   6.200   2.164 -0.1567  0.4151 -0.0625
 4579TIP3    H135372   3.337   6.170   2.254 -1.9881  1.2475 -0.0522
 4579TIP3    H235373   3.374   6.293   2.173  0.5392  0.2883 -0.4229
 4580TIP3   OH235374   0.310   3.388   1.012 -0.3366 -0.1522  0.6430
 4580TIP3    H135375   0.297   3.367   1.104  1.7661  0.4642  1.1464
 4580TIP3    H235376   0.304   3.483   1.007 -0.3291 -0.1713  0.1582
 4581TIP3   OH235377   0.187   0.491   1.017  0.0395 -0.0904  0.1374
 4581TIP3    H135378   0.263   0.533   1.057 -0.8445  0.4143  1.3616
 4581TIP3    H235379   0.223   0.430   0.954  1.4275  2.1664 -1.4103
 4582TIP3   OH235380   4.698   0.654   6.995  0.2590  0.0652  0.0090
 4582TIP3    H135381   4.646   0.683   7.070  2.6913 -0.5668  2.0673
 4582TIP3    H235382   4.721   0.735   6.949 -1.8952  0.4022 -0.6030
 4583TIP3   OH235383   0.762   4.516   1.940 -0.9443 -0.8631 -0.2824
 4583TIP3    H135384   0.845   4.550   1.972 -1.4967 -0.4265  0.7593
 4583TIP3    H235385   0.783   4.431   1.901  0.0850 -0.4343 -0.6967
 4584TIP3   OH235386   6.482   3.672   8.284  0.5896 -0.1516 -0.2528
 4584TIP3    H135387   6.549   3.604   8.294 -0.5477 -1.0515  1.9819
 4584TIP3    H235388   6.401   3.630   8.312 -0.2478  1.9954  0.7832
 4585TIP3   OH235389   1.238   3.383   2.145 -0.4895 -0.3912  0.0391
 4585TIP3    H135390   1.271   3.317   2.206 -1.6083 -1.6918 -0.6989
 4585TIP3    H235391   1.263   3.467   2.184  1.8449 -1.2376  0.4962
 4586TIP3   OH235392   6.629   1.071   8.365  0.0899  0.2364 -0.3276
 4586TIP3    H135393   6.654   1.145   8.310  0.7583  1.0005  0.9431
 4586TIP3    H235394   6.533   1.073   8.366  0.0741  2.0225  0.8096
 4587TIP3   OH235395   0.747   0.859   1.592 -0.5468 -0.3133  0.1536
 4587TIP3    H135396   0.708   0.775   1.614 -0.6174 -0.3518 -0.1049
 4587TIP3    H235397   0.776   0.849   1.501  1.0584 -0.6414  0.6694
 4588TIP3   OH235398   6.093   6.118   2.171 -0.4339 -0.0194  0.1470
 4588TIP3    H135399   6.189   6.111   2.166 -0.3330  0.7378  0.9007
 4588TIP3    H235400   6.066   6.039   2.218 -0.3205 -0.9269 -1.2378
 4589TIP3   OH235401   1.543   2.887   1.374  0.1992  0.0094 -0.5794
 4589TIP3    H135402   1.593   2.830   1.316  0.3299 -0.2644 -0.1997
 4589TIP3    H235403   1.508   2.956   1.317  2.2119  1.0573 -0.6288
 4590TIP3   OH235404   6.719   3.828   0.153  0.3670 -0.5838 -0.3916
 4590TIP3    H135405   6.791   3.807   0.212  0.3514 -0.0641 -0.1870
 4590TIP3    H235406   6.642   3.831   0.210  0.5521  1.3045 -0.1723
 4591TIP3   OH235407   4.617   5.870   0.130 -0.1753 -0.1606  0.4547
 4591TIP3    H135408   4.577   5.931   0.067 -0.1549 -1.2235 -0.6208
 4591TIP3    H235409   4.634   5.791   0.079  0.4366 -0.8302  1.6621
 4592TIP3   OH235410   0.018   2.763   8.297 -0.6120  0.2580  0.5446
 4592TIP3    H135411  -0.013   2.723   8.215  0.0368 -0.5845  0.6963
 4592TIP3    H235412  -0.018   2.707   8.366 -0.2509  0.3228  0.7890
 4593TIP3   OH235413   0.840   1.530   7.629  0.4545 -0.6829 -0.2250
 4593TIP3    H135414   0.822   1.482   7.710  2.2613 -0.1377  0.5578
 4593TIP3    H235415   0.899   1.473   7.580  2.3935  0.5088  0.5869
 4594TIP3   OH235416   3.904   4.175   1.241  0.0802  0.1370 -0.1684
 4594TIP3    H135417   3.827   4.124   1.217  0.0989 -1.2942  2.4166
 4594TIP3    H235418   3.881   4.213   1.326  2.0454  0.0045  0.4703
 4595TIP3   OH235419   5.802   1.843   1.543 -0.2893 -0.0391  0.0957
 4595TIP3    H135420   5.806   1.809   1.454 -0.4397 -0.2724  0.1758
 4595TIP3    H235421   5.855   1.783   1.595  0.7862  0.7754 -0.0369
 4596TIP3   OH235422   2.319   3.398   2.143  0.0809  0.3278 -0.1069
 4596TIP3    H135423   2.307   3.327   2.081  1.2845  0.7597 -0.8646
 4596TIP3    H235424   2.327   3.355   2.228 -0.6146 -0.3287 -0.3580
 4597TIP3   OH235425   3.337   6.631   0.123 -0.3565 -0.3348 -0.5068
 4597TIP3    H135426   3.252   6.674   0.137 -0.3226  0.0169 -1.3761
 4597TIP3    H235427   3.377   6.630   0.210 -2.1056 -2.3546  0.3519
 4598TIP3   OH235428   6.900   1.724   2.329 -0.0379 -0.4352  0.5663
 4598TIP3    H135429   6.945   1.670   2.264  0.2532 -0.7806  1.0550
 4598TIP3    H235430   6.809   1.727   2.299  0.5502  1.6070 -1.3543
 4599TIP3   OH235431   2.603   1.432   0.628 -0.1829  0.2804  0.3197
 4599TIP3    H135432   2.660   1.440   0.705  1.6905  0.6583 -1.0359
 4599TIP3    H235433   2.641   1.359   0.578 -1.2741  0.1446 -0.3404
 4600TIP3   OH235434   4.641   1.240   2.766  0.4154 -0.3041 -0.0781
 4600TIP3    H135435   4.666   1.295   2.840  1.9106 -0.7552 -0.2093
 4600TIP3    H235436   4.553   1.208   2.788 -0.1654  1.4833  0.3540
 4601TIP3   OH235437   3.050   2.022   2.748 -0.1135 -0.3455  0.4378
 4601TIP3    H135438   3.081   2.105   2.783  2.7628 -1.4020  0.7198
 4601TIP3    H235439   3.087   1.956   2.808  0.3513 -1.9571 -1.5198
 4602TIP3   OH235440   3.495   2.702   8.277 -0.3235 -0.2358  0.6277
 4602TIP3    H135441   3.556   2.675   8.346 -0.1864 -0.9338  0.2414
 4602TIP3    H235442   3.500   2.798   8.277 -1.2086 -0.1503  2.3706
 4603TIP3   OH235443   1.374   0.790   1.086 -0.0283 -0.0652 -0.0243
 4603TIP3    H135444   1.416   0.706   1.072  0.5753  0.4386 -1.3661
 4603TIP3    H235445   1.357   0.824   0.998 -2.5186  0.1207  0.4564
 4604TIP3   OH235446   3.710   0.601   2.430  0.3169 -0.5344  0.2463
 4604TIP3    H135447   3.730   0.630   2.519 -1.3486 -2.8462  1.4851
 4604TIP3    H235448   3.626   0.642   2.409  0.4702 -0.3784 -0.0715
 4605TIP3   OH235449   4.805   1.390   0.728 -0.3553  0.1214  0.3603
 4605TIP3    H135450   4.861   1.379   0.651 -1.7270  0.1486 -0.6820
 4605TIP3    H235451   4.796   1.302   0.764 -0.1632  0.0153  0.1491
 4606TIP3   OH235452   1.183   6.435   0.656 -0.8269 -0.1835  0.4295
 4606TIP3    H135453   1.217   6.392   0.735 -0.7902 -1.2911 -0.1575
 4606TIP3    H235454   1.260   6.442   0.599 -0.8212  0.7548  0.5469
 4607TIP3   OH235455   4.295   6.494   1.797  0.5145 -0.7058  0.1764
 4607TIP3    H135456   4.291   6.408   1.838 -0.5480 -1.1490 -0.8133
 4607TIP3    H235457   4.385   6.503   1.768  0.5844 -1.5651  0.1141
 4608TIP3   OH235458   4.608   5.332   7.861  0.0736 -0.0467 -0.1072
 4608TIP3    H135459   4.567   5.417   7.844  1.1540  1.0430  2.2453
 4608TIP3    H235460   4.574   5.305   7.946  2.0821 -0.4121  0.6422
 4609TIP3   OH235461   3.801   6.778   1.837 -0.4773  0.0798  0.3819
 4609TIP3    H135462   3.771   6.858   1.881 -1.6190  0.0291 -0.2534
 4609TIP3    H235463   3.761   6.783   1.750  0.6172 -0.4921 -0.1629
 4610TIP3   OH235464   2.589   4.420   1.153  0.4042 -0.8175  0.6186
 4610TIP3    H135465   2.555   4.333   1.131 -0.0883 -0.5042  0.0965
 4610TIP3    H235466   2.674   4.425   1.109  0.1278 -0.7847  0.0748
 4611TIP3   OH235467   3.600   0.657   1.411  0.5428 -0.1511 -0.2939
 4611TIP3    H135468   3.562   0.718   1.348 -0.1459  0.8244  1.0249
 4611TIP3    H235469   3.532   0.591   1.424  0.7923 -0.5067 -0.7606
 4612TIP3   OH235470   5.591   4.380   2.187  0.0746 -0.2900 -0.0332
 4612TIP3    H135471   5.533   4.305   2.169  0.5507 -0.4995 -0.6952
 4612TIP3    H235472   5.575   4.441   2.115 -0.8944  0.6203  0.9124
 4613TIP3   OH235473   1.217   5.876   0.698 -0.2692  0.5568 -0.5954
 4613TIP3    H135474   1.227   5.794   0.745  1.0256 -0.3498 -2.3453
 4613TIP3    H235475   1.276   5.937   0.743  0.0347  0.0583 -0.3174
 4614TIP3   OH235476   5.859   3.272   7.851 -0.0772 -0.1925 -0.3849
 4614TIP3    H135477   5.811   3.226   7.920  0.8883 -0.8052 -0.0950
 4614TIP3    H235478   5.809   3.353   7.837 -1.1463 -0.7829 -0.0746
 4615TIP3   OH235479   0.358   4.608   2.696 -0.1573 -0.1026  0.2808
 4615TIP3    H135480   0.312   4.524   2.687  2.1053 -1.2245 -2.0741
 4615TIP3    H235481   0.417   4.611   2.621  0.6549  3.1311  0.9178
 4616TIP3   OH235482   1.935   5.760   1.265  0.2745 -0.3338 -0.1365
 4616TIP3    H135483   1.938   5.709   1.184  0.8872  0.3270 -0.5378
 4616TIP3    H235484   1.842   5.768   1.285  0.0199  0.8382 -1.6459
 4617TIP3   OH235485   0.540   3.570   1.485  0.4719  0.2746 -0.0187
 4617TIP3    H135486   0.610   3.516   1.448  0.0557  0.7212 -1.5314
 4617TIP3    H235487   0.503   3.616   1.409  0.0986  1.8387  1.0755
 4618TIP3   OH235488   6.082   5.310   1.852  0.0675  0.0094 -0.2860
 4618TIP3    H135489   6.059   5.221   1.881  0.6333 -0.0854 -0.1115
 4618TIP3    H235490   6.038   5.320   1.768 -0.5231 -0.2014 -0.0050
 4619TIP3   OH235491   6.574   4.531   1.582 -0.0928  0.2197 -0.1119
 4619TIP3    H135492   6.515   4.508   1.654  0.4624  0.0416  0.2907
 4619TIP3    H235493   6.647   4.575   1.624  0.3126 -0.0228 -0.5563
 4620TIP3   OH235494   2.883   3.065   8.351  0.6252 -0.0000  0.7830
 4620TIP3    H135495   2.922   3.152   8.361 -0.4469  0.5164  0.6034
 4620TIP3    H235496   2.791   3.082   8.333  0.0577 -1.1914  2.3070
 4621TIP3   OH235497   3.968   5.105   7.735 -0.3527 -0.3357  0.6734
 4621TIP3    H135498   3.924   5.025   7.708  0.4040 -0.7553  0.6630
 4621TIP3    H235499   3.995   5.147   7.654 -0.3288 -0.3087  0.6950
 4622TIP3   OH235500   4.593   3.893   1.243  0.1165  0.0054 -0.4768
 4622TIP3    H135501   4.557   3.834   1.310 -2.8332  2.4036  0.2576
 4622TIP3    H235502   4.686   3.874   1.243  0.1909 -0.7080  3.7951
 4623TIP3   OH235503   3.511   2.500   1.863  0.2107  0.2848 -0.4664
 4623TIP3    H135504   3.511   2.429   1.799 -0.4311 -0.2467  0.1051
 4623TIP3    H235505   3.566   2.568   1.823 -0.3445  0.0623 -1.6785
 4624TIP3   OH235506   3.047   1.287   1.872 -0.0704 -0.2061  0.7162
 4624TIP3    H135507   3.006   1.319   1.952 -0.9730  1.2227 -0.2565
 4624TIP3    H235508   3.140   1.305   1.884 -0.3443  1.2351  0.9551
 4625TIP3   OH235509   3.409   3.867   1.756 -0.2091  0.0833  0.3001
 4625TIP3    H135510   3.500   3.858   1.784 -0.2628 -1.1306  0.1592
 4625TIP3    H235511   3.361   3.805   1.810 -0.7162 -0.3592 -0.6360
 4626TIP3   OH235512   4.575   0.854   6.607  0.2541  0.1720 -0.3889
 4626TIP3    H135513   4.548   0.858   6.515 -1.6855 -0.9671  0.0821
 4626TIP3    H235514   4.531   0.776   6.641  1.9199 -0.1151  1.2185
 4627TIP3   OH235515   1.199   0.102   0.819  0.2790  0.1947  0.0422
 4627TIP3    H135516   1.222   0.058   0.900 -0.7069 -0.8959 -0.2477
 4627TIP3    H235517   1.258   0.066   0.753  0.0757 -0.0256 -0.0191
 4628TIP3   OH235518   2.235   0.277   1.814 -0.5350 -0.1005 -0.1582
 4628TIP3    H135519   2.232   0.230   1.731 -0.6571  1.3515 -0.9925
 4628TIP3    H235520   2.148   0.265   1.852 -0.6050 -0.4193 -0.4164
 4629TIP3   OH235521   5.100   6.196   7.461  1.1632 -0.0830 -0.5344
 4629TIP3    H135522   5.125   6.126   7.401  1.5896 -1.2605  0.9649
 4629TIP3    H235523   5.038   6.250   7.410  0.6293 -1.6754 -1.6536
 4630TIP3   OH235524   2.607   1.214   0.839  0.5027  0.3118  0.1242
 4630TIP3    H135525   2.568   1.297   0.867 -1.5698 -0.5868  0.0561
 4630TIP3    H235526   2.557   1.147   0.885  0.4919 -0.9954 -1.6967
 4631TIP3   OH235527   1.506   3.595   2.492  0.4256  0.1664 -0.2734
 4631TIP3    H135528   1.435   3.559   2.545  0.2929  1.0786  0.1812
 4631TIP3    H235529   1.586   3.564   2.536  0.3342  1.7136  1.0654
 4632TIP3   OH235530   0.503   1.264   0.790 -0.3469  0.1625 -0.0510
 4632TIP3    H135531   0.432   1.249   0.852 -1.6461  1.4663 -1.1535
 4632TIP3    H235532   0.574   1.301   0.843 -0.6878 -0.6191  0.9752
 4633TIP3   OH235533   0.093   4.056   0.853  0.1931  0.2310  0.1756
 4633TIP3    H135534   0.050   3.972   0.837 -0.9416  0.7162  0.5664
 4633TIP3    H235535   0.034   4.102   0.912  0.0980  1.8546 -1.0997
 4634TIP3   OH235536   2.259   2.282   7.350  0.3599 -0.0944  0.1139
 4634TIP3    H135537   2.257   2.226   7.428 -0.5691  1.4867  1.2853
 4634TIP3    H235538   2.250   2.371   7.385 -1.1326  0.5834 -1.8776
 4635TIP3   OH235539   4.930   2.095   0.003  0.3886  0.1157  0.3976
 4635TIP3    H135540   4.940   2.073  -0.090  0.8397  2.2224 -0.0987
 4635TIP3    H235541   4.982   2.175   0.014  0.4521 -0.1685  2.5093
 4636TIP3   OH235542   0.368   3.098   1.606  0.7317  0.2587 -0.1941
 4636TIP3    H135543   0.388   3.190   1.622  0.2432  0.6680 -1.8053
 4636TIP3    H235544   0.424   3.050   1.668  0.4203  1.6367  1.2100
 4637TIP3   OH235545   5.322   5.877   8.158  1.0457  0.0405 -0.3859
 4637TIP3    H135546   5.414   5.903   8.153  0.4025  2.4137 -1.2523
 4637TIP3    H235547   5.311   5.816   8.085  1.9622 -0.4227 -0.1511
 4638TIP3   OH235548   3.651   0.549   1.730  0.3656  0.3848  0.2780
 4638TIP3    H135549   3.626   0.606   1.803 -1.3637  0.1105 -0.0587
 4638TIP3    H235550   3.672   0.608   1.659 -2.3174  0.6813 -0.3618
 4639TIP3   OH235551   3.238   2.955   7.642  0.0429  0.2313 -0.1912
 4639TIP3    H135552   3.176   2.971   7.713  0.5782  0.6379  0.1973
 4639TIP3    H235553   3.190   2.901   7.579 -1.1297  1.5889 -0.5219
 4640TIP3   OH235554   2.044   2.846   2.019  0.3623 -0.2720 -0.2354
 4640TIP3    H135555   2.126   2.811   2.053 -0.2970 -2.7010 -0.9245
 4640TIP3    H235556   2.062   2.865   1.927  0.3117 -0.3047 -0.2525
 4641TIP3   OH235557   5.328   4.160   0.609  0.4303  0.0450  0.1840
 4641TIP3    H135558   5.286   4.121   0.532 -0.2587 -2.3830  1.6857
 4641TIP3    H235559   5.262   4.219   0.645  0.7192  1.1167 -0.9626
 4642TIP3   OH235560   0.608   0.338   1.721 -0.4065  0.9117 -0.1086
 4642TIP3    H135561   0.570   0.250   1.716  1.2593  0.0281  1.6720
 4642TIP3    H235562   0.573   0.374   1.802  0.3779  1.1437  0.1325
 4643TIP3   OH235563   6.270   0.153   7.270  0.0111 -0.2605 -0.5716
 4643TIP3    H135564   6.176   0.133   7.273  0.0362 -0.2535  0.7005
 4643TIP3    H235565   6.294   0.139   7.178 -0.8242 -2.0936 -0.5529
 4644TIP3   OH235566   6.372   5.675   1.092  0.4632 -0.0672  0.4329
 4644TIP3    H135567   6.289   5.694   1.049  1.6376  1.3128 -1.3705
 4644TIP3    H235568   6.392   5.584   1.067  0.0699 -0.0115 -0.0857
 4645TIP3   OH235569   3.875   5.963   0.375  0.2549 -0.6143 -0.0293
 4645TIP3    H135570   3.782   5.981   0.390 -0.1787 -1.7982 -1.1450
 4645TIP3    H235571   3.895   6.006   0.292  0.9268  0.2943  0.5842
 4646TIP3   OH235572   3.852   6.453   7.196 -0.2008  0.4362 -0.0537
 4646TIP3    H135573   3.947   6.447   7.187 -0.0722  0.8036  0.8577
 4646TIP3    H235574   3.827   6.525   7.138  0.2253  1.0291  0.4779
 4647TIP3   OH235575   4.318   5.212   1.816  0.1011 -0.0906 -0.3323
 4647TIP3    H135576   4.333   5.124   1.851 -2.1585 -0.6370 -0.5851
 4647TIP3    H235577   4.274   5.197   1.732  1.5382  1.2758 -1.3914
 4648TIP3   OH235578   6.950   0.200   1.483  0.3291 -0.4407 -0.6514
 4648TIP3    H135579   6.902   0.269   1.530  2.0338  1.8528 -2.0790
 4648TIP3    H235580   7.036   0.199   1.524  0.2034 -2.1249 -0.3571
 4649TIP3   OH235581   2.128   5.607   0.648  0.1290  0.3437  0.0881
 4649TIP3    H135582   2.115   5.519   0.682 -0.3822 -1.1793 -3.6028
 4649TIP3    H235583   2.042   5.649   0.654 -0.1394 -0.1855 -0.0421
 4650TIP3   OH235584   5.715   1.370   7.943 -0.1722 -0.0079 -0.2151
 4650TIP3    H135585   5.725   1.464   7.927  1.0129  0.2809  1.8853
 4650TIP3    H235586   5.642   1.363   8.004  0.9043 -0.2632  1.0720
 4651TIP3   OH235587   0.798   5.987   8.155  0.1959 -0.2542 -0.2204
 4651TIP3    H135588   0.816   5.910   8.100  1.2363  0.7000 -1.2770
 4651TIP3    H235589   0.883   6.008   8.194  0.4726  1.6610 -1.7131
 4652TIP3   OH235590   0.444   5.456   0.362 -0.0038  0.5582  0.9333
 4652TIP3    H135591   0.386   5.380   0.355 -1.3702  1.6963 -1.3262
 4652TIP3    H235592   0.531   5.418   0.375 -0.7650 -1.3624  0.8475
 4653TIP3   OH235593   5.903   5.079   7.821  0.0505  0.2548  0.0871
 4653TIP3    H135594   5.812   5.082   7.853 -0.6754  0.6868 -1.8718
 4653TIP3    H235595   5.918   4.987   7.799 -0.0942  0.2692 -0.0729
 4654TIP3   OH235596   1.660   1.787   7.503 -0.5361  0.2684  0.4343
 4654TIP3    H135597   1.745   1.753   7.529  0.1106  1.2928 -0.2860
 4654TIP3    H235598   1.677   1.837   7.423 -1.7495  0.7941  0.4819
 4655TIP3   OH235599   0.070   3.520   8.142 -0.2749 -0.2027  0.0694
 4655TIP3    H135600   0.004   3.590   8.138  1.1610  1.1527 -1.0472
 4655TIP3    H235601   0.153   3.566   8.155  0.4431 -1.9092  2.1293
 4656TIP3   OH235602   4.795   6.581   2.507 -0.3232  0.2016 -0.2471
 4656TIP3    H135603   4.786   6.493   2.544 -0.1946  0.5469  0.6048
 4656TIP3    H235604   4.884   6.608   2.528 -0.1764  0.3299 -0.9820
 4657TIP3   OH235605   2.961   1.904   8.350 -0.4435  0.0201 -0.2818
 4657TIP3    H135606   2.917   1.980   8.312  0.9664  0.4608 -1.1208
 4657TIP3    H235607   2.899   1.832   8.339 -0.8318  0.5423 -1.7381
 4658TIP3   OH235608   5.241   5.209   7.851 -0.8149  0.4516  0.0481
 4658TIP3    H135609   5.294   5.198   7.772  0.6163 -0.6516  1.1029
 4658TIP3    H235610   5.302   5.244   7.915 -1.5368 -0.1889  1.1180
 4659TIP3   OH235611   6.960   0.518   1.748 -0.2117  0.0951  0.4537
 4659TIP3    H135612   6.971   0.613   1.737 -3.4616  0.4738 -0.9220
 4659TIP3    H235613   6.891   0.495   1.686 -0.9066 -2.8244  2.1152
 4660TIP3   OH235614   4.482   1.107   1.978  0.0167 -0.3100 -0.4197
 4660TIP3    H135615   4.544   1.179   1.987  0.6765 -0.9295  0.1109
 4660TIP3    H235616   4.434   1.107   2.061  0.1352 -0.5884 -0.3517
 4661TIP3   OH235617   3.693   2.081   7.055  0.5144 -0.3743  0.6186
 4661TIP3    H135618   3.691   2.108   6.964  2.1878  0.5051  0.8075
 4661TIP3    H235619   3.786   2.082   7.079  0.1526 -0.9930  2.2107
 4662TIP3   OH235620   4.019   3.119   8.452 -0.3012  0.2537 -0.0282
 4662TIP3    H135621   4.012   3.117   8.356 -1.9922  0.0511  0.0577
 4662TIP3    H235622   3.944   3.067   8.482  0.0225  0.5810  1.4151
 4663TIP3   OH235623   5.771   6.968   8.020 -0.2828  0.1135 -0.4832
 4663TIP3    H135624   5.796   6.924   7.939  1.4489 -0.7489  0.4717
 4663TIP3    H235625   5.843   7.029   8.037 -1.3696  1.4083 -0.3734
 4664TIP3   OH235626   5.208   6.894   7.056  0.4689 -0.2299 -0.3136
 4664TIP3    H135627   5.158   6.886   7.138 -0.2887  1.2705 -0.5864
 4664TIP3    H235628   5.287   6.941   7.082 -0.1373  0.9728 -0.5294
 4665TIP3   OH235629   4.164   4.116   7.867  0.2965  0.1462  0.1557
 4665TIP3    H135630   4.259   4.108   7.876  0.5098 -0.2089 -2.0268
 4665TIP3    H235631   4.147   4.100   7.775 -1.8545  0.7210  0.4053
 4666TIP3   OH235632   3.182   6.216   8.397 -0.5343 -0.1390  0.4995
 4666TIP3    H135633   3.089   6.238   8.395 -0.3199  0.8920  0.8884
 4666TIP3    H235634   3.200   6.194   8.488 -0.1816  0.7504  0.6580
 4667TIP3   OH235635   0.658   0.404   6.969 -0.0853 -0.5607 -0.4140
 4667TIP3    H135636   0.626   0.366   6.887 -0.0710  1.0161 -1.1960
 4667TIP3    H235637   0.688   0.492   6.944  1.2684 -0.5785  1.0197
 4668TIP3   OH235638   2.218   4.391   7.686  0.0508  0.2878 -0.6667
 4668TIP3    H135639   2.262   4.444   7.752  1.0247 -0.9628 -0.2591
 4668TIP3    H235640   2.127   4.385   7.716  0.5085 -0.3768  0.6658
 4669TIP3   OH235641   4.099   4.571   1.589  0.1295  0.3360 -0.3683
 4669TIP3    H135642   4.039   4.532   1.653 -0.0910  1.1454 -0.0682
 4669TIP3    H235643   4.137   4.496   1.543  0.2353 -0.2618  0.6543
 4670TIP3   OH235644   0.475   6.782   0.267 -0.4887 -0.4108  0.3889
 4670TIP3    H135645   0.430   6.775   0.183  1.7604 -0.6847 -0.8869
 4670TIP3    H235646   0.444   6.707   0.318 -1.6311 -0.4281 -0.3093
 4671TIP3   OH235647   6.818   1.630   3.703 -0.3695 -0.2132  0.4155
 4671TIP3    H135648   6.833   1.697   3.637 -1.2694 -1.5074 -1.1628
 4671TIP3    H235649   6.906   1.596   3.723 -0.1382 -0.2273 -0.5799
 4672TIP3   OH235650   5.431   0.426   1.187  0.1064 -0.0554 -0.1813
 4672TIP3    H135651   5.416   0.403   1.278 -0.5894  0.4556 -0.1545
 4672TIP3    H235652   5.382   0.361   1.137 -2.1847  1.5156 -0.0971
 4673TIP3   OH235653   2.006   5.626   8.192 -0.7262  0.8080  0.4912
 4673TIP3    H135654   2.069   5.693   8.219  0.3206  0.1479 -0.2123
 4673TIP3    H235655   2.060   5.557   8.154 -1.9592  0.7343 -1.2538
 4674TIP3   OH235656   4.267   2.394   2.994  0.7976 -0.0012 -0.0051
 4674TIP3    H135657   4.303   2.308   2.974  1.3023  0.3153 -0.5100
 4674TIP3    H235658   4.208   2.379   3.068  0.6414 -0.8270 -0.2811
 4675TIP3   OH235659   6.437   6.594   2.881  0.0197 -0.6923  0.1889
 4675TIP3    H135660   6.473   6.665   2.829 -1.0226  0.2490  0.7088
 4675TIP3    H235661   6.457   6.618   2.972  0.1583 -1.3558  0.3412
 4676TIP3   OH235662   3.624   5.427   1.334 -0.0163 -0.5858  1.0000
 4676TIP3    H135663   3.605   5.496   1.397 -0.2617  0.9270 -0.6537
 4676TIP3    H235664   3.718   5.410   1.344  0.2208  0.5798  0.8887
 4677TIP3   OH235665   1.336   1.855   1.254  0.0517 -0.0657  0.0153
 4677TIP3    H135666   1.395   1.923   1.286  1.8774 -1.2437 -0.6968
 4677TIP3    H235667   1.309   1.808   1.333 -1.9206  1.9126  0.6218
 4678TIP3   OH235668   2.652   2.777   0.405 -0.4986  0.0522  0.0125
 4678TIP3    H135669   2.593   2.703   0.421 -0.8385  0.1767 -0.6021
 4678TIP3    H235670   2.708   2.780   0.482 -0.3278 -0.9934 -0.0485
 4679TIP3   OH235671   5.681   2.501   0.777 -0.4478 -0.4801 -0.5892
 4679TIP3    H135672   5.716   2.494   0.688 -1.1429 -1.4324 -0.8131
 4679TIP3    H235673   5.591   2.531   0.765 -1.8327 -4.0969 -0.5646
 4680TIP3   OH235674   6.405   1.101   2.799  0.0524 -0.2590 -0.7709
 4680TIP3    H135675   6.398   1.153   2.718  2.0023 -0.5797 -1.1891
 4680TIP3    H235676   6.490   1.126   2.836  0.1428 -1.7038  0.0448
 4681TIP3   OH235677   1.847   6.163   0.833 -0.2205  0.5731  0.4801
 4681TIP3    H135678   1.806   6.156   0.919  1.8682  0.9710  1.5732
 4681TIP3    H235679   1.941   6.157   0.851  0.3213  1.7039 -1.6670
 4682TIP3   OH235680   1.711   0.128   1.278 -0.5163  0.0441 -0.1108
 4682TIP3    H135681   1.660   0.125   1.359 -0.5366 -0.6944 -0.1487
 4682TIP3    H235682   1.663   0.188   1.221 -0.2667  0.9176  0.5777
 4683TIP3   OH235683   3.544   3.009   2.137 -0.4392  0.1678  0.3304
 4683TIP3    H135684   3.519   3.038   2.049  0.7446  0.0840 -0.0611
 4683TIP3    H235685   3.490   3.061   2.196  0.0461  1.5789 -0.4139
 4684TIP3   OH235686   2.624   3.958   8.196  0.1648  0.7580 -0.2921
 4684TIP3    H135687   2.596   4.027   8.256  0.1715 -0.5465  1.2699
 4684TIP3    H235688   2.543   3.927   8.156 -0.1533 -0.0539  0.9440
 4685TIP3   OH235689   0.955   2.448   8.120  0.3806  0.2680 -0.9166
 4685TIP3    H135690   0.915   2.441   8.033 -1.1200 -0.8517 -0.1873
 4685TIP3    H235691   0.882   2.470   8.177  0.6853 -2.1159  0.5293
 4686TIP3   OH235692   3.576   3.835   0.209 -0.5887 -0.2371  0.2373
 4686TIP3    H135693   3.622   3.757   0.180 -0.7353  0.0942 -0.9046
 4686TIP3    H235694   3.554   3.882   0.129 -0.0741  1.2374  0.9233
 4687TIP3   OH235695   1.925   5.242   1.529 -0.2415  0.4372 -0.4822
 4687TIP3    H135696   1.918   5.244   1.434 -2.6222  1.7173 -0.3627
 4687TIP3    H235697   1.841   5.207   1.559  0.2619  0.5192  1.1519
 4688TIP3   OH235698   1.149   1.159   0.753 -0.2078 -0.6089 -0.3101
 4688TIP3    H135699   1.243   1.176   0.755 -0.4355  0.8099 -0.5353
 4688TIP3    H235700   1.111   1.232   0.800 -1.0996 -2.2537  1.6799
 4689TIP3   OH235701   4.699   5.252   2.658  0.6680  0.3887 -0.1444
 4689TIP3    H135702   4.763   5.217   2.595  0.8462  1.3206 -0.5070
 4689TIP3    H235703   4.696   5.188   2.728  1.0871 -0.2712 -0.7178
 4690TIP3   OH235704   6.595   1.324   2.318 -0.6639 -0.1118  0.0075
 4690TIP3    H135705   6.589   1.306   2.412  1.3215  0.8382  0.3657
 4690TIP3    H235706   6.548   1.407   2.307  0.5391  0.6582  0.4917
 4691TIP3   OH235707   3.889   4.380   0.339  0.3201  0.0416  0.1754
 4691TIP3    H135708   3.864   4.295   0.303 -1.5649 -0.6044  2.6804
 4691TIP3    H235709   3.838   4.443   0.288  0.5404 -0.4561 -0.6831
 4692TIP3   OH235710   5.431   6.288   0.367 -0.1337 -0.2152  0.3338
 4692TIP3    H135711   5.517   6.268   0.329 -0.1742  1.6805 -0.8484
 4692TIP3    H235712   5.386   6.339   0.300 -1.6585  0.0281  1.4937
 4693TIP3   OH235713   6.828   0.336   2.738  0.2542  0.3624  0.2020
 4693TIP3    H135714   6.920   0.309   2.748  0.3119  0.3355 -0.3945
 4693TIP3    H235715   6.781   0.256   2.718  0.2680  0.5342 -0.5489
 4694TIP3   OH235716   5.181   0.978   0.776 -0.3247  0.3572  0.1005
 4694TIP3    H135717   5.165   0.960   0.869  1.8529  0.7800  0.6058
 4694TIP3    H235718   5.117   0.923   0.730  0.2633 -1.8766  1.7811
 4695TIP3   OH235719   3.958   5.913   2.337 -0.2301  0.1384  0.6106
 4695TIP3    H135720   4.047   5.929   2.367  0.1964  0.7215 -0.8679
 4695TIP3    H235721   3.906   5.903   2.417  1.1765 -0.3630  1.4869
 4696TIP3   OH235722   2.329   5.777   2.156  0.3345  0.2256 -0.2545
 4696TIP3    H135723   2.234   5.788   2.146  0.3479  0.2959 -0.3051
 4696TIP3    H235724   2.347   5.808   2.245  0.6322  2.3438 -1.0074
 4697TIP3   OH235725   1.979   3.134   1.358 -0.0775 -0.5497  0.2441
 4697TIP3    H135726   2.015   3.202   1.415 -0.4510  0.0121 -0.1794
 4697TIP3    H235727   1.888   3.159   1.344  0.4493  0.3535 -2.0621
 4698TIP3   OH235728   4.711   4.347   0.993 -0.4555 -0.1047 -0.1507
 4698TIP3    H135729   4.669   4.327   1.077 -0.3454 -1.5291 -0.4110
 4698TIP3    H235730   4.804   4.330   1.009 -0.1407  1.5521 -0.0158
 4699TIP3   OH235731   1.952   2.046   7.424 -0.0970  0.1749 -0.0481
 4699TIP3    H135732   1.961   2.107   7.352  0.5736 -2.2231 -2.1432
 4699TIP3    H235733   1.857   2.034   7.434 -0.1966  0.6826 -0.3657
 4700TIP3   OH235734   4.721   0.392   1.246 -0.1634 -0.7423  0.4748
 4700TIP3    H135735   4.642   0.341   1.235 -1.4546  1.2933 -0.3269
 4700TIP3    H235736   4.763   0.391   1.160 -0.3175 -0.2667  0.3929
 4701TIP3   OH235737   2.906   1.692   6.893  0.1327 -0.0313  0.0557
 4701TIP3    H135738   2.941   1.677   6.805 -1.5647 -1.0660 -0.4824
 4701TIP3    H235739   2.843   1.622   6.906  0.8364 -0.3139  2.4062
 4702TIP3   OH235740   2.158   1.952   8.030 -0.0143 -0.0586  0.6290
 4702TIP3    H135741   2.116   2.037   8.022  0.9087  0.6962  2.9785
 4702TIP3    H235742   2.251   1.969   8.015  0.1411 -0.6985  0.8266
 4703TIP3   OH235743   4.105   3.309   0.145  0.0379  1.0718 -0.2396
 4703TIP3    H135744   4.193   3.334   0.118  0.8751 -1.7112 -0.4273
 4703TIP3    H235745   4.071   3.258   0.071 -0.4688 -0.5184  1.0311
 4704TIP3   OH235746   1.206   4.929   7.805  0.5439 -0.2459 -0.1298
 4704TIP3    H135747   1.267   5.003   7.796  1.4300 -0.9744 -0.3134
 4704TIP3    H235748   1.193   4.898   7.716 -2.6302  1.8110 -0.5316
 4705TIP3   OH235749   5.894   3.859   1.133  0.2149  0.2088  0.1227
 4705TIP3    H135750   5.936   3.787   1.181  1.1683  1.4729  1.2621
 4705TIP3    H235751   5.807   3.867   1.173  0.1781 -0.1759  0.1258
 4706TIP3   OH235752   4.078   1.886   0.213 -0.1000 -0.1793  0.0739
 4706TIP3    H135753   4.047   1.884   0.303  0.5282 -0.7135  0.2809
 4706TIP3    H235754   4.022   1.823   0.167 -0.3348 -0.0007  0.1099
 4707TIP3   OH235755   4.314   2.061   7.318  0.0313  0.3164 -0.1079
 4707TIP3    H135756   4.246   1.993   7.320  0.2920  0.0694  0.9071
 4707TIP3    H235757   4.338   2.068   7.226 -0.5713 -0.4014 -0.3311
 4708TIP3   OH235758   1.524   0.063   7.860 -0.4357 -0.3930  0.1066
 4708TIP3    H135759   1.497   0.119   7.787  1.7139  0.7494  0.1198
 4708TIP3    H235760   1.568   0.122   7.921  2.0699 -2.0693  0.0537
 4709TIP3   OH235761   5.356   3.139   1.281 -0.3780  0.1209 -0.5450
 4709TIP3    H135762   5.370   3.106   1.370  1.8202  0.0464 -0.8670
 4709TIP3    H235763   5.373   3.232   1.287 -0.7618  0.2124 -0.8099
 4710TIP3   OH235764   1.568   3.199   7.895  0.1841  0.1807  0.4931
 4710TIP3    H135765   1.531   3.267   7.838 -1.6999  1.0157  2.5517
 4710TIP3    H235766   1.535   3.117   7.859  0.6793  0.4992 -0.7439
 4711TIP3   OH235767   4.806   2.415   1.961  0.2198 -0.3459  0.3185
 4711TIP3    H135768   4.755   2.470   2.021 -0.0637 -1.2498  0.9356
 4711TIP3    H235769   4.783   2.448   1.874 -0.4334  0.0988  0.6419
 4712TIP3   OH235770   0.702   0.522   7.542 -0.1745 -0.2246 -0.1081
 4712TIP3    H135771   0.726   0.454   7.605  1.6494  0.9099  0.5146
 4712TIP3    H235772   0.727   0.486   7.457 -2.1734 -1.5594 -0.1885
 4713TIP3   OH235773   2.100   0.158   1.545 -0.2207  0.2939 -0.3864
 4713TIP3    H135774   2.037   0.120   1.605 -1.3236  1.5454 -0.6946
 4713TIP3    H235775   2.098   0.101   1.468 -0.7624  0.1514 -0.2698
 4714TIP3   OH235776   0.307   1.255   2.101  0.3063  0.3716  0.2188
 4714TIP3    H135777   0.286   1.274   2.193  0.8577  0.8732  0.2491
 4714TIP3    H235778   0.238   1.299   2.051 -0.6386 -0.8362  0.4163
 4715TIP3   OH235779   0.958   2.176   1.048 -0.1845 -0.2679  0.1151
 4715TIP3    H135780   0.868   2.143   1.042 -0.5048  0.7054 -0.7677
 4715TIP3    H235781   1.011   2.099   1.068 -1.0088 -1.1635 -1.0133
 4716TIP3   OH235782   3.278   1.208   7.464 -0.0322  0.2749 -0.3041
 4716TIP3    H135783   3.305   1.299   7.474  1.1226 -0.0705 -0.1094
 4716TIP3    H235784   3.306   1.184   7.376 -1.2274  0.3812 -0.7326
 4717TIP3   OH235785   2.153   0.213   0.059 -0.2916 -0.4582 -0.3159
 4717TIP3    H135786   2.245   0.200   0.036  0.4756  0.3313  1.9389
 4717TIP3    H235787   2.144   0.308   0.064 -1.1154 -0.5424 -0.1651
 4718TIP3   OH235788   0.822   3.876   7.918  0.2960  0.1992 -0.4466
 4718TIP3    H135789   0.829   3.806   7.983  0.7895 -1.0908 -1.8176
 4718TIP3    H235790   0.807   3.955   7.969 -1.2926 -1.0273  1.1309
 4719TIP3   OH235791   3.954   4.343   2.936 -0.3355  0.3898 -0.3323
 4719TIP3    H135792   3.873   4.297   2.914 -0.8265  1.5029 -0.9738
 4719TIP3    H235793   4.002   4.283   2.993 -1.6508 -0.2642  0.1201
 4720TIP3   OH235794   1.793   5.182   7.656  0.0450 -0.3237  0.1507
 4720TIP3    H135795   1.850   5.254   7.683  1.0474 -0.8959 -0.3538
 4720TIP3    H235796   1.741   5.162   7.733  0.6083  0.1526  0.6639
 4721TIP3   OH235797   3.618   4.495   2.240  0.1726 -0.3256 -0.0776
 4721TIP3    H135798   3.524   4.506   2.246  0.2400  0.3486 -0.2418
 4721TIP3    H235799   3.653   4.583   2.229  0.8568 -0.5139  0.4371
 4722TIP3   OH235800   0.959   6.960   8.018 -0.2957  1.3401 -0.2065
 4722TIP3    H135801   0.991   6.870   8.020  0.2034  1.5165  1.6895
 4722TIP3    H235802   1.034   7.013   8.046 -1.3922  2.0379  1.5938
 4723TIP3   OH235803   3.587   4.369   8.380  0.7206  0.1881  0.9215
 4723TIP3    H135804   3.542   4.443   8.341  0.2605 -0.8121 -0.5411
 4723TIP3    H235805   3.668   4.406   8.415 -0.4967  1.7322  2.2206
 4724TIP3   OH235806   2.484   1.699   6.913  0.3728 -0.0500 -0.1169
 4724TIP3    H135807   2.432   1.678   6.990 -0.6586 -1.2328 -1.0923
 4724TIP3    H235808   2.484   1.795   6.910 -1.3541 -0.0150  0.1865
 4725TIP3   OH235809   2.265   0.864   7.548 -0.1179 -0.0351 -0.2928
 4725TIP3    H135810   2.260   0.936   7.484 -0.0291  0.0710 -0.1810
 4725TIP3    H235811   2.262   0.785   7.495  0.6181  0.0566 -0.4735
 4726TIP3   OH235812   1.527   2.019   7.823  0.0116  0.2707 -0.1979
 4726TIP3    H135813   1.441   1.994   7.857  0.7204 -0.6622  1.0374
 4726TIP3    H235814   1.585   2.013   7.900  1.0818  1.3936 -0.8814
 4727TIP3   OH235815   2.524   6.773   2.261  0.4350  0.1882 -0.4054
 4727TIP3    H135816   2.443   6.811   2.297  0.1500  0.2991 -1.1515
 4727TIP3    H235817   2.578   6.756   2.338  0.7165  2.4042 -0.0753
 4728TIP3   OH235818   5.417   3.035   0.701 -0.6309 -0.4790 -0.4923
 4728TIP3    H135819   5.339   3.027   0.755  0.1969 -0.2873  0.7700
 4728TIP3    H235820   5.490   3.031   0.763  0.3151  1.2337 -1.4271
 4729TIP3   OH235821   5.644   3.898   7.912 -0.0864 -0.3113  0.3162
 4729TIP3    H135822   5.583   3.943   7.970 -0.1887  0.3531 -0.3010
 4729TIP3    H235823   5.595   3.885   7.831  0.4286 -0.2026 -0.0180
 4730TIP3   OH235824   4.670   4.735   8.342  0.1285 -0.1394 -1.7932
 4730TIP3    H135825   4.589   4.759   8.387 -0.0625 -3.2004 -0.2455
 4730TIP3    H235826   4.739   4.773   8.396 -0.2118 -0.4482 -1.1256
 4731TIP3   OH235827   5.598   1.514   3.181 -0.0517 -0.3447  0.1449
 4731TIP3    H135828   5.682   1.469   3.191  1.0538  1.3386 -0.9204
 4731TIP3    H235829   5.615   1.581   3.115 -2.1820  0.2394  0.1171
 4732TIP3   OH235830   1.581   3.073   7.138  0.4395 -0.5152  0.1530
 4732TIP3    H135831   1.669   3.073   7.101  0.7399 -0.3925  0.8601
 4732TIP3    H235832   1.573   3.158   7.181  1.1901 -1.7592  2.9438
 4733TIP3   OH235833   0.676   3.603   8.143  0.4612  0.0202 -0.4904
 4733TIP3    H135834   0.618   3.571   8.074 -1.0827 -2.0433  1.5744
 4733TIP3    H235835   0.660   3.543   8.216  2.1572  1.9341  1.5814
 4734TIP3   OH235836   2.004   5.915   0.039  0.0589 -0.1345 -0.2343
 4734TIP3    H135837   2.084   5.863   0.046 -0.8357 -1.6090 -0.5404
 4734TIP3    H235838   1.937   5.862   0.083 -1.3675 -0.3725 -2.5301
 4735TIP3   OH235839   6.621   1.744   1.895  0.2527 -0.4249  0.3055
 4735TIP3    H135840   6.528   1.764   1.899  0.6587  1.8102 -0.2279
 4735TIP3    H235841   6.665   1.825   1.919  2.1470 -2.2256  3.7490
 4736TIP3   OH235842   4.435   3.185   7.615  0.6105  0.2320 -0.3676
 4736TIP3    H135843   4.453   3.231   7.532  2.5750  1.8229  0.8410
 4736TIP3    H235844   4.392   3.251   7.669  1.3492 -0.0748  0.6180
 4737TIP3   OH235845   4.560   1.729   0.773 -0.1602 -0.4212  0.0613
 4737TIP3    H135846   4.482   1.684   0.739  0.0647 -2.0795  1.5374
 4737TIP3    H235847   4.535   1.756   0.861  0.0039  1.7359 -0.4908
 4738TIP3   OH235848   4.687   6.778   0.071 -0.3259  0.2150 -0.1821
 4738TIP3    H135849   4.728   6.699   0.107  0.8330  0.9349  0.1390
 4738TIP3    H235850   4.617   6.745   0.015  0.3048 -1.0555 -0.2742
 4739TIP3   OH235851   6.678   6.922   2.487  0.1126  0.8779  0.1620
 4739TIP3    H135852   6.725   6.944   2.407 -0.4811  3.3005  0.3956
 4739TIP3    H235853   6.600   6.874   2.457  0.0787  1.4401 -0.6977
 4740TIP3   OH235854   1.655   6.497   7.609  0.0258  0.5016 -0.0576
 4740TIP3    H135855   1.734   6.549   7.624  0.5295 -0.3176  0.2398
 4740TIP3    H235856   1.596   6.522   7.680  0.0511  1.0578 -0.2304
 4741TIP3   OH235857   5.913   1.972   8.168 -0.1886 -0.5213 -0.5184
 4741TIP3    H135858   6.002   1.938   8.184  0.3806  1.5801  1.2790
 4741TIP3    H235859   5.917   2.013   8.082  0.1417 -1.7130 -1.0878
 4742TIP3   OH235860   5.668   1.106   2.964  0.9884 -0.1771  0.3426
 4742TIP3    H135861   5.597   1.107   2.900  1.9417 -1.9756 -0.8187
 4742TIP3    H235862   5.748   1.107   2.911  1.8020 -1.3485  1.4898
 4743TIP3   OH235863   2.574   1.628   8.024 -0.5818  0.3680 -0.2830
 4743TIP3    H135864   2.576   1.689   8.098 -2.0093 -0.1053  0.1710
 4743TIP3    H235865   2.644   1.659   7.966 -0.1232  1.3705  0.7650
 4744TIP3   OH235866   0.326   0.827   2.540 -0.3979 -0.2132 -0.3006
 4744TIP3    H135867   0.347   0.734   2.543  3.5643  0.4989  0.1718
 4744TIP3    H235868   0.301   0.849   2.629 -1.7286 -0.8447 -0.4980
 4745TIP3   OH235869   4.981   3.148   7.502 -0.1708 -0.4200  0.0366
 4745TIP3    H135870   4.997   3.212   7.433  1.4715  0.0366  0.8075
 4745TIP3    H235871   4.895   3.171   7.538  0.2197  1.0845  0.0324
 4746TIP3   OH235872   0.644   4.078   1.846  0.0187  0.2369 -0.4309
 4746TIP3    H135873   0.640   4.035   1.931 -0.0334 -1.3401 -1.1895
 4746TIP3    H235874   0.556   4.066   1.810  0.2969  0.0929 -1.0701
 4747TIP3   OH235875   5.286   0.377   1.417 -0.4225  0.3693 -0.1470
 4747TIP3    H135876   5.296   0.326   1.497  2.7894  0.3237 -0.4336
 4747TIP3    H235877   5.207   0.341   1.375 -1.0439 -0.9524  2.0026
 4748TIP3   OH235878   0.284   1.402   2.887  0.0788 -0.3804  0.2576
 4748TIP3    H135879   0.339   1.330   2.856 -0.4604 -0.3891 -0.7125
 4748TIP3    H235880   0.195   1.369   2.881 -0.1846  0.3926 -0.2982
 4749TIP3   OH235881   0.775   4.652   1.220  0.2195  0.1795  0.0559
 4749TIP3    H135882   0.868   4.659   1.201  0.2057  0.0795 -0.0511
 4749TIP3    H235883   0.747   4.742   1.235  0.5589  0.1062  1.2018
 4750TIP3   OH235884   1.314   0.739   7.799 -0.0105 -0.0008 -0.1877
 4750TIP3    H135885   1.380   0.699   7.743  1.1636 -0.2114  1.2878
 4750TIP3    H235886   1.295   0.823   7.758  3.1137  1.2664  0.6728
 4751TIP3   OH235887   3.293   4.654   1.986  0.0753  0.1448 -0.5895
 4751TIP3    H135888   3.219   4.596   1.970  1.4843 -1.7111 -0.6351
 4751TIP3    H235889   3.332   4.621   2.067  1.3220  0.5683 -0.9948
 4752TIP3   OH235890   1.472   4.236   1.893 -0.2739  0.2736  0.3320
 4752TIP3    H135891   1.531   4.169   1.927 -1.0602 -1.7519 -1.9606
 4752TIP3    H235892   1.448   4.288   1.969  1.5488 -1.1363  1.9672
 4753TIP3   OH235893   3.289   4.220   8.424 -0.2969 -0.0544 -0.1387
 4753TIP3    H135894   3.228   4.196   8.493  0.5934 -0.4522  0.5326
 4753TIP3    H235895   3.299   4.315   8.432 -0.9379  0.0322 -0.3515
 4754TIP3   OH235896   4.600   1.926   8.298 -0.6195  0.2389  0.4130
 4754TIP3    H135897   4.580   2.006   8.346  0.3697 -0.8727  2.8105
 4754TIP3    H235898   4.572   1.855   8.356  1.8565 -1.1977  0.0175
 4755TIP3   OH235899   0.318   2.195   3.239 -0.3735 -0.0389  0.6069
 4755TIP3    H135900   0.357   2.282   3.238 -0.9811  0.2527  1.3121
 4755TIP3    H235901   0.340   2.159   3.325 -1.2287 -0.0566  0.8262
 4756TIP3   OH235902   2.307   3.177   1.968  0.1343  0.3550  0.2700
 4756TIP3    H135903   2.359   3.121   2.026  1.3074  0.7480 -0.3690
 4756TIP3    H235904   2.341   3.159   1.880 -1.0011  0.4423 -0.2146
 4757TIP3   OH235905   6.305   1.317   2.943 -0.4608  0.3002  0.0011
 4757TIP3    H135906   6.322   1.232   2.902 -0.4159 -0.5643  1.7149
 4757TIP3    H235907   6.391   1.358   2.951  0.3613 -1.6695  3.5814
 4758TIP3   OH235908   5.179   2.368   2.881 -0.2966 -0.1315 -0.0872
 4758TIP3    H135909   5.164   2.284   2.837  0.7869  0.6333 -2.0273
 4758TIP3    H235910   5.242   2.348   2.950 -0.6837 -1.0443  0.0242
 4759TIP3   OH235911   3.223   3.159   1.963 -0.4177  0.1253 -0.8496
 4759TIP3    H135912   3.203   3.100   2.037 -1.0264  0.5915 -0.6295
 4759TIP3    H235913   3.306   3.199   1.986 -0.3709 -0.0867 -0.6391
 4760TIP3   OH235914   1.048   1.321   2.045  0.2188 -0.3528  0.0144
 4760TIP3    H135915   0.982   1.338   2.111  0.9611  0.1430  0.6471
 4760TIP3    H235916   1.026   1.381   1.973 -0.1025 -0.2974  0.1572
 4761TIP3   OH235917   6.354   6.416   2.059  0.5250  0.3902  0.0669
 4761TIP3    H135918   6.285   6.452   2.002  1.3552 -0.3643 -1.4749
 4761TIP3    H235919   6.435   6.431   2.011  1.3963  0.7462  1.5961
 4762TIP3   OH235920   6.047   4.982   0.221  0.0116 -0.7768  0.7314
 4762TIP3    H135921   5.989   5.028   0.282 -1.5718  2.3241 -2.7087
 4762TIP3    H235922   6.110   5.049   0.193  0.9987 -2.2095 -0.6288
 4763TIP3   OH235923   1.806   2.577   8.109 -0.0548  0.1045 -0.3724
 4763TIP3    H135924   1.734   2.583   8.171  1.9865  1.4805  2.0322
 4763TIP3    H235925   1.824   2.667   8.084  2.1491  0.0480  0.7887
 4764TIP3   OH235926   0.704   5.171   7.959  0.1823 -0.5194  1.0724
 4764TIP3    H135927   0.742   5.258   7.970 -0.9818 -0.0163  1.2298
 4764TIP3    H235928   0.777   5.111   7.973  0.9209  0.4194  1.3207
 4765TIP3   OH235929   5.073   1.874   3.322 -0.8927  0.1603  0.0817
 4765TIP3    H135930   5.097   1.782   3.314 -0.0884  0.1803  1.9137
 4765TIP3    H235931   4.983   1.873   3.354 -1.1493  0.0368 -0.6220
 4766TIP3   OH235932   2.025   2.584   0.236 -0.2875 -0.0384  0.3832
 4766TIP3    H135933   2.110   2.544   0.220  0.0819  0.7700  0.3188
 4766TIP3    H235934   2.000   2.622   0.151 -1.2373 -1.2256  0.0910
 4767TIP3   OH235935   5.410   5.967   2.027 -0.3125  0.0395  0.1729
 4767TIP3    H135936   5.321   5.938   2.011 -1.4536  1.5448  3.0683
 4767TIP3    H235937   5.456   5.951   1.945 -3.5133  0.2874 -1.8065
 4768TIP3   OH235938   2.176   6.044   6.989  0.1039  0.0314 -0.3230
 4768TIP3    H135939   2.104   6.022   6.931 -1.4766  1.5368  0.9545
 4768TIP3    H235940   2.226   6.110   6.941  0.0353 -0.2583 -0.7984
 4769TIP3   OH235941   3.758   3.128   0.699 -0.9061  0.1007  0.0747
 4769TIP3    H135942   3.708   3.204   0.668 -0.7457  0.1914  0.0359
 4769TIP3    H235943   3.702   3.087   0.764 -1.2000 -0.0235 -0.2541
 4770TIP3   OH235944   0.062   1.485   2.564 -0.0036 -0.6477  0.1954
 4770TIP3    H135945   0.152   1.517   2.561 -0.5496  0.9860 -0.0245
 4770TIP3    H235946   0.066   1.398   2.524  1.2249  0.0594 -1.3301
 4771TIP3   OH235947   0.672   3.517   0.881 -0.5220  0.2385 -0.2862
 4771TIP3    H135948   0.731   3.507   0.955  0.8670 -1.5244 -1.5414
 4771TIP3    H235949   0.690   3.605   0.847  0.5172  0.1792  0.0769
 4772TIP3   OH235950   5.393   5.172   2.907  0.2882  0.3669 -0.4298
 4772TIP3    H135951   5.318   5.174   2.848 -1.0225 -0.4598  1.1195
 4772TIP3    H235952   5.469   5.176   2.850 -0.9278  1.6777 -2.0322
 4773TIP3   OH235953   0.411   1.320   7.916  0.7346  0.1611 -0.1475
 4773TIP3    H135954   0.466   1.383   7.870  0.3998  0.5103 -0.0752
 4773TIP3    H235955   0.365   1.273   7.846  0.2433  0.6764 -0.1797
 4774TIP3   OH235956   6.910   3.805   0.556 -0.9126  0.6602  0.3521
 4774TIP3    H135957   6.900   3.710   0.562  1.0593  0.3999  0.0919
 4774TIP3    H235958   6.938   3.832   0.643 -1.0137  0.9597  0.2939
 4775TIP3   OH235959   0.359   6.933   0.459  0.3450 -0.1308 -0.0701
 4775TIP3    H135960   0.267   6.918   0.434  0.1879 -0.2450  0.5544
 4775TIP3    H235961   0.409   6.906   0.382 -0.1271 -0.4293 -0.2813
 4776TIP3   OH235962   5.218   0.036   0.576  0.5012  0.3355  0.0481
 4776TIP3    H135963   5.300   0.045   0.625  0.9112  0.4797 -0.6585
 4776TIP3    H235964   5.240  -0.018   0.501 -0.2346 -0.2611  0.2499
 4777TIP3   OH235965   0.327   3.318   1.971  0.7289 -0.0656  0.3725
 4777TIP3    H135966   0.270   3.345   2.042  0.2648  1.4186 -0.5268
 4777TIP3    H235967   0.330   3.223   1.977 -1.3616 -0.1335  0.8007
 4778TIP3   OH235968   4.613   6.040   1.361 -0.4418  0.0683 -0.2169
 4778TIP3    H135969   4.564   6.038   1.279 -1.3989 -1.6043  0.3634
 4778TIP3    H235970   4.551   6.011   1.427  1.4788 -2.9539  0.4349
 4779TIP3   OH235971   0.947   1.425   0.482 -0.7353  0.0328 -0.0326
 4779TIP3    H135972   0.919   1.335   0.492 -0.1529 -0.1340  0.1408
 4779TIP3    H235973   0.905   1.472   0.554  0.7265 -0.5257  1.2443
 4780TIP3   OH235974   3.717   3.701   7.083  0.0237 -0.3597  0.3119
 4780TIP3    H135975   3.724   3.609   7.105 -4.0036 -0.8564  0.1903
 4780TIP3    H235976   3.664   3.703   7.003 -1.4581  2.0856  1.2486
 4781TIP3   OH235977   6.288   0.526   1.020  0.2740  0.0973 -0.5720
 4781TIP3    H135978   6.352   0.512   1.090 -1.0352 -0.8580  0.4786
 4781TIP3    H235979   6.260   0.617   1.031  0.4510  0.1071 -0.1820
 4782TIP3   OH235980   0.920   6.619   1.289 -0.9299 -0.0505  0.5767
 4782TIP3    H135981   0.949   6.708   1.312  1.1511 -1.3297  3.5278
 4782TIP3    H235982   0.906   6.623   1.194 -0.9989  3.4167  0.5951
 4783TIP3   OH235983   1.791   0.579   0.579 -0.2997  0.1809 -0.2766
 4783TIP3    H135984   1.873   0.609   0.619 -0.6084  0.9872 -0.2229
 4783TIP3    H235985   1.741   0.544   0.652 -0.6075  1.0771 -0.0433
 4784TIP3   OH235986   1.717   2.305   7.353 -0.5377  0.0572  0.1145
 4784TIP3    H135987   1.792   2.342   7.307  0.3089 -0.1354  1.2854
 4784TIP3    H235988   1.668   2.258   7.285  0.3032  0.3338 -0.7019
 4785TIP3   OH235989   0.254   5.728   1.918 -0.9094  0.1261 -0.1304
 4785TIP3    H135990   0.348   5.744   1.922 -0.7633 -0.5772 -0.5637
 4785TIP3    H235991   0.214   5.815   1.925 -0.2927  0.3039  1.7098
 4786TIP3   OH235992   5.092   6.007   1.183  0.1017  0.0576 -0.7606
 4786TIP3    H135993   5.024   5.974   1.241  0.0399  2.3998  0.6289
 4786TIP3    H235994   5.045   6.029   1.102 -0.5715  0.4459 -0.2794
 4787TIP3   OH235995   1.765   6.990   0.624  0.2318 -0.1376  0.4341
 4787TIP3    H135996   1.848   6.998   0.577 -0.1884  0.5492 -0.1922
 4787TIP3    H235997   1.711   6.934   0.569 -0.9292  2.1379 -0.9002
 4788TIP3   OH235998   5.998   5.737   8.033 -0.1495 -0.5314  0.0865
 4788TIP3    H135999   6.016   5.672   7.966 -0.0786  0.2443 -0.6550
 4788TIP3    H236000   6.056   5.810   8.013  1.1464 -0.9411  2.0034
 4789TIP3   OH236001   6.059   6.356   1.504 -0.4247 -0.0778  0.3768
 4789TIP3    H136002   6.080   6.269   1.537  1.5710  0.4540  0.6120
 4789TIP3    H236003   6.003   6.394   1.572 -2.1929 -1.4821 -0.2037
 4790TIP3   OH236004   0.431   6.155   1.446 -0.0502  0.0048 -0.3007
 4790TIP3    H136005   0.424   6.242   1.485 -0.5666  0.6600 -1.7815
 4790TIP3    H236006   0.377   6.160   1.367  1.2429 -1.1398 -1.3112
 4791TIP3   OH236007   6.286   3.694   0.044 -0.9070  0.3653  0.2795
 4791TIP3    H136008   6.361   3.637   0.061 -0.1955  0.5920 -1.7304
 4791TIP3    H236009   6.277   3.747   0.123 -1.0082 -1.8469  1.8416
 4792TIP3   OH236010   1.958   6.154   1.549 -0.3903 -0.0036 -0.0389
 4792TIP3    H136011   1.981   6.071   1.508 -1.6822 -0.6843  0.5264
 4792TIP3    H236012   1.916   6.205   1.480  0.9122  0.4281 -0.5345
 4793TIP3   OH236013   0.762   2.814   1.362 -0.0703 -0.4603 -0.3322
 4793TIP3    H136014   0.814   2.778   1.433 -2.2230 -1.2262  0.9527
 4793TIP3    H236015   0.770   2.750   1.291 -3.4450 -3.5353  1.7365
 4794TIP3   OH236016   1.578   6.802   1.291 -0.8663  0.3645  0.1165
 4794TIP3    H136017   1.550   6.858   1.218 -1.1051 -0.8463 -0.7490
 4794TIP3    H236018   1.497   6.781   1.337 -0.9287 -0.1424 -0.2118
 4795TIP3   OH236019   3.359   0.281   1.657 -0.2885  0.6748  0.0606
 4795TIP3    H136020   3.290   0.331   1.702 -1.8834 -0.5713 -0.9159
 4795TIP3    H236021   3.383   0.212   1.719 -2.4836 -1.0387 -0.8575
 4796TIP3   OH236022   2.676   4.669   0.284  0.4645  0.4557  0.7192
 4796TIP3    H136023   2.666   4.577   0.310 -0.6380  0.2918 -0.2093
 4796TIP3    H236024   2.658   4.669   0.190 -0.4200  1.7534  0.8695
 4797TIP3   OH236025   4.159   0.057   8.069  0.1503  0.2912 -0.5304
 4797TIP3    H136026   4.102  -0.006   8.025  0.5127 -1.1227  0.9245
 4797TIP3    H236027   4.100   0.117   8.112 -0.2692 -0.6455  0.2431
 4798TIP3   OH236028   4.495   3.311   3.345 -0.2923 -0.2965  0.1765
 4798TIP3    H136029   4.503   3.367   3.267  0.5521  0.1473  0.5682
 4798TIP3    H236030   4.423   3.251   3.324  2.9639 -3.6024 -3.0955
 4799TIP3   OH236031   0.161   6.453   3.007  0.1195 -0.2775  0.2847
 4799TIP3    H136032   0.141   6.411   2.923 -0.1572 -0.2608  0.3387
 4799TIP3    H236033   0.219   6.526   2.984  2.7558 -2.1919  0.4739
 4800TIP3   OH236034   6.547   6.349   2.294 -0.5353  0.4303  0.2292
 4800TIP3    H136035   6.594   6.268   2.316  1.5075  0.9289 -1.9458
 4800TIP3    H236036   6.469   6.318   2.247 -0.0222 -0.3133 -0.1612
 4801TIP3   OH236037   1.512   1.922   2.284  0.7316  0.5111  0.0685
 4801TIP3    H136038   1.596   1.968   2.283  0.9557  0.1095 -0.6332
 4801TIP3    H236039   1.452   1.982   2.239  0.4547  1.1034  1.1786
 4802TIP3   OH236040   1.987   1.803   2.534  0.6239 -0.3161 -0.1822
 4802TIP3    H136041   2.043   1.859   2.588  1.3747 -0.0247 -1.2411
 4802TIP3    H236042   2.041   1.779   2.459 -1.5489  2.5318 -2.9177
 4803TIP3   OH236043   5.601   2.761   1.859 -0.0801 -0.2686 -0.0406
 4803TIP3    H136044   5.515   2.718   1.862 -0.8634  1.2495  0.6346
 4803TIP3    H236045   5.605   2.798   1.771 -0.3134  0.0008  0.0581
 4804TIP3   OH236046   2.584   6.301   8.093 -0.4082  0.9442  0.2912
 4804TIP3    H136047   2.618   6.215   8.068 -0.0694  1.0041  0.5354
 4804TIP3    H236048   2.494   6.301   8.062 -0.1172  0.8743 -0.5753
 4805TIP3   OH236049   1.433   3.737   7.861 -0.2524  0.2971  0.0107
 4805TIP3    H136050   1.419   3.809   7.799 -1.2346 -0.7094 -0.9904
 4805TIP3    H236051   1.485   3.673   7.812 -0.1425 -0.0593  0.5838
 4806TIP3   OH236052   5.570   2.484   2.672 -0.2747 -0.0066  0.0132
 4806TIP3    H136053   5.665   2.483   2.682 -0.1999 -0.1826 -0.7046
 4806TIP3    H236054   5.543   2.563   2.720  0.1435 -0.4030  0.9206
 4807TIP3   OH236055   2.225   0.820   0.574 -0.4053 -0.0080  0.2213
 4807TIP3    H136056   2.250   0.886   0.639 -0.6467  0.9194 -0.5845
 4807TIP3    H236057   2.303   0.809   0.520 -0.9174  1.0734 -0.8068
 4808TIP3   OH236058   0.728   3.811   7.484  0.8895  0.3646  0.0422
 4808TIP3    H136059   0.704   3.836   7.395  2.3491 -2.2921 -1.2328
 4808TIP3    H236060   0.761   3.891   7.524 -2.0841  2.1965 -0.8900
 4809TIP3   OH236061   2.464   4.398   8.240  0.2763 -0.7432 -0.1468
 4809TIP3    H136062   2.439   4.422   8.330  0.2691  2.0297 -0.7895
 4809TIP3    H236063   2.547   4.352   8.250  0.5363 -0.0314  1.2751
 4810TIP3   OH236064   2.619   1.491   7.605 -0.4546  0.4746 -0.1053
 4810TIP3    H136065   2.544   1.498   7.546 -1.2689  0.5787  0.9239
 4810TIP3    H236066   2.600   1.416   7.660 -0.6246  1.4964  1.2844
 4811TIP3   OH236067   3.040   3.213   3.115 -0.0073 -0.4511  0.4535
 4811TIP3    H136068   3.085   3.296   3.100  0.7936 -0.6214  1.8246
 4811TIP3    H236069   3.036   3.173   3.028  0.9348  0.3480  0.0167
 4812TIP3   OH236070   0.667   4.457   6.873 -0.3879  0.5885  0.7368
 4812TIP3    H136071   0.620   4.378   6.844 -0.7973  1.1345 -0.1264
 4812TIP3    H236072   0.754   4.425   6.897 -0.8908 -0.2961  1.4743
 4813TIP3   OH236073   0.449   1.626   3.316  0.1686 -0.7972 -0.3239
 4813TIP3    H136074   0.433   1.695   3.251 -1.3971 -2.1675 -1.4819
 4813TIP3    H236075   0.372   1.629   3.372  0.9674 -0.4039  0.7785
 4814TIP3   OH236076   3.077   3.537   7.296 -0.4791  0.1903 -0.3198
 4814TIP3    H136077   3.172   3.521   7.292 -0.0508  2.5106 -0.6474
 4814TIP3    H236078   3.065   3.623   7.255 -2.7437 -0.0340 -0.2649
 4815TIP3   OH236079   4.477   2.116   2.217 -0.2899 -0.0376 -0.2989
 4815TIP3    H136080   4.399   2.084   2.262 -0.6755  0.2531 -0.7612
 4815TIP3    H236081   4.496   2.200   2.259  0.1535 -0.3964  0.2458
 4816TIP3   OH236082   5.726   5.021   0.719 -0.4429  0.6570  0.3966
 4816TIP3    H136083   5.740   5.057   0.806  0.0877 -0.5336  0.8289
 4816TIP3    H236084   5.659   4.954   0.731 -0.0298  0.1632 -0.0143
 4817TIP3   OH236085   4.035   5.820   7.925 -1.0389 -0.8547 -0.1681
 4817TIP3    H136086   4.120   5.809   7.968 -1.5100 -2.2680  0.4420
 4817TIP3    H236087   4.056   5.852   7.837 -0.0171  1.4083  0.8258
 4818TIP3   OH236088   0.194   2.059   1.638 -0.2500  0.1468 -0.2535
 4818TIP3    H136089   0.168   1.968   1.657  0.2935 -0.3871 -1.8508
 4818TIP3    H236090   0.194   2.102   1.723 -2.0645 -0.9366  0.3761
 4819TIP3   OH236091   6.816   3.333   0.736  0.4030  0.1250 -0.4077
 4819TIP3    H136092   6.845   3.337   0.827 -0.8406 -0.7699  0.0484
 4819TIP3    H236093   6.856   3.253   0.701  0.7049  0.3536 -0.5895
 4820TIP3   OH236094   2.679   1.446   1.273 -0.2743  0.1487  0.1894
 4820TIP3    H136095   2.712   1.504   1.204  0.3746 -0.2471  0.1605
 4820TIP3    H236096   2.620   1.502   1.324  0.0275  0.7252 -0.0787
 4821TIP3   OH236097   3.339   6.245   7.799 -0.0640 -0.6409 -0.1109
 4821TIP3    H136098   3.298   6.190   7.866 -1.1047 -0.4464 -0.5555
 4821TIP3    H236099   3.296   6.217   7.717  1.5733 -1.2685 -0.7934
 4822TIP3   OH236100   0.745   2.398   1.973 -0.0073  0.0290 -0.8930
 4822TIP3    H136101   0.755   2.310   1.937  0.0157 -1.1153  1.6474
 4822TIP3    H236102   0.822   2.446   1.942  0.0797 -0.9012 -2.1677
 4823TIP3   OH236103   2.086   4.646   7.220 -0.1381 -0.0936  0.4668
 4823TIP3    H136104   2.031   4.723   7.210  0.0269  0.0107  0.3496
 4823TIP3    H236105   2.025   4.575   7.242 -0.3515 -0.0389  0.0627
 4824TIP3   OH236106   0.437   0.295   0.133  0.1810  0.4286  0.0113
 4824TIP3    H136107   0.491   0.299   0.212 -1.8906 -2.2623  1.7375
 4824TIP3    H236108   0.485   0.238   0.073  1.0333  1.2478 -0.1131
 4825TIP3   OH236109   6.639   2.936   0.248  0.3411  0.0085  0.4845
 4825TIP3    H136110   6.600   2.855   0.281 -0.8568  0.6182  0.6038
 4825TIP3    H236111   6.717   2.907   0.201 -0.4142 -1.2723 -0.0248
 4826TIP3   OH236112   2.732   1.253   7.416  0.5552  0.3300 -0.8208
 4826TIP3    H136113   2.727   1.337   7.460 -0.0273  0.3373 -0.8860
 4826TIP3    H236114   2.664   1.257   7.348  1.5858  0.4120 -1.8826
 4827TIP3   OH236115   2.600   5.930   1.671  0.4723 -0.7170  0.2265
 4827TIP3    H136116   2.636   5.844   1.648  2.5426 -0.4445  2.0992
 4827TIP3    H236117   2.524   5.911   1.725  1.4270 -1.4417  1.3721
 4828TIP3   OH236118   6.507   4.915   2.141 -0.7899 -0.3726 -0.6593
 4828TIP3    H136119   6.428   4.959   2.111 -0.0636  1.1237 -0.5194
 4828TIP3    H236120   6.568   4.987   2.161 -0.4882 -1.3340  2.2994
 4829TIP3   OH236121   4.573   5.246   2.431 -0.3281  0.1115 -0.1472
 4829TIP3    H136122   4.481   5.229   2.449 -0.3175  0.7402  0.5028
 4829TIP3    H236123   4.616   5.239   2.516  0.1432  0.3294 -0.3666
 4830TIP3   OH236124   2.106   1.831   1.601  0.0289 -0.0061 -0.4140
 4830TIP3    H136125   2.069   1.839   1.689  2.5364 -1.3328  0.8786
 4830TIP3    H236126   2.088   1.915   1.559 -1.2141  0.6778  1.3743
 4831TIP3   OH236127   2.002   0.416   8.059  0.4555 -0.6082  0.5137
 4831TIP3    H136128   1.954   0.389   8.137 -0.3442 -0.5515  0.0488
 4831TIP3    H236129   1.995   0.341   7.999 -0.0623 -0.1624 -0.0045
 4832TIP3   OH236130   0.345   2.760   7.521 -0.0070 -0.0289 -0.0667
 4832TIP3    H136131   0.328   2.717   7.437 -1.7030  0.0258  0.2141
 4832TIP3    H236132   0.440   2.777   7.520  0.1587 -0.8099 -1.5776
 4833TIP3   OH236133   3.228   2.478   2.236  0.2364  0.1497 -0.4092
 4833TIP3    H136134   3.144   2.462   2.194  0.8207  0.2846 -1.6745
 4833TIP3    H236135   3.236   2.408   2.301 -1.4128  0.8841  0.6585
 4834TIP3   OH236136   3.032   6.587   0.392 -0.0633  0.2608  0.0256
 4834TIP3    H136137   3.056   6.499   0.360 -0.8499  0.1543 -0.2849
 4834TIP3    H236138   3.042   6.644   0.315 -2.1714 -0.0329 -0.5213
 4835TIP3   OH236139   2.492   3.711   1.805  0.4991  0.0578  0.9620
 4835TIP3    H136140   2.545   3.729   1.883  0.7444 -0.4700  0.9254
 4835TIP3    H236141   2.552   3.664   1.746  0.4326  0.8120  0.2864
 4836TIP3   OH236142   4.557   3.111   8.340  0.5044 -0.3181  0.0541
 4836TIP3    H136143   4.472   3.068   8.340 -0.0260  0.7022 -0.4378
 4836TIP3    H236144   4.592   3.097   8.252 -0.0181  0.8803 -0.3697
 4837TIP3   OH236145   1.871   3.480   7.164  0.4933 -0.9156 -0.0895
 4837TIP3    H136146   1.776   3.492   7.170  0.3363 -1.8020 -0.5811
 4837TIP3    H236147   1.889   3.477   7.070  0.9607 -1.0662  0.0014
 4838TIP3   OH236148   0.570   1.294   2.341  0.2330 -0.0115  0.4057
 4838TIP3    H136149   0.490   1.298   2.288  0.4276 -2.5543 -0.2278
 4838TIP3    H236150   0.557   1.360   2.409 -0.7985  2.1593 -1.7624
 4839TIP3   OH236151   4.361   0.364   8.055 -0.0956  0.2304  0.0657
 4839TIP3    H136152   4.391   0.295   8.115  1.7328  0.9538  0.0693
 4839TIP3    H236153   4.420   0.358   7.980 -2.7510 -1.1005 -2.0967
 4840TIP3   OH236154   4.148   0.159   1.146  0.7617  0.1876  0.1249
 4840TIP3    H136155   4.159   0.238   1.093 -0.1458  1.3747  1.6281
 4840TIP3    H236156   4.120   0.092   1.084 -0.2400  1.5216 -0.9106
 4841TIP3   OH236157   1.780   4.037   1.356 -0.6069 -0.2289 -0.6005
 4841TIP3    H136158   1.861   4.046   1.406 -1.8759 -1.6235  1.8954
 4841TIP3    H236159   1.712   4.070   1.415 -1.9393  0.4251 -2.4257
 4842TIP3   OH236160   2.779   5.997   0.954  0.0687  0.0990 -0.2291
 4842TIP3    H136161   2.822   6.079   0.933 -0.0606  0.6929  1.6299
 4842TIP3    H236162   2.693   6.022   0.989  0.4541 -0.7069  1.4308
 4843TIP3   OH236163   5.735   2.184   2.145  0.6317 -0.1466 -0.4344
 4843TIP3    H136164   5.808   2.148   2.094 -0.4003 -0.8232 -1.4659
 4843TIP3    H236165   5.657   2.155   2.100 -0.2930  1.4682  0.0283
 4844TIP3   OH236166   6.149   4.153   3.177  0.2827 -0.5297 -0.5194
 4844TIP3    H136167   6.145   4.189   3.088  0.7545 -2.5161 -1.3927
 4844TIP3    H236168   6.210   4.080   3.171  1.2745  0.0262  1.7549
 4845TIP3   OH236169   1.650   6.412   0.362  0.0680 -0.0463 -0.2710
 4845TIP3    H136170   1.685   6.496   0.332  1.2617 -0.1165  0.7890
 4845TIP3    H236171   1.583   6.436   0.427  2.1216  0.1830  1.9148
 4846TIP3   OH236172   0.223   4.387   0.833 -0.4183 -0.3957 -0.4210
 4846TIP3    H136173   0.306   4.345   0.811 -0.3149  0.1717 -1.1688
 4846TIP3    H236174   0.246   4.478   0.854 -0.9613  0.1074 -1.8657
 4847TIP3   OH236175   0.717   6.566   1.672  0.2685  0.0795  0.6179
 4847TIP3    H136176   0.666   6.644   1.693 -0.6708 -0.4424  0.3527
 4847TIP3    H236177   0.692   6.502   1.739  0.6087 -0.1729  0.5114
 4848TIP3   OH236178   2.731   1.392   1.572  0.8069  0.1417 -0.3054
 4848TIP3    H136179   2.762   1.482   1.580 -0.8486  0.6585  0.7847
 4848TIP3    H236180   2.728   1.360   1.662 -2.0006  0.2416 -0.2855
 4849TIP3   OH236181   4.333   5.718   1.421 -0.2163 -0.1792  0.6123
 4849TIP3    H136182   4.324   5.725   1.326 -0.9937 -0.3833  0.6614
 4849TIP3    H236183   4.269   5.651   1.446 -1.3173  1.1352  1.4717
 4850TIP3   OH236184   4.417   4.505   8.384  0.1608 -0.2835 -0.6731
 4850TIP3    H136185   4.429   4.581   8.442 -0.9958 -0.2252 -0.4937
 4850TIP3    H236186   4.415   4.543   8.296 -2.3671  0.1811 -0.4815
 4851TIP3   OH236187   4.271   1.111   7.282 -0.4831 -0.4590  0.2558
 4851TIP3    H136188   4.259   1.204   7.263  0.1715 -0.4579 -0.1765
 4851TIP3    H236189   4.184   1.073   7.272 -1.0473  0.3399  1.8036
 4852TIP3   OH236190   4.227   3.050   2.958  0.3015  0.0882 -0.0231
 4852TIP3    H136191   4.133   3.059   2.940  0.2332 -1.7507 -0.7935
 4852TIP3    H236192   4.255   2.977   2.903  1.5036 -1.4985  2.5162
 4853TIP3   OH236193   4.590   5.184   0.369  0.1419  0.6367  0.2559
 4853TIP3    H136194   4.540   5.181   0.451 -0.4976 -1.5992 -0.1612
 4853TIP3    H236195   4.533   5.232   0.308 -0.7148 -0.2734  0.3118
 4854TIP3   OH236196   0.422   1.508   8.396 -0.3381 -0.3122 -0.2102
 4854TIP3    H136197   0.511   1.482   8.422 -0.5894 -0.0318  0.9865
 4854TIP3    H236198   0.435   1.583   8.339  0.1469  1.4959  2.1175
 4855TIP3   OH236199   0.561   0.754   7.333 -0.6888  0.2695  0.0449
 4855TIP3    H136200   0.514   0.814   7.391 -1.1501 -0.1646  0.1205
 4855TIP3    H236201   0.492   0.711   7.282 -0.2308  2.1752 -2.3729
 4856TIP3   OH236202   2.952   0.424   8.251  0.1536  0.2300 -0.3978
 4856TIP3    H136203   2.953   0.366   8.327  0.5831  0.3761 -0.2925
 4856TIP3    H236204   2.905   0.373   8.184 -0.9695  0.4229  0.2070
 4857TIP3   OH236205   1.535   2.712   2.990  0.0351 -0.2251  0.1947
 4857TIP3    H136206   1.621   2.755   2.990 -0.5916  1.0599 -0.2493
 4857TIP3    H236207   1.528   2.674   3.078  0.5343  0.7412  0.6676
 4858TIP3   OH236208   6.543   5.390   0.483  0.2279  0.2661 -0.2167
 4858TIP3    H136209   6.576   5.479   0.472 -2.0788  1.3301  0.7396
 4858TIP3    H236210   6.549   5.373   0.577  0.5215 -0.5580 -0.3707
 4859TIP3   OH236211   2.741   2.622   2.129 -0.0547  0.6727  0.1495
 4859TIP3    H136212   2.736   2.644   2.222  2.7752 -0.0138  0.5551
 4859TIP3    H236213   2.741   2.527   2.126  0.8897  0.6752 -0.4369
 4860TIP3   OH236214   2.915   6.550   7.366  0.5051 -0.2078 -0.0651
 4860TIP3    H136215   2.887   6.628   7.318  0.7829 -0.7040 -1.0644
 4860TIP3    H236216   2.913   6.480   7.300 -1.3447 -1.3987  1.1874
 4861TIP3   OH236217   0.789   1.548   2.650 -0.2681 -0.2065  0.0237
 4861TIP3    H136218   0.824   1.635   2.670  0.4577 -0.2920 -0.8137
 4861TIP3    H236219   0.825   1.491   2.719  0.0622 -0.0206  0.0088
 4862TIP3   OH236220   3.157   0.394   2.132 -0.0673  0.4234  0.5783
 4862TIP3    H136221   3.072   0.436   2.129 -0.2228  0.0826 -2.4431
 4862TIP3    H236222   3.143   0.316   2.186 -1.7955  0.1947 -0.1310
 4863TIP3   OH236223   5.182   6.736   2.312 -0.0569  0.1243  0.0157
 4863TIP3    H136224   5.173   6.832   2.309  1.8147  0.3123 -1.0309
 4863TIP3    H236225   5.161   6.713   2.403 -0.1989  1.5661  0.3746
 4864TIP3   OH236226   1.248   0.747   2.643  0.2871 -0.7506  0.3391
 4864TIP3    H136227   1.162   0.709   2.660  0.3029 -0.7068  0.5224
 4864TIP3    H236228   1.282   0.770   2.730  0.3774 -0.5384  0.2502
 4865TIP3   OH236229   0.379   6.145   1.115  0.1279 -0.4098  0.2465
 4865TIP3    H136230   0.431   6.081   1.065  1.3802 -1.5266  2.7594
 4865TIP3    H236231   0.438   6.219   1.127 -0.3848  0.1146 -0.4333
 4866TIP3   OH236232   3.727   3.743   0.729  0.0154 -0.4257 -0.0943
 4866TIP3    H136233   3.810   3.705   0.758 -0.1177 -0.6901 -0.0609
 4866TIP3    H236234   3.735   3.751   0.634  0.2967  0.0710 -0.0348
 4867TIP3   OH236235   3.957   6.907   0.310  0.7418 -0.2197 -0.1034
 4867TIP3    H136236   3.992   6.888   0.397  0.2344 -2.2300 -0.3004
 4867TIP3    H236237   4.034   6.908   0.253  0.9922  0.4049  0.2306
 4868TIP3   OH236238   5.399   4.551   7.680 -0.2688 -0.4750 -0.0579
 4868TIP3    H136239   5.372   4.464   7.711 -0.7606 -0.7419 -1.1972
 4868TIP3    H236240   5.491   4.557   7.705  0.0161 -1.6936 -0.7306
 4869TIP3   OH236241   2.834   6.770   7.250 -0.3767  0.2036 -0.2026
 4869TIP3    H136242   2.822   6.838   7.184 -0.7951 -0.3139 -0.6711
 4869TIP3    H236243   2.777   6.796   7.322  0.0726  0.7661 -0.0481
 4870TIP3   OH236244   1.084   1.033   0.128  0.2040  0.1209 -0.1771
 4870TIP3    H136245   0.994   1.000   0.126  0.9751 -2.4283  1.6508
 4870TIP3    H236246   1.128   0.986   0.057  0.0621  1.7769 -1.4361
 4871TIP3   OH236247   3.572   5.286   0.739  0.4031 -0.0568 -0.6449
 4871TIP3    H136248   3.662   5.299   0.768 -0.5319  0.0797  2.5447
 4871TIP3    H236249   3.576   5.297   0.644  3.3079  2.5671 -0.3959
 4872TIP3   OH236250   3.576   3.324   7.996 -0.1461  0.2943 -0.0651
 4872TIP3    H136251   3.646   3.348   8.056  0.0720  2.3810 -1.0814
 4872TIP3    H236252   3.602   3.238   7.962  0.8280  0.0936  1.1442
 4873TIP3   OH236253   5.976   0.147   2.771 -0.6447  0.4420  0.2567
 4873TIP3    H136254   5.921   0.069   2.770 -0.0370 -0.1406  3.4256
 4873TIP3    H236255   6.056   0.121   2.817  0.4577  2.4046 -0.3959
 4874TIP3   OH236256   6.593   0.547   8.124 -0.0682  0.1815 -0.3212
 4874TIP3    H136257   6.636   0.628   8.096 -1.6175  0.5501 -1.8371
 4874TIP3    H236258   6.570   0.503   8.042 -0.3468 -1.2096  0.4719
 4875TIP3   OH236259   2.267   2.741   2.488  0.4280  0.1279  0.4502
 4875TIP3    H136260   2.184   2.775   2.457  0.4397 -0.0244  0.2520
 4875TIP3    H236261   2.297   2.805   2.552 -0.6004 -0.5929  1.7005
 4876TIP3   OH236262   6.663   0.132   2.697  0.1136 -0.0981  0.5256
 4876TIP3    H136263   6.588   0.104   2.750 -1.5509  1.3627 -0.9273
 4876TIP3    H236264   6.666   0.069   2.625  0.8811 -0.6799  1.0498
 4877TIP3   OH236265   5.492   2.052   2.587 -0.0153 -0.0505  0.5457
 4877TIP3    H136266   5.470   1.966   2.620 -0.6727  0.2035  0.7789
 4877TIP3    H236267   5.585   2.046   2.564 -0.2739 -1.1004 -0.3304
 4878TIP3   OH236268   3.334   2.347   0.412  0.1979  0.2831  0.4154
 4878TIP3    H136269   3.382   2.388   0.340  1.4345 -1.8511 -0.0472
 4878TIP3    H236270   3.284   2.277   0.372 -1.2009  0.7312  1.3039
 4879TIP3   OH236271   4.286   0.659   2.259  0.2103 -1.2058 -0.5437
 4879TIP3    H136272   4.354   0.591   2.256  2.1328  0.4752  1.2612
 4879TIP3    H236273   4.234   0.637   2.336  1.3814 -0.2420  0.5701
 4880TIP3   OH236274   0.755   2.053   0.908 -0.1589  0.4703 -0.6779
 4880TIP3    H136275   0.737   2.106   0.830  0.6267 -1.8039 -2.5346
 4880TIP3    H236276   0.754   1.963   0.876  1.4453 -0.4911  1.7111
 4881TIP3   OH236277   3.501   3.720   8.418 -0.1196  0.4019 -0.2727
 4881TIP3    H136278   3.522   3.634   8.381  2.0808  0.5257  0.5532
 4881TIP3    H236279   3.414   3.708   8.457  0.1143 -1.4421 -0.2108
 4882TIP3   OH236280   3.714   5.914   7.837 -0.0790 -0.7005 -0.0103
 4882TIP3    H136281   3.632   5.869   7.858  0.4862 -2.4375 -1.2773
 4882TIP3    H236282   3.730   5.892   7.745  0.1897  2.2931 -0.7813
 4883TIP3   OH236283   3.024   1.871   1.193  0.4231  0.0527  0.1079
 4883TIP3    H136284   2.952   1.856   1.254  0.6242 -0.4739  0.2142
 4883TIP3    H236285   2.985   1.858   1.106 -0.0872  1.6704  0.0547
 4884TIP3   OH236286   2.011   2.109   3.069 -0.2456  0.2465 -0.3597
 4884TIP3    H136287   1.969   2.145   3.147 -0.0990 -0.4167  0.0298
 4884TIP3    H236288   2.048   2.026   3.097 -0.3510 -0.0923 -1.1835
 4885TIP3   OH236289   5.366   6.372   7.429 -0.1022  0.0796 -0.0179
 4885TIP3    H136290   5.348   6.420   7.510 -0.4727  0.2433 -0.1918
 4885TIP3    H236291   5.280   6.363   7.387 -0.0685 -0.8713  0.0834
 4886TIP3   OH236292   2.516   5.733   6.697 -0.0955  0.2950 -0.2672
 4886TIP3    H136293   2.577   5.805   6.682  1.0221 -0.2027  1.5549
 4886TIP3    H236294   2.438   5.757   6.647  1.1785  1.4812 -1.7942
 4887TIP3   OH236295   2.958   2.673   8.015 -0.6017  0.0672 -0.3193
 4887TIP3    H136296   2.951   2.744   8.079  2.4578  1.6799 -1.5368
 4887TIP3    H236297   2.930   2.595   8.062 -0.6269  1.5234  2.2531
 4888TIP3   OH236298   6.619   2.474   0.078  0.0352  0.4172 -0.3463
 4888TIP3    H136299   6.675   2.407   0.117  1.1021  0.7408 -1.2887
 4888TIP3    H236300   6.665   2.501  -0.001 -0.4947  2.0852 -0.1188
 4889TIP3   OH236301   4.402   1.759   1.201  0.5181  0.9027 -0.2387
 4889TIP3    H136302   4.465   1.738   1.270 -0.1601 -3.1328 -0.6011
 4889TIP3    H236303   4.456   1.775   1.124  1.2560 -1.2670 -0.2542
 4890TIP3   OH236304   2.587   3.207   7.412 -0.3171  0.4923  0.4786
 4890TIP3    H136305   2.575   3.161   7.495  0.4183 -0.1304  0.2495
 4890TIP3    H236306   2.511   3.265   7.406 -0.0232  1.0861  1.9233
 4891TIP3   OH236307   0.142   2.636   0.275 -0.4760  0.3049  0.3070
 4891TIP3    H136308   0.215   2.578   0.295  0.3218  0.8082 -0.9944
 4891TIP3    H236309   0.152   2.710   0.335 -0.7794 -0.3043  1.1201
 4892TIP3   OH236310   0.104   3.941   1.841  0.1503 -0.3972 -0.0997
 4892TIP3    H136311   0.018   3.965   1.808  1.0729  2.9081 -0.3750
 4892TIP3    H236312   0.132   3.869   1.783 -1.7587 -0.5331 -0.9464
 4893TIP3   OH236313   0.488   4.883   1.749  0.3794 -0.3747 -0.4291
 4893TIP3    H136314   0.550   4.834   1.803 -0.3055  0.4733  1.2025
 4893TIP3    H236315   0.406   4.834   1.758  0.6727 -1.2825 -2.2721
 4894TIP3   OH236316   5.084   1.420   1.709 -0.0662  0.4232  0.2749
 4894TIP3    H136317   5.121   1.395   1.625 -1.9126 -0.6086 -0.2989
 4894TIP3    H236318   5.024   1.492   1.689 -2.0603 -1.1305  0.2786
 4895TIP3   OH236319   2.224   1.536   0.312 -0.1749  0.0201 -0.5610
 4895TIP3    H136320   2.255   1.448   0.288  1.6780  0.0653  1.3757
 4895TIP3    H236321   2.135   1.522   0.343  0.0867 -1.1979 -0.2970
 4896TIP3   OH236322   3.225   1.893   8.346  0.6511 -0.5692  0.2607
 4896TIP3    H136323   3.130   1.883   8.346  0.3111  1.7133  2.6234
 4896TIP3    H236324   3.251   1.871   8.256 -2.1077 -1.0145 -0.5294
 4897TIP3   OH236325   0.660   1.312   2.914  0.0650  0.8754  0.1238
 4897TIP3    H136326   0.641   1.375   2.983  0.6815  1.1958  0.0045
 4897TIP3    H236327   0.576   1.267   2.899  0.1464  0.1183  1.7421
 4898TIP3   OH236328   0.684   4.946   8.454 -0.2133  0.2683 -0.0002
 4898TIP3    H136329   0.660   5.006   8.525 -0.1452  3.2356 -2.2499
 4898TIP3    H236330   0.600   4.918   8.417 -0.2810  1.0062 -0.4383
 4899TIP3   OH236331   6.060   6.135   1.651 -0.7370  0.4673 -0.3776
 4899TIP3    H136332   6.039   6.145   1.744 -0.0530 -3.9523  0.4553
 4899TIP3    H236333   6.152   6.108   1.650 -1.2068 -1.2435 -2.1584
 4900TIP3   OH236334   2.331   2.474   1.322 -0.0527  0.5422  0.2264
 4900TIP3    H136335   2.249   2.434   1.293 -0.6557  0.5610  1.8195
 4900TIP3    H236336   2.397   2.442   1.260 -1.2050  0.2788 -0.8875
 4901TIP3   OH236337   5.561   4.635   0.478 -0.0456  0.0450  0.5071
 4901TIP3    H136338   5.497   4.647   0.408  0.2077 -1.4350 -0.0144
 4901TIP3    H236339   5.627   4.702   0.463 -0.4349  0.2813 -0.1677
 4902TIP3   OH236340   0.436   0.996   2.129 -0.3633  0.3293 -0.0139
 4902TIP3    H136341   0.376   0.956   2.192  0.5030  1.1178  1.3768
 4902TIP3    H236342   0.419   1.090   2.138 -1.5398  0.4044 -2.3591
 4903TIP3   OH236343   1.741   5.585   1.540  0.0541 -0.1132  0.8352
 4903TIP3    H136344   1.748   5.648   1.611  0.7307  0.3805  0.3479
 4903TIP3    H236345   1.669   5.618   1.486  0.3760  0.2233  0.6066
 4904TIP3   OH236346   3.952   6.320   1.262 -0.1512 -0.5923  0.6965
 4904TIP3    H136347   4.041   6.351   1.278  0.1342 -1.4511  0.8418
 4904TIP3    H236348   3.918   6.297   1.348 -0.4850 -0.3534  0.6310
 4905TIP3   OH236349   4.175   2.566   0.157  0.6316 -0.1058 -0.5716
 4905TIP3    H136350   4.263   2.537   0.180  0.1726  0.5329  2.3846
 4905TIP3    H236351   4.140   2.495   0.103  2.8128 -0.4828 -1.6001
 4906TIP3   OH236352   1.148   5.399   7.942 -0.2062 -0.1025  0.0368
 4906TIP3    H136353   1.095   5.337   7.892 -0.9554  1.0756 -0.6843
 4906TIP3    H236354   1.237   5.386   7.909 -0.5485  0.0312 -0.9727
 4907TIP3   OH236355   2.634   3.629   1.563  0.2772 -0.2566 -0.3844
 4907TIP3    H136356   2.629   3.534   1.563  1.3990 -0.3736 -2.3711
 4907TIP3    H236357   2.606   3.655   1.475 -2.4234  1.4749  0.8572
 4908TIP3   OH236358   3.072   3.602   7.622 -0.8099 -0.1399  0.3142
 4908TIP3    H136359   3.048   3.562   7.538  1.6489  1.6226 -1.4139
 4908TIP3    H236360   3.123   3.535   7.667 -0.0265 -0.3417 -0.8014
 4909TIP3   OH236361   5.999   6.294   7.427  0.1888 -0.3669  0.4975
 4909TIP3    H136362   6.038   6.210   7.402 -0.0629 -0.1227 -0.7883
 4909TIP3    H236363   5.964   6.279   7.514  1.5076 -1.1360  0.9281
 4910TIP3   OH236364   3.413   2.642   7.525 -0.4239  0.6523  0.1298
 4910TIP3    H136365   3.433   2.575   7.591  0.1013  1.2088  0.5466
 4910TIP3    H236366   3.331   2.681   7.554  0.4406  1.7750  1.2004
 4911TIP3   OH236367   4.708   1.031   7.465  0.2496 -0.5908 -0.2042
 4911TIP3    H136368   4.790   1.061   7.425 -0.5983  0.7900 -0.9832
 4911TIP3    H236369   4.641   1.053   7.402 -1.1731  1.7465  1.9568
 4912TIP3   OH236370   2.658   5.950   6.637  0.3085 -0.4492  0.9276
 4912TIP3    H136371   2.749   5.927   6.622 -0.4513 -2.4324 -1.3642
 4912TIP3    H236372   2.645   6.031   6.587  0.7775 -0.2425  1.1402
 4913TIP3   OH236373   3.864   5.092   0.569 -0.7946  0.2592 -0.1426
 4913TIP3    H136374   3.876   4.999   0.587  0.4472  0.1569 -1.3459
 4913TIP3    H236375   3.906   5.137   0.642  1.5241 -0.1580 -1.1135
 4914TIP3   OH236376   6.369   1.204   0.978  0.1158 -0.3224  0.5017
 4914TIP3    H136377   6.351   1.129   0.922 -0.4518 -0.0227  0.2719
 4914TIP3    H236378   6.463   1.200   0.994  0.2009 -0.6995 -0.0593
 4915TIP3   OH236379   4.625   1.384   1.716 -0.0613  0.4767  0.0647
 4915TIP3    H136380   4.677   1.430   1.650 -0.6902  1.0644 -0.0290
 4915TIP3    H236381   4.537   1.377   1.678  0.4265 -2.6468 -0.8278
 4916TIP3   OH236382   6.046   3.744   3.344 -0.2425  0.2201  0.5783
 4916TIP3    H136383   6.086   3.658   3.353 -0.0648  0.0975 -1.0321
 4916TIP3    H236384   6.119   3.804   3.330 -0.4688 -0.0525 -2.7246
 4917TIP3   OH236385   5.075   1.446   2.057  0.6632  0.2826  0.1098
 4917TIP3    H136386   4.984   1.438   2.029  1.2355  2.8403 -2.9534
 4917TIP3    H236387   5.111   1.358   2.047 -0.6545 -0.0802 -2.0638
 4918TIP3   OH236388   2.752   6.637   2.088  0.1198 -0.1848 -0.0382
 4918TIP3    H136389   2.791   6.711   2.041  0.1367 -0.5214 -0.5629
 4918TIP3    H236390   2.657   6.651   2.079  0.0842  0.7030  1.3463
 4919TIP3   OH236391   4.797   0.803   1.521  0.6137 -0.2614 -0.0347
 4919TIP3    H136392   4.851   0.863   1.470  2.5075 -1.0859  0.9003
 4919TIP3    H236393   4.808   0.718   1.477 -0.6600 -0.2902 -0.3392
 4920TIP3   OH236394   3.623   1.489   0.166  0.1312  0.2729 -0.0568
 4920TIP3    H136395   3.595   1.403   0.133  0.0156  0.3938 -0.2777
 4920TIP3    H236396   3.600   1.488   0.259 -1.6831  0.7965 -0.4573
 4921TIP3   OH236397   5.630   1.429   7.639 -0.1655  0.3655  0.1093
 4921TIP3    H136398   5.587   1.408   7.556 -0.2994  0.7492  0.0769
 4921TIP3    H236399   5.718   1.393   7.630 -0.9892 -2.0054  0.8698
 4922TIP3   OH236400   3.668   0.015   7.673  0.3531 -0.5083  0.4722
 4922TIP3    H136401   3.733  -0.052   7.650  1.5740  0.6021  0.5813
 4922TIP3    H236402   3.656   0.066   7.593 -1.3038 -1.4092  0.1051
 4923TIP3   OH236403   6.166   5.204   2.978  0.1231  0.0146  0.3460
 4923TIP3    H136404   6.092   5.144   2.966 -0.8365  1.3928 -1.0356
 4923TIP3    H236405   6.145   5.250   3.060  0.8380 -1.4228  1.3859
 4924TIP3   OH236406   0.323   3.043   1.281 -0.2865 -0.0776  0.2055
 4924TIP3    H136407   0.417   3.028   1.267 -0.3437 -0.2620  0.0165
 4924TIP3    H236408   0.311   3.136   1.262 -0.6757 -0.6449 -2.8503
 4925TIP3   OH236409   6.986   1.875   0.721 -0.3476  0.1854  0.5924
 4925TIP3    H136410   7.056   1.931   0.753  0.1166  0.5886 -1.0275
 4925TIP3    H236411   6.915   1.936   0.700 -1.0522 -0.1800  1.8409
 4926TIP3   OH236412   1.257   6.691   0.290  0.0259 -0.2749  0.3270
 4926TIP3    H136413   1.214   6.613   0.252  0.2154 -0.8856  1.3213
 4926TIP3    H236414   1.189   6.730   0.345  0.3508 -0.5354  0.9215
 4927TIP3   OH236415   6.527   5.789   1.409  0.2089  0.1313  0.2861
 4927TIP3    H136416   6.589   5.757   1.342  0.9112  2.5633 -0.3342
 4927TIP3    H236417   6.445   5.800   1.362 -0.2440 -1.3681  0.6788
 4928TIP3   OH236418   3.678   2.040   0.488 -0.3167  0.4857  0.3720
 4928TIP3    H136419   3.684   2.134   0.502 -1.8304  0.6479  0.0767
 4928TIP3    H236420   3.729   2.024   0.409  1.1861  0.8102  1.2415
 4929TIP3   OH236421   1.377   0.981   6.812  0.4502 -0.2638  0.4026
 4929TIP3    H136422   1.367   0.886   6.807  1.0895 -0.3350  0.3722
 4929TIP3    H236423   1.357   1.012   6.723 -0.3906 -0.2996  0.5717
 4930TIP3   OH236424   2.551   6.035   7.980  0.7219  0.0539  0.6606
 4930TIP3    H136425   2.456   6.025   7.984  0.9679 -3.0690  2.1959
 4930TIP3    H236426   2.574   6.011   7.890  0.1643 -1.2687  0.8460
 4931TIP3   OH236427   0.524   0.324   1.203  0.2393 -0.0376  0.2185
 4931TIP3    H136428   0.430   0.314   1.191 -0.0564  2.4858 -0.0899
 4931TIP3    H236429   0.546   0.406   1.157  2.5234 -0.3801  0.5673
 4932TIP3   OH236430   3.188   5.156   0.178 -0.2814 -0.1043 -0.5706
 4932TIP3    H136431   3.156   5.074   0.215  1.3005 -0.7066 -0.4713
 4932TIP3    H236432   3.149   5.161   0.091 -1.6561 -0.1455  0.0123
 4933TIP3   OH236433   0.224   2.737   8.058  0.1221  0.1091 -0.4944
 4933TIP3    H136434   0.224   2.647   8.027  1.1182 -0.4202  0.9322
 4933TIP3    H236435   0.177   2.786   7.991  0.9117 -1.2029 -2.0479
 4934TIP3   OH236436   0.773   3.226   7.543  0.0518 -0.1130 -0.1772
 4934TIP3    H136437   0.762   3.303   7.488  0.3930  0.0986  0.0474
 4934TIP3    H236438   0.684   3.207   7.575 -0.1580 -0.2686 -0.8274
 4935TIP3   OH236439   0.736   6.494   0.929 -0.0069  0.6753 -0.4303
 4935TIP3    H136440   0.829   6.476   0.941 -0.3504 -0.0308  1.4833
 4935TIP3    H236441   0.723   6.583   0.961 -0.6495 -0.6749  3.5505
 4936TIP3   OH236442   2.197   6.456   2.015 -0.7914 -0.0305 -0.5182
 4936TIP3    H136443   2.246   6.447   2.097 -1.5305  0.2808 -0.0355
 4936TIP3    H236444   2.180   6.550   2.008 -0.2295  0.0231 -1.3360
 4937TIP3   OH236445   5.936   2.838   2.184  0.4492  0.2741 -0.4184
 4937TIP3    H136446   6.028   2.823   2.209  0.5750 -1.6903 -1.8487
 4937TIP3    H236447   5.930   2.933   2.170  1.9300  0.6055  0.8586
 4938TIP3   OH236448   3.249   6.382   1.525  0.4688 -0.1293  0.0249
 4938TIP3    H136449   3.331   6.343   1.495  0.3404  0.5964 -1.3445
 4938TIP3    H236450   3.202   6.309   1.565  1.6860 -0.5950  0.6571
 4939TIP3   OH236451   4.930   6.348   2.058  0.2299 -0.2844  0.2670
 4939TIP3    H136452   4.905   6.424   2.110  1.3555  0.0925  0.2931
 4939TIP3    H236453   4.853   6.329   2.005  0.3295  1.6765 -0.6827
 4940TIP3   OH236454   5.274   5.797   7.072 -0.4753 -0.3462  0.0641
 4940TIP3    H136455   5.250   5.743   6.997  1.0999  0.0370 -0.7820
 4940TIP3    H236456   5.364   5.770   7.092 -1.3759 -1.5991  2.9124
 4941TIP3   OH236457   4.466   1.125   0.257 -0.2871 -0.9529  0.6390
 4941TIP3    H136458   4.419   1.080   0.187 -0.0710 -0.7918  0.3860
 4941TIP3    H236459   4.412   1.112   0.335 -0.7126 -0.8294  0.3677
 4942TIP3   OH236460   4.573   3.898   8.034  0.2051 -0.1034  0.6004
 4942TIP3    H136461   4.613   3.861   8.113 -2.3627 -1.2218  1.4787
 4942TIP3    H236462   4.523   3.973   8.065 -0.4869 -0.2999 -0.0028
 4943TIP3   OH236463   0.768   4.934   1.242 -0.0317 -0.3070  0.3081
 4943TIP3    H136464   0.849   4.939   1.192 -1.0403  0.4391 -1.3342
 4943TIP3    H236465   0.724   5.018   1.226 -0.8695 -0.4643  1.6204
 4944TIP3   OH236466   0.009   5.321   0.812  0.3348 -0.2642  0.0857
 4944TIP3    H136467  -0.049   5.362   0.748  1.0294  0.4062 -0.1357
 4944TIP3    H236468  -0.049   5.267   0.866 -0.6136  0.9304  0.3123
 4945TIP3   OH236469   6.537   4.245   7.417 -0.3224  0.4260 -0.1427
 4945TIP3    H136470   6.556   4.267   7.325 -0.5842  1.4243  0.0302
 4945TIP3    H236471   6.442   4.253   7.424 -0.1190  2.6068  0.7458
 4946TIP3   OH236472   6.162   1.020   7.745  0.3313 -0.2307  0.4170
 4946TIP3    H136473   6.216   0.946   7.773  2.5418  0.7766 -0.9216
 4946TIP3    H236474   6.096   0.981   7.688  1.2102 -1.2359  0.0494
 4947TIP3   OH236475   6.890   4.954   2.053  0.1042  0.3711  0.4337
 4947TIP3    H136476   6.913   5.027   2.110 -0.1531  2.1947 -1.6630
 4947TIP3    H236477   6.941   4.968   1.973 -2.9232  0.6016 -1.6183
 4948TIP3   OH236478   1.523   2.382   2.634 -0.5298 -0.2427  0.7004
 4948TIP3    H136479   1.446   2.421   2.592  0.0523  0.7676  0.5587
 4948TIP3    H236480   1.511   2.400   2.727  0.7621  2.1735  0.4505
 4949TIP3   OH236481   4.941   2.467   1.547  0.3437 -0.1140  0.3598
 4949TIP3    H136482   4.974   2.445   1.634  2.4017 -0.0479 -0.3534
 4949TIP3    H236483   5.019   2.472   1.492 -0.7487  1.4301 -1.1580
 4950TIP3   OH236484   2.714   5.182   0.355  0.5440  0.2600  0.8422
 4950TIP3    H136485   2.709   5.220   0.443  2.6211  0.0388  1.1046
 4950TIP3    H236486   2.758   5.098   0.367 -1.8327 -1.2307 -0.0611
 4951TIP3   OH236487   4.705   0.480   2.044 -0.4934  0.6297  0.2453
 4951TIP3    H136488   4.754   0.406   2.006 -0.8413  1.0775 -1.1365
 4951TIP3    H236489   4.621   0.478   1.998 -1.5876  0.2213  2.1747
 4952TIP3   OH236490   6.875   4.567   0.203  0.3512 -0.2385  0.1320
 4952TIP3    H136491   6.958   4.550   0.247  0.5117  0.4928  0.1276
 4952TIP3    H236492   6.840   4.644   0.247 -0.8350 -1.1355  0.8167
 4953TIP3   OH236493   5.402   0.211   8.440  0.3015  0.0840  0.3246
 4953TIP3    H136494   5.460   0.257   8.501  1.4159  0.0121 -0.6443
 4953TIP3    H236495   5.330   0.272   8.424  1.4746  1.3206 -0.5085
 4954TIP3   OH236496   6.620   5.024   1.559 -0.7052 -0.2000 -0.0398
 4954TIP3    H136497   6.670   4.983   1.630 -0.3911 -1.5674 -1.0136
 4954TIP3    H236498   6.600   5.112   1.592  0.0817 -0.5305  1.4265
 4955TIP3   OH236499   6.623   0.071   3.035  0.0509 -0.1005  0.2994
 4955TIP3    H136500   6.548   0.074   2.976  0.3068 -0.5012 -0.0475
 4955TIP3    H236501   6.648   0.163   3.046  0.7996 -0.0842 -1.2466
 4956TIP3   OH236502   1.793   3.086   0.556 -0.1604  0.3629 -0.1376
 4956TIP3    H136503   1.727   3.046   0.613  0.4005 -0.3593  0.0234
 4956TIP3    H236504   1.778   3.046   0.470 -0.2014  0.5152 -0.2020
 4957TIP3   OH236505   0.168   5.062   0.814  0.1715  0.4712  0.1841
 4957TIP3    H136506   0.139   5.151   0.798  3.8323  2.0297  1.2183
 4957TIP3    H236507   0.126   5.037   0.896 -1.4184  0.9128 -0.4586
 4958TIP3   OH236508   3.578   1.416   6.869 -0.3178  0.0961  0.2184
 4958TIP3    H136509   3.602   1.367   6.790 -2.0000  0.5575 -0.6029
 4958TIP3    H236510   3.589   1.508   6.845  0.9551  0.2262  1.1506
 4959TIP3   OH236511   2.810   2.516   7.029 -0.4112 -0.1878  0.0953
 4959TIP3    H136512   2.843   2.575   7.097 -1.4405 -0.7923  1.1385
 4959TIP3    H236513   2.746   2.568   6.981  0.0066  0.1044 -0.1555
 4960TIP3   OH236514   2.328   5.145   8.437  0.1345 -0.0433  0.2025
 4960TIP3    H136515   2.357   5.235   8.426 -1.5690  0.5802  0.5521
 4960TIP3    H236516   2.232   5.150   8.441  0.0237 -1.8017  0.8210
 4961TIP3   OH236517   5.077   2.715   2.736 -0.0368 -0.1853 -0.3578
 4961TIP3    H136518   5.131   2.760   2.671  2.3864  0.0058  1.5966
 4961TIP3    H236519   5.084   2.770   2.815 -0.5305 -1.7909  0.8621
 4962TIP3   OH236520   6.049   6.811   0.289 -0.2726  0.6067 -0.1863
 4962TIP3    H136521   5.958   6.780   0.288 -0.0491 -0.1895  1.5048
 4962TIP3    H236522   6.042   6.906   0.296 -0.9452  0.8187 -2.6251
 4963TIP3   OH236523   2.550   5.122   7.519  0.4063 -0.4608  0.5468
 4963TIP3    H136524   2.645   5.129   7.508  0.5940 -2.1610  0.7765
 4963TIP3    H236525   2.537   5.043   7.572 -1.0838  0.5851  1.8306
 4964TIP3   OH236526   2.794   1.581   1.077  0.1243 -0.5381 -0.2370
 4964TIP3    H136527   2.860   1.645   1.047  0.3007 -1.2629 -1.4399
 4964TIP3    H236528   2.832   1.496   1.055 -0.9159 -0.9925 -0.2995
 4965TIP3   OH236529   6.166   3.312   2.114  0.0678 -0.1375  0.6330
 4965TIP3    H136530   6.238   3.300   2.052 -0.5073  0.0622 -0.0854
 4965TIP3    H236531   6.207   3.351   2.192  0.7741 -0.2709  0.3303
 4966TIP3   OH236532   6.738   3.602   1.238 -0.2484  0.3926  0.2230
 4966TIP3    H136533   6.684   3.640   1.308 -0.0113  1.6265 -0.2378
 4966TIP3    H236534   6.828   3.616   1.268 -0.1132  1.9542 -0.8079
 4967TIP3   OH236535   3.930   2.230   1.497 -0.5063 -0.1313 -0.2323
 4967TIP3    H136536   3.942   2.173   1.422 -0.6704  0.8340 -1.0212
 4967TIP3    H236537   4.002   2.293   1.491  0.0302 -0.6044  0.9659
 4968TIP3   OH236538   1.895   1.091   7.925  0.2421  0.1206  0.0044
 4968TIP3    H136539   1.841   1.152   7.875 -0.4298 -0.8899 -0.5354
 4968TIP3    H236540   1.897   1.127   8.013 -2.2986 -0.4020  0.3527
 4969TIP3   OH236541   3.423   0.491   0.408  0.1913  1.1306 -0.3655
 4969TIP3    H136542   3.353   0.425   0.409  0.0833  1.1085 -2.9706
 4969TIP3    H236543   3.377   0.573   0.422 -0.0949  0.9446 -0.1857
 4970TIP3   OH236544   1.695   2.031   7.350 -0.3108 -0.0064  0.5015
 4970TIP3    H136545   1.692   2.098   7.281  1.7178  0.3094  0.6756
 4970TIP3    H236546   1.653   2.072   7.425  0.4783  0.9155  0.4569
 4971TIP3   OH236547   6.876   3.888   1.631  0.1172 -0.1990 -0.0120
 4971TIP3    H136548   6.841   3.920   1.548 -2.3911 -1.4309  0.4698
 4971TIP3    H236549   6.803   3.839   1.670  1.7415 -1.0220  2.1703
 4972TIP3   OH236550   4.317   0.921   8.196 -0.5817  0.0526 -0.4383
 4972TIP3    H136551   4.312   0.880   8.110 -0.1855  0.8469 -0.8475
 4972TIP3    H236552   4.232   0.904   8.236 -0.7423 -0.3802 -0.9564
 4973TIP3   OH236553   5.429   5.306   8.045  0.4535  0.4512 -0.2414
 4973TIP3    H136554   5.523   5.320   8.054  0.4661  1.1772 -1.3226
 4973TIP3    H236555   5.413   5.221   8.086  1.6669  0.0430 -0.5733
 4974TIP3   OH236556   4.375   5.365   0.325  0.1213  0.2440 -0.3067
 4974TIP3    H136557   4.394   5.458   0.309  1.5004  0.4521  2.1080
 4974TIP3    H236558   4.338   5.363   0.413 -2.0657 -1.2985 -1.1981
 4975TIP3   OH236559   3.374   1.022   1.981  0.3151  0.6952  0.2006
 4975TIP3    H136560   3.405   1.111   1.998  0.7480  0.5814  0.0223
 4975TIP3    H236561   3.362   0.983   2.067 -1.1848  1.3601  0.3235
 4976TIP3   OH236562   6.410   2.968   7.630  0.0615 -0.9940  0.5834
 4976TIP3    H136563   6.315   2.985   7.635  0.1692 -0.7486  2.3089
 4976TIP3    H236564   6.445   3.045   7.586 -0.4971 -0.9757  0.1438
 4977TIP3   OH236565   0.609   2.634   3.460  0.6519 -0.3713 -0.2206
 4977TIP3    H136566   0.599   2.653   3.366  2.9287  3.1829  0.0757
 4977TIP3    H236567   0.678   2.567   3.463  1.0236 -0.0426 -1.0776
 4978TIP3   OH236568   4.680   5.128   1.386  0.3469 -0.1570 -0.2254
 4978TIP3    H136569   4.698   5.036   1.408 -1.6424 -0.3582  0.7739
 4978TIP3    H236570   4.586   5.130   1.366  0.1750  1.8027  0.5721
 4979TIP3   OH236571   1.363   5.773   2.895  0.0751  0.1256  0.2660
 4979TIP3    H136572   1.432   5.725   2.942  0.5697  0.4434 -0.1165
 4979TIP3    H236573   1.410   5.844   2.851 -0.0176 -1.3025 -2.3649
 4980TIP3   OH236574   5.679   1.851   7.132 -0.0577 -0.3959  0.8311
 4980TIP3    H136575   5.684   1.772   7.078 -0.2208 -0.0859  0.3603
 4980TIP3    H236576   5.597   1.841   7.181 -0.3874 -0.2370  0.3211
 4981TIP3   OH236577   2.654   1.898   7.545  0.1590  0.1470  0.0296
 4981TIP3    H136578   2.583   1.945   7.501  0.3472  0.5094  0.1158
 4981TIP3    H236579   2.713   1.966   7.576 -0.2462 -0.0794  1.3347
 4982TIP3   OH236580   1.867   2.113   0.661 -0.3491 -0.0129 -0.1002
 4982TIP3    H136581   1.874   2.019   0.678  0.3629 -0.1336 -0.9411
 4982TIP3    H236582   1.921   2.154   0.729  3.1732 -0.5327 -2.2904
 4983TIP3   OH236583   0.761   2.528   7.875 -0.0556 -0.0172  0.2684
 4983TIP3    H136584   0.797   2.441   7.858 -0.2828  0.2944 -2.3275
 4983TIP3    H236585   0.822   2.587   7.830 -0.2667  1.1195  1.4275
 4984TIP3   OH236586   6.629   2.163   7.804 -0.0379  0.0343 -0.1442
 4984TIP3    H136587   6.588   2.078   7.786 -2.5038  0.9466  0.7382
 4984TIP3    H236588   6.679   2.148   7.884 -1.3724 -0.3602  0.6539
 4985TIP3   OH236589   2.540   0.127   1.497 -0.6607  0.3247 -0.4238
 4985TIP3    H136590   2.607   0.176   1.545 -1.1655 -0.0265  0.6730
 4985TIP3    H236591   2.474   0.192   1.474  0.0378  0.6708 -1.5026
 4986TIP3   OH236592   4.769   0.440   0.597  0.1849 -0.0268 -0.1233
 4986TIP3    H136593   4.826   0.401   0.530  1.7186  0.3897  0.8901
 4986TIP3    H236594   4.775   0.379   0.671 -1.7137 -0.6302 -0.4002
 4987TIP3   OH236595   1.341   3.614   7.624  0.3338 -0.0483  0.6287
 4987TIP3    H136596   1.368   3.616   7.532 -1.3287 -0.9256  0.0709
 4987TIP3    H236597   1.325   3.705   7.647 -1.3181  0.0302 -0.6608
 4988TIP3   OH236598   6.079   2.902   6.656  0.1141  0.0390  0.0977
 4988TIP3    H136599   5.988   2.886   6.680 -0.1957  0.8806 -0.4627
 4988TIP3    H236600   6.128   2.835   6.703 -0.7082  0.0973  1.0767
 4989TIP3   OH236601   6.933   5.191   2.211 -0.1634  0.0579 -0.0506
 4989TIP3    H136602   6.990   5.202   2.287 -0.4653 -1.3414  0.3991
 4989TIP3    H236603   6.947   5.271   2.160  0.1580  0.9654  1.3825
 4990TIP3   OH236604   6.197   3.153   0.751 -0.0042 -0.4496  0.2163
 4990TIP3    H136605   6.259   3.208   0.702 -0.0943  0.0073  0.6048
 4990TIP3    H236606   6.183   3.076   0.695  0.2838 -0.1742 -0.2406
 4991TIP3   OH236607   1.810   2.756   0.688  0.0571  0.4669 -0.1634
 4991TIP3    H136608   1.871   2.761   0.614  0.2520  0.0824 -0.0295
 4991TIP3    H236609   1.825   2.670   0.726  0.6824  1.0475  0.9471
 4992TIP3   OH236610   0.765   6.643   7.239  0.0717  0.2615 -0.1770
 4992TIP3    H136611   0.718   6.722   7.212 -0.9860 -0.7449 -1.3695
 4992TIP3    H236612   0.836   6.635   7.176  1.3041  1.2232  1.0257
 4993TIP3   OH236613   1.893   2.597   8.436  0.2525  0.3850 -0.0400
 4993TIP3    H136614   1.826   2.547   8.483  0.2663  1.2279  0.9187
 4993TIP3    H236615   1.845   2.669   8.396  0.5733  1.0829  0.7823
 4994TIP3   OH236616   0.241   6.907   0.732 -0.4018  0.8464 -0.5318
 4994TIP3    H136617   0.314   6.850   0.754 -1.0657 -0.4257 -1.4457
 4994TIP3    H236618   0.256   6.931   0.640 -1.2190  0.3741 -0.8041
 4995TIP3   OH236619   6.286   0.852   2.728 -0.2656  0.0003 -0.1882
 4995TIP3    H136620   6.198   0.852   2.764 -0.0702 -1.8071  0.3504
 4995TIP3    H236621   6.318   0.941   2.744 -1.0038 -0.0884  2.0728
 4996TIP3   OH236622   4.092   2.571   1.690 -0.0383 -0.1512 -0.7505
 4996TIP3    H136623   4.135   2.511   1.751  0.3371  0.0779 -0.7882
 4996TIP3    H236624   4.001   2.573   1.719  0.0084 -0.5069 -0.5660
 4997TIP3   OH236625   2.232   5.495   0.330 -0.0209 -0.4184  0.0007
 4997TIP3    H136626   2.266   5.569   0.380  1.7708 -0.2749 -1.3338
 4997TIP3    H236627   2.186   5.441   0.395  2.2454 -0.2899  1.8448
 4998TIP3   OH236628   4.613   5.399   8.124 -0.1181  0.0082 -0.3834
 4998TIP3    H136629   4.682   5.362   8.179 -0.2244  0.7466  0.2656
 4998TIP3    H236630   4.532   5.383   8.172 -0.0771  1.9391  0.4359
 4999TIP3   OH236631   6.259   4.909   0.979  1.0761 -0.0682 -0.3357
 4999TIP3    H136632   6.299   4.919   1.065  1.5525 -0.7489 -0.4745
 4999TIP3    H236633   6.333   4.892   0.920  0.6452 -0.7239 -0.6930
 5000TIP3   OH236634   3.180   5.036   1.194  0.3400 -0.7012  0.2285
 5000TIP3    H136635   3.106   4.976   1.201  0.4569 -0.7059  1.7330
 5000TIP3    H236636   3.254   4.988   1.229  0.2107  0.6397  2.5260
 5001TIP3   OH236637   6.564   6.280   8.319 -0.1422 -0.1901  0.6535
 5001TIP3    H136638   6.544   6.198   8.364  0.1740  0.8358  2.7775
 5001TIP3    H236639   6.657   6.273   8.296 -0.3307 -0.7580  0.0127
 5002TIP3   OH236640   2.980   5.808   1.461 -0.2064 -0.4077 -0.7559
 5002TIP3    H136641   2.968   5.859   1.541 -3.1514  0.7263 -1.7767
 5002TIP3    H236642   2.970   5.717   1.489  0.7520 -0.1775  0.4267
 5003TIP3   OH236643   3.499   2.106   7.886  0.1150  0.6841  0.1313
 5003TIP3    H136644   3.554   2.030   7.904 -1.6785 -0.2016  2.1889
 5003TIP3    H236645   3.561   2.179   7.880  1.7573 -0.7007 -0.6641
 5004TIP3   OH236646   0.598   6.415   7.793  0.0830 -0.1021 -0.2553
 5004TIP3    H136647   0.503   6.406   7.801  0.2381 -0.8282  1.0901
 5004TIP3    H236648   0.623   6.345   7.733 -0.3931  1.1602 -1.9851
 5005TIP3   OH236649   6.608   2.684   0.428  0.0767  0.0604  0.1386
 5005TIP3    H136650   6.660   2.728   0.495 -0.6254 -0.6221  1.1810
 5005TIP3    H236651   6.539   2.640   0.478 -0.7351 -0.0980 -1.0920
 5006TIP3   OH236652   6.301   2.357   1.935  0.6928  0.2778 -0.7661
 5006TIP3    H136653   6.328   2.382   1.846  1.4743 -0.1436 -0.6554
 5006TIP3    H236654   6.272   2.266   1.927  0.6403  0.2805 -0.6144
 5007TIP3   OH236655   4.225   3.517   1.444 -0.0178 -0.8599 -0.7387
 5007TIP3    H136656   4.247   3.566   1.523  0.7747  0.1758 -1.5669
 5007TIP3    H236657   4.298   3.455   1.433  0.1074 -0.6842 -0.9057
 5008TIP3   OH236658   0.422   1.949   0.842 -0.2519 -0.6853 -0.2392
 5008TIP3    H136659   0.435   1.929   0.934  0.6800 -0.6285 -0.3451
 5008TIP3    H236660   0.351   2.013   0.841  0.8354  0.5880  0.5860
 5009TIP3   OH236661   5.669   3.053   2.017 -0.0466  0.2651  0.3940
 5009TIP3    H136662   5.593   3.104   2.045 -0.3194 -0.2962  0.7085
 5009TIP3    H236663   5.665   2.974   2.070  1.0979  0.4879  0.8309
 5010TIP3   OH236664   1.233   4.762   7.536  0.0490  0.6707 -0.9110
 5010TIP3    H136665   1.293   4.688   7.546  0.6352  1.2753  0.2809
 5010TIP3    H236666   1.146   4.727   7.555  0.1687  0.0379 -1.5103
 5011TIP3   OH236667   2.772   2.785   6.881  0.3672 -0.0031 -0.2947
 5011TIP3    H136668   2.855   2.817   6.915 -0.1992 -0.7806  2.0607
 5011TIP3    H236669   2.796   2.720   6.815  1.6943 -0.9712  1.0740
 5012TIP3   OH236670   3.898   1.471   0.111 -0.2593  0.5478 -0.0437
 5012TIP3    H136671   3.927   1.484   0.021  0.1976  0.2739  0.0637
 5012TIP3    H236672   3.803   1.463   0.104 -0.0606 -1.6781 -0.7779
 5013TIP3   OH236673   3.203   2.282   2.729 -0.5445  0.1728  0.5524
 5013TIP3    H136674   3.212   2.262   2.636 -0.5780  1.0889  0.3486
 5013TIP3    H236675   3.289   2.317   2.755 -0.6677  0.3246  0.7622
 5014TIP3   OH236676   0.580   0.546   1.064  0.0052 -0.5892 -0.3475
 5014TIP3    H136677   0.661   0.595   1.070  0.1950 -0.8677 -0.6539
 5014TIP3    H236678   0.541   0.573   0.981 -1.2890  1.1863  0.7679
 5015TIP3   OH236679   5.894   2.526   7.011  0.3381  0.0750  0.0456
 5015TIP3    H136680   5.846   2.510   6.930  1.0715  2.0214 -0.8209
 5015TIP3    H236681   5.986   2.516   6.987  0.5091 -1.0813  1.0867
 5016TIP3   OH236682   2.248   5.172   1.777 -0.1447 -0.0398  0.1702
 5016TIP3    H136683   2.294   5.229   1.838 -0.3805 -2.7155  3.0658
 5016TIP3    H236684   2.315   5.113   1.743 -0.2505  0.6425 -1.3537
 5017TIP3   OH236685   4.176   6.903   0.134 -0.0396 -0.4748 -0.7526
 5017TIP3    H136686   4.205   6.990   0.108  1.2394 -0.8322 -0.6166
 5017TIP3    H236687   4.167   6.855   0.052 -0.8414 -0.1892 -0.8335
 5018TIP3   OH236688   4.469   3.460   7.860  0.1436 -0.4592  0.3133
 5018TIP3    H136689   4.442   3.551   7.872  1.7114  0.1291 -0.3165
 5018TIP3    H236690   4.387   3.411   7.857 -0.7069  0.8221  1.4264
 5019TIP3   OH236691   0.020   6.096   0.212 -0.4325  0.0998  0.1882
 5019TIP3    H136692   0.075   6.106   0.290 -2.0451  0.6191  1.3051
 5019TIP3    H236693   0.007   6.185   0.181 -1.6670  0.1076  0.6900
 5020TIP3   OH236694   4.575   0.043   1.834  0.6744 -0.1845  0.4726
 5020TIP3    H136695   4.490   0.071   1.801  1.4284  1.6580 -0.0318
 5020TIP3    H236696   4.613  -0.007   1.762  1.2604  1.6674 -0.5825
 5021TIP3   OH236697   0.644   2.512   2.208 -0.2291 -0.4383  0.1882
 5021TIP3    H136698   0.689   2.456   2.145  0.2824  0.9416 -0.7326
 5021TIP3    H236699   0.715   2.546   2.263  0.0237  2.0448 -1.5041
 5022TIP3   OH236700   2.823   5.479   7.429 -0.0007 -0.2416 -0.5216
 5022TIP3    H136701   2.916   5.458   7.441  0.2051 -0.5245 -2.2846
 5022TIP3    H236702   2.820   5.531   7.349 -1.4812 -1.3370 -1.2321
 5023TIP3   OH236703   4.667   5.071   2.892  0.1523 -0.4051  0.2451
 5023TIP3    H136704   4.692   4.980   2.909  1.6939  0.0266  0.3522
 5023TIP3    H236705   4.571   5.068   2.889  0.1460 -1.9360  0.7966
 5024TIP3   OH236706   3.459   2.192   0.637  0.4627  0.6038  0.5927
 5024TIP3    H136707   3.525   2.224   0.699  0.0998  2.5846 -0.0009
 5024TIP3    H236708   3.466   2.250   0.561 -1.0974  0.0588 -0.0143
 5025TIP3   OH236709   2.744   4.709   2.076 -0.1461 -0.1868  0.1826
 5025TIP3    H136710   2.710   4.784   2.027 -0.9250  1.1687  2.6161
 5025TIP3    H236711   2.666   4.665   2.110  0.2674 -2.5323 -1.6580
 5026TIP3   OH236712   1.475   5.635   1.436 -0.5426  0.4695  0.4522
 5026TIP3    H136713   1.418   5.690   1.490 -0.6972 -1.3637  2.3096
 5026TIP3    H236714   1.441   5.546   1.449 -0.6420 -0.1029 -2.8187
 5027TIP3   OH236715   6.945   5.816   8.267 -0.3579  0.3405 -0.4274
 5027TIP3    H136716   7.001   5.876   8.316 -0.7503  0.7455 -0.4707
 5027TIP3    H236717   6.958   5.839   8.175 -0.2613  0.1369 -0.4670
 5028TIP3   OH236718   4.054   3.185   3.336 -0.4439  0.2255 -0.9645
 5028TIP3    H136719   3.972   3.231   3.358  0.3637  1.1216  0.3520
 5028TIP3    H236720   4.026   3.100   3.303 -1.8950 -0.0312  0.7760
 5029TIP3   OH236721   0.468   4.850   2.818  0.5214 -0.5250  0.1024
 5029TIP3    H136722   0.409   4.777   2.802  0.7362 -0.8607  0.7807
 5029TIP3    H236723   0.550   4.825   2.776  1.0651 -1.3744  1.6001
 5030TIP3   OH236724   3.877   3.657   2.012  0.1334  0.3621 -0.0601
 5030TIP3    H136725   3.938   3.584   2.005  0.3127  0.2721  1.9973
 5030TIP3    H236726   3.832   3.643   2.096  0.7290  3.0007  0.7746
 5031TIP3   OH236727   2.484   6.492   1.065  0.5619  0.2090  0.2782
 5031TIP3    H136728   2.562   6.534   1.101  0.6312  1.5214 -1.3045
 5031TIP3    H236729   2.431   6.471   1.142  1.8825  0.4699  1.2936
 5032TIP3   OH236730   5.474   0.724   7.375 -0.5061 -0.5365  0.2950
 5032TIP3    H136731   5.493   0.697   7.285 -1.8132 -0.8836  0.1058
 5032TIP3    H236732   5.417   0.656   7.409  0.1139 -0.5023  1.4688
 5033TIP3   OH236733   2.061   2.186   0.133 -0.0022  0.2838 -0.2027
 5033TIP3    H136734   2.041   2.213   0.043  0.4710  0.6247 -0.2101
 5033TIP3    H236735   2.157   2.187   0.138 -0.0223  0.1862  0.2824
 5034TIP3   OH236736   3.675   6.446   8.382  0.4346 -0.5017  0.8617
 5034TIP3    H136737   3.597   6.459   8.436 -1.3835  1.2606 -1.9205
 5034TIP3    H236738   3.641   6.439   8.293  3.2910 -2.6960 -0.2331
 5035TIP3   OH236739   6.857   3.965   8.446  0.8301  0.1868 -0.1008
 5035TIP3    H136740   6.788   3.923   8.496 -0.5006  3.5815  1.2052
 5035TIP3    H236741   6.926   3.898   8.440 -1.9437 -2.8897 -0.3399
 5036TIP3   OH236742   1.156   6.312   0.894  0.3744 -0.4176 -0.3048
 5036TIP3    H136743   1.062   6.328   0.886  0.3675  1.3162  2.1656
 5036TIP3    H236744   1.162   6.232   0.947  0.2796 -0.1794  0.0678
 5037TIP3   OH236745   1.554   4.784   7.656 -0.4091 -0.3294 -0.3978
 5037TIP3    H136746   1.509   4.867   7.639 -1.1190 -1.0513 -2.3731
 5037TIP3    H236747   1.602   4.767   7.575  1.1057 -1.0284  0.6125
 5038TIP3   OH236748   4.946   1.056   0.435  0.1997  0.1218  0.3574
 5038TIP3    H136749   4.952   0.966   0.403 -0.2181  0.2106  0.0057
 5038TIP3    H236750   4.861   1.060   0.480 -0.8489  0.9127 -1.5717
 5039TIP3   OH236751   3.940   3.697   7.604 -0.0610  0.9514  0.1054
 5039TIP3    H136752   3.894   3.661   7.680  0.1286 -0.6638 -0.5212
 5039TIP3    H236753   4.029   3.713   7.636  0.5987 -1.6346 -0.2507
 5040TIP3   OH236754   5.057   3.272   1.051 -0.4164  0.9068  0.1994
 5040TIP3    H136755   5.127   3.324   1.012  0.1024  0.8446  1.0257
 5040TIP3    H236756   5.049   3.305   1.140  0.0008 -0.4980  0.7838
 5041TIP3   OH236757   1.346   0.047   2.322  0.5523  0.2395 -0.4986
 5041TIP3    H136758   1.292   0.014   2.394  1.1537  1.8136  0.7604
 5041TIP3    H236759   1.362   0.139   2.346  1.3785  0.6024 -2.3048
 5042TIP3   OH236760   5.835   5.718   1.257 -0.0175  0.1082 -0.0158
 5042TIP3    H136761   5.829   5.749   1.347  1.6112  0.5331 -0.0247
 5042TIP3    H236762   5.890   5.783   1.213 -1.2154  0.1816 -1.4573
 5043TIP3   OH236763   2.158   3.677   2.230 -0.3682 -0.4883 -0.0602
 5043TIP3    H136764   2.191   3.594   2.266 -0.5072  0.0987  1.5315
 5043TIP3    H236765   2.069   3.684   2.265 -0.6498 -0.0526 -0.8497
 5044TIP3   OH236766   2.654   3.185   0.084  0.2274 -0.0528 -0.2292
 5044TIP3    H136767   2.725   3.149   0.137 -1.6939 -0.1589  2.4971
 5044TIP3    H236768   2.642   3.121   0.014  0.4747 -1.9791  1.3649
 5045TIP3   OH236769   5.811   0.758   0.646  0.1344  0.5425  0.5809
 5045TIP3    H136770   5.835   0.792   0.560  0.4928  0.1038  0.5048
 5045TIP3    H236771   5.888   0.775   0.701  0.8483 -1.3129  0.2145
 5046TIP3   OH236772   5.780   2.572   1.568 -0.3509  0.1918 -0.0973
 5046TIP3    H136773   5.828   2.653   1.581  0.1366 -0.0471 -0.3891
 5046TIP3    H236774   5.815   2.535   1.487 -0.2581 -0.5228  0.2540
 5047TIP3   OH236775   5.748   1.544   7.243 -0.2658 -0.1436 -0.2968
 5047TIP3    H136776   5.715   1.475   7.301 -1.4631 -0.0814 -0.8787
 5047TIP3    H236777   5.687   1.545   7.170  0.9625  0.0986 -1.3534
 5048TIP3   OH236778   0.609   0.938   2.552 -0.1280  0.6298  0.4722
 5048TIP3    H136779   0.519   0.941   2.520 -0.1959  0.3614  0.6326
 5048TIP3    H236780   0.601   0.944   2.647 -0.0257 -0.1013  0.5332
 5049TIP3   OH236781   3.423   3.598   7.295  0.3126 -0.1844 -0.0962
 5049TIP3    H136782   3.457   3.535   7.358 -1.1351 -1.8780 -0.9296
 5049TIP3    H236783   3.443   3.559   7.209  0.2650  0.9809 -0.6572
 5050TIP3   OH236784   0.388   4.188   7.787  0.7375 -0.1682  0.7168
 5050TIP3    H136785   0.471   4.182   7.739  0.9179  2.1103  0.6302
 5050TIP3    H236786   0.413   4.219   7.874  0.2143 -2.3501  1.7035
 5051TIP3   OH236787   1.306   6.067   2.666 -0.2350 -0.0515 -0.1825
 5051TIP3    H136788   1.317   6.162   2.675 -0.4953 -0.1976  2.4419
 5051TIP3    H236789   1.387   6.030   2.700 -0.0246 -0.8213 -1.4259
 5052TIP3   OH236790   4.125   0.647   7.218  0.3781  0.0344  0.0293
 5052TIP3    H136791   4.123   0.698   7.137  0.1072  2.6289  1.5428
 5052TIP3    H236792   4.212   0.664   7.255  1.0052 -2.2012 -0.3037
 5053TIP3   OH236793   4.944   2.266   1.345  0.0920 -0.5916 -0.0594
 5053TIP3    H136794   5.004   2.340   1.352  0.6636 -0.8770 -1.5842
 5053TIP3    H236795   4.998   2.189   1.367  0.5149 -0.9218 -2.1007
 5054TIP3   OH236796   6.849   3.473   3.285 -0.2087  0.0113 -0.2429
 5054TIP3    H136797   6.759   3.491   3.311 -0.0325 -0.5175  0.7706
 5054TIP3    H236798   6.889   3.433   3.362  0.1075 -2.4328 -1.5742
 5055TIP3   OH236799   1.508   1.195   1.023  0.2888 -0.1498  0.1426
 5055TIP3    H136800   1.435   1.245   1.059 -1.1796 -1.6766 -0.5617
 5055TIP3    H236801   1.524   1.126   1.087  1.2052  0.2119  0.3257
 5056TIP3   OH236802   1.054   0.178   2.985  0.0590  0.0902 -0.3071
 5056TIP3    H136803   1.060   0.086   2.959  1.3807  0.4682 -1.4695
 5056TIP3    H236804   1.145   0.204   3.001 -0.4246  0.7955  1.5390
 5057TIP3   OH236805   2.784   4.378   8.449  0.4503  0.2070  0.3925
 5057TIP3    H136806   2.756   4.446   8.509  0.6435 -0.5761  1.3956
 5057TIP3    H236807   2.820   4.425   8.374  1.7850  1.2189  1.6193
 5058TIP3   OH236808   5.304   1.223   1.764 -0.1714  0.6617  0.0487
 5058TIP3    H136809   5.355   1.250   1.687  0.9474  1.5754  1.0734
 5058TIP3    H236810   5.235   1.289   1.771  1.0575  1.8928  1.0831
 5059TIP3   OH236811   2.160   1.181   7.948  0.0546 -0.1305  0.2281
 5059TIP3    H136812   2.178   1.215   7.860  0.9226 -2.5287 -0.6159
 5059TIP3    H236813   2.099   1.109   7.933  2.1672 -2.2423  1.2088
 5060TIP3   OH236814   0.464   2.006   3.366  0.3776 -0.3655 -0.5965
 5060TIP3    H136815   0.550   2.025   3.328 -0.3504  1.4055 -1.4553
 5060TIP3    H236816   0.484   1.973   3.454  1.9229  0.7548 -0.4832
 5061TIP3   OH236817   5.095   4.816   0.085  0.0612 -0.2716  0.0153
 5061TIP3    H136818   5.136   4.826   0.171 -1.2535 -0.9324  0.7387
 5061TIP3    H236819   5.143   4.744   0.044 -1.1199 -1.8804  1.3471
 5062TIP3   OH236820   4.586   6.966   0.236  0.2725 -0.2030 -0.1065
 5062TIP3    H136821   4.510   6.914   0.261 -0.8445  0.0786 -2.6056
 5062TIP3    H236822   4.637   6.909   0.180  0.1255  0.6705 -1.1668
 5063TIP3   OH236823   4.778   5.313   2.204  0.8054  0.6405  0.4278
 5063TIP3    H136824   4.816   5.339   2.288  3.5511 -0.5500 -0.3193
 5063TIP3    H236825   4.797   5.386   2.144  1.7873  0.1236  0.0959
 5064TIP3   OH236826   2.380   6.798   0.113 -0.7163 -0.3195  0.2206
 5064TIP3    H136827   2.322   6.839   0.177 -1.8566  0.1495 -1.0650
 5064TIP3    H236828   2.327   6.729   0.073  0.8794 -2.5602  1.7266
 5065TIP3   OH236829   2.103   1.367   8.169  0.1464 -0.9000 -0.2810
 5065TIP3    H136830   2.166   1.322   8.113  0.9223  1.0564 -1.0683
 5065TIP3    H236831   2.148   1.376   8.253  0.0482 -1.4455 -0.1693
 5066TIP3   OH236832   4.188   0.366   0.967 -0.1767  0.5191 -0.5378
 5066TIP3    H136833   4.243   0.381   0.890 -0.7503  0.1330 -1.0218
 5066TIP3    H236834   4.104   0.404   0.945 -0.6541 -0.4752 -0.5069
 5067TIP3   OH236835   5.309   2.000   7.531 -0.2174  0.2306  0.7182
 5067TIP3    H136836   5.336   2.090   7.513 -0.8220 -0.2218 -3.7593
 5067TIP3    H236837   5.226   2.009   7.577 -0.0399  1.9598  0.7668
 5068TIP3   OH236838   5.477   0.660   8.022 -0.2613 -0.8453  0.2527
 5068TIP3    H136839   5.416   0.608   8.074 -0.8340 -0.2909  0.1538
 5068TIP3    H236840   5.487   0.741   8.072 -0.3362 -0.5533 -0.2014
 5069TIP3   OH236841   3.428   6.714   6.659 -0.2952  0.6104 -0.5664
 5069TIP3    H136842   3.425   6.661   6.738 -2.4493 -1.6967 -2.0397
 5069TIP3    H236843   3.521   6.712   6.633  0.1758  0.1292  1.0276
 5070TIP3   OH236844   6.254   6.722   1.266 -0.6053 -0.0786  0.0621
 5070TIP3    H136845   6.280   6.649   1.323 -0.1541  0.4024  0.4818
 5070TIP3    H236846   6.207   6.680   1.194 -0.1619 -0.8106  0.1845
 5071TIP3   OH236847   6.885   1.821   7.289  0.0118  0.5536  0.5251
 5071TIP3    H136848   6.935   1.893   7.249  2.4899 -0.7291  1.1156
 5071TIP3    H236849   6.846   1.774   7.215  0.1365  1.2588  0.0034
 5072TIP3   OH236850   5.285   4.048   7.296  0.2573  0.2833  0.2767
 5072TIP3    H136851   5.368   4.002   7.299  0.1996  0.1735  0.1860
 5072TIP3    H236852   5.308   4.140   7.309  0.6344  0.5418 -1.7833
 5073TIP3   OH236853   2.055   2.489   0.649  0.0988 -0.0743  0.0191
 5073TIP3    H136854   2.077   2.561   0.707 -1.1425  0.1711  0.2098
 5073TIP3    H236855   2.140   2.455   0.619  0.7251  2.3125 -1.1533
 5074TIP3   OH236856   2.547   5.180   2.609 -0.3600 -0.3349 -0.1155
 5074TIP3    H136857   2.612   5.222   2.554 -0.2277 -0.2622  0.0942
 5074TIP3    H236858   2.594   5.159   2.690 -0.7347  0.2051  0.2440
 5075TIP3   OH236859   3.537   3.841   7.246  0.8832 -0.3925  0.4524
 5075TIP3    H136860   3.613   3.819   7.299  0.6909 -1.6052  0.2635
 5075TIP3    H236861   3.497   3.756   7.225 -0.0572  0.1707 -0.1253
 5076TIP3   OH236862   5.906   6.565   0.059 -0.0594 -0.1553  0.1403
 5076TIP3    H136863   5.875   6.583   0.147  1.5782 -0.0084  0.7198
 5076TIP3    H236864   5.827   6.570   0.004 -1.1244 -0.4061  1.5951
 5077TIP3   OH236865   6.097   2.882   8.182  0.2339 -0.2816  0.6583
 5077TIP3    H136866   6.173   2.898   8.126 -1.2531 -1.1984 -1.7964
 5077TIP3    H236867   6.079   2.789   8.172 -2.8778  0.3890 -1.2556
 5078TIP3   OH236868   0.435   4.994   0.150  0.0562  0.1564 -0.5253
 5078TIP3    H136869   0.496   4.948   0.208  1.4245  0.9615 -1.2704
 5078TIP3    H236870   0.409   4.928   0.086  0.2987 -0.1521 -0.3118
 5079TIP3   OH236871   1.371   3.484   8.194  0.3647  0.2358 -0.1292
 5079TIP3    H136872   1.344   3.552   8.131  0.9829  0.2993 -0.3325
 5079TIP3    H236873   1.413   3.417   8.140 -1.9557 -1.2757 -0.2000
 5080TIP3   OH236874   1.466   6.810   6.666 -0.2095 -0.1876 -0.4731
 5080TIP3    H136875   1.435   6.888   6.620  0.5116  0.2233 -0.2690
 5080TIP3    H236876   1.467   6.836   6.758 -0.8793 -0.7523 -0.2954
 5081TIP3   OH236877   3.088   5.385   7.474 -0.1259 -0.0575  0.2328
 5081TIP3    H136878   3.085   5.304   7.423 -1.1652  1.0221 -1.5185
 5081TIP3    H236879   3.181   5.402   7.487  0.1181 -1.0748 -0.1019
 5082TIP3   OH236880   0.293   3.449   7.521  1.0671 -0.2446  0.1184
 5082TIP3    H136881   0.215   3.505   7.510  0.1239 -1.6098 -0.4182
 5082TIP3    H236882   0.362   3.510   7.549 -0.1255  1.0490  0.4015
 5083TIP3   OH236883   2.082   1.303   0.959  0.6281  0.3568  0.1888
 5083TIP3    H136884   2.162   1.292   1.010  0.4210  0.0117  0.4336
 5083TIP3    H236885   2.090   1.392   0.922  0.7634  0.6149  0.8319
 5084TIP3   OH236886   2.306   5.801   7.052  0.2835 -0.1630 -0.4640
 5084TIP3    H136887   2.258   5.872   7.009  0.0506  0.5509  0.9118
 5084TIP3    H236888   2.392   5.801   7.011 -0.5829 -0.9039 -2.3784
 5085TIP3   OH236889   0.394   5.284   1.015 -0.0385  0.3169  0.1819
 5085TIP3    H136890   0.403   5.362   1.070  1.8024  1.6117 -1.7865
 5085TIP3    H236891   0.395   5.318   0.925 -2.1117 -1.7569 -0.7441
 5086TIP3   OH236892   2.670   2.741   8.425  0.2815 -0.7350  0.0303
 5086TIP3    H136893   2.700   2.655   8.454 -0.6759 -0.8005  0.8575
 5086TIP3    H236894   2.740   2.773   8.368  1.2507 -1.4871  0.7812
 5087TIP3   OH236895   2.216   5.425   2.108 -0.2501 -0.3141  0.1655
 5087TIP3    H136896   2.270   5.424   2.187  1.5226 -0.9081 -1.0008
 5087TIP3    H236897   2.168   5.508   2.113  1.2865  0.5684  0.9219
 5088TIP3   OH236898   2.587   4.257   7.921 -0.0132  0.6861  0.2580
 5088TIP3    H136899   2.629   4.295   7.998  0.3916 -0.1096  0.4341
 5088TIP3    H236900   2.599   4.322   7.852  0.1952  1.1135  0.6964
 5089TIP3   OH236901   4.979   3.661   1.980  0.4717  0.7047 -0.0703
 5089TIP3    H136902   4.901   3.704   1.945  1.4977  2.4018 -0.3523
 5089TIP3    H236903   5.019   3.618   1.905 -0.0379  0.0419  0.0279
 5090TIP3   OH236904   3.641   0.203   0.700 -0.1752  0.3622  0.1904
 5090TIP3    H136905   3.591   0.127   0.671 -0.4228  1.1954 -1.6943
 5090TIP3    H236906   3.613   0.217   0.791 -0.3904 -1.5382  0.4581
 5091TIP3   OH236907   6.707   1.358   1.133  0.5460 -0.2455  0.5567
 5091TIP3    H136908   6.791   1.375   1.090  0.6142  0.9821  1.1538
 5091TIP3    H236909   6.680   1.442   1.169 -1.4611 -0.3589 -0.4911
 5092TIP3   OH236910   6.326   5.389   1.917 -0.2766  0.1260 -0.2956
 5092TIP3    H136911   6.238   5.362   1.891  0.2352 -0.0416 -2.0167
 5092TIP3    H236912   6.330   5.482   1.892  0.3679 -0.1438 -1.2732
 5093TIP3   OH236913   2.730   6.461   0.402 -0.3146 -0.7013  0.5044
 5093TIP3    H136914   2.703   6.400   0.332 -0.8560  0.9577 -0.7977
 5093TIP3    H236915   2.757   6.540   0.355  3.4683 -0.9538  1.9345
 5094TIP3   OH236916   6.475   0.744   0.211  0.0743  0.0813  0.1937
 5094TIP3    H136917   6.558   0.776   0.245  1.8666 -1.5320 -2.3502
 5094TIP3    H236918   6.412   0.814   0.230  1.8759  1.1698  2.5412
 5095TIP3   OH236919   1.835   2.490   0.811 -0.1848 -0.0548 -0.1600
 5095TIP3    H136920   1.844   2.449   0.897 -0.5525  0.3612  0.0857
 5095TIP3    H236921   1.909   2.458   0.761  0.6113  0.4669  0.6349
 5096TIP3   OH236922   0.130   1.140   3.060  0.0116 -0.2258  0.5675
 5096TIP3    H136923   0.213   1.107   3.025  1.4585  1.5469  2.0664
 5096TIP3    H236924   0.104   1.209   3.000 -1.0720 -1.5440 -0.5503
 5097TIP3   OH236925   1.875   6.950   1.165 -0.5114 -0.5127  0.0334
 5097TIP3    H136926   1.827   7.018   1.212 -0.2281  0.4861 -1.0583
 5097TIP3    H236927   1.809   6.911   1.107 -0.6050 -0.9777  0.4469
 5098TIP3   OH236928   0.644   0.544   0.175  0.4995  0.1270  0.2470
 5098TIP3    H136929   0.592   0.490   0.234 -0.2029  0.2216 -0.2820
 5098TIP3    H236930   0.641   0.498   0.091  0.3721  0.6929 -0.0603
 5099TIP3   OH236931   3.560   5.966   2.417  0.2130 -0.1097  0.0339
 5099TIP3    H136932   3.467   5.980   2.435  0.6773  0.1654  2.5268
 5099TIP3    H236933   3.604   6.044   2.452  1.4816 -0.6429 -0.2909
 5100TIP3   OH236934   2.921   4.803   2.307 -0.0544  0.6077 -0.1907
 5100TIP3    H136935   2.884   4.735   2.251  1.2118 -0.4267  0.1675
 5100TIP3    H236936   2.868   4.800   2.387 -0.3253  0.3793 -0.3767
 5101TIP3   OH236937   4.477   0.357   1.988  0.6104  0.4881 -0.3853
 5101TIP3    H136938   4.494   0.266   2.012  1.3321  1.0297  1.3011
 5101TIP3    H236939   4.394   0.379   2.032  0.5476  0.7081 -0.6101
 5102TIP3   OH236940   1.272   4.628   0.422 -0.1250 -0.3924 -0.1279
 5102TIP3    H136941   1.186   4.663   0.398 -0.9627 -1.3405  1.3142
 5102TIP3    H236942   1.299   4.680   0.497  0.8196  0.2269 -0.8780
 5103TIP3   OH236943   1.248   4.863   8.131 -0.1368 -0.1323  0.3108
 5103TIP3    H136944   1.270   4.954   8.148  1.1308 -0.6475  1.6383
 5103TIP3    H236945   1.298   4.840   8.053 -1.7798  0.7338 -1.0737
 5104TIP3   OH236946   1.058   1.450   7.450 -0.1744  0.0423 -0.4131
 5104TIP3    H136947   1.093   1.514   7.388 -0.9930  0.0811 -0.8463
 5104TIP3    H236948   1.037   1.373   7.396  0.7606 -0.5904  0.0956
 5105TIP3   OH236949   2.894   1.082   2.065 -0.4700  0.0105  0.1611
 5105TIP3    H136950   2.896   1.175   2.040  1.2203 -0.2268 -0.7537
 5105TIP3    H236951   2.836   1.041   2.002  0.6969  0.0732 -0.9937
 5106TIP3   OH236952   0.001   2.484   0.567 -0.3884  0.3519 -0.3450
 5106TIP3    H136953  -0.052   2.563   0.556 -2.6873 -1.2562 -1.5782
 5106TIP3    H236954  -0.003   2.440   0.481 -0.5286 -1.8697  0.7284
 5107TIP3   OH236955   5.062   4.110   6.943 -0.2366  0.0145  0.4013
 5107TIP3    H136956   5.083   4.045   7.010  1.0194  1.7651  1.8228
 5107TIP3    H236957   4.966   4.108   6.937 -0.3179 -0.7559  1.6673
 5108TIP3   OH236958   5.664   4.872   1.199  0.1984 -0.3823 -0.3198
 5108TIP3    H136959   5.651   4.795   1.255  3.2663 -1.0415 -0.3733
 5108TIP3    H236960   5.658   4.946   1.259  3.2370 -1.0676  1.0155
 5109TIP3   OH236961   4.021   5.263   7.524  0.8010 -0.0722 -0.3431
 5109TIP3    H136962   3.953   5.275   7.458 -1.4893 -2.7825  1.2877
 5109TIP3    H236963   3.996   5.323   7.595  0.3343 -0.7107  0.0484
 5110TIP3   OH236964   6.795   6.401   8.100  0.1172  0.5929 -0.0062
 5110TIP3    H136965   6.742   6.325   8.074  0.4767  0.5472 -0.6076
 5110TIP3    H236966   6.878   6.363   8.129  0.0205  0.7047  0.4291
 5111TIP3   OH236967   4.964   0.141   2.494  0.2909 -0.2095  0.0482
 5111TIP3    H136968   4.952   0.152   2.588 -0.6812 -0.8604  0.0179
 5111TIP3    H236969   4.913   0.212   2.454  2.4741  1.4233  0.0202
 5112TIP3   OH236970   4.527   4.771   2.310  0.0857 -0.2645 -0.2994
 5112TIP3    H136971   4.543   4.858   2.272 -0.0657  0.1378  0.5443
 5112TIP3    H236972   4.569   4.711   2.248 -2.5887  0.0896 -2.6980
 5113TIP3   OH236973   2.530   5.204   1.368 -0.2918 -0.3603  0.1951
 5113TIP3    H136974   2.531   5.300   1.373  0.0388 -0.3490 -0.0925
 5113TIP3    H236975   2.609   5.177   1.414  0.1969 -0.4490 -0.6799
 5114TIP3   OH236976   5.533   3.740   2.104 -0.6515 -0.4181 -0.2623
 5114TIP3    H136977   5.590   3.791   2.046 -2.2506  2.1264  0.2858
 5114TIP3    H236978   5.578   3.656   2.113  1.7075  0.5693 -1.8654
 5115TIP3   OH236979   0.842   2.578   0.243 -0.7634  0.1326 -0.6228
 5115TIP3    H136980   0.924   2.621   0.265 -1.0316 -0.2981  1.4308
 5115TIP3    H236981   0.861   2.530   0.162  1.5684 -1.3763  0.6926
 5116TIP3   OH236982   4.028   2.602   2.664 -0.7692 -0.0788  0.2792
 5116TIP3    H136983   4.058   2.688   2.693  2.5565 -0.4326 -1.6086
 5116TIP3    H236984   3.940   2.618   2.629  0.2196  2.8769 -1.2080
 5117TIP3   OH236985   3.788   2.284   2.133  0.5351 -0.3595  0.2233
 5117TIP3    H136986   3.813   2.337   2.057  1.8048  0.3439  1.0880
 5117TIP3    H236987   3.713   2.234   2.103  2.3629 -1.8510 -2.2571
 5118TIP3   OH236988   4.583   3.276   1.935  0.2683  0.0756  0.5464
 5118TIP3    H136989   4.657   3.312   1.983 -1.5686  0.1403  3.5398
 5118TIP3    H236990   4.591   3.314   1.847  2.8980  1.2425  1.1966
 5119TIP3   OH236991   3.632   1.474   2.178 -0.2956  0.0410 -0.2913
 5119TIP3    H136992   3.711   1.517   2.144 -0.8110  0.6216 -0.7679
 5119TIP3    H236993   3.653   1.454   2.269  0.4322  0.1193 -0.4354
 5120TIP3   OH236994   3.566   4.783   8.119 -0.2612  0.0893  0.7971
 5120TIP3    H136995   3.508   4.805   8.046 -0.1982 -0.1642  0.6709
 5120TIP3    H236996   3.654   4.788   8.082 -0.1440  1.1971  1.1677
 5121TIP3   OH236997   3.239   4.472   0.877 -0.0310  0.1574  0.2313
 5121TIP3    H136998   3.245   4.500   0.968 -0.2605 -0.2171  0.3684
 5121TIP3    H236999   3.322   4.497   0.838  0.8226 -1.3175  1.0121
 5122TIP3   OH237000   2.213   5.870   0.522  0.0808  0.2772  0.2481
 5122TIP3    H137001   2.271   5.908   0.457 -0.8974  2.9247  0.7646
 5122TIP3    H237002   2.249   5.784   0.541  1.9765  0.5786 -1.7134
 5123TIP3   OH237003   4.146   6.135   7.353 -1.0017 -0.0065  0.7381
 5123TIP3    H137004   4.132   6.227   7.331 -0.8920 -0.3120 -0.7117
 5123TIP3    H237005   4.154   6.133   7.449  0.5970  1.7066  0.6884
 5124TIP3   OH237006   6.781   5.132   0.170 -0.0622  0.1633 -0.1928
 5124TIP3    H137007   6.762   5.049   0.214 -0.2069  0.3928  0.1848
 5124TIP3    H237008   6.712   5.192   0.199 -0.0650  0.3683 -0.6061
 5125TIP3   OH237009   2.865   6.387   2.600 -0.4221  0.2064  0.1801
 5125TIP3    H137010   2.922   6.357   2.530  1.8395  0.5891  1.7579
 5125TIP3    H237011   2.812   6.456   2.560 -0.4075 -0.7457 -1.5527
 5126TIP3   OH237012   5.383   5.711   7.960 -0.3228 -0.4244 -0.4670
 5126TIP3    H137013   5.478   5.700   7.960 -0.1944  0.4041  0.8575
 5126TIP3    H237014   5.348   5.623   7.973  0.3323 -0.5546  0.5208
 5127TIP3   OH237015   1.178   6.469   1.480 -0.3359  0.4319  0.7262
 5127TIP3    H137016   1.089   6.451   1.512 -0.5464  0.6931  0.2878
 5127TIP3    H237017   1.176   6.447   1.387  0.1762  0.0424  0.8022
 5128TIP3   OH237018   3.666   5.996   1.488  0.5729 -0.3557 -0.3361
 5128TIP3    H137019   3.761   5.992   1.475  0.7768 -0.0624  0.9436
 5128TIP3    H237020   3.650   6.085   1.517  0.0810 -0.7572  0.6687
 5129TIP3   OH237021   2.632   4.405   0.380  0.1813  0.1415  0.2416
 5129TIP3    H137022   2.614   4.355   0.459 -0.8760  1.3765  0.8208
 5129TIP3    H237023   2.727   4.395   0.366  0.1849 -1.0343  0.9796
 5130TIP3   OH237024   4.732   4.345   0.608 -0.1642 -0.2692 -0.3214
 5130TIP3    H137025   4.716   4.375   0.518 -2.6235  1.0888  0.4988
 5130TIP3    H237026   4.733   4.424   0.660  2.5350 -0.9201  0.7771
 5131TIP3   OH237027   1.650   5.591   1.801 -0.0699  0.1012  0.6619
 5131TIP3    H137028   1.690   5.604   1.887  0.8414 -1.6229  0.5394
 5131TIP3    H237029   1.652   5.496   1.788 -1.7598  0.1905 -0.5359
 5132TIP3   OH237030   0.031   1.322   2.887 -0.5056 -0.7644 -0.1161
 5132TIP3    H137031  -0.041   1.298   2.830 -0.2514  0.6528 -1.0760
 5132TIP3    H237032   0.019   1.415   2.904  0.4237 -0.7715  0.6984
 5133TIP3   OH237033   5.335   5.317   1.388  0.4613  0.5470 -0.3657
 5133TIP3    H137034   5.308   5.396   1.435  0.3552  0.9583 -1.1068
 5133TIP3    H237035   5.386   5.268   1.452 -1.1965  0.2193  0.7546
 5134TIP3   OH237036   5.329   5.492   0.166 -0.6005  0.1163  0.5039
 5134TIP3    H137037   5.296   5.566   0.115  1.2940  0.6759  0.0136
 5134TIP3    H237038   5.407   5.463   0.118 -1.5295 -2.5273  0.4301
 5135TIP3   OH237039   5.150   6.626   7.291 -0.3734 -0.5153 -0.6481
 5135TIP3    H137040   5.099   6.601   7.368  1.9506  0.5293  1.3679
 5135TIP3    H237041   5.217   6.558   7.284  0.9870  0.7104 -0.1200
 5136TIP3   OH237042   3.755   5.540   7.855  0.0377 -0.2511 -0.0739
 5136TIP3    H137043   3.722   5.465   7.903 -1.6601  1.1044  1.0033
 5136TIP3    H237044   3.826   5.574   7.909  0.5132 -0.7886 -0.3456
 5137TIP3   OH237045   3.721   2.668   7.654 -0.7802 -0.8113 -0.1047
 5137TIP3    H137046   3.799   2.623   7.620  0.1373 -0.4341  1.4199
 5137TIP3    H237047   3.656   2.598   7.664 -0.6210 -1.1517 -1.2888
 5138TIP3   OH237048   4.014   2.428   0.333 -0.0357  0.0714  0.2169
 5138TIP3    H137049   4.068   2.352   0.310 -0.9493 -0.3812 -0.4510
 5138TIP3    H237050   4.047   2.499   0.277 -0.0709 -0.1774 -0.1183
 5139TIP3   OH237051   3.387   6.206   3.097 -0.0103  0.3158 -0.5939
 5139TIP3    H137052   3.356   6.183   3.010 -0.4285  0.4638 -0.4850
 5139TIP3    H237053   3.377   6.301   3.102 -1.6579  0.1306  0.2459
 5140TIP3   OH237054   2.949   4.625   0.529 -0.0726 -0.1518 -0.3751
 5140TIP3    H137055   2.854   4.615   0.532  0.1372 -2.9124  0.0955
 5140TIP3    H237056   2.972   4.663   0.614 -0.6432 -1.2979  0.3170
 5141TIP3   OH237057   4.914   2.361   8.204 -0.0715 -0.6528  0.1562
 5141TIP3    H137058   4.913   2.403   8.118  0.4343  0.6630  0.7569
 5141TIP3    H237059   4.950   2.274   8.188 -1.6374 -1.0924 -1.2171
 5142TIP3   OH237060   3.661   0.893   7.341  0.0652  0.2313  0.1232
 5142TIP3    H137061   3.630   0.859   7.425 -0.2558 -1.8241 -0.7813
 5142TIP3    H237062   3.756   0.884   7.345  0.2582  2.1372  1.0461
 5143TIP3   OH237063   4.118   5.595   2.956 -0.6503  0.5142 -0.8540
 5143TIP3    H137064   4.128   5.516   3.009 -0.6157  1.2911  0.3451
 5143TIP3    H237065   4.036   5.634   2.987 -0.6248  0.9865 -1.3766
 5144TIP3   OH237066   4.920   0.623   7.182  0.0927  0.0598 -0.7478
 5144TIP3    H137067   4.960   0.541   7.155  0.9235  0.7762 -1.7521
 5144TIP3    H237068   4.831   0.599   7.208  0.7254 -1.3470  0.2426
 5145TIP3   OH237069   1.290   3.919   8.233 -1.0256 -0.2569 -0.1684
 5145TIP3    H137070   1.384   3.912   8.220 -0.6098  0.2289  2.1205
 5145TIP3    H237071   1.256   3.831   8.218 -0.1743 -0.5147 -0.6310
 5146TIP3   OH237072   0.032   2.504   1.073  0.3681  0.0444  0.2092
 5146TIP3    H137073   0.025   2.470   0.984  0.3342  2.4182 -0.7854
 5146TIP3    H237074   0.118   2.476   1.103  0.8399  0.1259 -1.0090
 5147TIP3   OH237075   3.450   2.905   7.435  0.4555  0.4006 -0.0734
 5147TIP3    H137076   3.373   2.947   7.474  0.7700  0.9264  0.0038
 5147TIP3    H237077   3.450   2.816   7.470  0.4826  0.7284  0.7830
 5148TIP3   OH237078   1.555   0.718   1.780  0.0011 -0.4218 -0.6063
 5148TIP3    H137079   1.566   0.753   1.869  1.3448 -1.1659 -0.4481
 5148TIP3    H237080   1.489   0.650   1.790 -0.5393  0.1314 -0.3617
 5149TIP3   OH237081   1.766   3.698   1.348  0.0165  0.0300  0.7166
 5149TIP3    H137082   1.742   3.714   1.256 -0.2113 -1.8529  0.3968
 5149TIP3    H237083   1.682   3.693   1.394  0.1396  1.2026  1.0877
 5150TIP3   OH237084   6.978   1.564   0.165 -0.3295  0.1672 -0.3356
 5150TIP3    H137085   6.944   1.517   0.088 -0.0601 -1.3728  0.4469
 5150TIP3    H237086   6.912   1.630   0.184 -1.9686 -1.4670 -0.0490
 5151TIP3   OH237087   0.839   1.201   7.255  0.2949  0.1851 -0.0831
 5151TIP3    H137088   0.829   1.141   7.181  2.1893 -0.3520  0.0453
 5151TIP3    H237089   0.881   1.278   7.218  1.0610 -0.0002  0.3784
 5152TIP3   OH237090   3.879   3.894   7.182 -0.3604 -0.0004  0.3506
 5152TIP3    H137091   3.901   3.889   7.275 -0.3829  1.0185  0.4206
 5152TIP3    H237092   3.799   3.842   7.174 -1.5493  1.5922  1.3106
 5153TIP3   OH237093   3.522   1.438   7.451  0.6387  0.0755  0.5183
 5153TIP3    H137094   3.535   1.517   7.399  1.2619 -0.1584  0.3112
 5153TIP3    H237095   3.464   1.465   7.522 -2.3486 -0.2097 -1.6748
 5154TIP3   OH237096   4.754   1.158   1.829  0.1524 -0.0907 -0.2265
 5154TIP3    H137097   4.719   1.101   1.760 -0.3552  0.2374 -0.2475
 5154TIP3    H237098   4.718   1.244   1.809 -2.9978 -0.5876  2.4055
 5155TIP3   OH237099   3.449   1.081   7.941 -0.3665  0.4145  0.0950
 5155TIP3    H137100   3.437   0.986   7.934 -0.6335  0.3578  1.1849
 5155TIP3    H237101   3.534   1.091   7.985 -1.3080  0.6182  1.9431
 5156TIP3   OH237102   2.348   1.123   0.472  0.2606  0.0113  0.1113
 5156TIP3    H137103   2.371   1.101   0.562  1.0191 -0.5370 -0.2156
 5156TIP3    H237104   2.360   1.042   0.422  1.2624  0.6626 -0.7541
 5157TIP3   OH237105   4.520   1.875   0.993  1.0431 -0.0059  0.5251
 5157TIP3    H137106   4.462   1.940   0.955  1.0016 -1.0866 -1.3877
 5157TIP3    H237107   4.600   1.923   1.014  0.8555  0.7546 -0.4533
 5158TIP3   OH237108   0.936   2.138   7.612 -0.6823  0.0712  0.0432
 5158TIP3    H137109   0.962   2.123   7.703 -1.9959 -1.7983  0.1673
 5158TIP3    H237110   0.975   2.223   7.590  0.5002  0.1112  2.0119
 5159TIP3   OH237111   6.053   0.074   8.459  0.9385 -0.1232  0.6786
 5159TIP3    H137112   6.125   0.017   8.435  2.0447  1.8959 -1.1204
 5159TIP3    H237113   6.091   0.162   8.462 -1.5141  1.1093 -0.9371
 5160TIP3   OH237114   5.164   4.159   1.316  0.6241 -0.3880 -0.3040
 5160TIP3    H137115   5.072   4.184   1.317  0.6573 -0.1625 -1.1526
 5160TIP3    H237116   5.165   4.066   1.336  0.3055 -0.1642  0.7726
 5161TIP3   OH237117   2.549   1.912   1.011 -0.2477 -0.7251  0.3246
 5161TIP3    H137118   2.578   1.820   1.009  0.7963 -0.4370  1.2986
 5161TIP3    H237119   2.545   1.938   0.919  1.3987 -1.1651  0.1009
 5162TIP3   OH237120   6.257   4.503   2.961  0.1082  0.1525  0.4774
 5162TIP3    H137121   6.351   4.503   2.977  0.2229  0.5781 -0.1469
 5162TIP3    H237122   6.219   4.541   3.040  0.4599 -0.0369  0.7384
 5163TIP3   OH237123   1.246   0.332   0.209  0.1860  0.1170 -0.2884
 5163TIP3    H137124   1.217   0.404   0.264  0.7997 -0.1866  0.4413
 5163TIP3    H237125   1.296   0.275   0.268  1.0616 -0.0900 -1.2089
 5164TIP3   OH237126   4.471   2.957   0.262 -0.1161 -0.5900  0.4044
 5164TIP3    H137127   4.508   3.045   0.271  0.7790 -1.0114  1.0050
 5164TIP3    H237128   4.394   2.957   0.318  1.4600 -1.0209  2.6885
 5165TIP3   OH237129   1.263   6.914   6.929 -0.5078  0.6206  0.5881
 5165TIP3    H137130   1.172   6.917   6.901  0.0232 -0.6283 -1.5671
 5165TIP3    H237131   1.271   6.831   6.976  0.1843 -1.1532 -2.3737
 5166TIP3   OH237132   5.754   1.209   8.247 -0.0513 -0.2456  0.0604
 5166TIP3    H137133   5.667   1.196   8.286  0.6885 -0.6162  1.6231
 5166TIP3    H237134   5.755   1.302   8.223 -0.8730 -0.2405 -0.0050
 5167TIP3   OH237135   6.022   1.420   1.625 -0.3971  0.8480 -0.0884
 5167TIP3    H137136   6.111   1.385   1.626 -0.3200  1.0602  1.4546
 5167TIP3    H237137   5.983   1.382   1.546  0.8982  0.3764 -0.5280
 5168TIP3   OH237138   1.589   4.402   0.184  0.5721  0.2000 -0.4016
 5168TIP3    H137139   1.555   4.368   0.267 -0.8830  2.3123 -0.0610
 5168TIP3    H237140   1.662   4.344   0.162  1.4764  0.0131  2.7189
 5169TIP3   OH237141   3.209   1.786   2.079 -0.2513  0.3651  0.8123
 5169TIP3    H137142   3.302   1.770   2.097  0.2199  1.8765 -0.1300
 5169TIP3    H237143   3.180   1.707   2.033  0.6616  0.0379  0.7778
 5170TIP3   OH237144   4.939   2.155   1.791 -0.5088 -0.3350  0.5395
 5170TIP3    H137145   4.965   2.244   1.817  0.6378 -0.6568  0.5245
 5170TIP3    H237146   4.881   2.169   1.716 -3.0108  0.5531  2.4729
 5171TIP3   OH237147   5.960   0.341   7.857 -0.5344 -0.3675  0.5959
 5171TIP3    H137148   5.952   0.272   7.923  2.8231  0.0426  1.6189
 5171TIP3    H237149   6.052   0.365   7.858 -0.1570 -0.5452 -4.6055
 5172TIP3   OH237150   1.086   3.563   8.385  0.6391 -0.6955  0.0984
 5172TIP3    H137151   1.019   3.613   8.338 -0.3007 -0.5797  1.4948
 5172TIP3    H237152   1.132   3.514   8.317  0.8572  1.2009 -1.1997
 5173TIP3   OH237153   6.546   4.368   7.884  0.1178  0.7901  0.3345
 5173TIP3    H137154   6.466   4.355   7.833 -1.3700  1.3079  2.4016
 5173TIP3    H237155   6.529   4.447   7.935  1.3195  0.0588  1.9433
 5174TIP3   OH237156   5.131   4.122   2.192  0.6235 -0.5913 -0.0242
 5174TIP3    H137157   5.125   4.185   2.264 -0.0311  0.7079 -1.1598
 5174TIP3    H237158   5.215   4.142   2.150 -0.4971  1.0278 -1.6505
 5175TIP3   OH237159   3.774   4.157   2.674 -0.4219 -0.3994 -0.4473
 5175TIP3    H137160   3.753   4.215   2.601  3.4560  1.2768 -0.4515
 5175TIP3    H237161   3.752   4.069   2.642 -2.4050  0.6098 -2.0727
 5176TIP3   OH237162   5.707   1.442   8.453  0.0282  0.3439  0.1883
 5176TIP3    H137163   5.681   1.354   8.482 -0.8139  0.5485  0.0822
 5176TIP3    H237164   5.662   1.455   8.370  1.3908  0.2814 -0.5781
 5177TIP3   OH237165   5.114   2.893   0.290 -0.2462  0.4288 -0.9633
 5177TIP3    H137166   5.049   2.865   0.225 -0.7325 -0.7176 -0.0114
 5177TIP3    H237167   5.069   2.962   0.339 -0.1558  0.7598 -1.3429
 5178TIP3   OH237168   0.921   6.407   0.557 -0.4323  0.6651  0.3824
 5178TIP3    H137169   0.872   6.489   0.566 -0.4583  0.7992 -0.7841
 5178TIP3    H237170   1.012   6.432   0.575 -0.3260  1.1385 -0.7088
 5179TIP3   OH237171   3.252   2.421   0.088  0.0410 -0.1650  0.5106
 5179TIP3    H137172   3.216   2.351   0.144  3.0168 -1.5672  0.8838
 5179TIP3    H237173   3.315   2.466   0.145  1.1808  0.1065 -0.9132
 5180TIP3   OH237174   0.319   0.688   7.042 -0.0537  1.0184  0.0546
 5180TIP3    H137175   0.360   0.773   7.024 -0.5797  1.0431 -1.1176
 5180TIP3    H237176   0.262   0.673   6.967 -0.2531 -0.2057  0.4367
 5181TIP3   OH237177   4.808   1.556   8.154 -0.0367 -0.2566  0.1052
 5181TIP3    H137178   4.850   1.608   8.222 -2.2202  2.0651 -0.1841
 5181TIP3    H237179   4.881   1.523   8.101  1.5156  2.0205  0.6681
 5182TIP3   OH237180   1.619   5.626   0.970  0.0627 -0.1623  0.0326
 5182TIP3    H137181   1.677   5.695   1.002  0.1262 -0.1486 -0.1075
 5182TIP3    H237182   1.586   5.659   0.886  0.0746 -0.2910 -0.0235
 5183TIP3   OH237183   5.308   5.651   7.439  0.2147  0.7251  0.6778
 5183TIP3    H137184   5.344   5.622   7.523 -0.8009  0.0834  0.9101
 5183TIP3    H237185   5.343   5.588   7.375  0.4907  0.8419  0.7144
 5184TIP3   OH237186   0.537   2.004   0.139 -0.3500  0.1113 -0.4989
 5184TIP3    H137187   0.508   1.932   0.194 -0.2130 -0.4666 -1.1649
 5184TIP3    H237188   0.630   2.015   0.160 -0.1920 -0.3895 -0.9047
 5185TIP3   OH237189   3.160   6.527   6.919  0.2856  0.4001  0.3670
 5185TIP3    H137190   3.167   6.432   6.916  0.2785  0.3908  0.6250
 5185TIP3    H237191   3.070   6.545   6.892  0.3294  0.3421  0.1806
 5186TIP3   OH237192   3.725   1.673   7.632 -0.7089 -0.9428  0.2605
 5186TIP3    H137193   3.710   1.651   7.724  0.6457 -0.3798  0.6436
 5186TIP3    H237194   3.816   1.704   7.630 -0.8725 -0.5124 -1.1895
 5187TIP3   OH237195   1.686   5.988   0.598  0.1043  0.1919  0.0559
 5187TIP3    H137196   1.657   5.929   0.529 -0.9688 -0.4179  0.9942
 5187TIP3    H237197   1.780   6.001   0.581 -0.3109  0.7546 -1.9852
 5188TIP3   OH237198   6.261   3.902   2.477 -0.3652  0.2019  0.0068
 5188TIP3    H137199   6.326   3.833   2.477  0.2056  0.7281  0.7949
 5188TIP3    H237200   6.227   3.904   2.566 -2.3611 -0.8717 -0.6626
 5189TIP3   OH237201   1.538   2.387   1.002 -0.0074  0.8449 -0.0120
 5189TIP3    H137202   1.551   2.293   0.985 -1.4244  0.2265  1.9537
 5189TIP3    H237203   1.457   2.408   0.956 -0.2656  0.8353  0.4389
 5190TIP3   OH237204   4.122   1.032   2.091  0.5292 -0.6693 -0.2758
 5190TIP3    H137205   4.181   1.103   2.064  1.4098 -1.3689 -0.2145
 5190TIP3    H237206   4.177   0.954   2.092 -0.0767 -1.0999  1.1206
 5191TIP3   OH237207   0.826   3.473   1.863  0.3107 -0.1946 -0.0468
 5191TIP3    H137208   0.901   3.458   1.921 -0.9611 -0.4782  1.5661
 5191TIP3    H237209   0.849   3.552   1.815  0.8205  0.8457  1.8333
 5192TIP3   OH237210   2.802   2.502   0.811  0.2407 -0.5135  0.0233
 5192TIP3    H137211   2.872   2.449   0.772  1.3671 -2.0917  3.7949
 5192TIP3    H237212   2.722   2.451   0.798  0.7108 -1.3430  0.3590
 5193TIP3   OH237213   2.497   2.310   2.492  0.3703  0.2186  0.0948
 5193TIP3    H137214   2.445   2.382   2.528  0.2564  1.3040 -2.0522
 5193TIP3    H237215   2.510   2.251   2.566 -0.0569  2.1261  1.8114
 5194TIP3   OH237216   4.811   4.173   8.309  0.1995 -0.4483  0.5240
 5194TIP3    H137217   4.747   4.110   8.340  1.5846 -1.7454  0.8599
 5194TIP3    H237218   4.891   4.122   8.296  1.2054  1.1262  0.2144
 5195TIP3   OH237219   3.273   6.076   6.776  0.3258  0.7620 -0.2613
 5195TIP3    H137220   3.226   6.143   6.826 -0.0067  0.6798 -0.4581
 5195TIP3    H237221   3.336   6.040   6.838 -0.9791 -0.2540  0.5162
 5196TIP3   OH237222   0.654   6.063   1.914 -0.1956 -0.5941  0.0860
 5196TIP3    H137223   0.613   6.082   1.830  0.4900 -0.0212 -0.1329
 5196TIP3    H237224   0.628   6.136   1.970  1.2371  0.2787 -0.3226
 5197TIP3   OH237225   2.343   0.558   0.333  0.3430 -0.1078 -0.6262
 5197TIP3    H137226   2.369   0.475   0.374  1.4696 -1.3713 -3.6108
 5197TIP3    H237227   2.375   0.625   0.393  0.7571 -1.8005  1.1563
 5198TIP3   OH237228   1.098   4.368   0.429 -0.6074 -0.1120 -0.0209
 5198TIP3    H137229   1.104   4.459   0.399 -0.3049 -0.2021 -0.2370
 5198TIP3    H237230   1.026   4.369   0.492  0.6074  0.6702  1.4105
 5199TIP3   OH237231   0.441   3.310   0.120  0.5336 -0.1579 -0.0148
 5199TIP3    H137232   0.430   3.402   0.145 -0.6246 -0.4204  0.4613
 5199TIP3    H237233   0.430   3.261   0.202  0.5637 -0.7716 -0.3711
 5200TIP3   OH237234   2.033   5.717   2.472  0.2338 -0.3299 -0.6187
 5200TIP3    H137235   2.099   5.747   2.535 -0.2604 -1.9193  0.7128
 5200TIP3    H237236   2.035   5.622   2.479 -0.7185 -0.4899 -2.1301
 5201TIP3   OH237237   0.188   0.271   0.335  0.5600  0.6137  0.3569
 5201TIP3    H137238   0.269   0.234   0.301 -0.5407 -1.5433 -0.1241
 5201TIP3    H237239   0.155   0.325   0.264  0.7542  0.1489 -0.0944
 5202TIP3   OH237240   5.451   5.166   1.588  0.0375  0.0664  0.2143
 5202TIP3    H137241   5.513   5.185   1.658  0.2636 -0.3057  0.1162
 5202TIP3    H237242   5.371   5.139   1.634  0.7252 -1.9105  0.3402
 5203TIP3   OH237243   5.141   5.743   1.598 -0.4770  0.0281 -0.2313
 5203TIP3    H137244   5.167   5.693   1.520 -0.8243  0.2565 -0.5004
 5203TIP3    H237245   5.059   5.785   1.572 -2.4062 -2.4803  1.3024
 5204TIP3   OH237246   4.817   6.457   1.642 -0.4751  0.7792  0.2011
 5204TIP3    H137247   4.853   6.527   1.697  2.0768 -0.0667 -0.2915
 5204TIP3    H237248   4.889   6.396   1.630 -1.7136 -0.3649 -1.9813
 5205TIP3   OH237249   1.698   1.049   2.442 -0.6041  0.4528 -0.1279
 5205TIP3    H137250   1.740   1.106   2.507  2.2378  0.5106 -1.8875
 5205TIP3    H237251   1.670   1.109   2.373  2.7927 -0.1158 -2.2010
 5206TIP3   OH237252   4.960   0.796   1.749  0.3021  0.3917 -0.1954
 5206TIP3    H137253   4.871   0.820   1.724  0.9192  2.2471 -0.7608
 5206TIP3    H237254   4.952   0.706   1.782 -1.4826 -0.1348 -1.8255
 5207TIP3   OH237255   3.646   2.488   2.375 -0.2457  0.6738  0.3355
 5207TIP3    H137256   3.644   2.401   2.414  1.1402  0.2853 -0.3982
 5207TIP3    H237257   3.603   2.478   2.290 -2.2542  1.2731  1.2240
 5208TIP3   OH237258   6.255   2.095   8.085  0.0625  0.1124 -0.4948
 5208TIP3    H137259   6.330   2.140   8.124 -0.1725  0.2702 -0.2265
 5208TIP3    H237260   6.263   2.112   7.991  0.5565 -0.1599 -0.5063
 5209TIP3   OH237261   6.439   0.083   6.568 -0.1935  0.3536 -0.2154
 5209TIP3    H137262   6.394   0.004   6.599  1.2519  0.0198  1.1462
 5209TIP3    H237263   6.368   0.147   6.555 -1.1591 -0.3967  1.0496
 5210TIP3   OH237264   4.270   2.132   2.878 -0.7996 -0.9763 -0.4476
 5210TIP3    H137265   4.224   2.071   2.820 -1.7415 -0.6514 -0.0571
 5210TIP3    H237266   4.362   2.125   2.851 -1.3087 -0.0407 -2.7381
 5211TIP3   OH237267   5.616   1.144   2.426 -0.0850 -0.4037 -0.1845
 5211TIP3    H137268   5.711   1.138   2.421 -0.1659 -2.0165 -0.0532
 5211TIP3    H237269   5.586   1.140   2.335 -0.0032  1.1319 -0.3067
 5212TIP3   OH237270   6.645   4.206   2.299 -0.3928 -0.3215 -0.0217
 5212TIP3    H137271   6.612   4.175   2.383 -3.0784 -1.2523 -1.2965
 5212TIP3    H237272   6.698   4.283   2.321 -1.9802  0.1853  2.4341
 5213TIP3   OH237273   5.187   2.961   1.124  0.1498 -0.1182 -0.0157
 5213TIP3    H137274   5.157   3.051   1.134 -0.6496 -0.5939  2.5520
 5213TIP3    H237275   5.276   2.961   1.159  0.0890 -0.3573  0.1424
 5214TIP3   OH237276   0.512   0.149   8.280  0.0611  0.3404  0.7702
 5214TIP3    H137277   0.602   0.116   8.281  0.6910  1.9647  2.0530
 5214TIP3    H237278   0.509   0.207   8.203  0.2616  0.6485  0.9924
 5215TIP3   OH237279   1.633   3.004   2.266  0.5766 -0.4102 -0.2296
 5215TIP3    H137280   1.567   3.064   2.232 -0.0785 -1.7281 -1.3586
 5215TIP3    H237281   1.704   3.061   2.295 -1.0606  1.0523  1.1148
 5216TIP3   OH237282   3.725   1.255   6.655  0.6527  0.1654  0.2824
 5216TIP3    H137283   3.794   1.290   6.712 -0.4719  0.4453  1.5237
 5216TIP3    H237284   3.715   1.164   6.683  2.5376 -0.8353 -1.9327
 5217TIP3   OH237285   6.085   4.963   8.161 -0.9654  0.5870 -0.0379
 5217TIP3    H137286   6.043   5.000   8.083  0.5854 -0.4413 -1.4323
 5217TIP3    H237287   6.034   4.884   8.180 -0.6099  0.1632 -0.7969
 5218TIP3   OH237288   2.008   2.840   0.461 -0.3316 -0.3971  0.3443
 5218TIP3    H137289   1.921   2.864   0.428 -0.6483  0.4940  1.7426
 5218TIP3    H237290   2.063   2.916   0.443 -0.7630  0.5375  2.6998
 5219TIP3   OH237291   5.411   6.865   2.131  0.1046 -0.4149 -0.3295
 5219TIP3    H137292   5.359   6.786   2.144  2.1230 -2.1979 -2.2036
 5219TIP3    H237293   5.488   6.853   2.186 -0.1741  0.9486  0.4066
 5220TIP3   OH237294   2.908   2.709   1.597  0.0576  0.3977 -0.1303
 5220TIP3    H137295   2.933   2.628   1.553  1.5055  0.9407 -0.3534
 5220TIP3    H237296   2.835   2.684   1.654  1.6519 -1.4742  1.2005
 5221TIP3   OH237297   6.894   0.148   7.682  0.4341  0.3101  0.1184
 5221TIP3    H137298   6.847   0.077   7.638  0.0105  0.5390  0.1920
 5221TIP3    H237299   6.835   0.177   7.751  0.2569  1.2438 -0.3952
 5222TIP3   OH237300   3.354   0.066   1.872  0.0136 -0.5852 -0.2295
 5222TIP3    H137301   3.298   0.019   1.810 -0.9566  1.4056 -0.9733
 5222TIP3    H237302   3.423   0.004   1.894 -0.2987 -1.8038 -2.3621
 5223TIP3   OH237303   2.898   5.764   0.834  0.0878  0.1602 -0.1566
 5223TIP3    H137304   2.928   5.786   0.745  3.4138  0.7882  0.9596
 5223TIP3    H237305   2.863   5.847   0.868 -0.5558  0.0896 -0.6176
 5224TIP3   OH237306   6.071   3.454   0.976  0.0102 -0.3743  0.0027
 5224TIP3    H137307   6.145   3.515   0.979  0.4437 -0.9149  0.5448
 5224TIP3    H237308   6.028   3.472   0.893 -0.0221  0.8513  0.2620
 5225TIP3   OH237309   4.298   3.391   7.146  0.1274 -0.6844  0.2324
 5225TIP3    H137310   4.306   3.485   7.162 -0.0584 -0.8317  1.2176
 5225TIP3    H237311   4.368   3.372   7.083  2.2039 -0.4252  2.3156
 5226TIP3   OH237312   6.735   3.403   2.319  0.3934  0.4484  0.3310
 5226TIP3    H137313   6.702   3.338   2.258 -1.2593  2.4777 -1.0964
 5226TIP3    H237314   6.722   3.364   2.405 -2.0908 -0.5123 -0.3929
 5227TIP3   OH237315   2.564   5.344   2.864 -0.1156  0.3012  0.1242
 5227TIP3    H137316   2.618   5.268   2.841 -1.7399 -1.0628  0.6153
 5227TIP3    H237317   2.582   5.408   2.795  4.2152  1.1033  1.7136
 5228TIP3   OH237318   1.454   4.122   0.200 -0.7314  0.4262 -0.5328
 5228TIP3    H137319   1.413   4.199   0.240 -1.7476 -0.1878 -0.3718
 5228TIP3    H237320   1.381   4.067   0.173 -0.0634 -1.3032  0.9474
 5229TIP3   OH237321   0.510   4.444   8.178  0.5150  0.0200 -0.3289
 5229TIP3    H137322   0.488   4.351   8.181 -2.2723  0.6065  1.5519
 5229TIP3    H237323   0.462   4.478   8.102 -0.8820  0.3684  0.6702
 5230TIP3   OH237324   6.787   5.488   2.233 -0.8409  0.4299  0.5831
 5230TIP3    H137325   6.704   5.481   2.186 -1.2618 -0.5876  1.4488
 5230TIP3    H237326   6.764   5.473   2.325  0.7257 -3.2632  0.5184
 5231TIP3   OH237327   3.298   3.780   1.306  0.2580  0.0632 -0.0351
 5231TIP3    H137328   3.231   3.727   1.350 -0.3648  0.2147 -0.7934
 5231TIP3    H237329   3.324   3.844   1.372  0.0946 -0.3720  0.4649
 5232TIP3   OH237330   3.502   6.448   1.309  0.2616 -0.4520  0.2893
 5232TIP3    H137331   3.546   6.531   1.292 -1.0019 -0.1126 -1.6575
 5232TIP3    H237332   3.435   6.442   1.240 -0.6413 -2.3964  1.2628
 5233TIP3   OH237333   6.789   2.739   7.826 -0.4789 -0.4482 -0.2710
 5233TIP3    H137334   6.753   2.795   7.757  2.3534  2.0592  0.0901
 5233TIP3    H237335   6.841   2.674   7.779  1.3923  1.2130 -0.6072
 5234TIP3   OH237336   4.664   4.458   2.378  0.5352  0.0066 -0.0077
 5234TIP3    H137337   4.687   4.541   2.421 -1.9778  1.5173 -1.2810
 5234TIP3    H237338   4.655   4.481   2.285  2.8798 -2.4925 -0.9924
 5235TIP3   OH237339   3.289   3.015   8.059  0.5710 -0.2843 -0.1161
 5235TIP3    H137340   3.202   3.054   8.069  1.2399  1.1285  0.4597
 5235TIP3    H237341   3.276   2.941   8.000 -0.8474  0.5123 -0.8327
 5236TIP3   OH237342   5.044   0.402   7.065 -0.0015  0.4503  0.2089
 5236TIP3    H137343   4.996   0.417   6.983  0.3780 -2.1722 -0.6014
 5236TIP3    H237344   5.132   0.435   7.047  0.6031 -1.6782 -1.2058
 5237TIP3   OH237345   3.080   2.836   0.977 -0.0269  0.2315 -0.6702
 5237TIP3    H137346   3.036   2.913   1.013  0.9048  1.0044 -1.1036
 5237TIP3    H237347   3.104   2.784   1.053 -0.5521  0.4414 -0.3559
 5238TIP3   OH237348   4.565   1.683   2.085  0.5768 -0.4422  0.7648
 5238TIP3    H137349   4.482   1.668   2.129  1.0775 -5.3844  0.5796
 5238TIP3    H237350   4.543   1.687   1.991  0.3681  1.7043  0.8383
 5239TIP3   OH237351   1.001   0.485   1.979 -0.4721 -0.3410 -0.2677
 5239TIP3    H137352   0.951   0.433   1.916  0.9032 -1.4172 -0.5130
 5239TIP3    H237353   1.091   0.456   1.968  0.1417  1.1365  0.5712
 5240TIP3   OH237354   6.173   2.710   1.549  0.0282  0.1225  0.3637
 5240TIP3    H137355   6.083   2.743   1.545  0.0635  0.5041  2.0404
 5240TIP3    H237356   6.189   2.673   1.462 -1.8559 -0.2416  0.1347
 5241TIP3   OH237357   4.449   1.797   7.009  0.1409  0.0436  0.3800
 5241TIP3    H137358   4.368   1.824   7.053 -0.1734  1.2263 -0.8759
 5241TIP3    H237359   4.453   1.702   7.024  0.6045  0.4623  3.7972
 5242TIP3   OH237360   4.334   2.563   1.144 -0.1621  0.1269 -0.1369
 5242TIP3    H137361   4.313   2.656   1.150 -1.6154 -0.2103  0.5088
 5242TIP3    H237362   4.249   2.520   1.132  0.5342 -1.0831 -0.9724
 5243TIP3   OH237363   6.309   0.890   8.223  0.0207  0.5416 -0.2529
 5243TIP3    H137364   6.245   0.846   8.279 -0.0308 -0.1464 -0.8271
 5243TIP3    H237365   6.393   0.849   8.245  0.2803  1.4599  0.5181
 5244TIP3   OH237366   5.027   3.698   0.007 -0.0685  0.3621  0.0152
 5244TIP3    H137367   4.981   3.749   0.074 -1.1732  0.6700 -0.9419
 5244TIP3    H237368   4.994   3.732  -0.076  0.6603 -0.5678 -0.6767
 5245TIP3   OH237369   4.900   5.563   8.187  0.1081 -0.7148 -0.1603
 5245TIP3    H137370   4.917   5.538   8.278 -0.8381  0.2642  0.3063
 5245TIP3    H237371   4.834   5.500   8.157  1.8216 -2.2863 -0.8443
 5246TIP3   OH237372   6.307   4.626   8.419 -0.7683  0.0193 -0.6180
 5246TIP3    H137373   6.308   4.722   8.419 -0.5512  0.0205 -0.1608
 5246TIP3    H237374   6.319   4.602   8.511  1.4515 -0.4429 -0.9672
 5247TIP3   OH237375   0.232   5.543   0.643  0.0070 -0.1729  0.0168
 5247TIP3    H137376   0.156   5.540   0.701  0.7220  2.6551  1.2480
 5247TIP3    H237377   0.290   5.474   0.675 -0.8737 -0.5823  0.7549
 5248TIP3   OH237378   3.320   6.548   7.624  0.1906 -0.0129 -0.1416
 5248TIP3    H137379   3.261   6.473   7.623  0.1858 -0.0100 -1.1395
 5248TIP3    H237380   3.306   6.590   7.540  0.3486  0.9920  0.3202
 5249TIP3   OH237381   2.538   2.201   1.604 -0.2204  0.4548 -0.1524
 5249TIP3    H137382   2.584   2.167   1.681  0.3900  0.5230 -0.4832
 5249TIP3    H237383   2.512   2.289   1.630 -1.2901 -0.0269  0.4945
 5250TIP3   OH237384   6.755   5.017   0.474  0.5961  0.4236  0.2858
 5250TIP3    H137385   6.739   5.067   0.554  0.6340  0.1927  0.4401
 5250TIP3    H237386   6.714   4.932   0.490 -0.8268  0.9010 -0.5717
 5251TIP3   OH237387   1.307   2.436   0.350 -0.0701  0.4295  0.3086
 5251TIP3    H137388   1.271   2.480   0.274  0.9714  0.1740 -0.3512
 5251TIP3    H237389   1.234   2.428   0.411 -0.8156  0.9820 -0.5079
 5252TIP3   OH237390   2.169   6.014   1.833 -0.5982  0.2618 -0.3157
 5252TIP3    H137391   2.103   5.945   1.842 -1.5378  0.8765 -2.0466
 5252TIP3    H237392   2.136   6.086   1.887 -2.5364  1.3521 -2.7742
 5253TIP3   OH237393   3.145   6.759   7.376 -0.2470 -0.4524 -0.1958
 5253TIP3    H137394   3.240   6.745   7.387 -0.1014  0.9462  0.5270
 5253TIP3    H237395   3.124   6.713   7.295  1.0765 -0.6975 -0.4334
 5254TIP3   OH237396   1.030   3.761   0.108  0.6860  0.2059 -0.1435
 5254TIP3    H137397   0.938   3.785   0.099 -0.1463 -2.8586 -1.1489
 5254TIP3    H237398   1.050   3.715   0.026  2.8262 -0.0881  0.4903
 5255TIP3   OH237399   2.748   4.230   7.583  0.0578  0.5334  0.7455
 5255TIP3    H137400   2.659   4.203   7.562 -0.0306 -0.4818  2.2723
 5255TIP3    H237401   2.741   4.323   7.604 -0.3854  0.7902 -0.4633
 5256TIP3   OH237402   2.344   3.217   2.755 -0.0249  0.0259  0.0933
 5256TIP3    H137403   2.367   3.301   2.794 -2.1273  0.9730 -0.6164
 5256TIP3    H237404   2.370   3.153   2.821  1.7153  1.1662  0.6055
 5257TIP3   OH237405   3.024   3.840   7.463  0.5799 -0.4002  0.2085
 5257TIP3    H137406   3.082   3.777   7.505  0.2843 -1.2448 -0.6051
 5257TIP3    H237407   3.018   3.810   7.372  0.2098  0.6437 -0.1249
 5258TIP3   OH237408   2.927   5.470   1.508  0.5575 -0.0698 -0.3191
 5258TIP3    H137409   2.976   5.389   1.495  0.5715 -0.1686  0.3155
 5258TIP3    H237410   2.909   5.472   1.602  1.3808  1.1322 -0.1633
 5259TIP3   OH237411   2.535   0.563   0.759  0.5843  0.0840  0.7328
 5259TIP3    H137412   2.564   0.496   0.822  1.6816  1.7740  2.1302
 5259TIP3    H237413   2.477   0.619   0.809  3.5166  3.0157  1.1872
 5260TIP3   OH237414   4.399   4.950   1.782 -0.3791  0.4102  0.4647
 5260TIP3    H137415   4.483   4.982   1.751  0.3809 -1.0004  0.9807
 5260TIP3    H237416   4.405   4.855   1.777 -0.9125  0.1496  3.0027
 5261TIP3   OH237417   3.362   2.953   0.840  0.0396 -0.5710  0.1709
 5261TIP3    H137418   3.349   3.016   0.911 -0.1361 -0.3936 -0.0203
 5261TIP3    H237419   3.301   2.980   0.772  0.6864 -0.3201 -0.3291
 5262TIP3   OH237420   1.319   5.059   7.096  0.2004 -0.1090  0.3834
 5262TIP3    H137421   1.280   4.995   7.156  0.7016  0.7149  1.6360
 5262TIP3    H237422   1.380   5.008   7.044 -1.8417 -1.2710 -1.0277
 5263TIP3   OH237423   0.511   3.388   7.356  0.0499  0.1719 -0.2327
 5263TIP3    H137424   0.575   3.390   7.427 -2.4016 -2.7409  2.3896
 5263TIP3    H237425   0.428   3.413   7.397 -1.9003 -3.6830 -1.3166
 5264TIP3   OH237426   4.183   1.708   8.359  0.2098  0.1784 -0.3077
 5264TIP3    H137427   4.179   1.673   8.448  0.7901 -0.0878 -0.3797
 5264TIP3    H237428   4.200   1.801   8.371  0.8002  0.0583 -0.1325
 5265TIP3   OH237429   0.210   1.575   1.366  0.3340 -0.2640  0.2046
 5265TIP3    H137430   0.240   1.653   1.319  1.1558 -0.1635  0.8671
 5265TIP3    H237431   0.188   1.607   1.454 -1.5339 -0.3835 -0.1824
 5266TIP3   OH237432   1.422   6.530   0.496  0.2845 -0.6463 -0.4785
 5266TIP3    H137433   1.410   6.606   0.553  0.0943 -1.3685  0.4817
 5266TIP3    H237434   1.363   6.545   0.422 -0.1853 -0.1383 -0.0061
 5267TIP3   OH237435   4.453   4.956   7.289 -0.7841 -0.2762  0.4572
 5267TIP3    H137436   4.376   4.944   7.234 -0.1554  1.2873 -0.8308
 5267TIP3    H237437   4.488   5.042   7.265 -0.5320  0.5833  3.4025
 5268TIP3   OH237438   2.803   5.289   2.031 -0.1545  0.6308  0.0609
 5268TIP3    H137439   2.865   5.328   2.092 -1.7512  0.6758  1.7661
 5268TIP3    H237440   2.768   5.213   2.078 -0.9505  0.2660 -1.0715
 5269TIP3   OH237441   5.245   2.897   2.614  0.0841  0.5283  0.1787
 5269TIP3    H137442   5.195   2.938   2.544 -2.6688 -1.9919  0.4536
 5269TIP3    H237443   5.272   2.970   2.670 -0.2747  2.3174 -1.8543
 5270TIP3   OH237444   6.147   1.764   2.031 -0.4533  0.1845 -0.8181
 5270TIP3    H137445   6.068   1.755   1.977  1.2919  1.9104 -3.9193
 5270TIP3    H237446   6.178   1.674   2.042 -2.7387 -0.5459  0.4863
 5271TIP3   OH237447   3.188   3.679   1.842  1.0328  0.1282  0.0346
 5271TIP3    H137448   3.136   3.747   1.886  1.6175 -0.2033  1.2772
 5271TIP3    H237449   3.133   3.652   1.768  0.5050  1.4890 -0.1103
 5272TIP3   OH237450   6.208   5.765   2.532  0.1312 -0.2933 -0.2819
 5272TIP3    H137451   6.239   5.711   2.459  0.7841  0.0676 -0.2793
 5272TIP3    H237452   6.147   5.708   2.579  1.5328 -1.4043  0.2871
 5273TIP3   OH237453   3.465   3.265   1.988  0.2983 -0.0043 -0.4983
 5273TIP3    H137454   3.529   3.248   1.919  0.5028 -0.9874 -0.0726
 5273TIP3    H237455   3.449   3.360   1.982  0.3583 -0.0581 -1.8428
 5274TIP3   OH237456   0.585   3.168   0.570 -0.2583  0.0091  0.1310
 5274TIP3    H137457   0.602   3.258   0.543 -0.6279 -0.0682 -0.3693
 5274TIP3    H237458   0.579   3.172   0.665 -0.8535  0.6076  0.0706
 5275TIP3   OH237459   1.714   0.884   0.585  0.3944  0.3464  0.4144
 5275TIP3    H137460   1.699   0.829   0.508  0.6523  1.5067 -0.4963
 5275TIP3    H237461   1.803   0.863   0.612  0.7946  0.8736 -0.4316
 5276TIP3   OH237462   0.636   2.362   0.375 -0.2457  0.5305  0.1534
 5276TIP3    H137463   0.616   2.361   0.281 -0.3741 -0.2467  0.1784
 5276TIP3    H237464   0.596   2.281   0.408  2.7638 -1.0573  0.2424
 5277TIP3   OH237465   3.695   1.981   1.915  0.0680 -0.8514 -0.1750
 5277TIP3    H137466   3.720   1.917   1.848  1.9841 -0.3616  0.0311
 5277TIP3    H237467   3.768   1.981   1.977 -1.1899 -0.5283  1.3717
 5278TIP3   OH237468   5.909   5.983   8.259 -0.1163 -0.1612 -0.3135
 5278TIP3    H137469   5.879   6.025   8.179  0.9671  0.5214 -0.3799
 5278TIP3    H237470   6.002   5.967   8.245  0.3757  1.0194  1.2182
 5279TIP3   OH237471   6.007   0.747   7.912  0.0188  0.4148 -0.6494
 5279TIP3    H137472   5.919   0.728   7.944 -0.9750  1.3916 -2.6389
 5279TIP3    H237473   6.014   0.698   7.830  2.1318 -1.2825  0.4543
 5280TIP3   OH237474   6.050   3.381   0.683 -0.6190  0.4087 -0.0993
 5280TIP3    H137475   6.088   3.300   0.719  3.0413  2.3360  0.8131
 5280TIP3    H237476   5.959   3.379   0.712 -0.2705 -2.6309  1.1937
 5281TIP3   OH237477   3.323   4.185   1.787  0.2065 -0.3558  0.0926
 5281TIP3    H137478   3.328   4.090   1.778  0.2442 -0.2319 -1.3400
 5281TIP3    H237479   3.231   4.205   1.767  0.3967 -0.0200 -0.4618
 5282TIP3   OH237480   1.395   2.169   0.306  1.0458  0.6683 -0.5645
 5282TIP3    H137481   1.477   2.183   0.353 -0.1996 -0.1244  2.0218
 5282TIP3    H237482   1.342   2.246   0.326  0.3045  0.0820 -0.2230
 5283TIP3   OH237483   5.594   3.109   2.688  0.2239 -0.0328  0.3312
 5283TIP3    H137484   5.564   3.074   2.604 -0.0793  1.5241 -0.2253
 5283TIP3    H237485   5.662   3.172   2.665 -1.4855  2.1640  1.0423
 5284TIP3   OH237486   5.590   3.382   2.893  0.2807 -0.0795 -0.0256
 5284TIP3    H137487   5.499   3.413   2.890 -0.4876 -2.2011 -0.4352
 5284TIP3    H237488   5.622   3.393   2.803  0.3941  0.5291  0.0847
 5285TIP3   OH237489   6.053   4.582   7.721  0.0053  0.1022  0.5390
 5285TIP3    H137490   6.062   4.516   7.652  0.6380 -0.1975  0.9022
 5285TIP3    H237491   6.077   4.536   7.802 -0.9670  0.3828  1.0005
 5286TIP3   OH237492   3.706   4.587   1.764 -0.1171  0.1076  0.3183
 5286TIP3    H137493   3.633   4.526   1.778  0.6837 -0.4461  2.3542
 5286TIP3    H237494   3.682   4.633   1.683 -1.8973 -1.2241  0.0078
 5287TIP3   OH237495   0.709   4.161   8.098  0.2921 -0.0982  0.1696
 5287TIP3    H137496   0.617   4.188   8.100 -0.4876 -2.5476  1.2782
 5287TIP3    H237497   0.742   4.180   8.186  1.0369  1.2192 -0.3654
 5288TIP3   OH237498   0.723   0.070   7.902  0.4885 -0.5522  0.1670
 5288TIP3    H137499   0.804   0.021   7.915  0.6039 -0.4203 -0.0555
 5288TIP3    H237500   0.656   0.004   7.888  0.3477 -0.7211  1.4504
 5289TIP3   OH237501   0.217   6.211   0.611  0.6849  0.6985  0.1140
 5289TIP3    H137502   0.210   6.305   0.595 -1.6903  0.9433  1.9592
 5289TIP3    H237503   0.140   6.190   0.664  2.7354 -1.7240  2.4030
 5290TIP3   OH237504   4.075   2.943   7.900  0.2490 -0.2973  0.0625
 5290TIP3    H137505   4.015   2.990   7.843 -1.8923 -3.8504 -0.9087
 5290TIP3    H237506   4.145   2.913   7.842 -0.0707 -0.9317 -0.0063
 5291TIP3   OH237507   6.567   0.124   1.967  0.4740  0.4833 -0.0239
 5291TIP3    H137508   6.656   0.155   1.977  1.2872 -0.7639 -2.6485
 5291TIP3    H237509   6.514   0.188   2.014  2.6082  2.0073  0.4511
 5292TIP3   OH237510   2.832   5.164   1.760  0.1280 -0.0113 -0.3943
 5292TIP3    H137511   2.806   5.243   1.808  1.1561  0.4832 -0.6477
 5292TIP3    H237512   2.927   5.162   1.765  0.1556 -0.8631 -0.9945
 5293TIP3   OH237513   4.552   1.266   3.121  0.4398  0.4670 -0.2657
 5293TIP3    H137514   4.626   1.304   3.074  1.0226  1.1775  1.1718
 5293TIP3    H237515   4.527   1.190   3.068  2.4704 -0.0642 -0.5624
 5294TIP3   OH237516   6.965   3.834   2.229 -0.2368  0.7248 -0.0426
 5294TIP3    H137517   6.947   3.795   2.315  0.7401  0.3025 -0.0171
 5294TIP3    H237518   6.937   3.925   2.237 -0.5282  0.5867  0.5869
 5295TIP3   OH237519   3.224   0.639   0.182  0.0819  0.4689 -0.1260
 5295TIP3    H137520   3.219   0.549   0.149  0.3167  0.4094  0.0008
 5295TIP3    H237521   3.168   0.689   0.123  0.2193  0.2982 -0.4021
 5296TIP3   OH237522   2.721   3.149   2.604 -0.4629 -0.1676  0.5885
 5296TIP3    H137523   2.813   3.165   2.585 -0.6529  0.6160  0.2991
 5296TIP3    H237524   2.693   3.089   2.535 -0.3731  0.2524  0.1772
 5297TIP3   OH237525   3.743   0.495   7.114  0.1185 -0.0549 -0.1318
 5297TIP3    H137526   3.733   0.432   7.042 -1.1403 -0.6900  0.5625
 5297TIP3    H237527   3.716   0.579   7.075 -2.2556 -0.6776 -0.0237
 5298TIP3   OH237528   0.055   2.846   2.874  0.1563 -0.7314 -0.1572
 5298TIP3    H137529   0.006   2.884   2.947  0.0571 -1.0001 -0.0811
 5298TIP3    H237530  -0.002   2.860   2.798 -0.0056 -0.9753 -0.0820
 5299TIP3   OH237531   5.946   5.252   2.695 -0.3064  0.2961 -0.2619
 5299TIP3    H137532   6.022   5.275   2.640  1.8057 -1.6414  1.6344
 5299TIP3    H237533   5.909   5.175   2.652 -1.7774  1.6593 -1.5934
 5300TIP3   OH237534   3.891   5.048   2.137 -0.1968  0.3448 -0.1258
 5300TIP3    H137535   3.880   4.977   2.073 -0.6888  0.0641  0.2583
 5300TIP3    H237536   3.914   5.125   2.084 -2.3553  0.5565 -0.8531
 5301TIP3   OH237537   6.735   1.554   0.546 -0.6212  0.2948 -0.1882
 5301TIP3    H137538   6.826   1.550   0.516 -0.4457  1.5343  0.1188
 5301TIP3    H237539   6.742   1.546   0.642 -0.8745 -0.0463 -0.1981
 5302TIP3   OH237540   3.646   4.177   0.492 -0.4908 -0.0506  0.3080
 5302TIP3    H137541   3.660   4.220   0.408  1.6199  1.3767  1.2987
 5302TIP3    H237542   3.590   4.102   0.471 -2.1698  1.6848 -1.9062
 5303TIP3   OH237543   0.891   2.632   0.704 -0.5329 -0.0594  0.2769
 5303TIP3    H137544   0.961   2.624   0.769 -0.3935  3.1195  0.6747
 5303TIP3    H237545   0.836   2.702   0.737 -0.8023  1.2937 -2.7097
 5304TIP3   OH237546   1.035   1.257   8.404  0.4857 -0.0038 -0.0477
 5304TIP3    H137547   1.036   1.168   8.440  0.0916  1.1342  3.1176
 5304TIP3    H237548   1.117   1.295   8.434 -0.0403  1.1405 -0.0189
 5305TIP3   OH237549   1.041   5.001   2.735 -0.0226 -0.0624  0.2222
 5305TIP3    H137550   0.981   4.937   2.774  0.3834 -1.0225 -0.6856
 5305TIP3    H237551   1.047   4.975   2.643  1.1232  0.5388  0.1135
 5306TIP3   OH237552   0.081   5.544   6.852  0.1228  0.0487 -0.7450
 5306TIP3    H137553   0.095   5.450   6.865 -1.3736 -0.3428 -1.7315
 5306TIP3    H237554   0.169   5.580   6.839  0.9388 -0.8490  1.6301
 5307TIP3   OH237555   3.845   3.664   1.026  0.6931  0.7452  0.5437
 5307TIP3    H137556   3.928   3.645   1.070 -0.2396 -2.1342  1.3149
 5307TIP3    H237557   3.864   3.656   0.933  1.0102 -1.8051  0.7463
 5308TIP3   OH237558   4.289   3.188   3.184  0.2286 -0.2419 -1.0119
 5308TIP3    H137559   4.199   3.181   3.214 -0.6823 -0.3460 -3.5064
 5308TIP3    H237560   4.287   3.154   3.094  2.6088  0.4193 -1.3923
 5309TIP3   OH237561   4.356   3.847   1.082  0.2335 -0.2910 -0.6723
 5309TIP3    H137562   4.278   3.891   1.116 -1.3909 -1.4734 -2.6534
 5309TIP3    H237563   4.429   3.894   1.123 -1.4700  0.6063  1.5820
 5310TIP3   OH237564   6.565   0.779   2.447  0.3966 -0.5145  0.5167
 5310TIP3    H137565   6.657   0.780   2.419  0.0130 -1.2410 -0.8737
 5310TIP3    H237566   6.544   0.871   2.464  0.8180 -0.0633 -1.1772
 5311TIP3   OH237567   0.623   5.751   0.431  0.5406  0.1263  0.2608
 5311TIP3    H137568   0.533   5.721   0.446  0.8331  0.2242  2.4080
 5311TIP3    H237569   0.678   5.678   0.458  1.1447  0.6956  0.5883
 5312TIP3   OH237570   1.885   0.858   2.195  0.0928  0.2853  0.2462
 5312TIP3    H137571   1.827   0.796   2.151  0.4050  0.2596 -0.1316
 5312TIP3    H237572   1.835   0.939   2.201  0.5262  0.6955 -1.3624
 5313TIP3   OH237573   0.629   4.853   0.768 -0.7395 -0.1722 -0.1579
 5313TIP3    H137574   0.640   4.925   0.829 -4.8204 -0.7983  1.6839
 5313TIP3    H237575   0.536   4.854   0.746 -0.8266 -4.2095 -0.8348
 5314TIP3   OH237576   0.892   2.628   1.900 -0.4727  1.0027 -0.1633
 5314TIP3    H137577   0.862   2.666   1.817 -0.2088  2.3459  0.3394
 5314TIP3    H237578   0.883   2.699   1.963  2.8488  1.1808  0.2336
 5315TIP3   OH237579   0.510   0.897   0.064  0.4039 -0.1319 -0.3524
 5315TIP3    H137580   0.440   0.958   0.040  0.6953  0.0493 -0.7596
 5315TIP3    H237581   0.465   0.814   0.080  0.1437 -0.1509 -1.1254
 5316TIP3   OH237582   3.756   4.945   7.295 -0.1218  0.6266  0.1408
 5316TIP3    H137583   3.816   4.967   7.224 -1.4280  1.8800 -0.6295
 5316TIP3    H237584   3.693   4.885   7.255 -1.5222  2.1972 -0.1337
 5317TIP3   OH237585   0.141   0.295   7.561  0.4012  0.2993 -0.1911
 5317TIP3    H137586   0.055   0.263   7.535  1.1552 -2.7790  0.6775
 5317TIP3    H237587   0.128   0.329   7.650  0.2656 -1.4786  0.5176
 5318TIP3   OH237588   4.322   4.690   2.124  0.1950 -0.0344 -0.2919
 5318TIP3    H137589   4.400   4.733   2.159  2.3127 -3.1786 -0.7956
 5318TIP3    H237590   4.268   4.672   2.201  0.5957  0.9125  0.2307
 5319TIP3   OH237591   5.969   0.862   1.845  0.3084 -0.3270  1.0743
 5319TIP3    H137592   5.932   0.946   1.816 -0.3532 -1.8499 -3.1478
 5319TIP3    H237593   5.892   0.812   1.874  0.2651 -0.4909  0.6831
 5320TIP3   OH237594   0.206   4.871   2.626  0.2091  0.3763  0.3085
 5320TIP3    H137595   0.158   4.880   2.544 -0.3333  0.4494  0.6260
 5320TIP3    H237596   0.204   4.777   2.645 -0.3243  0.4462  0.6185
 5321TIP3   OH237597   2.999   4.652   0.178  0.5353 -0.0101 -0.3258
 5321TIP3    H137598   2.940   4.630   0.250 -1.2697 -1.6933 -2.2029
 5321TIP3    H237599   3.067   4.584   0.181  0.7944  0.2608  0.1001
 5322TIP3   OH237600   0.375   0.065   7.865  0.5173 -0.1186  0.1509
 5322TIP3    H137601   0.291   0.038   7.827  1.4628  0.9819 -2.9993
 5322TIP3    H237602   0.436  -0.004   7.839  1.4340  1.2537 -1.5902
 5323TIP3   OH237603   0.592   2.999   7.683 -0.3813  0.1900 -0.6527
 5323TIP3    H137604   0.612   2.944   7.608  0.0133 -1.0626  0.3239
 5323TIP3    H237605   0.555   3.079   7.646 -1.8181 -1.0812 -2.0832
 5324TIP3   OH237606   2.544   4.033   2.739 -0.5932  0.1108 -0.0698
 5324TIP3    H137607   2.517   4.119   2.772 -1.7419 -0.2310 -0.0876
 5324TIP3    H237608   2.491   3.971   2.789 -2.0251 -0.4476 -2.2042
 5325TIP3   OH237609   1.104   5.407   1.293 -0.0907  0.3923  0.2055
 5325TIP3    H137610   1.018   5.409   1.335  0.2931 -0.2856  1.0520
 5325TIP3    H237611   1.101   5.478   1.228 -1.4033  0.1366 -0.0274
 5326TIP3   OH237612   1.909   4.673   0.562 -0.7104  0.4624 -1.0690
 5326TIP3    H137613   1.926   4.580   0.547  1.1593  0.8319 -1.4669
 5326TIP3    H237614   1.975   4.718   0.509 -0.3435  1.9870  0.5895
 5327TIP3   OH237615   1.728   6.100   7.873  0.3916  0.3511 -0.4206
 5327TIP3    H137616   1.650   6.154   7.859 -0.2175  0.1706  1.8568
 5327TIP3    H237617   1.767   6.135   7.954  1.7409 -0.6304 -0.6146
 5328TIP3   OH237618   4.367   5.160   2.215  0.1316 -0.2119  0.1975
 5328TIP3    H137619   4.320   5.108   2.281  1.1987 -0.1878  1.0074
 5328TIP3    H237620   4.338   5.124   2.131 -2.8869  1.1340  0.5173
 5329TIP3   OH237621   5.779   2.924   2.396 -0.3537 -0.1059  0.1643
 5329TIP3    H137622   5.798   2.883   2.312  0.9248 -0.0835  0.4087
 5329TIP3    H237623   5.860   2.971   2.418 -0.8423  0.2994  1.1700
 5330TIP3   OH237624   3.673   5.120   7.493  1.0088 -0.2795  0.6096
 5330TIP3    H137625   3.658   5.058   7.422 -1.2079 -0.3081  1.0128
 5330TIP3    H237626   3.727   5.189   7.455 -0.1329 -0.2780 -1.1389
 5331TIP3   OH237627   3.300   1.084   7.719 -0.4624  0.6273 -0.0272
 5331TIP3    H137628   3.374   1.080   7.779 -0.3280 -0.3125 -0.2387
 5331TIP3    H237629   3.328   1.143   7.650  0.8930 -1.2269 -1.1399
 5332TIP3   OH237630   0.377   4.561   7.957  0.1852  0.0058  0.1382
 5332TIP3    H137631   0.287   4.536   7.976  0.4352 -0.4786  0.6995
 5332TIP3    H237632   0.379   4.574   7.862 -0.5942  0.5128  0.1830
 5333TIP3   OH237633   6.057   5.361   7.918 -0.1795  0.1789  0.0479
 5333TIP3    H137634   6.007   5.281   7.933 -0.3179  0.4198  0.9015
 5333TIP3    H237635   6.007   5.409   7.852 -0.1686 -0.3642 -0.3624
 5334TIP3   OH237636   6.950   1.509   1.668 -0.0318  0.2827  0.0637
 5334TIP3    H137637   6.955   1.511   1.763  1.9931 -0.7347  0.0380
 5334TIP3    H237638   6.884   1.574   1.645  2.4810  3.7913  1.9573
 5335TIP3   OH237639   5.612   1.127   2.152 -0.2160 -0.4038  0.7914
 5335TIP3    H137640   5.531   1.132   2.100  0.5589  0.0912 -0.4173
 5335TIP3    H237641   5.653   1.213   2.140  2.0357 -1.6340 -1.2843
 5336TIP3   OH237642   6.081   1.369   7.434  0.1776  0.4553  0.1103
 5336TIP3    H137643   6.162   1.328   7.405 -0.2249 -1.5762  1.6412
 5336TIP3    H237644   6.055   1.426   7.361  1.8645 -0.4600 -1.2638
 5337TIP3   OH237645   5.572   2.761   0.585  0.2585  0.4150  0.2682
 5337TIP3    H137646   5.622   2.791   0.509 -0.7817  0.9317 -0.2320
 5337TIP3    H237647   5.532   2.841   0.620  0.6524  0.1677  1.3054
 5338TIP3   OH237648   1.677   5.490   1.234  0.2857  0.3543  0.4928
 5338TIP3    H137649   1.677   5.584   1.252  2.0687  0.8357 -1.5955
 5338TIP3    H237650   1.603   5.478   1.175 -0.7035  0.1871  1.7316
 5339TIP3   OH237651   4.031   0.705   0.380 -0.0237 -0.5844  0.9383
 5339TIP3    H137652   3.981   0.727   0.458 -2.0292 -0.9755 -0.1616
 5339TIP3    H237653   4.010   0.613   0.362  0.6891 -0.6104  0.1579
 5340TIP3   OH237654   2.583   3.288   2.241  0.3498  0.0083 -0.3403
 5340TIP3    H137655   2.533   3.243   2.310 -1.0754  0.8682 -0.7540
 5340TIP3    H237656   2.556   3.244   2.160  1.1154 -0.2152 -0.4852
 5341TIP3   OH237657   1.851   6.841   7.934 -0.2523  0.1789  0.5302
 5341TIP3    H137658   1.882   6.908   7.994 -0.1100  1.5834 -1.0148
 5341TIP3    H237659   1.849   6.885   7.849  0.3143 -1.9338 -0.6401
 5342TIP3   OH237660   3.382   2.466   0.949 -0.3916  0.0144 -0.6991
 5342TIP3    H137661   3.364   2.554   0.981 -1.0852 -0.1216 -0.7006
 5342TIP3    H237662   3.295   2.427   0.934 -0.0936 -0.5804 -0.9336
 5343TIP3   OH237663   4.744   5.779   8.232 -0.4724 -0.0134  0.3508
 5343TIP3    H137664   4.703   5.712   8.286  0.8732 -0.3344  1.0276
 5343TIP3    H237665   4.826   5.740   8.203  0.1055  1.1520  0.3384
 5344TIP3   OH237666   1.272   6.131   7.994  0.1948 -0.0138  0.2821
 5344TIP3    H137667   1.341   6.190   7.964  0.4576  0.0908  1.0707
 5344TIP3    H237668   1.231   6.177   8.067  0.8381 -1.0680  1.3451
 5345TIP3   OH237669   6.559   1.806   7.473 -0.4498 -0.4694 -0.7559
 5345TIP3    H137670   6.642   1.855   7.472 -1.5448  1.5738  0.9171
 5345TIP3    H237671   6.517   1.827   7.390  1.8871 -3.9568 -3.0852
 5346TIP3   OH237672   4.160   6.380   7.902 -0.2562 -0.1566 -0.7652
 5346TIP3    H137673   4.218   6.455   7.909  0.3846 -0.4006 -2.9645
 5346TIP3    H237674   4.075   6.413   7.931  0.0859  1.3297 -1.3623
 5347TIP3   OH237675   1.331   3.300   1.632  0.1282  0.3213  0.1251
 5347TIP3    H137676   1.361   3.385   1.664 -1.1943  0.8402  0.0583
 5347TIP3    H237677   1.394   3.276   1.565  0.7349  1.0694  0.4149
 5348TIP3   OH237678   3.928   1.846   1.257  0.2870 -0.3814  0.0242
 5348TIP3    H137679   3.853   1.835   1.315  1.5143 -2.8766  1.3041
 5348TIP3    H237680   3.934   1.764   1.209  0.6825  0.7773 -2.0363
 5349TIP3   OH237681   0.016   5.896   1.283 -0.0174  0.4261 -0.1186
 5349TIP3    H137682   0.039   5.962   1.218  1.2665 -0.4682 -0.6007
 5349TIP3    H237683   0.100   5.859   1.311 -0.6633 -0.4512  0.7377
 5350TIP3   OH237684   3.289   6.857   1.485  0.9248  0.3027  0.0336
 5350TIP3    H137685   3.290   6.791   1.554 -1.9639  0.1693  0.0722
 5350TIP3    H237686   3.281   6.807   1.404  1.1504  0.5592 -0.1503
 5351TIP3   OH237687   0.715   4.451   1.398  0.2298  0.1120 -0.1830
 5351TIP3    H137688   0.686   4.528   1.447  0.7376  0.9542 -1.1618
 5351TIP3    H237689   0.757   4.487   1.319 -0.3323 -1.1795 -1.1135
 5352TIP3   OH237690   3.515   3.535   0.686 -0.6855  0.0174  0.7146
 5352TIP3    H137691   3.578   3.549   0.757 -0.3084  0.3772  0.3173
 5352TIP3    H237692   3.517   3.441   0.671  1.6798  0.2559 -0.9880
 5353TIP3   OH237693   5.899   2.096   7.601  0.4944 -0.4711  0.4125
 5353TIP3    H137694   5.991   2.074   7.617  0.3218 -0.3432  1.6812
 5353TIP3    H237695   5.882   2.066   7.511  1.8658 -0.1737  0.0286
 5354TIP3   OH237696   2.568   5.041   7.801 -0.4657  0.3549  0.2687
 5354TIP3    H137697   2.624   5.119   7.808  1.3154 -0.6168 -1.9583
 5354TIP3    H237698   2.622   4.970   7.836 -1.3979 -0.2039  0.6093
 5355TIP3   OH237699   0.339   0.702   0.061  0.1942  0.3481 -0.2194
 5355TIP3    H137700   0.379   0.633   0.008  0.0437 -0.3477  0.5443
 5355TIP3    H237701   0.245   0.682   0.061  0.0519  0.9916 -0.6095
 5356TIP3   OH237702   4.819   1.514   1.972 -0.1427 -0.4348  0.2672
 5356TIP3    H137703   4.829   1.604   2.003 -0.5820 -0.5880  0.8614
 5356TIP3    H237704   4.853   1.516   1.882  1.3956 -0.0381  0.8269
 5357TIP3   OH237705   5.304   1.200   7.580  0.6432 -0.6136  0.4559
 5357TIP3    H137706   5.326   1.226   7.670 -1.2125  0.2438  0.7129
 5357TIP3    H237707   5.352   1.262   7.525 -0.0740  0.4355  0.9624
 5358TIP3   OH237708   2.103   2.125   7.162 -0.4155 -0.7438  0.5480
 5358TIP3    H137709   2.137   2.194   7.219  0.0149  0.3467 -0.9299
 5358TIP3    H237710   2.166   2.054   7.169  0.8866  0.2798 -0.2611
 5359TIP3   OH237711   3.440   0.647   7.340  0.2462  0.4775 -0.3188
 5359TIP3    H137712   3.379   0.715   7.310  1.6890  0.8758 -2.5443
 5359TIP3    H237713   3.429   0.576   7.277  1.1844  0.0254  0.0164
 5360TIP3   OH237714   2.544   4.923   2.367 -0.1630  0.3774  0.5546
 5360TIP3    H137715   2.489   4.909   2.444 -0.4824  0.0830  0.2734
 5360TIP3    H237716   2.566   4.835   2.337  0.0128  0.4926  0.3493
 5361TIP3   OH237717   6.252   6.870   8.424  0.0452  0.1670 -0.0949
 5361TIP3    H137718   6.326   6.829   8.379 -0.1400 -0.0723 -0.1856
 5361TIP3    H237719   6.241   6.818   8.503 -0.3916 -0.1629 -0.3658
 5362TIP3   OH237720   4.956   5.904   1.452 -0.8355 -0.2895 -0.5688
 5362TIP3    H137721   4.880   5.869   1.405 -1.4992  0.8156 -0.3331
 5362TIP3    H237722   4.921   5.972   1.508  0.3483  0.3262 -0.5461
 5363TIP3   OH237723   4.017   2.040   2.741  0.2054  0.4940  0.4825
 5363TIP3    H137724   3.981   1.952   2.732  1.3778 -0.1398  1.7215
 5363TIP3    H237725   4.076   2.050   2.666  0.6332 -0.0737  0.7375
 5364TIP3   OH237726   1.255   2.163   2.661  0.1435  0.2538 -0.4161
 5364TIP3    H137727   1.289   2.235   2.715  1.0575 -0.6847  0.2941
 5364TIP3    H237728   1.193   2.118   2.719  0.1181  0.0407 -0.6082
 5365TIP3   OH237729   2.428   3.094   2.391 -0.6512 -0.2518 -0.4089
 5365TIP3    H137730   2.423   3.085   2.486  1.0847  0.9296 -0.1540
 5365TIP3    H237731   2.338   3.108   2.363 -1.2503 -1.1210  0.9896
 5366TIP3   OH237732   1.905   5.416   0.334  0.0642  0.5088 -0.2894
 5366TIP3    H137733   1.901   5.344   0.271  1.1574  1.5379 -1.5980
 5366TIP3    H237734   1.997   5.442   0.335  0.1267  0.4393  1.8944
 5367TIP3   OH237735   2.090   3.277   7.091  0.0724  0.0130  0.4307
 5367TIP3    H137736   2.026   3.315   7.151  0.5981 -0.1046  1.0818
 5367TIP3    H237737   2.103   3.344   7.024 -0.3019  0.2693  0.6126
 5368TIP3   OH237738   2.592   5.657   1.651  0.4509  0.5377  0.3520
 5368TIP3    H137739   2.595   5.609   1.568 -0.3859  1.2551 -0.1001
 5368TIP3    H237740   2.504   5.640   1.685 -0.4137  2.8695 -0.5206
 5369TIP3   OH237741   1.113   2.283   0.840 -0.0682 -0.2729  0.3494
 5369TIP3    H137742   1.074   2.245   0.762 -1.4463 -0.2012  0.9784
 5369TIP3    H237743   1.051   2.263   0.910  0.1122  1.4653  1.0487
 5370TIP3   OH237744   2.063   3.361   0.305  0.7175 -0.5173  0.6449
 5370TIP3    H137745   1.992   3.414   0.341  2.0782  0.0259  2.6976
 5370TIP3    H237746   2.120   3.423   0.260 -0.4908 -1.0758 -1.8585
 5371TIP3   OH237747   5.627   4.843   2.226  0.0919 -0.2975  0.2236
 5371TIP3    H137748   5.665   4.925   2.260  2.8169 -0.9777 -0.8658
 5371TIP3    H237749   5.669   4.774   2.278 -1.3691 -1.0537  0.4280
 5372TIP3   OH237750   5.084   1.279   0.557  0.2551 -0.5635 -0.0524
 5372TIP3    H137751   5.112   1.232   0.636 -1.1510 -1.1847  0.0912
 5372TIP3    H237752   5.043   1.212   0.502 -1.4352  0.3933 -0.0149
 5373TIP3   OH237753   3.255   3.393   0.728  0.0743 -0.1949  0.4344
 5373TIP3    H137754   3.268   3.429   0.640 -0.3824 -0.4776  0.2500
 5373TIP3    H237755   3.257   3.470   0.785 -1.6560  0.2502 -0.0338
 5374TIP3   OH237756   6.784   6.948   1.418  0.6378  0.4714 -0.8530
 5374TIP3    H137757   6.819   7.010   1.482 -1.8112 -0.1153  1.2429
 5374TIP3    H237758   6.820   6.977   1.334  1.5462  3.1959  0.3594
 5375TIP3   OH237759   5.155   3.693   0.745 -0.1023  0.1696  0.3826
 5375TIP3    H137760   5.118   3.780   0.761 -1.0390 -0.0496 -0.4576
 5375TIP3    H237761   5.164   3.655   0.832 -0.4889  0.7913  0.7096
 5376TIP3   OH237762   1.030   1.951   2.251 -0.8783  0.0757  0.4519
 5376TIP3    H137763   0.965   1.909   2.195 -1.1974  1.0643  0.0643
 5376TIP3    H237764   0.989   1.956   2.337 -0.4427 -1.3173  0.7728
 5377TIP3   OH237765   2.452   6.687   1.929  0.4599  0.0484  0.1950
 5377TIP3    H137766   2.402   6.674   2.009  2.5610 -1.9387  1.3363
 5377TIP3    H237767   2.420   6.619   1.869 -0.3293  0.7980 -0.2423
 5378TIP3   OH237768   0.741   0.606   8.090  0.1447  0.0302  0.1220
 5378TIP3    H137769   0.774   0.518   8.104  1.3219  0.0025 -2.2729
 5378TIP3    H237770   0.819   0.660   8.076 -0.6253  0.9481 -0.8299
 5379TIP3   OH237771   5.482   2.466   0.208  0.4109 -0.1055  0.4066
 5379TIP3    H137772   5.548   2.465   0.138  0.2837  0.9767  0.2619
 5379TIP3    H237773   5.531   2.445   0.287  0.8393  0.1797  0.2237
 5380TIP3   OH237774   1.222   3.051   7.611  0.0021  0.1418 -0.1949
 5380TIP3    H137775   1.156   3.061   7.679 -0.2678 -0.0835 -0.4208
 5380TIP3    H237776   1.185   2.985   7.551  0.6308 -0.3346 -0.0737
 5381TIP3   OH237777   0.198   5.636   8.128 -0.7322 -0.6444  0.0358
 5381TIP3    H137778   0.135   5.577   8.170  2.3163 -3.3125  1.2303
 5381TIP3    H237779   0.181   5.625   8.035 -2.2993 -0.9146  0.3084
 5382TIP3   OH237780   6.983   6.313   2.409 -0.1579  0.0874  0.3584
 5382TIP3    H137781   7.044   6.266   2.466  1.4609 -1.1017 -2.1764
 5382TIP3    H237782   6.899   6.267   2.421  0.5520 -1.1926  0.5690
 5383TIP3   OH237783   3.797   4.059   2.345 -0.0982 -0.0562 -0.5761
 5383TIP3    H137784   3.712   4.074   2.386  0.5080 -2.5559  1.9674
 5383TIP3    H237785   3.777   4.041   2.253 -2.3709 -0.8427  0.0025
 5384TIP3   OH237786   5.674   2.480   1.095 -0.5623 -0.2280 -0.3074
 5384TIP3    H137787   5.697   2.405   1.149 -0.7328  0.1103  0.2411
 5384TIP3    H237788   5.579   2.474   1.086 -0.5721 -0.0953 -0.2909
 5385TIP3   OH237789   1.987   1.880   0.895  0.9735  0.3723  0.2876
 5385TIP3    H137790   1.957   1.867   0.805  1.0702 -1.6014  0.4905
 5385TIP3    H237791   1.907   1.881   0.947  0.9989 -1.1290  0.4188
 5386TIP3   OH237792   5.813   5.939   0.465  0.7993 -0.1455 -0.1628
 5386TIP3    H137793   5.740   5.949   0.404  0.0267  2.2890  1.0188
 5386TIP3    H237794   5.802   5.851   0.501  0.2018 -0.9366 -2.1081
 5387TIP3   OH237795   0.011   5.137   0.539 -0.2729  0.4511  0.0476
 5387TIP3    H137796   0.050   5.061   0.581 -0.3508  1.1481  1.4184
 5387TIP3    H237797  -0.069   5.104   0.499  0.7230 -0.6016 -1.1683
 5388TIP3   OH237798   0.734   0.719   0.360  0.0621 -0.0912 -0.3311
 5388TIP3    H137799   0.651   0.751   0.396  0.3695  0.1536  0.1739
 5388TIP3    H237800   0.709   0.656   0.293 -0.5536  0.8402 -1.0031
 5389TIP3   OH237801   6.517   2.188   8.144  0.0964  0.2559  0.1022
 5389TIP3    H137802   6.595   2.234   8.114 -2.0356  2.3253 -2.9353
 5389TIP3    H237803   6.547   2.101   8.170  3.4982  1.3718  0.3009
 5390TIP3   OH237804   2.387   4.772   0.118 -0.0350  0.2203 -0.2585
 5390TIP3    H137805   2.417   4.822   0.194  1.7965  2.8919 -2.5345
 5390TIP3    H237806   2.309   4.818   0.088 -0.0434 -0.0739 -0.6891
 5391TIP3   OH237807   4.191   3.943   0.842 -0.0727  0.2225  0.2951
 5391TIP3    H137808   4.245   3.864   0.845  0.8963  0.8591  0.0239
 5391TIP3    H237809   4.105   3.912   0.812  0.5304 -0.6075 -0.6662
 5392TIP3   OH237810   2.287   3.103   7.210  0.2655  0.3226 -0.2586
 5392TIP3    H137811   2.329   3.028   7.168  0.1915  0.3694 -0.4206
 5392TIP3    H237812   2.252   3.154   7.137  1.6195  1.3056 -0.2384
 5393TIP3   OH237813   6.290   5.306   7.553  0.0226 -0.0314  0.0885
 5393TIP3    H137814   6.263   5.227   7.599 -1.4566  0.1935 -0.3509
 5393TIP3    H237815   6.236   5.309   7.475  1.7664  0.1485 -1.1746
 5394TIP3   OH237816   0.620   4.146   7.630  0.2304  0.2955  1.0751
 5394TIP3    H137817   0.709   4.118   7.611 -0.7441 -2.0876 -0.5286
 5394TIP3    H237818   0.587   4.182   7.547 -1.5983 -2.9751  0.1896
 5395TIP3   OH237819   3.269   0.270   1.030 -0.1313 -0.1805 -0.3146
 5395TIP3    H137820   3.260   0.296   0.939 -1.8041 -0.7657 -0.3478
 5395TIP3    H237821   3.364   0.267   1.045  0.1522  1.2876 -1.6110
 5396TIP3   OH237822   2.144   2.197   0.619  0.4027 -0.3254 -0.0184
 5396TIP3    H137823   2.062   2.175   0.576  0.3039  0.3200 -0.1714
 5396TIP3    H237824   2.120   2.211   0.711  0.2227  0.5349 -0.1949
 5397TIP3   OH237825   5.294   5.089   1.102 -0.3086  0.0729  0.4209
 5397TIP3    H137826   5.233   5.150   1.061  1.1780  0.5783 -1.1892
 5397TIP3    H237827   5.250   5.061   1.183 -1.8871  1.7189  0.1993
 5398TIP3   OH237828   4.438   3.311   7.380 -0.2603 -0.2083 -0.1950
 5398TIP3    H137829   4.381   3.311   7.304 -0.6620 -0.9044  0.0973
 5398TIP3    H237830   4.524   3.338   7.346  0.5279 -3.9726 -1.6622
 5399TIP3   OH237831   6.478   4.787   3.344 -0.7285 -0.8293 -0.0072
 5399TIP3    H137832   6.568   4.762   3.363 -0.7481 -0.8757  0.0242
 5399TIP3    H237833   6.460   4.749   3.258 -0.3394  0.1513 -0.5415
 5400TIP3   OH237834   6.717   1.267   8.188 -0.2218  0.7453  0.4115
 5400TIP3    H137835   6.704   1.321   8.110  1.6757  0.6105 -0.0435
 5400TIP3    H237836   6.791   1.308   8.233 -0.7517  0.3227  1.7154
 5401TIP3   OH237837   3.049   2.833   0.373  0.7458  0.1744 -0.0113
 5401TIP3    H137838   3.011   2.839   0.461  4.1374 -0.1394  1.6019
 5401TIP3    H237839   3.063   2.740   0.359  2.5650  0.3864  0.2448
 5402TIP3   OH237840   5.697   3.759   2.647 -0.4898  0.6949 -0.4086
 5402TIP3    H137841   5.663   3.742   2.735 -2.3284  0.2704 -1.1583
 5402TIP3    H237842   5.790   3.776   2.661 -0.9918  2.1478  1.7875
 5403TIP3   OH237843   4.154   3.703   1.688 -0.5805  0.0390  0.8879
 5403TIP3    H137844   4.158   3.768   1.617 -0.0244  0.5269  1.3544
 5403TIP3    H237845   4.134   3.754   1.766 -1.4167 -0.5279  1.0507
 5404TIP3   OH237846   4.958   3.469   8.216 -0.6460  0.4039  0.0223
 5404TIP3    H137847   4.977   3.438   8.127  1.2265 -0.9918  0.8414
 5404TIP3    H237848   4.984   3.561   8.215  0.3487  0.1401 -0.6209
 5405TIP3   OH237849   4.105   6.027   0.174 -0.1601  0.3108  0.4540
 5405TIP3    H137850   4.160   6.024   0.252  0.8230 -1.8423 -0.2368
 5405TIP3    H237851   4.166   6.045   0.102 -0.8516  0.9478  0.0044
 5406TIP3   OH237852   5.493   2.118   0.397  0.7538 -0.3973 -0.1832
 5406TIP3    H137853   5.564   2.179   0.418 -0.0041  0.5014 -0.1501
 5406TIP3    H237854   5.482   2.125   0.303  0.4161 -0.1884 -0.1311
 5407TIP3   OH237855   6.052   0.929   7.543 -0.6351  0.2227 -0.0783
 5407TIP3    H137856   6.084   0.918   7.454 -0.5815  0.7616 -0.1308
 5407TIP3    H237857   6.017   0.843   7.568  0.8537 -0.4036 -0.0215
 5408TIP3   OH237858   3.652   5.855   7.590  0.4227 -0.5071 -0.4643
 5408TIP3    H137859   3.557   5.855   7.598  0.4800 -0.9410  0.3246
 5408TIP3    H237860   3.669   5.885   7.500 -0.4383 -0.0221 -0.4678
 5409TIP3   OH237861   6.091   1.910   2.307  0.4707  0.0317 -0.1440
 5409TIP3    H137862   6.077   1.896   2.401 -0.5577 -1.1097 -0.4291
 5409TIP3    H237863   6.110   1.822   2.273  0.7350  0.4211 -1.0100
 5410TIP3   OH237864   5.895   0.524   2.524  0.3521  0.2297  0.2446
 5410TIP3    H137865   5.969   0.565   2.480  0.3864 -0.4850 -0.3770
 5410TIP3    H237866   5.908   0.544   2.617  0.5055  1.3935 -0.0119
 5411TIP3   OH237867   0.238   4.226   1.606  0.8998  0.0259  0.5316
 5411TIP3    H137868   0.277   4.156   1.554  0.8956  0.9256 -0.7368
 5411TIP3    H237869   0.157   4.249   1.559  0.5054  0.3557  1.3493
 5412TIP3   OH237870   5.274   0.127   1.016  0.2003 -0.0260  0.1406
 5412TIP3    H137871   5.194   0.161   1.057 -0.0177 -0.5064  0.1170
 5412TIP3    H237872   5.295   0.191   0.948  0.6059  0.8216  1.0380
 5413TIP3   OH237873   6.672   1.967   6.795 -0.2684 -0.4303 -0.2707
 5413TIP3    H137874   6.591   1.943   6.749 -0.0876  0.0301 -0.8419
 5413TIP3    H237875   6.646   2.035   6.857 -0.2489  0.0104 -0.7428
 5414TIP3   OH237876   2.060   5.679   7.560 -0.0824 -0.0721 -0.2705
 5414TIP3    H137877   1.999   5.670   7.633 -1.9386  0.9854 -1.5882
 5414TIP3    H237878   2.027   5.618   7.494  0.8721 -0.1755 -0.6737
 5415TIP3   OH237879   6.449   2.647   0.643 -0.3404  0.3278 -0.3213
 5415TIP3    H137880   6.415   2.558   0.643 -0.9726  0.5589 -0.6466
 5415TIP3    H237881   6.491   2.657   0.728 -0.9448 -0.0338  0.0299
 5416TIP3   OH237882   3.008   3.193   2.259  0.3034 -0.4361 -0.0040
 5416TIP3    H137883   2.962   3.141   2.193  1.2429  1.2086 -2.1036
 5416TIP3    H237884   2.957   3.273   2.266  1.3786  0.3073 -0.4049
 5417TIP3   OH237885   1.736   6.728   6.872 -0.4701 -0.1832 -0.6712
 5417TIP3    H137886   1.774   6.748   6.786  1.5276 -0.5863  0.0692
 5417TIP3    H237887   1.685   6.805   6.895  0.0925  0.4897 -1.6269
 5418TIP3   OH237888   3.974   1.269   2.892 -0.2375  0.3317 -0.3385
 5418TIP3    H137889   3.985   1.358   2.924  0.2248  0.9297 -2.1030
 5418TIP3    H237890   4.055   1.225   2.917 -0.7421  0.1771  1.1388
 5419TIP3   OH237891   1.915   1.823   8.273 -0.3997  0.2908 -0.8606
 5419TIP3    H137892   1.913   1.740   8.226  0.0103 -1.2206  1.5899
 5419TIP3    H237893   1.968   1.881   8.218 -0.7600 -1.0199 -2.6736
 5420TIP3   OH237894   0.515   5.786   1.925 -0.0852 -0.4063 -0.2392
 5420TIP3    H137895   0.573   5.735   1.868  1.1106  1.3806 -0.6992
 5420TIP3    H237896   0.565   5.865   1.944 -1.1874 -0.1731  1.8732
 5421TIP3   OH237897   6.949   3.144   1.198 -0.5538 -0.3673  0.4254
 5421TIP3    H137898   6.871   3.088   1.196 -0.1596 -0.9106 -0.3275
 5421TIP3    H237899   7.019   3.089   1.161 -0.0244  0.4266  0.2236
 5422TIP3   OH237900   4.679   6.562   2.130  0.0250  0.2805  0.5535
 5422TIP3    H137901   4.675   6.613   2.211  1.4707  1.1438  0.1260
 5422TIP3    H237902   4.766   6.580   2.094  0.1080 -1.4896 -0.2926
 5423TIP3   OH237903   5.658   4.705   7.512  0.0836 -0.1272 -0.3414
 5423TIP3    H137904   5.701   4.646   7.574 -1.0287 -2.2931 -1.5412
 5423TIP3    H237905   5.571   4.719   7.548 -0.7370 -1.7812 -1.5769
 5424TIP3   OH237906   0.295   4.664   0.903  0.4658 -0.0046 -0.7698
 5424TIP3    H137907   0.214   4.701   0.937  0.0012 -0.1732 -1.6562
 5424TIP3    H237908   0.315   4.717   0.826  2.5818  1.6568  0.8196
 5425TIP3   OH237909   3.711   0.482   1.221 -0.1107  0.0278 -0.3450
 5425TIP3    H137910   3.649   0.528   1.278  1.9733  0.3518  1.7826
 5425TIP3    H237911   3.770   0.436   1.281  0.7469 -1.6114 -2.3211
 5426TIP3   OH237912   1.942   3.706   0.626  0.1117 -0.6176 -0.0834
 5426TIP3    H137913   1.996   3.694   0.548  1.2313 -0.5254  0.6496
 5426TIP3    H237914   1.990   3.661   0.696  0.6915  1.7793  1.1869
 5427TIP3   OH237915   3.007   5.199   8.411  0.1000 -0.0262  0.0041
 5427TIP3    H137916   3.014   5.105   8.397  1.1945 -0.0126  0.3248
 5427TIP3    H237917   2.986   5.234   8.324  0.5908 -0.4940 -0.3150
 5428TIP3   OH237918   5.748   2.071   3.006  0.1678 -0.4623 -0.2536
 5428TIP3    H137919   5.687   2.118   3.064 -0.3507 -0.7635 -0.5483
 5428TIP3    H237920   5.779   2.137   2.944  2.0657  0.3004  1.3766
 5429TIP3   OH237921   4.147   3.471   2.815  0.1115 -0.0890  1.1213
 5429TIP3    H137922   4.144   3.567   2.812  2.1340 -0.0009  0.6529
 5429TIP3    H237923   4.206   3.451   2.887  1.6582 -0.8948 -0.3059
 5430TIP3   OH237924   5.187   3.283   8.107  0.3395  0.1374 -0.8165
 5430TIP3    H137925   5.118   3.225   8.138  2.9101 -2.2690  0.9463
 5430TIP3    H237926   5.179   3.283   8.012 -0.9320 -1.5669 -0.7509
 5431TIP3   OH237927   3.161   0.042   1.197  0.0884  0.1443 -0.1738
 5431TIP3    H137928   3.181   0.120   1.145 -0.5556 -0.2360 -1.0049
 5431TIP3    H237929   3.144   0.075   1.284  3.2603  0.6309  0.4006
 5432TIP3   OH237930   6.499   3.947   8.357 -0.6383 -0.1359  0.2386
 5432TIP3    H137931   6.578   3.967   8.407  0.0155  0.0956 -0.8539
 5432TIP3    H237932   6.516   3.861   8.318 -0.5779  0.2861 -0.6731
 5433TIP3   OH237933   5.241   2.397   7.241  0.0894  0.0541 -0.1615
 5433TIP3    H137934   5.214   2.383   7.150 -1.3544  1.7772 -0.0488
 5433TIP3    H237935   5.221   2.315   7.285 -4.2090  0.7922 -0.3326
 5434TIP3   OH237936   2.018   4.624   8.238 -0.6186 -0.0648  0.6525
 5434TIP3    H137937   1.983   4.536   8.254  1.3446 -0.8916  0.5898
 5434TIP3    H237938   1.964   4.658   8.166 -1.4655 -1.1722  0.7317
 5435TIP3   OH237939   4.120   4.663   1.159 -0.0411 -0.3861  0.0907
 5435TIP3    H137940   4.057   4.732   1.137  1.2656  0.4397 -1.3522
 5435TIP3    H237941   4.103   4.594   1.095  1.3059  0.4102 -1.2122
 5436TIP3   OH237942   2.948   3.546   8.063 -0.4765  0.1391 -0.5739
 5436TIP3    H137943   2.937   3.641   8.060  1.2398  0.3825 -0.4329
 5436TIP3    H237944   2.925   3.516   7.975 -1.1658  0.6504 -0.5772
 5437TIP3   OH237945   4.740   3.924   0.431 -0.5472  0.7229  0.6005
 5437TIP3    H137946   4.786   3.882   0.503 -1.5844  0.8617  1.3606
 5437TIP3    H237947   4.651   3.888   0.433 -0.5723  0.6489 -0.6727
 5438TIP3   OH237948   4.287   4.681   1.366  0.2005  0.1906  0.6788
 5438TIP3    H137949   4.220   4.674   1.434 -0.3250 -0.0469  0.1494
 5438TIP3    H237950   4.237   4.690   1.284  0.8162  0.0176  0.2779
 5439TIP3   OH237951   5.125   6.282   8.365 -0.3334 -0.2877 -0.5978
 5439TIP3    H137952   5.116   6.187   8.371 -0.0330 -0.2709  0.3199
 5439TIP3    H237953   5.213   6.300   8.398 -0.0777  0.2494 -1.5355
 5440TIP3   OH237954   5.739   2.369   6.851 -0.4789  0.0292  0.1258
 5440TIP3    H137955   5.761   2.277   6.867  0.7635  0.2057 -0.4003
 5440TIP3    H237956   5.672   2.366   6.784 -0.2427 -0.4988 -0.0951
 5441TIP3   OH237957   6.658   2.682   0.906  0.0511 -0.2548  0.2963
 5441TIP3    H137958   6.693   2.628   0.977  1.8190 -2.1902 -1.8677
 5441TIP3    H237959   6.736   2.714   0.860 -1.0171  2.0041 -0.1033
 5442TIP3   OH237960   2.095   0.086   7.666 -0.0555 -0.4690 -0.3247
 5442TIP3    H137961   2.125   0.024   7.732 -1.4892 -1.4939 -0.5921
 5442TIP3    H237962   2.173   0.104   7.612  0.3837 -2.0630 -0.2695
 5443TIP3   OH237963   6.875   0.695   0.332  0.4627 -0.6655 -0.5882
 5443TIP3    H137964   6.795   0.746   0.319  0.0346 -1.4144 -0.9609
 5443TIP3    H237965   6.931   0.751   0.385 -0.9974 -0.8204  1.1928
 5444TIP3   OH237966   6.839   4.639   8.337 -0.1664 -0.0353  0.2190
 5444TIP3    H137967   6.796   4.625   8.421 -0.1334  0.1166  0.2622
 5444TIP3    H237968   6.783   4.703   8.292 -0.3353 -0.3229  0.0111
 5445TIP3   OH237969   0.035   6.125   0.835  0.4644 -0.4042  0.3500
 5445TIP3    H137970   0.110   6.070   0.813  0.0770 -1.5306  1.7876
 5445TIP3    H237971  -0.041   6.073   0.811  0.1051  0.1664  0.2266
 5446TIP3   OH237972   2.625   1.682   0.488  0.5294  0.0059 -0.5215
 5446TIP3    H137973   2.699   1.683   0.426 -0.1107  1.4322 -1.3073
 5446TIP3    H237974   2.618   1.590   0.514  0.4464 -0.8091 -3.0617
 5447TIP3   OH237975   6.319   1.643   2.694 -0.8419 -0.0624 -0.5075
 5447TIP3    H137976   6.345   1.716   2.638  0.2422  0.0636  0.1077
 5447TIP3    H237977   6.334   1.676   2.783  2.8091 -1.9776 -0.1900
 5448TIP3   OH237978   1.526   5.623   7.271  0.6777 -0.3721  0.1153
 5448TIP3    H137979   1.528   5.717   7.254  1.5156 -0.5668 -0.9670
 5448TIP3    H237980   1.446   5.592   7.228  0.2350 -0.1168  0.7430
 5449TIP3   OH237981   3.152   3.467   3.092  0.0227 -0.3199 -0.1040
 5449TIP3    H137982   3.123   3.559   3.090 -1.2694 -0.6749  0.7722
 5449TIP3    H237983   3.247   3.472   3.083  0.0151  1.1251  0.2657
 5450TIP3   OH237984   6.714   1.930   2.422 -0.0215  0.0692  0.6876
 5450TIP3    H137985   6.767   1.974   2.488  0.6808  0.7977 -0.3367
 5450TIP3    H237986   6.763   1.940   2.341 -1.7183  0.7951 -0.3030
 5451TIP3   OH237987   3.034   2.371   2.075  0.3602  0.0761  0.6225
 5451TIP3    H137988   3.104   2.306   2.064 -0.6459 -1.0556  0.7755
 5451TIP3    H237989   3.037   2.423   1.995  0.9023 -0.4219  0.3135
 5452TIP3   OH237990   2.028   3.170   1.918 -0.4804  0.0091  0.2942
 5452TIP3    H137991   2.112   3.216   1.924 -0.4571  0.2275 -1.3109
 5452TIP3    H237992   2.004   3.153   2.009  0.5818  1.2439  0.8384
 5453TIP3   OH237993   2.570   6.940   8.441  0.3732  0.3890  0.9453
 5453TIP3    H137994   2.558   7.034   8.453  0.3392  0.4231  0.6432
 5453TIP3    H237995   2.487   6.902   8.468  0.0535  0.5195  0.1778
 5454TIP3   OH237996   6.041   2.137   3.390 -0.1057 -0.1413  0.1331
 5454TIP3    H137997   5.946   2.151   3.393 -0.0135  0.9331 -0.8775
 5454TIP3    H237998   6.064   2.110   3.478 -1.4480 -1.1439  0.2240
 5455TIP3   OH237999   1.809   4.614   0.865 -0.0521  0.4912 -0.0421
 5455TIP3    H138000   1.770   4.529   0.845  0.4270 -0.3630  2.2997
 5455TIP3    H238001   1.864   4.598   0.942 -0.4798  3.0433  0.9188
 5456TIP3   OH238002   4.222   0.649   8.458 -0.3853 -0.1482  0.0645
 5456TIP3    H138003   4.144   0.702   8.443 -0.2574  0.2631  0.8176
 5456TIP3    H238004   4.243   0.663   8.550  1.5105  0.9923 -0.4933
 5457TIP3   OH238005   6.043   3.660   1.266  0.6440  0.3709  0.1999
 5457TIP3    H138006   6.096   3.662   1.187  0.8917  1.1943  0.3817
 5457TIP3    H238007   6.056   3.571   1.301 -0.6521 -0.5119 -1.4543
 5458TIP3   OH238008   2.124   2.193   1.717  0.1735 -0.3568  0.5079
 5458TIP3    H138009   2.193   2.162   1.658  0.3696 -0.7862  0.9465
 5458TIP3    H238010   2.143   2.149   1.800  0.5884  1.1241  1.2216
 5459TIP3   OH238011   1.069   3.555   3.054  0.0887 -0.1038 -0.2362
 5459TIP3    H138012   1.096   3.618   2.987 -2.2625  1.2131 -0.0670
 5459TIP3    H238013   1.135   3.561   3.122  0.6788  1.1391 -0.8892
 5460TIP3   OH238014   1.945   1.492   2.230  0.2143 -0.5174  0.6727
 5460TIP3    H138015   1.897   1.569   2.260  1.8940  1.2926 -0.9461
 5460TIP3    H238016   1.888   1.450   2.166 -0.6621 -0.5641  1.4735
 5461TIP3   OH238017   5.825   3.975   1.644 -0.0977  0.2363 -0.1163
 5461TIP3    H138018   5.738   4.009   1.623 -0.7863 -0.8944  0.7834
 5461TIP3    H238019   5.845   3.913   1.574  0.3869  1.1536 -0.8037
 5462TIP3   OH238020   1.557   6.809   2.460 -0.2897 -0.6536 -0.3623
 5462TIP3    H138021   1.615   6.794   2.534  0.5171  0.0693 -0.8328
 5462TIP3    H238022   1.470   6.820   2.500 -0.1546 -1.9443  0.3230
 5463TIP3   OH238023   0.314   6.026   8.208 -0.0966  0.2209 -0.3274
 5463TIP3    H138024   0.341   6.113   8.235 -0.9521  0.2807  0.3677
 5463TIP3    H238025   0.263   5.992   8.281  3.2061 -2.3431  1.0839
 5464TIP3   OH238026   2.021   3.966   0.764  0.0763  0.1771 -0.4835
 5464TIP3    H138027   2.017   3.885   0.815  0.2235  0.6298  0.2747
 5464TIP3    H238028   2.099   3.957   0.710  0.5432  0.1454  0.1890
 5465TIP3   OH238029   2.643   4.656   0.642  0.3258  0.1336 -0.3800
 5465TIP3    H138030   2.666   4.563   0.646 -0.8299 -0.1733 -0.4833
 5465TIP3    H238031   2.585   4.669   0.717  0.2343  0.7030 -0.5493
 5466TIP3   OH238032   6.295   5.084   2.081  0.1459  0.5768 -0.1533
 5466TIP3    H138033   6.213   5.087   2.129  0.0452  0.7442 -0.3360
 5466TIP3    H238034   6.272   5.045   1.997 -0.2091  2.7631 -1.1325
 5467TIP3   OH238035   5.945   1.668   1.694  0.5919 -0.2866 -0.3716
 5467TIP3    H138036   5.921   1.660   1.786 -1.3608 -0.3970 -0.8527
 5467TIP3    H238037   5.981   1.582   1.670  0.5020 -0.4575  0.1117
 5468TIP3   OH238038   3.392   2.300   8.126 -0.3984 -0.0930 -0.1629
 5468TIP3    H138039   3.447   2.225   8.147  0.5299  0.1020 -1.6979
 5468TIP3    H238040   3.313   2.262   8.087 -1.7207 -0.4058  2.6328
 5469TIP3   OH238041   3.677   2.328   0.494  0.8738 -0.0056 -0.3253
 5469TIP3    H138042   3.738   2.397   0.521  0.0119 -0.3804  3.0107
 5469TIP3    H238043   3.663   2.344   0.400  0.7733  4.3197  0.2139
 5470TIP3   OH238044   4.853   1.919   2.804 -0.3104 -0.7037  0.5602
 5470TIP3    H138045   4.760   1.900   2.813 -0.9121  1.3354 -0.5509
 5470TIP3    H238046   4.888   1.917   2.893 -2.0186  1.0886  1.3445
 5471TIP3   OH238047   0.643   1.593   1.800 -0.6612  0.2655 -0.2327
 5471TIP3    H138048   0.716   1.625   1.747 -1.1041 -0.5108 -1.3399
 5471TIP3    H238049   0.684   1.565   1.882 -0.1302  2.6934  0.4275
 5472TIP3   OH238050   6.280   6.109   0.835 -0.0533  0.1843 -0.2515
 5472TIP3    H138051   6.332   6.187   0.814 -0.5334  0.4980 -0.2976
 5472TIP3    H238052   6.335   6.059   0.895  0.1004  0.7612  0.1038
 5473TIP3   OH238053   5.204   4.589   0.011 -0.1538 -0.2208  0.0341
 5473TIP3    H138054   5.126   4.534   0.002  0.4149 -1.1403  0.5075
 5473TIP3    H238055   5.259   4.541   0.073  0.0527  1.2542  1.0264
 5474TIP3   OH238056   1.073   6.989   1.071  0.2755  0.4297  0.3601
 5474TIP3    H138057   1.081   6.895   1.082 -0.8003  0.2060 -0.5903
 5474TIP3    H238058   0.979   7.006   1.069  0.3624  1.9223  3.4351
 5475TIP3   OH238059   3.456   5.159   1.475 -0.0889  0.2559 -0.3638
 5475TIP3    H138060   3.451   5.094   1.406  1.7323  1.2587 -1.5061
 5475TIP3    H238061   3.544   5.152   1.510  0.7388  3.0246 -1.5707
 5476TIP3   OH238062   3.204   5.589   0.500  0.3189  0.0039 -0.2385
 5476TIP3    H138063   3.150   5.652   0.547  0.3801  0.4888 -0.8119
 5476TIP3    H238064   3.290   5.594   0.542  0.6899  1.2447 -1.1066
 5477TIP3   OH238065   4.761   5.323   8.340 -0.1336 -0.0479  0.2778
 5477TIP3    H138066   4.780   5.238   8.301 -0.8457 -0.6474  1.1988
 5477TIP3    H238067   4.753   5.306   8.434  0.7841  1.2259  0.6222
 5478TIP3   OH238068   0.334   0.403   3.039  1.0131 -0.5811 -0.1588
 5478TIP3    H138069   0.291   0.334   3.090  0.5445  0.3222  0.7177
 5478TIP3    H238070   0.353   0.363   2.955 -1.0201 -1.2172 -0.3628
 5479TIP3   OH238071   3.979   2.543   7.523  0.7730 -0.4737 -0.7821
 5479TIP3    H138072   4.022   2.598   7.458  1.4950 -0.5171 -0.3495
 5479TIP3    H238073   4.051   2.507   7.576  0.1465  0.5059  0.8020
 5480TIP3   OH238074   2.689   5.675   1.242 -0.2191  0.2965  0.5186
 5480TIP3    H138075   2.692   5.763   1.280  1.9529  0.6019 -0.2576
 5480TIP3    H238076   2.642   5.687   1.159  2.4826  1.3695 -0.9726
 5481TIP3   OH238077   4.553   6.726   2.813 -0.3026  0.2106  0.6869
 5481TIP3    H138078   4.526   6.782   2.740  0.1129 -1.1564 -0.5770
 5481TIP3    H238079   4.484   6.738   2.879 -2.5973 -1.0241 -1.2963
 5482TIP3   OH238080   2.133   4.894   1.815  0.3621 -0.5182 -0.3596
 5482TIP3    H138081   2.140   4.989   1.804  0.9769 -0.2295  1.9208
 5482TIP3    H238082   2.207   4.858   1.767  1.1387  0.3232  0.1693
 5483TIP3   OH238083   0.564   4.495   8.442  0.3988 -0.4933 -0.1714
 5483TIP3    H138084   0.537   4.513   8.352  1.6909  0.6336 -0.3788
 5483TIP3    H238085   0.599   4.406   8.439 -1.2764 -1.1811 -0.3338
 5484TIP3   OH238086   4.166   4.067   7.448 -0.0900  0.2486  0.4938
 5484TIP3    H138087   4.214   4.123   7.387 -0.5423 -1.6528 -1.7715
 5484TIP3    H238088   4.224   3.992   7.463 -0.8913 -0.3694  0.5924
 5485TIP3   OH238089   0.657   4.711   0.556 -0.1822 -0.0153  0.1570
 5485TIP3    H138090   0.605   4.772   0.504  1.6346  2.0566  0.6203
 5485TIP3    H238091   0.672   4.757   0.638  0.9711 -1.2603  0.6853
 5486TIP3   OH238092   4.195   3.858   0.038  0.1130 -0.6501 -0.4009
 5486TIP3    H138093   4.276   3.822   0.003 -0.8777 -1.2473 -2.1842
 5486TIP3    H238094   4.206   3.953   0.035  0.3481 -0.7128 -1.6227
 5487TIP3   OH238095   5.193   3.568   7.685 -0.1202  0.3042  0.4446
 5487TIP3    H138096   5.259   3.540   7.749 -0.6647 -1.4070  0.3268
 5487TIP3    H238097   5.222   3.527   7.603  0.0439  1.6661 -0.1959
 5488TIP3   OH238098   1.172   0.288   0.639  0.4481  0.1365 -0.0433
 5488TIP3    H138099   1.098   0.264   0.584 -1.2876  1.5982  1.5311
 5488TIP3    H238100   1.170   0.226   0.711 -0.1499  1.0494  0.7428
 5489TIP3   OH238101   2.469   2.498   8.222  0.2073  0.0474 -0.5585
 5489TIP3    H138102   2.419   2.450   8.289  0.3384  1.9507  1.0094
 5489TIP3    H238103   2.557   2.505   8.258  0.7951 -0.5550 -1.8483
 5490TIP3   OH238104   3.977   6.826   0.584 -0.3046  0.5810 -0.1905
 5490TIP3    H138105   3.940   6.774   0.655  0.9918 -1.3964 -0.8668
 5490TIP3    H238106   4.030   6.892   0.628  0.7115 -0.7885  0.7407
 5491TIP3   OH238107   3.350   2.391   2.948 -0.1298 -0.0126  0.5459
 5491TIP3    H138108   3.295   2.457   2.991 -0.3358  0.3936 -0.3101
 5491TIP3    H238109   3.353   2.318   3.009 -1.9533 -0.2029  0.4450
 5492TIP3   OH238110   1.411   0.513   8.234  0.1154 -0.4245 -0.3147
 5492TIP3    H138111   1.491   0.548   8.274  1.0844 -1.4827 -1.2362
 5492TIP3    H238112   1.387   0.577   8.168  0.0792 -0.0075  0.0977
 5493TIP3   OH238113   4.111   1.604   7.874 -0.6403 -0.3150  0.2051
 5493TIP3    H138114   4.202   1.581   7.857 -0.4277  1.0555 -0.5951
 5493TIP3    H238115   4.100   1.590   7.968  0.4066 -0.4291  0.3189
 5494TIP3   OH238116   2.660   0.255   0.844  0.0609 -0.3200  0.2732
 5494TIP3    H138117   2.685   0.250   0.937 -0.6485  1.8956  0.6534
 5494TIP3    H238118   2.606   0.178   0.830 -1.0575  0.0513  2.1308
 5495TIP3   OH238119   3.178   4.126   1.073 -0.4041  0.1456  1.0293
 5495TIP3    H138120   3.253   4.133   1.131 -0.8294 -1.1013  1.7617
 5495TIP3    H238121   3.216   4.122   0.985  0.3200  0.4675  1.3186
 5496TIP3   OH238122   0.984   4.878   8.239 -0.4619 -0.2061  0.5107
 5496TIP3    H138123   1.067   4.837   8.213 -1.1852 -0.7909 -0.9487
 5496TIP3    H238124   0.979   4.957   8.186 -1.9440 -1.3990 -1.2178
 5497TIP3   OH238125   3.419   5.400   1.671 -0.3691 -0.4849  0.0852
 5497TIP3    H138126   3.405   5.361   1.757  0.5399 -1.1359 -0.0416
 5497TIP3    H238127   3.433   5.324   1.613  0.3378 -0.0173 -0.3753
 5498TIP3   OH238128   3.441   5.388   7.524  0.3127  0.3753 -0.0945
 5498TIP3    H138129   3.497   5.457   7.558 -0.7893  1.1914  0.1154
 5498TIP3    H238130   3.424   5.332   7.599  0.1605  0.6020  0.0412
 5499TIP3   OH238131   3.894   1.158   2.226 -0.3178  0.2372 -0.3965
 5499TIP3    H138132   3.891   1.211   2.146 -0.7914 -1.4352 -1.5363
 5499TIP3    H238133   3.842   1.081   2.205 -0.4854 -0.2281  1.5663
 5500TIP3   OH238134   5.683   3.184   8.289  1.2145  0.2265  0.3021
 5500TIP3    H138135   5.686   3.176   8.385  1.4889 -0.1508  0.2644
 5500TIP3    H238136   5.590   3.174   8.268  1.4280 -2.6141  0.3081
 5501TIP3   OH238137   1.556   1.945   8.265  0.3903 -0.5618  0.4259
 5501TIP3    H138138   1.462   1.941   8.248  0.1231 -0.6997  1.8081
 5501TIP3    H238139   1.583   1.854   8.277  0.8815 -0.5945 -0.7228
 5502TIP3   OH238140   2.950   2.285   1.104  0.6405  0.5077  0.3095
 5502TIP3    H138141   2.875   2.251   1.152 -1.5625 -0.1023 -3.1920
 5502TIP3    H238142   2.960   2.225   1.030  1.2162  3.4417 -2.2071
 5503TIP3   OH238143   4.121   0.348   7.506 -0.1575 -0.5317  0.1568
 5503TIP3    H138144   4.172   0.427   7.525  0.8617 -1.0666 -0.3390
 5503TIP3    H238145   4.072   0.370   7.427  1.3523 -0.9372 -0.9205
 5504TIP3   OH238146   2.392   3.498   8.346  0.0162  0.5410  0.7480
 5504TIP3    H138147   2.342   3.418   8.365  2.6807 -1.0459  1.5961
 5504TIP3    H238148   2.448   3.510   8.423  3.0769  0.4412 -1.3041
 5505TIP3   OH238149   3.476   5.640   8.174 -0.4059  0.4634 -0.3664
 5505TIP3    H138150   3.561   5.661   8.135  1.1578 -0.9361  2.0358
 5505TIP3    H238151   3.459   5.709   8.237 -0.8844  0.5339 -0.5637
 5506TIP3   OH238152   4.544   4.467   8.012  0.3515  0.4345  0.0254
 5506TIP3    H138153   4.615   4.433   7.957  0.1583  1.0337 -0.6193
 5506TIP3    H238154   4.576   4.457   8.101  0.6736 -0.5650 -0.1885
 5507TIP3   OH238155   3.091   6.090   1.224 -0.8310 -0.4612 -0.0952
 5507TIP3    H138156   3.156   6.113   1.290  1.5279 -0.8968 -2.1205
 5507TIP3    H238157   3.110   5.999   1.202 -2.1127 -0.5873 -0.7907
 5508TIP3   OH238158   4.532   2.596   8.021  0.3422 -0.2307 -0.1943
 5508TIP3    H138159   4.453   2.638   8.054 -2.0135 -1.8502 -3.2794
 5508TIP3    H238160   4.594   2.602   8.093 -2.3001  1.7884  2.1338
 5509TIP3   OH238161   0.175   3.958   1.464  0.5110 -0.9978  0.6682
 5509TIP3    H138162   0.091   3.956   1.417 -0.1414 -0.3315  1.7490
 5509TIP3    H238163   0.158   3.911   1.546  1.4086 -1.4851  0.5895
 5510TIP3   OH238164   4.854   3.892   1.314  0.2957 -0.0616  0.2793
 5510TIP3    H138165   4.857   3.984   1.339 -1.8877 -0.6374  3.2505
 5510TIP3    H238166   4.945   3.869   1.298  1.1188  2.2060  1.1975
 5511TIP3   OH238167   0.191   1.137   1.735 -0.5817  0.4918  0.6939
 5511TIP3    H138168   0.220   1.195   1.664 -0.5720  0.1485  0.4108
 5511TIP3    H238169   0.119   1.087   1.696 -0.8276  0.5687  1.0497
 5512TIP3   OH238170   2.972   0.187   8.449 -0.0906 -0.4496 -0.7511
 5512TIP3    H138171   2.961   0.104   8.401 -1.0952  0.1423 -1.5798
 5512TIP3    H238172   2.904   0.185   8.517 -0.2128 -0.2435 -0.8667
 5513TIP3   OH238173   1.848   3.953   1.928  0.1010  0.2476  0.1565
 5513TIP3    H138174   1.924   3.962   1.985  0.7922 -1.5973 -0.4027
 5513TIP3    H238175   1.885   3.923   1.844 -1.2426 -0.6591 -0.1300
 5514TIP3   OH238176   4.370   5.150   8.227 -0.1833  0.4759 -0.0318
 5514TIP3    H138177   4.389   5.103   8.145 -0.6806  1.3111 -0.6441
 5514TIP3    H238178   4.281   5.122   8.250 -0.5058  1.1554 -0.4340
 5515TIP3   OH238179   2.235   6.039   1.064  0.4862 -0.0626 -0.7793
 5515TIP3    H138180   2.307   5.976   1.072 -0.1253 -0.9632 -1.9689
 5515TIP3    H238181   2.202   6.026   0.975 -0.2620  1.3131 -0.7341
 5516TIP3   OH238182   4.104   0.869   1.320 -0.4522 -0.5892 -0.0227
 5516TIP3    H138183   4.022   0.830   1.351  0.0848 -0.5212  1.5892
 5516TIP3    H238184   4.168   0.845   1.387  0.6483  0.1186 -0.7994
 5517TIP3   OH238185   3.639   6.681   2.803 -0.3188 -0.3376  0.1488
 5517TIP3    H138186   3.570   6.742   2.777  0.6257  1.1973  1.0714
 5517TIP3    H238187   3.659   6.705   2.894  1.1898 -0.9548  0.0130
 5518TIP3   OH238188   3.678   4.636   1.501 -0.2029  0.6348  0.1573
 5518TIP3    H138189   3.732   4.709   1.471  0.4431  0.2210  0.2967
 5518TIP3    H238190   3.735   4.560   1.495 -0.9349  0.1038 -0.1719
 5519TIP3   OH238191   0.485   6.354   0.925  0.0904  0.1921 -0.0993
 5519TIP3    H138192   0.575   6.374   0.900  0.1688 -0.6042 -0.4848
 5519TIP3    H238193   0.481   6.258   0.927 -0.7768  0.2166 -0.1983
 5520TIP3   OH238194   0.533   6.364   0.505  0.0648 -0.0146 -0.5078
 5520TIP3    H138195   0.477   6.438   0.528 -0.4110 -0.2703 -0.8257
 5520TIP3    H238196   0.617   6.403   0.483 -0.1125  0.4089 -0.4375
 5521TIP3   OH238197   0.100   2.780   1.953  0.0760 -0.0284  0.1479
 5521TIP3    H138198   0.172   2.744   2.005  0.3816  0.6663  0.2265
 5521TIP3    H238199   0.061   2.847   2.008 -0.9378 -0.7020  0.2803
 5522TIP3   OH238200   0.419   6.770   0.927  0.4459 -0.3155 -1.0914
 5522TIP3    H138201   0.375   6.821   0.995 -0.2667  0.0552 -1.8175
 5522TIP3    H238202   0.511   6.770   0.952  0.5589  1.8235 -1.3724
 5523TIP3   OH238203   5.131   3.717   0.337 -0.4670 -0.3246  0.2710
 5523TIP3    H138204   5.226   3.733   0.339 -0.7305  1.4822  0.6332
 5523TIP3    H238205   5.122   3.629   0.301  1.3726 -0.7850  0.8083
 5524TIP3   OH238206   6.113   4.825   2.203  0.4469 -0.0187 -0.4701
 5524TIP3    H138207   6.164   4.813   2.283  0.1323 -1.5955 -0.4843
 5524TIP3    H238208   6.040   4.764   2.212  0.2048  0.0575 -1.8002
 5525TIP3   OH238209   1.769   6.003   7.627 -0.2780 -0.1771  0.0044
 5525TIP3    H138210   1.681   6.021   7.597 -0.3763  0.5240  0.6700
 5525TIP3    H238211   1.771   6.035   7.718  0.5629 -0.4622  0.1037
 5526TIP3   OH238212   0.309   5.739   7.576  0.0089 -0.2925  0.1005
 5526TIP3    H138213   0.241   5.786   7.528 -1.2814 -0.9701  1.1988
 5526TIP3    H238214   0.382   5.732   7.514 -0.5143  1.3534 -0.7646
 5527TIP3   OH238215   1.283   0.101   8.056  0.1213 -0.4181 -0.0708
 5527TIP3    H138216   1.277   0.012   8.019 -0.3331 -0.2596 -0.3809
 5527TIP3    H238217   1.254   0.091   8.147 -0.9087 -0.4136 -0.3842
 5528TIP3   OH238218   3.113   5.365   0.390 -0.1504  0.2359 -0.1916
 5528TIP3    H138219   3.099   5.380   0.296  1.4853 -1.3425 -0.7568
 5528TIP3    H238220   3.132   5.452   0.425 -1.3174  0.9304 -1.1948
 5529TIP3   OH238221   3.160   6.892   1.759 -0.0804 -0.8398  0.7690
 5529TIP3    H138222   3.087   6.856   1.708 -0.8514 -0.6239  1.7079
 5529TIP3    H238223   3.227   6.823   1.756  0.6778 -0.1218 -2.0686
 5530TIP3   OH238224   5.345   6.552   2.865  0.1199 -0.2559 -0.0217
 5530TIP3    H138225   5.302   6.480   2.819  0.5053 -0.7474  0.3778
 5530TIP3    H238226   5.286   6.626   2.853 -0.7725 -0.8757  0.3839
 5531TIP3   OH238227   6.274   1.274   1.764  0.6662  0.0628  0.3000
 5531TIP3    H138228   6.311   1.276   1.675  0.5339  2.2894  0.2325
 5531TIP3    H238229   6.298   1.359   1.801  1.4935 -1.1531  2.7615
 5532TIP3   OH238230   0.234   6.672   0.370  0.4299 -0.3905 -0.0547
 5532TIP3    H138231   0.269   6.706   0.452 -1.8459 -0.2560  0.9344
 5532TIP3    H238232   0.157   6.726   0.352 -0.3172 -1.7530 -1.1546
 5533TIP3   OH238233   3.511   6.950   0.096 -0.1682  0.3774  0.4601
 5533TIP3    H138234   3.607   6.941   0.094 -0.2568 -5.2296  2.4944
 5533TIP3    H238235   3.492   6.979   0.185 -0.3267 -0.2514  0.6389
 5534TIP3   OH238236   5.189   4.993   1.327 -0.3920  0.5120  0.0452
 5534TIP3    H138237   5.179   5.073   1.378 -0.2047  0.5765 -0.0174
 5534TIP3    H238238   5.104   4.948   1.334  0.1765 -0.3695  1.9188
 5535TIP3   OH238239   6.764   5.285   8.396  0.7844  0.4757  0.2789
 5535TIP3    H138240   6.690   5.345   8.386 -0.3508 -0.7908  0.6457
 5535TIP3    H238241   6.761   5.259   8.488  2.3746  1.2134  0.5696
 5536TIP3   OH238242   5.461   4.874   0.743 -0.2552  0.3335  0.5055
 5536TIP3    H138243   5.465   4.918   0.828  1.5049 -1.1047  1.2311
 5536TIP3    H238244   5.410   4.795   0.759  0.8059 -0.3745  0.4600
 5537TIP3   OH238245   0.531   2.279   1.634  0.0256  0.2038 -0.2480
 5537TIP3    H138246   0.533   2.226   1.713 -0.1518  1.3665  0.5603
 5537TIP3    H238247   0.623   2.287   1.608  0.5338  2.7457  1.9110
 5538TIP3   OH238248   5.179   0.363   1.998 -0.0365  0.2278 -0.1262
 5538TIP3    H138249   5.226   0.281   2.013  0.3247 -0.1872 -2.9112
 5538TIP3    H238250   5.094   0.336   1.962 -0.1375  1.0667 -0.5432
 5539TIP3   OH238251   0.844   2.660   3.039 -0.4282  0.2744 -0.8397
 5539TIP3    H138252   0.751   2.658   3.063 -0.3173  3.2633  0.3600
 5539TIP3    H238253   0.884   2.714   3.106  2.6934 -2.7106 -0.0631
 5540TIP3   OH238254   1.853   5.790   7.773  0.1086 -0.2324 -0.2528
 5540TIP3    H138255   1.912   5.840   7.829  0.3361 -0.1708 -0.5408
 5540TIP3    H238256   1.822   5.853   7.708 -0.8915 -0.0828  0.3662
 5541TIP3   OH238257   0.048   4.843   0.595  0.4373 -0.2384 -0.0899
 5541TIP3    H138258   0.053   4.800   0.681  0.5044 -0.4587 -0.2029
 5541TIP3    H238259  -0.039   4.821   0.562 -0.4975  1.7211  0.8932
 5542TIP3   OH238260   4.580   3.217   0.249 -0.2676  0.0064  0.3439
 5542TIP3    H138261   4.633   3.174   0.181  0.3972  1.7687 -0.3164
 5542TIP3    H238262   4.632   3.292   0.276 -1.6039  0.7100  1.0682
 5543TIP3   OH238263   4.349   0.821   1.492 -0.3907  0.3816  0.2065
 5543TIP3    H138264   4.399   0.749   1.454 -1.6034 -0.5476  0.2667
 5543TIP3    H238265   4.336   0.795   1.584  0.4530  1.4306  0.6406
 5544TIP3   OH238266   2.401   2.880   7.959  0.1102 -0.1525 -0.2963
 5544TIP3    H138267   2.490   2.915   7.948  0.2329 -0.0534  0.8520
 5544TIP3    H238268   2.344   2.955   7.944  0.3313  0.3342  1.1258
 5545TIP3   OH238269   0.997   6.059   7.278  0.3217  0.1352 -0.1199
 5545TIP3    H138270   1.070   5.997   7.275  0.5740  0.4059  0.4170
 5545TIP3    H238271   0.935   6.026   7.212  1.1610  0.2049 -0.9555
 5546TIP3   OH238272   0.765   0.457   2.778 -0.3936 -0.2711 -0.2440
 5546TIP3    H138273   0.806   0.457   2.692  0.2438  1.5197  0.0080
 5546TIP3    H238274   0.715   0.539   2.781 -0.7901 -0.5272  0.9165
 5547TIP3   OH238275   3.942   6.257   8.196 -0.5880 -0.2867 -0.1714
 5547TIP3    H138276   4.020   6.288   8.242 -1.5579  2.2023 -0.0740
 5547TIP3    H238277   3.976   6.219   8.115  0.8013 -0.4057  0.4359
 5548TIP3   OH238278   4.894   1.190   8.278 -0.2640 -0.0191 -0.2384
 5548TIP3    H138279   4.970   1.139   8.250  0.2387 -0.0968  1.1759
 5548TIP3    H238280   4.849   1.212   8.197  1.1635 -0.1294 -1.1018
 5549TIP3   OH238281   0.215   0.652   0.370 -0.1042  0.0917 -0.0990
 5549TIP3    H138282   0.212   0.676   0.277 -0.7847  1.9496  0.3488
 5549TIP3    H238283   0.142   0.700   0.409  0.9767  0.4283  1.6270
 5550TIP3   OH238284   0.529   6.531   2.507 -0.2620 -0.2375  0.2259
 5550TIP3    H138285   0.543   6.471   2.580  2.9967 -1.3370 -1.1237
 5550TIP3    H238286   0.566   6.614   2.535 -0.7361 -0.1173  0.4976
 5551TIP3   OH238287   1.254   6.574   7.530 -0.6493 -0.4228  0.0691
 5551TIP3    H138288   1.224   6.545   7.444 -0.6193  2.2603 -0.9324
 5551TIP3    H238289   1.296   6.658   7.514 -0.0429 -0.1535  2.6304
 5552TIP3   OH238290   4.924   1.898   0.211  0.0376  0.4732  0.0387
 5552TIP3    H138291   4.963   1.931   0.292  0.9921  0.9012 -0.5809
 5552TIP3    H238292   4.943   1.965   0.145 -0.0758 -0.2137 -0.7111
 5553TIP3   OH238293   6.591   3.035   7.263 -0.8451  0.1367  0.2959
 5553TIP3    H138294   6.589   3.110   7.203  0.8494  0.6752  0.8516
 5553TIP3    H238295   6.567   3.073   7.348 -1.6073 -0.3010  0.2867
 5554TIP3   OH238296   1.139   0.049   7.256 -0.6030 -0.0686 -0.0230
 5554TIP3    H138297   1.073   0.117   7.268 -0.6810 -0.5514  3.2972
 5554TIP3    H238298   1.102  -0.027   7.300  0.4962 -1.5928 -1.6248
 5555TIP3   OH238299   0.775   5.053   0.600  0.4917  0.3974  0.3122
 5555TIP3    H138300   0.784   5.053   0.505 -0.8423  1.2260  0.1608
 5555TIP3    H238301   0.681   5.050   0.615  0.6257  1.7465  1.5804
 5556TIP3   OH238302   3.670   1.760   0.491 -0.3652 -0.1950  0.3634
 5556TIP3    H138303   3.729   1.739   0.563  1.1864  0.1125 -0.7757
 5556TIP3    H238304   3.689   1.851   0.470 -1.5869  0.0541  0.2622
 5557TIP3   OH238305   6.741   3.446   2.811 -0.0281 -0.6565  0.1119
 5557TIP3    H138306   6.678   3.375   2.797 -0.6308 -0.0939 -0.0625
 5557TIP3    H238307   6.793   3.416   2.886  0.0341 -1.4910 -0.2556
 5558TIP3   OH238308   0.629   4.813   2.603 -0.0660 -0.0592 -0.4630
 5558TIP3    H138309   0.670   4.876   2.543  0.2855  1.6877  1.4930
 5558TIP3    H238310   0.701   4.759   2.634  0.2174  0.7344  0.3113
 5559TIP3   OH238311   1.879   1.452   1.697  0.1409 -0.0621  0.1391
 5559TIP3    H138312   1.822   1.515   1.741  0.9685 -0.3738  1.7136
 5559TIP3    H238313   1.886   1.486   1.608 -0.8498  1.0972  0.4638
 5560TIP3   OH238314   6.888   0.241   1.880 -0.6770 -0.3861  0.0566
 5560TIP3    H138315   6.939   0.317   1.851  0.2717 -0.3726  1.6397
 5560TIP3    H238316   6.915   0.229   1.972 -2.2357 -1.4672  0.3894
 5561TIP3   OH238317   5.488   2.462   7.378 -0.3371  0.0731 -0.2081
 5561TIP3    H138318   5.396   2.460   7.349 -0.7781 -0.7342  1.1310
 5561TIP3    H238319   5.537   2.492   7.301 -1.6854  0.2209 -1.0456
 5562TIP3   OH238320   5.574   2.155   8.037 -0.1088 -0.4943  0.2483
 5562TIP3    H138321   5.591   2.240   7.997 -1.6241 -0.2781 -0.0015
 5562TIP3    H238322   5.512   2.174   8.108  1.7814 -1.0057  2.1275
 5563TIP3   OH238323   5.115   4.683   0.646  0.7270 -0.1124 -0.0800
 5563TIP3    H138324   5.164   4.724   0.575 -1.8194 -0.8746 -2.4995
 5563TIP3    H238325   5.033   4.733   0.650 -0.0751 -1.4238  0.8113
 5564TIP3   OH238326   4.518   5.625   7.983 -0.0195  0.5295 -0.2009
 5564TIP3    H138327   4.541   5.547   8.035  1.1451 -0.1971 -1.7315
 5564TIP3    H238328   4.600   5.674   7.978 -1.0510  2.6925  1.9660
 5565TIP3   OH238329   6.644   5.501   7.749 -0.0805 -0.4212  0.5155
 5565TIP3    H138330   6.607   5.532   7.666  0.6202 -1.1784 -0.0923
 5565TIP3    H238331   6.569   5.464   7.795 -0.5761  0.4701  0.4536
 5566TIP3   OH238332   6.495   1.540   0.433  0.0062 -0.0582 -0.0021
 5566TIP3    H138333   6.570   1.567   0.486  0.2874 -0.3146 -0.2687
 5566TIP3    H238334   6.438   1.494   0.495 -0.1017  0.4454  0.2766
 5567TIP3   OH238335   1.464   2.641   1.195 -0.1180  0.3379  0.2075
 5567TIP3    H138336   1.385   2.653   1.249  0.2133  0.6583  0.6262
 5567TIP3    H238337   1.450   2.699   1.120 -0.8646 -0.5766 -0.3842
 5568TIP3   OH238338   5.513   0.983   1.834 -0.0870  0.7582 -0.1837
 5568TIP3    H138339   5.602   0.971   1.800  0.7257  0.6767  1.8287
 5568TIP3    H238340   5.485   1.067   1.799  0.8943  0.9297 -0.5872
 5569TIP3   OH238341   3.844   4.714   2.189  0.6872  0.4924  1.0177
 5569TIP3    H138342   3.918   4.661   2.218  2.3418  1.8693 -0.4619
 5569TIP3    H238343   3.840   4.699   2.094 -1.6973 -0.4061  1.1718
 5570TIP3   OH238344   1.445   5.752   8.443 -0.3441 -0.5357  0.1647
 5570TIP3    H138345   1.516   5.701   8.405  0.7034  0.7382  0.3246
 5570TIP3    H238346   1.390   5.776   8.368  0.1563 -0.3904 -0.1593
 5571TIP3   OH238347   6.265   5.737   8.293  0.1624 -0.4544 -0.0888
 5571TIP3    H138348   6.333   5.695   8.241 -0.0413  0.6127 -1.2562
 5571TIP3    H238349   6.252   5.822   8.252  0.1491  0.5371  1.8703
 5572TIP3   OH238350   5.631   5.906   0.278  0.5050 -0.2316  0.2538
 5572TIP3    H138351   5.619   5.851   0.201  1.8715 -1.5744  0.9596
 5572TIP3    H238352   5.579   5.864   0.346 -1.7175  1.6332 -0.1644
 5573TIP3   OH238353   4.327   0.989   0.010 -0.4937  0.8070 -0.0547
 5573TIP3    H138354   4.296   0.920  -0.049  0.5135  0.6813 -0.4588
 5573TIP3    H238355   4.419   1.002  -0.014  0.7551 -1.0140  3.1414
 5574TIP3   OH238356   5.820   1.081   7.616  0.1247  0.1289  0.2615
 5574TIP3    H138357   5.900   1.028   7.606 -0.2137 -0.0534 -2.1844
 5574TIP3    H238358   5.852   1.170   7.630  0.7497 -0.1632  0.7289
 5575TIP3   OH238359   2.931   3.006   1.260 -0.5318 -0.0706  0.2239
 5575TIP3    H138360   2.967   2.965   1.339 -1.8353 -2.1218 -0.1642
 5575TIP3    H238361   2.837   3.016   1.278 -0.4690  1.6370 -0.2082
 5576TIP3   OH238362   3.393   4.923   1.328  1.0353 -0.1768 -0.5538
 5576TIP3    H138363   3.433   4.884   1.250  1.7982 -1.2548  0.3296
 5576TIP3    H238364   3.399   4.854   1.394 -0.5316  0.3414  0.1827
 5577TIP3   OH238365   0.881   3.774   0.956  0.3639  0.2569 -0.0184
 5577TIP3    H138366   0.961   3.730   0.985  0.6711  0.3864 -0.6539
 5577TIP3    H238367   0.900   3.801   0.867 -1.0516 -1.3560 -0.8725
 5578TIP3   OH238368   3.523   2.850   1.363  0.6861  0.2770 -0.3181
 5578TIP3    H138369   3.469   2.857   1.442  1.0073 -0.0693 -0.0612
 5578TIP3    H238370   3.613   2.850   1.396  0.8019 -1.6934 -0.5130
 5579TIP3   OH238371   0.427   5.474   1.208 -0.5769 -0.6522  0.1407
 5579TIP3    H138372   0.420   5.405   1.274  0.6535  1.3058  2.4934
 5579TIP3    H238373   0.395   5.552   1.252  0.2957  0.7399 -1.5864
 5580TIP3   OH238374   3.640   4.594   0.214 -0.5619  0.0002  0.3427
 5580TIP3    H138375   3.691   4.568   0.138  0.0692  0.9420  0.4186
 5580TIP3    H238376   3.562   4.635   0.178  0.4534  1.8552  0.1403
 5581TIP3   OH238377   2.932   6.912   8.302  0.4783  0.1616  0.2627
 5581TIP3    H138378   2.920   6.831   8.253 -2.1998  1.3970 -1.3148
 5581TIP3    H238379   2.885   6.898   8.384  1.3790 -0.4217  0.6869
 5582TIP3   OH238380   2.381   1.178   7.477  0.2566 -0.1342  0.6607
 5582TIP3    H138381   2.413   1.242   7.412 -1.7353  0.7896  0.5224
 5582TIP3    H238382   2.369   1.098   7.427  1.0227 -0.1010  0.4175
 5583TIP3   OH238383   5.855   5.178   0.078  0.1918  0.0633  0.0263
 5583TIP3    H138384   5.792   5.250   0.070  0.3039  0.2214  0.5399
 5583TIP3    H238385   5.805   5.107   0.118  0.1695 -0.0363 -0.1741
 5584TIP3   OH238386   4.212   3.735   7.671  0.2436 -0.3569 -0.1558
 5584TIP3    H138387   4.257   3.687   7.601  0.2947 -1.8972  0.8859
 5584TIP3    H238388   4.279   3.752   7.736 -0.1091 -0.2091  0.1723
 5585TIP3   OH238389   6.734   0.366   1.012  0.1065  0.2092  0.7020
 5585TIP3    H138390   6.798   0.421   0.967 -1.1323 -0.4191 -2.0620
 5585TIP3    H238391   6.784   0.320   1.079  1.7982  2.2856  0.9612
 5586TIP3   OH238392   5.727   1.669   3.005 -0.4234 -1.2454 -0.7525
 5586TIP3    H138393   5.656   1.695   2.946 -1.4959  0.1191  1.0407
 5586TIP3    H238394   5.795   1.735   2.990 -1.5085  0.3449  0.8808
 5587TIP3   OH238395   5.972   5.078   1.949 -0.1663 -0.4132  0.7539
 5587TIP3    H138396   5.970   5.001   1.892  1.4054  0.1151 -0.0945
 5587TIP3    H238397   5.884   5.083   1.986 -1.2086 -0.9164 -1.4699
 5588TIP3   OH238398   2.600   6.941   8.146  0.1750  0.2904  0.0037
 5588TIP3    H138399   2.534   6.987   8.094 -1.1827 -0.4018  1.0666
 5588TIP3    H238400   2.577   6.961   8.237  0.6718 -0.9850  0.4318
 5589TIP3   OH238401   0.091   1.521   7.981  0.0586  0.4975  0.1185
 5589TIP3    H138402   0.028   1.449   7.971 -1.0209  1.3270  0.6980
 5589TIP3    H238403   0.104   1.527   8.076  0.9370  0.4099  0.0064
 5590TIP3   OH238404   1.193   6.160   1.471  0.4723  0.2447 -0.8844
 5590TIP3    H138405   1.193   6.239   1.417  0.1846 -1.0634 -2.9191
 5590TIP3    H238406   1.208   6.088   1.409  0.0120 -1.3716  0.7678
 5591TIP3   OH238407   5.124   1.967   6.642 -0.2416 -0.2508 -0.1786
 5591TIP3    H138408   5.156   1.877   6.639  1.4647  0.3295 -1.9096
 5591TIP3    H238409   5.178   2.010   6.709 -0.0310 -0.1769 -0.3942
 5592TIP3   OH238410   4.083   6.796   1.757  0.6840 -0.0887 -0.3440
 5592TIP3    H138411   3.992   6.768   1.770  1.1676 -2.1431 -1.0139
 5592TIP3    H238412   4.081   6.847   1.676  0.0194  0.5659  0.0670
 5593TIP3   OH238413   1.861   3.703   0.006  0.0969 -0.1008 -0.0504
 5593TIP3    H138414   1.920   3.750   0.064  1.0851 -0.8379 -0.4452
 5593TIP3    H238415   1.778   3.699   0.055  1.1570 -1.5465  1.7565
 5594TIP3   OH238416   4.075   3.769   2.584 -0.0399  0.2360 -0.3523
 5594TIP3    H138417   3.996   3.714   2.587  0.3734 -0.3141  0.9633
 5594TIP3    H238418   4.111   3.765   2.673  1.0042  1.1812 -0.7081
 5595TIP3   OH238419   1.215   2.080   7.556  0.3705 -0.2336  0.5740
 5595TIP3    H138420   1.211   2.155   7.498  0.4598 -2.0387 -1.9122
 5595TIP3    H238421   1.123   2.059   7.574  0.2773 -0.7560 -0.4523
 5596TIP3   OH238422   5.894   6.902   1.852 -0.7101 -0.4079 -0.1260
 5596TIP3    H138423   5.875   6.857   1.769  1.1357 -1.1692 -0.2073
 5596TIP3    H238424   5.956   6.970   1.828 -1.9529  0.9213  0.3179
 5597TIP3   OH238425   2.032   0.752   7.852  0.2700  0.6615  0.1179
 5597TIP3    H138426   1.940   0.732   7.870  0.2143  1.0170  0.2246
 5597TIP3    H238427   2.080   0.712   7.925  0.4124 -1.4645 -1.0442
 5598TIP3   OH238428   1.441   6.865   0.155  0.2619 -0.1107 -0.0733
 5598TIP3    H138429   1.371   6.806   0.184  0.4779 -1.4755 -2.1180
 5598TIP3    H238430   1.501   6.809   0.106  0.2242  1.8679 -2.5727
 5599TIP3   OH238431   2.963   0.250   2.560  0.9079 -0.0489  0.2121
 5599TIP3    H138432   2.894   0.206   2.511 -0.0087  1.1036  0.4022
 5599TIP3    H238433   3.010   0.180   2.605  0.8963 -1.0052 -1.1957
 5600TIP3   OH238434   6.883   5.848   0.164  0.0684  0.1625  0.2661
 5600TIP3    H138435   6.928   5.922   0.205  1.6178 -1.1779  1.1133
 5600TIP3    H238436   6.949   5.779   0.160 -1.8301 -1.8264  1.2621
 5601TIP3   OH238437   3.574   4.215   1.470 -0.7087  0.2045  0.0027
 5601TIP3    H138438   3.640   4.147   1.455 -0.9259 -0.1423  0.5889
 5601TIP3    H238439   3.579   4.232   1.564 -1.7496 -0.1237  0.1226
 5602TIP3   OH238440   4.444   4.157   7.879  0.2724 -0.2037  0.3839
 5602TIP3    H138441   4.493   4.190   7.804 -0.0903 -2.8302 -1.1556
 5602TIP3    H238442   4.493   4.185   7.956  1.0581  1.9550 -0.8465
 5603TIP3   OH238443   3.334   6.824   8.142  0.4660 -0.2979 -0.0235
 5603TIP3    H138444   3.361   6.790   8.227  1.2077  0.2764 -0.0131
 5603TIP3    H238445   3.354   6.917   8.146 -0.7715 -0.0073 -0.3457
 5604TIP3   OH238446   2.297   5.199   0.758  0.0333 -0.0507  0.1359
 5604TIP3    H138447   2.308   5.139   0.684  2.6402  1.9259 -1.2839
 5604TIP3    H238448   2.374   5.186   0.812 -1.1485 -0.4556  1.7901
 5605TIP3   OH238449   0.363   2.696   0.789  0.2279 -0.2345 -0.4050
 5605TIP3    H138450   0.324   2.640   0.723  0.5470  2.3806 -3.0148
 5605TIP3    H238451   0.418   2.757   0.740  1.5618  1.0378  2.4249
 5606TIP3   OH238452   2.393   5.400   1.881  0.7028  0.6624  0.6000
 5606TIP3    H138453   2.481   5.431   1.902  0.3909  0.5787  2.1028
 5606TIP3    H238454   2.344   5.409   1.963 -0.1248 -1.2481  0.3509
 5607TIP3   OH238455   5.882   2.084   1.052 -0.0887 -0.3818 -0.1763
 5607TIP3    H138456   5.887   2.171   1.092 -2.8949  1.2641 -2.8893
 5607TIP3    H238457   5.804   2.044   1.091 -0.1751 -0.6666 -0.6298
 5608TIP3   OH238458   3.324   0.573   1.500  0.0815 -0.5807 -0.2089
 5608TIP3    H138459   3.278   0.654   1.476 -0.5274  0.2431  3.2460
 5608TIP3    H238460   3.254   0.512   1.522  0.5868 -1.4252 -0.8886
 5609TIP3   OH238461   3.642   6.277   7.850 -0.2668  0.8035 -0.0180
 5609TIP3    H138462   3.573   6.231   7.900  0.2706 -1.0509 -0.9091
 5609TIP3    H238463   3.604   6.363   7.833 -2.0096  0.1637  0.3215
 5610TIP3   OH238464   0.862   2.858   3.255 -0.1308 -0.8110 -0.1168
 5610TIP3    H138465   0.930   2.926   3.245 -1.9791  0.9949 -1.2487
 5610TIP3    H238466   0.857   2.844   3.350  0.1794  0.8465  0.1916
 5611TIP3   OH238467   1.126   5.148   0.323 -0.0915  0.6315  0.1337
 5611TIP3    H138468   1.031   5.135   0.329 -0.2497  1.3895 -0.5931
 5611TIP3    H238469   1.136   5.223   0.264  0.9780  0.3209 -0.0861
 5612TIP3   OH238470   2.071   5.809   6.665 -0.1965 -0.3381 -0.0969
 5612TIP3    H138471   2.054   5.855   6.747  1.1528 -1.8688  1.1054
 5612TIP3    H238472   2.015   5.853   6.601 -0.1950  1.8850  1.3026
 5613TIP3   OH238473   5.957   4.095   2.435  0.5271 -0.0165 -0.0289
 5613TIP3    H138474   5.915   4.111   2.519 -0.7077 -0.7333 -0.4924
 5613TIP3    H238475   5.921   4.162   2.377  0.1039 -0.5439 -0.3901
 5614TIP3   OH238476   2.599   6.890   6.759  0.0929 -0.6889 -0.4076
 5614TIP3    H138477   2.621   6.816   6.815  1.0355 -1.2578 -1.4826
 5614TIP3    H238478   2.663   6.957   6.782 -0.3625 -0.4354  0.1250
 5615TIP3   OH238479   3.112   3.152   0.255 -0.2429  0.1628  0.8573
 5615TIP3    H138480   3.174   3.089   0.290  0.7790  0.9726  0.5529
 5615TIP3    H238481   3.026   3.122   0.286  0.3871 -0.4485  2.0601
 5616TIP3   OH238482   0.002   1.533   0.444 -0.0359 -0.2813 -0.4510
 5616TIP3    H138483   0.022   1.460   0.386  1.5355 -0.1694 -0.0746
 5616TIP3    H238484  -0.046   1.595   0.388  1.9892  0.1128 -1.8676
 5617TIP3   OH238485   0.406   3.878   1.324 -0.0080 -0.7427 -0.0504
 5617TIP3    H138486   0.417   3.947   1.259  1.0532  0.7180  1.6077
 5617TIP3    H238487   0.339   3.911   1.383  1.0448 -0.7584  1.1910
 5618TIP3   OH238488   0.186   6.811   1.486 -0.0396  0.5566 -0.1204
 5618TIP3    H138489   0.274   6.801   1.522 -0.4100  1.5760  1.2126
 5618TIP3    H238490   0.199   6.850   1.400  0.8375 -0.2470 -0.3650
 5619TIP3   OH238491   6.750   4.062   7.326 -0.3059  0.1828  0.1156
 5619TIP3    H138492   6.675   4.099   7.373  0.1675  0.0684  0.9760
 5619TIP3    H238493   6.729   3.969   7.317 -0.4934  0.2438 -0.0972
 5620TIP3   OH238494   3.411   6.663   0.393  0.7796 -0.9688 -0.2817
 5620TIP3    H138495   3.380   6.613   0.469 -1.2510 -1.2606 -1.2465
 5620TIP3    H238496   3.418   6.753   0.426 -1.3879 -0.8409 -0.0253
 5621TIP3   OH238497   1.891   3.102   2.411 -0.5740 -0.1240 -0.6112
 5621TIP3    H138498   1.896   3.180   2.466  1.4152  0.5274 -1.6512
 5621TIP3    H238499   1.933   3.033   2.463  0.4611  0.2617 -0.9260
 5622TIP3   OH238500   4.942   5.677   0.608 -0.3620 -0.1788 -0.4987
 5622TIP3    H138501   4.985   5.596   0.581 -0.2218 -0.0789 -0.5739
 5622TIP3    H238502   4.920   5.721   0.525 -0.8791 -0.3728 -0.4669
 5623TIP3   OH238503   1.536   0.977   1.191  0.1025  0.1656 -0.1298
 5623TIP3    H138504   1.460   0.923   1.171 -0.0185  0.1233  0.4219
 5623TIP3    H238505   1.608   0.935   1.145 -0.4091  0.9108 -1.6975
 5624TIP3   OH238506   4.652   0.339   7.908 -0.6392  0.4763  0.4735
 5624TIP3    H138507   4.716   0.356   7.976 -0.5478 -0.8014  0.7429
 5624TIP3    H238508   4.693   0.369   7.827 -0.6594  1.8007  0.9275
 5625TIP3   OH238509   1.742   2.506   1.316  0.0216  0.1515 -0.8332
 5625TIP3    H138510   1.803   2.560   1.367  2.1328 -2.2221 -0.6813
 5625TIP3    H238511   1.705   2.444   1.379  0.5289 -1.0173 -1.6553
 5626TIP3   OH238512   2.710   3.909   1.691  0.0532 -0.2400 -0.1323
 5626TIP3    H138513   2.703   3.956   1.774  0.1451 -0.3850 -0.0412
 5626TIP3    H238514   2.721   3.817   1.717  2.5030 -0.0319 -0.2484
 5627TIP3   OH238515   5.175   6.172   2.420 -0.1167 -0.2534  0.1591
 5627TIP3    H138516   5.121   6.191   2.497  1.0914  2.7417  0.4079
 5627TIP3    H238517   5.263   6.158   2.455  0.3895  0.8439 -0.6299
 5628TIP3   OH238518   6.511   2.174   0.411  0.3032 -0.3080 -0.0386
 5628TIP3    H138519   6.490   2.147   0.321 -3.1181  0.3689  0.4327
 5628TIP3    H238520   6.573   2.246   0.400 -1.3213  0.9007 -1.9874
 5629TIP3   OH238521   0.250   4.825   7.924 -0.3551  0.2937  0.3732
 5629TIP3    H138522   0.327   4.820   7.867  0.0962 -0.1183  1.0077
 5629TIP3    H238523   0.180   4.783   7.874 -0.0725  0.3272 -0.0527
 5630TIP3   OH238524   1.669   4.513   0.423 -0.3097  0.2681  0.0426
 5630TIP3    H138525   1.576   4.499   0.406 -0.9796  2.9245  1.0017
 5630TIP3    H238526   1.708   4.524   0.336 -0.8708 -0.8307 -0.3661
 5631TIP3   OH238527   0.439   5.192   7.456  0.0687 -0.4178 -0.4267
 5631TIP3    H138528   0.434   5.256   7.385  0.4319  0.9119  0.6985
 5631TIP3    H238529   0.354   5.148   7.455  0.1889 -0.6915 -1.8893
 5632TIP3   OH238530   0.278   1.081   0.033 -0.7272 -0.5162  0.2159
 5632TIP3    H138531   0.287   1.135  -0.045 -0.9562 -1.2977 -0.3576
 5632TIP3    H238532   0.310   1.137   0.104  0.9465 -0.3357 -0.6309
 5633TIP3   OH238533   1.555   1.814   0.208 -0.0338 -0.3798  0.4707
 5633TIP3    H138534   1.613   1.795   0.134  0.8591 -0.1116  1.0883
 5633TIP3    H238535   1.467   1.820   0.169  0.2609 -1.3980 -0.3816
 5634TIP3   OH238536   2.016   5.492   1.477  0.4197 -0.0964  0.1180
 5634TIP3    H138537   1.998   5.402   1.504  0.8488  0.5416  2.7329
 5634TIP3    H238538   1.936   5.540   1.500  1.3981  0.7699  1.8053
 5635TIP3   OH238539   0.939   4.948   7.949 -0.6962  0.6386 -0.3294
 5635TIP3    H138540   0.970   5.022   8.001 -0.0231 -1.2028  2.0760
 5635TIP3    H238541   1.012   4.927   7.891 -0.5791  1.3323 -0.4384
 5636TIP3   OH238542   4.338   0.767   7.382 -0.3719  0.4467 -0.3528
 5636TIP3    H138543   4.335   0.724   7.467  0.6697 -0.8466 -0.9421
 5636TIP3    H238544   4.380   0.852   7.399 -2.1241  1.1507  0.7537
 5637TIP3   OH238545   3.861   2.663   2.277  0.3667 -0.3700  0.1872
 5637TIP3    H138546   3.795   2.607   2.318 -0.1382  0.6811  0.8443
 5637TIP3    H238547   3.817   2.700   2.201  0.0723  0.5958  0.8149
 5638TIP3   OH238548   1.208   4.558   8.229 -0.3643  0.8323  0.1646
 5638TIP3    H138549   1.196   4.603   8.145 -1.3858 -2.0832 -1.4069
 5638TIP3    H238550   1.301   4.538   8.232 -0.2752  1.1846 -0.1329
 5639TIP3   OH238551   5.944   2.048   2.057 -0.3631  0.1629  0.0264
 5639TIP3    H138552   5.952   1.998   2.138  0.4371  1.4367  0.7659
 5639TIP3    H238553   6.032   2.047   2.019 -0.0657  1.8213  0.5847
 5640TIP3   OH238554   5.204   5.757   2.578  0.1292  0.3226 -0.0258
 5640TIP3    H138555   5.158   5.676   2.599 -0.5695  1.0551  1.3451
 5640TIP3    H238556   5.170   5.822   2.639  0.9929  1.5651 -0.8012
 5641TIP3   OH238557   3.535   5.021   7.713 -0.5692  0.1774  0.1107
 5641TIP3    H138558   3.609   5.032   7.773 -0.5778  0.5030  0.0610
 5641TIP3    H238559   3.571   5.046   7.627 -1.3326  2.5156  0.4095
 5642TIP3   OH238560   4.940   2.821   0.986 -0.1261  0.0102  0.3855
 5642TIP3    H138561   4.891   2.791   1.063  0.7767 -0.2103  0.8891
 5642TIP3    H238562   5.019   2.767   0.986  0.9567  1.5524  0.6035
 5643TIP3   OH238563   3.205   3.272   7.351 -0.2007  0.7444  0.0749
 5643TIP3    H138564   3.207   3.202   7.286  0.0828 -0.3919  1.2710
 5643TIP3    H238565   3.169   3.232   7.429  1.3005  1.5281  1.2330
 5644TIP3   OH238566   2.503   5.024   1.741 -0.1319  0.8366 -0.0650
 5644TIP3    H138567   2.586   4.996   1.702 -0.4222  0.0872 -0.1625
 5644TIP3    H238568   2.523   5.033   1.834  0.1628  1.0672 -0.1473
 5645TIP3   OH238569   3.942   4.871   1.083  0.1325  0.8799 -0.1572
 5645TIP3    H138570   3.922   4.948   1.135 -0.3131  1.3210 -0.9628
 5645TIP3    H238571   3.875   4.870   1.015  0.2625 -0.0966 -0.2855
 5646TIP3   OH238572   1.749   5.055   1.677 -0.2277  0.0983 -0.1239
 5646TIP3    H138573   1.680   5.073   1.741 -1.2292 -2.2878 -0.4146
 5646TIP3    H238574   1.783   4.969   1.702  0.4843 -0.1634 -1.8310
 5647TIP3   OH238575   3.021   4.149   1.743 -0.5307 -0.1902  0.4043
 5647TIP3    H138576   2.960   4.218   1.769  0.1706  1.3131 -1.6676
 5647TIP3    H238577   2.991   4.124   1.655  0.9232 -0.5197 -0.0142
 5648TIP3   OH238578   5.473   1.649   7.375 -0.3292  0.8122  0.1877
 5648TIP3    H138579   5.385   1.613   7.384 -0.5625  0.3554 -2.7692
 5648TIP3    H238580   5.511   1.599   7.303  2.1292  1.4502  0.9718
 5649TIP3   OH238581   2.187   3.596   0.260 -0.4344 -0.5435  0.2827
 5649TIP3    H138582   2.136   3.653   0.203  0.2228 -0.0737  0.1598
 5649TIP3    H238583   2.278   3.606   0.231 -0.1150 -0.4625  1.2606
 5650TIP3   OH238584   2.982   6.229   1.035 -0.2624 -0.1116  0.1464
 5650TIP3    H138585   3.006   6.158   1.094  0.1416 -0.0055  0.1099
 5650TIP3    H238586   3.020   6.204   0.951 -0.5959 -0.1241 -0.0031
 5651TIP3   OH238587   2.062   6.264   1.115  0.0384  0.0599 -0.4552
 5651TIP3    H138588   2.058   6.340   1.058 -1.2078 -0.5892 -1.2848
 5651TIP3    H238589   2.149   6.226   1.097 -0.5779 -0.5303 -2.5130
 5652TIP3   OH238590   5.597   3.668   7.675 -0.0347 -0.1869 -1.1509
 5652TIP3    H138591   5.663   3.700   7.613  1.0017  1.2646  0.5881
 5652TIP3    H238592   5.538   3.743   7.686  1.0483  0.4310  1.1743
 5653TIP3   OH238593   5.468   3.967   1.257 -0.2550  0.6967 -0.2668
 5653TIP3    H138594   5.374   3.959   1.271 -0.8754  1.3217 -3.3553
 5653TIP3    H238595   5.477   4.002   1.168  2.9080 -2.9465 -1.6918
 5654TIP3   OH238596   2.124   1.727   2.321  0.1837  0.5391 -0.2453
 5654TIP3    H138597   2.118   1.632   2.326  2.5770  0.2659 -1.0170
 5654TIP3    H238598   2.115   1.747   2.227  1.6338  0.8260 -0.3528
 5655TIP3   OH238599   4.743   0.971   7.121  0.2697  0.3732 -0.1955
 5655TIP3    H138600   4.669   0.942   7.173  0.8103 -0.3809  0.1769
 5655TIP3    H238601   4.725   0.939   7.033  0.4716 -0.4271  0.0413
 5656TIP3   OH238602   3.525   6.258   1.489 -0.0185  0.6245 -0.4410
 5656TIP3    H138603   3.526   6.327   1.423  0.3387  0.8142 -0.2395
 5656TIP3    H238604   3.564   6.298   1.566 -2.4960  1.1662  0.6410
 5657TIP3   OH238605   4.662   4.650   3.104 -1.0024 -0.0563  0.1656
 5657TIP3    H138606   4.590   4.667   3.165  0.0214  0.7157  1.1870
 5657TIP3    H238607   4.735   4.624   3.159 -0.8470 -2.2343 -0.9538
 5658TIP3   OH238608   3.612   6.986   1.670  0.2773  0.3394 -0.1723
 5658TIP3    H138609   3.582   6.930   1.742  3.1022 -1.8062 -0.4942
 5658TIP3    H238610   3.632   7.069   1.712  0.4128 -0.3721  1.2561
 5659TIP3   OH238611   5.330   2.886   7.622 -0.1010 -0.3739  0.6134
 5659TIP3    H138612   5.379   2.868   7.542  0.5222 -1.7416  1.2833
 5659TIP3    H238613   5.379   2.843   7.692 -0.8514  0.4418  1.6937
 5660TIP3   OH238614   1.285   5.770   8.210  0.2247  0.2595  0.0217
 5660TIP3    H138615   1.359   5.757   8.151  0.2500  1.2100 -0.1663
 5660TIP3    H238616   1.208   5.753   8.156  0.2344  1.4675 -0.3955
 5661TIP3   OH238617   5.565   3.868   0.064 -0.1410  0.4214  0.0252
 5661TIP3    H138618   5.627   3.905   0.127  0.1085 -0.0930  0.0885
 5661TIP3    H238619   5.480   3.872   0.108 -0.0108  0.3225  0.2863
 5662TIP3   OH238620   1.404   4.202   2.363 -0.0073  0.2723  0.3621
 5662TIP3    H138621   1.334   4.139   2.345 -0.3870 -0.0421  2.6712
 5662TIP3    H238622   1.361   4.288   2.360  0.0600  0.2924 -0.6066
 5663TIP3   OH238623   1.643   1.625   1.069 -0.1011 -0.1355  0.2161
 5663TIP3    H138624   1.723   1.576   1.050  1.6770  2.5078  0.3095
 5663TIP3    H238625   1.573   1.570   1.036  1.7575 -2.4585 -0.1354
 5664TIP3   OH238626   0.116   0.021   7.789 -0.5410  0.0195  0.1451
 5664TIP3    H138627   0.033   0.055   7.755 -1.8226 -2.6007  0.4214
 5664TIP3    H238628   0.137  -0.052   7.731  2.0022  1.0566 -0.3484
 5665TIP3   OH238629   0.135   4.096   0.533  0.0535 -0.4671 -0.1735
 5665TIP3    H138630   0.049   4.092   0.492 -0.1908 -0.7816  0.3539
 5665TIP3    H238631   0.117   4.097   0.627  0.6021  0.2932 -0.0667
 5666TIP3   OH238632   0.058   5.193   2.475 -0.3331  0.1587 -0.1807
 5666TIP3    H138633   0.148   5.223   2.488 -0.1677 -0.7686  0.9738
 5666TIP3    H238634   0.022   5.189   2.564 -0.7304 -1.7988 -0.3971
 5667TIP3   OH238635   5.504   4.288   0.278  0.3924 -0.0420  0.3393
 5667TIP3    H138636   5.581   4.314   0.328  0.0547 -0.8202  1.2816
 5667TIP3    H238637   5.539   4.235   0.206  0.8952  1.2582 -0.4139
 5668TIP3   OH238638   1.695   6.754   0.842  0.2477 -0.0264 -0.1161
 5668TIP3    H138639   1.750   6.827   0.870 -0.3040  0.1904  0.4453
 5668TIP3    H238640   1.734   6.723   0.761  1.2418  0.0738  0.3053
 5669TIP3   OH238641   3.897   6.870   7.648 -0.2550 -0.5674  0.0795
 5669TIP3    H138642   3.899   6.774   7.652 -0.3211 -0.5209  2.0404
 5669TIP3    H238643   3.988   6.896   7.661 -0.1418 -0.3452 -1.0247
 5670TIP3   OH238644   1.820   2.937   1.787 -0.2605  0.0220  0.2283
 5670TIP3    H138645   1.752   3.003   1.770 -0.5339 -0.2107  0.3922
 5670TIP3    H238646   1.864   2.968   1.866  0.5651  0.7506 -0.5025
 5671TIP3   OH238647   5.294   4.609   1.474 -0.5510  0.1146 -0.2396
 5671TIP3    H138648   5.329   4.529   1.433 -0.9698 -0.5348  0.6523
 5671TIP3    H238649   5.355   4.677   1.447  0.8620 -0.8211  0.4511
 5672TIP3   OH238650   3.668   5.194   1.669  0.6536  0.7091  0.1871
 5672TIP3    H138651   3.661   5.276   1.718  0.5672 -0.4577  2.2583
 5672TIP3    H238652   3.761   5.187   1.647  0.4686  1.9208 -1.1062
 5673TIP3   OH238653   4.848   3.843   2.750  0.4193  0.3517 -0.2760
 5673TIP3    H138654   4.853   3.855   2.655  2.5500  0.2675 -0.2379
 5673TIP3    H238655   4.828   3.750   2.762  1.0136  0.1701 -0.6586
 5674TIP3   OH238656   2.530   2.496   0.445  0.6252  0.3244  0.2147
 5674TIP3    H138657   2.439   2.511   0.469 -0.0661 -1.3953 -1.1605
 5674TIP3    H238658   2.571   2.460   0.524 -0.3789 -0.6678  0.3012
 5675TIP3   OH238659   4.104   5.544   8.183 -0.4369  0.2212  0.0534
 5675TIP3    H138660   4.069   5.456   8.176  1.4992 -0.5135 -1.3980
 5675TIP3    H238661   4.113   5.560   8.277 -2.5443 -0.3380  0.3972
 5676TIP3   OH238662   1.081   4.102   8.260 -0.3098  0.0830  0.0281
 5676TIP3    H138663   1.148   4.034   8.256 -0.7462 -0.5173  1.8040
 5676TIP3    H238664   1.019   4.071   8.326 -0.8339  1.9248  0.4817
 5677TIP3   OH238665   4.306   5.786   2.223  0.3434  0.7056  0.2136
 5677TIP3    H138666   4.353   5.860   2.186 -3.4421  3.8569  1.1241
 5677TIP3    H238667   4.267   5.819   2.304  0.2532 -3.0080  1.9150
 5678TIP3   OH238668   5.318   2.962   7.968  0.3588 -0.0304  0.2084
 5678TIP3    H138669   5.376   2.894   7.934  0.9941  0.8644 -0.5462
 5678TIP3    H238670   5.375   3.038   7.981 -0.2820  0.2869  1.3015
 5679TIP3   OH238671   5.788   0.959   8.108 -0.1528  0.3412 -0.3495
 5679TIP3    H138672   5.881   0.937   8.104 -0.5059 -1.2937 -0.0843
 5679TIP3    H238673   5.786   1.045   8.149  1.2740  0.7247 -1.0121
 5680TIP3   OH238674   6.407   5.893   0.165  0.3068 -0.2117 -0.1448
 5680TIP3    H138675   6.434   5.961   0.226  0.8718 -0.0598 -0.5603
 5680TIP3    H238676   6.467   5.820   0.180 -0.4223 -0.7094  0.4404
 5681TIP3   OH238677   5.051   6.364   1.687 -0.8072  0.2354  0.6533
 5681TIP3    H138678   5.080   6.425   1.620  0.3851  1.3530  2.1146
 5681TIP3    H238679   5.102   6.284   1.669 -0.2831  0.6178  0.3996
 5682TIP3   OH238680   6.160   4.377   0.087 -0.0351  0.1429  0.2811
 5682TIP3    H138681   6.135   4.364   0.179  1.1263  2.6234  1.0147
 5682TIP3    H238682   6.110   4.454   0.059  0.5552  0.1547 -0.7982
 5683TIP3   OH238683   5.405   2.068   0.998  0.3706  0.6024 -0.3768
 5683TIP3    H138684   5.354   1.989   0.987  1.6448 -0.4447  0.8017
 5683TIP3    H238685   5.426   2.070   1.092  2.4071  1.0084 -0.7972
 5684TIP3   OH238686   6.054   2.436   8.443 -0.2605  0.4092  0.1102
 5684TIP3    H138687   6.121   2.446   8.510  0.9471  1.1583 -1.1427
 5684TIP3    H238688   6.058   2.344   8.418  1.2518  0.6931 -0.8383
 5685TIP3   OH238689   1.770   6.731   2.968  0.2921 -0.7162 -0.0252
 5685TIP3    H138690   1.860   6.703   2.952  0.7124 -0.3486  1.5253
 5685TIP3    H238691   1.722   6.649   2.984  0.2644 -0.9353 -1.1866
 5686TIP3   OH238692   2.277   5.968   7.932  0.1797 -0.3023  0.0106
 5686TIP3    H138693   2.229   5.963   7.850 -0.5347 -0.5662  0.4386
 5686TIP3    H238694   2.210   5.979   8.000  0.7604 -0.0072  0.5565
 5687TIP3   OH238695   2.229   4.275   6.945 -0.3500 -0.2778  0.6036
 5687TIP3    H138696   2.301   4.212   6.956  0.2881  0.2820 -0.2825
 5687TIP3    H238697   2.204   4.298   7.035 -0.3313 -1.4870  0.9385
 5688TIP3   OH238698   6.961   1.131   2.004  0.6224  0.0493  0.1462
 5688TIP3    H138699   6.931   1.041   1.995 -1.4379  0.4188  2.3519
 5688TIP3    H238700   6.972   1.143   2.098 -0.4761  2.4808  0.0225
 5689TIP3   OH238701   2.832   3.783   0.813 -0.6458  0.4951 -0.8318
 5689TIP3    H138702   2.901   3.728   0.776 -0.0056  0.9224 -0.3004
 5689TIP3    H238703   2.790   3.727   0.879 -0.1972  0.5343 -0.5081
 5690TIP3   OH238704   4.738   4.685   2.502 -0.7079 -0.0732 -0.0878
 5690TIP3    H138705   4.681   4.677   2.579  0.1274  0.9450  0.6737
 5690TIP3    H238706   4.707   4.762   2.456  0.5763  1.0594  0.8458
 5691TIP3   OH238707   3.153   2.226   0.239 -0.0443 -0.0516 -0.1354
 5691TIP3    H138708   3.081   2.254   0.295  0.6570  0.7460  0.3873
 5691TIP3    H238709   3.127   2.139   0.208 -2.0647  0.9538 -1.4481
 5692TIP3   OH238710   2.521   3.337   0.733 -0.5015 -0.1401  0.0559
 5692TIP3    H138711   2.614   3.359   0.731 -0.6451  0.5317  0.3380
 5692TIP3    H238712   2.507   3.304   0.822 -0.6600  0.3476  0.2115
 5693TIP3   OH238713   3.848   5.702   0.847 -0.0192 -0.3192 -0.0312
 5693TIP3    H138714   3.868   5.777   0.791  0.3012  0.3670  0.9782
 5693TIP3    H238715   3.785   5.735   0.911 -0.1958 -1.0208  0.1697
 5694TIP3   OH238716   5.183   6.669   1.349  0.1849  0.5765  0.1740
 5694TIP3    H138717   5.166   6.727   1.274 -0.4288 -1.5553 -1.4203
 5694TIP3    H238718   5.277   6.651   1.344 -0.1165 -0.8458 -1.1410
 5695TIP3   OH238719   2.137   6.786   3.074 -0.2389  0.0767 -0.0123
 5695TIP3    H138720   2.202   6.735   3.122 -1.0656  1.5737  2.9273
 5695TIP3    H238721   2.174   6.874   3.070 -0.5250  0.1526 -1.5568
 5696TIP3   OH238722   5.961   0.028   0.468  0.1454 -0.4450  0.1211
 5696TIP3    H138723   5.894  -0.027   0.508  0.3770 -0.8967 -0.1057
 5696TIP3    H238724   6.044  -0.011   0.494  0.3232  0.0895  0.3670
 5697TIP3   OH238725   6.670   4.910   1.836 -0.4490 -0.0715  0.2109
 5697TIP3    H138726   6.746   4.925   1.893 -0.4288 -0.2702  0.2363
 5697TIP3    H238727   6.620   4.991   1.842  0.6992  0.7984 -1.2582
 5698TIP3   OH238728   2.037   6.380   8.242  0.8886  0.3874  0.2524
 5698TIP3    H138729   1.972   6.405   8.307 -0.8094  1.5355 -1.7432
 5698TIP3    H238730   2.080   6.303   8.279 -1.5219 -0.3510  1.7682
 5699TIP3   OH238731   3.975   3.971   0.328  0.8354 -0.2663 -0.6003
 5699TIP3    H138732   3.948   3.979   0.236  2.7966 -0.7862 -1.2555
 5699TIP3    H238733   4.025   4.050   0.346  0.7437 -0.3263 -0.0576
 5700TIP3   OH238734   3.109   5.431   0.796  0.1931  0.2250 -0.1454
 5700TIP3    H138735   3.160   5.353   0.820 -1.3419 -0.9474 -0.5708
 5700TIP3    H238736   3.058   5.404   0.720  0.9739  2.2396 -1.4345
 5701TIP3   OH238737   6.511   1.559   2.971 -0.1270 -0.5204 -0.2300
 5701TIP3    H138738   6.554   1.505   2.905  1.3299 -0.6381  0.7524
 5701TIP3    H238739   6.464   1.626   2.922  2.6840  0.7403 -1.3803
 5702TIP3   OH238740   2.733   6.039   8.369 -0.0212 -0.0259  0.1287
 5702TIP3    H138741   2.769   5.987   8.297 -0.7123  0.6202 -0.7032
 5702TIP3    H238742   2.688   5.976   8.425  2.5683 -0.9051  1.3490
 5703TIP3   OH238743   0.309   4.665   0.205 -0.2236  0.2507 -0.6596
 5703TIP3    H138744   0.343   4.691   0.119 -0.0367  0.5947 -0.4862
 5703TIP3    H238745   0.295   4.571   0.198  0.6077  0.1260 -0.7959
 5704TIP3   OH238746   5.002   1.158   3.264 -0.0853  0.1537 -0.5714
 5704TIP3    H138747   4.938   1.088   3.251 -0.3674 -0.0453  1.5985
 5704TIP3    H238748   4.979   1.224   3.198 -0.2315 -1.4602 -2.2139
 5705TIP3   OH238749   5.844   4.320   2.310  0.0781 -0.5432  0.0668
 5705TIP3    H138750   5.752   4.338   2.287  0.5145  1.3089 -0.3985
 5705TIP3    H238751   5.873   4.399   2.355  1.4143 -1.1631  0.3256
 5706TIP3   OH238752   0.569   5.471   1.960  0.0224  0.3595  0.8385
 5706TIP3    H138753   0.604   5.469   1.871 -2.2054 -0.7062 -0.0671
 5706TIP3    H238754   0.647   5.482   2.015  1.5063  0.5911 -1.1765
 5707TIP3   OH238755   1.181   6.965   0.079  0.0757 -0.2196  0.2271
 5707TIP3    H138756   1.147   6.987   0.166  0.2988  2.1975 -0.2049
 5707TIP3    H238757   1.273   6.944   0.094  0.1232  0.2276  0.5870
 5708TIP3   OH238758   3.944   6.776   2.586 -0.3036  0.0466  0.2400
 5708TIP3    H138759   3.872   6.776   2.649 -2.1449 -0.2484 -1.7636
 5708TIP3    H238760   3.902   6.789   2.501  2.0188 -0.1542 -1.0183
 5709TIP3   OH238761   5.702   6.107   1.922  0.3241  0.2813  0.3774
 5709TIP3    H138762   5.695   6.040   1.854  1.0342  0.4077  0.1775
 5709TIP3    H238763   5.726   6.187   1.876 -2.9817  1.3481  0.2503
 5710TIP3   OH238764   4.486   3.105   7.121 -0.5448  0.0897  0.2088
 5710TIP3    H138765   4.453   3.170   7.059 -0.6028 -1.3478 -1.3360
 5710TIP3    H238766   4.578   3.130   7.136 -0.9184  1.2515  0.6791
 5711TIP3   OH238767   4.062   0.273   2.730  0.1258  0.0669  0.0246
 5711TIP3    H138768   4.067   0.296   2.637  0.3364  1.4536  0.3510
 5711TIP3    H238769   3.977   0.231   2.740 -0.4170  0.9826 -0.5874
 5712TIP3   OH238770   6.789   0.659   6.637  0.0516  1.0458  0.1359
 5712TIP3    H138771   6.878   0.622   6.635 -0.6584 -0.9334  1.5618
 5712TIP3    H238772   6.796   0.735   6.695  0.5247 -0.0875  1.6336
 5713TIP3   OH238773   6.516   5.758   7.453 -0.0418  0.1060  0.6589
 5713TIP3    H138774   6.430   5.783   7.488  0.0310  0.2447  0.7376
 5713TIP3    H238775   6.497   5.684   7.396 -0.1783 -0.0510  0.9022
 5714TIP3   OH238776   1.947   0.216   2.381 -0.0758  0.3327 -0.5036
 5714TIP3    H138777   1.906   0.136   2.411  2.2669  0.1858  2.8656
 5714TIP3    H238778   2.012   0.237   2.449  0.9301  3.8997 -2.3043
 5715TIP3   OH238779   1.651   1.693   3.108  0.0592  0.0446  0.0167
 5715TIP3    H138780   1.668   1.781   3.141 -0.5535  0.5547 -1.0023
 5715TIP3    H238781   1.568   1.668   3.149  1.2726 -0.9547  2.0190
 5716TIP3   OH238782   5.697   2.243   1.255 -0.5819  0.5959 -0.0616
 5716TIP3    H138783   5.609   2.212   1.236 -0.2525  0.1691 -0.9468
 5716TIP3    H238784   5.730   2.182   1.321 -0.8674  0.6218  0.1078
 5717TIP3   OH238785   1.322   5.510   1.998 -0.1692 -0.0372 -0.1059
 5717TIP3    H138786   1.354   5.437   1.944  0.8200 -0.7067  1.3292
 5717TIP3    H238787   1.394   5.528   2.059 -1.2097  0.7675  0.9252
 5718TIP3   OH238788   4.380   1.412   7.464  0.1687 -0.0492  0.3344
 5718TIP3    H138789   4.384   1.496   7.510  0.1549 -0.6272  1.4297
 5718TIP3    H238790   4.357   1.435   7.374 -1.7477  0.9784  1.0394
 5719TIP3   OH238791   3.877   6.316   1.526  0.1129 -0.2634 -0.1865
 5719TIP3    H138792   3.801   6.372   1.543  0.4679 -0.0511  0.7392
 5719TIP3    H238793   3.950   6.361   1.569  0.6960 -0.6687 -0.7284
 5720TIP3   OH238794   0.112   4.181   2.973  0.1329  0.4684 -0.6142
 5720TIP3    H138795   0.065   4.230   2.906  0.5541  0.8817 -0.6181
 5720TIP3    H238796   0.068   4.204   3.055  0.8719  1.5753 -0.5009
 5721TIP3   OH238797   4.140   5.477   7.883  0.1965 -0.0743  0.0313
 5721TIP3    H138798   4.131   5.385   7.907 -1.7830  0.0475 -0.1206
 5721TIP3    H238799   4.120   5.525   7.963 -1.6518  0.2346 -0.5593
 5722TIP3   OH238800   4.766   3.535   8.002  0.2038  0.7775  0.4252
 5722TIP3    H138801   4.687   3.532   7.949  2.4366 -0.0874 -3.2352
 5722TIP3    H238802   4.789   3.443   8.016 -0.1930  0.9865  2.8590
 5723TIP3   OH238803   0.846   5.956   7.102  0.0209  0.4729 -0.0014
 5723TIP3    H138804   0.798   5.940   7.021  1.4553  0.0859 -0.8201
 5723TIP3    H238805   0.801   5.904   7.168  0.0156 -0.8526 -1.0009
 5724TIP3   OH238806   0.841   3.827   1.402  0.5740 -0.1108  0.1115
 5724TIP3    H138807   0.923   3.796   1.440  0.8991  2.1402  1.3968
 5724TIP3    H238808   0.791   3.861   1.476 -0.4937  0.7326 -0.9513
 5725TIP3   OH238809   2.282   4.182   7.917  0.3072 -0.1412  0.0878
 5725TIP3    H138810   2.373   4.170   7.945  0.2037 -0.5856  0.2442
 5725TIP3    H238811   2.263   4.274   7.933  1.3125  0.4221 -1.6432
 5726TIP3   OH238812   0.451   4.576   7.511 -0.4380  0.0750 -0.1189
 5726TIP3    H138813   0.508   4.503   7.535 -0.2319  0.0883 -0.5673
 5726TIP3    H238814   0.469   4.592   7.419 -1.7643 -0.4538 -0.4977
 5727TIP3   OH238815   6.100   2.406   3.414 -0.5766  0.2606 -0.1027
 5727TIP3    H138816   6.072   2.410   3.506  0.2059 -0.6887  0.1959
 5727TIP3    H238817   6.104   2.313   3.394  0.1798  0.4300 -0.8118
 5728TIP3   OH238818   1.459   6.281   2.198 -0.1797  0.5220 -0.2337
 5728TIP3    H138819   1.524   6.211   2.195 -0.6366  0.0632  0.2373
 5728TIP3    H238820   1.421   6.275   2.286  0.3178  1.8763  0.0869
 5729TIP3   OH238821   6.347   4.764   8.015  0.8898  0.4075 -0.0851
 5729TIP3    H138822   6.296   4.829   8.064 -0.2314 -1.5874  1.5477
 5729TIP3    H238823   6.298   4.753   7.933 -1.2628 -1.2047  1.2945
 5730TIP3   OH238824   2.437   2.802   2.302  0.0041  0.3125  0.8904
 5730TIP3    H138825   2.514   2.832   2.350 -1.3665  2.0634  2.1203
 5730TIP3    H238826   2.386   2.753   2.366 -1.4529  1.9727  1.0691
 5731TIP3   OH238827   1.048   6.242   2.585 -0.5058  0.0395 -0.3760
 5731TIP3    H138828   1.065   6.314   2.645 -2.9685 -0.8011  1.5618
 5731TIP3    H238829   0.965   6.264   2.544 -1.6938 -1.8838  0.7985
 5732TIP3   OH238830   6.485   2.807   2.877 -0.7391 -0.5438  0.4768
 5732TIP3    H138831   6.566   2.837   2.919 -0.0430  0.5537 -1.4990
 5732TIP3    H238832   6.431   2.885   2.871 -0.7737 -0.6401 -0.7082
 5733TIP3   OH238833   2.039   2.251   7.690  0.1683  0.0312 -0.0799
 5733TIP3    H138834   1.983   2.313   7.643  1.1226  1.0167  0.0566
 5733TIP3    H238835   2.062   2.296   7.771 -1.8467 -1.8035  1.6726
 5734TIP3   OH238836   4.431   1.609   0.327 -0.1303  0.0087  0.1138
 5734TIP3    H138837   4.478   1.649   0.401  1.3970 -1.4762  0.0194
 5734TIP3    H238838   4.461   1.518   0.326 -0.7730 -0.2348 -1.8142
 5735TIP3   OH238839   5.966   0.360   7.328 -0.6908  0.3033 -0.6701
 5735TIP3    H138840   5.956   0.394   7.416 -2.1103 -0.7443 -0.3814
 5735TIP3    H238841   5.893   0.397   7.279  0.4668  1.4247 -1.6242
 5736TIP3   OH238842   0.700   4.002   0.456  0.2606 -0.3376 -0.0907
 5736TIP3    H138843   0.676   4.049   0.536  1.1806  0.2231 -0.1238
 5736TIP3    H238844   0.709   4.071   0.390  2.5572 -0.4015  0.0804
 5737TIP3   OH238845   4.121   1.350   2.079 -0.5131  0.4790 -0.1382
 5737TIP3    H138846   4.032   1.358   2.042 -1.0697  0.6180  1.1724
 5737TIP3    H238847   4.179   1.366   2.005 -1.5868  0.1947 -1.0660
 5738TIP3   OH238848   4.492   1.279   1.436  0.5447 -0.1079  0.2420
 5738TIP3    H138849   4.430   1.206   1.440  0.6068 -0.3538 -1.9541
 5738TIP3    H238850   4.442   1.354   1.467  0.1102 -0.8567  1.4025
 5739TIP3   OH238851   4.383   5.390   1.143  0.2360 -0.0224  0.5092
 5739TIP3    H138852   4.457   5.343   1.105  0.9560  2.3025 -1.1684
 5739TIP3    H238853   4.310   5.373   1.083 -0.0143 -0.4936  0.9383
 5740TIP3   OH238854   1.040   0.253   2.293  0.3145  0.1796 -0.1642
 5740TIP3    H138855   1.070   0.344   2.298 -1.6175  0.8332  0.4956
 5740TIP3    H238856   1.056   0.218   2.381  0.4292  0.0721 -0.2262
 5741TIP3   OH238857   5.191   4.872   0.457 -0.2430  0.1109 -0.3312
 5741TIP3    H138858   5.114   4.906   0.412  1.3039  0.3731 -3.0046
 5741TIP3    H238859   5.248   4.948   0.468  0.8813 -0.5547 -1.2469
 5742TIP3   OH238860   1.967   6.607   1.021 -0.4699 -0.4898  0.0920
 5742TIP3    H138861   2.004   6.693   1.002  0.8822 -0.6233  1.8311
 5742TIP3    H238862   2.040   6.546   1.007 -1.0034 -1.1775  0.2728
 5743TIP3   OH238863   0.531   5.736   0.148  0.4178  0.0153 -0.7796
 5743TIP3    H138864   0.576   5.716   0.230 -0.8474  0.0523 -0.0576
 5743TIP3    H238865   0.549   5.829   0.134  0.2085  0.1359 -0.2681
 5744TIP3   OH238866   4.215   3.072   0.961 -0.8119  0.3982 -0.1863
 5744TIP3    H138867   4.139   3.051   1.016 -0.9103 -2.2272 -1.1605
 5744TIP3    H238868   4.184   3.057   0.872  0.5981  0.0937 -0.6482
 5745TIP3   OH238869   0.308   6.727   6.546  0.0802  0.2864 -0.2112
 5745TIP3    H138870   0.232   6.785   6.542  1.0532  1.7228  0.8442
 5745TIP3    H238871   0.326   6.719   6.640  0.2937 -1.3428 -0.3651
 5746TIP3   OH238872   2.867   3.600   0.295  0.1413  0.1591  0.3610
 5746TIP3    H138873   2.934   3.650   0.342 -0.1343  1.3855 -0.4956
 5746TIP3    H238874   2.893   3.509   0.305  1.8447  0.5987  0.2061
 5747TIP3   OH238875   2.385   2.647   7.789  0.6672 -0.2773  0.2535
 5747TIP3    H138876   2.290   2.645   7.775  0.8181 -1.5537 -0.8916
 5747TIP3    H238877   2.401   2.726   7.840 -0.7544  1.3175 -1.6296
 5748TIP3   OH238878   1.596   2.962   8.283 -0.5078 -0.0800 -0.0014
 5748TIP3    H138879   1.619   2.972   8.190 -2.1248 -0.1885 -0.4351
 5748TIP3    H238880   1.512   3.006   8.292 -2.3178 -3.3570  0.5239
 5749TIP3   OH238881   5.621   2.505   7.808 -0.1225 -0.0788  0.0217
 5749TIP3    H138882   5.644   2.506   7.901 -1.3712  1.8689  0.3662
 5749TIP3    H238883   5.596   2.414   7.791  1.7374 -0.8602  1.1296
 5750TIP3   OH238884   1.991   6.312   1.808  0.2189 -0.5578  0.6295
 5750TIP3    H138885   1.998   6.256   1.731  0.4030  0.8991 -0.4506
 5750TIP3    H238886   2.067   6.289   1.861 -0.4819 -2.3378  0.9419
 5751TIP3   OH238887   3.245   6.729   7.104 -0.5717  0.4232 -0.0334
 5751TIP3    H138888   3.213   6.665   7.040 -0.1968  0.6331 -0.4361
 5751TIP3    H238889   3.308   6.679   7.157  2.2538  1.1932 -2.4135
 5752TIP3   OH238890   1.222   3.437   0.919 -0.1354 -0.5381 -0.0305
 5752TIP3    H138891   1.285   3.368   0.902 -0.9262 -2.1628  2.8758
 5752TIP3    H238892   1.275   3.511   0.948  0.5658 -1.3535  0.8312
 5753TIP3   OH238893   4.184   5.857   7.689  0.6035 -0.3838 -0.1505
 5753TIP3    H138894   4.208   5.860   7.597  0.5827 -0.4806 -0.1588
 5753TIP3    H238895   4.250   5.801   7.730  0.4048 -0.6381 -0.1709
 5754TIP3   OH238896   2.636   3.488   7.666 -0.2466 -0.1216 -0.3697
 5754TIP3    H138897   2.625   3.577   7.699  2.9410  0.8200 -1.4696
 5754TIP3    H238898   2.627   3.496   7.571 -0.8453 -1.1727 -0.4191
 5755TIP3   OH238899   5.563   3.366   0.333 -0.9070 -0.0000 -0.3843
 5755TIP3    H138900   5.518   3.337   0.412 -0.7598 -0.5175 -0.4893
 5755TIP3    H238901   5.512   3.441   0.303 -1.0967  0.0578  0.0726
 5756TIP3   OH238902   3.801   4.303   7.362  0.4772  0.0375 -0.1187
 5756TIP3    H138903   3.829   4.382   7.407 -1.1498  0.1366  0.8246
 5756TIP3    H238904   3.841   4.308   7.276  2.5426  0.5541  0.8188
 5757TIP3   OH238905   2.179   3.303   8.454 -0.1783  0.1888 -0.2569
 5757TIP3    H138906   2.239   3.232   8.478  1.0482  0.9013 -1.0910
 5757TIP3    H238907   2.096   3.279   8.495  0.7323 -0.7018  1.1571
 5758TIP3   OH238908   2.295   5.277   2.823 -0.5395  0.2966 -0.1103
 5758TIP3    H138909   2.244   5.328   2.886 -0.9876 -0.0725 -0.1655
 5758TIP3    H238910   2.386   5.295   2.846 -0.6733 -0.5570  1.2612
 5759TIP3   OH238911   1.880   6.382   2.093 -0.6409  0.4084  0.6776
 5759TIP3    H138912   1.900   6.360   2.002 -1.2233  0.9652  0.4120
 5759TIP3    H238913   1.786   6.401   2.094 -0.6177  0.5278  1.3695
 5760TIP3   OH238914   0.275   5.485   7.699 -0.5890 -0.0353 -0.0273
 5760TIP3    H138915   0.291   5.575   7.671 -0.5200 -0.2845 -0.8064
 5760TIP3    H238916   0.215   5.450   7.634 -1.3748 -0.2677  0.7956
 5761TIP3   OH238917   2.654   5.501   1.450  0.0804 -1.0287 -0.2466
 5761TIP3    H138918   2.672   5.556   1.374 -0.1601 -0.4570  0.1042
 5761TIP3    H238919   2.739   5.464   1.474  0.4072 -0.1027  0.0552
 5762TIP3   OH238920   2.161   2.665   8.340  0.5431 -0.0557 -0.5956
 5762TIP3    H138921   2.070   2.637   8.349  0.5320  0.0090 -0.5048
 5762TIP3    H238922   2.169   2.689   8.247  0.3035  0.5090 -0.4749
 5763TIP3   OH238923   6.218   1.738   7.082 -0.4372  0.0571  0.7491
 5763TIP3    H138924   6.140   1.718   7.029 -0.2567  1.1431  0.0451
 5763TIP3    H238925   6.221   1.833   7.085  2.5421  0.2191 -1.8928
 5764TIP3   OH238926   3.141   2.188   8.087 -0.3641 -0.5506  0.2487
 5764TIP3    H138927   3.161   2.101   8.051 -1.0095 -0.8468  0.6015
 5764TIP3    H238928   3.127   2.173   8.180 -1.0004 -0.1545  0.2207
 5765TIP3   OH238929   1.161   0.151   1.279 -0.3389 -0.4628 -0.0974
 5765TIP3    H138930   1.121   0.133   1.194 -0.8676  0.2844 -0.0103
 5765TIP3    H238931   1.119   0.231   1.310  0.3227 -0.3570  0.5708
 5766TIP3   OH238932   0.143   1.582   8.256 -0.3140  0.4801 -0.3190
 5766TIP3    H138933   0.121   1.628   8.337  0.5796 -0.5487  0.5411
 5766TIP3    H238934   0.233   1.609   8.237  0.7841 -1.8829  1.0011
 5767TIP3   OH238935   0.363   6.744   8.061 -0.0924 -0.0991  0.3012
 5767TIP3    H138936   0.298   6.736   7.991  1.0734 -0.7349 -0.7308
 5767TIP3    H238937   0.446   6.718   8.021  0.5939 -0.5725  1.9457
 5768TIP3   OH238938   0.293   2.633   8.362 -0.5195  0.4298 -0.4751
 5768TIP3    H138939   0.252   2.661   8.444  0.3008 -1.1314  0.4968
 5768TIP3    H238940   0.253   2.549   8.343 -0.3724  0.5744 -1.4497
 5769TIP3   OH238941   1.744   2.486   0.171  0.2323  0.3817 -0.3666
 5769TIP3    H138942   1.675   2.474   0.236 -0.3920  1.9490 -0.6935
 5769TIP3    H238943   1.822   2.506   0.222  0.2964 -0.6827 -0.0247
 5770TIP3   OH238944   5.394   6.674   0.139  0.5503  0.5347 -0.3083
 5770TIP3    H138945   5.486   6.701   0.129  0.4320  0.3439 -2.3408
 5770TIP3    H238946   5.396   6.611   0.212  2.3986 -0.9041 -1.4784
 5771TIP3   OH238947   0.699   3.434   7.166 -0.4452  0.0220  0.2494
 5771TIP3    H138948   0.734   3.495   7.231 -0.3643 -0.9762  1.1689
 5771TIP3    H238949   0.609   3.418   7.194 -0.3569 -0.5448  0.2247
 5772TIP3   OH238950   5.818   4.662   2.328 -0.0615  0.4329 -0.5353
 5772TIP3    H138951   5.829   4.629   2.238 -2.4655 -0.8569 -0.4446
 5772TIP3    H238952   5.859   4.596   2.383  1.0964  1.0500 -0.6054
 5773TIP3   OH238953   6.295   0.496   0.619  0.2686  0.2059 -0.7293
 5773TIP3    H138954   6.345   0.422   0.653 -0.8606  0.1443  0.9632
 5773TIP3    H238955   6.313   0.497   0.526  1.1663 -1.5358 -0.6148
 5774TIP3   OH238956   5.166   3.303   7.327  0.1243 -0.2405  0.6865
 5774TIP3    H138957   5.072   3.303   7.308  0.5252  1.0265 -1.5902
 5774TIP3    H238958   5.195   3.215   7.300 -0.2742 -0.4009  0.7658
 5775TIP3   OH238959   0.164   4.953   1.592  0.0828 -0.2242  0.1357
 5775TIP3    H138960   0.250   4.924   1.561  0.9701  1.6936  0.6662
 5775TIP3    H238961   0.163   5.047   1.577 -1.6657 -0.0930  0.8120
 5776TIP3   OH238962   3.598   2.109   1.292  0.2858 -0.0694  0.0094
 5776TIP3    H138963   3.590   2.163   1.213  0.6139  0.2347  0.1825
 5776TIP3    H238964   3.604   2.173   1.363 -0.2231 -0.3422  0.3030
 5777TIP3   OH238965   0.838   5.594   0.232  0.7556 -0.5134 -0.0167
 5777TIP3    H138966   0.798   5.678   0.209 -0.5112 -1.4028 -1.1995
 5777TIP3    H238967   0.792   5.567   0.311  0.7347 -0.4016  0.0104
 5778TIP3   OH238968   4.066   3.416   2.481  0.1763 -0.0377  0.8509
 5778TIP3    H138969   4.025   3.409   2.395  1.6515  1.4447 -0.0276
 5778TIP3    H238970   4.007   3.470   2.532 -0.3926 -0.3902  0.5748
 5779TIP3   OH238971   0.831   0.191   2.823  0.0554 -0.3293  0.9294
 5779TIP3    H138972   0.799   0.281   2.818 -2.1399 -1.1173 -0.5718
 5779TIP3    H238973   0.921   0.199   2.855 -1.1523  2.1290  4.1512
 5780TIP3   OH238974   2.786   0.656   8.350 -0.4036  0.2279 -0.3033
 5780TIP3    H138975   2.859   0.637   8.408 -0.1995 -1.3616 -1.0447
 5780TIP3    H238976   2.820   0.640   8.262 -1.8610 -1.4202 -0.6148
 5781TIP3   OH238977   6.506   0.390   1.165  0.4656  0.2446 -0.0542
 5781TIP3    H138978   6.512   0.313   1.222  0.5427  0.0312 -0.3478
 5781TIP3    H238979   6.580   0.382   1.105  0.5035  0.5747 -0.0531
 5782TIP3   OH238980   4.014   2.746   0.599  0.2755 -0.9002 -0.1907
 5782TIP3    H138981   4.023   2.778   0.689  2.3478  0.7853 -0.9154
 5782TIP3    H238982   4.079   2.675   0.593 -1.8791 -3.0742  0.3879
 5783TIP3   OH238983   4.257   0.129   3.170  0.7083  0.5640  0.1444
 5783TIP3    H138984   4.266   0.196   3.102  1.0693  2.2255  1.7759
 5783TIP3    H238985   4.172   0.088   3.151 -0.1220  2.3259 -0.1854
 5784TIP3   OH238986   3.105   0.058   2.064 -0.2187  0.5052 -0.0707
 5784TIP3    H138987   3.176   0.043   2.003 -1.3111 -0.8760 -1.0567
 5784TIP3    H238988   3.059   0.135   2.029 -0.4096  0.1613 -0.5794
 5785TIP3   OH238989   1.195   1.788   1.496  0.0982 -0.8324  0.1369
 5785TIP3    H138990   1.238   1.839   1.564 -1.5979 -0.3976  0.9415
 5785TIP3    H238991   1.196   1.698   1.529  0.3199 -0.8147  0.1797
 5786TIP3   OH238992   2.618   4.159   0.520  0.7540 -0.5187 -0.3797
 5786TIP3    H138993   2.607   4.101   0.596  1.3522  0.9307  0.8692
 5786TIP3    H238994   2.693   4.123   0.473  0.7131 -1.1271  0.0127
 5787TIP3   OH238995   6.708   1.780   6.999  0.4400 -0.1443 -0.5636
 5787TIP3    H138996   6.734   1.814   6.913  2.0042 -0.1959 -0.1370
 5787TIP3    H238997   6.678   1.858   7.047 -1.8241 -0.3197 -1.5929
 5788TIP3   OH238998   4.383   3.311   0.038 -0.2113 -1.1804  0.0631
 5788TIP3    H138999   4.341   3.272  -0.039 -0.8713 -1.6697  0.6548
 5788TIP3    H239000   4.444   3.244   0.068 -0.0768 -1.0562  0.0662
 5789TIP3   OH239001   4.300   3.587   8.165 -0.4200  0.0040 -0.0726
 5789TIP3    H139002   4.296   3.627   8.251  0.5592  0.4243 -0.2066
 5789TIP3    H239003   4.229   3.628   8.115 -0.8225 -0.0541  0.4467
 5790TIP3   OH239004   6.484   0.703   8.393 -0.2496  0.1329 -0.7168
 5790TIP3    H139005   6.443   0.723   8.478 -1.7482  2.8435 -1.9442
 5790TIP3    H239006   6.576   0.685   8.415 -1.0605 -1.5831  1.6807
 5791TIP3   OH239007   1.853   2.647   2.223  0.4960  0.5714  0.0557
 5791TIP3    H139008   1.779   2.708   2.229  0.4683  0.4835  0.6539
 5791TIP3    H239009   1.857   2.606   2.309  1.5168  0.8943  0.1778
 5792TIP3   OH239010   6.692   3.494   8.292 -0.4682  0.4397 -0.3341
 5792TIP3    H139011   6.747   3.466   8.365  0.0563 -1.6976 -1.4582
 5792TIP3    H239012   6.677   3.415   8.241 -4.6225  0.9013 -0.1611
 5793TIP3   OH239013   1.674   0.111   7.430 -0.3337  0.3507  0.0304
 5793TIP3    H139014   1.661   0.172   7.503  0.1929  1.5711 -0.8625
 5793TIP3    H239015   1.730   0.159   7.368  0.1828 -1.0904 -0.6545
 5794TIP3   OH239016   6.869   0.811   7.414 -0.1880  0.3928  0.1504
 5794TIP3    H139017   6.790   0.814   7.359  0.2461 -0.5352 -0.5630
 5794TIP3    H239018   6.876   0.719   7.440 -0.7755  0.9354  2.3859
 5795TIP3   OH239019   3.863   4.751   0.039 -0.3360 -0.5987  0.3949
 5795TIP3    H139020   3.796   4.803  -0.006 -2.7105 -3.0577  0.8397
 5795TIP3    H239021   3.850   4.771   0.132  1.5348  1.0169  0.3819
 5796TIP3   OH239022   6.443   2.596   7.807 -0.4050 -0.4214  0.3924
 5796TIP3    H139023   6.430   2.640   7.723 -0.4970 -0.2854  0.4785
 5796TIP3    H239024   6.445   2.503   7.785  1.3817 -0.3267 -0.0195
 5797TIP3   OH239025   1.074   4.339   1.306 -0.0475  0.0506  0.4328
 5797TIP3    H139026   1.037   4.349   1.218  1.3837 -0.2485 -0.2253
 5797TIP3    H239027   0.998   4.324   1.362 -0.8038 -2.7759 -1.1878
 5798TIP3   OH239028   3.957   1.171   0.978 -0.4672  0.3854 -0.1501
 5798TIP3    H139029   3.951   1.080   1.009 -0.3957  0.8446  1.2979
 5798TIP3    H239030   3.923   1.168   0.889  1.1244 -1.3572 -0.7676
 5799TIP3   OH239031   2.963   6.309   7.984  0.0883 -0.0686  0.3092
 5799TIP3    H139032   2.940   6.355   8.065 -0.3020 -0.7488  0.5963
 5799TIP3    H239033   3.034   6.361   7.947 -0.6860  1.0529  0.3412
 5800TIP3   OH239034   4.351   2.582   1.905  0.5960 -0.2434  0.3222
 5800TIP3    H139035   4.259   2.558   1.917 -0.3910  0.3537 -4.2866
 5800TIP3    H239036   4.370   2.642   1.977 -3.5270  1.7141  0.0797
 5801TIP3   OH239037   1.344   4.536   0.064 -0.4362  0.8314 -0.1481
 5801TIP3    H139038   1.414   4.501   0.119  0.3031  0.9575 -0.9936
 5801TIP3    H239039   1.296   4.458   0.036 -0.5425  0.7316  0.2955
 5802TIP3   OH239040   5.170   2.401   2.071 -0.0449 -0.5582  0.1505
 5802TIP3    H139041   5.228   2.379   1.999 -0.9697 -0.2170 -0.7247
 5802TIP3    H239042   5.223   2.389   2.150  1.1542 -0.3916 -0.6092
 5803TIP3   OH239043   3.532   3.466   8.314  0.1002  0.0365 -0.0585
 5803TIP3    H139044   3.587   3.402   8.359 -0.1103  0.9774  1.6089
 5803TIP3    H239045   3.486   3.416   8.247  1.4818 -1.1433 -0.1745
 5804TIP3   OH239046   4.669   4.884   7.421  0.1499  0.2110 -0.3366
 5804TIP3    H139047   4.683   4.798   7.381 -2.5504 -0.7881  0.6626
 5804TIP3    H239048   4.581   4.910   7.393  0.7868  2.6001 -0.4001
 5805TIP3   OH239049   0.410   3.013   7.910 -0.9563  0.3934 -0.3031
 5805TIP3    H139050   0.366   3.062   7.840 -1.2499  1.3590  0.5348
 5805TIP3    H239051   0.455   2.942   7.864 -2.6206 -0.0971 -1.2880
 5806TIP3   OH239052   6.061   5.117   0.953 -0.4290 -0.3315 -0.5673
 5806TIP3    H139053   6.142   5.068   0.937 -0.2144 -0.2684  0.2764
 5806TIP3    H239054   5.995   5.049   0.966 -0.5581 -0.3837 -1.4273
 5807TIP3   OH239055   1.505   0.252   1.011 -0.4687 -0.2456  0.2326
 5807TIP3    H139056   1.478   0.171   1.054 -0.3833 -0.0530  0.6567
 5807TIP3    H239057   1.518   0.228   0.920 -1.7972 -0.4129  0.0684
 5808TIP3   OH239058   3.427   6.461   2.542 -0.0209  0.7069  0.6162
 5808TIP3    H139059   3.384   6.495   2.620  2.3832 -0.0836  2.4240
 5808TIP3    H239060   3.520   6.482   2.555  0.7651 -1.4146 -0.9399
 5809TIP3   OH239061   3.732   3.902   2.599 -0.0648 -0.0239 -0.3912
 5809TIP3    H139062   3.719   3.835   2.666  2.0171 -0.5029 -0.3763
 5809TIP3    H239063   3.684   3.869   2.523 -2.5097  0.5584  0.8205
 5810TIP3   OH239064   2.494   4.290   7.119 -0.1786 -0.2124  0.3936
 5810TIP3    H139065   2.467   4.209   7.076  0.5871  0.9879 -2.6314
 5810TIP3    H239066   2.568   4.265   7.174 -0.1813 -1.6282 -0.2066
 5811TIP3   OH239067   2.432   4.654   1.059  0.1153  0.0496 -0.1740
 5811TIP3    H139068   2.453   4.574   1.107 -0.0055 -0.1276 -0.4116
 5811TIP3    H239069   2.374   4.703   1.117  3.1973  1.8281  1.6869
 5812TIP3   OH239070   6.273   3.446   0.368 -0.3663  0.0460  0.1536
 5812TIP3    H139071   6.325   3.476   0.293 -1.9859 -1.7988 -1.8629
 5812TIP3    H239072   6.202   3.509   0.374  0.3651  0.8247  0.9090
 5813TIP3   OH239073   6.871   0.839   0.713 -0.0901  0.4970  0.9030
 5813TIP3    H139074   6.903   0.806   0.797  0.0981 -0.9390  0.3070
 5813TIP3    H239075   6.783   0.872   0.732  0.0176  0.3447  1.6996
 5814TIP3   OH239076   0.250   0.205   1.164  0.6345  0.7005  0.2965
 5814TIP3    H139077   0.186   0.254   1.215 -0.1355  0.5260 -0.4912
 5814TIP3    H239078   0.208   0.189   1.080  1.7126  0.5855 -0.2461
 5815TIP3   OH239079   2.154   2.489   1.048 -0.0789  0.8559 -0.4388
 5815TIP3    H139080   2.231   2.433   1.036 -0.9453 -0.0997 -1.7394
 5815TIP3    H239081   2.103   2.445   1.116 -0.0075  0.9130 -0.3474
 5816TIP3   OH239082   1.512   6.194   0.564 -0.7443  0.0004  0.0305
 5816TIP3    H139083   1.540   6.285   0.553  0.5223 -0.5262 -1.4858
 5816TIP3    H239084   1.594   6.145   0.574 -1.2112 -1.2954 -1.9836
 5817TIP3   OH239085   6.796   0.508   0.529  0.2270 -0.5005 -0.2146
 5817TIP3    H139086   6.790   0.435   0.468 -0.0295 -0.5325 -0.1506
 5817TIP3    H239087   6.835   0.579   0.478 -1.4088 -0.0286 -0.8760
 5818TIP3   OH239088   2.101   4.045   8.071  0.0077  0.4801  0.5285
 5818TIP3    H139089   2.165   4.063   8.002 -0.2516  1.8903  0.6203
 5818TIP3    H239090   2.072   3.956   8.055 -0.8525  1.1177 -1.8509
 5819TIP3   OH239091   5.986   0.192   8.080  0.1404 -0.2408  0.5380
 5819TIP3    H139092   6.080   0.208   8.081 -0.2713  3.0836 -0.8014
 5819TIP3    H239093   5.954   0.233   8.161 -0.5252  2.7859 -1.1040
 5820TIP3   OH239094   0.241   3.432   0.711 -0.9519  0.3198 -0.1484
 5820TIP3    H139095   0.303   3.399   0.647  0.1168  1.5746  0.1830
 5820TIP3    H239096   0.191   3.355   0.739 -0.7427 -0.4151 -1.6997
 5821TIP3   OH239097   0.421   4.176   8.146 -0.3011 -0.2014 -0.7317
 5821TIP3    H139098   0.443   4.096   8.194 -0.1141  0.4297  0.2561
 5821TIP3    H239099   0.329   4.192   8.166 -0.5431 -0.5596 -1.5193
 5822TIP3   OH239100   3.182   4.189   6.452 -1.0202  0.0142  0.4413
 5822TIP3    H139101   3.195   4.094   6.451  0.3265  0.0676 -2.9858
 5822TIP3    H239102   3.237   4.220   6.524  0.6326 -1.6418 -0.0136
 5823TIP3   OH239103   6.583   1.908   8.179 -0.4266 -0.0285 -1.1036
 5823TIP3    H139104   6.581   1.831   8.122  0.4090 -1.6600  0.9203
 5823TIP3    H239105   6.542   1.879   8.260  3.1295  0.3824  1.0739
 5824TIP3   OH239106   0.855   1.191   2.737  0.1333 -0.0766 -0.0870
 5824TIP3    H139107   0.795   1.239   2.794  2.0777  2.7164 -0.1967
 5824TIP3    H239108   0.817   1.198   2.650 -0.8011 -0.8486  0.2444
 5825TIP3   OH239109   0.212   0.922   2.290  0.0376  0.1065 -0.4640
 5825TIP3    H139110   0.155   0.847   2.275 -0.1741  0.0791  0.4029
 5825TIP3    H239111   0.240   0.913   2.381 -0.5802  1.4720 -0.1071
 5826TIP3   OH239112   4.183   2.227   2.080 -0.2318 -0.7106 -0.0140
 5826TIP3    H139113   4.126   2.184   2.144  0.0391  0.3430  0.9617
 5826TIP3    H239114   4.226   2.154   2.034 -0.7734 -1.4931  0.6878
 5827TIP3   OH239115   5.857   2.183   2.442 -0.3709 -0.5692  0.4308
 5827TIP3    H139116   5.826   2.165   2.354 -0.3173 -0.3883  0.3754
 5827TIP3    H239117   5.867   2.278   2.446  0.0164 -0.6092  0.5031
 5828TIP3   OH239118   2.106   4.254   0.097 -0.1253  0.1192 -0.0988
 5828TIP3    H139119   2.159   4.174   0.090 -0.7189 -0.3006  0.1183
 5828TIP3    H239120   2.169   4.325   0.088  0.4574 -0.3727  0.0117
 5829TIP3   OH239121   0.570   0.669   2.043 -0.1189  0.4059 -0.3057
 5829TIP3    H139122   0.637   0.695   2.107 -1.5149 -0.2365  1.5238
 5829TIP3    H239123   0.549   0.750   1.997  1.2620  0.7960 -0.3077
 5830TIP3   OH239124   4.560   4.299   1.535 -0.0180 -0.1111 -0.1627
 5830TIP3    H139125   4.502   4.295   1.611  1.3367  1.5411  1.0377
 5830TIP3    H239126   4.617   4.224   1.545 -0.6878 -0.6452 -0.2808
 5831TIP3   OH239127   3.928   5.841   0.053 -0.2379 -0.2894  0.1637
 5831TIP3    H139128   3.897   5.897  -0.018  0.7576  2.2329  1.6002
 5831TIP3    H239129   3.978   5.899   0.110  1.2810 -2.7608  1.5476
 5832TIP3   OH239130   6.419   4.278   0.160  0.2689  0.2672  0.2895
 5832TIP3    H139131   6.486   4.345   0.150  1.2544 -0.1353  3.1322
 5832TIP3    H239132   6.336   4.325   0.153  0.9007  2.2307  3.6938
 5833TIP3   OH239133   2.942   4.104   7.715  0.2359 -0.2587 -0.0197
 5833TIP3    H139134   2.946   4.183   7.768 -1.5562 -1.3415  1.8805
 5833TIP3    H239135   2.874   4.122   7.650 -2.3507 -1.0916  2.2260
 5834TIP3   OH239136   2.746   0.847   0.409 -0.1261 -0.3179 -0.0921
 5834TIP3    H139137   2.832   0.840   0.451  0.2345 -1.8901 -1.0578
 5834TIP3    H239138   2.760   0.907   0.336  0.2497 -0.9027 -0.5007
 5835TIP3   OH239139   2.455   6.814   0.805 -0.0337  0.0245 -0.0846
 5835TIP3    H139140   2.482   6.798   0.896  1.3718  2.1621 -0.0725
 5835TIP3    H239141   2.372   6.768   0.797 -0.0240 -0.5186  2.1785
 5836TIP3   OH239142   4.074   2.980   1.768  0.5869  0.2098 -1.0600
 5836TIP3    H139143   4.112   3.066   1.784  0.5721  0.1174 -0.4968
 5836TIP3    H239144   4.121   2.946   1.692 -0.6254  1.4472 -2.4045
 5837TIP3   OH239145   5.927   2.393   0.977  0.5664  0.2104  0.6089
 5837TIP3    H139146   5.848   2.439   1.007  0.9730  0.4910  1.2540
 5837TIP3    H239147   5.937   2.422   0.886  0.4078  0.8453  0.7862
 5838TIP3   OH239148   5.481   1.253   8.091 -0.0269  0.2886 -0.4814
 5838TIP3    H139149   5.388   1.266   8.076  0.1701  0.6028 -1.5163
 5838TIP3    H239150   5.486   1.206   8.174 -1.0940  0.3857 -0.3538
 5839TIP3   OH239151   6.207   4.652   1.529 -0.4096 -0.3355  0.2366
 5839TIP3    H139152   6.146   4.661   1.602  0.6460 -0.3141  1.1470
 5839TIP3    H239153   6.284   4.609   1.567  0.3830  0.1735 -0.7263
 5840TIP3   OH239154   3.091   5.870   6.762  0.3212 -0.0093 -0.4563
 5840TIP3    H139155   3.053   5.858   6.675  1.0784  1.6638 -1.0543
 5840TIP3    H239156   3.145   5.948   6.755 -0.0790  0.5483  1.6956
 5841TIP3   OH239157   4.120   2.439   6.988  0.5336 -0.2628 -0.1554
 5841TIP3    H139158   4.040   2.406   6.947  0.6776 -1.4466  0.4545
 5841TIP3    H239159   4.091   2.511   7.044 -0.2570 -1.2574  0.7559
 5842TIP3   OH239160   0.620   3.777   1.629 -0.5903 -1.0285  0.4508
 5842TIP3    H139161   0.570   3.719   1.572 -0.5491 -1.8910  1.2755
 5842TIP3    H239162   0.575   3.773   1.714  0.1372 -0.8224  0.8553
 5843TIP3   OH239163   4.764   3.378   2.738  0.5862  0.3083  0.2550
 5843TIP3    H139164   4.771   3.348   2.647 -1.0002 -0.7688  0.4381
 5843TIP3    H239165   4.724   3.464   2.732  1.0852  0.5192 -0.0914
 5844TIP3   OH239166   6.493   2.716   1.370 -0.2503 -0.2058  0.1159
 5844TIP3    H139167   6.404   2.681   1.368 -1.1677  1.8434  1.4603
 5844TIP3    H239168   6.488   2.797   1.319  0.9200 -0.2335 -0.0636
 5845TIP3   OH239169   6.863   4.337   7.243 -0.3173 -0.7154 -0.1352
 5845TIP3    H139170   6.843   4.244   7.252 -0.2786 -1.0788 -3.0060
 5845TIP3    H239171   6.777   4.378   7.232 -0.6620  0.1632  4.1453
 5846TIP3   OH239172   6.409   4.452   2.170 -0.2611 -0.8386  0.0309
 5846TIP3    H139173   6.367   4.460   2.255  2.1629  1.7227  1.1395
 5846TIP3    H239174   6.365   4.516   2.114  0.3176 -0.1031  0.3961
 5847TIP3   OH239175   3.410   3.519   0.221  0.1016 -0.1695 -0.4336
 5847TIP3    H139176   3.434   3.609   0.197  1.6528 -0.8637 -1.6204
 5847TIP3    H239177   3.490   3.468   0.208 -0.9525 -1.8709 -0.5028
 5848TIP3   OH239178   6.830   6.796   2.000  0.4640 -0.3392 -0.4471
 5848TIP3    H139179   6.881   6.728   1.958  0.2314 -1.1395  0.5350
 5848TIP3    H239180   6.812   6.859   1.930  1.6167 -0.7177 -1.1145
 5849TIP3   OH239181   4.995   4.082   8.023 -0.0492  0.3656 -0.0539
 5849TIP3    H139182   5.014   4.165   7.980 -0.1791  0.9137  0.9182
 5849TIP3    H239183   4.923   4.044   7.973 -0.6251  1.2893  0.0573
 5850TIP3   OH239184   5.796   2.111   1.470 -0.8595  0.2311  0.2070
 5850TIP3    H139185   5.792   2.016   1.464 -0.9990  0.2253  0.3936
 5850TIP3    H239186   5.800   2.129   1.564 -1.9412  0.4547  0.2246
 5851TIP3   OH239187   4.499   6.052   1.125 -0.4285  0.3412 -0.0761
 5851TIP3    H139188   4.415   6.055   1.079 -0.3142  2.6542 -0.2118
 5851TIP3    H239189   4.564   6.043   1.056 -0.5043 -2.4378  0.0696
 5852TIP3   OH239190   6.422   2.340   7.751 -0.2961 -0.6456  0.3391
 5852TIP3    H139191   6.398   2.278   7.682  0.5455 -0.9185  0.2723
 5852TIP3    H239192   6.489   2.294   7.801  1.0983  0.5727 -0.3224
 5853TIP3   OH239193   5.099   5.292   1.009 -0.0571 -0.9410  0.1597
 5853TIP3    H139194   5.141   5.346   1.076  0.5976 -0.6163 -0.4949
 5853TIP3    H239195   5.005   5.297   1.028  0.1713 -1.4425  1.4754
 5854TIP3   OH239196   1.796   5.342   1.952  0.8152 -0.3014  0.3210
 5854TIP3    H139197   1.854   5.320   1.878  0.9691  1.5693 -0.1641
 5854TIP3    H239198   1.833   5.422   1.988 -2.1490  1.7783 -0.8488
 5855TIP3   OH239199   0.094   4.628   1.092  0.3935 -0.3955 -0.3509
 5855TIP3    H139200   0.115   4.695   1.158  1.2010 -0.8948 -0.0838
 5855TIP3    H239201   0.118   4.545   1.134 -2.4606 -1.1101  0.1131
 5856TIP3   OH239202   5.375   1.734   3.580 -0.1907 -0.4403  0.4609
 5856TIP3    H139203   5.337   1.646   3.584 -1.5835  0.1362  0.6178
 5856TIP3    H239204   5.305   1.791   3.612  1.6096  0.4847  3.0023
 5857TIP3   OH239205   5.458   4.914   7.555  0.2252 -0.4472 -0.2282
 5857TIP3    H139206   5.461   4.903   7.650 -1.0507  0.6815 -0.0212
 5857TIP3    H239207   5.414   4.999   7.542  1.0583 -0.2146 -1.8101
 5858TIP3   OH239208   2.624   5.489   1.951 -0.4103  0.1038  0.3082
 5858TIP3    H139209   2.691   5.426   1.977 -0.2028  0.2029  0.0169
 5858TIP3    H239210   2.656   5.527   1.869 -0.6447  0.4183  0.3572
 5859TIP3   OH239211   0.928   3.198   0.361 -0.3004  0.1548  0.0078
 5859TIP3    H139212   0.873   3.261   0.315 -0.6442  0.9173  1.4051
 5859TIP3    H239213   0.903   3.207   0.453  0.5865 -1.0868  0.3986
 5860TIP3   OH239214   6.388   1.740   0.621 -0.5682 -0.0780 -0.5536
 5860TIP3    H139215   6.429   1.697   0.546  1.5401  0.4861  0.2101
 5860TIP3    H239216   6.400   1.833   0.605  1.6103  0.0431  1.2949
 5861TIP3   OH239217   0.855   1.885   0.432 -0.3810  0.8056 -0.3564
 5861TIP3    H139218   0.822   1.816   0.374 -1.2471  0.1595  0.8654
 5861TIP3    H239219   0.939   1.909   0.394 -0.6777  0.0257 -1.5748
 5862TIP3   OH239220   2.684   3.628   2.771 -0.0350 -0.4700 -0.8415
 5862TIP3    H139221   2.717   3.539   2.777  0.1166 -0.3660  0.0359
 5862TIP3    H239222   2.618   3.625   2.702 -0.7065 -1.4766 -0.1794
 5863TIP3   OH239223   6.092   2.732   7.476  0.0132 -0.3846  0.5225
 5863TIP3    H139224   6.010   2.683   7.482  0.4256 -0.9869  1.6039
 5863TIP3    H239225   6.124   2.713   7.388 -0.9561 -0.2152  0.1217
 5864TIP3   OH239226   4.524   2.659   2.352 -0.4910 -0.0725 -0.4328
 5864TIP3    H139227   4.569   2.706   2.422  1.3250 -2.1381 -0.1148
 5864TIP3    H239228   4.439   2.636   2.388  0.3700 -0.9969  1.0826
 5865TIP3   OH239229   4.555   3.686   1.430 -0.4173  0.1018 -0.2435
 5865TIP3    H139230   4.530   3.624   1.362  0.7666 -1.0531  0.3496
 5865TIP3    H239231   4.636   3.652   1.466 -1.3468  0.2809  2.2435
 5866TIP3   OH239232   3.455   6.963   0.367 -0.8080  0.5105 -0.1304
 5866TIP3    H139233   3.409   6.977   0.451 -0.1053  2.0922  0.0403
 5866TIP3    H239234   3.547   6.960   0.391 -0.7223 -1.9750 -0.5502
 5867TIP3   OH239235   5.297   3.776   1.887 -0.2083 -0.5530  0.2418
 5867TIP3    H139236   5.219   3.747   1.841  0.2046 -1.9832  0.4002
 5867TIP3    H239237   5.363   3.711   1.866  0.5339 -0.1667  1.2854
 5868TIP3   OH239238   5.659   1.782   2.251  0.3729  0.3618 -0.1271
 5868TIP3    H139239   5.636   1.689   2.243 -2.2145  0.7283  1.6285
 5868TIP3    H239240   5.579   1.828   2.225  1.8005  2.1717 -1.5482
 5869TIP3   OH239241   4.279   4.984   2.388  0.1907 -0.1176 -0.5047
 5869TIP3    H139242   4.232   4.901   2.383 -0.6575  0.4199 -2.6454
 5869TIP3    H239243   4.325   4.981   2.471  2.1357 -3.7533 -1.5097
 5870TIP3   OH239244   5.907   6.229   0.497  0.0099  0.2606 -0.2438
 5870TIP3    H139245   5.923   6.184   0.580 -0.8064  0.3030 -0.0486
 5870TIP3    H239246   5.892   6.158   0.434 -1.1593  0.2379  0.0385
 5871TIP3   OH239247   1.532   3.433   0.218  0.1293  0.5510 -0.5613
 5871TIP3    H139248   1.555   3.392   0.134  0.8911 -0.6766  0.2252
 5871TIP3    H239249   1.439   3.416   0.228  0.8124 -3.2043  0.8483
 5872TIP3   OH239250   5.513   3.527   7.068  0.3161 -0.0814  0.5856
 5872TIP3    H139251   5.467   3.477   7.000 -0.3473  1.2235  0.0293
 5872TIP3    H239252   5.497   3.479   7.149  0.1792 -1.0667 -0.0158
 5873TIP3   OH239253   1.076   6.449   2.835 -0.1058 -0.5157  1.0394
 5873TIP3    H139254   1.008   6.516   2.823  0.1557 -0.3106  0.6963
 5873TIP3    H239255   1.156   6.489   2.800  0.3785 -0.4404  2.2093
 5874TIP3   OH239256   3.103   5.482   8.133 -0.3576 -0.6745  0.0861
 5874TIP3    H139257   3.035   5.419   8.112  0.8403 -1.7957 -0.5983
 5874TIP3    H239258   3.107   5.540   8.057 -1.4977  0.3079  0.7397
 5875TIP3   OH239259   4.594   6.520   0.755  0.3530  0.0641  0.3847
 5875TIP3    H139260   4.518   6.560   0.798  0.0778  1.5138 -1.3275
 5875TIP3    H239261   4.645   6.594   0.722  1.1101 -0.9368 -0.7899
 5876TIP3   OH239262   4.574   0.923   3.091 -0.0747 -0.3236  0.6181
 5876TIP3    H139263   4.536   0.972   3.018  1.6437 -0.3620 -0.3540
 5876TIP3    H239264   4.544   0.833   3.079  0.6156 -0.4390 -0.3768
 5877TIP3   OH239265   0.507   5.604   8.150 -0.2716  0.0628 -0.2517
 5877TIP3    H139266   0.477   5.694   8.134  0.2911  0.1704 -0.6998
 5877TIP3    H239267   0.445   5.549   8.103 -0.3872  0.2321 -0.2980
 5878TIP3   OH239268   5.540   5.582   7.565 -0.6532  0.1558 -0.4310
 5878TIP3    H139269   5.634   5.564   7.570 -0.7412 -0.1077  0.4926
 5878TIP3    H239270   5.530   5.634   7.486  0.2282 -0.0863 -0.7190
 5879TIP3   OH239271   4.890   1.488   7.399  0.3137 -0.6909  0.3026
 5879TIP3    H139272   4.859   1.520   7.314 -0.7691 -1.8531  0.2172
 5879TIP3    H239273   4.817   1.436   7.432 -0.8276  2.6131  3.6415
 5880TIP3   OH239274   2.404   3.994   1.806  0.0946  0.6891  0.0588
 5880TIP3    H139275   2.438   3.909   1.778 -1.8046 -0.8337  2.0228
 5880TIP3    H239276   2.421   3.997   1.900 -2.0860  1.3120  0.4949
 5881TIP3   OH239277   4.216   2.985   8.157 -0.7507  0.7238 -0.3188
 5881TIP3    H139278   4.177   2.980   8.070 -0.9510 -0.1312 -0.1820
 5881TIP3    H239279   4.165   2.924   8.210  0.4623 -0.0386 -0.0170
 5882TIP3   OH239280   0.571   6.868   7.801 -0.1607 -0.0688 -0.4430
 5882TIP3    H139281   0.579   6.786   7.850 -0.7242 -0.8042 -1.5457
 5882TIP3    H239282   0.576   6.842   7.709  1.1264  1.3083 -0.8030
 5883TIP3   OH239283   6.412   4.323   1.463 -0.0216  0.1186  0.5188
 5883TIP3    H139284   6.451   4.399   1.505  1.1792 -0.5535  0.6683
 5883TIP3    H239285   6.484   4.260   1.456 -0.2696  0.0315 -2.1493
 5884TIP3   OH239286   4.951   2.547   2.457  0.5308 -0.1716 -0.2306
 5884TIP3    H139287   4.933   2.614   2.391 -2.2492 -1.3098 -0.7662
 5884TIP3    H239288   4.954   2.465   2.408  0.0608 -0.8603  0.8495
 5885TIP3   OH239289   2.001   4.016   1.527  0.1875 -0.0659  0.5064
 5885TIP3    H139290   2.073   4.055   1.479  0.1155 -1.8113 -1.1295
 5885TIP3    H239291   2.035   3.932   1.557 -0.7346 -0.3057  0.9217
 5886TIP3   OH239292   1.590   2.696   8.290  0.0827  0.6106 -0.2662
 5886TIP3    H139293   1.495   2.687   8.297  0.0806  0.0632 -0.8164
 5886TIP3    H239294   1.608   2.787   8.313 -0.5006  0.5427  0.4926
 5887TIP3   OH239295   0.631   4.280   7.379  0.2373  0.2118  0.2539
 5887TIP3    H139296   0.668   4.229   7.307 -1.8620 -0.7625 -0.2380
 5887TIP3    H239297   0.537   4.285   7.358 -0.1048  1.6521  1.8953
 5888TIP3   OH239298   6.835   1.847   3.526 -0.0910  0.6656 -0.0279
 5888TIP3    H139299   6.754   1.897   3.517 -0.0231  0.6571 -0.7118
 5888TIP3    H239300   6.899   1.895   3.474 -0.7905 -1.8055 -3.5662
 5889TIP3   OH239301   4.680   3.026   7.577  0.3458  0.5448 -0.1749
 5889TIP3    H139302   4.614   3.080   7.620 -0.2725  0.8824 -1.4842
 5889TIP3    H239303   4.633   2.946   7.552  1.5170 -1.3018  2.8464
 5890TIP3   OH239304   3.199   2.255   2.379 -0.3851 -0.8331  0.7515
 5890TIP3    H139305   3.217   2.209   2.298 -1.4309 -1.7238  1.0106
 5890TIP3    H239306   3.119   2.215   2.413 -0.1551 -0.2490  2.0502
 5891TIP3   OH239307   6.498   0.197   7.742 -0.0020 -0.0716 -0.0256
 5891TIP3    H139308   6.423   0.213   7.685 -1.7736 -2.2363  1.4983
 5891TIP3    H239309   6.556   0.141   7.690 -0.5652 -0.2862 -0.4328
 5892TIP3   OH239310   3.106   1.652   0.781  0.3333  0.0128 -0.0268
 5892TIP3    H139311   3.180   1.608   0.822  0.3994 -0.3107 -0.4848
 5892TIP3    H239312   3.143   1.698   0.707  0.6617  2.7974  1.7360
 5893TIP3   OH239313   6.339   4.666   0.210 -0.2781 -0.8039 -0.5541
 5893TIP3    H139314   6.388   4.747   0.222 -1.0144 -0.2235 -1.3793
 5893TIP3    H239315   6.254   4.682   0.251  0.2896 -1.9420  1.2167
 5894TIP3   OH239316   3.573   0.225   0.251 -0.0659 -0.0925  0.5608
 5894TIP3    H139317   3.543   0.249   0.338 -0.1790 -1.3554  0.8804
 5894TIP3    H239318   3.668   0.218   0.260 -0.1321 -0.8202  0.7422
 5895TIP3   OH239319   5.994   0.018   2.143 -0.2024 -0.2870  0.6536
 5895TIP3    H139320   5.929   0.018   2.072  0.1951  2.0527  0.2125
 5895TIP3    H239321   6.078   0.025   2.098  0.0763  0.8729  1.3049
 5896TIP3   OH239322   5.271   2.530   0.068 -0.1423  0.2748  0.6772
 5896TIP3    H139323   5.305   2.603   0.018 -0.2719 -0.5083 -0.5881
 5896TIP3    H239324   5.344   2.503   0.125 -0.1474  1.4502  1.2626
 5897TIP3   OH239325   1.328   2.307   8.411  0.2634  0.5917 -0.3513
 5897TIP3    H139326   1.399   2.365   8.437  0.6020  0.1888 -0.3624
 5897TIP3    H239327   1.360   2.219   8.432 -1.0730  0.5087  1.7294
 5898TIP3   OH239328   1.442   4.169   1.101 -0.3716  0.3523 -0.2653
 5898TIP3    H139329   1.511   4.103   1.095  0.4141  1.1610 -0.1376
 5898TIP3    H239330   1.405   4.156   1.189 -1.3878 -1.0455 -0.8543
 5899TIP3   OH239331   3.120   3.606   1.432  0.0654  0.5459  0.0725
 5899TIP3    H139332   3.127   3.517   1.396 -2.0897  0.4775 -0.3087
 5899TIP3    H239333   3.031   3.611   1.467  0.5358  2.1932  1.1306
 5900TIP3   OH239334   3.976   5.375   7.029  0.3034 -0.2918  0.3836
 5900TIP3    H139335   3.888   5.338   7.040  0.4780 -0.5951  0.7831
 5900TIP3    H239336   3.962   5.470   7.027 -0.1173 -0.3589 -0.3433
 5901TIP3   OH239337   4.876   2.193   2.893  0.0147  0.6891 -0.3680
 5901TIP3    H139338   4.841   2.105   2.876  0.4285  0.8289 -2.2021
 5901TIP3    H239339   4.970   2.181   2.898  0.0289  0.9433 -0.0114
 5902TIP3   OH239340   1.437   4.665   2.088  0.2148 -0.0240 -0.2457
 5902TIP3    H139341   1.386   4.590   2.057 -0.1491  0.6243 -1.2605
 5902TIP3    H239342   1.526   4.646   2.060  0.6223 -1.2189  1.6374
 5903TIP3   OH239343   1.941   4.411   0.463 -0.1176  0.2634  0.1194
 5903TIP3    H139344   1.846   4.411   0.472 -0.1988 -0.7103 -0.4920
 5903TIP3    H239345   1.966   4.320   0.482  0.6067  0.3373 -0.4404
 5904TIP3   OH239346   5.393   1.195   0.783  0.2803 -0.5882  0.4279
 5904TIP3    H139347   5.333   1.124   0.806  0.0262 -0.4450  0.2120
 5904TIP3    H239348   5.335   1.270   0.768  0.3579 -0.8819 -1.5493
 5905TIP3   OH239349   5.994   5.011   1.247  0.6127  0.3897  0.3884
 5905TIP3    H139350   6.078   5.052   1.267  1.1986 -1.2789  1.4992
 5905TIP3    H239351   6.001   4.923   1.282 -1.5436  0.1368  0.3080
 5906TIP3   OH239352   5.227   5.907   1.790  0.3266 -0.0131 -0.8471
 5906TIP3    H139353   5.186   5.852   1.723  0.4406 -0.3039 -0.6758
 5906TIP3    H239354   5.318   5.878   1.793  0.8563  1.3986 -2.0455
 5907TIP3   OH239355   5.773   0.685   8.063  0.3032 -0.6388  0.1557
 5907TIP3    H139356   5.766   0.774   8.098  0.0447 -0.4961 -0.2472
 5907TIP3    H239357   5.694   0.675   8.009  0.9494 -0.6749 -0.7892
 5908TIP3   OH239358   3.598   1.248   2.024  0.3512 -0.4553 -0.0797
 5908TIP3    H139359   3.628   1.174   2.077  1.7644  0.2360  0.1330
 5908TIP3    H239360   3.629   1.325   2.072 -1.5762  0.3288  0.0074
 5909TIP3   OH239361   6.978   1.930   2.699 -0.1359  0.5171 -0.7522
 5909TIP3    H139362   6.903   1.985   2.676 -0.5180  0.5082  0.4492
 5909TIP3    H239363   6.996   1.950   2.791 -1.4064 -2.6257  0.3046
 5910TIP3   OH239364   2.324   6.158   0.390  0.2659  0.6374 -0.0134
 5910TIP3    H139365   2.281   6.232   0.433 -1.0270 -0.1905  0.1971
 5910TIP3    H239366   2.279   6.151   0.305 -0.4446 -0.5889  0.4334
 5911TIP3   OH239367   4.883   1.803   7.573  0.3918  0.2067  0.0513
 5911TIP3    H139368   4.959   1.750   7.550  0.1248 -0.9779  1.7164
 5911TIP3    H239369   4.813   1.740   7.587 -1.0984  1.3120 -1.9516
 5912TIP3   OH239370   3.694   2.838   3.198  0.0789 -0.7414 -0.1085
 5912TIP3    H139371   3.727   2.751   3.176 -1.4842 -1.2498 -0.5316
 5912TIP3    H239372   3.625   2.823   3.262 -0.2893  0.1688 -0.2707
 5913TIP3   OH239373   3.782   1.353   7.720 -0.7602 -0.6371  0.5053
 5913TIP3    H139374   3.848   1.397   7.667 -1.8320  0.8655  0.3548
 5913TIP3    H239375   3.819   1.354   7.809 -1.5648  2.4901  0.9262
 5914TIP3   OH239376   6.916   5.856   2.287 -0.1745 -0.1767 -0.1015
 5914TIP3    H139377   6.830   5.815   2.288  0.6690 -2.1006 -0.9787
 5914TIP3    H239378   6.930   5.880   2.195 -0.0389  0.7701  0.1564
 5915TIP3   OH239379   2.296   5.050   0.537  0.2859 -0.2724  0.4407
 5915TIP3    H139380   2.337   5.070   0.453  1.1833  1.7612  1.2745
 5915TIP3    H239381   2.220   4.996   0.515  0.4732  0.2335 -1.6669
 5916TIP3   OH239382   6.579   6.547   1.868 -0.0459 -0.0848 -0.6813
 5916TIP3    H139383   6.647   6.590   1.816  1.3407 -0.2602  0.8927
 5916TIP3    H239384   6.582   6.592   1.952 -2.0676  0.0319 -0.6333
 5917TIP3   OH239385   2.403   2.818   1.712  0.8039  0.2347 -0.4766
 5917TIP3    H139386   2.367   2.733   1.685  0.4619  0.1233  0.3180
 5917TIP3    H239387   2.331   2.880   1.699  0.1645 -0.0493  1.4677
 5918TIP3   OH239388   5.630   6.618   2.434  0.2200 -0.3945 -0.3354
 5918TIP3    H139389   5.635   6.559   2.359  0.2325 -0.5909 -0.1816
 5918TIP3    H239390   5.591   6.699   2.399 -1.7573 -1.1943 -0.1359
 5919TIP3   OH239391   3.100   5.228   1.396 -0.8226  0.5324 -0.7735
 5919TIP3    H139392   3.113   5.151   1.341  0.4662  0.3945 -0.3166
 5919TIP3    H239393   3.139   5.300   1.346 -1.8025  0.8596 -1.0893
 5920TIP3   OH239394   4.823   4.811   8.134 -0.1210 -0.4248 -0.3733
 5920TIP3    H139395   4.806   4.798   8.040  0.6572 -0.2516 -0.5486
 5920TIP3    H239396   4.757   4.758   8.178  0.5784 -1.9213 -1.0366
 5921TIP3   OH239397   3.003   2.021   0.135 -0.6117 -0.3713  0.2454
 5921TIP3    H139398   2.912   2.032   0.164 -0.5335  0.3380  0.2306
 5921TIP3    H239399   2.996   1.966   0.057 -0.8105 -2.5058  1.6821
 5922TIP3   OH239400   4.384   3.845   7.428  0.1410  0.1888 -0.2334
 5922TIP3    H139401   4.407   3.915   7.489  1.3536 -0.1469 -0.2706
 5922TIP3    H239402   4.468   3.803   7.407 -0.5343 -1.1363 -0.3796
 5923TIP3   OH239403   6.155   3.040   0.518  0.0255 -0.6413 -0.0562
 5923TIP3    H139404   6.145   3.112   0.455  2.3049  1.3907  1.6821
 5923TIP3    H239405   6.209   2.976   0.473 -0.7133 -0.5477 -1.1102
 5924TIP3   OH239406   2.432   0.907   0.353 -0.2168  0.1964  0.6284
 5924TIP3    H139407   2.433   0.922   0.258 -0.2817  2.7801  0.9547
 5924TIP3    H239408   2.499   0.840   0.367 -1.0966 -1.2092 -1.3285
 5925TIP3   OH239409   5.412   3.509   7.869  0.2405 -0.3908 -0.2907
 5925TIP3    H139410   5.476   3.558   7.818 -0.1293 -0.0139 -0.4017
 5925TIP3    H239411   5.420   3.544   7.958 -0.0827 -0.0596 -0.3875
 5926TIP3   OH239412   0.887   3.712   8.272 -0.5467 -0.1790 -0.2103
 5926TIP3    H139413   0.877   3.807   8.280  0.8614 -0.0170 -0.1158
 5926TIP3    H239414   0.800   3.681   8.247 -1.2960  1.0020  0.8049
 5927TIP3   OH239415   2.307   1.968   2.504  0.4474 -0.6521 -0.0926
 5927TIP3    H139416   2.291   1.945   2.595 -0.9381 -1.4564 -0.4958
 5927TIP3    H239417   2.241   2.034   2.484  0.6285 -0.6030 -0.5443
 5928TIP3   OH239418   4.175   6.230   7.093  0.5516 -0.5908  0.3846
 5928TIP3    H139419   4.176   6.172   7.169 -1.3143  0.0472  0.9610
 5928TIP3    H239420   4.166   6.318   7.130  1.5100 -0.0843 -0.5333
 5929TIP3   OH239421   3.401   4.222   1.215 -0.3437  0.8027 -0.1462
 5929TIP3    H139422   3.420   4.196   1.306 -2.3378  0.5814  0.2450
 5929TIP3    H239423   3.417   4.316   1.214 -0.2006  0.7913  0.4081
 5930TIP3   OH239424   6.761   0.444   1.576 -0.1626  0.2237  0.3193
 5930TIP3    H139425   6.744   0.515   1.515  0.0634 -0.3471 -0.4228
 5930TIP3    H239426   6.676   0.403   1.590 -0.1346  0.0457 -0.0140
 5931TIP3   OH239427   2.911   2.135   7.866 -0.5588  0.0245  0.3260
 5931TIP3    H139428   2.848   2.197   7.903 -0.6236 -0.7481  1.5466
 5931TIP3    H239429   2.939   2.081   7.940 -0.9216 -1.7860 -0.7852
 5932TIP3   OH239430   0.480   4.273   7.103  0.0408  0.5954  0.0276
 5932TIP3    H139431   0.417   4.210   7.137 -1.8076  1.7284 -1.1168
 5932TIP3    H239432   0.565   4.231   7.114 -1.1255 -2.2414 -1.0235
 5933TIP3   OH239433   5.930   2.686   3.006  0.3865 -0.0781  0.7769
 5933TIP3    H139434   5.878   2.711   2.930 -1.2452 -0.4551  1.7300
 5933TIP3    H239435   6.010   2.648   2.968 -0.5550 -0.6411 -0.7585
 5934TIP3   OH239436   4.876   5.025   2.677 -0.0327  0.1369 -0.6705
 5934TIP3    H139437   4.817   5.013   2.750 -0.7142 -0.2117 -1.2668
 5934TIP3    H239438   4.898   4.936   2.649  2.5610  0.1801  0.9274
 5935TIP3   OH239439   3.992   0.231   8.186  0.1919 -0.3497 -0.2852
 5935TIP3    H139440   3.899   0.209   8.190  0.4238 -1.1116  1.2685
 5935TIP3    H239441   4.012   0.269   8.271  1.1051  0.7322 -0.9470
 5936TIP3   OH239442   4.711   3.385   7.555 -0.1485  0.8205 -0.0911
 5936TIP3    H139443   4.709   3.358   7.463 -0.1153  0.5250 -0.0073
 5936TIP3    H239444   4.789   3.441   7.562  0.1608  0.3990 -0.1236
 5937TIP3   OH239445   6.028   3.411   1.391  0.3134 -0.2806 -0.1188
 5937TIP3    H139446   6.032   3.418   1.486 -0.0836  2.3559 -0.2458
 5937TIP3    H239447   5.971   3.335   1.376  0.4653 -0.8211  1.7011
 5938TIP3   OH239448   1.720   1.805   0.419  0.2417  0.1067 -0.4592
 5938TIP3    H139449   1.635   1.816   0.377  0.1579  0.2794 -0.2449
 5938TIP3    H239450   1.783   1.836   0.354  0.0204  1.8770  0.1168
 5939TIP3   OH239451   0.043   3.729   7.874 -0.5841  0.4301  0.0426
 5939TIP3    H139452  -0.051   3.711   7.876 -0.4749 -0.5361 -1.9383
 5939TIP3    H239453   0.052   3.808   7.821 -0.2042 -0.0967 -0.6882
 5940TIP3   OH239454   4.716   3.945   8.455 -0.5721 -0.3829  0.6126
 5940TIP3    H139455   4.760   3.913   8.533  0.5726 -0.3807 -0.0050
 5940TIP3    H239456   4.623   3.928   8.470 -0.5319  0.8576  2.5468
 5941TIP3   OH239457   0.809   4.394   7.547  0.5058 -0.4035  0.6393
 5941TIP3    H139458   0.753   4.417   7.622  0.5789  0.9629  0.2999
 5941TIP3    H239459   0.749   4.350   7.486 -0.2850  1.1980  0.2043
 5942TIP3   OH239460   5.240   5.311   7.286  0.2994 -0.2988 -0.0324
 5942TIP3    H139461   5.153   5.327   7.249  0.0213  0.3665  0.8611
 5942TIP3    H239462   5.301   5.341   7.219 -0.1953  1.6465  0.3319
 5943TIP3   OH239463   4.396   5.987   0.779 -0.4158  0.0861  0.0348
 5943TIP3    H139464   4.358   5.994   0.692 -1.2113 -0.1156  0.3533
 5943TIP3    H239465   4.346   5.917   0.822 -0.9664  1.0910  1.1079
 5944TIP3   OH239466   0.916   1.080   8.078 -0.2047  0.2048 -0.1865
 5944TIP3    H139467   0.960   1.133   8.011  2.4537 -0.9470  0.5248
 5944TIP3    H239468   0.907   1.140   8.152  1.2772  0.1782  0.0475
 5945TIP3   OH239469   5.595   1.174   0.466 -0.1429 -0.0962  0.0916
 5945TIP3    H139470   5.684   1.168   0.430 -0.5871  1.7314 -1.5340
 5945TIP3    H239471   5.604   1.227   0.545  0.6553 -2.9956  2.0823
 5946TIP3   OH239472   3.181   0.092   8.157 -0.5410  0.1058 -0.2404
 5946TIP3    H139473   3.111   0.027   8.151  0.8682 -1.3614 -1.7568
 5946TIP3    H239474   3.188   0.111   8.251 -0.7251 -2.2593  0.3123
 5947TIP3   OH239475   2.466   3.613   2.559  0.3247  0.3365  0.3300
 5947TIP3    H139476   2.498   3.523   2.548 -1.4453 -0.0913 -1.8879
 5947TIP3    H239477   2.382   3.604   2.602  0.7282  1.0674  1.3113
 5948TIP3   OH239478   4.782   1.033   3.185  0.0349  0.3697 -0.0235
 5948TIP3    H139479   4.689   1.012   3.172  0.0700  1.2809 -2.2795
 5948TIP3    H239480   4.825   0.948   3.197 -0.8589 -0.2028 -0.7527
 5949TIP3   OH239481   1.550   4.520   7.693 -0.1410 -0.1010  0.5104
 5949TIP3    H139482   1.467   4.504   7.648  0.1950 -0.2677 -0.0601
 5949TIP3    H239483   1.551   4.614   7.709  0.8311  0.4262 -2.0872
 5950TIP3   OH239484   3.349   4.327   2.520 -0.8777  1.2295 -0.5736
 5950TIP3    H139485   3.263   4.293   2.496 -1.0092  1.8482 -1.0284
 5950TIP3    H239486   3.411   4.272   2.472 -0.9665  0.2698  0.3792
 5951TIP3   OH239487   3.913   5.364   1.366 -0.1398 -0.3896  0.6238
 5951TIP3    H139488   3.928   5.456   1.346 -0.2343  0.0814  2.4666
 5951TIP3    H239489   3.959   5.316   1.298  0.5093  1.0264  0.0330
 5952TIP3   OH239490   1.518   0.033   8.202  0.0341  0.8522  0.1724
 5952TIP3    H139491   1.470   0.110   8.234 -0.7915  0.1572  0.6473
 5952TIP3    H239492   1.547   0.058   8.114 -1.7805  1.0822 -0.3978
 5953TIP3   OH239493   3.408   4.593   8.291 -0.1475 -0.4040 -0.1567
 5953TIP3    H139494   3.484   4.638   8.254  0.4417 -0.1435  1.2745
 5953TIP3    H239495   3.371   4.656   8.353 -1.6564 -0.4662 -0.9533
 5954TIP3   OH239496   5.406   2.305   8.418  0.1243 -0.2844 -0.6312
 5954TIP3    H139497   5.325   2.348   8.446  0.4773  0.0011 -0.0230
 5954TIP3    H239498   5.475   2.370   8.435  0.5403 -0.7087 -0.6687
 5955TIP3   OH239499   0.272   0.776   1.080 -0.0435  0.0309  0.1334
 5955TIP3    H139500   0.355   0.731   1.064  0.2299  1.0403 -1.5981
 5955TIP3    H239501   0.298   0.860   1.118 -0.1464  0.7231 -1.2317
 5956TIP3   OH239502   0.403   1.203   7.472 -0.2670  0.0193  0.1493
 5956TIP3    H139503   0.424   1.267   7.540 -0.6794 -0.0054  0.3013
 5956TIP3    H239504   0.453   1.232   7.396 -1.9848  1.7150 -0.4259
 5957TIP3   OH239505   0.450   5.234   8.116  0.0484  1.3249  0.2383
 5957TIP3    H139506   0.527   5.227   8.059 -0.4885  2.5352 -0.6746
 5957TIP3    H239507   0.427   5.143   8.136  0.4599  0.8694 -1.2162
 5958TIP3   OH239508   4.829   2.693   1.422 -0.3006  0.1670  0.4240
 5958TIP3    H139509   4.846   2.765   1.483  1.7218  0.9817 -0.9804
 5958TIP3    H239510   4.873   2.617   1.462  2.7129  1.1302 -0.7969
 5959TIP3   OH239511   1.420   2.860   0.981 -0.0296  0.4317  0.4293
 5959TIP3    H139512   1.489   2.802   0.950  0.0342  0.6958  0.0791
 5959TIP3    H239513   1.374   2.888   0.902 -0.0131  0.9167  0.5881
 5960TIP3   OH239514   3.864   5.580   2.649  0.4011 -0.1805  0.3844
 5960TIP3    H139515   3.842   5.499   2.602 -1.3674 -0.8174  2.1607
 5960TIP3    H239516   3.911   5.550   2.727 -1.0950  0.3745  1.5421
 5961TIP3   OH239517   0.296   6.535   0.836 -0.2112  0.8149 -0.1082
 5961TIP3    H139518   0.361   6.467   0.853  0.9619  2.1870  1.2143
 5961TIP3    H239519   0.327   6.610   0.887 -1.5178  2.3016 -1.4188
 5962TIP3   OH239520   6.399   2.564   0.239 -0.0629 -0.5498 -0.0027
 5962TIP3    H139521   6.477   2.607   0.274 -0.6038  1.4426 -1.1026
 5962TIP3    H239522   6.427   2.524   0.157 -0.1873  0.2318 -0.4360
 5963TIP3   OH239523   4.712   3.763   2.244  0.5938 -0.2878 -0.6876
 5963TIP3    H139524   4.801   3.733   2.260  0.0675 -0.9943  1.2158
 5963TIP3    H239525   4.697   3.831   2.310 -0.6209 -0.9731 -0.2169
 5964TIP3   OH239526   4.044   3.095   0.709 -0.3296  0.0223 -0.8381
 5964TIP3    H139527   4.073   3.185   0.724  0.3825 -0.3915  0.4876
 5964TIP3    H239528   3.951   3.096   0.728 -0.2702  0.4212 -0.5563
 5965TIP3   OH239529   0.663   5.042   0.954 -0.1811  0.2148 -0.0302
 5965TIP3    H139530   0.751   5.053   0.991 -0.1353  1.8136 -0.5090
 5965TIP3    H239531   0.610   5.107   1.000 -0.7066  0.4570 -0.9437
 5966TIP3   OH239532   6.045   5.379   0.996  0.0371  0.4074  0.4306
 5966TIP3    H139533   6.079   5.402   0.910  2.8716 -0.5443  1.1884
 5966TIP3    H239534   6.035   5.284   0.993 -1.2947  0.5236  0.7016
 5967TIP3   OH239535   1.041   1.935   7.825  0.2857 -0.0813 -0.1958
 5967TIP3    H139536   0.971   1.880   7.790  1.5713 -1.6181 -0.4202
 5967TIP3    H239537   1.122   1.896   7.792  1.2492  2.7096 -1.4930
 5968TIP3   OH239538   0.904   0.067   1.599 -0.5834  0.1164 -0.3437
 5968TIP3    H139539   0.883   0.057   1.692 -1.4071  0.3059 -0.5013
 5968TIP3    H239540   0.821   0.094   1.558  0.3070  2.3831 -0.7756
 5969TIP3   OH239541   4.446   4.246   1.823  0.0841 -0.0698 -0.4289
 5969TIP3    H139542   4.471   4.309   1.891  1.6897 -1.8616  0.7494
 5969TIP3    H239543   4.463   4.160   1.862  0.2588 -1.2081 -2.8089
 5970TIP3   OH239544   0.772   4.706   2.347 -0.5025 -0.2931 -0.0547
 5970TIP3    H139545   0.798   4.704   2.439 -0.9562 -1.3049  0.0632
 5970TIP3    H239546   0.683   4.739   2.347  0.6328  3.1652 -0.4614
 5971TIP3   OH239547   1.115   4.882   1.564  0.0609  0.2867  0.0357
 5971TIP3    H139548   1.058   4.831   1.506 -1.1854  1.3159  0.3252
 5971TIP3    H239549   1.065   4.892   1.645  0.5731  1.3674  0.2390
 5972TIP3   OH239550   5.157   2.197   7.921  0.3433  0.9925  0.3127
 5972TIP3    H139551   5.131   2.184   7.830  2.8054  1.1201 -0.4713
 5972TIP3    H239552   5.135   2.115   7.965 -0.6203  0.8325 -0.4422
 5973TIP3   OH239553   1.084   4.242   1.688  0.2231  0.1881  0.0412
 5973TIP3    H139554   1.146   4.181   1.649 -0.6985 -1.0747  0.5206
 5973TIP3    H239555   1.036   4.279   1.613  0.2282 -0.2763 -0.1908
 5974TIP3   OH239556   4.365   1.600   2.474  0.4149  0.5049  0.8454
 5974TIP3    H139557   4.270   1.595   2.469  0.4956 -0.5855 -0.4131
 5974TIP3    H239558   4.384   1.625   2.564 -1.0366 -0.4103  1.4326
 5975TIP3   OH239559   4.730   4.086   1.922 -0.1550  0.4028 -0.1637
 5975TIP3    H139560   4.700   4.149   1.987 -0.5394 -1.8468  1.9396
 5975TIP3    H239561   4.824   4.106   1.912 -0.5804  2.3364 -0.8484
 5976TIP3   OH239562   5.595   6.364   8.187  1.1413 -0.8011 -0.5857
 5976TIP3    H139563   5.545   6.397   8.112  0.3314 -1.4038 -0.3274
 5976TIP3    H239564   5.541   6.294   8.222  1.1462 -0.0259  1.0339
 5977TIP3   OH239565   0.171   1.466   7.430 -0.2772 -0.2086 -0.4366
 5977TIP3    H139566   0.138   1.481   7.341  3.7813 -1.1509 -2.3781
 5977TIP3    H239567   0.193   1.373   7.432  1.0337  0.0831  0.9911
 5978TIP3   OH239568   6.063   1.207   0.405  0.1193 -0.3804 -0.1053
 5978TIP3    H139569   5.982   1.156   0.412  0.0126 -0.0640  1.2026
 5978TIP3    H239570   6.125   1.162   0.463  0.5094  0.0634 -0.1684
 5979TIP3   OH239571   1.031   4.184   0.116  0.2830 -0.0829  0.3310
 5979TIP3    H139572   1.109   4.171   0.169 -0.2265  0.0823  1.1398
 5979TIP3    H239573   1.006   4.096   0.088  0.0494 -0.2691  1.1099
 5980TIP3   OH239574   1.243   1.387   2.291  0.1540 -0.5088 -0.1374
 5980TIP3    H139575   1.201   1.404   2.374  2.9701  2.4769  0.8757
 5980TIP3    H239576   1.216   1.459   2.234 -0.0493 -1.3440 -1.1433
 5981TIP3   OH239577   2.241   1.735   1.052  0.2631  0.2508 -0.4991
 5981TIP3    H139578   2.250   1.815   1.000 -1.8766 -0.2735 -1.8040
 5981TIP3    H239579   2.148   1.731   1.074  0.5194 -1.3540  0.4354
 5982TIP3   OH239580   3.576   6.751   1.280  0.2338  0.3255  0.2565
 5982TIP3    H139581   3.605   6.837   1.311  0.6512  0.7681 -1.2587
 5982TIP3    H239582   3.507   6.771   1.216 -0.6875 -0.5472  0.9565
 5983TIP3   OH239583   6.372   3.703   2.006 -0.2315 -0.3272 -0.0264
 5983TIP3    H139584   6.303   3.718   2.070  0.5257  1.8200  0.3871
 5983TIP3    H239585   6.328   3.706   1.921 -0.7808  0.1002  0.2691
 5984TIP3   OH239586   1.491   3.562   1.139  0.4993  0.1502  0.7411
 5984TIP3    H139587   1.473   3.599   1.053  0.5739 -0.0888  0.6215
 5984TIP3    H239588   1.546   3.486   1.122  0.5731  0.1410  1.0053
 5985TIP3   OH239589   1.957   4.374   7.744 -0.9982  0.4997  0.0411
 5985TIP3    H139590   1.901   4.403   7.816 -0.9160  0.9455 -0.0689
 5985TIP3    H239591   1.904   4.384   7.666 -1.4619 -1.0091  0.1342
 5986TIP3   OH239592   4.431   1.052   1.653 -0.3683 -0.1086  0.3762
 5986TIP3    H139593   4.465   1.023   1.738 -0.9524 -0.3961  0.5189
 5986TIP3    H239594   4.419   0.971   1.603 -2.0728 -0.1604  0.8023
 5987TIP3   OH239595   0.180   2.557   3.214  0.2762  0.7400  0.6249
 5987TIP3    H139596   0.251   2.499   3.243  1.0620  1.5137  0.3028
 5987TIP3    H239597   0.221   2.643   3.208 -0.2327  0.8886 -1.2876
 5988TIP3   OH239598   2.755   1.058   1.483  0.4413  0.6624  0.3898
 5988TIP3    H139599   2.823   1.109   1.441  0.3665  3.3637  3.1580
 5988TIP3    H239600   2.785   1.048   1.574 -1.6732 -0.2453  1.0609
 5989TIP3   OH239601   0.187   1.954   8.467  0.0246  0.2107  0.6199
 5989TIP3    H139602   0.241   1.876   8.478 -1.1534 -0.9330 -1.0871
 5989TIP3    H239603   0.246   2.018   8.428  0.6171 -0.3617  0.5447
 5990TIP3   OH239604   2.196   6.706   0.789  0.3259  0.7131  0.7195
 5990TIP3    H139605   2.163   6.783   0.835 -0.1665  1.8201 -1.3481
 5990TIP3    H239606   2.135   6.694   0.716  1.0897 -0.9216  0.3003
 5991TIP3   OH239607   0.624   5.243   0.394 -0.2659 -0.6525  0.3016
 5991TIP3    H139608   0.572   5.203   0.464 -1.7467  0.7248  0.0419
 5991TIP3    H239609   0.663   5.320   0.433 -1.0822  0.1156 -0.3381
 5992TIP3   OH239610   0.605   6.189   6.830  0.1821  0.3022  0.2206
 5992TIP3    H139611   0.542   6.211   6.899 -2.0277 -0.5351 -1.4136
 5992TIP3    H239612   0.556   6.197   6.749  1.7366 -1.9378 -1.0666
 5993TIP3   OH239613   0.155   4.177   2.053  0.5693  0.3436 -0.0501
 5993TIP3    H139614   0.101   4.120   2.108  1.3659  1.6089  2.2022
 5993TIP3    H239615   0.098   4.201   1.980 -1.9000  1.3386  2.0280
 5994TIP3   OH239616   2.639   0.100   0.337 -0.5434 -0.4947  0.3857
 5994TIP3    H139617   2.567   0.044   0.364 -2.7367  1.5731 -0.8232
 5994TIP3    H239618   2.644   0.168   0.405 -2.3044  1.4676 -1.3082
 5995TIP3   OH239619   0.643   1.849   1.994  0.5211  0.1409 -0.5286
 5995TIP3    H139620   0.568   1.888   1.950  0.1880  1.1701  0.8605
 5995TIP3    H239621   0.612   1.831   2.083  1.6416 -0.2978 -0.2033
 5996TIP3   OH239622   1.762   0.939   8.458 -0.3664  0.4981 -0.1296
 5996TIP3    H139623   1.803   1.026   8.454 -1.2412  1.1122  2.1955
 5996TIP3    H239624   1.681   0.948   8.407 -0.5046  1.1208  0.1852
 5997TIP3   OH239625   6.857   6.967   1.781  0.2799 -0.3376 -0.3731
 5997TIP3    H139626   6.853   7.059   1.810 -1.5956  0.1938 -2.0933
 5997TIP3    H239627   6.948   6.955   1.753  0.4967  1.0914 -0.3688
 5998TIP3   OH239628   6.459   5.847   6.977  0.6052  0.4587  0.5626
 5998TIP3    H139629   6.488   5.900   6.903  0.7437  0.1928  0.4274
 5998TIP3    H239630   6.531   5.787   6.994  0.2860  0.0457  0.4616
 5999TIP3   OH239631   4.865   3.558   2.937  0.6441  0.2095 -0.1099
 5999TIP3    H139632   4.828   3.472   2.914  0.6240 -0.2534  1.5589
 5999TIP3    H239633   4.953   3.538   2.969  0.9101  0.9047 -0.3884
 6000TIP3   OH239634   1.254   4.575   1.877  0.2731  0.3624  0.2989
 6000TIP3    H139635   1.244   4.525   1.796  0.3688 -1.4268  1.3472
 6000TIP3    H239636   1.334   4.625   1.864  1.3263 -1.3318 -0.0216
 6001TIP3   OH239637   6.499   0.008   0.127 -0.1044  0.4191 -0.4070
 6001TIP3    H139638   6.486   0.055   0.045  1.7576 -1.3526 -1.8285
 6001TIP3    H239639   6.502   0.076   0.194 -1.7201  1.9134 -1.7480
 6002TIP3   OH239640   6.616   4.670   2.080 -0.2346 -0.1263  0.4593
 6002TIP3    H139641   6.551   4.628   2.136  0.0090 -0.4390  0.5124
 6002TIP3    H239642   6.597   4.763   2.087 -0.2902 -0.1700  0.9588
 6003TIP3   OH239643   0.060   6.412   7.910  0.0739 -0.5397 -0.3988
 6003TIP3    H139644   0.070   6.374   7.998  0.4014  2.0749  0.7620
 6003TIP3    H239645  -0.004   6.355   7.867 -1.6734 -0.7195  2.2596
 6004TIP3   OH239646   3.313   3.137   2.274  0.2589  0.2020  0.3144
 6004TIP3    H139647   3.347   3.221   2.304  1.0619  0.4393 -1.1848
 6004TIP3    H239648   3.218   3.144   2.287  0.3541  1.1942  0.5601
 6005TIP3   OH239649   4.059   3.918   8.260 -0.1276 -0.3136 -0.1323
 6005TIP3    H139650   4.094   3.884   8.342  2.1989 -0.0538 -0.9410
 6005TIP3    H239651   4.122   3.985   8.232 -0.4837 -0.8385 -2.4408
 6006TIP3   OH239652   3.343   3.817   2.456  0.3026  0.2286 -0.5130
 6006TIP3    H139653   3.293   3.830   2.376  0.5961 -0.8460 -0.8880
 6006TIP3    H239654   3.290   3.859   2.524  0.6817  2.2969 -1.4300
 6007TIP3   OH239655   0.845   6.565   2.547  0.4006 -0.4964  0.4828
 6007TIP3    H139656   0.941   6.565   2.541  0.5261  0.1539  2.0946
 6007TIP3    H239657   0.820   6.478   2.517  1.4160 -0.3634 -0.8535
 6008TIP3   OH239658   5.035   2.601   8.193  0.4939  0.2371  0.3427
 6008TIP3    H139659   5.098   2.615   8.123 -1.2083 -0.0126 -1.3171
 6008TIP3    H239660   5.025   2.506   8.198  0.5388  0.2541  0.8912
 6009TIP3   OH239661   4.553   3.499   2.380  0.1247  0.0965 -0.4330
 6009TIP3    H139662   4.513   3.489   2.294 -1.2789 -2.3662  0.3918
 6009TIP3    H239663   4.481   3.488   2.441  1.5376 -1.2676  1.0933
 6010TIP3   OH239664   6.211   5.258   1.251  0.1957 -0.0077  0.3809
 6010TIP3    H139665   6.268   5.206   1.194 -0.7136 -2.1057  1.2916
 6010TIP3    H239666   6.184   5.333   1.197  0.6330 -1.0740 -1.3876
 6011TIP3   OH239667   6.819   0.710   3.244  0.0132  0.3479  0.0051
 6011TIP3    H139668   6.821   0.686   3.152 -1.4648  0.0826  0.0144
 6011TIP3    H239669   6.808   0.805   3.244  2.2368  0.6467 -0.0518
 6012TIP3   OH239670   5.784   1.692   2.518  0.5598  0.3918  0.0273
 6012TIP3    H139671   5.724   1.624   2.489  0.5512  0.5834 -0.4177
 6012TIP3    H239672   5.798   1.747   2.440  0.1851  1.1764  0.4995
 6013TIP3   OH239673   5.087   3.579   2.234 -0.4946  0.5863  0.0220
 6013TIP3    H139674   5.125   3.666   2.223  2.3952 -0.4518  0.7381
 6013TIP3    H239675   5.065   3.551   2.145  1.8610  0.7432 -0.6751
 6014TIP3   OH239676   6.419   5.757   7.963 -0.0376  0.3433  0.1752
 6014TIP3    H139677   6.352   5.809   7.918  1.1802  0.5599 -1.4893
 6014TIP3    H239678   6.401   5.666   7.937 -0.2275  0.3014  0.4551
 6015TIP3   OH239679   4.859   0.109   0.592 -0.4094 -0.2063 -0.3690
 6015TIP3    H139680   4.816   0.168   0.654  1.6247  1.6568 -0.6055
 6015TIP3    H239681   4.931   0.070   0.642 -0.5840 -1.0488 -0.7570
 6016TIP3   OH239682   0.858   1.414   1.166 -0.2148 -0.1078  0.4043
 6016TIP3    H139683   0.947   1.379   1.169  0.2233  0.9819  0.2544
 6016TIP3    H239684   0.868   1.509   1.168 -1.3906  0.0311  0.6991
 6017TIP3   OH239685   4.533   4.602   1.476  0.4745 -0.2082  0.1281
 6017TIP3    H139686   4.448   4.628   1.441  1.0879  0.6107 -0.8151
 6017TIP3    H239687   4.523   4.509   1.497 -0.2526 -0.4681 -1.2432
 6018TIP3   OH239688   4.744   0.638   0.138  0.9385  0.4066  0.4710
 6018TIP3    H139689   4.713   0.680   0.058 -1.6420  0.9679  1.6426
 6018TIP3    H239690   4.664   0.605   0.180  1.9633  1.4351  3.5369
 6019TIP3   OH239691   4.242   5.120   0.659  0.1099 -0.5308 -0.2438
 6019TIP3    H139692   4.199   5.146   0.740  0.1914  0.0552 -0.3784
 6019TIP3    H239693   4.287   5.200   0.630  0.0651 -0.7279 -0.8708
 6020TIP3   OH239694   0.512   5.402   7.276 -0.5618  0.4275  0.3186
 6020TIP3    H139695   0.436   5.442   7.234 -0.4086 -0.9493 -1.3544
 6020TIP3    H239696   0.586   5.456   7.249 -0.3475 -0.8837 -1.9660
 6021TIP3   OH239697   5.557   5.962   0.887  0.1506  0.1460  0.1834
 6021TIP3    H139698   5.616   5.887   0.880  1.3792  0.9598  1.2360
 6021TIP3    H239699   5.473   5.931   0.854  1.2097 -0.9965 -1.5948
 6022TIP3   OH239700   5.320   5.772   0.826 -0.2615 -0.3224  0.1910
 6022TIP3    H139701   5.233   5.811   0.837 -0.8445 -1.9297  1.8378
 6022TIP3    H239702   5.351   5.755   0.915  0.7338 -1.8513 -0.3878
 6023TIP3   OH239703   5.019   4.398   0.361 -0.0844 -0.1929  0.0096
 6023TIP3    H139704   4.989   4.461   0.426  3.3137  1.0505  0.5754
 6023TIP3    H239705   4.977   4.316   0.387 -0.6578  0.7544  2.3810
 6024TIP3   OH239706   2.523   5.055   0.863 -0.2164  0.4596 -0.3537
 6024TIP3    H139707   2.509   4.964   0.892  0.3376  0.5215  0.1223
 6024TIP3    H239708   2.612   5.076   0.892 -0.1199  0.9605 -0.9859
 6025TIP3   OH239709   2.361   4.003   0.045  0.0908 -0.2008 -0.0193
 6025TIP3    H139710   2.380   4.012  -0.049  0.4977 -1.4763 -0.0823
 6025TIP3    H239711   2.399   4.081   0.085  0.7319 -0.0970 -0.8092
 6026TIP3   OH239712   5.680   0.345   0.618  0.0881  0.3278 -0.2739
 6026TIP3    H139713   5.695   0.288   0.693  0.4068 -1.7179 -1.7871
 6026TIP3    H239714   5.606   0.400   0.643  0.4629  0.0201  1.6596
 6027TIP3   OH239715   1.522   5.111   1.072  0.1648  0.4331  0.1454
 6027TIP3    H139716   1.541   5.189   1.021  1.5061 -0.3544 -0.6335
 6027TIP3    H239717   1.608   5.081   1.103 -0.5397  0.4512  2.2373
 6028TIP3   OH239718   2.850   1.980   0.474  0.3077  0.5669  0.4671
 6028TIP3    H139719   2.920   2.044   0.457  0.7320 -0.3806 -1.8996
 6028TIP3    H239720   2.785   1.999   0.407  0.1787 -1.0775  0.1026
 6029TIP3   OH239721   1.220   4.394   2.383  0.2299  0.2249 -0.2190
 6029TIP3    H139722   1.180   4.455   2.446 -0.4330 -0.6883  0.2635
 6029TIP3    H239723   1.146   4.352   2.340  0.6655  1.0662 -1.8906
 6030TIP3   OH239724   2.040   1.598   0.880  0.5253 -0.2682  0.2503
 6030TIP3    H139725   2.121   1.618   0.833  0.4135  0.7830  0.4721
 6030TIP3    H239726   1.993   1.682   0.883  0.6113 -0.2353  2.4056
 6031TIP3   OH239727   1.932   0.056   0.106 -0.0399 -0.5599 -0.5896
 6031TIP3    H139728   1.867   0.028   0.042 -1.1480 -1.2845  0.7989
 6031TIP3    H239729   1.982   0.125   0.061 -2.7655  1.1847 -1.1665
 6032TIP3   OH239730   6.612   6.149   1.570  0.3570 -0.0089 -0.9783
 6032TIP3    H139731   6.550   6.212   1.609  0.1172  0.0039 -1.3748
 6032TIP3    H239732   6.594   6.067   1.615  0.8679  0.2646 -0.2491
 6033TIP3   OH239733   6.560   3.196   0.131  0.1655  0.3981  0.4348
 6033TIP3    H139734   6.595   3.114   0.166 -1.3091 -0.9211 -0.9776
 6033TIP3    H239735   6.517   3.170   0.050 -1.4762  2.3662  0.6015
 6034TIP3   OH239736   1.708   1.930   1.319  0.1471 -0.0653  0.1842
 6034TIP3    H139737   1.635   1.981   1.355 -1.0627 -0.7235 -1.2580
 6034TIP3    H239738   1.786   1.969   1.360 -1.0232  0.1990  2.3246
 6035TIP3   OH239739   1.848   2.847   8.321  0.2579 -0.0093 -0.0497
 6035TIP3    H139740   1.796   2.920   8.290 -1.3883 -1.5165 -0.9910
 6035TIP3    H239741   1.920   2.840   8.258  0.6424  0.9837  0.2571
 6036TIP3   OH239742   5.279   1.834   7.803  0.5245 -0.0206 -0.2291
 6036TIP3    H139743   5.200   1.882   7.827  1.7940  1.3084  1.4871
 6036TIP3    H239744   5.341   1.901   7.776  1.5960 -0.8977 -0.0295
 6037TIP3   OH239745   3.663   6.165   2.570 -0.1736 -0.0050 -0.6570
 6037TIP3    H139746   3.588   6.213   2.605  0.5483  1.4454 -0.9856
 6037TIP3    H239747   3.713   6.140   2.647 -0.1397  0.5115 -0.5074
 6038TIP3   OH239748   3.612   4.251   8.117 -0.8245  0.3691 -0.4070
 6038TIP3    H139749   3.620   4.272   8.210  1.1923 -0.5460 -0.3016
 6038TIP3    H239750   3.699   4.218   8.093 -1.4545  0.0807 -2.4929
 6039TIP3   OH239751   4.348   1.560   0.667  0.0743  0.6282  0.3420
 6039TIP3    H139752   4.387   1.490   0.615 -1.2621  0.3749 -0.3330
 6039TIP3    H239753   4.330   1.519   0.752 -0.9217  0.0764 -0.1251
 6040TIP3   OH239754   3.656   6.640   2.309  0.0613 -0.1344 -0.2193
 6040TIP3    H139755   3.726   6.702   2.289 -0.6788  0.6720 -0.3644
 6040TIP3    H239756   3.682   6.600   2.392  0.3611  0.6578  0.0777
 6041TIP3   OH239757   2.230   2.454   3.231 -0.1639  0.3644  0.8951
 6041TIP3    H139758   2.278   2.491   3.158 -0.8867  0.8888  0.6717
 6041TIP3    H239759   2.246   2.360   3.226 -0.9360  0.2883 -0.4853
 6042TIP3   OH239760   2.664   5.747   0.615 -0.8198  0.4217  0.5208
 6042TIP3    H139761   2.575   5.733   0.581 -0.4826  0.0449 -0.2232
 6042TIP3    H239762   2.650   5.792   0.698 -1.7416 -0.3666  0.8127
 6043TIP3   OH239763   3.069   6.419   7.598 -0.3807 -0.0200 -0.1752
 6043TIP3    H139764   3.095   6.437   7.508  2.4547 -0.3384  0.4656
 6043TIP3    H239765   2.991   6.365   7.591 -1.1302  1.2500 -2.3731
 6044TIP3   OH239766   0.241   1.459   0.143  0.4648 -0.2025 -0.0227
 6044TIP3    H139767   0.270   1.476   0.054 -0.5352  1.0142 -0.1387
 6044TIP3    H239768   0.167   1.518   0.156 -0.3244 -1.3974  1.1211
 6045TIP3   OH239769   5.486   0.867   0.546  0.2831 -0.0416 -0.0287
 6045TIP3    H139770   5.569   0.908   0.568 -0.9262  2.4237  0.2720
 6045TIP3    H239771   5.428   0.940   0.522 -2.9183 -1.1328  3.4095
 6046TIP3   OH239772   1.055   2.505   2.944  0.3613 -1.0621  0.2583
 6046TIP3    H139773   1.112   2.507   3.021  1.4938  1.0177 -0.5624
 6046TIP3    H239774   0.982   2.562   2.967  0.6961 -0.4461 -0.1751
 6047TIP3   OH239775   2.402   6.675   1.320  0.2203 -0.2083 -0.2986
 6047TIP3    H139776   2.309   6.658   1.334  0.4674 -0.9884  0.5263
 6047TIP3    H239777   2.416   6.763   1.357 -0.5734  0.8426 -2.3294
 6048TIP3   OH239778   4.686   3.609   0.869  0.2278 -0.1486  0.2219
 6048TIP3    H139779   4.712   3.536   0.812  0.2750 -0.7245  0.9594
 6048TIP3    H239780   4.763   3.623   0.926 -0.2183 -0.3251  0.8785
 6049TIP3   OH239781   0.185   5.542   0.957 -0.1757  0.4855 -0.1681
 6049TIP3    H139782   0.174   5.450   0.934  1.1075  0.6703 -1.7093
 6049TIP3    H239783   0.101   5.582   0.936 -0.5256 -0.2054 -0.1201
 6050TIP3   OH239784   4.433   0.295   8.336  0.2765  0.0697  0.5644
 6050TIP3    H139785   4.439   0.384   8.304 -1.0244  0.0552  0.2116
 6050TIP3    H239786   4.498   0.290   8.406 -0.6541  1.7598  1.6235
 6051TIP3   OH239787   5.468   2.755   0.984 -0.3453 -0.2887 -0.0842
 6051TIP3    H139788   5.474   2.841   1.025 -0.2529  0.4101 -1.4963
 6051TIP3    H239789   5.539   2.754   0.920 -0.5913 -1.2571 -0.3512
 6052TIP3   OH239790   2.446   5.468   1.112 -0.3701  0.1063  0.1882
 6052TIP3    H139791   2.356   5.435   1.116 -0.5587  0.7203  1.8881
 6052TIP3    H239792   2.495   5.398   1.068 -1.7508 -0.0097 -1.2460
 6053TIP3   OH239793   1.338   5.463   8.212 -0.3801 -0.6148  0.1919
 6053TIP3    H139794   1.353   5.538   8.155 -1.5184 -0.6682 -0.1991
 6053TIP3    H239795   1.338   5.500   8.301 -1.1935 -0.0946 -0.0132
 6054TIP3   OH239796   1.567   0.417   1.362  0.0671 -0.2478  0.1694
 6054TIP3    H139797   1.621   0.461   1.297  0.1756 -0.4940  0.0897
 6054TIP3    H239798   1.554   0.329   1.326 -0.1261 -0.2883  0.3369
 6055TIP3   OH239799   5.954   1.959   6.343  0.5170 -0.4379  0.0502
 6055TIP3    H139800   5.931   1.986   6.432  0.4066  0.9901 -0.3896
 6055TIP3    H239801   5.900   1.881   6.328  0.7889 -0.9098  1.3446
 6056TIP3   OH239802   3.058   4.942   8.337 -0.4524  0.2163  0.2953
 6056TIP3    H139803   3.130   4.968   8.279  0.7564  1.5968  2.2767
 6056TIP3    H239804   3.081   4.853   8.365 -0.0692  0.2449  0.0817
 6057TIP3   OH239805   6.830   2.203   0.873 -0.4274  0.5644  0.0875
 6057TIP3    H139806   6.923   2.178   0.868 -0.5386  0.2847 -0.7908
 6057TIP3    H239807   6.825   2.286   0.825 -0.6177  0.6349  0.2281
 6058TIP3   OH239808   0.699   6.710   0.048  0.1220  0.2672 -0.6106
 6058TIP3    H139809   0.773   6.688   0.104 -0.3824 -2.4602 -0.8959
 6058TIP3    H239810   0.673   6.798   0.077  1.6198  0.1077  1.4710
 6059TIP3   OH239811   1.572   1.105   0.649 -0.4092  0.3414  0.1550
 6059TIP3    H139812   1.656   1.149   0.637 -0.5643  0.3266 -1.1205
 6059TIP3    H239813   1.590   1.013   0.632 -0.4355  0.1326  1.1599
 6060TIP3   OH239814   6.761   5.990   8.437  0.7043  0.2084 -0.3064
 6060TIP3    H139815   6.773   5.953   8.349  1.4788 -0.4215  0.0486
 6060TIP3    H239816   6.793   5.921   8.496 -1.1670  0.0264  0.5440
 6061TIP3   OH239817   2.275   0.587   1.402  0.3594  0.2085  0.0208
 6061TIP3    H139818   2.195   0.585   1.350 -1.1270  0.9396  2.1266
 6061TIP3    H239819   2.325   0.660   1.365 -0.1559  0.0551 -1.0248
 6062TIP3   OH239820   6.202   5.844   6.904  0.3827 -0.1277 -0.7982
 6062TIP3    H139821   6.295   5.863   6.893  0.6872 -1.1039 -0.0619
 6062TIP3    H239822   6.168   5.919   6.953  1.6352 -1.4552  2.3895
 6063TIP3   OH239823   0.137   3.164   7.508 -0.3702  0.4693 -0.2480
 6063TIP3    H139824   0.046   3.194   7.505 -0.0423  1.4230 -0.9881
 6063TIP3    H239825   0.189   3.244   7.510  0.5608  0.0661 -3.3074
 6064TIP3   OH239826   3.221   0.057   0.736 -0.4894 -0.2047  0.1281
 6064TIP3    H139827   3.299   0.018   0.697  0.2112  0.4763  0.8021
 6064TIP3    H239828   3.236   0.151   0.730 -0.8231 -0.0764  1.0990
 6065TIP3   OH239829   0.053   1.747   1.163 -0.1465  0.1173  0.0306
 6065TIP3    H139830  -0.007   1.720   1.233  1.2397  0.0299  1.2193
 6065TIP3    H239831   0.105   1.669   1.144  1.2785  0.8384  0.7952
 6066TIP3   OH239832   0.748   3.211   1.021 -0.5083  0.2373 -0.1439
 6066TIP3    H139833   0.751   3.167   0.936 -0.3165 -1.5982  0.7577
 6066TIP3    H239834   0.654   3.222   1.039 -0.5520  2.1422 -1.2787
 6067TIP3   OH239835   0.074   0.307   0.759  0.2477  0.1118  0.2797
 6067TIP3    H139836   0.012   0.368   0.800 -0.5138 -0.7567  0.4751
 6067TIP3    H239837   0.033   0.284   0.676  1.2428  0.9827 -0.4779
 6068TIP3   OH239838   4.517   0.493   2.254 -0.5367  0.1382  0.0617
 6068TIP3    H139839   4.567   0.537   2.323 -1.1698  0.5418  0.2704
 6068TIP3    H239840   4.583   0.469   2.189  0.4429 -2.2948  1.8220
 6069TIP3   OH239841   1.849   5.711   2.023  0.7823  0.4163 -0.0425
 6069TIP3    H139842   1.907   5.672   1.959  1.0637  2.5018 -1.1550
 6069TIP3    H239843   1.867   5.805   2.018 -0.8934  0.8805  1.3908
 6070TIP3   OH239844   6.866   0.166   0.047 -0.4929 -1.0057 -0.8077
 6070TIP3    H139845   6.821   0.238   0.002 -0.9133  0.8803  2.2928
 6070TIP3    H239846   6.953   0.200   0.065 -0.1115 -1.9717 -0.7741
 6071TIP3   OH239847   5.778   5.315   2.917 -0.5180 -0.0869  0.1894
 6071TIP3    H139848   5.854   5.324   2.859  1.3209 -0.6345  2.3606
 6071TIP3    H239849   5.720   5.256   2.871  1.4461 -1.5259 -0.5955
 6072TIP3   OH239850   2.798   0.187   8.117  0.3400 -0.0167 -0.3795
 6072TIP3    H139851   2.833   0.106   8.154 -0.4619 -0.1740  0.0578
 6072TIP3    H239852   2.759   0.161   8.034 -1.5258 -0.4425  0.5808
 6073TIP3   OH239853   5.265   3.284   7.857  0.1481  0.5809  0.0068
 6073TIP3    H139854   5.263   3.243   7.770  0.2311  0.2460  0.1648
 6073TIP3    H239855   5.316   3.364   7.844 -0.2392  0.7800 -0.3609
 6074TIP3   OH239856   0.681   0.625   7.136  0.4175 -0.1667  0.2734
 6074TIP3    H139857   0.707   0.659   7.050 -0.2132 -1.2644 -0.3759
 6074TIP3    H239858   0.648   0.702   7.183  1.2691  0.5512 -0.2452
 6075TIP3   OH239859   4.878   5.258   0.126  0.0572  0.4739 -0.7505
 6075TIP3    H139860   4.872   5.163   0.125  0.9172  0.4108 -0.7269
 6075TIP3    H239861   4.971   5.276   0.113  0.1139  1.2832  0.6622
 6076TIP3   OH239862   4.325   5.633   0.583 -0.1353 -0.0716  0.0902
 6076TIP3    H139863   4.302   5.718   0.548  1.4624  0.3982  0.0906
 6076TIP3    H239864   4.257   5.614   0.649 -0.5351  1.1595  0.0426
 6077TIP3   OH239865   1.360   4.403   2.115  0.3424 -0.4622 -0.1100
 6077TIP3    H139866   1.344   4.401   2.209  1.0124  1.9809  0.1403
 6077TIP3    H239867   1.273   4.397   2.076 -0.2651  1.5341  0.8141
 6078TIP3   OH239868   0.706   1.584   3.405 -0.5229  0.1392  0.0182
 6078TIP3    H139869   0.611   1.597   3.399 -0.6993 -1.2960 -0.6192
 6078TIP3    H239870   0.718   1.490   3.394  1.0307  0.3716 -0.4806
 6079TIP3   OH239871   0.109   1.858   2.485 -0.2415  0.0533 -0.0943
 6079TIP3    H139872   0.034   1.833   2.432 -1.4835  3.0295  0.0700
 6079TIP3    H239873   0.073   1.876   2.572  0.8436  0.4330  0.2989
 6080TIP3   OH239874   3.446   2.985   7.822 -0.1863  0.7179 -0.0147
 6080TIP3    H139875   3.390   2.994   7.745 -0.3590  0.6459  0.1012
 6080TIP3    H239876   3.411   2.908   7.867  0.3518  0.3424 -0.2343
 6081TIP3   OH239877   0.464   2.547   1.648  0.2105  0.6131  0.2939
 6081TIP3    H139878   0.371   2.530   1.634  0.2920 -0.3838  0.9104
 6081TIP3    H239879   0.505   2.461   1.648  0.9831  0.9632  1.0587
 6082TIP3   OH239880   6.011   1.207   1.838  0.3162 -0.4298 -0.5843
 6082TIP3    H139881   6.002   1.295   1.801 -2.4433 -0.3276  0.0710
 6082TIP3    H239882   6.103   1.185   1.826  1.6202  3.3121  0.9697
 6083TIP3   OH239883   6.400   4.249   1.814 -0.0269 -0.6149  0.1015
 6083TIP3    H139884   6.482   4.213   1.780  0.7771 -0.0624  1.3534
 6083TIP3    H239885   6.398   4.221   1.906 -0.8085  0.0874  0.3155
 6084TIP3   OH239886   4.063   0.515   7.741 -0.1028  0.5345  0.6835
 6084TIP3    H139887   4.067   0.471   7.826  0.7170  1.1108  0.9535
 6084TIP3    H239888   4.025   0.601   7.761 -0.6208  0.3935  0.3383
 6085TIP3   OH239889   0.855   6.786   8.320 -0.2712 -0.6242  0.2676
 6085TIP3    H139890   0.865   6.727   8.245  2.5218  0.3534 -0.2386
 6085TIP3    H239891   0.808   6.734   8.385 -1.6154 -1.9410 -1.6472
 6086TIP3   OH239892   4.324   1.197   7.606 -0.0367 -0.8110  0.8624
 6086TIP3    H139893   4.378   1.215   7.682  2.7455 -2.6678 -0.5197
 6086TIP3    H239894   4.352   1.261   7.541 -1.1249 -0.3832  0.7921
 6087TIP3   OH239895   0.795   5.898   1.161 -0.2605 -0.6636 -0.0028
 6087TIP3    H139896   0.824   5.861   1.244 -1.2238 -1.0379  0.1888
 6087TIP3    H239897   0.708   5.859   1.147 -0.6634  0.3994 -0.5427
 6088TIP3   OH239898   5.166   2.859   1.957  0.2218  0.1064 -0.9405
 6088TIP3    H139899   5.096   2.907   1.914 -0.4209  0.2324  0.1918
 6088TIP3    H239900   5.123   2.780   1.992  1.1697 -1.1166 -2.4186
 6089TIP3   OH239901   6.773   2.500   2.163  0.2159  0.0319 -0.2118
 6089TIP3    H139902   6.682   2.472   2.175  0.0560  0.6736  0.1251
 6089TIP3    H239903   6.825   2.426   2.193 -0.1854  0.4238  1.5914
 6090TIP3   OH239904   3.139   1.703   0.157  0.6253  0.4732  0.0425
 6090TIP3    H139905   3.103   1.786   0.127  0.5105  0.3081 -0.2892
 6090TIP3    H239906   3.224   1.696   0.114 -0.0964 -0.3679 -1.3073
 6091TIP3   OH239907   6.505   0.089   1.504 -0.0340 -0.1564  0.2318
 6091TIP3    H139908   6.450   0.025   1.458  0.2200 -0.1503 -0.0780
 6091TIP3    H239909   6.594   0.073   1.471  0.2505 -0.5696  1.1658
 6092TIP3   OH239910   3.542   6.388   0.846 -0.6328 -0.1025  0.2616
 6092TIP3    H139911   3.626   6.425   0.875 -1.4719  1.5489  0.7090
 6092TIP3    H239912   3.516   6.329   0.917  0.1297 -0.6235  0.1227
 6093TIP3   OH239913   2.836   6.902   0.083  0.2968  0.3761  0.3796
 6093TIP3    H139914   2.750   6.943   0.089  0.3790  0.6141 -0.0251
 6093TIP3    H239915   2.854   6.871   0.172 -0.1556  0.4239  0.4908
 6094TIP3   OH239916   1.136   4.939   0.520  0.2876 -0.1718 -0.5638
 6094TIP3    H139917   1.216   4.902   0.559  0.2936 -0.3462 -0.7403
 6094TIP3    H239918   1.166   5.020   0.478  0.8431 -1.3579 -2.6223
 6095TIP3   OH239919   0.641   3.430   0.504  0.3390  0.7556  0.0875
 6095TIP3    H139920   0.572   3.493   0.525 -0.7860 -0.3796 -0.0876
 6095TIP3    H239921   0.715   3.456   0.559 -1.5175 -0.3824  3.4242
 6096TIP3   OH239922   6.176   4.942   2.688  0.0858 -0.4575  0.5897
 6096TIP3    H139923   6.169   4.912   2.779 -2.0574  3.1351  1.8048
 6096TIP3    H239924   6.097   4.908   2.646 -0.7958  0.8004  1.1495
 6097TIP3   OH239925   6.088   4.698   1.021  0.2034  0.1879 -0.5499
 6097TIP3    H139926   6.155   4.762   0.994  2.4836 -1.7314  0.2061
 6097TIP3    H239927   6.111   4.676   1.111 -0.4359 -1.7421 -0.8206
 6098TIP3   OH239928   0.957   4.423   8.290  0.1227 -0.0133 -0.4563
 6098TIP3    H139929   0.937   4.430   8.383 -1.7379  0.5485 -0.8606
 6098TIP3    H239930   0.970   4.514   8.261 -1.6832  0.0416 -1.1956
 6099TIP3   OH239931   1.954   2.231   0.389 -0.0258 -0.3595  0.1265
 6099TIP3    H139932   1.987   2.211   0.301 -0.8474  0.1249 -0.3072
 6099TIP3    H239933   1.940   2.326   0.387 -1.1834 -0.5186  0.3819
 6100TIP3   OH239934   4.875   6.354   8.280 -0.1440 -0.1684  0.1516
 6100TIP3    H139935   4.873   6.448   8.264 -1.3060 -0.1538  0.3010
 6100TIP3    H239936   4.964   6.336   8.310 -0.3525  1.1500  1.6497
 6101TIP3   OH239937   6.209   2.470   8.182 -0.0974 -0.5343 -0.0531
 6101TIP3    H139938   6.303   2.453   8.194 -0.3202 -1.5077  0.3927
 6101TIP3    H239939   6.171   2.449   8.268 -0.7260 -0.1709 -0.2426
 6102TIP3   OH239940   2.131   6.659   1.673 -0.3816 -0.2888 -0.2157
 6102TIP3    H139941   2.189   6.613   1.734  0.0075 -0.0554 -0.4093
 6102TIP3    H239942   2.053   6.603   1.668  0.9291 -2.1412 -2.1396
 6103TIP3   OH239943   6.470   1.748   7.185  0.4249  0.0466 -0.2871
 6103TIP3    H139944   6.486   1.842   7.193 -1.5184  0.3120  1.5256
 6103TIP3    H239945   6.378   1.741   7.160  0.3726 -1.3707  0.1924
 6104TIP3   OH239946   3.623   4.613   1.016  0.1669  0.0944  0.5333
 6104TIP3    H139947   3.714   4.620   0.987 -0.0885  0.7777 -0.1454
 6104TIP3    H239948   3.579   4.565   0.946  0.2116 -1.2140  1.3686
 6105TIP3   OH239949   0.128   6.596   2.271 -0.4506  0.0456 -0.2888
 6105TIP3    H139950   0.165   6.628   2.354  1.0643 -2.4681  0.0852
 6105TIP3    H239951   0.152   6.504   2.268 -1.8332 -0.3063 -2.8315
 6106TIP3   OH239952   0.940   1.644   2.156 -0.3816  0.3478 -0.0411
 6106TIP3    H139953   0.861   1.684   2.119 -0.1592  0.4608 -0.3984
 6106TIP3    H239954   1.011   1.679   2.103  0.0814  1.5745  1.3326
 6107TIP3   OH239955   5.365   4.688   2.228  0.1684 -0.2328  0.1110
 6107TIP3    H139956   5.455   4.717   2.239  0.2121 -1.0375  2.8012
 6107TIP3    H239957   5.312   4.762   2.257 -0.1832  0.7414 -2.7273
 6108TIP3   OH239958   5.110   5.334   2.044 -0.6596  0.1783 -0.2298
 6108TIP3    H139959   5.037   5.389   2.016  0.8547  2.0555 -0.6950
 6108TIP3    H239960   5.137   5.287   1.965 -0.2368  0.8633 -0.4995
 6109TIP3   OH239961   5.447   6.349   0.900  0.4303 -0.7153  0.7492
 6109TIP3    H139962   5.536   6.378   0.878 -0.2571 -0.1005 -1.4875
 6109TIP3    H239963   5.418   6.300   0.823 -1.4118 -0.3365  1.1521
 6110TIP3   OH239964   2.898   5.783   7.837  0.0174  0.4300  0.1060
 6110TIP3    H139965   2.903   5.850   7.906 -0.4266  1.5147 -0.8767
 6110TIP3    H239966   2.841   5.715   7.874 -0.3693  1.0858  0.7407
 6111TIP3   OH239967   5.549   1.616   6.782 -0.1738 -0.2112 -0.8090
 6111TIP3    H139968   5.523   1.701   6.747 -0.8055  0.0570  0.2778
 6111TIP3    H239969   5.622   1.635   6.841 -1.0257 -0.2549  0.2921
 6112TIP3   OH239970   2.566   4.420   1.984 -0.0033 -0.0323  0.6214
 6112TIP3    H139971   2.652   4.425   1.942 -0.7570  1.0414 -0.8941
 6112TIP3    H239972   2.585   4.402   2.076  1.7470 -1.8264 -0.0287
 6113TIP3   OH239973   3.634   0.911   2.385 -0.1438 -0.3569  0.5245
 6113TIP3    H139974   3.601   0.997   2.410 -0.5759 -0.5559  0.6411
 6113TIP3    H239975   3.572   0.849   2.423 -0.1695 -0.7041 -0.0766
 6114TIP3   OH239976   5.905   0.228   1.912 -0.4016 -0.6788 -0.0989
 6114TIP3    H139977   5.937   0.265   1.829  2.0978  0.9745  1.4800
 6114TIP3    H239978   5.971   0.253   1.976 -1.6645 -2.9192  2.2240
 6115TIP3   OH239979   1.710   2.135   1.506 -0.5114  0.1517 -0.1319
 6115TIP3    H139980   1.677   2.223   1.526 -0.0302  0.6911 -1.5893
 6115TIP3    H239981   1.673   2.080   1.575 -1.0180  1.4471  0.6825
 6116TIP3   OH239982   1.283   6.241   0.439  0.4061 -0.2105  0.1318
 6116TIP3    H139983   1.357   6.213   0.492 -0.2025  1.1625  1.8331
 6116TIP3    H239984   1.211   6.183   0.465  0.5662 -0.7552 -0.6156
 6117TIP3   OH239985   4.975   0.494   2.567 -0.0758 -0.1607 -0.1307
 6117TIP3    H139986   4.895   0.529   2.530 -0.9472 -1.4874  0.4238
 6117TIP3    H239987   5.025   0.464   2.491  1.0178  2.7462 -0.6879
 6118TIP3   OH239988   2.272   0.493   7.858 -0.2334 -0.6874 -0.3420
 6118TIP3    H139989   2.202   0.514   7.797 -1.0056 -1.6965  0.1734
 6118TIP3    H239990   2.295   0.576   7.898 -0.6601 -0.2386 -0.9999
 6119TIP3   OH239991   5.809   2.897   2.721 -0.4073 -0.2175  0.1672
 6119TIP3    H139992   5.757   2.860   2.649 -0.5509 -1.0201  0.6743
 6119TIP3    H239993   5.892   2.922   2.681 -1.0870  0.8937 -0.6195
 6120TIP3   OH239994   2.433   3.005   1.395  0.2180  0.1261 -0.2412
 6120TIP3    H139995   2.492   2.994   1.469 -0.1808  0.2247  0.0982
 6120TIP3    H239996   2.421   3.100   1.388  2.4248  0.3538 -2.1804
 6121TIP3   OH239997   2.633   0.363   7.770 -0.0510 -0.2997  0.8052
 6121TIP3    H139998   2.572   0.376   7.697 -0.4313 -0.9788  0.9973
 6121TIP3    H239999   2.668   0.275   7.756  0.3910 -0.1675  1.0638
 6122TIP3   OH240000   1.859   1.622   2.712 -0.1944  0.6162 -0.2549
 6122TIP3    H140001   1.911   1.695   2.678 -0.6862  1.1594  0.1339
 6122TIP3    H240002   1.902   1.544   2.678  1.5777  0.9810  0.9866
 6123TIP3   OH240003   3.318   1.372   0.588  0.4600 -0.2287 -0.7393
 6123TIP3    H140004   3.266   1.419   0.522  2.6775 -0.1184 -2.5398
 6123TIP3    H240005   3.280   1.284   0.590 -1.2466  0.4691 -0.2256
 6124TIP3   OH240006   2.258   5.577   1.701  0.1278  0.1648  0.4929
 6124TIP3    H140007   2.304   5.504   1.742  1.5988  0.2665 -0.8483
 6124TIP3    H240008   2.296   5.655   1.744  0.4463  0.2125  0.1315
 6125TIP3   OH240009   1.866   4.881   0.751  0.1822  0.1889 -0.1657
 6125TIP3    H140010   1.852   4.816   0.820 -0.4328 -0.0808 -0.5303
 6125TIP3    H240011   1.868   4.829   0.670 -0.7963  0.6704 -0.5061
 6126TIP3   OH240012   6.881   4.171   0.403  0.1400 -0.2139 -0.4054
 6126TIP3    H140013   6.926   4.254   0.418  1.7900 -1.1733  0.2773
 6126TIP3    H240014   6.832   4.156   0.484  0.9792 -0.5545  0.0583
 6127TIP3   OH240015   6.787   1.551   8.109  0.0225 -0.8762  0.2107
 6127TIP3    H140016   6.849   1.615   8.074 -0.6112  0.0445  0.7361
 6127TIP3    H240017   6.779   1.573   8.201 -2.2463  0.0150 -0.1501
 6128TIP3   OH240018   6.178   3.268   1.164  0.8272  0.8332  0.6425
 6128TIP3    H140019   6.135   3.317   1.093  0.6608  0.8016  0.7216
 6128TIP3    H240020   6.183   3.330   1.237 -0.9390  0.2220  1.3268
 6129TIP3   OH240021   3.825   4.649   7.741  0.1549  0.3240 -0.0768
 6129TIP3    H140022   3.737   4.613   7.743  0.1255  0.3602  1.9227
 6129TIP3    H240023   3.819   4.726   7.684 -1.5652  1.3347  1.3568
 6130TIP3   OH240024   5.483   1.155   1.317  0.2861  0.4282  0.1818
 6130TIP3    H140025   5.466   1.064   1.344 -0.2440  0.7783  1.0560
 6130TIP3    H240026   5.528   1.193   1.392  0.7692  0.8230 -0.2986
 6131TIP3   OH240027   5.286   3.643   8.450  1.0138 -0.1892 -0.5028
 6131TIP3    H140028   5.277   3.590   8.371  0.8201  0.0822 -0.6660
 6131TIP3    H240029   5.199   3.681   8.464  0.4266 -1.9666  1.0933
 6132TIP3   OH240030   5.991   6.931   1.160 -0.2697 -0.5326 -0.0671
 6132TIP3    H140031   6.086   6.922   1.155 -0.4633 -2.8329 -0.6886
 6132TIP3    H240032   5.971   7.010   1.110  1.2197 -0.5624 -0.7458
 6133TIP3   OH240033   5.224   1.303   1.429  0.9619 -0.0116  0.2240
 6133TIP3    H140034   5.141   1.256   1.434  1.2528 -0.7460 -1.2886
 6133TIP3    H240035   5.289   1.234   1.416  1.7841  0.5872  1.0536
 6134TIP3   OH240036   1.955   1.850   1.864  0.0325 -0.0286  0.2649
 6134TIP3    H140037   1.993   1.790   1.928 -2.7960 -0.4357  1.7423
 6134TIP3    H240038   1.883   1.801   1.825 -0.1171  1.2363 -1.1206
 6135TIP3   OH240039   2.882   2.881   2.833  0.2668 -0.1728 -0.1981
 6135TIP3    H140040   2.958   2.838   2.873 -0.0979  0.8377  1.7203
 6135TIP3    H240041   2.886   2.971   2.865 -1.5320 -0.0011 -0.3311
 6136TIP3   OH240042   2.106   0.183   0.327  0.4751  0.2197 -0.2897
 6136TIP3    H140043   2.075   0.271   0.349  0.2152 -0.2168  1.1960
 6136TIP3    H240044   2.107   0.181   0.231  1.7980  2.2989 -0.3818
 6137TIP3   OH240045   1.101   6.734   6.342  0.5165 -0.3150 -0.1865
 6137TIP3    H140046   1.013   6.733   6.306  0.2406  0.3204  0.4352
 6137TIP3    H240047   1.106   6.656   6.397  0.4095 -0.4597 -0.3834
 6138TIP3   OH240048   0.511   4.295   2.263  0.1477 -0.5251  0.1449
 6138TIP3    H140049   0.466   4.377   2.283 -0.8312 -1.3846  1.6816
 6138TIP3    H240050   0.526   4.298   2.168 -1.2208  0.7624 -0.0654
 6139TIP3   OH240051   6.429   6.064   7.441 -0.3115 -0.2326  0.6657
 6139TIP3    H140052   6.420   6.107   7.356  0.7114  0.4311  0.8822
 6139TIP3    H240053   6.474   5.981   7.422  0.5454  0.2283  0.6313
 6140TIP3   OH240054   3.027   4.004   6.743  0.2121  0.1318  0.2348
 6140TIP3    H140055   3.105   3.981   6.693  1.0688 -1.5804  2.1957
 6140TIP3    H240056   2.976   4.060   6.685  1.6334 -0.8774 -2.1104
 6141TIP3   OH240057   1.334   3.168   2.304 -0.6297  0.1890 -0.3997
 6141TIP3    H140058   1.351   3.180   2.397 -3.1965  0.3439  0.1231
 6141TIP3    H240059   1.283   3.087   2.299 -0.1180 -0.0821 -1.7402
 6142TIP3   OH240060   1.925   5.117   0.561  0.2117  0.0542 -0.5901
 6142TIP3    H140061   1.837   5.126   0.525 -0.2063  2.1480  0.7287
 6142TIP3    H240062   1.911   5.118   0.656  1.7316  3.1658 -0.2666
 6143TIP3   OH240063   0.623   1.607   2.259  0.2183 -0.1832  0.3063
 6143TIP3    H140064   0.586   1.551   2.327 -0.0268  2.0479  2.1301
 6143TIP3    H240065   0.595   1.567   2.177 -0.6479 -2.2063  1.5111
 6144TIP3   OH240066   0.974   5.004   1.822  0.2956 -0.5209 -0.0122
 6144TIP3    H140067   0.949   5.097   1.825 -1.0831 -0.7527 -2.2140
 6144TIP3    H240068   0.902   4.959   1.867  0.4771 -0.6018  0.1969
 6145TIP3   OH240069   0.584   4.404   0.296  0.1848 -0.1848 -0.7346
 6145TIP3    H140070   0.656   4.341   0.286  2.6892  1.7697  2.7235
 6145TIP3    H240071   0.605   4.474   0.234  0.7625 -0.0748 -0.4258
 6146TIP3   OH240072   3.121   3.467   2.347 -0.5317  0.0650 -0.0882
 6146TIP3    H140073   3.081   3.552   2.364  0.7393  0.5978  0.3300
 6146TIP3    H240074   3.100   3.449   2.255 -1.2086  0.5872 -0.0488
 6147TIP3   OH240075   6.114   4.669   7.418  0.5701 -0.5214 -0.5779
 6147TIP3    H140076   6.059   4.625   7.483 -0.1395 -0.5173 -1.1742
 6147TIP3    H240077   6.203   4.652   7.449  0.2363  0.9837  1.4024
 6148TIP3   OH240078   2.669   1.952   2.208  0.1008  0.4444 -0.1027
 6148TIP3    H140079   2.612   2.019   2.247  1.5419  2.1327 -0.7361
 6148TIP3    H240080   2.632   1.937   2.121  0.6133  1.6347 -0.5637
 6149TIP3   OH240081   0.010   2.387   8.378  0.1090 -0.1407 -0.0357
 6149TIP3    H140082   0.098   2.376   8.343 -0.7831 -0.8926 -2.2093
 6149TIP3    H240083   0.020   2.449   8.450  2.1035  1.4098 -1.5440
 6150TIP3   OH240084   3.473   0.993   0.489 -0.4124  0.0706  0.1448
 6150TIP3    H140085   3.398   0.988   0.430 -0.9250  1.2541  0.6613
 6150TIP3    H240086   3.538   1.045   0.442 -0.7964  0.9597  0.5758
 6151TIP3   OH240087   5.002   0.908   7.760 -0.2045 -0.0786  0.1996
 6151TIP3    H140088   5.061   0.844   7.718  1.1513  1.6578 -0.6789
 6151TIP3    H240089   4.999   0.880   7.852  0.6896 -1.1655 -0.0674
 6152TIP3   OH240090   4.487   2.100   7.530 -0.3168 -0.6614 -0.2412
 6152TIP3    H140091   4.564   2.062   7.488  0.1868  2.3174 -2.3515
 6152TIP3    H240092   4.416   2.082   7.469 -0.6192 -0.5633  0.0797
 6153TIP3   OH240093   3.804   6.356   0.404 -0.1408  0.2236  0.1981
 6153TIP3    H140094   3.885   6.342   0.354 -1.0788 -2.2307 -0.8332
 6153TIP3    H240095   3.749   6.408   0.346 -0.2440 -0.3605 -0.2416
 6154TIP3   OH240096   2.846   6.658   0.792 -0.1869 -0.0518 -0.0574
 6154TIP3    H140097   2.868   6.740   0.837  1.3035 -0.8071  0.6674
 6154TIP3    H240098   2.820   6.598   0.861 -1.3698 -0.1853 -0.5951
 6155TIP3   OH240099   2.502   1.254   1.472 -1.0066  0.3218 -0.0720
 6155TIP3    H140100   2.571   1.320   1.476 -0.8902  0.1507  1.7600
 6155TIP3    H240101   2.544   1.174   1.503 -1.3449 -0.4607 -1.5429
 6156TIP3   OH240102   5.950   3.425   2.492 -0.0194 -0.6469 -0.0457
 6156TIP3    H140103   6.033   3.470   2.505  0.7174 -1.8826 -0.2488
 6156TIP3    H240104   5.919   3.456   2.407  1.5214 -2.0013 -1.1803
 6157TIP3   OH240105   4.498   6.680   8.388 -0.2934 -0.8798  0.1771
 6157TIP3    H140106   4.484   6.592   8.352 -0.7000 -0.7997  0.1457
 6157TIP3    H240107   4.411   6.712   8.410 -0.3140  0.1699 -1.3251
 6158TIP3   OH240108   5.325   0.918   0.174  0.0445  0.2129  0.1171
 6158TIP3    H140109   5.385   0.879   0.238 -1.0944 -0.7409  0.6592
 6158TIP3    H240110   5.324   0.856   0.101  0.0486  0.4349 -0.0704
 6159TIP3   OH240111   0.985   2.244   0.584  0.1535  0.3908  0.0600
 6159TIP3    H140112   0.954   2.163   0.542  1.6827  0.4780 -1.3045
 6159TIP3    H240113   1.014   2.299   0.512  0.3299  1.6610  1.0693
 6160TIP3   OH240114   6.852   5.038   8.256 -0.2124 -0.3327  0.0966
 6160TIP3    H140115   6.829   5.106   8.319 -0.2865  0.4730 -0.7890
 6160TIP3    H240116   6.770   5.017   8.212  0.0553 -0.0701 -0.5301
 6161TIP3   OH240117   0.203   3.370   3.302  0.0885  0.0549  0.8829
 6161TIP3    H140118   0.293   3.400   3.298  0.4090 -0.9762 -0.4219
 6161TIP3    H240119   0.186   3.354   3.395  2.1701 -2.3534  0.9420
 6162TIP3   OH240120   5.557   2.014   0.777  0.5454 -0.0692 -0.1563
 6162TIP3    H140121   5.531   2.036   0.866 -0.4746  0.3494 -0.5465
 6162TIP3    H240122   5.567   2.099   0.734 -1.1744 -0.2981 -1.0511
 6163TIP3   OH240123   0.778   2.339   1.531 -0.1684 -0.0378 -0.4147
 6163TIP3    H140124   0.788   2.407   1.465  0.9008  1.5973  1.3238
 6163TIP3    H240125   0.859   2.288   1.527  0.0649  0.3078 -0.1065
 6164TIP3   OH240126   5.059   4.498   0.923 -0.1737 -0.1081  0.0139
 6164TIP3    H140127   5.058   4.581   0.971 -0.1152 -0.5805  0.8511
 6164TIP3    H240128   5.039   4.432   0.989 -0.2117 -0.7667 -0.6433
 6165TIP3   OH240129   5.867   0.783   1.098 -0.4669 -0.1519  0.1936
 6165TIP3    H140130   5.906   0.780   1.011  0.9960  1.0623  0.7555
 6165TIP3    H240131   5.928   0.836   1.150 -1.0408 -1.2495  2.0907
 6166TIP3   OH240132   1.352   2.235   2.404 -0.1909 -0.2795 -0.5193
 6166TIP3    H140133   1.300   2.190   2.471 -1.0642  0.6336 -0.5469
 6166TIP3    H240134   1.319   2.325   2.406  0.9065  0.1493 -1.0556
 6167TIP3   OH240135   3.474   4.581   6.925 -0.1064  0.0834  0.1961
 6167TIP3    H140136   3.380   4.573   6.942  0.3900 -0.6955  3.0502
 6167TIP3    H240137   3.505   4.491   6.919  0.2847  0.3087 -2.4614
 6168TIP3   OH240138   1.451   5.370   0.288  0.3509  0.3177  0.4052
 6168TIP3    H140139   1.394   5.356   0.213  1.1589  1.6876 -0.5107
 6168TIP3    H240140   1.466   5.465   0.290  1.0598  0.2101  1.7711
 6169TIP3   OH240141   5.952   1.644   8.136  0.4237 -0.3648 -0.0814
 6169TIP3    H140142   6.002   1.724   8.154  3.0422 -1.6174 -1.2593
 6169TIP3    H240143   5.869   1.676   8.102  0.1787  1.8491  2.2798
 6170TIP3   OH240144   4.530   0.402   0.482 -0.3296 -0.0784 -0.2010
 6170TIP3    H140145   4.601   0.435   0.536  0.0910  0.7372 -1.2145
 6170TIP3    H240146   4.545   0.308   0.477  0.7453  0.0959 -0.4810
 6171TIP3   OH240147   2.367   5.805   1.113 -0.2367 -0.2067 -0.5853
 6171TIP3    H140148   2.448   5.767   1.078  0.8195  0.7494  0.7311
 6171TIP3    H240149   2.298   5.765   1.060  1.1344 -0.3047 -2.4116
 6172TIP3   OH240150   2.185   1.930   8.467 -0.1407 -0.0447 -0.1624
 6172TIP3    H140151   2.202   1.924   8.561 -1.1276 -0.2698  0.0099
 6172TIP3    H240152   2.101   1.974   8.460 -1.1225 -1.8960 -0.8396
 6173TIP3   OH240153   4.510   4.925   0.512 -0.3487 -0.5790  0.4510
 6173TIP3    H140154   4.530   4.842   0.557  1.2059 -0.9170 -0.7611
 6173TIP3    H240155   4.428   4.955   0.551 -2.2317 -3.8473 -0.6216
 6174TIP3   OH240156   2.987   0.833   0.577 -0.3935 -0.9082  0.1235
 6174TIP3    H140157   2.961   0.833   0.669 -0.7802  0.3699  0.0367
 6174TIP3    H240158   3.037   0.914   0.566 -0.2314 -1.1121 -0.7626
 6175TIP3   OH240159   5.160   5.223   0.111 -0.3940 -0.1666 -0.3940
 6175TIP3    H140160   5.167   5.215   0.206 -1.2128  1.2480 -0.2045
 6175TIP3    H240161   5.224   5.290   0.088  1.4619 -2.0658 -1.1598
 6176TIP3   OH240162   3.213   2.326   1.203 -0.5099 -0.4689  0.1906
 6176TIP3    H140163   3.130   2.371   1.212  0.1816  0.9747 -0.4857
 6176TIP3    H240164   3.194   2.251   1.147 -1.3375 -0.1489  0.0343
 6177TIP3   OH240165   6.596   4.469   1.881  0.0513 -0.3106  0.6459
 6177TIP3    H140166   6.595   4.511   1.966  1.2583 -0.5774  0.8070
 6177TIP3    H240167   6.524   4.405   1.885 -0.6320  0.4665  1.0357
 6178TIP3   OH240168   2.627   4.856   1.469  0.1094  0.1606  0.0853
 6178TIP3    H140169   2.546   4.886   1.428 -0.3948 -0.3792  0.6707
 6178TIP3    H240170   2.672   4.807   1.400 -1.0375 -1.2980  0.3310
 6179TIP3   OH240171   1.767   2.903   0.340 -0.1190 -0.0661  0.1012
 6179TIP3    H140172   1.696   2.840   0.351  0.6760 -0.9263  0.4489
 6179TIP3    H240173   1.818   2.869   0.266 -1.2003  1.6655 -1.5496
 6180TIP3   OH240174   1.376   0.280   2.443  0.1297 -0.3439  0.3346
 6180TIP3    H140175   1.364   0.292   2.537  0.8728  0.5083  0.3356
 6180TIP3    H240176   1.471   0.281   2.431  0.0478  1.8940 -0.6683
 6181TIP3   OH240177   6.739   6.562   6.526 -0.1816  0.2424 -0.1186
 6181TIP3    H140178   6.800   6.636   6.524 -0.8171  0.7621 -0.6944
 6181TIP3    H240179   6.658   6.596   6.487 -0.3364 -0.8945 -0.8340
 6182TIP3   OH240180   0.879   1.727   1.666  0.3805 -0.2990  0.1695
 6182TIP3    H140181   0.946   1.787   1.637 -0.2762  0.0530 -0.6558
 6182TIP3    H240182   0.923   1.669   1.729  1.2600  0.3748  0.1781
 6183TIP3   OH240183   4.705   0.861   0.984  0.2911 -0.3893 -0.3075
 6183TIP3    H140184   4.629   0.802   0.980 -0.0394  0.0883 -2.8452
 6183TIP3    H240185   4.774   0.814   0.937  1.3655 -0.4428  1.2408
 6184TIP3   OH240186   6.558   3.354   1.801  0.4082 -0.2255 -0.1301
 6184TIP3    H140187   6.570   3.276   1.855  1.0742 -0.8200 -1.1133
 6184TIP3    H240188   6.614   3.420   1.841  1.3412 -0.8291 -0.4003
 6185TIP3   OH240189   6.559   1.580   1.141 -0.8089  0.2065 -0.3018
 6185TIP3    H140190   6.471   1.615   1.156 -0.9478  0.1489 -0.9496
 6185TIP3    H240191   6.579   1.603   1.050 -0.6597 -0.8498 -0.5554
 6186TIP3   OH240192   2.804   2.439   2.474 -0.0790  0.0245 -1.1993
 6186TIP3    H140193   2.823   2.388   2.394  0.9310 -0.7714 -0.4838
 6186TIP3    H240194   2.799   2.373   2.543 -0.3816  0.7674 -0.5040
 6187TIP3   OH240195   0.184   6.290   2.765 -0.2428  0.1132  0.4427
 6187TIP3    H140196   0.260   6.268   2.711 -0.6090 -0.2514  0.0733
 6187TIP3    H240197   0.113   6.238   2.729 -0.5374 -0.0016  1.1709
 6188TIP3   OH240198   3.349   5.792   0.315 -1.0507 -0.0212  0.0241
 6188TIP3    H140199   3.428   5.740   0.297 -1.2621 -0.7220  0.9997
 6188TIP3    H240200   3.292   5.732   0.362 -1.9855  0.6231 -0.2719
 6189TIP3   OH240201   3.660   0.651   1.011  0.4420 -0.1623 -0.2509
 6189TIP3    H140202   3.642   0.568   1.055  0.9467 -0.3462 -0.3748
 6189TIP3    H240203   3.641   0.634   0.919 -2.6744  0.8334  0.1021
 6190TIP3   OH240204   5.420   5.523   1.741  0.1673 -0.1076 -0.2441
 6190TIP3    H140205   5.471   5.509   1.821 -0.1338 -2.3978 -0.3904
 6190TIP3    H240206   5.336   5.555   1.773  0.5256  0.3718  0.2480
 6191TIP3   OH240207   2.386   2.178   7.799  0.2285  0.6831 -0.4479
 6191TIP3    H140208   2.393   2.141   7.887  2.0920  0.8910 -0.4575
 6191TIP3    H240209   2.430   2.263   7.806  2.8461 -0.4070 -2.1386
 6192TIP3   OH240210   6.120   6.562   1.028  0.3677 -0.0575 -0.6763
 6192TIP3    H140211   6.202   6.590   0.988  1.5598 -1.6817  0.4847
 6192TIP3    H240212   6.106   6.473   0.995  0.4874 -0.7885  1.1293
 6193TIP3   OH240213   5.462   3.364   7.292 -0.3626 -0.0133 -0.2643
 6193TIP3    H140214   5.489   3.273   7.279  1.9678  0.4788  0.5564
 6193TIP3    H240215   5.382   3.358   7.344  0.6342 -1.5970  1.2036
 6194TIP3   OH240216   4.762   6.925   0.872 -0.3182 -0.8087 -0.2447
 6194TIP3    H140217   4.722   6.917   0.785 -1.0021  2.8753 -0.4394
 6194TIP3    H240218   4.856   6.931   0.855 -0.4624  0.0676 -0.8092
 6195TIP3   OH240219   0.984   1.601   7.995 -0.3721 -0.2930  0.3117
 6195TIP3    H140220   1.027   1.598   7.910  0.6014 -0.0149  0.7801
 6195TIP3    H240221   1.048   1.642   8.053 -0.5459 -1.5635  1.4531
 6196TIP3   OH240222   6.257   3.548   1.522 -0.2701  0.4437 -0.4446
 6196TIP3    H140223   6.291   3.478   1.578 -1.5080  1.5223  1.7627
 6196TIP3    H240224   6.162   3.542   1.530 -0.4344  3.5218  1.4296
 6197TIP3   OH240225   5.409   6.092   0.108  0.1735 -0.7925  0.0762
 6197TIP3    H140226   5.373   6.012   0.146 -1.3000  0.1528  0.7984
 6197TIP3    H240227   5.495   6.101   0.149  0.3736 -2.0064 -0.0443
 6198TIP3   OH240228   6.530   5.706   0.760 -0.1005 -0.1198  0.0445
 6198TIP3    H140229   6.570   5.652   0.829  0.3844 -1.5518 -1.2927
 6198TIP3    H240230   6.445   5.732   0.797  0.0193 -1.0925  1.0760
 6199TIP3   OH240231   2.500   6.393   2.918  0.4318 -0.3953  0.0646
 6199TIP3    H140232   2.491   6.312   2.969 -0.2394 -0.6762 -0.4908
 6199TIP3    H240233   2.476   6.368   2.829 -1.3697  0.7825  0.1898
 6200TIP3   OH240234   5.811   4.440   8.312 -0.1126  0.3641 -0.1534
 6200TIP3    H140235   5.717   4.455   8.307 -0.4250 -1.3744  0.0947
 6200TIP3    H240236   5.838   4.429   8.221  0.4743  3.9062 -0.5784
 6201TIP3   OH240237   4.585   0.129   0.476 -0.1898  0.2280 -0.9328
 6201TIP3    H140238   4.595   0.079   0.395 -0.4977  0.8938 -1.3893
 6201TIP3    H240239   4.670   0.120   0.520 -0.3141 -0.8823 -0.8816
 6202TIP3   OH240240   2.611   2.950   1.613 -0.1017 -0.2682 -0.0123
 6202TIP3    H140241   2.550   2.889   1.656 -2.5884  2.9632  1.5239
 6202TIP3    H240242   2.654   2.898   1.545 -2.7409 -3.4403  0.5101
 6203TIP3   OH240243   2.422   0.041   7.958  0.1340 -0.0248  0.3987
 6203TIP3    H140244   2.382   0.023   7.873  0.5129  2.1487 -0.3074
 6203TIP3    H240245   2.367   0.109   7.997  0.9483  0.2422  1.1205
 6204TIP3   OH240246   5.425   5.211   8.359  0.2752 -0.1763  0.4239
 6204TIP3    H140247   5.371   5.143   8.399 -1.0593 -0.2846 -1.4141
 6204TIP3    H240248   5.455   5.173   8.277 -1.1352  1.6069 -1.0390
 6205TIP3   OH240249   3.487   4.151   7.428 -0.5428 -0.6832  0.3565
 6205TIP3    H140250   3.529   4.144   7.342 -1.3218 -0.6818 -0.0358
 6205TIP3    H240251   3.404   4.104   7.417 -0.0776 -1.8183  1.4866
 6206TIP3   OH240252   5.356   3.986   2.033 -0.2388  0.4094 -0.2659
 6206TIP3    H140253   5.429   3.956   2.087 -1.6846 -1.2733  0.8993
 6206TIP3    H240254   5.334   3.909   1.979 -3.4140 -0.5286  2.0577
 6207TIP3   OH240255   3.240   5.602   1.550 -0.3149  0.1496  0.7626
 6207TIP3    H140256   3.224   5.548   1.473  1.0340  0.1917  0.4202
 6207TIP3    H240257   3.317   5.562   1.591  0.6868  1.7497  0.5309
 6208TIP3   OH240258   1.395   5.315   7.806  0.0246  0.4672 -0.3956
 6208TIP3    H140259   1.443   5.322   7.723  0.3803  1.1299 -0.1326
 6208TIP3    H240260   1.431   5.236   7.847 -0.4642 -0.1195 -1.0674
 6209TIP3   OH240261   3.684   2.563   8.464  0.3961 -0.1544 -0.0732
 6209TIP3    H140262   3.615   2.536   8.525 -0.7335 -0.1750 -1.3025
 6209TIP3    H240263   3.754   2.597   8.520 -0.8061  0.3179  1.2053
 6210TIP3   OH240264   4.296   1.937   0.052 -0.1402  0.5116  0.6155
 6210TIP3    H140265   4.218   1.946   0.107 -0.0832  0.9568  0.6304
 6210TIP3    H240266   4.369   1.936   0.114  0.0440  2.4810  0.5224
 6211TIP3   OH240267   3.685   3.559   2.226 -0.1847  0.0877  0.7682
 6211TIP3    H140268   3.598   3.520   2.237 -1.3545  1.5311 -2.1330
 6211TIP3    H240269   3.682   3.640   2.276 -0.6869  0.3224  0.3706
 6212TIP3   OH240270   3.242   2.094   7.759 -0.0448  0.6666 -0.0168
 6212TIP3    H140271   3.263   2.155   7.688 -0.6070 -0.4514 -1.1584
 6212TIP3    H240272   3.319   2.098   7.816  0.5315  1.3765 -0.8104
 6213TIP3   OH240273   1.074   3.942   7.428  0.5645 -0.0668  0.3329
 6213TIP3    H140274   1.164   3.915   7.407  0.5946  1.1590 -1.2923
 6213TIP3    H240275   1.048   3.998   7.355 -0.9164  0.9888  1.5980
 6214TIP3   OH240276   5.283   4.476   0.282  0.2593  0.1593  0.0940
 6214TIP3    H140277   5.198   4.459   0.323  0.3956  0.3946  0.4828
 6214TIP3    H240278   5.331   4.394   0.292  0.3190  0.2378  0.4828
 6215TIP3   OH240279   4.048   0.933   8.154  0.1749  0.0934  0.4754
 6215TIP3    H140280   3.996   0.885   8.218 -0.9525  0.2283 -0.3036
 6215TIP3    H240281   4.013   0.905   8.069  0.0837  1.6090 -0.0238
 6216TIP3   OH240282   3.880   4.906   7.565  0.8208 -0.7658  0.3071
 6216TIP3    H140283   3.928   4.852   7.502  1.2780 -0.6420  0.5429
 6216TIP3    H240284   3.822   4.959   7.511  0.3595 -1.4983  0.0767
 6217TIP3   OH240285   2.595   5.494   2.234  0.6492  0.1887 -0.1447
 6217TIP3    H140286   2.575   5.507   2.141  2.0336  0.8869 -0.3711
 6217TIP3    H240287   2.510   5.484   2.275  0.0027 -0.0704 -1.4764
 6218TIP3   OH240288   5.737   5.002   0.225  0.1632 -0.3525 -0.4626
 6218TIP3    H140289   5.643   4.993   0.213  0.0017  3.0170 -3.1895
 6218TIP3    H240290   5.746   5.042   0.312 -0.7446 -1.7223  0.3047
 6219TIP3   OH240291   6.769   0.746   8.152 -0.8892  0.1176  0.2228
 6219TIP3    H140292   6.698   0.803   8.123 -0.4859  1.3364  1.5470
 6219TIP3    H240293   6.843   0.770   8.096 -0.3909  1.7640  1.5277
 6220TIP3   OH240294   3.470   0.767   1.183  0.2433 -0.4242  0.1809
 6220TIP3    H140295   3.551   0.740   1.139  0.3091 -0.4691  0.3301
 6220TIP3    H240296   3.401   0.746   1.120  0.5264  1.7698 -0.9532
 6221TIP3   OH240297   5.043   5.835   0.064 -0.0119 -0.6669  0.5344
 6221TIP3    H140298   5.102   5.783   0.009  0.1838 -0.3986  0.4948
 6221TIP3    H240299   5.016   5.774   0.133  1.1021 -0.5015  1.1381
 6222TIP3   OH240300   2.562   2.082   0.508 -0.3973 -0.0576  0.3548
 6222TIP3    H140301   2.548   2.002   0.558  1.0472 -0.2268  0.5278
 6222TIP3    H240302   2.570   2.150   0.575  0.9074 -0.1835  0.3391
 6223TIP3   OH240303   3.947   1.902   7.402 -0.7565 -0.2210 -0.4011
 6223TIP3    H140304   4.029   1.905   7.352 -0.8871 -0.6194 -0.6413
 6223TIP3    H240305   3.894   1.836   7.357 -0.7765 -0.7666  0.4080
 6224TIP3   OH240306   0.671   1.399   8.470 -0.5428  0.1238  0.4507
 6224TIP3    H140307   0.750   1.453   8.470 -0.0105 -0.6367  0.7605
 6224TIP3    H240308   0.663   1.369   8.560 -1.5846  0.7509  0.5806
 6225TIP3   OH240309   0.526   6.662   0.573 -0.1637 -0.1607  0.0147
 6225TIP3    H140310   0.608   6.675   0.526 -0.5652  0.3612 -0.5530
 6225TIP3    H240311   0.550   6.666   0.666  0.2505  1.3869 -0.1395
 6226TIP3   OH240312   4.038   0.827   0.124 -0.7654 -0.6220  0.5669
 6226TIP3    H140313   3.963   0.883   0.105  0.3088  0.2361 -1.4804
 6226TIP3    H240314   4.024   0.797   0.214 -2.6712  0.8749  0.8249
 6227TIP3   OH240315   5.418   5.407   7.071  0.5382 -0.3958  0.3321
 6227TIP3    H140316   5.469   5.487   7.084 -2.1346  1.3813  0.4957
 6227TIP3    H240317   5.482   5.343   7.038  2.4568  2.2647 -1.4833
 6228TIP3   OH240318   6.298   6.520   1.443 -0.1709  0.3781 -0.7271
 6228TIP3    H140319   6.222   6.476   1.482 -0.2647 -1.3237 -2.6221
 6228TIP3    H240320   6.357   6.448   1.420  1.5901  1.6068 -0.1846
 6229TIP3   OH240321   6.275   6.451   2.737  0.5408  0.2990  0.0356
 6229TIP3    H140322   6.338   6.502   2.788 -0.0366  1.1456 -0.0827
 6229TIP3    H240323   6.190   6.476   2.771  0.2522 -0.9436  0.2874
 6230TIP3   OH240324   6.508   6.855   1.973 -0.2246 -0.3745  0.7977
 6230TIP3    H140325   6.530   6.947   1.981  1.0051 -0.6101  0.2722
 6230TIP3    H240326   6.554   6.812   2.046  1.0756 -0.8646 -0.2812
 6231TIP3   OH240327   3.317   5.965   1.810  0.0570 -0.6316  0.0478
 6231TIP3    H140328   3.366   5.987   1.889  2.9147 -1.3662 -1.3639
 6231TIP3    H240329   3.268   5.886   1.833  2.5011 -2.0984  0.5918
 6232TIP3   OH240330   3.897   6.207   1.999 -0.2651  0.1885 -0.3148
 6232TIP3    H140331   3.838   6.256   2.057  0.7061  1.9759 -0.7392
 6232TIP3    H240332   3.909   6.265   1.923  1.4021 -0.4456 -0.5822
 6233TIP3   OH240333   3.651   1.976   7.298 -0.5095 -0.7651  0.1670
 6233TIP3    H140334   3.688   1.888   7.295 -2.2441 -1.5322 -0.0257
 6233TIP3    H240335   3.659   2.008   7.208  2.6766  0.4731  0.7525
 6234TIP3   OH240336   5.245   4.029   0.395 -0.1605 -0.0511 -0.1021
 6234TIP3    H140337   5.277   3.939   0.390  0.3332  0.0341  1.1808
 6234TIP3    H240338   5.238   4.057   0.303  2.2539 -0.5081 -0.5063
 6235TIP3   OH240339   6.655   4.737   1.260  0.5088  0.0881  0.0347
 6235TIP3    H140340   6.713   4.694   1.322  1.0768 -0.6433 -0.9671
 6235TIP3    H240341   6.569   4.700   1.278  0.6380  0.0027  0.4884
 6236TIP3   OH240342   2.707   3.106   0.505 -0.1378  0.3122 -0.1786
 6236TIP3    H140343   2.620   3.099   0.544  0.5400  1.3095  1.6242
 6236TIP3    H240344   2.724   3.200   0.498  1.5268  0.1970  1.3545
 6237TIP3   OH240345   2.307   0.980   7.298 -0.0283 -0.1744  0.0190
 6237TIP3    H140346   2.340   0.975   7.208  0.8013  1.3168  0.2068
 6237TIP3    H240347   2.212   0.986   7.288 -0.0001 -0.7829 -0.7157
 6238TIP3   OH240348   6.123   1.869   7.766 -0.1281 -0.7795 -0.1142
 6238TIP3    H140349   6.115   1.882   7.671 -1.1732  0.5764  0.1305
 6238TIP3    H240350   6.050   1.811   7.788 -1.9291  1.4313  0.2523
 6239TIP3   OH240351   2.643   3.089   2.863 -0.6541 -0.2362  0.1789
 6239TIP3    H140352   2.548   3.097   2.873 -0.6048  1.7190 -0.3947
 6239TIP3    H240353   2.659   3.101   2.770  0.1158 -1.4347  0.1353
 6240TIP3   OH240354   1.900   3.353   1.735  0.3723 -0.2410 -0.5306
 6240TIP3    H140355   1.874   3.422   1.796  0.3098 -1.1690  0.5173
 6240TIP3    H240356   1.961   3.298   1.785 -0.1882 -1.3910 -1.0683
 6241TIP3   OH240357   6.804   2.062   0.616 -0.5022 -0.2169 -0.0701
 6241TIP3    H140358   6.876   2.110   0.576  0.7839  1.1382  3.5067
 6241TIP3    H240359   6.766   2.123   0.679 -3.0267 -1.8364  0.1362
 6242TIP3   OH240360   4.471   1.038   0.731 -0.0859 -0.1833  0.0890
 6242TIP3    H140361   4.447   1.131   0.731 -1.0026 -0.4032  0.0113
 6242TIP3    H240362   4.565   1.037   0.714  0.7881  0.9254  3.9384
 6243TIP3   OH240363   4.899   5.963   7.984 -0.0243  0.3627  0.1847
 6243TIP3    H140364   4.807   5.977   8.007 -0.3571  0.6389 -1.2274
 6243TIP3    H240365   4.938   6.050   7.988 -0.1094  0.4299 -0.3523
 6244TIP3   OH240366   6.059   0.954   0.903  0.4101 -0.4732  0.2423
 6244TIP3    H140367   6.052   1.031   0.960 -0.5338 -0.0823 -0.3751
 6244TIP3    H240368   6.012   0.979   0.824  2.3435 -0.7277 -1.0321
 6245TIP3   OH240369   1.149   2.572   0.160 -0.7555 -0.3037  0.3999
 6245TIP3    H140370   1.208   2.524   0.103  0.2675  1.5233 -0.1817
 6245TIP3    H240371   1.079   2.603   0.102 -0.6355  0.0923  0.4590
 6246TIP3   OH240372   2.731   4.885   7.330 -0.3001  0.1233  0.1334
 6246TIP3    H140373   2.814   4.869   7.285 -0.7453 -1.0423 -0.3024
 6246TIP3    H240374   2.753   4.949   7.398  0.8754  0.1025 -0.1991
 6247TIP3   OH240375   0.510   0.388   1.981  0.6641  0.2671 -0.0098
 6247TIP3    H140376   0.556   0.472   1.990  0.2975  0.6447 -1.3300
 6247TIP3    H240377   0.440   0.392   2.046  1.6261  0.2769  1.0630
 6248TIP3   OH240378   1.150   6.144   7.501  0.3811  0.3081 -0.1291
 6248TIP3    H140379   1.121   6.121   7.413 -0.6910  0.6590  0.1247
 6248TIP3    H240380   1.166   6.060   7.544  1.0081  0.1350 -0.6719
 6249TIP3   OH240381   6.775   6.123   2.477 -0.3191 -0.1114 -0.6038
 6249TIP3    H140382   6.700   6.083   2.521 -0.0501 -1.0098 -0.9276
 6249TIP3    H240383   6.755   6.116   2.384 -0.0470  0.0585 -0.6771
 6250TIP3   OH240384   4.050   2.612   0.892  0.3894 -0.3412 -0.1301
 6250TIP3    H140385   3.979   2.657   0.846  0.3430 -0.7707 -0.4865
 6250TIP3    H240386   4.017   2.598   0.980  0.2589 -0.0190 -0.1244
 6251TIP3   OH240387   0.838   4.002   1.657 -0.3913  0.3279 -0.6375
 6251TIP3    H140388   0.754   4.004   1.703 -1.0183 -2.3297 -1.5056
 6251TIP3    H240389   0.904   3.990   1.725 -1.0252 -0.5743 -0.1682
 6252TIP3   OH240390   5.689   1.490   0.744 -0.2890  0.0719 -0.3587
 6252TIP3    H140391   5.595   1.477   0.755 -0.1755  0.6909  1.8563
 6252TIP3    H240392   5.697   1.552   0.671 -1.5550 -0.2470 -0.7834
 6253TIP3   OH240393   1.599   6.054   2.139  0.1043  0.2507  0.0309
 6253TIP3    H140394   1.684   6.016   2.164 -0.4779 -2.9196 -2.2494
 6253TIP3    H240395   1.599   6.053   2.044 -2.1467  1.1223 -0.0417
 6254TIP3   OH240396   6.451   4.744   2.682  0.6788 -0.2170 -0.2320
 6254TIP3    H140397   6.371   4.795   2.694  0.5694 -0.1326 -1.2338
 6254TIP3    H240398   6.498   4.754   2.764 -0.6473 -0.8203  0.6419
 6255TIP3   OH240399   1.158   4.266   1.959 -0.2579  0.2291 -0.0159
 6255TIP3    H140400   1.169   4.248   1.866 -1.1258 -0.4587 -0.0033
 6255TIP3    H240401   1.070   4.305   1.966  0.5688  2.1830  0.2878
 6256TIP3   OH240402   5.902   3.841   1.431 -0.3765 -0.3150  0.5400
 6256TIP3    H140403   5.940   3.770   1.380 -0.4698 -0.6185  0.8825
 6256TIP3    H240404   5.965   3.913   1.424  1.0382 -1.2894  2.3042
 6257TIP3   OH240405   0.886   1.201   0.627  0.6550  0.4070 -0.1479
 6257TIP3    H140406   0.844   1.138   0.568 -0.2053  1.2199 -0.4206
 6257TIP3    H240407   0.967   1.157   0.655 -0.7626 -1.6056  1.1122
 6258TIP3   OH240408   2.285   2.742   2.072  0.2611 -0.2511 -0.0728
 6258TIP3    H140409   2.352   2.785   2.018  0.9678 -0.3236  0.7311
 6258TIP3    H240410   2.317   2.751   2.162  0.2354 -2.0951  0.1575
 6259TIP3   OH240411   3.657   3.182   7.479  0.6322  0.5700  0.0237
 6259TIP3    H140412   3.655   3.203   7.385  2.9061  0.3020 -0.1343
 6259TIP3    H240413   3.709   3.102   7.485 -1.4916 -0.8331  1.3538
 6260TIP3   OH240414   0.338   4.233   0.384  0.5104  0.3954  0.7060
 6260TIP3    H140415   0.259   4.199   0.427  0.2818  1.9425  1.6027
 6260TIP3    H240416   0.394   4.262   0.456  1.4965  0.1883  0.0425
 6261TIP3   OH240417   3.957   3.032   7.652 -0.5536 -0.2636 -0.8107
 6261TIP3    H140418   3.864   3.007   7.658 -0.3110 -0.9931  0.2259
 6261TIP3    H240419   4.002   2.950   7.629 -0.0181 -0.2570  0.1529
 6262TIP3   OH240420   1.936   0.233   0.929  0.0214 -0.5627  0.6325
 6262TIP3    H140421   1.971   0.237   0.840 -1.1089 -1.0389  0.1425
 6262TIP3    H240422   1.931   0.324   0.957 -0.9638 -0.2789 -0.3629
 6263TIP3   OH240423   3.317   1.476   7.184  0.5253  0.3340 -0.4395
 6263TIP3    H140424   3.245   1.426   7.146  1.1469 -0.0880 -1.0778
 6263TIP3    H240425   3.293   1.485   7.276 -0.8722  1.1299 -0.8361
 6264TIP3   OH240426   0.171   6.309   2.122 -0.1634 -0.0873  0.5711
 6264TIP3    H140427   0.084   6.305   2.083  0.5400 -2.3989 -0.9708
 6264TIP3    H240428   0.165   6.260   2.203 -0.4366  0.3543  0.8226
 6265TIP3   OH240429   3.718   5.053   2.466 -0.8680  0.0103  0.7775
 6265TIP3    H140430   3.732   5.071   2.373 -2.3480  0.4616  0.6095
 6265TIP3    H240431   3.791   5.095   2.510  0.3998 -1.0324 -0.2251
 6266TIP3   OH240432   5.492   2.412   6.719  0.4616  0.1750  0.0138
 6266TIP3    H140433   5.485   2.507   6.727  1.2945  0.2086  0.4041
 6266TIP3    H240434   5.403   2.384   6.695  0.2365  1.0546 -0.2244
 6267TIP3   OH240435   5.529   1.197   3.401 -0.1583  0.2891 -0.0264
 6267TIP3    H140436   5.605   1.211   3.344  1.4891 -0.1391  1.9300
 6267TIP3    H240437   5.468   1.146   3.347  1.3093 -0.1125 -1.3950
 6268TIP3   OH240438   5.754   6.231   1.268  0.1242 -0.0822 -0.3238
 6268TIP3    H140439   5.826   6.294   1.273  0.6768 -0.5462 -1.8915
 6268TIP3    H240440   5.678   6.284   1.245  0.9443 -0.1154 -3.5225
 6269TIP3   OH240441   6.865   0.518   7.418 -0.2219 -0.2117  0.1572
 6269TIP3    H140442   6.846   0.451   7.353 -0.2663 -0.3261  0.2874
 6269TIP3    H240443   6.811   0.494   7.493  0.3593 -0.4865  0.4966
 6270TIP3   OH240444   0.231   3.556   7.850 -0.5889 -0.0298 -0.8587
 6270TIP3    H140445   0.160   3.596   7.899 -0.8014  0.1069 -1.2701
 6270TIP3    H240446   0.217   3.586   7.760 -0.2184 -0.2909 -1.0038
 6271TIP3   OH240447   2.670   4.376   0.684 -0.5503  0.4025  0.3634
 6271TIP3    H140448   2.753   4.349   0.723 -0.6870 -1.3720 -0.4586
 6271TIP3    H240449   2.649   4.306   0.622 -2.0352  1.4423 -0.3659
 6272TIP3   OH240450   1.108   3.320   8.220 -0.7795 -0.0298  0.0413
 6272TIP3    H140451   1.195   3.282   8.218 -1.5632 -1.9713  0.6497
 6272TIP3    H240452   1.102   3.373   8.141  1.4491  1.3685  0.7380
 6273TIP3   OH240453   3.984   5.926   1.220 -0.5262  0.1005  0.3720
 6273TIP3    H140454   3.923   5.965   1.283 -0.5518 -0.2763  0.5809
 6273TIP3    H240455   4.068   5.924   1.266 -0.4334  0.2804  0.2141
 6274TIP3   OH240456   1.104   5.989   7.836 -0.1047 -0.1396 -0.1782
 6274TIP3    H140457   1.147   6.047   7.898  3.2034  0.1821 -2.5279
 6274TIP3    H240458   1.059   6.047   7.775  2.2803  0.0682 -1.8758
 6275TIP3   OH240459   5.598   4.744   0.094  0.3467  0.5620  0.0786
 6275TIP3    H140460   5.612   4.650   0.080  0.2290  0.0221  2.9892
 6275TIP3    H240461   5.521   4.749   0.150  0.7371  2.3382  0.5234
 6276TIP3   OH240462   3.909   1.811   2.647 -0.2698  0.5148  0.1187
 6276TIP3    H140463   3.994   1.767   2.647  0.8805  2.5460  1.0824
 6276TIP3    H240464   3.867   1.785   2.566  0.2701 -2.3411  0.6680
 6277TIP3   OH240465   3.926   3.321   2.789 -0.6339 -0.5830  0.2922
 6277TIP3    H140466   3.859   3.371   2.742 -0.9943 -1.7695 -0.5071
 6277TIP3    H240467   3.996   3.384   2.804 -0.4268 -0.1484 -2.0223
 6278TIP3   OH240468   6.214   6.010   8.220  0.4241 -0.1434  0.4504
 6278TIP3    H140469   6.205   6.082   8.158  0.4526 -1.0939 -0.7040
 6278TIP3    H240470   6.278   6.041   8.284  1.1178  0.5062 -0.5369
 6279TIP3   OH240471   4.022   5.832   7.358 -0.5113  0.1248  0.0393
 6279TIP3    H140472   4.004   5.919   7.393  0.3695  0.2510  0.2243
 6279TIP3    H240473   4.118   5.826   7.358 -0.5585 -1.4954  1.6472
 6280TIP3   OH240474   1.474   5.458   0.653 -0.7064 -0.3656 -0.2023
 6280TIP3    H140475   1.410   5.508   0.602  0.4418 -0.6918 -2.0206
 6280TIP3    H240476   1.559   5.483   0.617  0.1744 -0.5649  1.6134
 6281TIP3   OH240477   6.636   3.181   2.187 -0.3278 -0.3263  0.0069
 6281TIP3    H140478   6.655   3.151   2.098 -1.2405  0.2844 -0.4132
 6281TIP3    H240479   6.613   3.102   2.235  0.9309 -0.7636 -0.0862
 6282TIP3   OH240480   0.740   5.864   3.068  0.5862  0.1946 -0.0107
 6282TIP3    H140481   0.711   5.806   2.997 -0.9414  1.7167 -0.7004
 6282TIP3    H240482   0.690   5.836   3.144  2.6710 -1.8466  0.7311
 6283TIP3   OH240483   5.324   1.061   3.211 -0.0904 -0.2846 -0.1350
 6283TIP3    H140484   5.283   1.108   3.139 -0.7026  1.7697  1.4703
 6283TIP3    H240485   5.350   0.976   3.173  0.5843  1.0893 -3.0083
 6284TIP3   OH240486   3.676   5.790   1.069  0.1585 -0.3823  0.0237
 6284TIP3    H140487   3.622   5.833   1.135 -0.8217 -3.1267  1.1345
 6284TIP3    H240488   3.675   5.698   1.093  1.3689 -1.2246 -2.7444
 6285TIP3   OH240489   0.707   1.334   2.059 -0.1669 -0.8082 -0.2446
 6285TIP3    H140490   0.719   1.275   1.984  2.2705  0.3437 -0.8707
 6285TIP3    H240491   0.630   1.386   2.037  0.2288 -0.8167 -1.7677
 6286TIP3   OH240492   1.532   5.332   7.553  0.2847 -0.2795 -0.7427
 6286TIP3    H140493   1.610   5.280   7.534 -0.3721 -1.0070 -1.5266
 6286TIP3    H240494   1.515   5.380   7.472 -0.3401 -0.4697 -0.7275
 6287TIP3   OH240495   1.549   5.706   6.752  0.3042 -0.3862 -0.4000
 6287TIP3    H140496   1.457   5.698   6.777  0.2304 -1.8034 -1.0220
 6287TIP3    H240497   1.597   5.686   6.833  0.1206  1.7779  0.3165
 6288TIP3   OH240498   4.584   4.261   2.082  0.0609 -0.2374 -0.8205
 6288TIP3    H140499   4.637   4.340   2.085 -0.1442  0.0083 -2.8301
 6288TIP3    H240500   4.550   4.252   2.172  0.5630  1.6070 -0.4067
 6289TIP3   OH240501   3.306   4.072   2.321  0.0998 -0.0206  0.0870
 6289TIP3    H140502   3.356   4.081   2.240 -0.4519  0.2224 -0.2325
 6289TIP3    H240503   3.217   4.095   2.297  0.0279  0.5823  0.8770
 6290TIP3   OH240504   2.168   4.804   0.694 -0.0803  0.2337 -0.0040
 6290TIP3    H140505   2.081   4.792   0.732  0.2823 -0.5558  0.5913
 6290TIP3    H240506   2.151   4.830   0.603 -0.9359 -0.1058  0.0521
 6291TIP3   OH240507   0.475   3.115   3.122 -0.4560  0.0744 -0.4777
 6291TIP3    H140508   0.494   3.022   3.109  0.1118  0.0783  0.2652
 6291TIP3    H240509   0.517   3.137   3.205  0.2551  1.2394 -1.1169
 6292TIP3   OH240510   0.885   6.558   0.210  0.4389 -0.4929 -0.5623
 6292TIP3    H140511   0.837   6.485   0.250 -0.3778 -0.2710 -1.1203
 6292TIP3    H240512   0.965   6.519   0.176  1.1998 -0.6921  1.3080
 6293TIP3   OH240513   3.286   2.777   7.925  0.0260 -0.7910  0.2234
 6293TIP3    H140514   3.315   2.722   7.998  1.3158 -0.9463 -0.3845
 6293TIP3    H240515   3.213   2.729   7.886 -0.5202 -0.8215  1.2437
 6294TIP3   OH240516   5.152   0.648   2.232 -0.2174  0.3561  0.4354
 6294TIP3    H140517   5.245   0.622   2.237  0.0331  1.3914  1.3201
 6294TIP3    H240518   5.150   0.716   2.165 -0.1568  1.0765  1.1569
 6295TIP3   OH240519   2.798   3.045   2.142 -0.3333 -0.2024 -0.0792
 6295TIP3    H140520   2.732   3.114   2.140  0.6314  0.7316 -0.8823
 6295TIP3    H240521   2.800   3.012   2.052  1.3587  0.8493 -0.4600
 6296TIP3   OH240522   0.175   2.793   1.317 -0.4422  0.4221  0.5298
 6296TIP3    H140523   0.083   2.779   1.295  0.1285  0.8968 -2.6888
 6296TIP3    H240524   0.220   2.715   1.285  0.5589  1.3777 -0.5159
 6297TIP3   OH240525   4.902   0.060   1.572  0.1234 -0.0996 -0.0182
 6297TIP3    H140526   4.937  -0.008   1.515  0.2004 -0.6484  0.6569
 6297TIP3    H240527   4.815   0.079   1.536  0.0812 -0.5974 -0.1937
 6298TIP3   OH240528   5.370   2.284   2.612 -0.0697 -0.2717  0.3568
 6298TIP3    H140529   5.404   2.195   2.616  0.6483 -0.2013 -2.3002
 6298TIP3    H240530   5.441   2.339   2.646  0.6574 -0.5124 -0.7280
 6299TIP3   OH240531   3.787   5.353   2.458  0.3142 -0.8164 -0.3926
 6299TIP3    H140532   3.716   5.333   2.396 -0.4119  1.2237 -0.3329
 6299TIP3    H240533   3.754   5.324   2.543 -0.5891  0.3064 -0.3331
 6300TIP3   OH240534   5.433   3.880   7.707 -0.1287 -0.3614  0.3557
 6300TIP3    H140535   5.346   3.842   7.717  0.3697 -1.2526  1.6008
 6300TIP3    H240536   5.417   3.967   7.669 -1.4632 -0.8898 -0.3677
 6301TIP3   OH240537   0.936   1.299   1.585 -0.2693 -0.0947 -0.1271
 6301TIP3    H140538   0.928   1.248   1.504 -2.4063 -0.9605  0.5369
 6301TIP3    H240539   0.853   1.346   1.592 -0.9973 -1.5630  2.4893
 6302TIP3   OH240540   6.417   2.132   1.354 -0.1958  0.3230  0.4129
 6302TIP3    H140541   6.411   2.048   1.398 -1.4914  0.5642  0.7619
 6302TIP3    H240542   6.348   2.185   1.395 -0.8013  0.8609 -1.2220
 6303TIP3   OH240543   2.405   1.760   0.322  0.3392 -1.0043 -0.1007
 6303TIP3    H140544   2.492   1.759   0.361  0.9284 -0.7432 -1.3324
 6303TIP3    H240545   2.374   1.670   0.329  0.7606 -1.1250  0.2363
 6304TIP3   OH240546   1.394   6.565   1.627  0.0240 -0.2841 -0.1891
 6304TIP3    H140547   1.308   6.532   1.601 -0.6278  1.5632 -0.4676
 6304TIP3    H240548   1.455   6.496   1.601 -1.1962 -0.9016 -1.5146
 6305TIP3   OH240549   0.093   0.590   1.279 -0.0646  0.1668  0.3083
 6305TIP3    H140550   0.120   0.587   1.187 -1.8883 -3.2393 -0.2747
 6305TIP3    H240551   0.169   0.555   1.327  0.0462 -0.2751 -0.1807
 6306TIP3   OH240552   2.448   2.758   1.120  0.2963 -0.1828 -0.4624
 6306TIP3    H140553   2.430   2.689   1.185  0.9306  0.5802  0.5625
 6306TIP3    H240554   2.449   2.712   1.036  2.5524 -1.8329  0.3435
 6307TIP3   OH240555   5.844   0.136   7.024  0.4856 -0.1787 -0.3605
 6307TIP3    H140556   5.828   0.230   7.015  1.5927 -0.0806 -1.6732
 6307TIP3    H240557   5.815   0.115   7.113 -0.5472  1.2283 -0.3323
 6308TIP3   OH240558   1.628   1.783   2.032  0.5712  0.7368  0.1896
 6308TIP3    H140559   1.548   1.827   2.003  0.9478  0.7196 -0.8936
 6308TIP3    H240560   1.607   1.754   2.121 -1.5086 -1.3305 -0.8469
 6309TIP3   OH240561   0.485   0.981   1.312  0.7350 -0.3623 -0.0807
 6309TIP3    H140562   0.550   1.013   1.375  2.2457 -1.8906 -0.7678
 6309TIP3    H240563   0.534   0.971   1.230 -0.3968 -1.4616 -0.6573
 6310TIP3   OH240564   3.003   3.136   2.549  0.2184  0.9780 -0.2541
 6310TIP3    H140565   3.065   3.203   2.524  3.1741 -2.3849 -2.9827
 6310TIP3    H240566   2.964   3.107   2.466 -1.6677 -0.0808  0.9235
 6311TIP3   OH240567   5.868   3.781   3.162  0.3492 -0.0246 -0.1825
 6311TIP3    H140568   5.844   3.874   3.159 -0.9029 -0.3170 -0.0362
 6311TIP3    H240569   5.923   3.773   3.240 -0.0258  0.4949  0.1403
 6312TIP3   OH240570   5.055   0.889   2.048 -0.5533  0.5723  0.1845
 6312TIP3    H140571   5.045   0.833   1.971  0.9339 -1.4533  1.3787
 6312TIP3    H240572   5.063   0.977   2.012  0.9652 -0.4008 -2.0929
 6313TIP3   OH240573   0.840   4.457   2.243 -0.2468  0.0096 -0.2677
 6313TIP3    H140574   0.809   4.530   2.297 -0.7874  0.8081 -1.6207
 6313TIP3    H240575   0.888   4.499   2.171 -0.2770 -0.9923 -0.8923
 6314TIP3   OH240576   3.730   1.141   8.012 -0.2873 -0.0113  0.1195
 6314TIP3    H140577   3.764   1.104   8.093  0.0749 -1.3725 -0.6230
 6314TIP3    H240578   3.791   1.210   7.989  0.6712 -0.8636  0.0417
 6315TIP3   OH240579   3.804   4.136   7.079  0.2020 -0.0221  0.0354
 6315TIP3    H140580   3.877   4.195   7.100  0.6256 -1.0409  1.5971
 6315TIP3    H240581   3.830   4.052   7.117 -1.4746 -0.5955 -0.0253
 6316TIP3   OH240582   4.048   6.110   8.004 -0.1708 -0.2445  0.4787
 6316TIP3    H140583   4.003   6.028   7.984  0.4151 -0.6090  0.6323
 6316TIP3    H240584   4.062   6.151   7.918 -0.0188 -0.5484  0.3561
 6317TIP3   OH240585   5.676   0.916   7.856  0.5342 -0.0545 -0.0087
 6317TIP3    H140586   5.727   0.930   7.936  3.0139 -0.2374 -1.4389
 6317TIP3    H240587   5.701   0.989   7.799 -1.6753  0.4342 -0.4488
 6318TIP3   OH240588   6.541   0.682   0.553  0.3984  0.1844 -0.1936
 6318TIP3    H140589   6.625   0.637   0.564  0.3640 -0.1891 -1.3421
 6318TIP3    H240590   6.494   0.629   0.488  0.0423  1.4331 -0.9835
 6319TIP3   OH240591   1.626   4.460   2.211  0.2095 -0.1231 -0.0930
 6319TIP3    H140592   1.538   4.447   2.176  0.0510 -1.5886  0.7886
 6319TIP3    H240593   1.684   4.441   2.137 -0.1938  0.3552 -0.5372
 6320TIP3   OH240594   2.809   3.886   1.293  0.5844 -0.6763 -0.1971
 6320TIP3    H140595   2.869   3.869   1.221  0.3790  0.7725 -0.7507
 6320TIP3    H240596   2.740   3.820   1.283 -0.3445  0.5333 -2.4129
 6321TIP3   OH240597   5.057   5.439   0.454  0.1803 -0.4923  0.2563
 6321TIP3    H140598   4.961   5.436   0.453  0.1753 -0.2874  0.2291
 6321TIP3    H240599   5.082   5.361   0.503  0.0224 -1.0381 -0.5069
 6322TIP3   OH240600   3.218   6.441   0.792 -0.3907  0.1730 -0.0069
 6322TIP3    H140601   3.293   6.395   0.831  1.7055  1.4167 -2.2760
 6322TIP3    H240602   3.146   6.378   0.796  1.8398 -2.7068 -1.3657
 6323TIP3   OH240603   3.815   4.323   0.666  0.0857  0.1639 -0.0533
 6323TIP3    H140604   3.843   4.361   0.583  1.3957 -0.4190  0.0928
 6323TIP3    H240605   3.748   4.259   0.643 -0.6958  1.1046 -0.4867
 6324TIP3   OH240606   0.484   2.819   1.478 -0.1525 -0.4231  0.3430
 6324TIP3    H140607   0.552   2.838   1.413 -0.6153  2.4493  0.5394
 6324TIP3    H240608   0.508   2.734   1.513  2.6867 -0.0762 -0.4422
 6325TIP3   OH240609   5.693   3.685   8.305 -0.2636 -0.2472  0.1412
 6325TIP3    H140610   5.738   3.645   8.379  1.9483  2.6588  0.5429
 6325TIP3    H240611   5.666   3.771   8.337 -0.6607  0.4666 -1.9641
 6326TIP3   OH240612   1.344   4.326   0.902  0.6130  0.1672 -0.0034
 6326TIP3    H140613   1.267   4.278   0.871 -0.5554  0.6907  1.8885
 6326TIP3    H240614   1.380   4.270   0.971 -0.0938  1.4130  1.4404
 6327TIP3   OH240615   0.313   2.228   0.360 -0.6377 -0.2791  0.3911
 6327TIP3    H140616   0.263   2.210   0.440  2.2993 -2.1629  2.0147
 6327TIP3    H240617   0.368   2.150   0.349  0.4171  0.7468 -2.4248
 6328TIP3   OH240618   1.175   5.404   0.737  0.6055  0.1240 -0.2258
 6328TIP3    H140619   1.087   5.368   0.726  0.4719  0.5598 -0.6149
 6328TIP3    H240620   1.233   5.328   0.731  0.4235  0.0921 -2.3387
 6329TIP3   OH240621   1.859   3.485   0.914 -0.1120 -0.6347  0.2502
 6329TIP3    H140622   1.900   3.449   0.992 -2.0839 -1.3661  1.0265
 6329TIP3    H240623   1.900   3.440   0.840 -0.0493 -1.8748  1.0293
 6330TIP3   OH240624   4.280   5.725   8.093 -0.0858  0.6528 -0.0399
 6330TIP3    H140625   4.221   5.667   8.141  0.2304  0.1720 -0.2307
 6330TIP3    H240626   4.365   5.681   8.095  0.1511  1.0906 -0.2157
 6331TIP3   OH240627   3.143   5.226   8.003 -0.4096 -0.2403  0.4530
 6331TIP3    H140628   3.071   5.227   8.067 -0.0344 -0.7716  0.8954
 6331TIP3    H240629   3.112   5.167   7.934  0.6847 -2.8628  2.0021
 6332TIP3   OH240630   0.707   5.025   2.419 -0.3931 -0.2323 -0.1262
 6332TIP3    H140631   0.713   5.104   2.474  1.8589 -1.1280  1.0036
 6332TIP3    H240632   0.696   5.059   2.330  1.3820  1.4169  0.2246
 6333TIP3   OH240633   3.886   5.687   1.357  0.2588 -0.2683  0.4449
 6333TIP3    H140634   3.889   5.766   1.304  1.5101 -0.2996  0.4287
 6333TIP3    H240635   3.808   5.696   1.411  0.2465  0.8521  0.2533
 6334TIP3   OH240636   4.439   6.740   0.503 -0.1903  0.1958  0.0075
 6334TIP3    H140637   4.416   6.728   0.411 -0.5974 -0.1250  0.1499
 6334TIP3    H240638   4.358   6.725   0.550  0.3671 -1.2775  0.5450
 6335TIP3   OH240639   1.630   6.063   1.870  0.1494  0.1755  0.0490
 6335TIP3    H140640   1.596   5.994   1.814  1.8072 -0.5495 -0.1106
 6335TIP3    H240641   1.575   6.139   1.850 -2.3540 -1.2742  0.9474
 6336TIP3   OH240642   6.938   2.190   1.551 -0.1796  0.0469  0.0404
 6336TIP3    H140643   6.936   2.254   1.479 -3.2393 -2.0890 -2.0770
 6336TIP3    H240644   7.028   2.157   1.552  0.2025  0.8315 -2.2187
 6337TIP3   OH240645   2.423   3.696   7.570 -0.3186  0.3372 -0.3084
 6337TIP3    H140646   2.349   3.646   7.605  1.1208 -1.4703  0.3635
 6337TIP3    H240647   2.408   3.699   7.475 -1.4792  0.4189 -0.1270
 6338TIP3   OH240648   0.676   4.760   1.884  0.0726 -0.2307  0.0699
 6338TIP3    H140649   0.651   4.789   1.972  0.9311 -0.2891  0.3422
 6338TIP3    H240650   0.690   4.666   1.893 -0.7088 -0.3873 -0.3386
 6339TIP3   OH240651   5.954   4.695   0.557 -0.0621  0.2108  0.7132
 6339TIP3    H140652   5.877   4.724   0.509 -1.5522 -3.6295  0.4144
 6339TIP3    H240653   5.920   4.639   0.626  2.3980 -0.7386  1.2760
 6340TIP3   OH240654   5.287   0.708   0.876  0.0644 -0.0864  0.7442
 6340TIP3    H140655   5.261   0.671   0.791 -0.6330  0.2475  0.8074
 6340TIP3    H240656   5.304   0.800   0.858  1.5181 -0.3408  0.6503
 6341TIP3   OH240657   6.683   2.073   3.426 -0.4809 -0.0452 -0.2698
 6341TIP3    H140658   6.678   2.105   3.336  1.6990  1.8586  0.1961
 6341TIP3    H240659   6.680   2.152   3.480  0.2834 -0.9888  1.2309
 6342TIP3   OH240660   5.460   0.540   1.840 -0.1087 -0.3217 -0.0550
 6342TIP3    H140661   5.445   0.544   1.745  0.5056  0.1808 -0.1390
 6342TIP3    H240662   5.453   0.631   1.869 -0.9463 -0.5478  0.4992
 6343TIP3   OH240663   5.614   5.933   8.158 -0.4777 -0.5712  0.7354
 6343TIP3    H140664   5.675   5.865   8.187  0.2263 -0.1073  0.3712
 6343TIP3    H240665   5.667   6.013   8.156 -1.4647  0.1547  1.8936
 6344TIP3   OH240666   4.767   6.119   1.566  0.2591  0.1421 -0.0387
 6344TIP3    H140667   4.704   6.095   1.498  0.8796 -0.1314 -0.5226
 6344TIP3    H240668   4.751   6.212   1.582  0.1750  0.2295 -0.6253
 6345TIP3   OH240669   6.510   3.869   2.226  0.4286  0.4205 -0.1997
 6345TIP3    H140670   6.460   3.788   2.238  2.3859 -1.0394 -1.3475
 6345TIP3    H240671   6.558   3.879   2.309 -1.0982  1.4336  0.6224
 6346TIP3   OH240672   0.244   2.199   7.354  0.4307  0.3526 -0.7932
 6346TIP3    H140673   0.275   2.153   7.276  1.3017 -0.2571 -0.1176
 6346TIP3    H240674   0.323   2.239   7.391  0.5985 -1.6277  1.2363
 6347TIP3   OH240675   2.923   6.757   7.564  0.8900 -0.2135  0.3138
 6347TIP3    H140676   2.900   6.669   7.532 -0.2024  0.1566  0.0375
 6347TIP3    H240677   2.995   6.785   7.507 -0.4501  0.0847 -1.3054
 6348TIP3   OH240678   2.664   2.893   1.123 -0.5250 -0.1019  0.5678
 6348TIP3    H140679   2.668   2.930   1.034 -0.1487  0.1351  0.6820
 6348TIP3    H240680   2.574   2.860   1.131 -0.2384 -1.1389 -0.3057
 6349TIP3   OH240681   3.430   3.368   7.469 -0.3001 -0.3145 -0.4224
 6349TIP3    H140682   3.347   3.351   7.425 -0.3561 -3.2749  0.5788
 6349TIP3    H240683   3.477   3.285   7.464  1.9486  0.8327  0.4093
 6350TIP3   OH240684   5.254   4.303   8.195 -0.0648  0.9995 -0.1994
 6350TIP3    H140685   5.256   4.254   8.113 -2.6596  0.3732  0.0275
 6350TIP3    H240686   5.250   4.395   8.167  0.4422  0.8663 -0.7315
 6351TIP3   OH240687   5.427   4.326   0.892 -0.1250 -0.5174  0.9317
 6351TIP3    H140688   5.487   4.389   0.852 -0.9265 -0.3701 -0.0754
 6351TIP3    H240689   5.343   4.344   0.852 -0.8450 -0.7948  2.2457
 6352TIP3   OH240690   6.735   5.433   2.489 -0.3831 -1.0264 -0.1451
 6352TIP3    H140691   6.694   5.348   2.509  0.6969 -1.3066  0.9803
 6352TIP3    H240692   6.806   5.441   2.552  0.7801 -0.1708 -1.5076
 6353TIP3   OH240693   2.804   6.249   7.725  0.1395  0.8742 -0.3413
 6353TIP3    H140694   2.827   6.235   7.816 -0.4249 -0.9669 -0.4544
 6353TIP3    H240695   2.794   6.162   7.688  0.7505  1.5598 -2.2879
 6354TIP3   OH240696   0.044   5.106   2.985 -0.1095  0.3355 -0.5000
 6354TIP3    H140697  -0.010   5.182   2.965 -1.9362 -0.9954 -0.9299
 6354TIP3    H240698   0.085   5.127   3.069 -1.8938  1.1313  0.2196
 6355TIP3   OH240699   2.822   2.956   2.397  0.0199  0.2356 -0.4869
 6355TIP3    H140700   2.819   2.861   2.383  1.5650 -0.0532  0.7875
 6355TIP3    H240701   2.839   2.992   2.311  0.9698 -0.7856 -0.7511
 6356TIP3   OH240702   2.612   4.520   7.457 -0.8401  0.0014  0.0328
 6356TIP3    H140703   2.611   4.567   7.373  0.0877  0.0054  0.0127
 6356TIP3    H240704   2.543   4.454   7.448 -0.0659 -0.6839 -1.1498
 6357TIP3   OH240705   6.057   1.947   1.393 -0.2997  0.2384 -0.1774
 6357TIP3    H140706   6.040   1.963   1.486  0.3360 -0.7143  0.1137
 6357TIP3    H240707   6.032   2.029   1.350 -1.9355  0.2313  0.6560
 6358TIP3   OH240708   5.398   6.837   8.253 -0.1757 -0.5161 -0.1514
 6358TIP3    H140709   5.376   6.803   8.166  0.3208  1.0890 -0.9311
 6358TIP3    H240710   5.494   6.831   8.258 -0.2217 -0.9079  0.4318
 6359TIP3   OH240711   6.509   0.971   1.549 -0.5751 -0.2246 -0.0720
 6359TIP3    H140712   6.594   0.928   1.559 -0.3244  0.4888  0.9732
 6359TIP3    H240713   6.468   0.925   1.476  1.8678  1.3098 -2.6053
 6360TIP3   OH240714   3.788   3.150   1.136 -0.0280 -0.0169  0.3839
 6360TIP3    H140715   3.703   3.134   1.095  0.3864 -1.1653 -0.0593
 6360TIP3    H240716   3.820   3.230   1.095 -0.5038 -0.0719 -0.1015
 6361TIP3   OH240717   4.145   4.883   0.600 -0.4883  0.7506 -0.0673
 6361TIP3    H140718   4.190   4.814   0.651 -1.6947  0.0237  0.0484
 6361TIP3    H240719   4.182   4.965   0.634  1.7105  0.1694 -0.9005
 6362TIP3   OH240720   6.780   3.719   7.561 -0.2447 -0.0952  0.2416
 6362TIP3    H140721   6.872   3.727   7.534 -0.4420  0.2723 -0.3457
 6362TIP3    H240722   6.730   3.751   7.485 -0.8341  0.5545  0.8880
 6363TIP3   OH240723   5.654   6.181   0.239  0.3627 -0.2593 -0.1398
 6363TIP3    H140724   5.660   6.086   0.248  1.7130 -0.0327  2.1209
 6363TIP3    H240725   5.712   6.201   0.165  1.0543 -1.1054  0.1540
 6364TIP3   OH240726   0.002   3.088   8.434  0.0412 -0.2152 -1.3253
 6364TIP3    H140727   0.043   3.173   8.418  1.5672 -0.8983 -1.2717
 6364TIP3    H240728   0.068   3.025   8.406 -1.1110 -1.3838 -1.4685
 6365TIP3   OH240729   5.319   1.994   3.347 -0.5281  0.2126  0.8439
 6365TIP3    H140730   5.228   1.964   3.352  0.1054 -1.9327  0.6365
 6365TIP3    H240731   5.328   2.056   3.419 -1.3148 -2.1449  3.1404
 6366TIP3   OH240732   5.208   1.950   2.491  0.8727 -0.5302  0.4653
 6366TIP3    H140733   5.270   2.021   2.473  3.9778 -3.3666 -1.3756
 6366TIP3    H240734   5.187   1.915   2.405 -1.8576 -0.9175  1.2173
 6367TIP3   OH240735   3.490   1.353   0.800 -0.4644  0.2544 -0.0165
 6367TIP3    H140736   3.521   1.267   0.774 -0.4125 -0.2420  1.6077
 6367TIP3    H240737   3.424   1.375   0.733  2.0636  0.6334 -2.5922
 6368TIP3   OH240738   6.395   1.149   8.204 -0.4907  0.2345  0.5021
 6368TIP3    H140739   6.349   1.215   8.152 -1.5737  0.3092  1.5241
 6368TIP3    H240740   6.336   1.073   8.203  0.1391 -0.2684  0.4542
 6369TIP3   OH240741   5.620   0.572   2.497 -0.3069 -0.2764  0.1574
 6369TIP3    H140742   5.625   0.667   2.503 -1.6610  0.1074 -2.7711
 6369TIP3    H240743   5.711   0.543   2.489  0.1527  0.6691  1.6447
 6370TIP3   OH240744   1.673   0.216   8.057  0.7458  0.0375  0.1686
 6370TIP3    H140745   1.742   0.194   7.993  0.7196 -3.4906  1.1225
 6370TIP3    H240746   1.720   0.261   8.127  1.6317 -0.1755 -0.2627
 6371TIP3   OH240747   0.816   6.809   2.103  0.0909  0.0659  0.2365
 6371TIP3    H140748   0.789   6.771   2.186 -1.6999 -0.5689 -0.5954
 6371TIP3    H240749   0.868   6.886   2.128  1.4201 -1.3022  1.9175
 6372TIP3   OH240750   6.008   4.403   1.781  0.3046  0.2684 -0.0977
 6372TIP3    H140751   6.063   4.360   1.715  0.4745 -1.5918  1.1563
 6372TIP3    H240752   5.961   4.331   1.823 -0.2309  1.4411  1.4057
 6373TIP3   OH240753   5.974   1.974   2.548  0.0940  0.5737  0.5304
 6373TIP3    H140754   6.058   2.004   2.581 -1.0922  1.1988  3.2046
 6373TIP3    H240755   5.940   2.048   2.497  0.9894  0.4224 -0.3142
 6374TIP3   OH240756   0.350   3.625   8.458  0.2075 -0.6186 -0.1753
 6374TIP3    H140757   0.418   3.586   8.403 -0.5252 -0.3056 -1.3474
 6374TIP3    H240758   0.284   3.655   8.395  0.2294  1.4892  0.7505
 6375TIP3   OH240759   5.027   3.187   2.550  0.7448  0.2258  0.6360
 6375TIP3    H140760   5.072   3.264   2.584  1.2263  0.1314  0.2254
 6375TIP3    H240761   4.990   3.215   2.466  0.5044  0.1515  0.7179
 6376TIP3   OH240762   4.603   4.974   2.143 -0.1015  0.1450 -0.3551
 6376TIP3    H140763   4.652   4.965   2.061 -1.6217 -1.0169 -1.1942
 6376TIP3    H240764   4.551   5.053   2.131 -1.2472 -0.6792 -1.0762
 6377TIP3   OH240765   1.563   0.755   0.778 -0.2142  0.4646 -0.2212
 6377TIP3    H140766   1.617   0.778   0.702  2.1419 -0.5016  1.0695
 6377TIP3    H240767   1.543   0.662   0.765  1.0465  0.0316  0.7903
 6378TIP3   OH240768   5.778   3.273   1.117  0.1666 -0.0605 -1.0420
 6378TIP3    H140769   5.783   3.267   1.212  1.5997  0.8536 -1.0307
 6378TIP3    H240770   5.788   3.366   1.098 -0.9616 -0.1224 -2.0636
 6379TIP3   OH240771   2.912   1.097   1.710  0.1644  0.1579 -0.1792
 6379TIP3    H140772   2.947   1.157   1.775 -1.3251  1.7202 -0.7531
 6379TIP3    H240773   2.840   1.052   1.755 -1.1632  1.5677 -0.8164
 6380TIP3   OH240774   3.307   4.158   6.720 -0.4758 -0.3824  0.0387
 6380TIP3    H140775   3.365   4.227   6.690 -1.9583  0.6344 -0.6069
 6380TIP3    H240776   3.364   4.082   6.735  1.0043  0.6279 -0.3773
 6381TIP3   OH240777   6.655   5.786   2.595 -0.4099 -0.2549 -1.0348
 6381TIP3    H140778   6.668   5.696   2.626  0.4099 -0.3298 -1.5535
 6381TIP3    H240779   6.677   5.841   2.670  2.6417 -0.3932 -1.6842
 6382TIP3   OH240780   1.240   6.111   2.094 -0.0046 -0.2451 -0.5022
 6382TIP3    H140781   1.235   6.144   2.004  0.8312  1.5467  0.0668
 6382TIP3    H240782   1.305   6.167   2.136  0.2043 -1.5742  1.0176
 6383TIP3   OH240783   5.510   5.825   1.806  0.1242  0.0520 -0.0389
 6383TIP3    H140784   5.592   5.858   1.771 -0.1464 -0.6238 -1.3881
 6383TIP3    H240785   5.523   5.731   1.814  0.3753  0.2322  2.3250
 6384TIP3   OH240786   1.988   0.928   0.639 -1.1436 -0.0690 -0.0342
 6384TIP3    H140787   2.008   1.020   0.619  0.6988 -0.4616 -0.1680
 6384TIP3    H240788   2.068   0.881   0.617 -1.4997 -1.5101  1.5682
 6385TIP3   OH240789   6.271   1.406   1.535  0.0135 -0.1259  0.0284
 6385TIP3    H140790   6.360   1.401   1.499 -0.0724 -0.8788 -0.1135
 6385TIP3    H240791   6.244   1.497   1.522 -0.3730 -0.5234 -2.7378
 6386TIP3   OH240792   1.305   1.045   1.925 -0.0287 -1.2073 -0.4421
 6386TIP3    H140793   1.299   0.969   1.983 -1.2451 -0.4980  0.4053
 6386TIP3    H240794   1.215   1.065   1.901  0.2821 -0.1732 -0.8308
 6387TIP3   OH240795   4.564   2.765   7.557  0.3249  0.6340 -0.7962
 6387TIP3    H140796   4.637   2.704   7.548 -0.1466  0.1487 -1.4125
 6387TIP3    H240797   4.518   2.736   7.635  0.8366  1.0024 -0.3465
 6388TIP3   OH240798   5.163   3.265   1.474 -0.2752  0.4110  0.5408
 6388TIP3    H140799   5.070   3.252   1.493 -0.5452 -1.7631 -1.7601
 6388TIP3    H240800   5.197   3.177   1.455  2.1580  1.1949  0.8746
 6389TIP3   OH240801   5.629   4.215   8.196 -0.3137  0.0014  0.1216
 6389TIP3    H140802   5.689   4.151   8.234  0.3493  0.9486  0.7143
 6389TIP3    H240803   5.682   4.261   8.131 -0.5421  0.5017  0.2837
 6390TIP3   OH240804   4.364   1.518   7.816 -0.1934  0.2351  0.3568
 6390TIP3    H140805   4.455   1.501   7.842  0.1013 -1.7523 -1.7003
 6390TIP3    H240806   4.371   1.572   7.738 -0.9291  2.2324  1.5952
 6391TIP3   OH240807   5.079   5.143   2.238 -0.2285  0.5140  0.1208
 6391TIP3    H140808   5.021   5.080   2.196 -3.3297  0.9062  3.3672
 6391TIP3    H240809   5.079   5.219   2.180 -1.0221 -0.3978 -1.1147
 6392TIP3   OH240810   1.034   1.391   2.735 -0.2132 -0.0441  0.0011
 6392TIP3    H140811   1.055   1.426   2.821 -1.2344  0.3896  0.0954
 6392TIP3    H240812   0.991   1.308   2.753 -0.3945  0.0301 -0.0830
 6393TIP3   OH240813   0.516   0.970   8.107 -0.4231  0.3488 -0.3983
 6393TIP3    H140814   0.450   1.014   8.053 -2.0163 -0.9522  0.3855
 6393TIP3    H240815   0.528   1.029   8.182 -1.3914  0.1891 -0.1021
 6394TIP3   OH240816   3.291   2.526   0.610  0.3262 -0.1386  0.0474
 6394TIP3    H140817   3.382   2.533   0.638  0.1175  0.9890  0.4851
 6394TIP3    H240818   3.290   2.450   0.551  1.3313 -0.8025  0.8518
 6395TIP3   OH240819   0.729   5.421   1.733 -0.4785  0.1497  0.0232
 6395TIP3    H140820   0.771   5.505   1.714 -0.3987 -0.1861 -1.4444
 6395TIP3    H240821   0.771   5.360   1.672 -1.1622 -0.7674  0.4611
 6396TIP3   OH240822   0.975   3.452   8.011 -0.8210  0.2234 -0.0066
 6396TIP3    H140823   0.976   3.509   7.934 -3.3819 -0.1505 -0.4070
 6396TIP3    H240824   0.905   3.389   7.993 -0.9363 -0.3903  2.2854
 6397TIP3   OH240825   0.043   0.853   0.475 -0.0968 -0.1918  0.4073
 6397TIP3    H140826   0.058   0.944   0.450  0.6367 -0.3453  0.2626
 6397TIP3    H240827  -0.012   0.858   0.554  1.2759  0.4412  1.3759
 6398TIP3   OH240828   0.688   6.805   1.024  0.2817 -0.6449 -0.3127
 6398TIP3    H140829   0.732   6.844   0.949  0.6557 -0.0914  0.1816
 6398TIP3    H240830   0.724   6.852   1.100 -1.2011 -0.1161  0.1042
 6399TIP3   OH240831   6.188   2.139   7.808 -0.1185 -0.8430 -0.2224
 6399TIP3    H140832   6.228   2.153   7.722  0.8193 -1.2928  0.1253
 6399TIP3    H240833   6.167   2.045   7.810  0.7921 -1.0477  0.4073
 6400TIP3   OH240834   4.470   6.028   2.207  0.4934  0.3418  0.3532
 6400TIP3    H140835   4.428   6.033   2.293 -3.6482  0.6169 -1.4529
 6400TIP3    H240836   4.489   6.119   2.185 -1.8683  0.7006 -0.4294
 6401TIP3   OH240837   4.771   2.018   1.064 -0.3162 -0.3197 -0.1833
 6401TIP3    H140838   4.764   2.114   1.066 -1.4702 -0.3378 -1.7557
 6401TIP3    H240839   4.849   2.001   1.011  0.4406 -0.2815  0.8703
 6402TIP3   OH240840   4.879   0.573   1.365  0.3328  0.3122 -0.2580
 6402TIP3    H140841   4.920   0.521   1.434  0.8215 -0.5235 -1.1468
 6402TIP3    H240842   4.832   0.509   1.312 -0.6549  1.0361 -0.2886
 6403TIP3   OH240843   3.308   6.400   1.133  0.1335 -0.0703  0.0952
 6403TIP3    H140844   3.301   6.447   1.050 -0.1237  0.8010  0.5955
 6403TIP3    H240845   3.233   6.341   1.133 -0.0861  0.2018 -0.1252
 6404TIP3   OH240846   4.532   2.272   2.579 -0.2696  0.6605 -0.5248
 6404TIP3    H140847   4.515   2.352   2.629  2.2188  0.1202  1.3952
 6404TIP3    H240848   4.576   2.301   2.500  0.7683  1.2278  0.2393
 6405TIP3   OH240849   3.024   6.327   0.297 -0.9079 -0.4140 -0.1765
 6405TIP3    H140850   2.957   6.287   0.352 -0.4618 -1.0772 -0.1037
 6405TIP3    H240851   3.068   6.254   0.255  1.3822 -0.2094  1.6334
 6406TIP3   OH240852   3.673   0.418   0.490 -0.4739  0.2366  0.1095
 6406TIP3    H140853   3.674   0.404   0.585 -0.8978  0.0671  0.0936
 6406TIP3    H240854   3.596   0.474   0.475 -0.7272 -0.1816 -0.1869
 6407TIP3   OH240855   6.652   1.336   0.030 -0.3659 -0.1188 -0.0005
 6407TIP3    H140856   6.578   1.280   0.052 -0.0458 -0.2033  0.9009
 6407TIP3    H240857   6.620   1.391  -0.042 -0.1215 -2.6619 -2.2510
 6408TIP3   OH240858   0.353   1.713   3.035 -0.0038  0.4028  0.2875
 6408TIP3    H140859   0.296   1.742   3.106 -0.1414 -0.4434  0.5381
 6408TIP3    H240860   0.408   1.789   3.015  1.0345  0.2334  2.2692
 6409TIP3   OH240861   5.255   0.078   1.716 -0.1481 -0.0181 -0.2951
 6409TIP3    H140862   5.165   0.058   1.745  0.0903  0.0355  0.5075
 6409TIP3    H240863   5.306   0.003   1.745  0.0338 -0.1349 -0.9216
 6410TIP3   OH240864   4.260   0.302   7.233  0.3167 -0.2900 -1.1395
 6410TIP3    H140865   4.258   0.217   7.188  0.6418 -0.6397 -0.5190
 6410TIP3    H240866   4.169   0.319   7.257  0.3773 -0.9886 -0.3373
 6411TIP3   OH240867   5.993   3.226   2.798  0.2569 -0.1101  0.2840
 6411TIP3    H140868   5.949   3.193   2.876  0.2154 -0.9597 -0.0860
 6411TIP3    H240869   6.067   3.277   2.832  0.5315 -0.8843  0.8781
 6412TIP3   OH240870   6.023   3.939   8.120 -0.0097  0.1871 -0.1787
 6412TIP3    H140871   6.001   3.888   8.042 -0.8799  0.2825  0.0004
 6412TIP3    H240872   6.069   3.878   8.177 -0.6115 -0.2644 -0.1757
 6413TIP3   OH240873   5.078   6.114   2.152  0.2653 -0.0849  0.4003
 6413TIP3    H140874   5.079   6.196   2.102  2.1251 -0.5179 -0.3669
 6413TIP3    H240875   5.105   6.139   2.240  0.9466  0.1280  0.1401
 6414TIP3   OH240876   2.973   2.402   1.531 -0.0836  0.3552 -0.0850
 6414TIP3    H140877   3.013   2.334   1.585 -0.1721  0.4689  0.1228
 6414TIP3    H240878   2.908   2.355   1.478  0.3740  0.1578 -0.4753
 6415TIP3   OH240879   6.708   2.844   7.576 -0.3157 -0.4175 -0.3634
 6415TIP3    H140880   6.646   2.916   7.566 -0.8944 -0.9469 -0.6258
 6415TIP3    H240881   6.659   2.766   7.552 -0.7138 -1.3620  3.0105
 6416TIP3   OH240882   4.675   2.003   3.006 -0.2484  0.3852 -0.0051
 6416TIP3    H140883   4.630   1.940   2.950 -1.3174  0.4954  0.6983
 6416TIP3    H240884   4.631   2.086   2.989 -0.5815  0.4227  0.9761
 6417TIP3   OH240885   0.620   4.230   8.454  0.2979  0.0281 -0.1731
 6417TIP3    H140886   0.546   4.181   8.491  0.5940 -0.0145  0.3728
 6417TIP3    H240887   0.680   4.162   8.424  1.3284 -0.0113  1.7960
 6418TIP3   OH240888   3.107   3.151   1.107  0.4595 -0.3694 -1.1228
 6418TIP3    H140889   3.042   3.100   1.155  1.1137  0.1561  0.3901
 6418TIP3    H240890   3.190   3.108   1.126  1.1609  1.6941  0.9711
 6419TIP3   OH240891   3.280   3.050   1.392  0.5601 -0.3238 -0.1018
 6419TIP3    H140892   3.314   3.084   1.475 -1.1721 -1.5432  1.1800
 6419TIP3    H240893   3.206   2.995   1.417  1.1596 -2.3297 -2.2946
 6420TIP3   OH240894   6.100   3.972   1.011  0.0567 -0.4344  0.6057
 6420TIP3    H140895   6.029   3.932   1.061  0.3666  0.5227  1.8658
 6420TIP3    H240896   6.056   4.027   0.946 -0.3668 -2.4336 -0.9273
 6421TIP3   OH240897   3.912   0.238   0.578  0.0379  0.6911  0.9500
 6421TIP3    H140898   3.905   0.314   0.519 -1.6378 -0.5354 -0.5814
 6421TIP3    H240899   3.823   0.202   0.579  0.4994 -0.4807  2.7087
 6422TIP3   OH240900   6.136   4.258   2.932  0.4378 -0.1498  0.1950
 6422TIP3    H140901   6.210   4.206   2.899 -0.7171 -0.5153 -2.0090
 6422TIP3    H240902   6.171   4.346   2.941  1.3125 -0.4353 -0.2226
 6423TIP3   OH240903   4.831   2.856   0.645 -0.8356  0.5675 -0.2140
 6423TIP3    H140904   4.844   2.918   0.716 -0.1199  0.8283 -0.5692
 6423TIP3    H240905   4.853   2.904   0.566  3.9785 -1.1752 -0.2908
 6424TIP3   OH240906   2.549   4.095   0.934  0.0723 -0.6592 -0.2386
 6424TIP3    H140907   2.552   4.016   0.881  0.2791 -0.5898 -0.3310
 6424TIP3    H240908   2.457   4.123   0.929  0.2851 -0.0783 -1.4149
 6425TIP3   OH240909   3.437   1.117   7.257 -0.1079  0.3848  0.0270
 6425TIP3    H140910   3.517   1.067   7.270 -0.7229 -0.3724  0.9916
 6425TIP3    H240911   3.383   1.062   7.199  0.0422  0.8746 -0.5902
 6426TIP3   OH240912   3.064   0.863   2.228  0.0997 -0.1739  0.0798
 6426TIP3    H140913   3.029   0.934   2.174  1.4537  0.3977 -0.0837
 6426TIP3    H240914   3.088   0.906   2.310  1.4116 -0.3132 -0.2095
 6427TIP3   OH240915   4.775   2.783   0.048  0.4159  0.8103  0.3109
 6427TIP3    H140916   4.856   2.734   0.037  0.2780 -0.2347  3.0247
 6427TIP3    H240917   4.728   2.773  -0.035  1.7796 -1.0403 -0.2912
 6428TIP3   OH240918   3.780   2.612   1.671 -0.0861 -0.0689  0.0605
 6428TIP3    H140919   3.778   2.683   1.607  1.8446  0.0591  0.0886
 6428TIP3    H240920   3.764   2.655   1.755 -0.6252  0.0647 -0.1079
 6429TIP3   OH240921   6.333   2.908   2.587  0.5747  0.2407  0.3597
 6429TIP3    H140922   6.311   2.904   2.680 -0.3533  0.3289  0.1481
 6429TIP3    H240923   6.358   2.999   2.572 -0.1567  0.4410  0.3317
 6430TIP3   OH240924   4.012   2.436   2.271  0.0364 -0.0171  0.4020
 6430TIP3    H140925   3.935   2.383   2.253 -0.0181 -0.3652  1.6019
 6430TIP3    H240926   3.979   2.511   2.321  0.3827  0.1774  0.3455
 6431TIP3   OH240927   6.022   6.553   2.477  0.1406  0.0910  0.6389
 6431TIP3    H140928   6.078   6.499   2.421  1.3682 -0.1791  2.0509
 6431TIP3    H240929   5.995   6.625   2.421  1.6333  0.0431 -0.2130
 6432TIP3   OH240930   6.323   3.828   0.747  0.1412 -0.3576  0.6664
 6432TIP3    H140931   6.275   3.753   0.710  1.4219  0.4962 -3.1582
 6432TIP3    H240932   6.269   3.904   0.726  1.8318  0.3526 -1.5194
 6433TIP3   OH240933   0.412   2.196   2.332 -0.6045  0.1580 -0.0107
 6433TIP3    H140934   0.431   2.180   2.240 -2.2957 -2.9414  0.0418
 6433TIP3    H240935   0.458   2.125   2.378  0.3326  1.7258  1.6221
 6434TIP3   OH240936   5.623   5.037   7.878 -0.8660 -0.0229 -0.0069
 6434TIP3    H140937   5.589   5.103   7.817  0.3333  1.0910  0.4744
 6434TIP3    H240938   5.608   5.074   7.965  3.4656  1.7079  0.2511
 6435TIP3   OH240939   3.899   3.362   0.876  0.2851 -0.4327  0.2651
 6435TIP3    H140940   3.949   3.379   0.955 -0.1568 -0.1745  0.4890
 6435TIP3    H240941   3.950   3.404   0.806  0.1293  0.2593  0.5618
 6436TIP3   OH240942   3.742   2.664   0.869  0.2389 -0.0521  0.0823
 6436TIP3    H140943   3.693   2.742   0.894  3.3718  2.4431 -0.8820
 6436TIP3    H240944   3.747   2.612   0.949 -0.6623  1.4961  1.2083
 6437TIP3   OH240945   3.616   2.797   7.937  0.4421 -0.5365  1.3611
 6437TIP3    H140946   3.578   2.727   7.990  0.0581 -1.0598  0.4192
 6437TIP3    H240947   3.584   2.780   7.848  1.2181  0.2165  0.9240
 6438TIP3   OH240948   4.268   5.798   1.160 -0.4474  0.0259 -0.0778
 6438TIP3    H140949   4.336   5.865   1.162 -1.0775  0.7850 -1.7253
 6438TIP3    H240950   4.278   5.756   1.074 -0.9557 -1.0486  0.3628
 6439TIP3   OH240951   4.879   2.484   7.925  0.3176  0.3048 -0.1602
 6439TIP3    H140952   4.869   2.434   7.844  0.2300  0.0478  0.0071
 6439TIP3    H240953   4.821   2.560   7.914 -2.1418 -1.3020  0.9132
 6440TIP3   OH240954   2.881   6.200   3.266  0.2262 -0.3412  0.3850
 6440TIP3    H140955   2.808   6.236   3.214  1.1155  1.6834  0.4199
 6440TIP3    H240956   2.944   6.169   3.201  0.2582 -0.0914  0.2941
 6441TIP3   OH240957   3.631   4.227   0.214  0.0225  0.4992  0.0220
 6441TIP3    H140958   3.610   4.141   0.177  1.0120 -0.2111  1.0690
 6441TIP3    H240959   3.638   4.284   0.137 -0.7933 -0.2983 -0.6821
 6442TIP3   OH240960   6.040   6.900   8.255  0.4050 -0.3117 -0.3134
 6442TIP3    H140961   6.033   6.956   8.332 -0.0680  0.5792 -0.9875
 6442TIP3    H240962   6.121   6.851   8.267 -0.1077 -0.8373  1.1645
 6443TIP3   OH240963   1.399   4.173   7.901 -0.3801 -0.1410 -0.0004
 6443TIP3    H140964   1.474   4.228   7.923 -0.6000  0.1332  0.0666
 6443TIP3    H240965   1.350   4.166   7.983  1.0777 -2.7078  0.7641
 6444TIP3   OH240966   5.506   0.900   1.438  0.3285 -0.2813 -0.4253
 6444TIP3    H140967   5.580   0.887   1.497  0.3591  2.4362  0.2662
 6444TIP3    H240968   5.538   0.871   1.353  1.3523 -1.3266  0.2765
 6445TIP3   OH240969   0.247   6.887   1.131 -0.8706  0.3951 -0.0297
 6445TIP3    H140970   0.159   6.862   1.104 -0.9884  1.3894 -0.6023
 6445TIP3    H240971   0.247   6.983   1.127  0.9053  0.3887 -2.2598
 6446TIP3   OH240972   1.161   5.557   7.565 -0.1173 -0.4461 -0.1349
 6446TIP3    H140973   1.162   5.598   7.479 -1.5605 -1.1685 -0.5136
 6446TIP3    H240974   1.248   5.576   7.601  0.7990 -0.7803 -2.0444
 6447TIP3   OH240975   6.337   5.466   7.306  0.4241  0.5821  0.4995
 6447TIP3    H140976   6.313   5.521   7.231 -0.6685  0.7169  0.9298
 6447TIP3    H240977   6.273   5.395   7.305  2.7300 -1.6325 -0.9726
 6448TIP3   OH240978   0.764   0.066   8.250 -0.2360  0.3810 -0.8829
 6448TIP3    H140979   0.738   0.045   8.161 -1.4625  0.7257 -0.6196
 6448TIP3    H240980   0.806  -0.014   8.283 -2.5332 -0.8286 -0.7402
 6449TIP3   OH240981   2.014   3.542   7.394 -0.3397 -0.2470 -0.4303
 6449TIP3    H140982   2.055   3.460   7.420  0.1860 -0.1852 -1.0415
 6449TIP3    H240983   1.979   3.526   7.307 -2.0079 -0.4214  0.2362
 6450TIP3   OH240984   0.048   0.980   0.937 -0.5669  0.3428  0.3212
 6450TIP3    H140985   0.053   1.048   0.870  1.2365  0.3148  0.3912
 6450TIP3    H240986  -0.043   0.982   0.966 -1.8447 -0.6219 -3.0954
 6451TIP3   OH240987   4.076   3.741   8.043  0.5740 -0.0453 -0.1508
 6451TIP3    H140988   4.049   3.789   8.122 -1.4599  1.2690 -1.5505
 6451TIP3    H240989   4.013   3.767   7.976  3.1033  0.1166 -2.6633
 6452TIP3   OH240990   3.036   3.801   1.121 -0.2467 -0.0847 -0.1221
 6452TIP3    H140991   3.058   3.714   1.088  1.0440  0.6513 -1.3262
 6452TIP3    H240992   3.108   3.824   1.179  0.0510  0.6678 -0.7773
 6453TIP3   OH240993   4.866   4.689   1.887 -0.2895  0.0894 -0.2041
 6453TIP3    H140994   4.932   4.620   1.890  1.1947  1.4822  0.3745
 6453TIP3    H240995   4.805   4.661   1.819  0.2809 -1.7688  0.0022
 6454TIP3   OH240996   5.377   0.369   7.520  0.1720  0.1608  0.4491
 6454TIP3    H140997   5.326   0.316   7.581 -1.9671 -0.3206 -1.6371
 6454TIP3    H240998   5.468   0.341   7.535 -0.5511 -1.7633  1.6469
 6455TIP3   OH240999   5.794   1.883   2.795 -1.2158  0.3676 -0.5052
 6455TIP3    H141000   5.810   1.962   2.848 -0.1717  0.1714 -0.4919
 6455TIP3    H241001   5.834   1.903   2.710  0.8685 -0.8481  0.1148
 6456TIP3   OH241002   1.590   2.242   2.273  0.2122 -0.7214  0.0288
 6456TIP3    H141003   1.594   2.335   2.293 -0.8112 -0.6813  0.1220
 6456TIP3    H241004   1.513   2.211   2.321  1.1796 -1.8517  0.9236
 6457TIP3   OH241005   3.933   1.428   2.327 -1.0541 -0.7307  0.5906
 6457TIP3    H141006   3.856   1.404   2.379 -0.9962 -3.0172 -0.2928
 6457TIP3    H241007   3.929   1.372   2.250  0.4619  0.5065 -0.4440
 6458TIP3   OH241008   4.842   1.749   2.132  0.2452 -0.2982  0.4189
 6458TIP3    H141009   4.871   1.816   2.071  1.3316  0.2509  1.4987
 6458TIP3    H241010   4.781   1.794   2.190  1.9047  0.1221  1.9094
 6459TIP3   OH241011   0.879   6.709   7.844  0.2184  0.3656  0.0087
 6459TIP3    H141012   0.904   6.634   7.791  0.3269 -0.2472  0.9101
 6459TIP3    H241013   0.884   6.784   7.784 -0.3139 -0.3918 -1.0118
 6460TIP3   OH241014   5.978   2.532   0.744 -0.3597 -0.4212  0.0988
 6460TIP3    H141015   6.015   2.619   0.759 -0.8785 -0.1305 -0.2788
 6460TIP3    H241016   6.025   2.500   0.667 -0.7856 -0.1078 -0.2977
 6461TIP3   OH241017   3.708   0.995   7.764 -0.2879 -0.2537  0.3057
 6461TIP3    H141018   3.637   1.021   7.705 -0.6994 -1.5191  0.2125
 6461TIP3    H241019   3.712   1.065   7.829 -1.0448  0.2599 -0.1787
 6462TIP3   OH241020   3.521   2.518   7.977 -0.0712 -0.1978  0.0832
 6462TIP3    H141021   3.453   2.456   8.004  0.2870 -0.2124  1.0132
 6462TIP3    H241022   3.593   2.502   8.038 -0.3351  1.8113  1.0186
 6463TIP3   OH241023   0.592   6.789   1.406  0.7898 -0.1367  0.0569
 6463TIP3    H141024   0.589   6.872   1.359 -0.9222  0.3234  0.8998
 6463TIP3    H241025   0.669   6.796   1.462  2.7240 -0.5946 -2.3916
 6464TIP3   OH241026   6.179   0.762   0.504 -0.0456  0.2734  0.1061
 6464TIP3    H141027   6.168   0.733   0.413 -2.3280 -0.4136  0.5195
 6464TIP3    H241028   6.192   0.681   0.553  1.7480  0.6836  0.3768
 6465TIP3   OH241029   0.970   0.185   6.997  0.4757  0.3120  0.6879
 6465TIP3    H141030   1.065   0.192   7.011  0.6119 -1.0199  0.5104
 6465TIP3    H241031   0.958   0.100   6.956 -0.7459  0.7600  0.0951
 6466TIP3   OH241032   1.720   6.912   1.515 -0.1794  0.4457 -0.3447
 6466TIP3    H141033   1.709   6.831   1.565  1.9342  0.6692  0.5804
 6466TIP3    H241034   1.716   6.884   1.423 -0.6447 -0.5141 -0.0497
 6467TIP3   OH241035   0.591   0.595   1.567 -0.3021  0.3543  0.2538
 6467TIP3    H141036   0.647   0.593   1.489 -1.4785  0.5498 -0.6263
 6467TIP3    H241037   0.607   0.511   1.610 -0.8881 -0.5162 -1.1466
 6468TIP3   OH241038   2.883   1.129   7.755 -0.7676  0.7638 -0.2841
 6468TIP3    H141039   2.890   1.052   7.811  1.9611  0.6836 -0.5732
 6468TIP3    H241040   2.856   1.199   7.814 -1.1129  0.0426  0.4374
 6469TIP3   OH241041   3.562   6.862   0.922  0.5027 -0.4375 -0.2210
 6469TIP3    H141042   3.494   6.865   0.990  0.3804 -0.2955 -0.3515
 6469TIP3    H241043   3.611   6.782   0.943  0.8851 -0.0416  0.4401
 6470TIP3   OH241044   3.604   6.510   0.277 -0.2402  0.0848 -0.0891
 6470TIP3    H141045   3.554   6.589   0.295 -1.4797 -0.3310 -1.5366
 6470TIP3    H241046   3.552   6.439   0.315 -1.2384 -0.4339 -2.2769
 6471TIP3   OH241047   0.804   2.991   7.937 -0.6406  0.0753 -0.4809
 6471TIP3    H141048   0.880   2.933   7.930 -0.3393  0.4161 -0.1259
 6471TIP3    H241049   0.747   2.965   7.865 -0.1025 -0.0662 -0.8667
 6472TIP3   OH241050   6.613   1.032   8.042  0.5259  0.3117 -0.3732
 6472TIP3    H141051   6.681   1.064   8.101  0.4846 -0.4506  0.0996
 6472TIP3    H241052   6.534   1.078   8.068  0.0758 -1.3583  1.4409
 6473TIP3   OH241053   1.354   3.230   2.558 -0.3725 -0.1174  0.2034
 6473TIP3    H141054   1.262   3.222   2.584 -0.6612  0.5700 -0.5820
 6473TIP3    H241055   1.402   3.230   2.641 -1.1376  0.3166  0.6570
 6474TIP3   OH241056   4.087   4.830   1.810 -0.5134  0.5086 -0.7813
 6474TIP3    H141057   4.059   4.921   1.823 -2.4370  0.1752 -2.1488
 6474TIP3    H241058   4.018   4.778   1.852  0.7208 -0.3462  0.2429
 6475TIP3   OH241059   3.291   6.493   7.924  0.5803  0.4686 -0.1804
 6475TIP3    H141060   3.317   6.445   7.845  1.4375  0.2949  0.1938
 6475TIP3    H241061   3.302   6.429   7.995 -1.2326  0.2798 -0.0261
 6476TIP3   OH241062   1.808   2.383   7.606 -0.0735 -0.5436  0.4019
 6476TIP3    H141063   1.794   2.344   7.519  1.9263 -0.1872 -0.1452
 6476TIP3    H241064   1.810   2.477   7.590 -2.0305 -0.3162  1.2597
 6477TIP3   OH241065   6.513   2.319   2.538 -0.0355 -0.2595 -0.1595
 6477TIP3    H141066   6.436   2.371   2.515  0.5950  0.1438 -1.4789
 6477TIP3    H241067   6.493   2.284   2.625 -1.0097  1.1400  0.2216
 6478TIP3   OH241068   5.036   6.450   0.252  0.3390 -0.2991 -0.5645
 6478TIP3    H141069   5.117   6.413   0.216 -1.6304 -4.4982 -1.2479
 6478TIP3    H241070   5.019   6.400   0.331 -0.8302  1.6236  0.4873
 6479TIP3   OH241071   4.755   0.046   7.942  0.7270  0.3189 -0.6154
 6479TIP3    H141072   4.723   0.130   7.973  1.3005  0.2225  0.2556
 6479TIP3    H241073   4.793   0.065   7.856  1.3524  1.0615 -0.1838
 6480TIP3   OH241074   6.099   1.781   1.184 -0.2067  0.0119 -0.1904
 6480TIP3    H141075   6.166   1.817   1.126 -1.9518 -0.6588 -2.8135
 6480TIP3    H241076   6.094   1.844   1.257  2.1560  0.8478 -0.6602
 6481TIP3   OH241077   4.358   0.777   6.797  0.2447 -0.1654  1.0600
 6481TIP3    H141078   4.270   0.744   6.815 -0.6583 -0.0375 -2.4273
 6481TIP3    H241079   4.363   0.859   6.846 -1.8539  0.1492  0.8393
 6482TIP3   OH241080   1.268   1.820   2.789 -0.5416  0.2008 -0.1751
 6482TIP3    H141081   1.264   1.771   2.871 -0.5461 -0.7391 -0.7190
 6482TIP3    H241082   1.206   1.892   2.801  0.2279  0.6937  1.0195
 6483TIP3   OH241083   3.751   5.433   1.758  0.2321  0.3371  0.0476
 6483TIP3    H141084   3.844   5.439   1.737 -0.1241  0.5844 -1.5401
 6483TIP3    H241085   3.738   5.503   1.823  1.2162  0.0117  0.6311
 6484TIP3   OH241086   3.331   2.270   1.870  0.3881  0.1537  0.0668
 6484TIP3    H141087   3.415   2.226   1.858  1.3693  2.0430 -0.4531
 6484TIP3    H241088   3.354   2.363   1.878 -1.6506  0.7078 -0.0146
 6485TIP3   OH241089   4.609   2.990   1.013  0.1794  0.0792 -0.5492
 6485TIP3    H141090   4.628   2.934   1.088 -0.9492 -0.3305 -0.5418
 6485TIP3    H241091   4.598   2.929   0.940  1.1428  0.4647 -1.0354
 6486TIP3   OH241092   5.407   2.676   6.974  0.3325  0.3806  0.4244
 6486TIP3    H141093   5.396   2.769   6.994  0.4608  0.6331 -0.5953
 6486TIP3    H241094   5.469   2.674   6.901 -0.3824 -0.4354 -0.1935
 6487TIP3   OH241095   0.232   3.666   1.160 -0.2213 -0.6974  0.6841
 6487TIP3    H141096   0.253   3.696   1.072 -2.6126 -2.9625 -0.7930
 6487TIP3    H241097   0.318   3.651   1.201  0.9997 -0.8643 -1.7313
 6488TIP3   OH241098   5.306   3.456   2.363 -0.0874  0.4656 -0.5828
 6488TIP3    H141099   5.312   3.372   2.318 -0.2423 -0.7291  1.5125
 6488TIP3    H241100   5.264   3.514   2.299  0.3503 -0.9262 -2.2047
 6489TIP3   OH241101   6.348   0.762   1.891 -0.4069  0.3219 -0.5893
 6489TIP3    H141102   6.373   0.695   1.827 -0.0942 -0.3342  0.1922
 6489TIP3    H241103   6.384   0.843   1.857  2.0260 -0.4165  0.0029
 6490TIP3   OH241104   4.520   5.310   1.970 -0.6823 -0.4086 -0.0371
 6490TIP3    H141105   4.523   5.401   1.941  0.1389 -0.5260 -0.3336
 6490TIP3    H241106   4.456   5.269   1.912  1.0759 -0.6879 -1.8912
 6491TIP3   OH241107   0.838   2.524   8.427  0.0227  0.5656 -0.0214
 6491TIP3    H141108   0.867   2.608   8.390  0.8457  0.4262  0.3106
 6491TIP3    H241109   0.747   2.515   8.396 -0.3770  1.9932  0.6580
 6492TIP3   OH241110   0.847   1.964   2.967 -0.7611  0.3912 -0.1364
 6492TIP3    H141111   0.844   2.047   3.014 -2.3698 -0.2367  0.9644
 6492TIP3    H241112   0.914   1.913   3.011 -0.6048  0.6647 -0.0549
 6493TIP3   OH241113   3.860   6.538   0.136  0.3128  0.4316 -0.3185
 6493TIP3    H141114   3.771   6.534   0.170  0.2804  0.0773 -0.4429
 6493TIP3    H241115   3.864   6.468   0.071  0.6430  0.5310 -0.4080
 6494TIP3   OH241116   5.210   4.868   1.738 -0.0839  0.0638 -0.2706
 6494TIP3    H141117   5.192   4.784   1.695  0.4789 -0.0396 -0.3115
 6494TIP3    H241118   5.267   4.845   1.811  0.1120  0.4214 -0.3116
 6495TIP3   OH241119   6.614   5.474   7.247 -0.2090  0.5288 -0.0630
 6495TIP3    H141120   6.626   5.383   7.222  0.1991  0.8940 -1.2669
 6495TIP3    H241121   6.520   5.483   7.263 -0.5524  0.3455 -1.8342
 6496TIP3   OH241122   0.126   6.552   6.423  0.7626 -0.4664 -0.1005
 6496TIP3    H141123   0.052   6.611   6.437 -0.8530 -2.3509 -0.2727
 6496TIP3    H241124   0.200   6.598   6.463 -0.7222  0.9481  1.2239
 6497TIP3   OH241125   3.089   3.387   2.827  0.0312 -0.4236  0.2456
 6497TIP3    H141126   3.111   3.423   2.912  1.6255 -3.4477  1.2661
 6497TIP3    H241127   3.166   3.405   2.772  0.0138 -0.5546  0.1766
 6498TIP3   OH241128   5.227   3.138   7.616 -0.6765 -0.2467  0.4925
 6498TIP3    H141129   5.134   3.127   7.598 -0.1692 -1.7476 -1.6725
 6498TIP3    H241130   5.264   3.051   7.602  1.3337  0.7287 -0.6712
 6499TIP3   OH241131   1.244   1.213   3.215  0.4481  0.1098 -0.3990
 6499TIP3    H141132   1.157   1.205   3.177  0.7327 -0.6205 -0.9360
 6499TIP3    H241133   1.286   1.283   3.165  0.9214 -1.0403 -1.7013
 6500TIP3   OH241134   5.341   5.829   0.559 -0.3218  0.1694 -0.2384
 6500TIP3    H141135   5.325   5.799   0.649 -3.5385  1.7005 -0.1518
 6500TIP3    H241136   5.296   5.765   0.504 -1.2554  1.0093 -0.4870
 6501TIP3   OH241137   1.534   0.979   8.295  0.1496  0.2924 -0.3708
 6501TIP3    H141138   1.447   0.946   8.316  0.2101  1.0182  1.1598
 6501TIP3    H241139   1.520   1.037   8.219 -0.5341 -0.3241 -0.7240
 6502TIP3   OH241140   4.699   2.631   8.261  0.7758  0.5828  0.7196
 6502TIP3    H141141   4.755   2.554   8.267  0.4912  0.1742 -1.2134
 6502TIP3    H241142   4.758   2.703   8.239  1.2918  1.3475  4.0722
 6503TIP3   OH241143   1.444   1.875   0.596 -0.3677  0.7846 -0.0495
 6503TIP3    H141144   1.524   1.901   0.643  0.6714 -0.1420 -1.2170
 6503TIP3    H241145   1.384   1.947   0.610  0.0404  0.7644  2.2896
 6504TIP3   OH241146   3.960   0.531   1.362 -0.1693 -0.2767  0.2064
 6504TIP3    H141147   3.931   0.609   1.409  0.4487 -0.1122  0.3211
 6504TIP3    H241148   4.052   0.521   1.386 -0.0209 -0.5670 -0.4546
 6505TIP3   OH241149   5.421   0.929   6.971 -0.2056 -0.1355  0.1166
 6505TIP3    H141150   5.465   0.967   6.895  1.4240  1.6576  1.8190
 6505TIP3    H241151   5.365   0.999   7.003 -0.6015 -0.7398  0.7581
 6506TIP3   OH241152   0.450   2.908   8.169  0.1836  0.0531 -0.8334
 6506TIP3    H141153   0.429   2.929   8.078  0.3921  1.7142 -0.5370
 6506TIP3    H241154   0.489   2.989   8.203  1.3577 -0.9774  0.3518
 6507TIP3   OH241155   3.002   1.031   0.835 -0.6938 -0.3756 -0.1112
 6507TIP3    H141156   2.909   1.031   0.811 -0.7338  0.1376  0.0371
 6507TIP3    H241157   3.046   1.069   0.759 -0.7209  0.3649  0.2345
 6508TIP3   OH241158   3.797   5.312   7.336  0.3290 -0.1241  0.2120
 6508TIP3    H141159   3.806   5.407   7.326  1.8726 -0.1157  1.3933
 6508TIP3    H241160   3.776   5.281   7.248 -0.8552  1.3587 -0.0719
 6509TIP3   OH241161   6.056   3.157   0.254 -0.1097 -0.1935 -0.1490
 6509TIP3    H141162   6.055   3.063   0.235  0.6288 -0.0741 -0.8448
 6509TIP3    H241163   5.967   3.186   0.235 -0.4921 -0.8529  0.6109
 6510TIP3   OH241164   2.342   6.574   3.069 -0.3338 -0.4216 -0.1895
 6510TIP3    H141165   2.392   6.498   3.037 -0.4575 -0.9937  0.9108
 6510TIP3    H241166   2.408   6.641   3.086 -0.2495 -0.1762 -1.4292
 6511TIP3   OH241167   1.305   2.411   2.816 -0.2637  0.2296 -0.2245
 6511TIP3    H141168   1.281   2.499   2.844  2.6614  1.3453 -0.8792
 6511TIP3    H241169   1.328   2.365   2.896  1.2605  1.1290 -0.1160
 6512TIP3   OH241170   2.518   6.441   1.492  0.4292  0.0580 -0.1044
 6512TIP3    H141171   2.480   6.517   1.447  0.2082 -0.2843 -0.5048
 6512TIP3    H241172   2.518   6.372   1.426  1.8335  0.0645 -0.1416
 6513TIP3   OH241173   4.287   4.378   7.997 -0.2869 -0.0123 -0.2959
 6513TIP3    H141174   4.382   4.390   7.993 -0.1130 -1.5358 -1.4368
 6513TIP3    H241175   4.269   4.300   7.944 -2.1604  0.1074  0.0610
 6514TIP3   OH241176   4.066   1.781   2.334  0.1984  0.0325 -0.3772
 6514TIP3    H141177   4.153   1.746   2.354 -0.4380  0.2162  3.2829
 6514TIP3    H241178   4.079   1.876   2.328 -0.1215  0.5218  3.8958
 6515TIP3   OH241179   3.409   0.326   1.975  0.5296 -0.0909  0.3426
 6515TIP3    H141180   3.323   0.323   2.017  0.4846 -0.6241  0.2169
 6515TIP3    H241181   3.412   0.247   1.921  0.1401  1.1129 -1.5423
 6516TIP3   OH241182   4.318   3.023   7.412  0.1174  0.4566  0.2455
 6516TIP3    H141183   4.329   3.051   7.321 -0.4390 -1.3864 -0.4334
 6516TIP3    H241184   4.378   3.079   7.461  3.0858 -0.7448 -1.6870
 6517TIP3   OH241185   0.379   1.066   0.656  0.0999  0.0328 -0.0872
 6517TIP3    H141186   0.443   1.003   0.689  0.5823  0.4940 -0.1337
 6517TIP3    H241187   0.423   1.151   0.662 -1.4978  0.7678  2.5426
 6518TIP3   OH241188   6.176   6.341   0.298  0.0860 -0.4554  0.2361
 6518TIP3    H141189   6.270   6.347   0.280  0.0856  2.8878  0.7275
 6518TIP3    H241190   6.161   6.247   0.314  4.1136 -0.7633  4.2529
 6519TIP3   OH241191   5.339   5.415   2.228 -0.0831  0.4821 -0.8027
 6519TIP3    H141192   5.295   5.354   2.169  1.2828 -1.2037 -0.1631
 6519TIP3    H241193   5.268   5.468   2.265 -1.2483 -0.2899 -1.8492
 6520TIP3   OH241194   6.067   2.319   1.197 -0.7296  0.3066 -0.3095
 6520TIP3    H141195   6.013   2.338   1.120 -0.7241 -0.2891 -0.4648
 6520TIP3    H241196   6.141   2.269   1.163 -1.3431 -1.0256  0.2440
 6521TIP3   OH241197   6.624   0.143   1.245 -0.3738 -0.0313  0.3737
 6521TIP3    H141198   6.702   0.094   1.217 -0.5579 -0.6184  0.8681
 6521TIP3    H241199   6.557   0.075   1.259 -0.6341  0.3630  1.0617
 6522TIP3   OH241200   1.546   6.029   1.288  0.0437 -0.1436  0.2069
 6522TIP3    H141201   1.566   6.069   1.373  0.7689  1.4469 -0.6676
 6522TIP3    H241202   1.458   5.992   1.300 -1.5019  3.2741  0.6346
 6523TIP3   OH241203   0.121   5.965   6.845 -0.5281 -0.0129  0.2997
 6523TIP3    H141204   0.156   6.023   6.912  1.1245 -0.5476 -0.0501
 6523TIP3    H241205   0.073   5.898   6.895  0.5961 -0.3512  0.9671
 6524TIP3   OH241206   0.169   1.742   1.634 -0.8217 -0.0596 -0.7905
 6524TIP3    H141207   0.099   1.773   1.577  0.0767  0.6781 -1.5371
 6524TIP3    H241208   0.124   1.704   1.709 -2.0018  0.9060 -0.9729
 6525TIP3   OH241209   3.710   3.841   3.023 -0.0855 -0.2609  0.2817
 6525TIP3    H141210   3.731   3.774   2.958  0.8282  0.0281  0.2600
 6525TIP3    H241211   3.631   3.809   3.066 -0.4226 -0.6963 -0.6391
 6526TIP3   OH241212   4.908   4.936   1.636 -0.4364  0.3967 -0.9183
 6526TIP3    H141213   4.967   5.005   1.605 -0.1741 -0.1320 -1.6323
 6526TIP3    H241214   4.966   4.861   1.654 -0.8842 -0.1609 -1.7233
 6527TIP3   OH241215   1.891   4.117   2.164  0.5393 -0.3526 -0.4563
 6527TIP3    H141216   1.928   4.187   2.110 -0.8890  1.9957  1.3868
 6527TIP3    H241217   1.805   4.099   2.124  1.1757 -1.6314 -1.3278
 6528TIP3   OH241218   2.940   4.746   2.606  0.0606 -0.7697  0.1250
 6528TIP3    H141219   2.916   4.695   2.683 -0.5526  0.4018  0.7462
 6528TIP3    H241220   3.012   4.802   2.636  1.2147 -1.7347 -0.7420
 6529TIP3   OH241221   2.361   1.091   2.175 -0.1736 -0.3510  0.2914
 6529TIP3    H141222   2.371   1.081   2.081 -0.7403  0.7107  0.1025
 6529TIP3    H241223   2.449   1.076   2.210 -0.4554 -3.3997 -0.1071
 6530TIP3   OH241224   2.031   3.266   1.094  0.2646  0.0699 -0.4147
 6530TIP3    H141225   2.116   3.228   1.072  0.2573 -1.2580  1.5552
 6530TIP3    H241226   1.997   3.210   1.164 -2.6503  0.0074 -1.7186
 6531TIP3   OH241227   4.821   3.575   1.421 -0.1029  0.2735 -0.1740
 6531TIP3    H141228   4.848   3.662   1.394  3.3084 -0.2821  0.9725
 6531TIP3    H241229   4.784   3.536   1.342  1.3342  1.6678 -1.6225
 6532TIP3   OH241230   2.737   2.978   7.540  0.2064  0.0372  0.0949
 6532TIP3    H141231   2.833   2.986   7.543  0.2306  0.4175 -1.2066
 6532TIP3    H241232   2.713   2.950   7.628  1.6597 -1.7774 -0.0313
 6533TIP3   OH241233   2.685   0.473   0.281  0.4091  0.2391 -0.3863
 6533TIP3    H141234   2.680   0.513   0.367  0.9896 -0.5472  0.0156
 6533TIP3    H241235   2.633   0.532   0.225  3.3850  3.1182 -0.4534
 6534TIP3   OH241236   1.401   4.379   6.985 -0.5901 -0.5759 -0.2468
 6534TIP3    H141237   1.440   4.310   7.039 -2.1416 -0.2505  1.4236
 6534TIP3    H241238   1.437   4.460   7.020 -0.0629 -0.4451 -1.0755
 6535TIP3   OH241239   6.107   6.244   8.056 -0.0956 -0.3583  0.4680
 6535TIP3    H141240   6.197   6.270   8.072  0.7195 -2.5026 -0.2152
 6535TIP3    H241241   6.054   6.308   8.103  1.7160  1.6147 -0.0196
 6536TIP3   OH241242   2.756   4.245   1.838 -0.1040 -0.2272  0.5204
 6536TIP3    H141243   2.705   4.269   1.761 -0.6809  1.0528  1.2928
 6536TIP3    H241244   2.751   4.149   1.841 -0.6292 -0.2482 -0.6353
 6537TIP3   OH241245   0.587   6.414   1.476 -0.1921  0.2942  0.7686
 6537TIP3    H141246   0.633   6.475   1.532 -0.6845 -0.0934  1.6213
 6537TIP3    H241247   0.655   6.356   1.441  0.0846  0.3782  1.1725
 6538TIP3   OH241248   3.605   5.492   0.016  0.0378 -0.1905  0.1382
 6538TIP3    H141249   3.515   5.524   0.023  0.4890  1.6489 -1.4520
 6538TIP3    H241250   3.653   5.541   0.083 -0.0229 -0.7160  0.5709
 6539TIP3   OH241251   1.698   6.734   8.468  0.4022 -0.3697  0.2890
 6539TIP3    H141252   1.771   6.755   8.526  0.2996 -1.1118  0.6947
 6539TIP3    H241253   1.730   6.661   8.414  0.3293 -0.0012 -0.2648
 6540TIP3   OH241254   6.403   6.831   2.489  0.0022  0.3397  0.0945
 6540TIP3    H141255   6.351   6.907   2.516  1.5947  2.4062 -2.2094
 6540TIP3    H241256   6.349   6.786   2.425 -0.5167  0.1128  0.6769
 6541TIP3   OH241257   1.604   5.198   8.444 -0.3928 -0.0364 -0.1557
 6541TIP3    H141258   1.574   5.124   8.496 -0.6225 -0.1061 -0.3875
 6541TIP3    H241259   1.544   5.269   8.467  0.6232  0.4763  1.0806
 6542TIP3   OH241260   6.282   5.046   1.788  0.1089 -0.1770  0.5335
 6542TIP3    H141261   6.303   5.119   1.730  0.9673 -1.1680 -0.4444
 6542TIP3    H241262   6.194   5.020   1.761  1.0330 -1.5497 -1.3991
 6543TIP3   OH241263   4.203   5.838   2.471  0.0497 -0.1943  0.5183
 6543TIP3    H141264   4.167   5.752   2.493 -1.1475  0.5716  1.6350
 6543TIP3    H241265   4.190   5.891   2.549  0.7286  1.0350 -0.1669
 6544TIP3   OH241266   5.374   3.362   7.574  0.0468 -0.0615 -0.3767
 6544TIP3    H141267   5.320   3.284   7.559  1.8619 -1.6466  0.9385
 6544TIP3    H241268   5.451   3.330   7.620  0.0796  2.7635  1.8380
 6545TIP3   OH241269   3.148   4.028   0.341 -0.1263  0.0767 -0.5306
 6545TIP3    H141270   3.155   4.054   0.432 -1.9389 -0.3413 -0.2488
 6545TIP3    H241271   3.222   4.072   0.298  1.3031 -0.4402  1.2587
 6546TIP3   OH241272   2.566   1.254   0.011 -0.6184 -0.3551 -0.0355
 6546TIP3    H141273   2.498   1.319  -0.005 -1.3955 -1.4351 -1.3520
 6546TIP3    H241274   2.598   1.273   0.099 -0.7866  1.8100 -0.3996
 6547TIP3   OH241275   3.374   5.399   8.122 -0.2410  0.4595  0.2240
 6547TIP3    H141276   3.392   5.486   8.156 -1.2620  0.4854  0.7657
 6547TIP3    H241277   3.278   5.393   8.122 -0.1917 -0.5284 -0.1411
 6548TIP3   OH241278   4.178   2.169   8.318 -0.0840 -0.2158  0.4009
 6548TIP3    H141279   4.247   2.235   8.325  1.2461 -1.3883 -0.9449
 6548TIP3    H241280   4.217   2.089   8.355 -1.4917 -0.4060  1.5665
 6549TIP3   OH241281   0.711   1.009   0.429 -1.0033  0.4233 -0.2579
 6549TIP3    H141282   0.772   0.943   0.396 -0.6812  0.6175 -0.0510
 6549TIP3    H241283   0.696   0.984   0.521 -1.2395  0.3740 -0.3082
 6550TIP3   OH241284   5.088   4.509   1.937  0.0401  0.2414  0.5468
 6550TIP3    H141285   5.097   4.510   2.032  1.1449 -1.9506  0.5224
 6550TIP3    H241286   5.161   4.456   1.906 -2.5912 -2.7461 -1.1753
 6551TIP3   OH241287   3.557   0.384   8.216 -0.5801 -0.9686  0.1866
 6551TIP3    H141288   3.465   0.369   8.194 -0.6856 -0.9682  0.6135
 6551TIP3    H241289   3.566   0.351   8.306 -0.4659  0.1511  0.6126
 6552TIP3   OH241290   3.809   1.741   0.141  0.0541 -0.2873 -0.2709
 6552TIP3    H141291   3.862   1.663   0.157  0.4588 -0.0168 -0.2802
 6552TIP3    H241292   3.720   1.715   0.167 -0.0007 -1.0559 -1.1351
 6553TIP3   OH241293   1.837   6.662   1.289  0.1212 -0.5570  0.2739
 6553TIP3    H141294   1.754   6.695   1.256 -0.2178 -1.1092  0.5724
 6553TIP3    H241295   1.886   6.637   1.210  1.1958  2.4257 -0.1468
 6554TIP3   OH241296   1.978   3.075   2.161  0.4606  0.3491 -0.0601
 6554TIP3    H141297   1.954   3.050   2.250  1.3804 -0.9197 -0.1327
 6554TIP3    H241298   1.968   2.994   2.109  3.5349 -0.0223 -0.3159
 6555TIP3   OH241299   6.720   3.621   2.607 -0.4222 -0.5031  0.4382
 6555TIP3    H141300   6.680   3.568   2.538 -1.5307 -0.7755  1.2632
 6555TIP3    H241301   6.700   3.575   2.688 -0.7027  0.7332  1.1021
 6556TIP3   OH241302   4.527   3.416   8.191  0.6553 -0.0828  0.1245
 6556TIP3    H141303   4.470   3.339   8.199  0.4558 -0.0203 -0.6584
 6556TIP3    H241304   4.468   3.488   8.172  1.1110 -0.3756 -2.9403
 6557TIP3   OH241305   2.651   2.300   7.108 -0.4969  0.3226  0.0843
 6557TIP3    H141306   2.736   2.257   7.102 -1.2488 -1.1602 -0.4653
 6557TIP3    H241307   2.656   2.372   7.044  0.0753 -0.2297 -0.5052
 6558TIP3   OH241308   4.224   4.397   3.248 -0.2966 -0.3004  0.5567
 6558TIP3    H141309   4.313   4.432   3.242 -0.1447 -0.9033 -1.2617
 6558TIP3    H241310   4.171   4.459   3.198 -1.0486  0.4200  2.1943
 6559TIP3   OH241311   4.885   5.791   1.926  0.5911 -0.7695  0.4143
 6559TIP3    H141312   4.959   5.823   1.979  1.0224  1.1532 -1.2238
 6559TIP3    H241313   4.808   5.816   1.976  0.9846  1.1830  0.1399
 6560TIP3   OH241314   1.326   4.782   8.433 -0.2976 -0.1920 -0.0831
 6560TIP3    H141315   1.330   4.688   8.452 -2.5810 -0.4702 -0.5933
 6560TIP3    H241316   1.320   4.786   8.337  0.8891  0.5731 -0.1463
 6561TIP3   OH241317   2.321   6.273   8.021  0.0029  0.2082 -0.0841
 6561TIP3    H141318   2.300   6.366   8.015  0.3868  0.2286 -1.6555
 6561TIP3    H241319   2.264   6.231   7.957 -0.3680 -0.6854  0.8133
 6562TIP3   OH241320   0.850   0.391   0.299  0.1315 -0.3108 -0.2485
 6562TIP3    H141321   0.841   0.409   0.205 -1.6092 -1.4139 -0.3422
 6562TIP3    H241322   0.768   0.422   0.337 -0.4464 -2.5226  0.4287
 6563TIP3   OH241323   1.736   2.211   2.675  0.1582 -0.2370 -0.0875
 6563TIP3    H141324   1.645   2.232   2.652  0.3288 -0.6936 -1.2927
 6563TIP3    H241325   1.755   2.265   2.751 -0.7382  0.7678 -0.5516
 6564TIP3   OH241326   4.574   4.731   7.937 -0.4268 -0.5459 -0.1072
 6564TIP3    H141327   4.559   4.643   7.970  1.7203 -0.6328  0.7957
 6564TIP3    H241328   4.654   4.725   7.886 -0.0782  0.9381  0.2052
 6565TIP3   OH241329   6.176   2.265   1.505  0.6140 -0.1837  0.0175
 6565TIP3    H141330   6.120   2.280   1.429  0.1977 -1.2884  0.0900
 6565TIP3    H241331   6.120   2.219   1.567  1.5078 -1.0305  0.2139
 6566TIP3   OH241332   5.555   1.775   6.462  0.1095 -0.2463  0.3896
 6566TIP3    H141333   5.594   1.858   6.434  0.4153 -0.3318  0.5499
 6566TIP3    H241334   5.507   1.796   6.542  1.4499 -0.4957  1.3046
 6567TIP3   OH241335   1.939   2.431   7.250  0.6544  0.7682 -0.0663
 6567TIP3    H141336   2.007   2.405   7.188  0.8824  0.7366  0.1928
 6567TIP3    H241337   1.972   2.513   7.288  1.3471 -0.0891  1.2694
 6568TIP3   OH241338   4.581   2.589   6.974  0.0443 -0.1065 -0.6129
 6568TIP3    H141339   4.561   2.681   6.961  0.7296 -0.0729 -1.5090
 6568TIP3    H241340   4.506   2.543   6.937 -1.7639  0.0794  2.5010
 6569TIP3   OH241341   1.000   5.255   7.774 -0.0642  0.4767  0.6168
 6569TIP3    H141342   1.070   5.247   7.708  0.2198  2.6820  0.5744
 6569TIP3    H241343   0.921   5.229   7.728  0.3243  0.7239 -0.2177
 6570TIP3   OH241344   6.868   3.125   0.514  0.3306 -0.0825  0.1188
 6570TIP3    H141345   6.812   3.195   0.480  1.3657  1.7044  1.9075
 6570TIP3    H241346   6.930   3.107   0.443 -0.4222  0.2425 -0.6420
 6571TIP3   OH241347   3.499   5.932   1.241 -0.6079  0.2458 -0.0424
 6571TIP3    H141348   3.411   5.968   1.244 -0.0174  1.6919  0.5824
 6571TIP3    H241349   3.527   5.929   1.333  0.3671  0.7832 -0.3057
 6572TIP3   OH241350   6.895   5.247   7.106  0.0684 -0.5167  0.7330
 6572TIP3    H141351   6.808   5.208   7.120 -0.3996  0.1023 -0.3140
 6572TIP3    H241352   6.944   5.225   7.185 -0.8025 -1.5292  1.0205
 6573TIP3   OH241353   3.109   0.959   7.870  0.1293 -0.4711 -0.1344
 6573TIP3    H141354   3.104   1.004   7.954 -0.4163 -0.9944  0.1173
 6573TIP3    H241355   3.180   1.003   7.824 -1.1042  1.3967 -0.3469
 6574TIP3   OH241356   4.929   1.175   7.333 -0.2371 -0.2808 -0.1328
 6574TIP3    H141357   4.998   1.225   7.290  0.6752  0.5347  2.1539
 6574TIP3    H241358   4.957   1.168   7.424 -0.9204 -3.9527 -0.0448
 6575TIP3   OH241359   2.816   2.707   1.025 -0.2578 -0.0904  0.0754
 6575TIP3    H141360   2.824   2.625   1.074 -1.6444 -0.2743  0.0419
 6575TIP3    H241361   2.750   2.758   1.073 -1.8030 -0.3539 -1.6503
 6576TIP3   OH241362   4.786   4.430   7.888 -0.5501 -0.3506 -0.7185
 6576TIP3    H141363   4.875   4.394   7.892 -1.2629 -2.1337  1.7497
 6576TIP3    H241364   4.799   4.524   7.883  1.4383 -0.6187 -2.2027
 6577TIP3   OH241365   2.469   4.343   0.105  0.4058  0.2280  0.1815
 6577TIP3    H141366   2.526   4.416   0.082 -0.2790  1.3374  1.8455
 6577TIP3    H241367   2.406   4.380   0.167  1.4732 -2.2915  2.9894
 6578TIP3   OH241368   1.052   0.332   1.476  0.0194 -0.4292  0.6275
 6578TIP3    H141369   1.079   0.409   1.526  0.6755 -0.4248  0.2807
 6578TIP3    H241370   1.074   0.258   1.532  0.9787 -0.4362  0.2650
 6579TIP3   OH241371   1.397   6.821   7.442 -0.0128 -0.2939  0.2869
 6579TIP3    H141372   1.370   6.864   7.523 -0.5650  0.5367 -0.3121
 6579TIP3    H241373   1.404   6.893   7.379 -0.5993 -1.0519 -0.6550
 6580TIP3   OH241374   2.578   5.841   6.948 -0.0232  0.7226 -0.5486
 6580TIP3    H141375   2.579   5.789   6.868  1.2274 -0.1955  0.0423
 6580TIP3    H241376   2.648   5.905   6.937  0.9302 -0.1384  0.2416
 6581TIP3   OH241377   4.287   0.571   7.568  0.1544 -0.3120 -0.3166
 6581TIP3    H141378   4.216   0.571   7.632  0.1365 -1.0538 -0.3296
 6581TIP3    H241379   4.366   0.572   7.621  0.1395 -0.7990 -0.2847
 6582TIP3   OH241380   0.411   5.679   0.908  0.5891  0.0809  0.1774
 6582TIP3    H141381   0.478   5.621   0.873 -1.6761 -1.1267 -2.5772
 6582TIP3    H241382   0.352   5.621   0.956  0.0051  0.6047  0.1147
 6583TIP3   OH241383   5.753   2.557   8.064  0.0092 -0.2171 -0.5213
 6583TIP3    H141384   5.734   2.650   8.071 -0.9283 -0.1291 -3.2354
 6583TIP3    H241385   5.688   2.515   8.121 -1.3448  0.6738 -1.3605
 6584TIP3   OH241386   4.023   1.462   0.475 -0.2261 -0.3060 -0.8456
 6584TIP3    H141387   4.083   1.462   0.401 -1.4516 -0.0998 -1.8624
 6584TIP3    H241388   3.946   1.414   0.444 -0.4233 -0.9760  0.5870
 6585TIP3   OH241389   6.734   1.676   1.654 -0.0953 -0.5364  0.2552
 6585TIP3    H141390   6.695   1.687   1.741 -3.1079 -1.9618 -0.7856
 6585TIP3    H241391   6.727   1.763   1.614  3.3674  0.7494  2.0428
 6586TIP3   OH241392   3.505   4.452   1.337 -0.0595 -0.3356  0.1324
 6586TIP3    H141393   3.540   4.364   1.354  0.5013 -0.5243 -1.7675
 6586TIP3    H241394   3.575   4.511   1.362 -0.4550 -0.4044  1.4642
 6587TIP3   OH241395   1.749   1.289   0.517  0.2544 -0.4927 -0.3156
 6587TIP3    H141396   1.817   1.336   0.566  0.0427 -0.0496 -0.4360
 6587TIP3    H241397   1.667   1.324   0.551  0.0562 -1.7415  0.5281
 6588TIP3   OH241398   0.778   0.199   1.185  0.1411  0.2586  0.7020
 6588TIP3    H141399   0.700   0.254   1.187  0.7111  1.1699 -0.7519
 6588TIP3    H241400   0.844   0.251   1.139  0.3196 -2.0996 -1.9695
 6589TIP3   OH241401   3.061   4.556   1.884  0.2667  0.2256  0.1396
 6589TIP3    H141402   3.084   4.495   1.813 -0.0280 -1.3345  1.3168
 6589TIP3    H241403   2.988   4.513   1.929  1.2108  0.5893  2.1074
 6590TIP3   OH241404   6.272   6.284   2.511 -0.1554 -0.1121 -0.1640
 6590TIP3    H141405   6.298   6.353   2.571  0.3015  0.2505 -0.7653
 6590TIP3    H241406   6.199   6.240   2.554 -0.1395  0.4431  0.4335
 6591TIP3   OH241407   5.838   5.141   2.367  0.0974  0.3487 -0.5639
 6591TIP3    H141408   5.810   5.116   2.455  1.8847  1.9713  0.5239
 6591TIP3    H241409   5.806   5.231   2.356 -1.0211 -0.1786 -2.0427
 6592TIP3   OH241410   4.889   0.827   2.259 -0.3671 -0.5684 -0.1657
 6592TIP3    H141411   4.893   0.733   2.241  1.3720 -0.7182  0.8109
 6592TIP3    H241412   4.953   0.865   2.198 -0.9802 -0.0242 -0.4741
 6593TIP3   OH241413   3.224   0.830   7.559  0.1520 -0.2022  0.0523
 6593TIP3    H141414   3.309   0.824   7.603  0.2593  1.2006  0.0860
 6593TIP3    H241415   3.245   0.829   7.466  0.5730  3.1898 -0.0170
 6594TIP3   OH241416   5.595   5.733   0.052  0.0941 -0.1587  0.0787
 6594TIP3    H141417   5.656   5.679   0.101 -0.1603  0.2708  0.8880
 6594TIP3    H241418   5.601   5.701  -0.038  0.3845 -1.1225  0.4321
 6595TIP3   OH241419   6.430   2.003   0.610  0.1687 -0.3082 -0.9149
 6595TIP3    H141420   6.473   2.060   0.546 -0.0494  0.0157 -0.7778
 6595TIP3    H241421   6.472   2.025   0.693  1.2834 -1.5683 -1.1128
 6596TIP3   OH241422   2.533   1.874   0.673  0.8135  0.6153  0.3517
 6596TIP3    H141423   2.453   1.838   0.710  0.4046  0.9022 -0.2415
 6596TIP3    H241424   2.573   1.801   0.625 -0.4054  1.0871 -1.5029
 6597TIP3   OH241425   1.555   1.470   0.293  0.2137  0.1692  0.0506
 6597TIP3    H141426   1.553   1.564   0.314  1.3417 -0.1356  1.6553
 6597TIP3    H241427   1.560   1.426   0.378  0.4777 -1.3255 -0.7015
 6598TIP3   OH241428   6.217   5.825   2.086  0.4591  0.2547  0.0890
 6598TIP3    H141429   6.258   5.748   2.126 -0.9612 -1.3402 -1.3818
 6598TIP3    H241430   6.137   5.838   2.137  0.0928 -0.0023 -0.4150
 6599TIP3   OH241431   0.417   5.847   8.033  0.6589  0.1160 -0.2140
 6599TIP3    H141432   0.409   5.917   8.098 -0.0594 -0.3109  0.1706
 6599TIP3    H241433   0.327   5.818   8.017  0.9844 -1.2331  0.2126
 6600TIP3   OH241434   6.513   6.488   0.022 -0.0161  0.1710  0.5570
 6600TIP3    H141435   6.459   6.443   0.086 -3.1007  0.7517 -1.4128
 6600TIP3    H241436   6.545   6.419  -0.036 -0.1673 -0.0140  0.6962
 6601TIP3   OH241437   2.201   2.042   2.200  0.5870 -0.1070  0.1895
 6601TIP3    H141438   2.290   2.054   2.234  0.5591  2.1863 -0.3928
 6601TIP3    H241439   2.146   2.036   2.278  1.0480  0.3883  0.5640
 6602TIP3   OH241440   6.689   3.644   7.957  0.3101  0.4737  0.0758
 6602TIP3    H141441   6.689   3.734   7.989 -1.6634  0.5754 -0.0763
 6602TIP3    H241442   6.600   3.613   7.971  0.9310 -1.4604  0.0723
 6603TIP3   OH241443   4.203   6.786   8.348 -0.2810 -0.5150 -0.5317
 6603TIP3    H141444   4.240   6.874   8.337  0.0160 -0.5850 -0.1430
 6603TIP3    H241445   4.127   6.784   8.290 -0.1239 -0.0987 -0.7579
 6604TIP3   OH241446   5.628   1.085   7.364  0.1678  0.0419 -0.1050
 6604TIP3    H141447   5.656   1.048   7.448  1.3269 -1.5035 -1.1109
 6604TIP3    H241448   5.623   1.010   7.305 -0.5586  1.1006 -1.4488
 6605TIP3   OH241449   4.311   5.392   1.449 -0.3832 -1.5177  0.2325
 6605TIP3    H141450   4.245   5.460   1.458  1.4878  0.3654  0.4605
 6605TIP3    H241451   4.313   5.373   1.355  0.6048  0.4443 -0.1975
 6606TIP3   OH241452   0.794   6.964   2.667  0.0229 -0.6920 -1.1302
 6606TIP3    H141453   0.804   7.021   2.742 -1.1038 -1.4034 -0.4084
 6606TIP3    H241454   0.872   6.909   2.667  0.1521 -0.5077 -0.6550
 6607TIP3   OH241455   0.153   5.915   0.457  0.6686  0.1594  0.4268
 6607TIP3    H141456   0.221   5.848   0.469  2.3951  1.0258 -3.2405
 6607TIP3    H241457   0.201   5.998   0.453 -0.7971  1.0130 -0.4764
 6608TIP3   OH241458   1.777   4.653   2.449 -0.0974 -0.1985 -0.4836
 6608TIP3    H141459   1.811   4.678   2.535 -1.8907  1.1335 -0.0884
 6608TIP3    H241460   1.853   4.624   2.400  1.1019 -0.1936  1.2840
 6609TIP3   OH241461   1.662   3.305   0.788 -0.2706 -0.5782  0.5603
 6609TIP3    H141462   1.681   3.373   0.723  0.4979  0.7577  2.1075
 6609TIP3    H241463   1.740   3.250   0.788 -0.4210 -0.7956  0.1081
 6610TIP3   OH241464   0.783   6.308   0.245  0.1574 -0.6041 -0.1153
 6610TIP3    H141465   0.784   6.229   0.192 -0.6147 -0.4513 -0.3665
 6610TIP3    H241466   0.761   6.278   0.333 -1.3070 -0.5472 -0.4424
 6611TIP3   OH241467   6.203   5.374   2.579 -0.2221  0.7348  0.1574
 6611TIP3    H141468   6.279   5.412   2.535 -0.2875  0.6052 -0.0719
 6611TIP3    H241469   6.128   5.412   2.533 -0.4528  3.9233  2.8230
 6612TIP3   OH241470   5.119   5.581   7.758 -0.3613 -0.3715 -0.5295
 6612TIP3    H141471   5.118   5.663   7.807 -1.5823 -0.2413 -0.7527
 6612TIP3    H241472   5.055   5.526   7.802  0.0915 -1.0317 -0.6874
 6613TIP3   OH241473   6.743   0.260   7.871  0.1325  0.2201 -0.4811
 6613TIP3    H141474   6.679   0.331   7.863  0.3141  0.3278 -1.0017
 6613TIP3    H241475   6.701   0.196   7.930 -0.8712 -0.1816 -1.5967
 6614TIP3   OH241476   0.336   3.240   2.565 -0.4979  0.8997  1.1292
 6614TIP3    H141477   0.243   3.255   2.553 -0.2983  1.2752 -0.0749
 6614TIP3    H241478   0.367   3.208   2.481  0.1959 -0.7211  1.9430
 6615TIP3   OH241479   3.891   1.608   2.143 -0.1569 -0.1822  0.6412
 6615TIP3    H141480   3.959   1.658   2.099 -0.7198 -0.3621 -0.4470
 6615TIP3    H241481   3.936   1.569   2.219  1.0295 -0.5171 -0.2019
 6616TIP3   OH241482   3.727   3.764   0.447  0.5374  0.2810  0.3974
 6616TIP3    H141483   3.752   3.823   0.376 -1.3454  2.2991  1.2640
 6616TIP3    H241484   3.633   3.751   0.434  0.7435 -1.8580  0.7700
 6617TIP3   OH241485   1.233   3.110   1.800 -0.3011  0.2553 -0.2281
 6617TIP3    H141486   1.191   3.187   1.838 -0.9726 -0.4142  0.4192
 6617TIP3    H241487   1.277   3.143   1.722 -0.6911  1.2667 -0.0374
 6618TIP3   OH241488   2.015   0.981   7.670 -0.4047 -0.0845 -0.0706
 6618TIP3    H141489   2.099   0.937   7.678  0.2063  1.2379  1.3375
 6618TIP3    H241490   1.977   0.977   7.758 -0.0379  2.5867  0.3060
 6619TIP3   OH241491   0.904   1.922   2.481  0.0981 -0.3262  0.3582
 6619TIP3    H141492   0.829   1.899   2.427 -0.3067 -1.0889  1.2216
 6619TIP3    H241493   0.869   1.933   2.569  0.8224  0.4190  0.5705
 6620TIP3   OH241494   3.825   6.402   0.978  0.2044 -0.1463  0.1665
 6620TIP3    H141495   3.811   6.373   1.068 -0.2056 -1.2726 -0.2489
 6620TIP3    H241496   3.889   6.340   0.943 -1.4847 -1.2468 -1.0624
 6621TIP3   OH241497   3.599   4.334   0.889 -0.4043 -0.0333 -0.7467
 6621TIP3    H141498   3.686   4.328   0.849 -0.2776 -3.4651 -0.2330
 6621TIP3    H241499   3.613   4.313   0.981 -1.3815  2.9486  0.2020
 6622TIP3   OH241500   6.512   3.604   0.578  0.0359  0.2574  0.0021
 6622TIP3    H141501   6.537   3.660   0.651 -1.1214  0.9751 -0.1188
 6622TIP3    H241502   6.420   3.583   0.595  0.2020 -0.8849 -0.4244
 6623TIP3   OH241503   1.661   2.120   7.600 -0.1997  0.0743  0.0368
 6623TIP3    H141504   1.604   2.074   7.662  0.0180  0.0682  0.2347
 6623TIP3    H241505   1.719   2.172   7.655  0.8623 -0.9312 -0.1021
 6624TIP3   OH241506   0.026   4.325   7.941 -0.4052  0.2660  0.1103
 6624TIP3    H141507  -0.032   4.312   8.017  0.8789 -1.3642  0.8720
 6624TIP3    H241508   0.065   4.411   7.956 -2.5935  1.4345 -0.4512
 6625TIP3   OH241509   0.244   6.347   1.587  0.6729 -0.1212  0.3556
 6625TIP3    H141510   0.276   6.387   1.506  3.1826 -0.7653  0.9421
 6625TIP3    H241511   0.255   6.415   1.653  0.8793 -0.3504  0.5627
 6626TIP3   OH241512   3.052   6.436   2.820  0.4277 -0.1265  0.3893
 6626TIP3    H141513   3.076   6.373   2.887  0.7912 -1.2132 -0.7169
 6626TIP3    H241514   3.006   6.384   2.754  0.1305  0.8900 -0.2323
 6627TIP3   OH241515   2.935   4.509   7.587  0.2992 -0.3472 -0.7605
 6627TIP3    H141516   2.897   4.477   7.506 -0.5442 -0.6626 -0.2518
 6627TIP3    H241517   2.865   4.559   7.629  0.8299  0.1061 -0.3838
 6628TIP3   OH241518   2.061   4.136   7.554  0.3425  0.2897  0.0442
 6628TIP3    H141519   2.073   4.230   7.565  0.9228  0.2199  0.0163
 6628TIP3    H241520   1.993   4.113   7.618  0.2812  0.7055  0.1303
 6629TIP3   OH241521   4.332   1.402   1.899 -0.0651  0.0175 -0.1965
 6629TIP3    H141522   4.420   1.407   1.937 -0.5932 -2.6786  1.6673
 6629TIP3    H241523   4.344   1.363   1.813  0.6394  1.0446 -0.5909
 6630TIP3   OH241524   3.868   1.887   8.397  0.1824  0.0555 -0.1887
 6630TIP3    H141525   3.844   1.842   8.479  2.0139  0.3012  0.5263
 6630TIP3    H241526   3.937   1.832   8.359 -0.9911 -0.3285 -1.8745
 6631TIP3   OH241527   5.069   2.468   0.430  0.7140  0.3077  0.7359
 6631TIP3    H141528   5.121   2.471   0.510  0.1912  1.5381  1.0543
 6631TIP3    H241529   5.119   2.519   0.366  0.4771  0.4917  0.6940
 6632TIP3   OH241530   5.673   1.501   2.354 -0.1929 -0.6352  0.2205
 6632TIP3    H141531   5.686   1.466   2.266  1.6593  2.5222 -0.9376
 6632TIP3    H241532   5.580   1.523   2.358 -0.1203  0.0739 -1.3724
 6633TIP3   OH241533   1.834   6.442   7.838 -0.2964  0.4170  0.4717
 6633TIP3    H141534   1.856   6.403   7.923 -0.3150  1.0007  0.7453
 6633TIP3    H241535   1.852   6.372   7.775  1.8644  0.6642  0.7349
 6634TIP3   OH241536   1.746   1.288   7.835 -0.4830  0.5710 -0.1003
 6634TIP3    H141537   1.679   1.339   7.789 -0.9711  1.5840  1.6372
 6634TIP3    H241538   1.722   1.295   7.927 -0.0466 -2.1266  0.2881
 6635TIP3   OH241539   3.250   6.150   0.595  0.3098 -0.0707  0.0883
 6635TIP3    H141540   3.251   6.157   0.499 -0.0087 -1.2351 -0.0232
 6635TIP3    H241541   3.339   6.172   0.621  0.4614  0.0433 -0.5025
 6636TIP3   OH241542   3.159   6.629   1.934  0.2248 -0.1872  1.0401
 6636TIP3    H141543   3.170   6.612   1.841  1.1293  0.0397  1.0906
 6636TIP3    H241544   3.140   6.543   1.972  1.7912 -0.6493  0.8906
 6637TIP3   OH241545   4.737   2.325   1.189  0.1533  0.3084 -0.1005
 6637TIP3    H141546   4.804   2.339   1.123 -0.6734 -1.3875 -1.3821
 6637TIP3    H241547   4.781   2.277   1.259  0.3366 -0.7273 -0.8950
 6638TIP3   OH241548   6.367   1.452   1.958 -0.0932 -0.9727  0.5345
 6638TIP3    H141549   6.293   1.458   2.018 -0.5847 -2.5031  0.1204
 6638TIP3    H241550   6.413   1.372   1.984  0.8663 -0.5617  0.1599
 6639TIP3   OH241551   5.210   4.618   7.939 -0.4699  0.1555  0.3590
 6639TIP3    H141552   5.295   4.627   7.982  1.3088 -2.0248 -2.3434
 6639TIP3    H241553   5.217   4.674   7.861 -1.5594  0.0961  0.2101
 6640TIP3   OH241554   2.608   6.058   1.439 -0.0619 -0.1207 -0.1329
 6640TIP3    H141555   2.612   6.015   1.524 -0.0221  2.2007  1.1358
 6640TIP3    H241556   2.681   6.020   1.389  0.7522 -0.6008  1.3578
 6641TIP3   OH241557   6.140   1.442   0.514 -0.4702 -0.7017 -0.4237
 6641TIP3    H141558   6.100   1.363   0.480  0.4570 -1.0876 -0.6595
 6641TIP3    H241559   6.082   1.513   0.487 -0.9593 -1.2355 -0.7804
 6642TIP3   OH241560   6.867   6.383   0.672  0.8631 -0.1877  0.0453
 6642TIP3    H141561   6.888   6.428   0.754 -0.6904  0.2287  0.2370
 6642TIP3    H241562   6.863   6.452   0.607 -0.1010 -0.2167  0.0618
 6643TIP3   OH241563   6.268   6.724   0.454  0.3617 -0.3919 -0.3869
 6643TIP3    H141564   6.193   6.779   0.431 -0.1555 -0.7128  0.4785
 6643TIP3    H241565   6.332   6.741   0.385 -0.4310  0.0282 -1.0377
 6644TIP3   OH241566   1.032   2.000   1.666 -0.0634 -0.5756  0.3673
 6644TIP3    H141567   1.081   2.082   1.659  0.1161 -0.6436  0.7615
 6644TIP3    H241568   1.003   1.998   1.758 -0.8269 -0.5211  0.1336
 6645TIP3   OH241569   1.161   2.813   2.055  0.1215  0.1489  0.3182
 6645TIP3    H141570   1.254   2.818   2.078 -0.2712 -0.5091  2.2154
 6645TIP3    H241571   1.161   2.812   1.959  2.0552  0.2604  0.2619
 6646TIP3   OH241572   3.940   1.681   0.637 -0.3922 -0.0890 -0.3357
 6646TIP3    H141573   3.940   1.610   0.573 -0.8434  0.2591 -0.7395
 6646TIP3    H241574   4.000   1.653   0.706 -0.0678 -0.5708 -0.8088
 6647TIP3   OH241575   4.385   4.306   2.369 -0.4373  0.2081 -0.1903
 6647TIP3    H141576   4.415   4.396   2.382 -0.9663  0.2334  0.9399
 6647TIP3    H241577   4.291   4.308   2.390 -0.3539 -0.7005  0.3285
 6648TIP3   OH241578   6.534   0.606   6.953 -0.3333 -0.6164 -0.1656
 6648TIP3    H141579   6.454   0.641   6.913 -0.1694  0.0466  0.0754
 6648TIP3    H241580   6.589   0.582   6.879 -0.1005  0.4483 -0.3600
 6649TIP3   OH241581   3.582   2.557   1.418 -0.3486  0.4692  0.3186
 6649TIP3    H141582   3.560   2.584   1.328 -0.8525  2.3577  0.9594
 6649TIP3    H241583   3.652   2.618   1.444 -0.9618  0.6663  1.5663
 6650TIP3   OH241584   1.425   1.243   2.098  0.5971 -0.4813 -0.2965
 6650TIP3    H141585   1.372   1.185   2.044 -1.1625  0.3386  0.4875
 6650TIP3    H241586   1.385   1.329   2.087  1.0734 -0.0399  1.2210
 6651TIP3   OH241587   0.482   1.843   0.601 -0.0460 -0.0858 -0.2116
 6651TIP3    H141588   0.506   1.753   0.621 -0.0540 -0.0613 -0.0916
 6651TIP3    H241589   0.455   1.880   0.685 -0.7148 -0.1776 -0.3817
 6652TIP3   OH241590   5.937   0.227   2.292  0.0965 -1.0134  0.5148
 6652TIP3    H141591   5.950   0.148   2.240 -1.5724 -1.7240  1.1078
 6652TIP3    H241592   5.920   0.296   2.227 -2.0748 -1.9054  0.0413
 6653TIP3   OH241593   2.109   6.721   2.076  0.3267 -0.2483  0.3268
 6653TIP3    H141594   2.085   6.755   1.990 -0.1512 -0.7401  0.2561
 6653TIP3    H241595   2.126   6.799   2.129  0.1550  0.0729 -0.0835
 6654TIP3   OH241596   6.614   0.018   7.539  0.2563 -0.2961  0.4360
 6654TIP3    H141597   6.687   0.041   7.483  0.8238  0.7175  1.5580
 6654TIP3    H241598   6.550  -0.023   7.480  2.2924 -2.5820 -0.3349
 6655TIP3   OH241599   3.478   6.198   8.435 -0.6148  0.3906 -0.1464
 6655TIP3    H141600   3.395   6.219   8.392 -0.6902 -0.1741 -0.2847
 6655TIP3    H241601   3.505   6.279   8.476 -1.0414  0.6807 -0.4339
 6656TIP3   OH241602   2.926   3.842   0.515  0.0079 -0.4886 -0.1709
 6656TIP3    H141603   2.987   3.909   0.546  1.4632 -1.1556 -1.4509
 6656TIP3    H241604   2.919   3.780   0.587  0.5741 -0.2197  0.1264
 6657TIP3   OH241605   5.994   5.476   2.454 -0.4768  0.1542 -0.2941
 6657TIP3    H141606   5.964   5.437   2.372  1.5037  0.0396 -1.0175
 6657TIP3    H241607   5.949   5.561   2.458 -3.1904 -1.1932  0.2529
 6658TIP3   OH241608   6.117   1.429   8.174 -0.1640  0.3207 -0.3013
 6658TIP3    H141609   6.110   1.388   8.260  0.2153  1.2135  0.1621
 6658TIP3    H241610   6.056   1.502   8.177  2.9031  3.0490  0.8104
 6659TIP3   OH241611   2.023   5.095   0.006  0.0095 -0.3513 -0.0420
 6659TIP3    H141612   1.963   5.119   0.077 -1.1816 -1.8957 -0.4586
 6659TIP3    H241613   1.975   5.119  -0.074  0.1973 -1.0674 -0.3715
 6660TIP3   OH241614   6.376   4.014   1.074 -0.4619 -0.3222 -0.0466
 6660TIP3    H141615   6.381   3.946   1.007  0.0866  1.0917 -1.4931
 6660TIP3    H241616   6.282   4.027   1.088 -0.5997 -0.2259 -0.9985
 6661TIP3   OH241617   0.651   2.816   2.407  0.0697  0.0770 -0.5586
 6661TIP3    H141618   0.731   2.835   2.457  0.2132  0.7615 -1.0428
 6661TIP3    H241619   0.677   2.825   2.316 -0.9189  1.8994 -0.7171
 6662TIP3   OH241620   5.859   2.969   1.213 -0.4809 -0.2364 -0.0762
 6662TIP3    H141621   5.833   2.877   1.217  0.9812 -0.7614 -1.5914
 6662TIP3    H241622   5.870   2.987   1.120  1.0095  0.9373  0.2779
 6663TIP3   OH241623   1.087   3.624   1.132 -0.3305  0.3366 -0.3322
 6663TIP3    H141624   1.128   3.709   1.116 -1.0936  0.5874 -1.0372
 6663TIP3    H241625   1.160   3.565   1.152  0.1057  1.4334  1.5372
 6664TIP3   OH241626   5.332   6.915   2.555  0.3610  0.7789 -0.2128
 6664TIP3    H141627   5.276   6.974   2.505  0.4477  2.3545  1.4078
 6664TIP3    H241628   5.275   6.842   2.579 -0.3566  1.2243 -0.5320
 6665TIP3   OH241629   6.723   3.381   0.438 -0.9585 -0.2073  0.1646
 6665TIP3    H141630   6.780   3.430   0.498 -1.0447 -0.6054  0.5788
 6665TIP3    H241631   6.635   3.389   0.477 -1.5054  1.7971 -1.3368
 6666TIP3   OH241632   5.463   6.154   8.312 -0.4201 -0.3952  0.2975
 6666TIP3    H141633   5.547   6.109   8.307  0.5417  1.3211  0.1752
 6666TIP3    H241634   5.424   6.123   8.394  0.4733 -0.9871  0.5103
 6667TIP3   OH241635   1.744   3.742   2.629 -0.2952  0.5801 -0.0679
 6667TIP3    H141636   1.814   3.749   2.694 -0.8455 -0.6331  0.7025
 6667TIP3    H241637   1.725   3.648   2.624 -0.5837  0.6910 -1.6684
 6668TIP3   OH241638   1.492   5.144   8.002  0.5418  0.1818 -0.1613
 6668TIP3    H141639   1.553   5.212   8.030  0.9840 -1.0191  2.0013
 6668TIP3    H241640   1.457   5.108   8.084 -1.5563 -0.5227 -1.3033
 6669TIP3   OH241641   3.625   2.651   0.422 -0.1829  0.5994  0.0016
 6669TIP3    H141642   3.578   2.713   0.479 -1.0932 -0.2495  0.2019
 6669TIP3    H241643   3.669   2.591   0.482 -0.2854  0.3316 -0.1904
 6670TIP3   OH241644   0.480   1.995   3.098  0.4461 -0.1083  0.5719
 6670TIP3    H141645   0.569   2.007   3.132  0.8443  0.2018 -0.5481
 6670TIP3    H241646   0.424   2.017   3.172  1.2941 -0.2222  1.2721
 6671TIP3   OH241647   2.206   3.430   2.426  0.1079 -0.1044  0.1829
 6671TIP3    H141648   2.201   3.429   2.521 -1.5413 -1.6736  0.1234
 6671TIP3    H241649   2.210   3.338   2.401  2.1226  0.3025 -1.2451
 6672TIP3   OH241650   2.018   3.969   8.367  0.1908 -0.3131  0.2529
 6672TIP3    H141651   2.089   3.995   8.309 -1.7725  1.0215 -1.6996
 6672TIP3    H241652   1.966   3.908   8.315 -0.3602 -0.9188  1.4779
 6673TIP3   OH241653   2.394   0.722   7.923 -0.7338  0.4837  0.3147
 6673TIP3    H141654   2.441   0.717   7.840  0.5565 -0.8380  1.0757
 6673TIP3    H241655   2.460   0.698   7.989 -1.5237  2.1706  1.8047
 6674TIP3   OH241656   3.952   3.627   2.988 -0.3883 -0.4867 -0.6097
 6674TIP3    H141657   4.005   3.703   2.962 -0.9569 -0.4834 -1.8152
 6674TIP3    H241658   4.017   3.560   3.012  0.1154  0.4374  0.7158
 6675TIP3   OH241659   6.566   5.385   0.096 -0.0840 -0.1365 -0.5131
 6675TIP3    H141660   6.591   5.464   0.145  1.2510 -0.6471 -0.3228
 6675TIP3    H241661   6.470   5.387   0.095 -0.1440  0.3565  1.3821
 6676TIP3   OH241662   4.482   6.857   7.173  0.0864 -0.1807 -0.0343
 6676TIP3    H141663   4.432   6.814   7.243  1.9531 -2.2693  0.1526
 6676TIP3    H241664   4.532   6.786   7.133  4.5433  1.8780  1.2067
 6677TIP3   OH241665   5.562   6.602   2.041 -0.8680  0.3232  0.3171
 6677TIP3    H141666   5.549   6.691   2.010 -3.6278  1.1122  3.2393
 6677TIP3    H241667   5.624   6.610   2.114  0.9072 -0.6375 -0.9880
 6678TIP3   OH241668   5.782   4.666   7.990  0.0264  0.2310 -0.2631
 6678TIP3    H141669   5.783   4.584   8.039  1.6614  1.4363  1.8665
 6678TIP3    H241670   5.745   4.730   8.050 -1.0827  1.1422 -1.8402
 6679TIP3   OH241671   5.532   2.478   1.986  0.0964 -0.4664  0.5200
 6679TIP3    H141672   5.544   2.487   2.081 -0.6979 -1.9528  0.7895
 6679TIP3    H241673   5.622   2.479   1.951  0.4591 -0.9427  1.4011
 6680TIP3   OH241674   4.132   2.849   7.524 -0.4226  0.2686 -0.1738
 6680TIP3    H141675   4.193   2.914   7.489 -0.1586  0.8152  1.2251
 6680TIP3    H241676   4.118   2.788   7.452  2.8622 -0.6699 -0.1639
 6681TIP3   OH241677   1.394   2.370   8.148  0.0376 -0.6630 -0.6282
 6681TIP3    H141678   1.387   2.364   8.243  0.7714  1.9802 -0.3221
 6681TIP3    H241679   1.485   2.346   8.130  0.4317  0.5751 -0.4102
 6682TIP3   OH241680   3.938   2.970   3.201  0.3095 -0.3923  0.3730
 6682TIP3    H141681   3.852   2.929   3.203 -0.0498  0.0545  4.5538
 6682TIP3    H241682   4.000   2.898   3.186 -0.6440 -1.2204  0.3352
 6683TIP3   OH241683   0.489   3.398   3.029  0.2261  0.4504  0.1191
 6683TIP3    H141684   0.574   3.428   2.997  0.2172 -0.0087 -0.3563
 6683TIP3    H241685   0.498   3.302   3.032 -0.7968  0.2562 -1.5000
 6684TIP3   OH241686   0.463   3.619   0.521  0.2308  0.2112 -0.1274
 6684TIP3    H141687   0.487   3.659   0.438  0.9750 -0.3807 -0.2128
 6684TIP3    H241688   0.387   3.668   0.551 -2.0839 -1.5300 -2.7044
 6685TIP3   OH241689   4.624   3.960   0.787 -0.1649  0.3896 -0.3900
 6685TIP3    H141690   4.611   3.910   0.868 -0.6767 -0.4819 -0.9837
 6685TIP3    H241691   4.700   3.919   0.746  1.3519  2.1016  0.5598
 6686TIP3   OH241692   1.093   5.880   0.275 -0.1774  0.0928 -0.2068
 6686TIP3    H141693   1.169   5.834   0.311 -0.4816  0.1085  0.4857
 6686TIP3    H241694   1.052   5.817   0.216 -0.1445 -0.2500  0.1304
 6687TIP3   OH241695   6.289   0.349   1.513 -0.3554 -0.0991  0.2001
 6687TIP3    H141696   6.302   0.335   1.419 -2.0256  0.5146 -0.1576
 6687TIP3    H241697   6.194   0.340   1.525 -0.2650  0.6913  1.6836
 6688TIP3   OH241698   1.346   4.537   7.445 -0.1763 -0.4593 -0.0538
 6688TIP3    H141699   1.367   4.448   7.418 -0.5435 -0.4092 -0.5121
 6688TIP3    H241700   1.373   4.592   7.371  2.0112  0.0422  1.0496
 6689TIP3   OH241701   2.659   5.220   6.857  0.1230 -0.0497  0.2921
 6689TIP3    H141702   2.564   5.209   6.855  0.0007  0.8621  0.5432
 6689TIP3    H241703   2.676   5.289   6.793  0.5039  0.4943  0.9635
 6690TIP3   OH241704   6.318   0.772   2.347  0.3416  0.3405  0.2245
 6690TIP3    H141705   6.401   0.767   2.394  0.1599 -2.0768  0.4044
 6690TIP3    H241706   6.252   0.743   2.411 -0.0091 -2.2164 -1.1695
 6691TIP3   OH241707   1.723   3.351   2.169  0.3443  0.4770 -0.5767
 6691TIP3    H141708   1.686   3.320   2.252  0.2300  2.4439  0.1746
 6691TIP3    H241709   1.801   3.298   2.156 -0.8306 -1.3990 -0.4035
 6692TIP3   OH241710   2.392   4.900   1.346 -0.0940 -0.3243  0.1172
 6692TIP3    H141711   2.385   4.995   1.360  1.7389 -0.3500  1.5192
 6692TIP3    H241712   2.307   4.866   1.376  0.6925  0.5008  3.8394
 6693TIP3   OH241713   6.194   3.558   2.486  0.0625  0.0322  0.4957
 6693TIP3    H141714   6.217   3.482   2.433  1.3387  1.0802 -0.5373
 6693TIP3    H241715   6.275   3.579   2.534  0.3907  1.8991 -0.7624
 6694TIP3   OH241716   5.755   5.961   7.794  0.5728 -1.1005  0.0570
 6694TIP3    H141717   5.831   5.937   7.741 -1.0917 -1.9555 -2.0783
 6694TIP3    H241718   5.744   6.055   7.778  1.1871 -0.9633  0.4096
 6695TIP3   OH241719   5.560   5.352   0.437  0.4352  0.3147 -0.0326
 6695TIP3    H141720   5.526   5.441   0.451 -0.4969 -0.0294 -0.0507
 6695TIP3    H241721   5.622   5.362   0.365  0.2735  0.9405 -0.0962
 6696TIP3   OH241722   6.922   1.957   8.279 -0.6870 -0.2706  0.3831
 6696TIP3    H141723   6.998   1.980   8.332  0.0278  0.1690 -0.7816
 6696TIP3    H241724   6.850   1.951   8.341  0.5948 -2.4609  1.8024
 6697TIP3   OH241725   1.893   0.614   2.633  0.3914  0.4760 -0.1091
 6697TIP3    H141726   1.948   0.685   2.600 -1.5852  1.4281 -1.5961
 6697TIP3    H241727   1.952   0.541   2.646  1.9596  1.3716 -1.8213
 6698TIP3   OH241728   6.856   6.294   2.116 -0.0904  0.7010 -0.2085
 6698TIP3    H141729   6.798   6.225   2.149  2.1264 -0.3276  1.9002
 6698TIP3    H241730   6.817   6.375   2.147 -0.1964 -0.0054  1.6950
 6699TIP3   OH241731   4.525   2.554   0.003 -0.4027  0.3125  0.2311
 6699TIP3    H141732   4.579   2.476   0.015 -0.4008  0.4042  0.8362
 6699TIP3    H241733   4.570   2.605  -0.065  0.6353  0.7110  1.1969
 6700TIP3   OH241734   6.885   0.891   2.595 -0.0148  0.4882  0.0477
 6700TIP3    H141735   6.863   0.821   2.656  1.2329 -0.1772 -0.2162
 6700TIP3    H241736   6.862   0.857   2.509  2.8893 -0.7315 -0.3804
 6701TIP3   OH241737   2.088   6.908   1.338 -0.3286 -0.8258  0.2727
 6701TIP3    H141738   2.029   6.915   1.263  2.0408 -0.0001 -1.6359
 6701TIP3    H241739   2.107   6.815   1.346 -0.3757 -0.8950 -0.3648
 6702TIP3   OH241740   3.368   0.515   7.924  0.0273  0.1877  0.1643
 6702TIP3    H141741   3.342   0.447   7.861 -0.5061  0.2320  0.3301
 6702TIP3    H241742   3.308   0.503   7.998 -0.8969  1.6310 -0.3220
 6703TIP3   OH241743   3.061   2.556   1.882  0.1998  0.2499  0.1511
 6703TIP3    H141744   3.021   2.634   1.919 -1.3905 -0.4818  0.0972
 6703TIP3    H241745   3.129   2.588   1.824  0.7269  1.5117  1.4182
 6704TIP3   OH241746   0.119   1.528   2.133  0.1188 -0.4813  0.3708
 6704TIP3    H141747   0.029   1.496   2.127  0.2230 -0.5516 -0.8936
 6704TIP3    H241748   0.162   1.466   2.192 -1.6798  1.9501  4.7696
 6705TIP3   OH241749   1.120   1.515   1.505 -0.2541  0.0411  0.6292
 6705TIP3    H141750   1.064   1.474   1.570 -0.3267  2.3217  2.1030
 6705TIP3    H241751   1.063   1.528   1.429 -0.1965 -2.5336  0.0753
 6706TIP3   OH241752   3.138   3.343   1.625 -0.0009  0.1814  0.4145
 6706TIP3    H141753   3.071   3.409   1.608  0.3907  0.7654  1.1219
 6706TIP3    H241754   3.216   3.392   1.648 -0.2178 -0.5223  2.9267
 6707TIP3   OH241755   2.265   2.247   1.128 -0.5884  0.2501  0.3197
 6707TIP3    H141756   2.249   2.199   1.047 -1.6549 -0.0379  0.6903
 6707TIP3    H241757   2.288   2.180   1.192  0.5904  0.5096  0.1868
 6708TIP3   OH241758   4.591   1.026   8.395 -0.0557  0.0843  0.1670
 6708TIP3    H141759   4.630   1.101   8.440  2.0447 -0.4281 -0.6583
 6708TIP3    H241760   4.546   1.065   8.320  2.3224  0.5348 -1.1547
 6709TIP3   OH241761   1.948   2.613   1.476  0.4042  0.1128 -0.1707
 6709TIP3    H141762   1.992   2.698   1.467 -1.7193  1.4054  0.8195
 6709TIP3    H241763   1.968   2.585   1.566  1.1253 -0.4640 -0.5060
 6710TIP3   OH241764   5.111   4.023   1.076 -0.2045 -0.8480  0.0200
 6710TIP3    H141765   5.184   4.070   1.117 -0.8856  0.8665 -0.6574
 6710TIP3    H241766   5.111   3.937   1.119  1.8455 -0.6967  0.4353
 6711TIP3   OH241767   5.268   4.656   2.934 -0.2815  0.3796 -0.0987
 6711TIP3    H141768   5.192   4.715   2.938 -0.2512  0.3626  1.2351
 6711TIP3    H241769   5.232   4.570   2.954  0.3488  0.6676  2.5697
 6712TIP3   OH241770   1.216   5.099   0.785 -0.3820 -0.2369  0.0586
 6712TIP3    H141771   1.121   5.088   0.781 -0.2857 -0.7164 -1.5697
 6712TIP3    H241772   1.243   5.105   0.693  1.1052  0.4668  0.5195
 6713TIP3   OH241773   3.459   5.820   7.880  0.4147 -0.0972 -0.3878
 6713TIP3    H141774   3.376   5.864   7.900  0.6663 -0.6522  2.1307
 6713TIP3    H241775   3.439   5.726   7.889  1.0029 -0.3141 -1.1797
 6714TIP3   OH241776   0.462   6.144   1.725 -0.8880  0.5697 -0.2026
 6714TIP3    H141777   0.445   6.153   1.631 -1.2502 -0.0602 -0.2047
 6714TIP3    H241778   0.384   6.182   1.767 -1.6114 -0.8495 -0.1926
 6715TIP3   OH241779   0.044   1.194   0.737  0.4268 -0.6179  0.3043
 6715TIP3    H141780   0.030   1.283   0.768  2.1785 -0.0235 -0.4564
 6715TIP3    H241781  -0.034   1.173   0.687 -0.1737  0.3326  0.8073
 6716TIP3   OH241782   3.784   4.402   2.012  0.4521 -0.2935  0.7146
 6716TIP3    H141783   3.726   4.427   2.084 -0.1941  0.0363  0.0955
 6716TIP3    H241784   3.864   4.372   2.054  0.1390  0.0501  1.5628
 6717TIP3   OH241785   1.266   3.881   1.360 -0.7347 -0.4243  0.5670
 6717TIP3    H141786   1.207   3.809   1.382 -1.1537 -0.5709 -0.9014
 6717TIP3    H241787   1.227   3.920   1.282 -0.6375  1.5553  1.4574
 6718TIP3   OH241788   1.918   2.609   1.970 -0.3318 -0.0154  0.0382
 6718TIP3    H141789   1.971   2.687   1.956  1.7311 -1.3969 -0.2791
 6718TIP3    H241790   1.922   2.592   2.064  1.0097 -0.8738 -0.1421
 6719TIP3   OH241791   1.866   1.337   7.066 -1.0187  0.2722  0.2804
 6719TIP3    H141792   1.778   1.312   7.093 -0.4547 -1.4616  0.6730
 6719TIP3    H241793   1.854   1.382   6.982 -2.1318 -2.1480 -0.9585
 6720TIP3   OH241794   6.396   5.931   1.005  0.9325 -0.4664  0.3852
 6720TIP3    H141795   6.368   5.985   1.079 -0.7218 -1.6695  0.6975
 6720TIP3    H241796   6.404   5.843   1.042  0.6490 -0.9774 -0.7384
 6721TIP3   OH241797   3.126   1.211   2.233  0.2301 -0.4061  0.0063
 6721TIP3    H141798   3.200   1.162   2.199 -0.0805 -1.5394  0.9054
 6721TIP3    H241799   3.065   1.144   2.264 -1.5385  0.4499 -1.4096
 6722TIP3   OH241800   4.055   5.614   1.086 -0.0634  0.2915  0.0658
 6722TIP3    H141801   3.963   5.589   1.088 -0.3964  1.2967 -1.1370
 6722TIP3    H241802   4.069   5.665   1.166  0.5249 -3.1674  2.3589
 6723TIP3   OH241803   2.398   5.479   1.400  0.2940 -0.6334  0.2469
 6723TIP3    H141804   2.425   5.483   1.308  1.6511 -1.4017  0.5942
 6723TIP3    H241805   2.479   5.486   1.449 -0.4076 -0.4010  1.4001
 6724TIP3   OH241806   3.413   3.465   3.036  0.7147  0.0505  0.1404
 6724TIP3    H141807   3.438   3.515   2.958  1.0123 -0.6630 -0.2281
 6724TIP3    H241808   3.484   3.402   3.047  0.3990 -0.2135  0.6699
 6725TIP3   OH241809   5.072   5.162   0.543 -0.7214  0.1352 -0.2964
 6725TIP3    H141810   5.139   5.147   0.609  0.6487 -1.2132 -1.8694
 6725TIP3    H241811   4.997   5.110   0.572 -1.2084  1.7852  1.5643
 6726TIP3   OH241812   4.642   1.337   7.502 -0.0946 -0.0167  0.5468
 6726TIP3    H141813   4.659   1.251   7.464  1.4252  1.3904 -2.3347
 6726TIP3    H241814   4.559   1.364   7.463  0.7865  0.8710 -0.8074
 6727TIP3   OH241815   6.107   6.236   0.051  0.5654  0.8293  0.3720
 6727TIP3    H141816   6.028   6.182   0.050 -0.7193  2.5430 -2.1580
 6727TIP3    H241817   6.175   6.180   0.013 -0.0681  0.1251  0.2544
 6728TIP3   OH241818   2.771   0.809   7.836 -0.4728 -0.7028 -0.0757
 6728TIP3    H141819   2.849   0.795   7.782 -0.4976  0.7949 -0.5674
 6728TIP3    H241820   2.698   0.792   7.778 -0.5248 -1.7899  0.2941
 6729TIP3   OH241821   1.124   1.107   2.262  0.6546  0.1783 -0.3821
 6729TIP3    H141822   1.103   1.088   2.171 -0.3779  1.3784 -0.4225
 6729TIP3    H241823   1.103   1.200   2.272 -0.2001 -0.1592  1.3215
 6730TIP3   OH241824   2.061   3.506   6.906 -0.5333 -0.4196  0.2283
 6730TIP3    H141825   2.118   3.487   6.831 -1.2817 -1.4197 -0.1090
 6730TIP3    H241826   1.994   3.565   6.871 -0.4219 -0.2402  0.3155
 6731TIP3   OH241827   5.375   5.080   0.599  0.1310  0.4385  0.4150
 6731TIP3    H141828   5.368   5.149   0.664  1.0324  0.4327  0.5340
 6731TIP3    H241829   5.425   5.010   0.642  0.4731  0.3108 -0.1675
 6732TIP3   OH241830   6.592   3.157   7.538  0.2172 -0.1300 -0.2748
 6732TIP3    H141831   6.662   3.147   7.602 -0.7430  0.7181  0.9425
 6732TIP3    H241832   6.623   3.226   7.479  0.9206 -0.6202 -0.4905
 6733TIP3   OH241833   6.383   2.364   0.585 -0.2373 -0.0901  0.4774
 6733TIP3    H141834   6.425   2.306   0.521  0.0019  0.6323 -0.0349
 6733TIP3    H241835   6.331   2.305   0.640  0.7199 -0.9029  0.5587
 6734TIP3   OH241836   0.676   3.736   0.681 -0.4337 -0.4124 -0.3191
 6734TIP3    H141837   0.739   3.709   0.615 -0.7907 -2.1121  0.0055
 6734TIP3    H241838   0.593   3.743   0.634 -0.3048  0.3944 -0.4460
 6735TIP3   OH241839   5.762   3.947   0.287 -0.1129  0.5085  0.0182
 6735TIP3    H141840   5.811   3.881   0.336 -1.4816 -1.0202 -0.5643
 6735TIP3    H241841   5.692   3.974   0.347 -1.1904 -0.6296 -0.6851
 6736TIP3   OH241842   2.780   4.786   7.631 -0.0288 -0.2982  0.2728
 6736TIP3    H141843   2.859   4.798   7.685 -0.3364 -2.0389  1.1782
 6736TIP3    H241844   2.813   4.755   7.547  0.2887 -0.5207  0.4766
 6737TIP3   OH241845   0.695   5.974   0.823  0.0352 -0.4438 -0.0190
 6737TIP3    H141846   0.724   6.055   0.865 -0.3287 -0.5203  0.3842
 6737TIP3    H241847   0.725   5.982   0.733 -0.6058  0.4495 -0.1581
 6738TIP3   OH241848   4.435   6.438   8.270  0.1314  0.4776 -0.0084
 6738TIP3    H141849   4.360   6.380   8.283  0.0778  0.6688  0.6060
 6738TIP3    H241850   4.490   6.393   8.206 -0.0740 -0.0909  0.2076
 6739TIP3   OH241851   6.655   3.259   1.053 -0.0673  0.5353 -0.1114
 6739TIP3    H141852   6.585   3.313   1.014 -0.2253 -0.0456 -0.6530
 6739TIP3    H241853   6.636   3.260   1.147 -1.4598 -0.5025 -0.3441
 6740TIP3   OH241854   2.797   0.030   1.884 -0.4269  0.2010 -0.5520
 6740TIP3    H141855   2.709   0.012   1.917 -0.9392  0.0263 -1.9599
 6740TIP3    H241856   2.845  -0.052   1.898 -1.2775 -0.6292 -2.2221
 6741TIP3   OH241857   0.170   4.856   7.601 -0.3441  0.0474  0.6477
 6741TIP3    H141858   0.261   4.842   7.627  0.0609 -0.3496 -0.8744
 6741TIP3    H241859   0.170   4.941   7.557 -1.0745  0.8614  2.1343
 6742TIP3   OH241860   4.261   5.476   1.915  0.0743 -0.1550 -0.8219
 6742TIP3    H141861   4.265   5.381   1.906 -0.1638 -0.2415 -0.0824
 6742TIP3    H241862   4.240   5.490   2.007 -0.9707  0.5855 -1.1513
 6743TIP3   OH241863   1.729   4.232   0.673 -0.5041 -0.4363 -0.0212
 6743TIP3    H141864   1.742   4.222   0.767 -0.1641  0.0929 -0.0048
 6743TIP3    H241865   1.717   4.143   0.641 -0.4787 -0.6330  0.5021
 6744TIP3   OH241866   0.462   2.970   0.062 -0.5546  0.0575 -0.2713
 6744TIP3    H141867   0.526   3.026   0.019 -0.5397 -1.6479 -2.7045
 6744TIP3    H241868   0.514   2.912   0.117 -0.4545  1.4555  1.1560
 6745TIP3   OH241869   4.161   5.372   2.405  0.6224  0.0911  0.7024
 6745TIP3    H141870   4.156   5.277   2.415 -1.3915  0.3105  2.2908
 6745TIP3    H241871   4.083   5.394   2.354  0.7225  0.9707  0.9240
 6746TIP3   OH241872   2.631   4.397   6.822 -0.2975  0.1234  0.2973
 6746TIP3    H141873   2.601   4.346   6.748 -1.5759  1.3805 -0.1037
 6746TIP3    H241874   2.699   4.455   6.786 -0.7501  0.5685  0.1557
 6747TIP3   OH241875   6.338   6.316   8.182 -0.0023 -0.1805  0.0193
 6747TIP3    H141876   6.420   6.284   8.219 -0.5300 -0.7260  0.7563
 6747TIP3    H241877   6.364   6.388   8.124  0.8503  0.7487  1.5036
 6748TIP3   OH241878   3.679   3.486   1.786  0.3157  0.3955 -0.2981
 6748TIP3    H141879   3.721   3.569   1.808  0.0102  1.0165 -1.9494
 6748TIP3    H241880   3.631   3.504   1.705 -2.0369 -0.6388  0.7771
 6749TIP3   OH241881   4.203   6.821   2.793 -0.0673 -0.1308 -0.4302
 6749TIP3    H141882   4.229   6.749   2.851  0.2016 -0.3754 -0.8472
 6749TIP3    H241883   4.264   6.892   2.815 -0.1660 -0.1156 -0.1997
 6750TIP3   OH241884   2.506   2.435   7.945 -0.1802  0.4220  0.3192
 6750TIP3    H141885   2.458   2.506   7.902  0.3233  0.4029 -0.3007
 6750TIP3    H241886   2.499   2.454   8.038 -0.9323  0.7056  0.2129
 6751TIP3   OH241887   5.303   0.132   2.098  0.1798 -1.1933 -0.1912
 6751TIP3    H141888   5.371   0.191   2.066  0.1822 -0.7499  0.5950
 6751TIP3    H241889   5.341   0.045   2.088  0.7108 -0.9776 -0.1331
 6752TIP3   OH241890   2.344   4.833   6.850 -0.3397 -0.0317  0.0221
 6752TIP3    H141891   2.419   4.893   6.848 -0.0230 -0.4044 -2.4029
 6752TIP3    H241892   2.267   4.890   6.848 -0.0551  0.3385 -0.9652
 6753TIP3   OH241893   3.988   1.242   1.707  0.3987 -0.5033  0.7999
 6753TIP3    H141894   3.985   1.155   1.748 -3.7828 -0.2654  1.4396
 6753TIP3    H241895   4.005   1.224   1.615 -2.5807 -2.3872  0.4716
 6754TIP3   OH241896   0.665   4.218   3.054 -0.6118 -0.1041  0.5490
 6754TIP3    H141897   0.619   4.256   2.980 -3.4729 -0.4591  1.9709
 6754TIP3    H241898   0.742   4.272   3.066 -1.2891  1.3498 -1.2749
 6755TIP3   OH241899   4.923   4.141   0.662  0.4725  0.3556  0.2651
 6755TIP3    H141900   4.862   4.213   0.677  3.2549  3.1583 -0.8084
 6755TIP3    H241901   4.907   4.114   0.572  0.8949  1.2110 -0.0744
 6756TIP3   OH241902   1.878   1.498   1.419 -0.6875 -0.3864  0.6304
 6756TIP3    H141903   1.873   1.589   1.390  0.1839 -0.2650  0.8264
 6756TIP3    H241904   1.790   1.464   1.407 -0.8170  0.2358 -0.2591
 6757TIP3   OH241905   4.418   4.502   1.927  0.0402 -0.2001 -0.1451
 6757TIP3    H141906   4.375   4.552   1.997 -0.4249 -0.9630  0.1257
 6757TIP3    H241907   4.394   4.548   1.847 -2.0549 -1.1060 -0.0930
 6758TIP3   OH241908   5.449   3.212   8.096 -0.3974  0.0303  0.1791
 6758TIP3    H141909   5.369   3.235   8.143 -1.0216  0.5315 -1.0821
 6758TIP3    H241910   5.426   3.222   8.004  0.9170 -0.5106 -0.2250
 6759TIP3   OH241911   2.105   3.570   1.983  0.4664  0.3858  0.1601
 6759TIP3    H141912   2.135   3.482   2.008 -0.0123 -0.0483 -0.7526
 6759TIP3    H241913   2.124   3.624   2.060 -1.2587 -0.9631  1.6295
 6760TIP3   OH241914   2.722   1.794   2.746  0.2271 -0.6966 -0.3784
 6760TIP3    H141915   2.631   1.764   2.749  0.4698 -1.6083 -1.5574
 6760TIP3    H241916   2.774   1.714   2.734  1.1009 -0.0781 -0.8273
 6761TIP3   OH241917   6.713   6.804   3.097  0.2935  0.4753  0.1314
 6761TIP3    H141918   6.673   6.889   3.082  0.5647  0.5844  0.0160
 6761TIP3    H241919   6.639   6.744   3.106  0.0613  0.9160  1.4790
 6762TIP3   OH241920   5.378   0.690   1.232  0.2546 -0.3728  0.3273
 6762TIP3    H141921   5.450   0.745   1.202  0.9377 -0.9709  0.8280
 6762TIP3    H241922   5.398   0.603   1.197 -0.7700 -0.3339 -0.3938
 6763TIP3   OH241923   3.828   4.390   1.078  0.2253 -0.2542  0.7704
 6763TIP3    H141924   3.777   4.438   1.143 -1.6657 -1.0609 -0.0372
 6763TIP3    H241925   3.824   4.299   1.106  2.6712 -0.2017  1.5640
 6764TIP3   OH241926   3.607   6.154   1.040  0.2238  0.0966  0.1875
 6764TIP3    H141927   3.625   6.103   1.119 -2.0100 -1.6268 -0.3380
 6764TIP3    H241928   3.645   6.103   0.969 -0.6698 -0.0512 -0.1897
 6765TIP3   OH241929   4.810   3.402   2.035  0.2267  0.4333 -0.3828
 6765TIP3    H141930   4.850   3.396   2.122 -0.8977  0.7644  0.1785
 6765TIP3    H241931   4.884   3.406   1.975  1.0384  0.9581  0.6144
 6766TIP3   OH241932   2.108   3.723   0.877  0.0673  0.1828 -0.1270
 6766TIP3    H141933   2.051   3.646   0.879 -1.9760  1.6002 -0.6195
 6766TIP3    H241934   2.189   3.694   0.920  0.8995 -3.3626 -3.4598
 6767TIP3   OH241935   6.603   4.537   2.543  0.4678  0.1434  0.1701
 6767TIP3    H141936   6.553   4.597   2.598  2.2706  0.4742  1.5261
 6767TIP3    H241937   6.595   4.573   2.454 -1.3159  0.4021  0.4035
 6768TIP3   OH241938   3.983   2.127   7.140  0.3628 -0.4718  0.1262
 6768TIP3    H141939   3.938   2.130   7.225 -0.5540 -0.8845 -0.3306
 6768TIP3    H241940   3.955   2.207   7.095  0.3748 -0.5555 -0.0286
 6769TIP3   OH241941   4.427   1.704   7.304  1.1569  0.6843  0.2624
 6769TIP3    H141942   4.511   1.743   7.277  1.2974 -0.7391 -1.5111
 6769TIP3    H241943   4.410   1.637   7.238 -0.9880  0.3849  1.0701
 6770TIP3   OH241944   0.222   1.806   3.243 -0.0851  0.2463  0.1916
 6770TIP3    H141945   0.154   1.743   3.219  0.2948  0.0136 -0.2829
 6770TIP3    H241946   0.175   1.888   3.257 -0.6194 -0.1910  1.0686
 6771TIP3   OH241947   6.925   2.134   7.784  0.6177  0.7616 -0.7117
 6771TIP3    H141948   7.018   2.134   7.760  0.7680  0.1326 -0.1436
 6771TIP3    H241949   6.923   2.164   7.875  0.3383  0.0176 -0.4642
 6772TIP3   OH241950   2.876   1.486   0.180 -0.0795 -0.2302 -0.0788
 6772TIP3    H141951   2.900   1.552   0.245 -0.3009 -0.1320 -0.0973
 6772TIP3    H241952   2.951   1.483   0.120  0.0407 -0.1813  0.0686
 6773TIP3   OH241953   4.430   0.597   8.293  0.0544 -0.0335  0.4900
 6773TIP3    H141954   4.366   0.621   8.359  0.9389  0.5676  1.1477
 6773TIP3    H241955   4.378   0.566   8.219 -0.9490 -0.6538  1.4334
 6774TIP3   OH241956   2.861   2.531   8.417 -0.3136 -0.3003  0.2610
 6774TIP3    H141957   2.950   2.522   8.383 -0.0082 -1.1748  1.2264
 6774TIP3    H241958   2.837   2.443   8.446 -1.5824 -0.1225 -0.1697
 6775TIP3   OH241959   6.235   0.802   1.098 -0.2454 -0.0978 -1.1388
 6775TIP3    H141960   6.209   0.893   1.109  0.9133 -0.0209  1.6578
 6775TIP3    H241961   6.329   0.806   1.078 -0.2685 -0.6819 -1.3957
 6776TIP3   OH241962   2.332   2.380   0.628  0.0644 -0.3927 -0.7031
 6776TIP3    H141963   2.408   2.338   0.668  0.4161  0.8525  0.0033
 6776TIP3    H241964   2.276   2.307   0.601  1.8029 -1.3583 -1.8957
 6777TIP3   OH241965   2.617   1.016   8.054 -0.2953  0.1302 -0.3669
 6777TIP3    H141966   2.681   1.009   8.125 -1.2550 -1.0359  0.4195
 6777TIP3    H241967   2.647   0.952   7.989 -0.7223 -0.5077  0.0583
 6778TIP3   OH241968   3.072   2.509   0.921  0.0907  0.3064  0.0587
 6778TIP3    H141969   2.996   2.472   0.966 -0.0960 -0.1796 -0.6409
 6778TIP3    H241970   3.117   2.434   0.883  1.5930  0.4643  1.4303
 6779TIP3   OH241971   3.226   4.391   1.566 -0.5212 -0.4022 -0.5448
 6779TIP3    H141972   3.245   4.313   1.514 -1.4844 -1.0034 -0.0319
 6779TIP3    H241973   3.130   4.394   1.569 -0.5241  1.4115 -1.4586
 6780TIP3   OH241974   1.781   0.005   0.904  0.4624  0.0826 -0.4242
 6780TIP3    H141975   1.788   0.019   0.810 -0.4141  1.0924 -0.3682
 6780TIP3    H241976   1.834   0.075   0.943  1.2856 -0.6747 -0.1652
 6781TIP3   OH241977   3.007   1.061   1.248  0.1883 -0.1316 -0.3005
 6781TIP3    H141978   3.088   1.024   1.282 -0.4042 -0.6826  0.5418
 6781TIP3    H241979   2.990   1.136   1.304 -1.0509 -1.3299  1.0157
 6782TIP3   OH241980   0.601   3.063   1.799  0.3498 -0.4037 -0.5072
 6782TIP3    H141981   0.540   2.994   1.823  1.9138 -1.5991  0.2500
 6782TIP3    H241982   0.613   3.113   1.880 -1.6895  1.6069 -1.3260
 6783TIP3   OH241983   5.155   1.775   8.207  0.2248  0.6084  0.0140
 6783TIP3    H141984   5.250   1.783   8.213  0.5462 -1.1224 -1.9125
 6783TIP3    H241985   5.125   1.770   8.297  1.9129  1.4983  0.6573
 6784TIP3   OH241986   0.429   2.728   0.473  0.1289 -0.2000 -0.7096
 6784TIP3    H141987   0.447   2.656   0.533 -0.7909 -0.3697 -0.6218
 6784TIP3    H241988   0.412   2.685   0.389 -1.0656 -0.1473 -0.5115
 6785TIP3   OH241989   3.863   1.576   1.120 -0.1661  0.0985  0.1599
 6785TIP3    H141990   3.927   1.513   1.089  1.3547  1.0317  1.2384
 6785TIP3    H241991   3.817   1.605   1.041  3.2380  2.0633 -1.3576
 6786TIP3   OH241992   4.629   3.134   2.242 -0.2020 -0.5645 -0.0745
 6786TIP3    H141993   4.578   3.165   2.168  0.5654 -0.5466 -0.6102
 6786TIP3    H241994   4.566   3.089   2.298 -1.0806  0.7803  0.0485
 6787TIP3   OH241995   6.329   4.528   1.741  0.2208  0.4388  0.0930
 6787TIP3    H141996   6.345   4.602   1.799  2.5449 -0.4611  0.7210
 6787TIP3    H241997   6.315   4.454   1.800  0.7169 -0.1273 -0.4869
 6788TIP3   OH241998   6.821   6.554   1.259  0.2650 -0.0320 -0.2765
 6788TIP3    H141999   6.875   6.589   1.330  0.4506 -1.1902  0.1638
 6788TIP3    H242000   6.854   6.465   1.245 -0.9005 -0.4193 -0.6387
 6789TIP3   OH242001   3.820   1.027   0.051 -0.0813  0.4997 -0.6585
 6789TIP3    H142002   3.873   1.058   0.125 -2.2185  2.8139  0.0475
 6789TIP3    H242003   3.741   0.991   0.091 -0.2594 -0.3790 -1.7532
 6790TIP3   OH242004   4.411   1.538   1.425 -0.3710  0.0356 -0.3005
 6790TIP3    H142005   4.351   1.558   1.353 -1.6107 -1.1430  0.3755
 6790TIP3    H242006   4.370   1.577   1.502 -0.3276 -0.8802  0.1900
 6791TIP3   OH242007   4.458   5.094   7.756  0.0021 -0.4614  0.0384
 6791TIP3    H142008   4.400   5.109   7.681  0.3558  0.1220 -0.1237
 6791TIP3    H242009   4.509   5.175   7.764 -0.9375  0.0225  1.7142
 6792TIP3   OH242010   2.061   2.871   0.753 -0.1901 -0.4854 -0.2255
 6792TIP3    H142011   1.978   2.890   0.710 -1.2730 -1.6786  1.2057
 6792TIP3    H242012   2.038   2.862   0.846  1.8084  0.7030  0.4548
 6793TIP3   OH242013   2.244   5.793   8.295 -0.5543 -0.1866 -0.2545
 6793TIP3    H142014   2.297   5.834   8.364  0.2034 -0.7353 -0.4929
 6793TIP3    H242015   2.302   5.726   8.258 -1.1238 -0.2104 -1.1098
 6794TIP3   OH242016   4.031   4.248   0.812  0.8103 -0.2610 -0.7389
 6794TIP3    H142017   3.955   4.284   0.765  1.2479  0.7243 -0.7229
 6794TIP3    H242018   3.994   4.183   0.871 -0.1846  1.0133  0.1099
 6795TIP3   OH242019   2.339   4.637   0.459  0.3430 -0.3433  0.3989
 6795TIP3    H142020   2.418   4.616   0.509  1.3498 -2.6452 -1.9017
 6795TIP3    H242021   2.353   4.726   0.429  2.2659 -0.7998 -0.2081
 6796TIP3   OH242022   6.960   1.163   2.568  0.1012  0.0059 -0.6253
 6796TIP3    H142023   6.939   1.071   2.584 -1.6085  0.2997 -1.0401
 6796TIP3    H242024   6.891   1.212   2.613  2.1651  1.2251  1.5098
 6797TIP3   OH242025   5.952   5.597   7.799 -0.4550 -0.2546 -0.2495
 6797TIP3    H142026   5.890   5.622   7.731 -0.3667 -0.6700 -0.4878
 6797TIP3    H242027   6.037   5.630   7.768 -0.5238  0.1487 -0.0141
 6798TIP3   OH242028   2.963   5.611   1.201  0.7431  0.3432 -0.2266
 6798TIP3    H142029   2.965   5.572   1.288  0.5882 -0.6119 -0.6341
 6798TIP3    H242030   2.877   5.653   1.196  0.6117  0.1058 -0.0318
 6799TIP3   OH242031   3.301   6.712   0.689 -0.0376 -0.5699  0.1620
 6799TIP3    H142032   3.268   6.628   0.721  0.7334 -0.8184  0.3067
 6799TIP3    H242033   3.221   6.762   0.669 -0.5251 -0.6544  1.8090
 6800TIP3   OH242034   1.908   3.188   0.836  0.0114  0.1823 -0.1608
 6800TIP3    H142035   1.962   3.207   0.913  1.0942 -0.1119 -0.8264
 6800TIP3    H242036   1.969   3.192   0.762 -0.2716 -2.9079 -0.6912
 6801TIP3   OH242037   6.861   6.169   0.481 -0.4075  0.0528 -0.3897
 6801TIP3    H142038   6.934   6.218   0.519  0.8986 -0.9151 -1.5374
 6801TIP3    H242039   6.835   6.219   0.404 -1.1059  0.4789  0.1018
 6802TIP3   OH242040   2.502   0.066   0.730  0.2043 -0.6649 -0.1270
 6802TIP3    H142041   2.494  -0.015   0.782  1.5122 -0.2195  0.8299
 6802TIP3    H242042   2.491   0.037   0.639  0.2361 -1.8510  0.2217
 6803TIP3   OH242043   4.881   0.872   0.726 -0.1948  0.0849  0.0110
 6803TIP3    H142044   4.850   0.827   0.648  2.2937  0.1942 -1.1268
 6803TIP3    H242045   4.927   0.804   0.776 -0.7608  0.2728  0.7969
 6804TIP3   OH242046   3.629   3.635   1.517  0.5246  0.3001  0.3783
 6804TIP3    H142047   3.622   3.676   1.431 -3.2876  3.0263  1.7744
 6804TIP3    H242048   3.680   3.696   1.569  3.6344 -1.7636  0.0858
 6805TIP3   OH242049   0.147   0.267   8.023 -0.0754 -0.2801 -0.3703
 6805TIP3    H142050   0.240   0.286   8.039  0.5232 -2.0580 -1.4438
 6805TIP3    H242051   0.115   0.230   8.105  0.4371 -0.5464 -0.2859
 6806TIP3   OH242052   1.572   1.516   7.702  0.3476 -0.1080 -0.0849
 6806TIP3    H142053   1.638   1.530   7.635  2.0657 -1.6406  1.1645
 6806TIP3    H242054   1.596   1.575   7.773 -0.8500  0.7615 -0.3678
 6807TIP3   OH242055   2.051   0.287   7.062  1.0057  0.2822 -0.1517
 6807TIP3    H142056   2.091   0.339   6.992  0.8316  0.2262 -0.2922
 6807TIP3    H242057   2.124   0.235   7.097  1.0747  0.2393 -0.3538
 6808TIP3   OH242058   3.083   1.930   7.977  0.1322  0.1733  0.5874
 6808TIP3    H142059   3.074   1.949   7.883  1.7992  0.1778  0.4032
 6808TIP3    H242060   3.073   1.835   7.983  1.4093  0.0016  0.2012
 6809TIP3   OH242061   1.752   0.702   7.854 -0.2815 -0.1569 -0.2722
 6809TIP3    H142062   1.704   0.770   7.807  0.0492 -0.4408 -1.0387
 6809TIP3    H242063   1.739   0.722   7.946  0.6786  1.5716 -0.4678
 6810TIP3   OH242064   6.907   2.575   1.678 -0.2774  0.4637  0.2052
 6810TIP3    H142065   6.877   2.599   1.766 -0.7100  0.1777  0.1421
 6810TIP3    H242066   6.916   2.658   1.632 -2.5988  0.5006 -0.2813
 6811TIP3   OH242067   3.993   2.156   7.747  0.1574  0.6006 -0.1256
 6811TIP3    H142068   4.078   2.155   7.791 -0.0934 -0.3407  0.3555
 6811TIP3    H242069   3.999   2.229   7.685  2.1323 -0.7925 -1.6950
 6812TIP3   OH242070   4.378   0.742   7.973  0.9765 -0.1906  0.3311
 6812TIP3    H142071   4.369   0.654   7.936 -0.1115 -0.6058  1.4947
 6812TIP3    H242072   4.429   0.790   7.909  0.0723 -1.1732 -1.1826
 6813TIP3   OH242073   4.617   5.560   2.103 -0.7389 -0.0864 -0.1723
 6813TIP3    H142074   4.620   5.656   2.102 -1.8347 -0.0155  0.9603
 6813TIP3    H242075   4.683   5.533   2.039  0.3868  1.4053  0.3010
 6814TIP3   OH242076   0.906   4.946   0.373  0.8727  0.0633  0.8329
 6814TIP3    H142077   0.972   4.933   0.441 -0.1874 -2.5851  1.4907
 6814TIP3    H242078   0.954   4.939   0.291  1.8186  1.0222  1.2827
 6815TIP3   OH242079   4.726   4.418   1.333  0.0707  0.3964 -0.2993
 6815TIP3    H142080   4.690   4.367   1.260 -0.8423 -0.3715  0.6508
 6815TIP3    H242081   4.662   4.407   1.403 -0.3223  3.1552 -0.1357
 6816TIP3   OH242082   6.608   6.590   2.143  0.2096 -0.6655 -1.0165
 6816TIP3    H142083   6.573   6.506   2.172 -0.2921 -0.3737 -0.7563
 6816TIP3    H242084   6.693   6.598   2.187 -1.2504  0.5331  1.8077
 6817TIP3   OH242085   6.314   5.138   2.513  0.3583 -0.1874  0.1050
 6817TIP3    H142086   6.275   5.219   2.545  0.5507  0.3229 -0.9188
 6817TIP3    H242087   6.268   5.068   2.561 -0.4277  0.4827  0.3437
 6818TIP3   OH242088   0.308   4.886   0.413  0.9117  0.3349 -0.0839
 6818TIP3    H142089   0.214   4.899   0.403  1.0103  1.8006  0.5239
 6818TIP3    H242090   0.334   4.835   0.337 -0.3723 -0.1011 -0.2525
 6819TIP3   OH242091   3.353   5.764   2.059 -0.0102  0.3223  0.1393
 6819TIP3    H142092   3.357   5.681   2.013 -0.5271  0.7374 -0.6764
 6819TIP3    H242093   3.442   5.801   2.051  0.4240 -0.4505  1.1215
 6820TIP3   OH242094   3.164   0.460   2.610  0.3050 -0.0764 -0.1759
 6820TIP3    H142095   3.117   0.510   2.677 -1.1146 -0.3047 -0.9507
 6820TIP3    H242096   3.102   0.393   2.583 -0.0158  1.2789 -3.1735
 6821TIP3   OH242097   6.075   2.800   1.802 -0.0767  0.2763 -0.2989
 6821TIP3    H142098   6.096   2.742   1.729  0.2106  0.7346 -0.5870
 6821TIP3    H242099   6.022   2.746   1.861  0.5784 -0.4264 -0.3325
 6822TIP3   OH242100   6.846   3.932   2.885 -0.0624 -0.0793 -0.2647
 6822TIP3    H142101   6.785   4.005   2.882  1.6107  1.3912 -0.0085
 6822TIP3    H242102   6.868   3.923   2.978  1.2876  0.4564 -0.5136
 6823TIP3   OH242103   1.370   4.257   8.177 -0.4484  0.8949  0.5922
 6823TIP3    H142104   1.446   4.290   8.129  0.4642 -1.9891 -0.1286
 6823TIP3    H242105   1.407   4.221   8.258 -1.5084  2.2726  1.7432
 6824TIP3   OH242106   0.867   3.041   1.680 -0.4389 -0.4165  0.9104
 6824TIP3    H142107   0.789   3.010   1.725  0.5284 -1.6577  1.8190
 6824TIP3    H242108   0.930   3.057   1.751 -0.1682  1.5501  0.2873
 6825TIP3   OH242109   0.817   1.142   2.448  0.2471 -0.3360  0.1742
 6825TIP3    H142110   0.863   1.059   2.463 -0.3049 -0.2345  2.7999
 6825TIP3    H242111   0.727   1.124   2.474 -0.2680  0.6656 -0.8235
 6826TIP3   OH242112   6.928   1.719   7.720  0.0563  0.4431 -0.3677
 6826TIP3    H142113   6.909   1.728   7.814  1.3139  0.2037 -0.0664
 6826TIP3    H242114   6.932   1.625   7.705  0.2219  0.4851 -0.5899
 6827TIP3   OH242115   5.734   3.496   7.833  0.1548  0.0323  0.3587
 6827TIP3    H142116   5.751   3.546   7.913  0.7117 -0.1327  0.3512
 6827TIP3    H242117   5.684   3.556   7.778 -0.3156  0.1111  0.8687
 6828TIP3   OH242118   1.215   5.518   1.522 -0.5154  0.2289  0.3500
 6828TIP3    H142119   1.216   5.488   1.432 -2.9226  1.6047 -0.2189
 6828TIP3    H242120   1.194   5.440   1.574  1.2492 -0.6449 -0.1909
 6829TIP3   OH242121   5.362   6.448   2.541  0.0594  1.2061 -0.9676
 6829TIP3    H142122   5.450   6.469   2.569 -0.4695  0.8902  1.0645
 6829TIP3    H242123   5.363   6.353   2.526 -0.5977  0.6512  1.9470
 6830TIP3   OH242124   1.474   5.365   0.923 -0.1525  0.2437 -0.7680
 6830TIP3    H142125   1.488   5.368   0.828 -0.3590  1.5826 -0.7840
 6830TIP3    H242126   1.479   5.457   0.950  1.5781 -0.2455  0.7842
 6831TIP3   OH242127   4.917   3.209   1.666  0.3381  0.0203  0.4004
 6831TIP3    H142128   4.981   3.182   1.732 -0.4277 -0.7620  0.8514
 6831TIP3    H242129   4.892   3.298   1.692  2.2568  0.9221 -0.6076
 6832TIP3   OH242130   2.885   4.375   7.861 -0.0186 -0.2034  0.3238
 6832TIP3    H142131   2.911   4.429   7.786 -1.8571  0.4263  0.0725
 6832TIP3    H242132   2.948   4.397   7.930  1.5273 -0.5773 -0.9155
 6833TIP3   OH242133   5.735   0.531   2.814 -0.2011  0.3266 -0.0051
 6833TIP3    H142134   5.776   0.519   2.900 -0.6444  1.2192  0.3387
 6833TIP3    H242135   5.704   0.622   2.814  0.7315  0.6718 -1.5175
 6834TIP3   OH242136   3.464   3.549   1.986 -0.8102  0.0895  0.2558
 6834TIP3    H142137   3.430   3.628   2.028 -0.0839  0.0736  0.8808
 6834TIP3    H242138   3.546   3.576   1.946 -2.0342  0.3896 -2.1958
 6835TIP3   OH242139   0.673   3.550   8.464  0.2667 -0.3006 -0.3772
 6835TIP3    H142140   0.654   3.519   8.553 -0.4530 -0.7780 -0.6835
 6835TIP3    H242141   0.739   3.489   8.432 -0.5940 -1.0959 -0.7039
 6836TIP3   OH242142   3.148   1.534   7.442  0.0988  0.3009  0.1282
 6836TIP3    H142143   3.070   1.488   7.412  1.5579 -1.8601 -0.5758
 6836TIP3    H242144   3.156   1.511   7.535 -0.7288  1.5533  0.5450
 6837TIP3   OH242145   4.886   0.029   7.711  0.7381  0.0383  0.5369
 6837TIP3    H142146   4.959   0.079   7.674 -0.4735 -0.4411 -2.8030
 6837TIP3    H242147   4.913  -0.063   7.700  1.6263 -0.2361  3.8394
 6838TIP3   OH242148   4.723   5.208   0.776  0.7717  0.4496  0.3930
 6838TIP3    H142149   4.774   5.287   0.795  0.3120  0.8755 -0.0648
 6838TIP3    H242150   4.747   5.146   0.844  3.2767 -0.0298 -0.8200
 6839TIP3   OH242151   4.862   1.173   6.816  0.1580 -0.0941  0.1073
 6839TIP3    H142152   4.860   1.232   6.891 -1.9844 -0.0456  0.0671
 6839TIP3    H242153   4.929   1.210   6.759  0.2209  1.1775  0.9604
 6840TIP3   OH242154   1.332   2.095   1.739 -0.5633 -0.0993 -0.2046
 6840TIP3    H142155   1.255   2.138   1.702 -0.2116 -0.8203 -1.9077
 6840TIP3    H242156   1.392   2.167   1.761 -1.3941  0.4233  0.4020
 6841TIP3   OH242157   5.205   5.617   1.911 -0.2278 -0.5153 -0.3997
 6841TIP3    H142158   5.180   5.699   1.954 -0.8266 -0.9812  0.1715
 6841TIP3    H242159   5.122   5.572   1.896  0.2204 -2.3107  1.9277
 6842TIP3   OH242160   5.692   6.391   0.559 -0.0225  0.0232  0.4472
 6842TIP3    H142161   5.616   6.339   0.586 -0.3898 -0.0528 -0.6688
 6842TIP3    H242162   5.764   6.328   0.554  0.0495  0.0363  1.1981
 6843TIP3   OH242163   5.154   4.033   0.132  0.0279 -0.4401 -0.0428
 6843TIP3    H142164   5.065   4.051   0.162  0.3517  1.6303 -0.1453
 6843TIP3    H242165   5.143   3.990   0.047 -0.8718 -0.5598  0.1275
 6844TIP3   OH242166   5.923   4.252   2.009  0.0459 -0.4304 -0.0134
 6844TIP3    H142167   5.896   4.241   2.100  0.5746  1.9534  0.4906
 6844TIP3    H242168   6.013   4.218   2.007 -0.5605 -2.1388 -0.1202
 6845TIP3   OH242169   1.882   3.697   6.822 -0.8112 -0.3165 -0.0371
 6845TIP3    H142170   1.868   3.791   6.830 -3.6577 -0.6470 -0.2706
 6845TIP3    H242171   1.891   3.681   6.728 -0.8520 -0.3581 -0.0339
 6846TIP3   OH242172   4.634   0.747   8.386  0.2124  0.4120  0.0856
 6846TIP3    H142173   4.607   0.834   8.356 -0.8652  1.3228  3.2797
 6846TIP3    H242174   4.583   0.686   8.333  2.8989  1.4170 -4.0883
 6847TIP3   OH242175   6.553   3.694   7.720  0.5810 -0.1642 -0.0372
 6847TIP3    H142176   6.580   3.638   7.793  0.2942 -1.1766 -0.6778
 6847TIP3    H242177   6.632   3.704   7.667  0.4636 -0.5804 -0.3000
 6848TIP3   OH242178   4.757   2.599   7.443 -0.1102 -0.5587  0.5315
 6848TIP3    H142179   4.831   2.544   7.470 -0.9465 -2.3020 -0.5433
 6848TIP3    H242180   4.738   2.569   7.354  0.5815  2.8105 -0.8781
 6849TIP3   OH242181   5.723   6.704   8.111 -0.0035  0.1741  0.8591
 6849TIP3    H142182   5.695   6.795   8.122  0.3779  0.6237 -1.3454
 6849TIP3    H242183   5.779   6.706   8.033 -1.4864 -2.2181 -0.4122
 6850TIP3   OH242184   2.986   3.000   7.784 -0.2596 -0.0526  0.0890
 6850TIP3    H142185   2.907   2.950   7.765 -1.6562  1.6828  1.0987
 6850TIP3    H242186   2.970   3.041   7.869  0.6213  2.3997 -0.8285
 6851TIP3   OH242187   3.465   1.676   2.074  0.1844 -0.0465  0.1925
 6851TIP3    H142188   3.508   1.610   2.128  0.1987  0.2206  0.5061
 6851TIP3    H242189   3.512   1.672   1.990  1.0334  0.4666  0.6325
 6852TIP3   OH242190   0.717   0.904   1.892  0.0065  0.2013  0.2903
 6852TIP3    H142191   0.704   0.967   1.963  1.7599  0.3309  0.5329
 6852TIP3    H242192   0.659   0.935   1.822  1.9807  3.1282 -0.2166
 6853TIP3   OH242193   3.649   0.765   7.078  0.0368  0.6945 -0.0697
 6853TIP3    H142194   3.673   0.856   7.063 -0.2920  0.6091 -1.3008
 6853TIP3    H242195   3.628   0.760   7.171 -0.0014  1.8907  0.0018
 6854TIP3   OH242196   1.983   4.414   2.550  0.2669 -0.6083 -0.2256
 6854TIP3    H142197   2.023   4.457   2.625  1.1146 -2.0467  0.1930
 6854TIP3    H242198   2.009   4.467   2.475  2.7589 -1.2655  0.0710
 6855TIP3   OH242199   0.833   4.699   7.080 -0.3584  0.0810 -0.1987
 6855TIP3    H142200   0.755   4.748   7.055 -0.5078 -0.9014 -1.8502
 6855TIP3    H242201   0.823   4.614   7.036  1.4645 -0.1896 -0.1921
 6856TIP3   OH242202   0.469   5.148   0.583  0.1682  0.1734 -0.0059
 6856TIP3    H142203   0.394   5.151   0.524 -0.3922 -0.5171  0.6475
 6856TIP3    H242204   0.453   5.071   0.638  1.5385 -0.2064 -0.1036
 6857TIP3   OH242205   5.761   0.524   1.711  0.0067 -0.1183 -0.0012
 6857TIP3    H142206   5.666   0.521   1.701 -0.0574  0.0893  0.5399
 6857TIP3    H242207   5.795   0.483   1.631 -0.5320 -0.0494 -0.2660
 6858TIP3   OH242208   0.359   4.436   1.714 -0.0047  0.1385  0.2017
 6858TIP3    H142209   0.365   4.484   1.631 -1.8942  1.0001  0.5270
 6858TIP3    H242210   0.321   4.352   1.689  0.7050 -0.1474  0.0346
 6859TIP3   OH242211   5.968   0.524   8.209 -0.1420  0.0788 -0.0233
 6859TIP3    H142212   5.930   0.549   8.125  1.3110  0.7551 -0.5110
 6859TIP3    H242213   5.904   0.464   8.247 -2.0037  1.6373 -0.4946
 6860TIP3   OH242214   2.432   4.412   1.767  1.3249 -0.5658 -0.2693
 6860TIP3    H142215   2.463   4.478   1.705 -0.4707  0.6606  0.0529
 6860TIP3    H242216   2.487   4.424   1.844  0.7859  0.8596 -0.0708
 6861TIP3   OH242217   2.280   2.602   1.588 -0.1199 -0.1364 -0.5297
 6861TIP3    H142218   2.216   2.535   1.613 -0.4540 -0.1235 -1.3022
 6861TIP3    H242219   2.274   2.605   1.492  0.8057  0.1022 -0.5828
 6862TIP3   OH242220   2.743   2.841   1.405 -0.3924  0.2065 -0.1415
 6862TIP3    H142221   2.702   2.826   1.319  0.9090 -1.2840 -0.5483
 6862TIP3    H242222   2.816   2.779   1.408 -0.8376 -0.2815  2.3708
 6863TIP3   OH242223   1.736   2.560   2.799 -0.5533 -0.1066 -0.7644
 6863TIP3    H142224   1.706   2.633   2.852  0.0290 -0.9638  0.8303
 6863TIP3    H242225   1.695   2.483   2.838 -1.4095 -0.6325 -2.6035
 6864TIP3   OH242226   5.522   3.619   3.681 -0.2112  0.2092  0.4362
 6864TIP3    H142227   5.600   3.566   3.663  0.8267  1.5176  0.8494
 6864TIP3    H242228   5.508   3.611   3.775 -1.1518 -0.7448  0.2297
 6865TIP3   OH242229   2.050   2.214   8.045  0.1508  0.0434 -0.3174
 6865TIP3    H142230   2.112   2.275   8.005  0.5008 -0.7867 -1.0969
 6865TIP3    H242231   1.964   2.244   8.015  0.2051  0.8726  0.3184
 6866TIP3   OH242232   4.685   0.237   0.789 -0.0398 -0.5176 -0.0056
 6866TIP3    H142233   4.711   0.300   0.856  0.3346  0.8653 -1.3983
 6866TIP3    H242234   4.601   0.202   0.819  0.7622 -0.9418  1.8340
 6867TIP3   OH242235   2.259   6.225   1.477  0.1382 -0.8534 -0.7223
 6867TIP3    H142236   2.300   6.239   1.563 -0.8571  0.1738 -0.3782
 6867TIP3    H242237   2.167   6.210   1.497 -0.2112 -0.0518 -1.6253
 6868TIP3   OH242238   3.391   2.909   0.196  0.1255 -0.5895 -0.0191
 6868TIP3    H142239   3.406   2.953   0.112 -1.2580 -1.5079 -0.7975
 6868TIP3    H242240   3.440   2.961   0.260  2.0075 -0.4133 -1.5164
 6869TIP3   OH242241   6.759   4.673   1.762 -0.1726  0.2600 -0.3721
 6869TIP3    H142242   6.707   4.612   1.814  0.9717 -1.9869 -1.6897
 6869TIP3    H242243   6.708   4.754   1.761 -1.3333 -0.3482  2.2122
 6870TIP3   OH242244   1.958   5.940   0.561  0.1888 -0.2239  0.2545
 6870TIP3    H142245   1.923   5.851   0.570  1.4351 -0.7533  0.0281
 6870TIP3    H242246   2.049   5.927   0.535  0.7129  1.1154  1.3434
 6871TIP3   OH242247   1.211   6.664   1.124  0.0349 -0.1360 -0.3201
 6871TIP3    H142248   1.285   6.692   1.070  0.5753 -0.1949  0.3764
 6871TIP3    H242249   1.231   6.699   1.210  0.3898 -2.0508  0.4254
 6872TIP3   OH242250   1.500   3.794   0.396  0.2426  0.3616 -0.0672
 6872TIP3    H142251   1.574   3.778   0.337  1.0368 -1.3974  1.3121
 6872TIP3    H242252   1.423   3.771   0.344  0.8643 -0.2931 -0.7324
 6873TIP3   OH242253   5.502   2.989   1.134  0.0978 -0.2821 -0.2038
 6873TIP3    H142254   5.462   3.054   1.191  0.0216 -1.7381  1.4952
 6873TIP3    H242255   5.594   3.016   1.128  0.1355 -0.1531  0.7329
 6874TIP3   OH242256   3.391   5.147   2.514 -0.2002 -0.0484  0.4933
 6874TIP3    H142257   3.379   5.105   2.599 -0.9841 -0.7323  0.0583
 6874TIP3    H242258   3.308   5.192   2.498 -0.2665 -0.3849 -0.1500
 6875TIP3   OH242259   5.321   3.720   7.177 -0.1665 -0.4810  0.0901
 6875TIP3    H142260   5.380   3.787   7.211 -2.6089  1.9613 -0.1202
 6875TIP3    H242261   5.377   3.663   7.125  1.8847  2.3328 -1.0815
 6876TIP3   OH242262   4.870   0.795   3.216  0.1523 -0.0666 -0.4068
 6876TIP3    H142263   4.943   0.750   3.259  0.3824 -0.5145 -1.2396
 6876TIP3    H242264   4.809   0.725   3.193 -1.6214  0.4870  2.1768
 6877TIP3   OH242265   0.735   0.173   2.031 -0.0593 -0.0336  0.0346
 6877TIP3    H142266   0.672   0.245   2.028 -0.4192 -0.3627 -1.2890
 6877TIP3    H242267   0.728   0.138   2.120  0.8505  2.1591  1.0250
 6878TIP3   OH242268   3.705   5.918   2.793  0.0127 -0.1063 -0.5511
 6878TIP3    H142269   3.735   6.006   2.819 -0.9855  0.8153 -2.3279
 6878TIP3    H242270   3.647   5.892   2.865  1.4003  0.0348  0.6888
 6879TIP3   OH242271   1.522   6.958   1.057  0.0316 -0.2572 -0.1401
 6879TIP3    H142272   1.595   6.979   0.999  1.4331  1.1754  1.9828
 6879TIP3    H242273   1.470   6.894   1.009  1.4457  0.3651 -2.6565
 6880TIP3   OH242274   6.839   0.892   0.019 -0.0326  0.1549  0.0378
 6880TIP3    H142275   6.874   0.958   0.079  0.4377 -0.2628  0.2276
 6880TIP3    H242276   6.753   0.925  -0.005 -0.0708  0.5129  0.6483
 6881TIP3   OH242277   1.796   4.050   0.028  0.2808 -0.1567 -0.6303
 6881TIP3    H142278   1.869   4.050  -0.034 -0.6607  1.5719 -1.8487
 6881TIP3    H242279   1.727   4.000  -0.016 -0.3096  0.8721 -0.9163
 6882TIP3   OH242280   0.642   1.667   7.951 -0.0192  0.2243  0.2962
 6882TIP3    H142281   0.584   1.735   7.986  1.4063  2.1835 -0.9670
 6882TIP3    H242282   0.613   1.654   7.861  3.0902  3.3893 -1.3972
 6883TIP3   OH242283   1.993   2.188   1.477  0.5580 -0.1547 -0.6168
 6883TIP3    H142284   2.024   2.201   1.566  0.9252 -1.4150 -0.5487
 6883TIP3    H242285   1.898   2.195   1.482  0.6666  2.0817 -0.5443
 6884TIP3   OH242286   6.048   0.660   0.225  0.4358 -0.4869  0.7584
 6884TIP3    H142287   5.980   0.659   0.159 -0.9041  1.5127  1.9973
 6884TIP3    H242288   6.068   0.568   0.240 -1.5672 -1.1118 -0.0770
 6885TIP3   OH242289   0.914   1.406   2.275  0.7174 -0.3781  0.2830
 6885TIP3    H142290   0.905   1.492   2.234  1.0845 -1.3958 -2.1087
 6885TIP3    H242291   0.981   1.418   2.342 -0.2430  1.4811  1.0010
 6886TIP3   OH242292   1.765   2.283   8.421 -0.2317  0.2098  0.3290
 6886TIP3    H142293   1.722   2.213   8.471  2.3556 -1.3599  0.5076
 6886TIP3    H242294   1.794   2.346   8.487  2.3543 -1.3973  0.8183
 6887TIP3   OH242295   3.010   1.975   2.031 -0.7071 -0.6438  0.0664
 6887TIP3    H142296   2.959   1.993   2.110  0.1468 -0.9141  0.6933
 6887TIP3    H242297   3.048   1.889   2.046  0.0165 -0.4022 -0.3352
 6888TIP3   OH242298   6.628   6.813   1.730  0.0619  0.3385 -0.1424
 6888TIP3    H142299   6.574   6.804   1.809  2.4488 -1.8212  1.4291
 6888TIP3    H242300   6.689   6.883   1.751  1.2340 -0.7872  0.3521
 6889TIP3   OH242301   1.864   3.989   7.728  0.0391 -0.1659 -0.1164
 6889TIP3    H142302   1.843   4.036   7.809  0.2945 -0.6728  0.2535
 6889TIP3    H242303   1.794   4.012   7.668 -1.1966 -1.2339  0.8382
 6890TIP3   OH242304   4.980   1.275   7.998  0.0478  0.2498 -0.3408
 6890TIP3    H142305   4.950   1.347   7.943 -1.7433 -1.3671 -1.6006
 6890TIP3    H242306   4.904   1.217   8.007  1.9151 -2.5743 -1.2165
 6891TIP3   OH242307   6.426   2.369   1.048 -0.0174  0.6186 -0.1874
 6891TIP3    H142308   6.358   2.310   1.079  0.2888  0.7621  0.8063
 6891TIP3    H242309   6.490   2.373   1.120  0.9085  0.6950 -0.9827
 6892TIP3   OH242310   0.559   6.164   7.981  0.3755  0.5252  0.2200
 6892TIP3    H142311   0.640   6.120   8.006 -0.7219 -0.9277  1.4023
 6892TIP3    H242312   0.565   6.250   8.024  1.2354  0.4081  0.3598
 6893TIP3   OH242313   4.979   6.225   0.487 -0.0116  0.3058  0.0926
 6893TIP3    H142314   5.056   6.180   0.452  1.1774  0.9166  1.7853
 6893TIP3    H242315   4.910   6.158   0.488  0.5465 -0.3170 -1.2548
 6894TIP3   OH242316   5.464   6.180   1.677 -0.4183  0.3727 -0.2705
 6894TIP3    H142317   5.387   6.124   1.671 -0.1761 -0.0736  0.5919
 6894TIP3    H242318   5.453   6.244   1.607 -2.4531  1.4012  0.9059
 6895TIP3   OH242319   4.241   4.946   7.071 -0.4707  0.0006  0.0167
 6895TIP3    H142320   4.257   4.883   7.000  0.4682 -0.2576  0.4539
 6895TIP3    H242321   4.185   5.013   7.030  0.4349  0.1086 -1.1186
 6896TIP3   OH242322   2.794   4.238   0.937  0.1261 -0.2159  0.0639
 6896TIP3    H142323   2.838   4.153   0.936 -0.4628 -0.5181 -0.2135
 6896TIP3    H242324   2.709   4.222   0.897 -0.0944  0.4476  0.2549
 6897TIP3   OH242325   4.125   4.190   0.288  0.0642  0.3900 -0.0103
 6897TIP3    H142326   4.164   4.221   0.370  0.9328 -0.4861 -0.0689
 6897TIP3    H242327   4.194   4.138   0.247 -0.8804 -0.4979 -0.5445
 6898TIP3   OH242328   5.698   5.093   0.464  0.4843  0.3877  0.0280
 6898TIP3    H142329   5.647   5.174   0.464  1.0115  0.7305  0.1981
 6898TIP3    H242330   5.733   5.087   0.553  1.4198  0.6134 -0.3116
 6899TIP3   OH242331   0.920   6.649   7.012  0.2493 -0.2157 -0.1783
 6899TIP3    H142332   0.913   6.694   6.928  2.7928 -0.7060 -0.7380
 6899TIP3    H242333   0.954   6.716   7.072 -0.6317 -0.1334  0.2523
 6900TIP3   OH242334   1.758   0.022   8.365  0.3643  0.6695  0.0707
 6900TIP3    H142335   1.691   0.080   8.328 -2.1998 -0.5570  2.4241
 6900TIP3    H242336   1.752  -0.058   8.314  0.9096  0.9704 -0.4749
 6901TIP3   OH242337   2.522   3.830   3.058 -0.4106 -0.2860 -0.0200
 6901TIP3    H142338   2.481   3.840   2.972 -0.2787 -0.1561 -0.0690
 6901TIP3    H242339   2.450   3.838   3.120 -0.5056 -0.3729 -0.1178
 6902TIP3   OH242340   1.576   3.946   2.240 -0.1492  0.4288 -0.8569
 6902TIP3    H142341   1.638   3.875   2.260  2.1803  2.1956 -1.3977
 6902TIP3    H242342   1.568   3.944   2.145 -0.2959  0.7260 -0.8492
 6903TIP3   OH242343   4.483   4.260   3.080 -0.0306 -0.2230  0.0927
 6903TIP3    H142344   4.564   4.302   3.109 -0.4666  0.1136  0.8641
 6903TIP3    H242345   4.488   4.171   3.115 -0.8774  0.3928  1.8977
 6904TIP3   OH242346   0.085   3.555   3.144 -0.2108  0.0418  0.2699
 6904TIP3    H142347  -0.006   3.560   3.173 -0.0881 -1.1997  0.9394
 6904TIP3    H242348   0.123   3.484   3.195  0.8493 -0.1808 -0.7765
 6905TIP3   OH242349   3.094   6.764   0.182 -0.1641 -0.4911 -0.0244
 6905TIP3    H142350   3.043   6.831   0.227  0.1983 -0.9106  1.0355
 6905TIP3    H242351   3.072   6.775   0.089  1.4572  2.4726 -0.1813
 6906TIP3   OH242352   6.981   5.128   1.243 -0.6491  0.0621  0.3508
 6906TIP3    H142353   7.073   5.152   1.234 -0.9041  0.8484 -0.2827
 6906TIP3    H242354   6.951   5.112   1.154 -1.8961  2.8584  0.1690
 6907TIP3   OH242355   2.715   0.982   1.887 -0.4488 -0.5756  0.1452
 6907TIP3    H142356   2.635   0.997   1.838 -1.6599 -1.1041  1.8629
 6907TIP3    H242357   2.718   0.887   1.900 -1.7499 -0.2982  3.4614
 6908TIP3   OH242358   1.235   0.444   7.717 -0.2708  0.3154 -0.1390
 6908TIP3    H142359   1.223   0.399   7.800 -0.5584 -1.2145 -0.9812
 6908TIP3    H242360   1.261   0.533   7.741 -1.1366  0.1334  1.5807
 6909TIP3   OH242361   2.437   6.338   0.832  0.3604  0.0320 -0.0959
 6909TIP3    H142362   2.484   6.390   0.766 -0.3473 -0.6828 -1.2061
 6909TIP3    H242363   2.467   6.373   0.916  2.0036  0.3535 -0.7690
 6910TIP3   OH242364   4.066   1.496   3.010  0.4184  0.0259  0.1517
 6910TIP3    H142365   4.151   1.477   3.048  0.6685  2.9445  1.3497
 6910TIP3    H242366   4.004   1.445   3.062  1.2426 -0.2456  0.8921
 6911TIP3   OH242367   0.100   3.371   2.155  0.1014  0.4357  0.2544
 6911TIP3    H142368   0.113   3.317   2.233  0.1442  0.4198  0.2362
 6911TIP3    H242369   0.011   3.406   2.164 -0.0364  0.1212  0.1198
 6912TIP3   OH242370   6.951   1.129   6.703 -0.0262  0.1315  0.0226
 6912TIP3    H142371   6.960   1.135   6.798  1.3360 -0.6339 -0.0343
 6912TIP3    H242372   7.009   1.057   6.678  1.6662  1.9382 -1.6518
 6913TIP3   OH242373   6.907   5.891   8.020  0.3122 -0.0735 -0.0333
 6913TIP3    H142374   6.900   5.841   7.938 -2.8786  0.6461 -0.3625
 6913TIP3    H242375   6.974   5.956   8.002  1.2855 -1.3444 -1.2409
 6914TIP3   OH242376   0.257   6.766   2.103 -0.4325 -0.2571  0.2316
 6914TIP3    H142377   0.214   6.715   2.172  0.2264 -0.4379  0.5172
 6914TIP3    H242378   0.241   6.857   2.127  0.9755 -0.2890  1.4198
 6915TIP3   OH242379   3.585   4.322   6.906 -0.3978 -0.1973  0.7646
 6915TIP3    H142380   3.614   4.277   6.826  0.7797  1.6457  0.0913
 6915TIP3    H242381   3.655   4.307   6.969 -0.4134 -0.0415  0.8189
 6916TIP3   OH242382   5.707   2.380   7.153  0.3538  0.2105 -0.1389
 6916TIP3    H142383   5.744   2.371   7.065  1.4625  1.0340  0.2191
 6916TIP3    H242384   5.692   2.475   7.163 -0.9252  0.0012  0.1113
 6917TIP3   OH242385   5.928   4.802   7.813 -0.0234  0.1643 -0.1872
 6917TIP3    H142386   5.857   4.776   7.872  0.9181 -0.7591  0.5920
 6917TIP3    H242387   5.974   4.720   7.794  1.1992  0.8185 -0.1511
 6918TIP3   OH242388   1.260   6.221   2.381  0.6032 -0.3064 -0.4100
 6918TIP3    H142389   1.204   6.199   2.455 -1.2254 -0.0524 -1.6471
 6918TIP3    H242390   1.245   6.150   2.318  2.1947 -0.5701 -0.5310
 6919TIP3   OH242391   5.081   3.962   0.817  0.1046  0.2262  0.6372
 6919TIP3    H142392   5.048   4.029   0.757  2.5457  0.4800 -0.5465
 6919TIP3    H242393   5.071   4.000   0.904  0.9014  1.9398  0.0294
 6920TIP3   OH242394   2.525   6.321   0.256  0.7130 -0.1559 -0.4797
 6920TIP3    H142395   2.476   6.263   0.314  1.5786 -1.0551 -0.6329
 6920TIP3    H242396   2.468   6.334   0.180  0.8031 -1.3900 -0.7677
 6921TIP3   OH242397   1.767   5.663   8.042  0.1273 -0.3304  0.1378
 6921TIP3    H142398   1.853   5.648   8.081  0.5288 -0.3541 -0.7183
 6921TIP3    H242399   1.767   5.757   8.021  0.5167 -0.5921 -1.1342
 6922TIP3   OH242400   6.926   6.761   6.497 -0.0237 -0.1879 -0.0723
 6922TIP3    H142401   6.981   6.807   6.561 -0.3620 -1.5569  1.2322
 6922TIP3    H242402   6.918   6.824   6.425  0.8712  1.1626  0.9375
 6923TIP3   OH242403   3.619   3.798   2.369 -0.0270 -0.6135 -0.3647
 6923TIP3    H142404   3.528   3.798   2.401 -0.3184  0.9077 -1.0995
 6923TIP3    H242405   3.616   3.849   2.289  1.3996 -1.0412 -0.7162
 6924TIP3   OH242406   3.797   5.932   8.292  0.3204  0.2901 -0.4867
 6924TIP3    H142407   3.721   5.878   8.272  0.4123 -0.1722  0.3860
 6924TIP3    H242408   3.791   6.005   8.230 -0.0025 -0.5149 -1.4306
 6925TIP3   OH242409   2.563   2.402   1.206  0.7912  0.0935 -0.5444
 6925TIP3    H142410   2.643   2.417   1.258  1.1004  1.3354 -1.3248
 6925TIP3    H242411   2.585   2.329   1.148  1.6405  0.9013 -1.2674
 6926TIP3   OH242412   5.766   1.154   0.091  0.1901  0.0907 -0.0107
 6926TIP3    H142413   5.767   1.187   0.180 -0.6118 -1.5894  0.6680
 6926TIP3    H242414   5.789   1.061   0.099 -0.5005 -0.2414 -1.4744
 6927TIP3   OH242415   1.897   4.123   0.929  0.2908  0.7089 -0.6135
 6927TIP3    H142416   1.947   4.087   0.855 -0.0953  1.4119 -1.2376
 6927TIP3    H242417   1.919   4.217   0.929  1.9406  0.3957  1.5037
 6928TIP3   OH242418   2.876   4.059   1.515 -0.8074  0.7296  0.0399
 6928TIP3    H142419   2.877   4.010   1.432 -1.5495 -1.1324  1.0511
 6928TIP3    H242420   2.810   4.013   1.568  1.7834 -0.1427  2.7797
 6929TIP3   OH242421   5.421   4.655   7.082 -0.0246  0.2840 -0.5426
 6929TIP3    H142422   5.355   4.586   7.092  0.4140  0.1066  1.3700
 6929TIP3    H242423   5.371   4.736   7.085 -0.1382  0.1785  1.6555
 6930TIP3   OH242424   2.837   0.545   0.579  0.6763  0.3068 -0.0898
 6930TIP3    H142425   2.894   0.494   0.636  1.3391  0.9994 -0.1367
 6930TIP3    H242426   2.889   0.560   0.500  0.6390  1.4255  0.0939
 6931TIP3   OH242427   3.009   1.707   7.702  0.2811  0.3625  0.1092
 6931TIP3    H142428   3.068   1.779   7.683 -0.0512  0.5774 -0.1289
 6931TIP3    H242429   2.972   1.683   7.617  0.2664  0.0193  0.2094
 6932TIP3   OH242430   1.841   3.583   1.894  0.0325  0.3296  0.2198
 6932TIP3    H142431   1.920   3.586   1.948 -1.4463  2.0355  2.4320
 6932TIP3    H242432   1.845   3.664   1.843 -0.7094  0.8713  1.0079
 6933TIP3   OH242433   5.572   4.067   2.744  0.4037  0.2666  0.3108
 6933TIP3    H142434   5.596   4.141   2.799 -1.2425  0.1871  1.1734
 6933TIP3    H242435   5.516   4.012   2.799 -0.1876 -0.5079 -1.0046
 6934TIP3   OH242436   0.109   2.318   1.376 -0.0259  0.3987 -0.0027
 6934TIP3    H142437   0.125   2.413   1.370  0.0179  0.3482 -0.8536
 6934TIP3    H242438   0.196   2.279   1.366  0.0861  0.2860  1.2893
 6935TIP3   OH242439   3.020   0.888   0.283  0.1708  0.0762 -0.4033
 6935TIP3    H142440   3.054   0.859   0.368 -0.4686 -3.0261 -1.0684
 6935TIP3    H242441   2.991   0.978   0.298 -0.1324 -0.4188  2.7245
 6936TIP3   OH242442   0.572   6.766   2.265  0.2059 -0.3545  0.4891
 6936TIP3    H142443   0.614   6.839   2.311 -2.0038  1.4331 -0.1831
 6936TIP3    H242444   0.518   6.724   2.331 -1.9988  1.4490 -0.0671
 6937TIP3   OH242445   1.051   6.900   1.393  0.1722  0.3056 -0.6489
 6937TIP3    H142446   1.077   6.981   1.349 -0.9428  1.4213  0.6604
 6937TIP3    H242447   1.010   6.928   1.474  1.0728 -1.6377  0.5714
 6938TIP3   OH242448   1.799   2.316   8.128 -0.1527  0.2779 -0.4723
 6938TIP3    H142449   1.761   2.305   8.215 -0.9118  1.6420 -0.6068
 6938TIP3    H242450   1.793   2.410   8.110  0.8372  0.1466 -1.6214
 6939TIP3   OH242451   1.789   0.443   7.818  0.2161  0.3041 -0.5327
 6939TIP3    H142452   1.847   0.443   7.894  1.0961 -2.1591 -1.1150
 6939TIP3    H242453   1.749   0.530   7.819  2.1382  1.2694  1.2400
 6940TIP3   OH242454   5.021   1.911   3.035  0.2309 -0.1151  0.3895
 6940TIP3    H142455   5.038   1.817   3.044  3.9976  0.4346  0.5741
 6940TIP3    H242456   5.074   1.951   3.104 -1.8119  2.1649  0.7463
 6941TIP3   OH242457   6.695   5.626   0.183  0.5874 -0.1642  0.3705
 6941TIP3    H142458   6.741   5.706   0.208  2.4987 -1.4992  1.3883
 6941TIP3    H242459   6.688   5.631   0.088  0.2622  1.3862  0.4497
 6942TIP3   OH242460   4.044   1.883   1.559  0.0233 -0.6055 -0.2013
 6942TIP3    H142461   3.994   1.813   1.601  0.2327 -0.5603  0.1237
 6942TIP3    H242462   4.027   1.871   1.466 -0.9194 -0.3500 -0.0778
 6943TIP3   OH242463   5.958   3.883   7.122 -0.5112 -0.3006 -0.9488
 6943TIP3    H142464   5.909   3.887   7.204 -0.8342 -0.1376 -1.1459
 6943TIP3    H242465   5.996   3.971   7.112  0.2642 -0.5867 -0.5293
 6944TIP3   OH242466   4.244   4.700   0.826  0.4341  0.1913 -0.0491
 6944TIP3    H142467   4.321   4.669   0.777 -0.4279 -1.3697 -0.4998
 6944TIP3    H242468   4.224   4.628   0.886 -1.5196 -0.0802 -0.9520
 6945TIP3   OH242469   6.547   0.832   1.057 -0.0692 -0.4575 -0.2293
 6945TIP3    H142470   6.559   0.754   1.112 -1.1012  0.1610  0.9442
 6945TIP3    H242471   6.601   0.899   1.098  1.1272 -0.6397 -1.4678
 6946TIP3   OH242472   6.035   3.463   1.675  0.5640  0.2823  0.4565
 6946TIP3    H142473   6.083   3.483   1.755 -0.3357 -0.0150  1.0952
 6946TIP3    H242474   5.947   3.441   1.705  0.7788 -2.0107 -0.4066
 6947TIP3   OH242475   3.641   2.740   2.126 -0.1252  0.6816 -0.1336
 6947TIP3    H142476   3.584   2.663   2.132 -0.9410  0.7603 -4.2204
 6947TIP3    H242477   3.586   2.813   2.155 -0.3726  0.1382  0.8016
 6948TIP3   OH242478   1.689   4.325   0.959 -0.0147  0.6545  0.2061
 6948TIP3    H142479   1.717   4.314   1.050 -0.1474  0.3385  0.2098
 6948TIP3    H242480   1.608   4.274   0.953  0.2300  0.3093 -0.2049
 6949TIP3   OH242481   6.052   2.002   3.614 -0.6779  0.5254  0.1525
 6949TIP3    H142482   6.055   1.914   3.576 -2.4881  1.0927 -1.4972
 6949TIP3    H242483   6.037   1.988   3.707  0.3577 -0.9103  0.1328
 6950TIP3   OH242484   6.766   2.476   8.285  0.2824 -0.2425 -0.2595
 6950TIP3    H142485   6.845   2.437   8.323 -0.6424 -0.8404  1.0992
 6950TIP3    H242486   6.775   2.461   8.191  2.0729  0.2447 -0.1945
 6951TIP3   OH242487   4.501   6.437   1.158 -0.1446 -0.1219  0.1058
 6951TIP3    H142488   4.506   6.401   1.247  1.6930  0.1845  0.1624
 6951TIP3    H242489   4.556   6.515   1.161  0.7001 -0.6253 -1.5257
 6952TIP3   OH242490   1.971   6.660   0.149  0.1285  0.8929 -0.9849
 6952TIP3    H142491   2.025   6.739   0.153  0.4002  0.6758  0.2585
 6952TIP3    H242492   1.913   6.667   0.226  0.0404 -0.0290 -0.9525
 6953TIP3   OH242493   0.572   2.869   3.149 -0.1913 -0.3848  0.1056
 6953TIP3    H142494   0.562   2.774   3.141  0.3464 -0.6748  2.1737
 6953TIP3    H242495   0.662   2.880   3.182 -0.4731  0.7947  0.4972
 6954TIP3   OH242496   5.121   6.012   8.346  0.5672 -0.6280  0.5541
 6954TIP3    H142497   5.063   5.960   8.402  0.6865  0.5879  1.8669
 6954TIP3    H242498   5.194   5.953   8.326  0.4397 -1.1583  1.5630
 6955TIP3   OH242499   2.325   2.112   0.867 -0.1112 -0.3109 -0.2328
 6955TIP3    H142500   2.400   2.169   0.850 -1.1745  0.4113 -3.1277
 6955TIP3    H242501   2.350   2.027   0.829 -0.3495 -0.3571 -0.2913
 6956TIP3   OH242502   0.064   6.900   0.374  0.3737 -0.5037 -0.0612
 6956TIP3    H142503   0.028   6.974   0.423  3.4082  1.3013 -0.3441
 6956TIP3    H242504   0.048   6.921   0.282 -0.8620 -1.4504 -0.0991
 6957TIP3   OH242505   3.604   0.898   0.207 -0.4310 -0.0918  0.3034
 6957TIP3    H142506   3.554   0.816   0.207  2.1798 -1.8343  1.7392
 6957TIP3    H242507   3.657   0.893   0.287  1.0643  2.2284 -0.4552
 6958TIP3   OH242508   4.366   4.986   8.001 -0.6019  0.0473  0.2738
 6958TIP3    H142509   4.308   4.913   7.981  0.8345 -0.9490 -0.4792
 6958TIP3    H242510   4.412   5.003   7.918 -0.8726  1.7968  0.4444
 6959TIP3   OH242511   1.674   0.259   7.649  0.1192  0.6746 -0.3553
 6959TIP3    H142512   1.731   0.303   7.713  0.1128  1.0577 -0.6106
 6959TIP3    H242513   1.588   0.300   7.661 -0.2532 -0.3056  0.4294
 6960TIP3   OH242514   4.387   4.286   7.107  0.2193  0.0088  0.0653
 6960TIP3    H142515   4.327   4.223   7.067 -1.5094  0.6296  1.5837
 6960TIP3    H242516   4.365   4.370   7.066  0.6874  0.0873 -0.0316
 6961TIP3   OH242517   1.192   5.298   7.075 -0.3794  0.1246 -0.1180
 6961TIP3    H142518   1.243   5.219   7.062  0.0032  0.4870 -0.8600
 6961TIP3    H242519   1.107   5.267   7.107  0.1034 -0.5158  0.5726
 6962TIP3   OH242520   3.738   5.083   7.908 -0.2012  0.0400  0.4638
 6962TIP3    H142521   3.746   5.165   7.956 -0.1207  0.0093  0.5021
 6962TIP3    H242522   3.820   5.074   7.861 -0.2024 -0.0284  0.4741
 6963TIP3   OH242523   1.264   0.446   2.094  0.2627 -0.4714 -0.6275
 6963TIP3    H142524   1.221   0.522   2.133  0.6593  0.5899 -2.1602
 6963TIP3    H242525   1.337   0.427   2.153 -0.0088  0.1637 -0.0702
 6964TIP3   OH242526   3.830   1.958   1.029 -0.2697 -0.1173  0.2789
 6964TIP3    H142527   3.851   1.916   1.113  0.0109 -0.6939 -0.0707
 6964TIP3    H242528   3.914   1.994   0.999  0.0115 -1.4202 -0.5700
 6965TIP3   OH242529   2.171   5.204   7.527 -0.7292 -0.0223 -0.2096
 6965TIP3    H142530   2.158   5.234   7.437  0.3377  0.3043 -0.2701
 6965TIP3    H242531   2.103   5.247   7.578 -1.8668 -0.8481 -0.9804
 6966TIP3   OH242532   5.612   4.617   1.315 -0.2243  0.0588  0.0338
 6966TIP3    H142533   5.633   4.597   1.406  0.7024 -1.5546 -0.4990
 6966TIP3    H242534   5.546   4.553   1.290 -1.8341  1.6172  0.0401
 6967TIP3   OH242535   5.207   2.224   2.389  0.1767 -0.2606  0.0319
 6967TIP3    H142536   5.274   2.259   2.330 -1.6384  0.7176 -1.5761
 6967TIP3    H242537   5.246   2.229   2.476  2.0287  0.6613 -0.8039
 6968TIP3   OH242538   0.561   3.381   2.649 -0.4477 -0.1860  0.5040
 6968TIP3    H142539   0.642   3.344   2.684 -0.3438 -0.1851  0.2627
 6968TIP3    H242540   0.505   3.306   2.630 -0.7636 -0.1654  1.2896
 6969TIP3   OH242541   3.794   2.334   7.615  0.0210 -0.2456  0.1877
 6969TIP3    H142542   3.797   2.259   7.556 -0.8033  0.0970 -0.2946
 6969TIP3    H242543   3.833   2.405   7.565  2.1940 -0.6657  1.1643
 6970TIP3   OH242544   6.939   2.289   0.358  1.0948 -0.4199  0.9762
 6970TIP3    H142545   6.997   2.241   0.417  0.0119 -2.1958  0.6715
 6970TIP3    H242546   6.967   2.264   0.271  0.5832 -0.3989  0.8027
 6971TIP3   OH242547   4.308   3.636   2.136 -0.0102 -0.3449 -0.3069
 6971TIP3    H142548   4.396   3.599   2.141 -0.4793 -1.3444  0.8253
 6971TIP3    H242549   4.296   3.683   2.218 -0.6310 -0.4342 -0.3401
 6972TIP3   OH242550   5.614   0.795   2.814 -0.1641 -0.1759  0.2734
 6972TIP3    H142551   5.540   0.852   2.833 -2.0590 -1.6956 -2.0016
 6972TIP3    H242552   5.681   0.854   2.779 -2.0036  0.7738 -1.8984
 6973TIP3   OH242553   5.002   0.277   0.807  0.3033  0.2867  0.5450
 6973TIP3    H142554   5.094   0.297   0.826  0.7214 -1.5655  0.7008
 6973TIP3    H242555   4.996   0.182   0.818 -0.9445 -0.0685 -2.2251
 6974TIP3   OH242556   2.278   2.732   0.666  0.0034  0.1442 -0.0747
 6974TIP3    H142557   2.266   2.757   0.575 -2.1618 -3.6672 -1.0368
 6974TIP3    H242558   2.199   2.764   0.710  0.0939  0.2196  0.0338
 6975TIP3   OH242559   4.850   2.202   0.584 -0.2745 -0.2312 -0.1402
 6975TIP3    H142560   4.822   2.123   0.536 -1.5375  0.0955  0.0297
 6975TIP3    H242561   4.788   2.209   0.656  0.9571 -0.1027  0.9501
 6976TIP3   OH242562   4.010   3.414   8.304  0.4722 -0.2897 -0.2022
 6976TIP3    H142563   4.001   3.457   8.389  1.3665  0.2616 -0.3675
 6976TIP3    H242564   3.955   3.466   8.245 -2.6179 -2.4454  0.5796
 6977TIP3   OH242565   1.002   4.723   0.800 -0.1735 -0.2998 -0.7778
 6977TIP3    H142566   0.984   4.813   0.826  0.3276 -0.7235  1.2465
 6977TIP3    H242567   0.985   4.721   0.706 -0.1171  1.9057 -0.8879
 6978TIP3   OH242568   4.757   1.769   1.212  0.5514 -0.2233  0.8268
 6978TIP3    H142569   4.727   1.767   1.303 -1.6032  0.7884  0.2284
 6978TIP3    H242570   4.751   1.861   1.187  0.9438 -0.5052 -0.3821
 6979TIP3   OH242571   1.186   4.758   2.252 -0.8696 -0.2350 -0.1770
 6979TIP3    H142572   1.265   4.743   2.199  0.8633 -1.1294  2.4574
 6979TIP3    H242573   1.143   4.672   2.254 -0.6958 -0.3153  0.1889
 6980TIP3   OH242574   1.134   3.190   7.887  0.3870  0.6359  0.1747
 6980TIP3    H142575   1.063   3.132   7.858  0.5499 -0.6875  2.2241
 6980TIP3    H242576   1.097   3.278   7.883 -2.3222 -0.1514  3.3518
 6981TIP3   OH242577   0.231   5.720   2.352 -0.0152  0.0221 -0.8178
 6981TIP3    H142578   0.244   5.665   2.274 -1.5579  0.6308 -1.5481
 6981TIP3    H242579   0.211   5.807   2.316  2.3889  1.1374  0.2996
 6982TIP3   OH242580   5.395   4.298   1.398 -0.9878 -0.0566  0.3369
 6982TIP3    H142581   5.322   4.245   1.365 -0.6102 -0.2712 -0.1792
 6982TIP3    H242582   5.422   4.351   1.322  0.6464 -1.3975 -0.0743
 6983TIP3   OH242583   4.565   5.574   0.490 -0.0635 -0.1205  0.0283
 6983TIP3    H142584   4.587   5.654   0.441  0.1921 -0.0399  0.2721
 6983TIP3    H242585   4.484   5.596   0.536 -0.2752 -0.1782 -0.3123
 6984TIP3   OH242586   0.444   6.044   0.620 -0.4362 -0.2439  0.5213
 6984TIP3    H142587   0.530   6.085   0.613  0.5259 -2.0951  0.9507
 6984TIP3    H242588   0.387   6.114   0.653  1.2452  0.5821  1.8041
 6985TIP3   OH242589   5.998   6.087   1.369  0.5274 -0.1761 -0.1107
 6985TIP3    H142590   6.000   6.071   1.463  0.8347  2.0951  0.3086
 6985TIP3    H242591   5.918   6.137   1.354  0.6222 -0.2709 -1.0326
 6986TIP3   OH242592   1.518   6.031   0.105  0.0440 -0.0063  0.7497
 6986TIP3    H142593   1.500   5.971   0.034  0.9301 -0.1929  0.6727
 6986TIP3    H242594   1.474   5.993   0.181 -1.9932  0.8457  0.0727
 6987TIP3   OH242595   2.989   0.761   7.674 -0.8760  0.6721 -0.6071
 6987TIP3    H142596   2.979   0.668   7.655  0.2695  0.2746  0.6071
 6987TIP3    H242597   3.080   0.780   7.651 -0.2218  0.7839  1.7954
 6988TIP3   OH242598   0.342   6.300   8.306  0.5508 -0.0929  0.3911
 6988TIP3    H142599   0.392   6.347   8.239  0.5187  0.1281  0.5231
 6988TIP3    H242600   0.372   6.338   8.389 -1.7714  1.9531  0.3854
 6989TIP3   OH242601   6.248   5.792   7.370  0.3750 -0.3417 -0.1968
 6989TIP3    H142602   6.186   5.862   7.349  0.2926 -0.2814  0.2356
 6989TIP3    H242603   6.251   5.738   7.291  0.2939  0.0396 -0.4660
 6990TIP3   OH242604   6.532   2.927   1.891  0.4881 -0.1643  0.2287
 6990TIP3    H142605   6.463   2.935   1.826  0.7965  0.9511  0.0254
 6990TIP3    H242606   6.529   2.835   1.918 -0.4820 -0.3337 -0.4187
 6991TIP3   OH242607   4.755   0.196   1.973  0.9237 -0.1066 -0.0365
 6991TIP3    H142608   4.689   0.161   1.913  0.9327  0.4405 -0.3720
 6991TIP3    H242609   4.755   0.135   2.046  0.4151 -0.4011 -0.2744
 6992TIP3   OH242610   6.144   3.496   3.305  0.1351 -0.5889 -0.6244
 6992TIP3    H142611   6.105   3.410   3.323  0.8596 -0.9181 -0.5951
 6992TIP3    H242612   6.169   3.493   3.213  1.9562 -1.1531 -0.1440
 6993TIP3   OH242613   6.695   5.088   2.287  0.1263 -0.4178  0.4249
 6993TIP3    H142614   6.784   5.124   2.278  0.4929 -0.2115  3.8218
 6993TIP3    H242615   6.637   5.161   2.264  0.8354  0.2226  0.6353
 6994TIP3   OH242616   2.239   0.400   1.078 -0.5340 -0.3463 -0.1650
 6994TIP3    H142617   2.211   0.326   1.024  0.1989 -0.3163 -0.6040
 6994TIP3    H242618   2.287   0.360   1.150  0.3195 -0.2814 -0.6864
 6995TIP3   OH242619   6.358   6.676   0.963  0.0966  0.0101 -0.0642
 6995TIP3    H142620   6.434   6.666   0.907 -0.2453  0.1456 -0.5605
 6995TIP3    H242621   6.393   6.673   1.052  0.7124  0.3754 -0.2875
 6996TIP3   OH242622   3.221   0.459   8.168  1.3048  0.0619  0.1903
 6996TIP3    H142623   3.128   0.442   8.184  1.7576 -2.0634  0.7906
 6996TIP3    H242624   3.259   0.467   8.255  1.4382  2.9731 -0.0172
 6997TIP3   OH242625   4.877   5.089   8.171 -0.1477  0.2326  0.0200
 6997TIP3    H142626   4.972   5.093   8.159 -0.0683 -1.1771  0.0289
 6997TIP3    H242627   4.856   4.995   8.168 -1.7394  0.5764 -1.5882
 6998TIP3   OH242628   2.690   2.242   0.032 -0.6761 -0.4144 -0.7800
 6998TIP3    H142629   2.771   2.271   0.073 -1.8470  0.1242  1.2985
 6998TIP3    H242630   2.689   2.147   0.042 -0.2134 -0.4409 -0.9930
 6999TIP3   OH242631   4.806   5.644   1.037  0.8175 -0.1195  0.6010
 6999TIP3    H142632   4.712   5.635   1.053  0.6647 -0.5740 -0.4646
 6999TIP3    H242633   4.834   5.714   1.095  0.1829 -1.2010  2.2952
 7000TIP3   OH242634   5.483   2.637   7.587 -0.2456  0.1520 -0.4742
 7000TIP3    H142635   5.524   2.589   7.659  0.5881  2.3278  0.6070
 7000TIP3    H242636   5.475   2.572   7.517 -1.4008 -2.1519  1.6274
 7001TIP3   OH242637   5.450   3.252   0.552 -0.3805 -0.7536 -0.1827
 7001TIP3    H142638   5.360   3.284   0.559  0.5394  1.6714  2.6709
 7001TIP3    H242639   5.453   3.175   0.608 -0.5711 -0.4961  0.1854
 7002TIP3   OH242640   2.965   6.915   0.349  0.0596  0.6522  0.4779
 7002TIP3    H142641   2.987   6.871   0.431 -0.8377  2.1401  1.5802
 7002TIP3    H242642   3.036   6.978   0.335 -0.3555  1.1989  0.7584
 7003TIP3   OH242643   6.130   3.777   8.323 -0.2362  0.2694  0.1335
 7003TIP3    H142644   6.047   3.773   8.371  0.0258 -1.1571  0.4965
 7003TIP3    H242645   6.192   3.729   8.378  0.8651  1.3700 -0.1059
 7004TIP3   OH242646   4.411   2.086   0.822  0.2220  0.1921  0.1448
 7004TIP3    H142647   4.445   2.052   0.740 -1.1038 -0.7687 -0.0492
 7004TIP3    H242648   4.330   2.132   0.798 -1.5912 -2.2501  1.0965
 7005TIP3   OH242649   3.327   6.787   1.121 -0.0756  0.5347  0.4916
 7005TIP3    H142650   3.285   6.870   1.143  0.0266  0.0558  2.7294
 7005TIP3    H242651   3.307   6.730   1.195  1.5002 -0.8204 -0.0724
 7006TIP3   OH242652   1.531   2.772   7.619  0.0113 -0.1616 -0.0993
 7006TIP3    H142653   1.476   2.774   7.540  0.6207 -0.6752 -0.5488
 7006TIP3    H242654   1.608   2.723   7.592  0.0197 -0.7447  0.9555
 7007TIP3   OH242655   5.944   4.145   0.837 -0.0815  0.0736  0.0897
 7007TIP3    H142656   5.933   4.193   0.919  2.4165  0.8399  0.0418
 7007TIP3    H242657   5.947   4.212   0.770 -0.0853 -0.4239 -0.4141
 7008TIP3   OH242658   3.216   3.319   2.549 -0.2730  0.0550 -0.5707
 7008TIP3    H142659   3.191   3.344   2.460 -0.5355  0.8974 -0.2680
 7008TIP3    H242660   3.273   3.390   2.579  0.3557 -0.5477 -0.2962
 7009TIP3   OH242661   6.927   5.491   3.155 -0.1871 -0.1621 -0.5981
 7009TIP3    H142662   6.930   5.436   3.077 -1.4247 -0.0279 -0.7490
 7009TIP3    H242663   6.869   5.445   3.215 -1.3140  0.9923 -0.7657
 7010TIP3   OH242664   1.614   5.135   0.617 -0.0879  0.2713  0.1274
 7010TIP3    H142665   1.535   5.176   0.650  0.1345  0.1086  0.8941
 7010TIP3    H242666   1.673   5.133   0.693 -0.5001 -2.4857  0.5083
 7011TIP3   OH242667   2.302   2.083   1.568  0.3133  0.1075 -0.1510
 7011TIP3    H142668   2.373   2.147   1.571  0.5741 -0.1855  0.0330
 7011TIP3    H242669   2.347   1.998   1.563 -0.0179 -0.0214 -1.3631
 7012TIP3   OH242670   2.364   6.404   0.021 -0.1673  0.0960 -0.3334
 7012TIP3    H142671   2.318   6.488   0.020 -0.9652 -0.3432 -0.6637
 7012TIP3    H242672   2.439   6.418  -0.037 -0.6339  0.3995 -0.8724
 7013TIP3   OH242673   3.329   4.809   8.429 -0.1938  0.5051  0.1330
 7013TIP3    H142674   3.318   4.814   8.524 -2.1973 -2.0822  0.1171
 7013TIP3    H242675   3.386   4.883   8.408 -0.3206  1.6093  3.2333
 7014TIP3   OH242676   3.536   1.079   0.762  0.1238 -0.1943 -0.5962
 7014TIP3    H142677   3.513   1.017   0.831  0.4134  0.8972  0.5396
 7014TIP3    H242678   3.470   1.067   0.694  0.0454 -1.5585 -0.2926
 7015TIP3   OH242679   3.002   3.406   0.398  0.6929  0.6262 -0.2708
 7015TIP3    H142680   2.942   3.380   0.467  1.4410 -0.2314  0.0776
 7015TIP3    H242681   3.025   3.325   0.353  1.6236  0.9105 -0.3488
 7016TIP3   OH242682   3.857   0.787   1.734  0.4883 -0.1296  0.0861
 7016TIP3    H142683   3.821   0.751   1.815  2.5706 -1.1350  0.6389
 7016TIP3    H242684   3.787   0.842   1.699 -0.6524 -0.0495  2.3031
 7017TIP3   OH242685   2.311   5.149   7.796 -0.4419 -0.0574  0.3316
 7017TIP3    H142686   2.314   5.212   7.725 -1.0313  0.4006  0.7093
 7017TIP3    H242687   2.399   5.110   7.797 -1.3488 -2.6288 -2.9116
 7018TIP3   OH242688   4.288   2.652   7.649  0.1018 -0.2941  0.9581
 7018TIP3    H142689   4.237   2.728   7.620 -0.0777 -0.5636  0.5538
 7018TIP3    H242690   4.284   2.655   7.744 -0.5671 -0.2412  0.9339
 7019TIP3   OH242691   5.194   2.995   0.851  0.8159 -0.4632 -0.1967
 7019TIP3    H142692   5.102   3.015   0.834  1.0804  0.8885 -0.1262
 7019TIP3    H242693   5.195   2.962   0.941  0.4171 -0.3616 -0.1523
 7020TIP3   OH242694   6.687   1.132   1.393 -0.1376 -0.2901 -0.7497
 7020TIP3    H142695   6.598   1.114   1.422  0.5524 -1.4926  0.7609
 7020TIP3    H242696   6.716   1.206   1.447 -0.5450  0.8346 -1.9996
 7021TIP3   OH242697   0.986   3.977   2.118 -0.6559  0.0270 -0.2966
 7021TIP3    H142698   0.959   3.894   2.158  1.4809 -0.6058 -0.0674
 7021TIP3    H242699   1.081   3.972   2.113 -0.6131  1.6183 -2.2143
 7022TIP3   OH242700   2.658   1.359   0.272 -0.2890 -0.3000  0.4570
 7022TIP3    H142701   2.729   1.422   0.256  0.3069 -1.0132  0.2056
 7022TIP3    H242702   2.690   1.305   0.344 -1.0450  0.0409  1.0596
 7023TIP3   OH242703   5.840   4.338   7.655 -0.3669  0.3673  0.1738
 7023TIP3    H142704   5.880   4.259   7.693 -1.1822 -0.3047 -0.3424
 7023TIP3    H242705   5.904   4.368   7.590 -0.0829  0.0958  0.3217
 7024TIP3   OH242706   0.647   4.878   0.298  0.3074  0.1413  0.9150
 7024TIP3    H142707   0.657   4.790   0.263 -0.1958  0.0516  0.9861
 7024TIP3    H242708   0.734   4.900   0.331  0.7914  0.2274 -0.3597
 7025TIP3   OH242709   3.305   0.497   7.592  0.1524 -0.3613  0.3064
 7025TIP3    H142710   3.249   0.504   7.514 -1.7932 -3.6915  1.2210
 7025TIP3    H242711   3.362   0.574   7.587 -1.4265  0.7982 -3.1420
 7026TIP3   OH242712   5.036   1.647   3.543 -0.1685  0.2148 -0.5029
 7026TIP3    H142713   4.957   1.613   3.501 -0.6663  0.7755 -0.0568
 7026TIP3    H242714   5.104   1.583   3.523 -0.9147 -0.6851 -0.2573
 7027TIP3   OH242715   3.484   0.765   7.679 -0.1991 -0.2501  0.3367
 7027TIP3    H142716   3.555   0.711   7.713  0.8875  0.9579  0.0484
 7027TIP3    H242717   3.453   0.815   7.755  0.2032  0.2452  0.1769
 7028TIP3   OH242718   5.347   5.216   0.324 -0.8091 -0.1033  0.3425
 7028TIP3    H142719   5.305   5.200   0.409  1.0586  0.3550  1.4088
 7028TIP3    H242720   5.392   5.300   0.335  0.3847 -0.5633 -0.7267
 7029TIP3   OH242721   6.188   2.473   3.130  0.2506 -0.0529  0.0179
 7029TIP3    H142722   6.246   2.503   3.061 -1.0211 -0.3569 -1.2255
 7029TIP3    H242723   6.178   2.549   3.188 -1.2324  1.3577 -1.9206
 7030TIP3   OH242724   4.078   5.138   0.878 -0.3430  0.0473  0.3974
 7030TIP3    H142725   3.986   5.114   0.886 -0.3371  0.2055  0.9600
 7030TIP3    H242726   4.122   5.086   0.946  0.0789 -0.5318 -0.3006
 7031TIP3   OH242727   4.199   0.334   2.078  0.1772  0.9282 -0.1835
 7031TIP3    H142728   4.185   0.389   2.000  0.6721  0.1589 -0.8359
 7031TIP3    H242729   4.111   0.308   2.104  0.0351 -1.8957 -2.8077
 7032TIP3   OH242730   3.659   3.492   1.086  0.3899 -0.0559  0.6980
 7032TIP3    H142731   3.719   3.556   1.047 -0.1419  0.1095  0.1365
 7032TIP3    H242732   3.706   3.459   1.162  0.7635  0.8522  0.8794
 7033TIP3   OH242733   2.565   0.498   1.610  0.0639 -0.4084 -0.6854
 7033TIP3    H142734   2.595   0.500   1.519  1.1457  0.5066 -0.3274
 7033TIP3    H242735   2.610   0.422   1.648  0.2885 -0.2774 -0.6899
 7034TIP3   OH242736   5.173   4.329   7.088  0.1233  0.0360  0.0279
 7034TIP3    H142737   5.173   4.422   7.065  3.0689  0.3940  0.9322
 7034TIP3    H242738   5.113   4.288   7.027 -4.1550  2.9137  1.8404
 7035TIP3   OH242739   0.733   0.815   8.316  0.2835  0.8333 -0.1739
 7035TIP3    H142740   0.707   0.795   8.226 -0.4059 -1.9892  0.5509
 7035TIP3    H242741   0.651   0.830   8.363  0.4227 -0.3993  0.5088
 7036TIP3   OH242742   1.320   6.481   6.454  0.0981  0.2426 -0.3457
 7036TIP3    H142743   1.301   6.409   6.513 -1.2336  0.5383 -0.3883
 7036TIP3    H242744   1.407   6.511   6.480 -0.5911  0.6117  1.7151
 7037TIP3   OH242745   0.258   0.796   7.605  0.5226 -0.3880 -0.6422
 7037TIP3    H142746   0.234   0.790   7.513  1.0891 -2.4860 -0.6963
 7037TIP3    H242747   0.209   0.725   7.647  2.0435 -0.9504  0.2490
 7038TIP3   OH242748   2.737   3.791   8.381 -0.0467  0.2935  0.0776
 7038TIP3    H142749   2.722   3.849   8.306  1.3023  1.7357  0.8755
 7038TIP3    H242750   2.812   3.738   8.355 -1.0456 -0.8885 -0.5000
 7039TIP3   OH242751   5.809   0.417   2.111  0.3321  0.3243  0.1069
 7039TIP3    H142752   5.876   0.485   2.113 -0.3764  1.0228  0.7343
 7039TIP3    H242753   5.821   0.374   2.026  0.3564  1.6717 -0.6010
 7040TIP3   OH242754   6.157   6.250   1.189  0.4535 -0.4348 -0.4137
 7040TIP3    H142755   6.122   6.221   1.273 -0.8728  0.3980 -0.6631
 7040TIP3    H242756   6.093   6.313   1.156  2.4004  1.5314 -0.6814
 7041TIP3   OH242757   3.191   6.317   2.480  0.0984  0.3953  0.0512
 7041TIP3    H142758   3.275   6.346   2.514 -0.1649  0.0333  1.0560
 7041TIP3    H242759   3.209   6.233   2.438  0.9063  1.9844 -3.0721
 7042TIP3   OH242760   3.124   4.916   2.716  0.6912  0.4402 -0.9342
 7042TIP3    H142761   3.099   4.926   2.808 -0.2582 -1.7823 -0.9012
 7042TIP3    H242762   3.217   4.942   2.714  0.6014  0.9770  0.5283
 7043TIP3   OH242763   4.582   1.362   2.022 -0.0608 -0.5041  0.5484
 7043TIP3    H142764   4.559   1.422   2.093  0.0801 -1.1567  1.1599
 7043TIP3    H242765   4.664   1.397   1.987  0.0903 -0.4093  0.9881
 7044TIP3   OH242766   3.939   0.792   7.703 -0.2289 -0.3431  0.1137
 7044TIP3    H142767   3.978   0.838   7.777 -1.5453  1.4452 -0.2284
 7044TIP3    H242768   3.847   0.819   7.704 -0.2513 -0.1267 -2.2675
 7045TIP3   OH242769   2.314   3.200   1.000 -0.0055  0.3165 -0.0117
 7045TIP3    H142770   2.410   3.198   1.003  0.0704  2.2410  0.0951
 7045TIP3    H242771   2.292   3.157   0.918  0.9743  0.3401 -0.3055
 7046TIP3   OH242772   5.818   1.032   0.452 -0.3391  0.4335  0.2666
 7046TIP3    H142773   5.866   1.008   0.531  0.6702 -0.1610 -0.5116
 7046TIP3    H242774   5.825   0.955   0.396 -2.5716  0.1448  0.2849
 7047TIP3   OH242775   2.712   0.412   1.388  0.2638 -0.1441 -0.2602
 7047TIP3    H142776   2.760   0.336   1.356  0.6053  1.0934 -2.9120
 7047TIP3    H242777   2.689   0.462   1.310 -1.3582  1.6914  1.2562
 7048TIP3   OH242778   2.349   3.276   1.282 -0.2893 -0.6179  0.2346
 7048TIP3    H142779   2.316   3.262   1.194  1.7956 -2.4542 -0.3609
 7048TIP3    H242780   2.307   3.356   1.312 -1.7425 -0.4499 -2.0663
 7049TIP3   OH242781   4.498   2.190   1.469 -0.5572  0.1362 -0.4991
 7049TIP3    H142782   4.428   2.188   1.534  0.5250  2.1114  0.8248
 7049TIP3    H242783   4.498   2.280   1.437  0.7779 -0.0761 -1.1581
 7050TIP3   OH242784   2.897   1.303   1.363 -0.1214 -0.5909  0.0504
 7050TIP3    H142785   2.843   1.334   1.435  2.3880 -1.7134  2.6578
 7050TIP3    H242786   2.912   1.380   1.308 -2.4310  0.2161  0.4526
 7051TIP3   OH242787   1.968   0.383   1.388  0.5834 -0.0406  0.4836
 7051TIP3    H142788   1.955   0.333   1.308  0.0751 -1.0796  1.1852
 7051TIP3    H242789   1.963   0.474   1.361  1.1416 -0.3698 -0.7727
 7052TIP3   OH242790   4.082   0.059   0.735  0.1507 -0.0038 -0.0538
 7052TIP3    H142791   4.158   0.070   0.678  0.0523  0.1216 -0.1606
 7052TIP3    H242792   4.011   0.104   0.689  0.4669  1.6834  1.0016
 7053TIP3   OH242793   3.669   4.909   8.388 -0.0780 -0.2131 -0.2936
 7053TIP3    H142794   3.589   4.954   8.361  1.6378  2.8982 -0.7728
 7053TIP3    H242795   3.725   4.911   8.310  1.3912  0.0635  0.7183
 7054TIP3   OH242796   6.372   0.091   1.729  0.2971 -0.3087  0.4961
 7054TIP3    H142797   6.446   0.080   1.790  0.0178 -0.0293  0.8849
 7054TIP3    H242798   6.414   0.102   1.644  0.8292  2.1169  0.9879
 7055TIP3   OH242799   6.988   1.083   0.126  0.0781 -0.5357  0.2595
 7055TIP3    H142800   7.080   1.064   0.106  0.1178 -0.6538  0.5497
 7055TIP3    H242801   6.989   1.118   0.215 -0.0925  0.0443  0.0331
 7056TIP3   OH242802   2.900   0.052   0.668 -0.3955  0.6557  0.1629
 7056TIP3    H142803   2.980   0.002   0.681 -0.2880  0.7862  0.0078
 7056TIP3    H242804   2.831  -0.014   0.661 -0.3373  0.5542  0.5514
 7057TIP3   OH242805   4.066   1.739   1.960 -0.5370 -0.3193 -0.2461
 7057TIP3    H142806   4.146   1.769   2.004 -0.6709 -1.5033  0.8607
 7057TIP3    H242807   4.089   1.655   1.921 -0.6634  0.3288 -1.8116
 7058TIP3   OH242808   4.480   2.605   1.641  0.0447  0.5993 -0.0723
 7058TIP3    H142809   4.413   2.591   1.708 -0.4536  0.2187 -0.6369
 7058TIP3    H242810   4.537   2.528   1.648 -0.7888 -0.1239 -0.9725
 7059TIP3   OH242811   0.305   6.978   8.233  0.1716  0.1230 -0.4408
 7059TIP3    H142812   0.377   7.037   8.257  0.7113 -0.1533 -1.3567
 7059TIP3    H242813   0.346   6.910   8.180 -0.6146 -0.5480 -0.2118
 7060TIP3   OH242814   0.152   4.618   0.422 -0.1776 -0.3204 -0.3469
 7060TIP3    H142815   0.206   4.650   0.349  1.5238  0.2722  1.0987
 7060TIP3    H242816   0.132   4.696   0.473  1.8309 -1.0658  1.8034
 7061TIP3   OH242817   5.710   4.908   8.193  0.2412 -0.2427 -0.0172
 7061TIP3    H142818   5.771   4.840   8.222 -0.5948 -0.9766  0.0784
 7061TIP3    H242819   5.762   4.988   8.192  1.1707 -0.8212  0.1776
 7062TIP3   OH242820   0.112   0.673   2.340 -0.9185  0.6074  0.6600
 7062TIP3    H142821   0.093   0.622   2.418  1.8543  1.9952  2.4206
 7062TIP3    H242822   0.191   0.632   2.303 -2.2008 -0.0580 -1.5455
 7063TIP3   OH242823   0.450   4.071   0.110  0.5210 -0.4627 -0.3715
 7063TIP3    H142824   0.406   4.091   0.192  0.1380  0.3348 -0.7525
 7063TIP3    H242825   0.397   4.002   0.070 -1.1382  1.2861 -1.3690
 7064TIP3   OH242826   6.948   1.806   8.052 -0.0036 -0.4259  0.3345
 7064TIP3    H142827   7.039   1.779   8.064 -0.4854 -2.2820  0.0763
 7064TIP3    H242828   6.932   1.867   8.124  1.0664 -1.0741  1.1522
 7065TIP3   OH242829   1.852   3.548   0.308  0.4881  0.3543  0.1659
 7065TIP3    H142830   1.762   3.561   0.279  1.0484  0.8384 -1.4907
 7065TIP3    H242831   1.891   3.635   0.305  0.1128  0.8914  4.5117
 7066TIP3   OH242832   5.775   6.842   1.600 -0.6676  1.3518  0.1179
 7066TIP3    H142833   5.824   6.860   1.520 -0.0730  2.5935  0.7230
 7066TIP3    H242834   5.736   6.926   1.624  0.2727  1.3624  1.8228
 7067TIP3   OH242835   3.269   4.014   7.332  0.2575  0.1157  0.1723
 7067TIP3    H142836   3.211   3.978   7.265 -0.6285  1.4669  0.1868
 7067TIP3    H242837   3.317   3.938   7.365 -0.9104 -0.9095 -0.4068
 7068TIP3   OH242838   4.535   0.823   2.209  0.6138  0.2095 -0.5592
 7068TIP3    H142839   4.482   0.771   2.270  0.9301  1.2509  0.6573
 7068TIP3    H242840   4.479   0.834   2.132  0.0324 -0.7942 -0.2991
 7069TIP3   OH242841   2.909   5.166   0.724 -0.2008  0.0250  0.0092
 7069TIP3    H142842   2.920   5.075   0.696  1.2054  0.6962 -1.8437
 7069TIP3    H242843   2.968   5.175   0.799 -1.6887 -0.9979  1.3866
 7070TIP3   OH242844   5.893   1.126   2.359  0.5894  0.4801 -0.1670
 7070TIP3    H142845   5.970   1.099   2.408  0.3123  0.7496  0.4293
 7070TIP3    H242846   5.925   1.190   2.297  1.2125 -1.0017 -1.4288
 7071TIP3   OH242847   2.859   3.357   1.306 -0.4121  0.1171 -0.7340
 7071TIP3    H142848   2.794   3.286   1.308 -0.7187  0.3917 -1.0354
 7071TIP3    H242849   2.929   3.326   1.364 -1.4617  0.4496  0.7727
 7072TIP3   OH242850   1.461   4.581   0.844  0.0145 -0.0208  0.4890
 7072TIP3    H142851   1.443   4.489   0.861  0.1280 -0.0741  0.3175
 7072TIP3    H242852   1.518   4.581   0.767 -2.5481  0.3425 -1.5471
 7073TIP3   OH242853   2.365   1.426   7.786 -0.4832 -0.3027  0.2131
 7073TIP3    H142854   2.320   1.508   7.805  1.7570  1.6984 -2.1855
 7073TIP3    H242855   2.308   1.382   7.723 -0.7695  0.4756 -0.0957
 7074TIP3   OH242856   5.419   3.567   1.001  0.0978 -0.2873 -0.2797
 7074TIP3    H142857   5.457   3.643   0.957  1.1284  0.0039  1.0637
 7074TIP3    H242858   5.331   3.596   1.025  0.0242  0.0253 -0.8966
 7075TIP3   OH242859   1.738   5.900   0.924 -0.1886  0.1970  0.7920
 7075TIP3    H142860   1.722   5.984   0.967 -0.7527 -0.1178  1.2214
 7075TIP3    H242861   1.750   5.922   0.832 -2.9220  0.5599  0.4209
 7076TIP3   OH242862   3.176   4.406   7.990  0.1057  0.0936  0.8368
 7076TIP3    H142863   3.200   4.367   7.906 -1.1160  1.7293 -0.3554
 7076TIP3    H242864   3.222   4.354   8.055 -0.5275 -2.5626 -0.6969
 7077TIP3   OH242865   2.916   3.526   1.609  0.0616 -0.4378 -0.1866
 7077TIP3    H142866   2.863   3.605   1.625 -1.1512 -1.3475  0.4998
 7077TIP3    H242867   2.851   3.456   1.600  1.0787 -2.2435  4.0124
 7078TIP3   OH242868   4.365   4.719   8.172 -0.4523  0.4079  0.0273
 7078TIP3    H142869   4.420   4.771   8.112  1.9081 -0.3684  1.3853
 7078TIP3    H242870   4.389   4.750   8.259 -1.6163 -0.5406  0.7050
 7079TIP3   OH242871   2.906   4.339   2.039  0.1486 -0.3661  0.2184
 7079TIP3    H142872   2.866   4.285   1.971 -0.2092  0.4912 -0.2686
 7079TIP3    H242873   2.866   4.309   2.121  0.3234 -1.1643  0.0119
 7080TIP3   OH242874   1.200   2.991   0.803 -0.2244 -0.1486  0.1124
 7080TIP3    H142875   1.164   2.986   0.714  0.1869  1.8570 -0.2170
 7080TIP3    H242876   1.143   3.053   0.848  1.9506  2.1213 -0.0483
 7081TIP3   OH242877   6.371   1.400   0.643  0.0256  0.4244  0.2260
 7081TIP3    H142878   6.291   1.401   0.590 -0.5792 -1.6946  1.0224
 7081TIP3    H242879   6.347   1.447   0.723  0.5483  2.4594 -0.7383
 7082TIP3   OH242880   6.846   4.825   2.301  0.3989  0.3876  0.5717
 7082TIP3    H142881   6.820   4.894   2.239  0.2828 -1.4363 -1.5457
 7082TIP3    H242882   6.766   4.807   2.351 -0.0804  0.5923 -0.0905
 7083TIP3   OH242883   1.169   6.775   8.003  0.1962 -0.2493  0.4660
 7083TIP3    H142884   1.249   6.767   8.054 -0.4795  0.5806  1.6906
 7083TIP3    H242885   1.187   6.726   7.922  1.8639 -0.2132  0.7861
 7084TIP3   OH242886   1.389   3.072   2.042  0.1496  0.2441 -0.3169
 7084TIP3    H142887   1.316   3.077   1.980  0.8514  0.8809 -1.1293
 7084TIP3    H242888   1.363   3.129   2.114 -0.4558 -0.0958 -0.2617
 7085TIP3   OH242889   2.304   0.158   0.923  0.0324 -0.3474  0.0081
 7085TIP3    H142890   2.365   0.128   0.856  0.2856 -2.4458  1.0909
 7085TIP3    H242891   2.341   0.125   1.005 -0.1901  2.2348  1.2444
 7086TIP3   OH242892   4.360   0.003   1.231 -0.3596 -0.2168 -0.1602
 7086TIP3    H142893   4.347  -0.043   1.314 -0.8777  0.6732  0.2694
 7086TIP3    H242894   4.272   0.032   1.206 -0.0956  0.2075 -0.6036
 7087TIP3   OH242895   0.726   3.474   2.894 -0.3643  0.4399  0.1962
 7087TIP3    H142896   0.744   3.547   2.954 -2.2618 -0.4594  1.9806
 7087TIP3    H242897   0.811   3.431   2.882  0.1485  0.8803  1.9566
 7088TIP3   OH242898   5.446   4.875   1.039  0.3808  0.2944 -0.2705
 7088TIP3    H142899   5.411   4.960   1.066  1.2157  1.4529 -2.4986
 7088TIP3    H242900   5.536   4.875   1.071  0.1095 -0.1658  0.5093
 7089TIP3   OH242901   5.640   4.140   1.412  0.0573  0.3929  0.3111
 7089TIP3    H142902   5.640   4.087   1.332  0.6106  1.0758 -0.1516
 7089TIP3    H242903   5.557   4.188   1.408 -0.2150 -0.0637  0.4777
 7090TIP3   OH242904   6.377   4.639   7.491  0.1909  0.5075 -0.7069
 7090TIP3    H142905   6.434   4.714   7.477 -0.8702  1.7894  1.3257
 7090TIP3    H242906   6.430   4.577   7.543  0.4740  0.6726 -0.7985
 7091TIP3   OH242907   0.140   4.384   1.239  0.7462 -0.4290  0.0091
 7091TIP3    H142908   0.217   4.384   1.182  0.4369 -0.4893 -0.4155
 7091TIP3    H242909   0.119   4.291   1.251  0.3915 -0.3965 -0.3540
 7092TIP3   OH242910   1.427   6.819   1.696  0.5928  0.2804  0.3933
 7092TIP3    H142911   1.516   6.802   1.725  0.5638 -0.9056 -0.1349
 7092TIP3    H242912   1.391   6.732   1.676 -0.1661  0.8501 -0.8731
 7093TIP3   OH242913   0.989   0.038   2.110 -0.9147 -0.4691  0.4812
 7093TIP3    H142914   0.916   0.096   2.087 -0.8149 -0.7295 -0.5425
 7093TIP3    H242915   1.041   0.088   2.173 -0.4558  0.8706 -0.8938
 7094TIP3   OH242916   1.018   3.428   2.349 -0.0565  0.1016  0.1124
 7094TIP3    H142917   1.110   3.413   2.328 -0.1494  1.7778 -1.8026
 7094TIP3    H242918   0.976   3.342   2.338  0.8967 -0.2000 -1.3608
 7095TIP3   OH242919   4.417   4.071   8.218  0.3664 -0.2552 -0.0507
 7095TIP3    H142920   4.473   4.129   8.271  1.2617 -2.2452  1.3029
 7095TIP3    H242921   4.333   4.115   8.215  0.8478  0.8518  1.4320
 7096TIP3   OH242922   4.316   3.321   2.286 -0.0608  0.4485  0.5880
 7096TIP3    H142923   4.355   3.248   2.334 -0.0694 -0.4442 -0.6893
 7096TIP3    H242924   4.256   3.361   2.347  1.3814  0.6078  1.9635
 7097TIP3   OH242925   4.458   2.855   0.601 -0.9987  0.3882  0.2352
 7097TIP3    H142926   4.385   2.911   0.576 -0.7405  0.5798 -0.1121
 7097TIP3    H242927   4.534   2.914   0.598 -0.4408 -0.3407 -1.8349
 7098TIP3   OH242928   3.840   4.449   1.409  0.0376  0.4360  0.2568
 7098TIP3    H142929   3.926   4.412   1.387 -1.3199 -1.6993 -1.8097
 7098TIP3    H242930   3.800   4.385   1.467 -0.8782  0.4622 -0.3271
 7099TIP3   OH242931   6.219   2.081   2.628  0.6047  0.6118  1.3470
 7099TIP3    H142932   6.168   2.108   2.705  0.3028  1.7998  0.7423
 7099TIP3    H242933   6.300   2.130   2.635  0.6156  0.6472  0.9451
 7100TIP3   OH242934   4.402   4.021   0.605  0.2796  0.1187  0.2328
 7100TIP3    H142935   4.356   3.937   0.594 -0.4525  0.7748 -2.4260
 7100TIP3    H242936   4.482   3.998   0.652 -0.2907 -1.9306  0.3257
 7101TIP3   OH242937   0.522   4.999   2.169 -0.5304 -0.1145 -0.2468
 7101TIP3    H142938   0.468   5.022   2.094 -1.2012 -1.7231 -0.2975
 7101TIP3    H242939   0.566   5.081   2.194 -1.2423  0.7052 -1.6102
 7102TIP3   OH242940   6.747   2.553   1.175 -0.2074  0.3868  0.2128
 7102TIP3    H142941   6.837   2.525   1.156 -0.2999  0.2095  0.0342
 7102TIP3    H242942   6.701   2.472   1.194 -0.9226  0.1905 -2.0937
 7103TIP3   OH242943   6.339   3.995   1.621  0.3855 -0.0943 -0.2201
 7103TIP3    H142944   6.334   3.919   1.678  0.1416  0.0087 -0.1008
 7103TIP3    H242945   6.338   3.960   1.532  2.1278 -0.3447 -0.1724
 7104TIP3   OH242946   5.349   3.089   1.965  0.1127  0.1652 -0.3836
 7104TIP3    H142947   5.295   3.012   1.948 -0.2396 -0.1250  1.8204
 7104TIP3    H242948   5.309   3.159   1.912 -1.4374 -0.4222 -0.0320
 7105TIP3   OH242949   0.327   3.578   2.910  0.1351  0.1187 -0.2426
 7105TIP3    H142950   0.295   3.612   2.994 -0.0982 -0.8459  0.0723
 7105TIP3    H242951   0.388   3.508   2.934  1.3009  0.8798 -0.8639
 7106TIP3   OH242952   3.376   1.789   7.797 -0.1573 -0.0101 -0.2312
 7106TIP3    H142953   3.422   1.765   7.717 -0.4445  0.0578 -0.4199
 7106TIP3    H242954   3.364   1.884   7.791 -1.6492 -0.2113 -0.9138
 7107TIP3   OH242955   2.592   0.272   8.294 -0.0979 -0.0100  0.0806
 7107TIP3    H142956   2.555   0.337   8.235  0.4576  0.2749  0.0437
 7107TIP3    H242957   2.676   0.248   8.254  1.1372  1.4928  1.6363
 7108TIP3   OH242958   6.027   2.305   0.283  0.0871  0.6444  0.0955
 7108TIP3    H142959   6.016   2.343   0.370  0.2812 -1.0911  0.9175
 7108TIP3    H242960   5.937   2.294   0.250 -0.1651 -1.3336  1.3076
 7109TIP3   OH242961   1.201   0.971   0.536 -0.1345 -0.2682 -0.4812
 7109TIP3    H142962   1.116   0.950   0.496 -1.1525  1.7995  0.4214
 7109TIP3    H242963   1.180   1.038   0.602  1.9303 -1.2180  1.2425
 7110TIP3   OH242964   6.448   4.211   2.074 -0.5096 -0.3278  0.1625
 7110TIP3    H142965   6.430   4.295   2.116  2.0095  0.0086  0.7237
 7110TIP3    H242966   6.511   4.168   2.131 -1.6694 -2.6171 -0.1619
 7111TIP3   OH242967   5.932   3.031   1.853  0.1320 -0.3035 -0.3384
 7111TIP3    H142968   5.872   3.026   1.928  1.7599  0.8410  1.1158
 7111TIP3    H242969   5.969   2.943   1.846  0.5071 -0.2340  0.6827
 7112TIP3   OH242970   2.344   5.814   1.405 -0.1670 -0.1633 -0.1933
 7112TIP3    H142971   2.343   5.815   1.309 -1.2256 -0.1328 -0.1915
 7112TIP3    H242972   2.403   5.885   1.430  0.6705 -0.6177 -0.8197
 7113TIP3   OH242973   6.851   1.921   7.546  0.7130 -0.3745 -0.3241
 7113TIP3    H142974   6.854   1.854   7.614 -0.0055 -1.9030 -1.7041
 7113TIP3    H242975   6.881   1.876   7.467 -1.3414  0.4038 -1.6515
 7114TIP3   OH242976   5.393   3.037   1.553  0.7034 -0.1645  0.6653
 7114TIP3    H142977   5.448   2.959   1.558 -1.1674 -1.4808  1.9015
 7114TIP3    H242978   5.419   3.089   1.629  1.4697  0.0861  0.2359
 7115TIP3   OH242979   4.345   6.234   0.156  0.2163  0.6222 -0.3349
 7115TIP3    H142980   4.421   6.291   0.167  0.7927 -0.1587 -0.1563
 7115TIP3    H242981   4.282   6.264   0.221  1.1344  0.0677  0.8536
 7116TIP3   OH242982   2.687   0.811   7.457  0.3049  0.1262 -0.1140
 7116TIP3    H142983   2.760   0.749   7.454  1.8324  1.7577  0.9637
 7116TIP3    H242984   2.657   0.817   7.366  1.1494 -0.9931 -0.4905
 7117TIP3   OH242985   6.470   0.037   8.110 -0.4769 -0.1194  0.1682
 7117TIP3    H142986   6.542   0.045   8.047 -1.0069 -0.1101 -0.4550
 7117TIP3    H242987   6.406   0.103   8.081 -0.9441 -0.4544  0.4127
 7118TIP3   OH242988   1.045   2.091   1.938  0.2131 -0.5263 -0.6942
 7118TIP3    H142989   1.002   2.093   2.024 -0.9757 -1.1739 -1.2400
 7118TIP3    H242990   1.122   2.146   1.948  0.4154 -1.0697  0.9601
 7119TIP3   OH242991   4.519   5.152   0.040 -0.3818  0.0154  0.2374
 7119TIP3    H142992   4.529   5.144  -0.055  0.8927  0.5252  0.3084
 7119TIP3    H242993   4.427   5.177   0.052 -0.2056  1.3597 -0.9491
 7120TIP3   OH242994   5.488   5.681   1.486  0.4682  0.5582  0.0013
 7120TIP3    H142995   5.559   5.624   1.457  0.6840  0.2370  1.1014
 7120TIP3    H242996   5.480   5.663   1.580 -0.7631  0.9198 -0.0189
 7121TIP3   OH242997   3.798   1.168   0.743  0.2603 -0.5969  0.7689
 7121TIP3    H142998   3.817   1.152   0.651  1.1806  0.2456  0.7925
 7121TIP3    H242999   3.708   1.139   0.755 -1.3828  2.9724 -1.3698
 7122TIP3   OH243000   4.724   1.040   7.799 -0.3027 -0.2421  0.2121
 7122TIP3    H143001   4.672   1.016   7.723 -1.3009 -2.3257  1.4830
 7122TIP3    H243002   4.812   1.007   7.780 -0.8180 -1.7708  0.4090
 7123TIP3   OH243003   0.322   3.082   2.295  0.3060 -0.2368  0.6843
 7123TIP3    H143004   0.232   3.112   2.302  0.2887 -0.0205 -0.2905
 7123TIP3    H243005   0.339   3.079   2.201  0.2685 -3.3429  0.6684
 7124TIP3   OH243006   1.170   4.116   0.347  0.2721  0.3182 -0.6972
 7124TIP3    H143007   1.126   4.199   0.360  0.3652  0.7548 -2.8752
 7124TIP3    H243008   1.235   4.112   0.418 -0.5666  1.4856  0.1745
 7125TIP3   OH243009   4.174   3.466   3.104 -0.3790 -0.4810  0.0572
 7125TIP3    H143010   4.255   3.424   3.133 -0.4121 -0.6800 -0.1378
 7125TIP3    H243011   4.194   3.560   3.107 -0.1917 -0.5231  0.1590
 7126TIP3   OH243012   6.247   5.183   0.111  0.3654 -0.3792 -0.5565
 7126TIP3    H143013   6.262   5.213   0.201  0.0632  0.4217 -0.7597
 7126TIP3    H243014   6.214   5.261   0.066 -1.3561 -1.2772 -0.8851
 7127TIP3   OH243015   3.836   2.044   0.245  0.0136 -0.0115 -0.6568
 7127TIP3    H143016   3.892   1.991   0.301 -1.1117 -2.1940 -1.4928
 7127TIP3    H243017   3.896   2.101   0.198  1.1398  0.5104  1.2874
 7128TIP3   OH243018   6.225   2.006   6.997  0.1679 -0.4274  0.4874
 7128TIP3    H143019   6.170   1.964   6.932 -1.0420 -0.7007  1.6453
 7128TIP3    H243020   6.209   2.100   6.986  2.7065 -0.1357 -1.9526
 7129TIP3   OH243021   2.787   2.447   0.313  0.1212  0.1241  0.0856
 7129TIP3    H143022   2.858   2.502   0.282  0.1191 -0.1878 -0.4821
 7129TIP3    H243023   2.727   2.507   0.356  1.1441  0.2935  1.3743
 7130TIP3   OH243024   5.100   0.568   2.814 -0.3515  0.2573  0.2464
 7130TIP3    H143025   5.103   0.508   2.888  0.3029  0.8724  0.7349
 7130TIP3    H243026   5.049   0.522   2.747  0.5160 -1.0237  0.4386
 7131TIP3   OH243027   4.586   0.824   7.631 -0.6086 -0.1318 -0.1083
 7131TIP3    H143028   4.499   0.863   7.644  0.1755  1.7747 -0.2060
 7131TIP3    H243029   4.625   0.876   7.561  0.1816 -1.7613 -0.9160
 7132TIP3   OH243030   0.666   0.083   0.524  0.3910 -0.0041 -0.5804
 7132TIP3    H143031   0.585   0.043   0.495  0.8695 -1.2485 -0.2425
 7132TIP3    H243032   0.639   0.163   0.568 -0.5445  0.3448 -1.7234
 7133TIP3   OH243033   4.740   1.973   0.758 -0.2723  0.0198 -0.1524
 7133TIP3    H143034   4.673   1.921   0.714  1.1185 -1.5736 -0.4938
 7133TIP3    H243035   4.693   2.016   0.830 -1.9302  0.1505 -1.2664
 7134TIP3   OH243036   6.820   3.902   0.841  0.3299  0.5267  0.2225
 7134TIP3    H143037   6.725   3.894   0.845  0.2073 -0.1604 -2.2987
 7134TIP3    H243038   6.853   3.829   0.894 -0.5691  0.0941  0.2043
 7135TIP3   OH243039   2.829   3.620   1.878 -0.1652  0.2767 -0.2008
 7135TIP3    H143040   2.792   3.543   1.922  1.1299 -0.3913 -0.2213
 7135TIP3    H243041   2.794   3.695   1.926  0.2516 -0.3950  1.1955
 7136TIP3   OH243042   2.385   0.875   1.254 -0.1427  0.2964  0.1316
 7136TIP3    H143043   2.417   0.856   1.342  2.8999  0.5350 -0.8132
 7136TIP3    H243044   2.354   0.965   1.259 -1.7044 -0.2505  1.3175
 7137TIP3   OH243045   3.932   3.502   1.536  0.2041  0.4964  0.0803
 7137TIP3    H143046   3.923   3.567   1.605 -0.2189  0.5763 -0.0455
 7137TIP3    H243047   4.016   3.521   1.495  0.3314  0.6182  0.3981
 7138TIP3   OH243048   2.207   6.277   0.683 -0.1224 -0.1077  0.6533
 7138TIP3    H143049   2.289   6.303   0.725 -0.5617  0.2223  1.3312
 7138TIP3    H243050   2.191   6.189   0.716  0.6586 -0.7411 -0.5693
 7139TIP3   OH243051   4.644   1.969   6.922  0.6215 -0.0436  0.2732
 7139TIP3    H143052   4.566   1.919   6.946  0.0752  0.7627  0.2134
 7139TIP3    H243053   4.717   1.909   6.941 -0.0183 -0.9509 -0.0370
 7140TIP3   OH243054   4.954   5.703   3.100 -0.5756  0.3731 -0.0377
 7140TIP3    H143055   5.010   5.639   3.057 -0.4287  1.2565 -1.2107
 7140TIP3    H243056   5.010   5.780   3.111 -1.7597  1.6083 -2.0624
 7141TIP3   OH243057   6.821   5.854   1.483  0.3923 -0.6400  0.9444
 7141TIP3    H143058   6.743   5.883   1.436  0.8451  1.4806  1.4048
 7141TIP3    H243059   6.893   5.870   1.422  0.6886 -0.5831  1.3081
 7142TIP3   OH243060   5.015   6.760   0.220  0.9217  0.4291  0.9414
 7142TIP3    H143061   4.951   6.737   0.152 -0.1005  1.9872  1.3138
 7142TIP3    H243062   5.056   6.677   0.243  0.1566 -0.3793 -0.4424
 7143TIP3   OH243063   3.805   6.856   2.354 -0.5634  0.0931 -0.0645
 7143TIP3    H143064   3.756   6.892   2.429 -2.2930 -0.7317 -0.7447
 7143TIP3    H243065   3.803   6.927   2.289 -1.2342 -0.0818 -0.2417
 7144TIP3   OH243066   0.793   2.822   2.084 -0.3238 -0.4411 -0.0373
 7144TIP3    H143067   0.839   2.878   2.021  0.5469 -1.6541 -0.4985
 7144TIP3    H243068   0.716   2.874   2.109 -0.7654  0.0614 -2.1823
 7145TIP3   OH243069   1.083   4.155   7.776 -0.0851  0.0133  0.5914
 7145TIP3    H143070   1.107   4.094   7.845 -1.1943 -0.7977  0.2812
 7145TIP3    H243071   1.002   4.195   7.807 -0.7575 -0.5806 -0.3605
 7146TIP3   OH243072   5.137   1.944   0.948  0.6598  0.4254 -0.2363
 7146TIP3    H143073   5.112   1.913   0.861 -1.0897  0.3458  0.2764
 7146TIP3    H243074   5.086   1.891   1.009  2.0230  0.3272  0.8774
 7147TIP3   OH243075   6.299   4.057   0.031 -0.2977 -0.3361 -0.3051
 7147TIP3    H143076   6.363   4.004  -0.016  0.3384  0.4567 -0.3668
 7147TIP3    H243077   6.342   4.142   0.042 -1.5217  0.3760 -0.7719
 7148TIP3   OH243078   2.978   3.295   1.984  0.1188 -0.7740  0.7882
 7148TIP3    H143079   3.070   3.277   1.965 -0.0900  0.1666 -1.4692
 7148TIP3    H243080   2.979   3.382   2.025  0.3356 -1.4769  2.3196
 7149LIG     O143081   5.655   1.661   4.088  0.1692  0.3239  0.1377
 7149LIG     O243082   5.804   1.812   3.986  0.5954  0.1995  0.4559
 7149LIG     O343083   5.958   1.707   4.108 -0.6124  0.1905 -1.5117
 7149LIG     O443084   5.461   1.902   4.045 -0.1894  0.1484  0.0759
 7149LIG     O543085   5.548   1.928   4.317 -0.3382  0.0408 -0.1601
 7149LIG     O643086   5.909   1.777   3.742 -0.1408  0.5973  0.8551
 7149LIG     O743087   6.020   1.996   3.894  0.2090 -0.6687  0.1824
 7149LIG     O843088   6.234   1.964   4.064 -0.3774  0.5940 -0.0337
 7149LIG     O943089   5.592   1.832   3.765 -0.1615 -0.3354  0.2662
 7149LIG    O1043090   5.798   1.636   4.322 -0.2708 -1.2624 -0.7077
 7149LIG    O1143091   6.200   1.869   4.320 -0.7101 -0.0588  0.0975
 7149LIG     C143092   5.667   1.772   3.999  0.1193 -0.4308  0.1491
 7149LIG     C243093   5.607   1.896   4.071  0.0083 -0.0107 -0.3390
 7149LIG     C343094   5.626   1.856   4.218 -0.2853 -0.0823  0.0250
 7149LIG     C443095   5.600   1.703   4.219  0.1812  0.6067  0.5005
 7149LIG     C543096   5.900   1.715   3.978  0.5042 -0.6245 -0.7794
 7149LIG     C643097   5.984   1.750   3.860 -0.1655 -0.6312  0.0932
 7149LIG     C743098   6.083   1.870   3.894  0.0961 -0.0118  0.0579
 7149LIG     C843099   6.148   1.851   4.026 -0.1650 -0.3916 -0.8534
 7149LIG     C943100   6.041   1.825   4.135  0.2958  0.0123 -0.2779
 7149LIG    C1043101   5.597   1.729   3.864  0.3256 -0.3408 -0.3680
 7149LIG    C1143102   5.663   1.612   4.315  0.0537  0.3019 -0.9919
 7149LIG    C1243103   6.092   1.792   4.274 -0.2700 -0.7267 -0.4751
 7149LIG     H143104   5.652   1.989   4.036  0.7289 -0.2123  0.0413
 7149LIG     H243105   5.732   1.864   4.246 -0.9299  2.9893  2.0858
 7149LIG     H343106   5.494   1.676   4.210  0.3975  0.3720 -1.8509
 7149LIG     H443107   5.841   1.623   3.959  1.5801 -2.1263  2.3972
 7149LIG     H543108   6.055   1.666   3.843  0.0517 -1.6437  4.7889
 7149LIG     H643109   6.157   1.864   3.811 -1.5555  0.4866 -1.5321
 7149LIG     H743110   6.214   1.761   4.021  0.9823  0.3768 -0.0502
 7149LIG     H843111   5.981   1.918   4.148  1.1110  0.5556 -0.3290
 7149LIG     H943112   5.654   1.645   3.818  1.1892  0.2926 -0.4849
 7149LIG    H1043113   5.498   1.687   3.891 -0.2426  0.8861 -0.4939
 7149LIG    H1143114   5.623   1.629   4.417 -2.4411 -0.1352 -1.8247
 7149LIG    H1243115   5.658   1.502   4.298  0.1217  0.3295 -1.1913
 7149LIG    H1343116   6.020   1.819   4.354  0.0799  1.8640 -0.9355
 7149LIG    H1443117   6.133   1.689   4.274  3.0150  0.4402 -0.7947
 7149LIG    H1543118   5.439   1.945   3.962 -1.6513 -2.3962 -0.9974
 7149LIG    H1643119   5.463   1.928   4.274  0.5481 -0.2298 -2.0389
 7149LIG    H1743120   5.837   1.834   3.769  1.7110  3.0436  0.9412
 7149LIG    H1843121   6.089   2.061   3.912 -0.3832 -0.2838  1.0757
 7149LIG    H1943122   6.245   1.953   4.158 -1.2726  0.0729  0.0309
 7149LIG    H2043123   5.516   1.816   3.708 -0.4426  0.5698  0.3771
 7149LIG    H2143124   5.821   1.629   4.229 -1.9918  2.1263 -1.5600
 7149LIG    H2243125   6.207   1.858   4.415  0.8948  0.4325  0.0583
   6.99155   6.99155   8.46997
